mobley_1929982_GMX.gro created by acpype (v: 2023.10.27) on Wed May 20 23:51:35 2026
 7278
    1MOL     S1    1   2.052   2.065   2.122
    1MOL     H1    2   2.101   2.188   2.148
    1MOL     H2    3   2.141   2.042   2.024
    2SOL     OW    4   0.230   0.628   0.113
    2SOL    HW1    5   0.137   0.626   0.150
    2SOL    HW2    6   0.231   0.589   0.021
    3SOL     OW    7   0.225   0.275   0.996
    3SOL    HW1    8   0.260   0.258   1.088
    3SOL    HW2    9   0.137   0.230   0.984
    4SOL     OW   10   0.019   0.368   0.647
    4SOL    HW1   11  -0.063   0.411   0.686
    4SOL    HW2   12  -0.009   0.295   0.584
    5SOL     OW   13   0.569   1.275   1.165
    5SOL    HW1   14   0.476   1.268   1.128
    5SOL    HW2   15   0.580   1.364   1.209
    6SOL     OW   16   1.555   1.511   0.703
    6SOL    HW1   17   1.498   1.495   0.784
    6SOL    HW2   18   1.496   1.521   0.623
    7SOL     OW   19   1.135   0.703   0.717
    7SOL    HW1   20   1.192   0.781   0.692
    7SOL    HW2   21   1.075   0.729   0.793
    8SOL     OW   22   1.755   0.607   0.231
    8SOL    HW1   23   1.743   0.594   0.132
    8SOL    HW2   24   1.725   0.526   0.280
    9SOL     OW   25   0.768   1.144   1.023
    9SOL    HW1   26   0.690   1.161   1.083
    9SOL    HW2   27   0.802   1.231   0.987
   10SOL     OW   28   0.850   0.798   1.823
   10SOL    HW1   29   0.846   0.874   1.888
   10SOL    HW2   30   0.872   0.834   1.732
   11SOL     OW   31   0.685   1.012   0.665
   11SOL    HW1   32   0.754   0.996   0.735
   11SOL    HW2   33   0.612   1.069   0.703
   12SOL     OW   34   0.686   1.161   1.803
   12SOL    HW1   35   0.746   1.240   1.817
   12SOL    HW2   36   0.600   1.192   1.762
   13SOL     OW   37   0.335   1.435   1.061
   13SOL    HW1   38   0.257   1.404   1.008
   13SOL    HW2   39   0.393   1.493   1.004
   14SOL     OW   40   1.460   1.505   1.339
   14SOL    HW1   41   1.484   1.599   1.365
   14SOL    HW2   42   1.444   1.451   1.421
   15SOL     OW   43   0.438   0.392   1.499
   15SOL    HW1   44   0.520   0.336   1.508
   15SOL    HW2   45   0.357   0.334   1.503
   16SOL     OW   46   1.603   0.447   0.737
   16SOL    HW1   47   1.529   0.493   0.687
   16SOL    HW2   48   1.654   0.515   0.790
   17SOL     OW   49   0.231   1.713   0.483
   17SOL    HW1   50   0.265   1.790   0.537
   17SOL    HW2   51   0.275   1.713   0.393
   18SOL     OW   52   1.127   1.341   1.690
   18SOL    HW1   53   1.174   1.341   1.778
   18SOL    HW2   54   1.079   1.254   1.679
   19SOL     OW   55   0.230   1.434   0.538
   19SOL    HW1   56   0.204   1.530   0.538
   19SOL    HW2   57   0.159   1.380   0.583
   20SOL     OW   58   0.240   1.091   0.886
   20SOL    HW1   59   0.254   1.007   0.938
   20SOL    HW2   60   0.185   1.155   0.941
   21SOL     OW   61   0.620   1.786   1.439
   21SOL    HW1   62   0.528   1.769   1.474
   21SOL    HW2   63   0.648   1.878   1.465
   22SOL     OW   64   0.606   0.964   0.123
   22SOL    HW1   65   0.613   1.048   0.069
   22SOL    HW2   66   0.652   0.977   0.211
   23SOL     OW   67   1.594   0.114   1.480
   23SOL    HW1   68   1.576   0.181   1.408
   23SOL    HW2   69   1.591   0.160   1.569
   24SOL     OW   70   0.122   0.643   0.563
   24SOL    HW1   71   0.077   0.555   0.580
   24SOL    HW2   72   0.121   0.697   0.647
   25SOL     OW   73   1.842   1.767   0.359
   25SOL    HW1   74   1.896   1.738   0.439
   25SOL    HW2   75   1.872   1.857   0.330
   26SOL     OW   76   0.027   1.596   0.117
   26SOL    HW1   77   0.008   1.500   0.138
   26SOL    HW2   78  -0.006   1.654   0.192
   27SOL     OW   79   1.689   0.922   0.612
   27SOL    HW1   80   1.784   0.893   0.620
   27SOL    HW2   81   1.681   0.987   0.537
   28SOL     OW   82   1.641   1.108   0.432
   28SOL    HW1   83   1.727   1.110   0.380
   28SOL    HW2   84   1.655   1.155   0.520
   29SOL     OW   85   0.113   0.737   1.597
   29SOL    HW1   86   0.201   0.724   1.642
   29SOL    HW2   87   0.100   0.834   1.575
   30SOL     OW   88   0.613   1.365   0.726
   30SOL    HW1   89   0.564   1.278   0.735
   30SOL    HW2   90   0.590   1.408   0.639
   31SOL     OW   91   1.293   1.228   1.423
   31SOL    HW1   92   1.330   1.155   1.365
   31SOL    HW2   93   1.345   1.233   1.508
   32SOL     OW   94   0.809   0.004   0.502
   32SOL    HW1   95   0.849   0.095   0.493
   32SOL    HW2   96   0.709   0.012   0.508
   33SOL     OW   97   0.197   0.976   1.264
   33SOL    HW1   98   0.286   0.931   1.250
   33SOL    HW2   99   0.124   0.911   1.245
   34SOL     OW  100   1.525   0.999   0.190
   34SOL    HW1  101   1.462   0.923   0.203
   34SOL    HW2  102   1.573   1.017   0.276
   35SOL     OW  103   1.187   1.792   1.616
   35SOL    HW1  104   1.211   1.852   1.540
   35SOL    HW2  105   1.194   1.697   1.586
   36SOL     OW  106   0.317   0.251   1.801
   36SOL    HW1  107   0.388   0.322   1.807
   36SOL    HW2  108   0.229   0.290   1.829
   37SOL     OW  109   1.466   1.417   0.953
   37SOL    HW1  110   1.407   1.423   1.033
   37SOL    HW2  111   1.451   1.329   0.907
   38SOL     OW  112   1.667   1.714   0.572
   38SOL    HW1  113   1.626   1.691   0.484
   38SOL    HW2  114   1.649   1.640   0.637
   39SOL     OW  115   0.598   0.729   0.270
   39SOL    HW1  116   0.622   0.798   0.202
   39SOL    HW2  117   0.520   0.762   0.324
   40SOL     OW  118   1.281   0.345   0.944
   40SOL    HW1  119   1.195   0.295   0.931
   40SOL    HW2  120   1.343   0.291   1.000
   41SOL     OW  121   1.576   1.662   0.307
   41SOL    HW1  122   1.665   1.708   0.310
   41SOL    HW2  123   1.555   1.638   0.212
   42SOL     OW  124   0.807   0.605   1.465
   42SOL    HW1  125   0.760   0.602   1.554
   42SOL    HW2  126   0.756   0.550   1.399
   43SOL     OW  127   1.394   0.469   1.674
   43SOL    HW1  128   1.374   0.512   1.762
   43SOL    HW2  129   1.472   0.407   1.683
   44SOL     OW  130   0.973   0.890   1.572
   44SOL    HW1  131   1.019   0.806   1.543
   44SOL    HW2  132   0.917   0.924   1.497
   45SOL     OW  133   0.991   0.410   1.242
   45SOL    HW1  134   0.914   0.444   1.296
   45SOL    HW2  135   0.957   0.359   1.163
   46SOL     OW  136   1.041   0.701   0.429
   46SOL    HW1  137   1.067   0.697   0.525
   46SOL    HW2  138   0.956   0.650   0.415
   47SOL     OW  139   0.076   0.811   0.789
   47SOL    HW1  140   0.175   0.799   0.798
   47SOL    HW2  141   0.052   0.906   0.810
   48SOL     OW  142   0.130   1.821   1.571
   48SOL    HW1  143   0.120   1.806   1.670
   48SOL    HW2  144   0.044   1.857   1.535
   49SOL     OW  145   0.865   0.348   0.195
   49SOL    HW1  146   0.924   0.411   0.146
   49SOL    HW2  147   0.884   0.254   0.166
   50SOL     OW  148   1.719   0.585   1.831
   50SOL    HW1  149   1.693   0.674   1.795
   50SOL    HW2  150   1.717   0.517   1.758
   51SOL     OW  151   1.362   1.144   0.545
   51SOL    HW1  152   1.445   1.115   0.497
   51SOL    HW2  153   1.313   1.211   0.489
   52SOL     OW  154   0.550   0.196   0.885
   52SOL    HW1  155   0.545   0.191   0.985
   52SOL    HW2  156   0.552   0.292   0.856
   53SOL     OW  157   1.008   1.456   0.477
   53SOL    HW1  158   0.962   1.528   0.425
   53SOL    HW2  159   1.004   1.476   0.575
   54SOL     OW  160   0.351   1.801   0.853
   54SOL    HW1  161   0.401   1.715   0.859
   54SOL    HW2  162   0.416   1.878   0.850
   55SOL     OW  163   1.795   1.066   0.873
   55SOL    HW1  164   1.733   1.051   0.797
   55SOL    HW2  165   1.743   1.077   0.958
   56SOL     OW  166   1.227   1.550   1.506
   56SOL    HW1  167   1.233   1.473   1.570
   56SOL    HW2  168   1.175   1.524   1.426
   57SOL     OW  169   0.321   0.943   0.242
   57SOL    HW1  170   0.403   0.982   0.200
   57SOL    HW2  171   0.294   0.861   0.193
   58SOL     OW  172   1.458   0.735   0.728
   58SOL    HW1  173   1.453   0.670   0.803
   58SOL    HW2  174   1.538   0.794   0.741
   59SOL     OW  175   0.461   1.266   1.727
   59SOL    HW1  176   0.411   1.267   1.641
   59SOL    HW2  177   0.398   1.248   1.803
   60SOL     OW  178   1.111   1.776   0.237
   60SOL    HW1  179   1.051   1.714   0.287
   60SOL    HW2  180   1.142   1.732   0.152
   61SOL     OW  181   0.202   0.285   1.498
   61SOL    HW1  182   0.122   0.345   1.485
   61SOL    HW2  183   0.192   0.236   1.584
   62SOL     OW  184   1.632   1.377   0.081
   62SOL    HW1  185   1.600   1.471   0.071
   62SOL    HW2  186   1.556   1.314   0.069
   63SOL     OW  187   0.464   1.743   0.323
   63SOL    HW1  188   0.497   1.782   0.409
   63SOL    HW2  189   0.540   1.736   0.258
   64SOL     OW  190   1.400   0.107   0.426
   64SOL    HW1  191   1.376   0.070   0.336
   64SOL    HW2  192   1.499   0.123   0.430
   65SOL     OW  193   0.249   1.785   1.241
   65SOL    HW1  194   0.306   1.720   1.291
   65SOL    HW2  195   0.233   1.752   1.148
   66SOL     OW  196   0.940   1.698   0.904
   66SOL    HW1  197   1.020   1.641   0.925
   66SOL    HW2  198   0.891   1.658   0.827
   67SOL     OW  199   0.382   0.700   0.480
   67SOL    HW1  200   0.427   0.610   0.477
   67SOL    HW2  201   0.288   0.689   0.513
   68SOL     OW  202   1.547   0.222   1.729
   68SOL    HW1  203   1.542   0.259   1.821
   68SOL    HW2  204   1.475   0.153   1.717
   69SOL     OW  205   0.614   0.122   0.117
   69SOL    HW1  206   0.712   0.100   0.124
   69SOL    HW2  207   0.583   0.105   0.024
   70SOL     OW  208   0.781   0.264   1.749
   70SOL    HW1  209   0.848   0.203   1.792
   70SOL    HW2  210   0.708   0.283   1.814
   71SOL     OW  211   0.888   1.514   1.195
   71SOL    HW1  212   0.865   1.489   1.101
   71SOL    HW2  213   0.949   1.445   1.234
   72SOL     OW  214   1.351   0.590   1.433
   72SOL    HW1  215   1.379   0.547   1.518
   72SOL    HW2  216   1.376   0.686   1.434
   73SOL     OW  217   0.803   1.402   0.924
   73SOL    HW1  218   0.893   1.416   0.882
   73SOL    HW2  219   0.732   1.404   0.853
   74SOL     OW  220   0.922   0.503   0.899
   74SOL    HW1  221   0.897   0.494   0.803
   74SOL    HW2  222   0.970   0.421   0.930
   75SOL     OW  223   0.539   0.064   0.512
   75SOL    HW1  224   0.458   0.065   0.570
   75SOL    HW2  225   0.542   0.147   0.457
   76SOL     OW  226   1.434   1.188   0.041
   76SOL    HW1  227   1.466   1.112   0.098
   76SOL    HW2  228   1.342   1.215   0.071
   77SOL     OW  229   0.297   0.035   0.171
   77SOL    HW1  230   0.346   0.119   0.150
   77SOL    HW2  231   0.359  -0.030   0.216
   78SOL     OW  232   0.935   0.236   0.480
   78SOL    HW1  233   0.887   0.277   0.402
   78SOL    HW2  234   1.034   0.234   0.461
   79SOL     OW  235   1.076   0.683   1.464
   79SOL    HW1  236   0.996   0.622   1.467
   79SOL    HW2  237   1.157   0.630   1.440
   80SOL     OW  238   1.227   1.570   0.793
   80SOL    HW1  239   1.248   1.644   0.728
   80SOL    HW2  240   1.295   1.570   0.866
   81SOL     OW  241   0.459   1.152   0.741
   81SOL    HW1  242   0.388   1.125   0.806
   81SOL    HW2  243   0.433   1.124   0.648
   82SOL     OW  244   1.271   1.797   0.591
   82SOL    HW1  245   1.315   1.861   0.527
   82SOL    HW2  246   1.221   1.849   0.661
   83SOL     OW  247   1.032   0.549   0.016
   83SOL    HW1  248   0.991   0.631  -0.023
   83SOL    HW2  249   1.096   0.575   0.089
   84SOL     OW  250   0.078   0.556   1.386
   84SOL    HW1  251   0.170   0.555   1.345
   84SOL    HW2  252   0.072   0.630   1.453
   85SOL     OW  253   0.561   0.222   1.147
   85SOL    HW1  254   0.599   0.138   1.184
   85SOL    HW2  255   0.473   0.241   1.191
   86SOL     OW  256   0.866   0.454   0.642
   86SOL    HW1  257   0.834   0.526   0.580
   86SOL    HW2  258   0.890   0.373   0.589
   87SOL     OW  259   1.017   0.039   0.753
   87SOL    HW1  260   0.945   0.044   0.684
   87SOL    HW2  261   0.993  -0.030   0.822
   88SOL     OW  262   1.429   1.173   0.867
   88SOL    HW1  263   1.374   1.089   0.860
   88SOL    HW2  264   1.455   1.202   0.775
   89SOL     OW  265   1.466   0.590   0.992
   89SOL    HW1  266   1.436   0.495   0.999
   89SOL    HW2  267   1.539   0.606   1.058
   90SOL     OW  268   1.857   0.833   0.377
   90SOL    HW1  269   1.899   0.769   0.441
   90SOL    HW2  270   1.819   0.782   0.299
   91SOL     OW  271   0.488   1.385   0.174
   91SOL    HW1  272   0.401   1.370   0.221
   91SOL    HW2  273   0.471   1.411   0.079
   92SOL     OW  274   1.664   1.280   0.657
   92SOL    HW1  275   1.763   1.288   0.671
   92SOL    HW2  276   1.619   1.364   0.688
   93SOL     OW  277   1.390   0.575   0.078
   93SOL    HW1  278   1.336   0.554   0.159
   93SOL    HW2  279   1.481   0.534   0.087
   94SOL     OW  280   0.527   0.256   0.328
   94SOL    HW1  281   0.554   0.197   0.253
   94SOL    HW2  282   0.527   0.351   0.297
   95SOL     OW  283   1.754   1.223   1.588
   95SOL    HW1  284   1.845   1.184   1.575
   95SOL    HW2  285   1.762   1.319   1.612
   96SOL     OW  286   1.064   1.347   1.340
   96SOL    HW1  287   0.984   1.324   1.395
   96SOL    HW2  288   1.147   1.321   1.389
   97SOL     OW  289   1.592   1.629   1.625
   97SOL    HW1  290   1.619   1.663   1.535
   97SOL    HW2  291   1.671   1.591   1.671
   98SOL     OW  292   1.111   1.195   1.100
   98SOL    HW1  293   1.071   1.239   1.181
   98SOL    HW2  294   1.070   1.232   1.017
   99SOL     OW  295   1.638   1.099   1.079
   99SOL    HW1  296   1.643   1.180   1.138
   99SOL    HW2  297   1.552   1.101   1.028
  100SOL     OW  298   0.915   0.089   1.402
  100SOL    HW1  299   0.940   0.069   1.307
  100SOL    HW2  300   0.987   0.145   1.444
  101SOL     OW  301   0.980   1.116   1.719
  101SOL    HW1  302   0.881   1.122   1.729
  101SOL    HW2  303   1.003   1.036   1.663
  102SOL     OW  304   0.705   1.050   0.368
  102SOL    HW1  305   0.691   1.057   0.467
  102SOL    HW2  306   0.789   0.999   0.350
  103SOL     OW  307   0.410   0.813   1.251
  103SOL    HW1  308   0.496   0.825   1.301
  103SOL    HW2  309   0.368   0.726   1.278
  104SOL     OW  310   1.274   0.386   1.262
  104SOL    HW1  311   1.295   0.460   1.326
  104SOL    HW2  312   1.185   0.403   1.219
  105SOL     OW  313   0.064   1.564   1.331
  105SOL    HW1  314   0.018   1.646   1.297
  105SOL    HW2  315   0.162   1.583   1.340
  106SOL     OW  316   0.367   1.100   0.501
  106SOL    HW1  317   0.360   1.183   0.445
  106SOL    HW2  318   0.371   1.020   0.441
  107SOL     OW  319   0.566   0.537   0.865
  107SOL    HW1  320   0.578   0.603   0.791
  107SOL    HW2  321   0.612   0.571   0.948
  108SOL     OW  322   1.252   1.348   0.388
  108SOL    HW1  323   1.302   1.425   0.428
  108SOL    HW2  324   1.157   1.350   0.420
  109SOL     OW  325   1.272   1.445   1.142
  109SOL    HW1  326   1.319   1.458   1.229
  109SOL    HW2  327   1.206   1.371   1.151
  110SOL     OW  328   1.582   0.639   0.472
  110SOL    HW1  329   1.551   0.700   0.545
  110SOL    HW2  330   1.632   0.691   0.403
  111SOL     OW  331   0.354   1.510   1.329
  111SOL    HW1  332   0.333   1.466   1.242
  111SOL    HW2  333   0.451   1.536   1.332
  112SOL     OW  334   0.402   0.751   1.598
  112SOL    HW1  335   0.470   0.806   1.551
  112SOL    HW2  336   0.442   0.663   1.625
  113SOL     OW  337   1.587   0.779   1.670
  113SOL    HW1  338   1.495   0.817   1.665
  113SOL    HW2  339   1.647   0.826   1.605
  114SOL     OW  340   1.013   0.105   1.770
  114SOL    HW1  341   1.019   0.190   1.718
  114SOL    HW2  342   1.045   0.029   1.713
  115SOL     OW  343   0.504   0.050   1.740
  115SOL    HW1  344   0.462  -0.007   1.670
  115SOL    HW2  345   0.438   0.119   1.772
  116SOL     OW  346   0.573   0.870   1.029
  116SOL    HW1  347   0.617   0.959   1.020
  116SOL    HW2  348   0.510   0.870   1.106
  117SOL     OW  349   1.360   0.862   1.045
  117SOL    HW1  350   1.285   0.862   0.979
  117SOL    HW2  351   1.397   0.770   1.054
  118SOL     OW  352   1.209   0.525   0.275
  118SOL    HW1  353   1.222   0.441   0.329
  118SOL    HW2  354   1.180   0.599   0.335
  119SOL     OW  355   0.307   0.213   1.231
  119SOL    HW1  356   0.284   0.250   1.321
  119SOL    HW2  357   0.277   0.118   1.225
  120SOL     OW  358   0.037   1.310   1.282
  120SOL    HW1  359   0.090   1.261   1.350
  120SOL    HW2  360   0.059   1.408   1.287
  121SOL     OW  361   0.732   0.634   1.064
  121SOL    HW1  362   0.791   0.608   0.988
  121SOL    HW2  363   0.704   0.730   1.053
  122SOL     OW  364   1.728   0.935   1.854
  122SOL    HW1  365   1.682   0.928   1.765
  122SOL    HW2  366   1.666   0.979   1.920
  123SOL     OW  367   0.307   0.063   0.618
  123SOL    HW1  368   0.296   0.157   0.651
  123SOL    HW2  369   0.302   0.000   0.695
  124SOL     OW  370   1.622   0.367   0.374
  124SOL    HW1  371   1.624   0.291   0.438
  124SOL    HW2  372   1.574   0.444   0.414
  125SOL     OW  373   1.023   0.766   0.966
  125SOL    HW1  374   1.038   0.787   1.062
  125SOL    HW2  375   0.993   0.671   0.957
  126SOL     OW  376   0.980   1.573   1.700
  126SOL    HW1  377   0.960   1.617   1.612
  126SOL    HW2  378   1.019   1.482   1.684
  127SOL     OW  379   1.859   1.518   1.605
  127SOL    HW1  380   1.873   1.545   1.510
  127SOL    HW2  381   1.942   1.540   1.658
  128SOL     OW  382   0.350   0.898   1.804
  128SOL    HW1  383   0.426   0.942   1.852
  128SOL    HW2  384   0.385   0.851   1.722
  129SOL     OW  385   1.540   0.274   0.125
  129SOL    HW1  386   1.479   0.199   0.148
  129SOL    HW2  387   1.562   0.326   0.208
  130SOL     OW  388   1.303   0.838   0.042
  130SOL    HW1  389   1.337   0.745   0.057
  130SOL    HW2  390   1.321   0.865  -0.053
  131SOL     OW  391   1.068   1.333   0.849
  131SOL    HW1  392   1.075   1.249   0.794
  131SOL    HW2  393   1.130   1.402   0.813
  132SOL     OW  394   0.319   0.810   0.949
  132SOL    HW1  395   0.412   0.846   0.954
  132SOL    HW2  396   0.313   0.725   1.001
  133SOL     OW  397   0.339   0.509   1.006
  133SOL    HW1  398   0.287   0.426   0.989
  133SOL    HW2  399   0.416   0.514   0.942
  134SOL     OW  400   1.138   0.380   1.678
  134SOL    HW1  401   1.093   0.443   1.742
  134SOL    HW2  402   1.231   0.411   1.661
  135SOL     OW  403   1.160   0.207   1.477
  135SOL    HW1  404   1.160   0.271   1.554
  135SOL    HW2  405   1.188   0.255   1.394
  136SOL     OW  406   0.008   1.326   0.200
  136SOL    HW1  407  -0.085   1.347   0.169
  136SOL    HW2  408   0.018   1.227   0.213
  137SOL     OW  409   0.088   1.801   0.927
  137SOL    HW1  410   0.046   1.715   0.900
  137SOL    HW2  411   0.182   1.804   0.893
  138SOL     OW  412   0.504   1.568   0.910
  138SOL    HW1  413   0.570   1.642   0.919
  138SOL    HW2  414   0.548   1.489   0.868
  139SOL     OW  415   1.002   0.796   1.238
  139SOL    HW1  416   1.043   0.764   1.324
  139SOL    HW2  417   0.906   0.769   1.235
  140SOL     OW  418   0.040   0.544   1.114
  140SOL    HW1  419   0.125   0.511   1.073
  140SOL    HW2  420   0.053   0.559   1.212
  141SOL     OW  421   0.189   0.520   1.722
  141SOL    HW1  422   0.248   0.480   1.652
  141SOL    HW2  423   0.131   0.591   1.681
  142SOL     OW  424   1.369   0.950   1.660
  142SOL    HW1  425   1.408   1.039   1.680
  142SOL    HW2  426   1.379   0.930   1.563
  143SOL     OW  427   0.815   0.572   0.325
  143SOL    HW1  428   0.822   0.483   0.279
  143SOL    HW2  429   0.721   0.606   0.317
  144SOL     OW  430   1.657   0.604   1.206
  144SOL    HW1  431   1.619   0.535   1.268
  144SOL    HW2  432   1.739   0.568   1.162
  145SOL     OW  433   0.252   1.564   1.744
  145SOL    HW1  434   0.222   1.621   1.820
  145SOL    HW2  435   0.245   1.467   1.770
  146SOL     OW  436   0.671   0.464   1.269
  146SOL    HW1  437   0.637   0.375   1.239
  146SOL    HW2  438   0.697   0.518   1.189
  147SOL     OW  439   0.930   1.678   1.465
  147SOL    HW1  440   0.906   1.660   1.370
  147SOL    HW2  441   0.960   1.772   1.475
  148SOL     OW  442   0.473   0.500   0.191
  148SOL    HW1  443   0.534   0.580   0.195
  148SOL    HW2  444   0.378   0.531   0.198
  149SOL     OW  445   0.159   1.137   1.466
  149SOL    HW1  446   0.181   1.076   1.542
  149SOL    HW2  447   0.169   1.088   1.380
  150SOL     OW  448   1.347   1.059   1.234
  150SOL    HW1  449   1.371   0.996   1.160
  150SOL    HW2  450   1.257   1.099   1.216
  151SOL     OW  451   1.302   0.855   0.309
  151SOL    HW1  452   1.216   0.824   0.351
  151SOL    HW2  453   1.298   0.841   0.210
  152SOL     OW  454   1.759   1.747   1.154
  152SOL    HW1  455   1.820   1.777   1.081
  152SOL    HW2  456   1.721   1.658   1.132
  153SOL     OW  457   1.252   1.731   1.128
  153SOL    HW1  458   1.336   1.736   1.074
  153SOL    HW2  459   1.229   1.635   1.146
  154SOL     OW  460   0.083   1.258   1.022
  154SOL    HW1  461   0.078   1.257   1.122
  154SOL    HW2  462   0.000   1.217   0.984
  155SOL     OW  463   0.688   1.662   1.716
  155SOL    HW1  464   0.632   1.743   1.725
  155SOL    HW2  465   0.740   1.666   1.630
  156SOL     OW  466   0.903   0.086   0.133
  156SOL    HW1  467   0.954   0.087   0.047
  156SOL    HW2  468   0.959   0.044   0.204
  157SOL     OW  469   1.726   0.135   0.523
  157SOL    HW1  470   1.799   0.118   0.456
  157SOL    HW2  471   1.695   0.048   0.561
  158SOL     OW  472   1.388   1.573   0.477
  158SOL    HW1  473   1.455   1.585   0.403
  158SOL    HW2  474   1.348   1.662   0.500
  159SOL     OW  475   0.130   1.794   1.851
  159SOL    HW1  476   0.089   1.720   1.904
  159SOL    HW2  477   0.194   1.845   1.909
  160SOL     OW  478   1.280   0.927   0.672
  160SOL    HW1  479   1.340   0.846   0.674
  160SOL    HW2  480   1.320   0.996   0.612
  161SOL     OW  481   0.830   1.273   1.422
  161SOL    HW1  482   0.825   1.306   1.517
  161SOL    HW2  483   0.744   1.292   1.376
  162SOL     OW  484   0.672   1.616   0.154
  162SOL    HW1  485   0.681   1.626   0.055
  162SOL    HW2  486   0.632   1.527   0.175
  163SOL     OW  487   1.650   1.720   1.394
  163SOL    HW1  488   1.703   1.730   1.310
  163SOL    HW2  489   1.623   1.810   1.428
  164SOL     OW  490   1.841   0.175   0.963
  164SOL    HW1  491   1.880   0.090   0.927
  164SOL    HW2  492   1.743   0.177   0.944
  165SOL     OW  493   0.263   0.326   0.720
  165SOL    HW1  494   0.184   0.377   0.686
  165SOL    HW2  495   0.254   0.311   0.818
  166SOL     OW  496   1.194   1.612   0.031
  166SOL    HW1  497   1.200   1.519   0.068
  166SOL    HW2  498   1.135   1.612  -0.049
  167SOL     OW  499   0.822   1.002   1.372
  167SOL    HW1  500   0.862   1.001   1.280
  167SOL    HW2  501   0.832   1.094   1.412
  168SOL     OW  502   0.916   0.910   0.291
  168SOL    HW1  503   0.979   0.948   0.223
  168SOL    HW2  504   0.956   0.827   0.330
  169SOL     OW  505   1.504   1.607   0.044
  169SOL    HW1  506   1.412   1.644   0.051
  169SOL    HW2  507   1.542   1.627  -0.046
  170SOL     OW  508   0.372   1.288   1.490
  170SOL    HW1  509   0.359   1.381   1.456
  170SOL    HW2  510   0.288   1.236   1.477
  171SOL     OW  511   1.614   1.292   1.289
  171SOL    HW1  512   1.674   1.295   1.369
  171SOL    HW2  513   1.539   1.356   1.302
  172SOL     OW  514   1.039   1.098   0.696
  172SOL    HW1  515   0.969   1.051   0.750
  172SOL    HW2  516   1.098   1.030   0.653
  173SOL     OW  517   1.014   0.236   0.971
  173SOL    HW1  518   1.006   0.200   0.878
  173SOL    HW2  519   1.012   0.160   1.036
  174SOL     OW  520   0.590   1.487   0.491
  174SOL    HW1  521   0.632   1.429   0.421
  174SOL    HW2  522   0.546   1.566   0.447
  175SOL     OW  523   1.709   0.385   1.381
  175SOL    HW1  524   1.782   0.454   1.385
  175SOL    HW2  525   1.737   0.310   1.322
  176SOL     OW  526   0.255   1.348   0.290
  176SOL    HW1  527   0.159   1.349   0.263
  176SOL    HW2  528   0.267   1.401   0.374
  177SOL     OW  529   0.105   1.013   1.726
  177SOL    HW1  530   0.028   0.980   1.780
  177SOL    HW2  531   0.190   0.983   1.768
  178SOL     OW  532   0.672   0.203   1.489
  178SOL    HW1  533   0.762   0.187   1.449
  178SOL    HW2  534   0.680   0.208   1.588
  179SOL     OW  535   0.075   0.345   0.033
  179SOL    HW1  536  -0.017   0.317   0.004
  179SOL    HW2  537   0.106   0.422  -0.023
  180SOL     OW  538   1.440   0.856   1.398
  180SOL    HW1  539   1.383   0.908   1.335
  180SOL    HW2  540   1.536   0.868   1.374
  181SOL     OW  541   0.072   0.166   0.318
  181SOL    HW1  542   0.055   0.249   0.264
  181SOL    HW2  543   0.162   0.129   0.296
  182SOL     OW  544   1.183   1.335   0.119
  182SOL    HW1  545   1.084   1.324   0.121
  182SOL    HW2  546   1.217   1.350   0.212
  183SOL     OW  547   0.613   0.842   1.431
  183SOL    HW1  548   0.669   0.923   1.414
  183SOL    HW2  549   0.672   0.762   1.434
  184SOL     OW  550   1.493   1.767   0.959
  184SOL    HW1  551   1.526   1.831   0.890
  184SOL    HW2  552   1.559   1.761   1.034
  185SOL     OW  553   0.716   0.565   1.708
  185SOL    HW1  554   0.735   0.630   1.782
  185SOL    HW2  555   0.776   0.485   1.717
  186SOL     OW  556   1.450   1.220   1.633
  186SOL    HW1  557   1.441   1.210   1.732
  186SOL    HW2  558   1.546   1.213   1.607
  187SOL     OW  559   0.390   1.741   1.560
  187SOL    HW1  560   0.299   1.782   1.558
  187SOL    HW2  561   0.383   1.647   1.592
  188SOL     OW  562   1.674   0.883   1.254
  188SOL    HW1  563   1.647   0.794   1.217
  188SOL    HW2  564   1.675   0.951   1.181
  189SOL     OW  565   1.225   0.325   0.449
  189SOL    HW1  566   1.290   0.251   0.438
  189SOL    HW2  567   1.245   0.375   0.533
  190SOL     OW  568   0.594   0.745   0.652
  190SOL    HW1  569   0.644   0.830   0.633
  190SOL    HW2  570   0.506   0.747   0.604
  191SOL     OW  571   1.777   0.342   1.642
  191SOL    HW1  572   1.760   0.373   1.548
  191SOL    HW2  573   1.693   0.305   1.680
  192SOL     OW  574   1.730   0.934   1.517
  192SOL    HW1  575   1.768   1.025   1.532
  192SOL    HW2  576   1.722   0.917   1.418
  193SOL     OW  577   0.859   1.374   0.016
  193SOL    HW1  578   0.813   1.389   0.104
  193SOL    HW2  579   0.903   1.459  -0.014
  194SOL     OW  580   0.661   1.790   0.953
  194SOL    HW1  581   0.615   1.878   0.940
  194SOL    HW2  582   0.760   1.802   0.946
  195SOL     OW  583   0.859   0.956   0.861
  195SOL    HW1  584   0.913   0.887   0.909
  195SOL    HW2  585   0.827   1.025   0.927
  196SOL     OW  586   1.083   0.984   0.087
  196SOL    HW1  587   1.060   1.037   0.005
  196SOL    HW2  588   1.164   0.928   0.068
  197SOL     OW  589   1.861   1.569   0.851
  197SOL    HW1  590   1.790   1.557   0.781
  197SOL    HW2  591   1.862   1.490   0.911
  198SOL     OW  592   0.221   1.314   1.844
  198SOL    HW1  593   0.156   1.241   1.823
  198SOL    HW2  594   0.225   1.328   1.942
  199SOL     OW  595   0.079   1.240   0.653
  199SOL    HW1  596   0.078   1.193   0.741
  199SOL    HW2  597   0.161   1.212   0.602
  200SOL     OW  598   0.672   1.391   1.624
  200SOL    HW1  599   0.594   1.341   1.662
  200SOL    HW2  600   0.669   1.486   1.655
  201SOL     OW  601   1.824   0.192   1.227
  201SOL    HW1  602   1.820   0.102   1.271
  201SOL    HW2  603   1.827   0.181   1.128
  202SOL     OW  604   0.428   0.424   0.520
  202SOL    HW1  605   0.458   0.352   0.458
  202SOL    HW2  606   0.389   0.384   0.603
  203SOL     OW  607   1.705   1.487   1.104
  203SOL    HW1  608   1.612   1.462   1.077
  203SOL    HW2  609   1.731   1.437   1.186
  204SOL     OW  610   0.317   0.547   1.280
  204SOL    HW1  611   0.355   0.488   1.352
  204SOL    HW2  612   0.357   0.521   1.192
  205SOL     OW  613   0.812   1.586   0.687
  205SOL    HW1  614   0.844   1.596   0.593
  205SOL    HW2  615   0.733   1.524   0.689
  206SOL     OW  616   1.424   0.214   1.112
  206SOL    HW1  617   1.476   0.149   1.167
  206SOL    HW2  618   1.375   0.277   1.173
  207SOL     OW  619   1.001   0.034   1.154
  207SOL    HW1  620   0.938  -0.038   1.123
  207SOL    HW2  621   1.094  -0.002   1.154
  208SOL     OW  622   0.770   1.330   0.301
  208SOL    HW1  623   0.724   1.243   0.318
  208SOL    HW2  624   0.861   1.327   0.342
  209SOL     OW  625   0.618   1.567   1.284
  209SOL    HW1  626   0.613   1.649   1.341
  209SOL    HW2  627   0.707   1.564   1.239
  210SOL     OW  628   1.352   0.052   0.168
  210SOL    HW1  629   1.387   0.011   0.084
  210SOL    HW2  630   1.262   0.014   0.188
  211SOL     OW  631   1.300   0.453   0.691
  211SOL    HW1  632   1.241   0.533   0.695
  211SOL    HW2  633   1.315   0.418   0.784
  212SOL     OW  634   1.593   0.221   0.882
  212SOL    HW1  635   1.509   0.220   0.936
  212SOL    HW2  636   1.595   0.304   0.826
  213SOL     OW  637   0.039   1.077   0.300
  213SOL    HW1  638   0.138   1.066   0.291
  213SOL    HW2  639  -0.001   0.991   0.332
  214SOL     OW  640   0.875   1.646   0.337
  214SOL    HW1  641   0.798   1.611   0.283
  214SOL    HW2  642   0.843   1.717   0.399
  215SOL     OW  643   0.230   0.628   1.975
  215SOL    HW1  644   0.137   0.626   2.012
  215SOL    HW2  645   0.231   0.589   1.883
  216SOL     OW  646   0.225   0.275   2.858
  216SOL    HW1  647   0.260   0.258   2.950
  216SOL    HW2  648   0.137   0.230   2.846
  217SOL     OW  649   0.019   0.368   2.509
  217SOL    HW1  650  -0.063   0.411   2.548
  217SOL    HW2  651  -0.009   0.295   2.446
  218SOL     OW  652   0.569   1.275   3.027
  218SOL    HW1  653   0.476   1.268   2.990
  218SOL    HW2  654   0.580   1.364   3.071
  219SOL     OW  655   1.555   1.511   2.565
  219SOL    HW1  656   1.498   1.495   2.646
  219SOL    HW2  657   1.496   1.521   2.485
  220SOL     OW  658   1.135   0.703   2.579
  220SOL    HW1  659   1.192   0.781   2.554
  220SOL    HW2  660   1.075   0.729   2.655
  221SOL     OW  661   1.755   0.607   2.093
  221SOL    HW1  662   1.743   0.594   1.994
  221SOL    HW2  663   1.725   0.526   2.142
  222SOL     OW  664   0.768   1.144   2.885
  222SOL    HW1  665   0.690   1.161   2.945
  222SOL    HW2  666   0.802   1.231   2.849
  223SOL     OW  667   0.850   0.798   3.685
  223SOL    HW1  668   0.846   0.874   3.750
  223SOL    HW2  669   0.872   0.834   3.594
  224SOL     OW  670   0.685   1.012   2.527
  224SOL    HW1  671   0.754   0.996   2.597
  224SOL    HW2  672   0.612   1.069   2.565
  225SOL     OW  673   0.686   1.161   3.665
  225SOL    HW1  674   0.746   1.240   3.679
  225SOL    HW2  675   0.600   1.192   3.624
  226SOL     OW  676   0.335   1.435   2.923
  226SOL    HW1  677   0.257   1.404   2.870
  226SOL    HW2  678   0.393   1.493   2.866
  227SOL     OW  679   1.460   1.505   3.201
  227SOL    HW1  680   1.484   1.599   3.227
  227SOL    HW2  681   1.444   1.451   3.283
  228SOL     OW  682   0.438   0.392   3.361
  228SOL    HW1  683   0.520   0.336   3.370
  228SOL    HW2  684   0.357   0.334   3.365
  229SOL     OW  685   1.603   0.447   2.599
  229SOL    HW1  686   1.529   0.493   2.549
  229SOL    HW2  687   1.654   0.515   2.652
  230SOL     OW  688   0.231   1.713   2.345
  230SOL    HW1  689   0.265   1.790   2.399
  230SOL    HW2  690   0.275   1.713   2.255
  231SOL     OW  691   1.127   1.341   3.552
  231SOL    HW1  692   1.174   1.341   3.640
  231SOL    HW2  693   1.079   1.254   3.541
  232SOL     OW  694   0.230   1.434   2.400
  232SOL    HW1  695   0.204   1.530   2.400
  232SOL    HW2  696   0.159   1.380   2.445
  233SOL     OW  697   0.240   1.091   2.748
  233SOL    HW1  698   0.254   1.007   2.800
  233SOL    HW2  699   0.185   1.155   2.803
  234SOL     OW  700   0.620   1.786   3.301
  234SOL    HW1  701   0.528   1.769   3.336
  234SOL    HW2  702   0.648   1.878   3.327
  235SOL     OW  703   0.606   0.964   1.985
  235SOL    HW1  704   0.613   1.048   1.931
  235SOL    HW2  705   0.652   0.977   2.073
  236SOL     OW  706   1.594   0.114   3.342
  236SOL    HW1  707   1.576   0.181   3.270
  236SOL    HW2  708   1.591   0.160   3.431
  237SOL     OW  709   0.122   0.643   2.425
  237SOL    HW1  710   0.077   0.555   2.442
  237SOL    HW2  711   0.121   0.697   2.509
  238SOL     OW  712   1.842   1.767   2.221
  238SOL    HW1  713   1.896   1.738   2.301
  238SOL    HW2  714   1.872   1.857   2.192
  239SOL     OW  715   0.027   1.596   1.979
  239SOL    HW1  716   0.008   1.500   2.000
  239SOL    HW2  717  -0.006   1.654   2.054
  240SOL     OW  718   1.689   0.922   2.474
  240SOL    HW1  719   1.784   0.893   2.482
  240SOL    HW2  720   1.681   0.987   2.399
  241SOL     OW  721   1.641   1.108   2.294
  241SOL    HW1  722   1.727   1.110   2.242
  241SOL    HW2  723   1.655   1.155   2.382
  242SOL     OW  724   0.113   0.737   3.459
  242SOL    HW1  725   0.201   0.724   3.504
  242SOL    HW2  726   0.100   0.834   3.437
  243SOL     OW  727   0.613   1.365   2.588
  243SOL    HW1  728   0.564   1.278   2.597
  243SOL    HW2  729   0.590   1.408   2.501
  244SOL     OW  730   1.293   1.228   3.285
  244SOL    HW1  731   1.330   1.155   3.227
  244SOL    HW2  732   1.345   1.233   3.370
  245SOL     OW  733   0.809   0.004   2.364
  245SOL    HW1  734   0.849   0.095   2.355
  245SOL    HW2  735   0.709   0.012   2.370
  246SOL     OW  736   0.197   0.976   3.126
  246SOL    HW1  737   0.286   0.931   3.112
  246SOL    HW2  738   0.124   0.911   3.107
  247SOL     OW  739   1.525   0.999   2.052
  247SOL    HW1  740   1.462   0.923   2.065
  247SOL    HW2  741   1.573   1.017   2.138
  248SOL     OW  742   1.187   1.792   3.478
  248SOL    HW1  743   1.211   1.852   3.402
  248SOL    HW2  744   1.194   1.697   3.448
  249SOL     OW  745   0.317   0.251   3.663
  249SOL    HW1  746   0.388   0.322   3.669
  249SOL    HW2  747   0.229   0.290   3.691
  250SOL     OW  748   1.466   1.417   2.815
  250SOL    HW1  749   1.407   1.423   2.895
  250SOL    HW2  750   1.451   1.329   2.769
  251SOL     OW  751   1.667   1.714   2.434
  251SOL    HW1  752   1.626   1.691   2.346
  251SOL    HW2  753   1.649   1.640   2.499
  252SOL     OW  754   0.598   0.729   2.132
  252SOL    HW1  755   0.622   0.798   2.064
  252SOL    HW2  756   0.520   0.762   2.186
  253SOL     OW  757   1.281   0.345   2.806
  253SOL    HW1  758   1.195   0.295   2.793
  253SOL    HW2  759   1.343   0.291   2.862
  254SOL     OW  760   1.576   1.662   2.169
  254SOL    HW1  761   1.665   1.708   2.172
  254SOL    HW2  762   1.555   1.638   2.074
  255SOL     OW  763   0.807   0.605   3.327
  255SOL    HW1  764   0.760   0.602   3.416
  255SOL    HW2  765   0.756   0.550   3.261
  256SOL     OW  766   1.394   0.469   3.536
  256SOL    HW1  767   1.374   0.512   3.624
  256SOL    HW2  768   1.472   0.407   3.545
  257SOL     OW  769   0.973   0.890   3.434
  257SOL    HW1  770   1.019   0.806   3.405
  257SOL    HW2  771   0.917   0.924   3.359
  258SOL     OW  772   0.991   0.410   3.104
  258SOL    HW1  773   0.914   0.444   3.158
  258SOL    HW2  774   0.957   0.359   3.025
  259SOL     OW  775   1.041   0.701   2.291
  259SOL    HW1  776   1.067   0.697   2.387
  259SOL    HW2  777   0.956   0.650   2.277
  260SOL     OW  778   0.076   0.811   2.651
  260SOL    HW1  779   0.175   0.799   2.660
  260SOL    HW2  780   0.052   0.906   2.672
  261SOL     OW  781   0.130   1.821   3.433
  261SOL    HW1  782   0.120   1.806   3.532
  261SOL    HW2  783   0.044   1.857   3.397
  262SOL     OW  784   0.865   0.348   2.057
  262SOL    HW1  785   0.924   0.411   2.008
  262SOL    HW2  786   0.884   0.254   2.028
  263SOL     OW  787   1.719   0.585   3.693
  263SOL    HW1  788   1.693   0.674   3.657
  263SOL    HW2  789   1.717   0.517   3.620
  264SOL     OW  790   1.362   1.144   2.407
  264SOL    HW1  791   1.445   1.115   2.359
  264SOL    HW2  792   1.313   1.211   2.351
  265SOL     OW  793   0.550   0.196   2.747
  265SOL    HW1  794   0.545   0.191   2.847
  265SOL    HW2  795   0.552   0.292   2.718
  266SOL     OW  796   1.008   1.456   2.339
  266SOL    HW1  797   0.962   1.528   2.287
  266SOL    HW2  798   1.004   1.476   2.437
  267SOL     OW  799   0.351   1.801   2.715
  267SOL    HW1  800   0.401   1.715   2.721
  267SOL    HW2  801   0.416   1.878   2.712
  268SOL     OW  802   1.795   1.066   2.735
  268SOL    HW1  803   1.733   1.051   2.659
  268SOL    HW2  804   1.743   1.077   2.820
  269SOL     OW  805   1.227   1.550   3.368
  269SOL    HW1  806   1.233   1.473   3.432
  269SOL    HW2  807   1.175   1.524   3.288
  270SOL     OW  808   0.321   0.943   2.104
  270SOL    HW1  809   0.403   0.982   2.062
  270SOL    HW2  810   0.294   0.861   2.055
  271SOL     OW  811   1.458   0.735   2.590
  271SOL    HW1  812   1.453   0.670   2.665
  271SOL    HW2  813   1.538   0.794   2.603
  272SOL     OW  814   0.461   1.266   3.589
  272SOL    HW1  815   0.411   1.267   3.503
  272SOL    HW2  816   0.398   1.248   3.665
  273SOL     OW  817   1.111   1.776   2.099
  273SOL    HW1  818   1.051   1.714   2.149
  273SOL    HW2  819   1.142   1.732   2.014
  274SOL     OW  820   0.202   0.285   3.360
  274SOL    HW1  821   0.122   0.345   3.347
  274SOL    HW2  822   0.192   0.236   3.446
  275SOL     OW  823   1.632   1.377   1.943
  275SOL    HW1  824   1.600   1.471   1.933
  275SOL    HW2  825   1.556   1.314   1.931
  276SOL     OW  826   0.464   1.743   2.185
  276SOL    HW1  827   0.497   1.782   2.271
  276SOL    HW2  828   0.540   1.736   2.120
  277SOL     OW  829   1.400   0.107   2.288
  277SOL    HW1  830   1.376   0.070   2.198
  277SOL    HW2  831   1.499   0.123   2.292
  278SOL     OW  832   0.249   1.785   3.103
  278SOL    HW1  833   0.306   1.720   3.153
  278SOL    HW2  834   0.233   1.752   3.010
  279SOL     OW  835   0.940   1.698   2.766
  279SOL    HW1  836   1.020   1.641   2.787
  279SOL    HW2  837   0.891   1.658   2.689
  280SOL     OW  838   0.382   0.700   2.342
  280SOL    HW1  839   0.427   0.610   2.339
  280SOL    HW2  840   0.288   0.689   2.375
  281SOL     OW  841   1.547   0.222   3.591
  281SOL    HW1  842   1.542   0.259   3.683
  281SOL    HW2  843   1.475   0.153   3.579
  282SOL     OW  844   0.614   0.122   1.979
  282SOL    HW1  845   0.712   0.100   1.986
  282SOL    HW2  846   0.583   0.105   1.886
  283SOL     OW  847   0.781   0.264   3.611
  283SOL    HW1  848   0.848   0.203   3.654
  283SOL    HW2  849   0.708   0.283   3.676
  284SOL     OW  850   0.888   1.514   3.057
  284SOL    HW1  851   0.865   1.489   2.963
  284SOL    HW2  852   0.949   1.445   3.096
  285SOL     OW  853   1.351   0.590   3.295
  285SOL    HW1  854   1.379   0.547   3.380
  285SOL    HW2  855   1.376   0.686   3.296
  286SOL     OW  856   0.803   1.402   2.786
  286SOL    HW1  857   0.893   1.416   2.744
  286SOL    HW2  858   0.732   1.404   2.715
  287SOL     OW  859   0.922   0.503   2.761
  287SOL    HW1  860   0.897   0.494   2.665
  287SOL    HW2  861   0.970   0.421   2.792
  288SOL     OW  862   0.539   0.064   2.374
  288SOL    HW1  863   0.458   0.065   2.432
  288SOL    HW2  864   0.542   0.147   2.319
  289SOL     OW  865   1.434   1.188   1.903
  289SOL    HW1  866   1.466   1.112   1.960
  289SOL    HW2  867   1.342   1.215   1.933
  290SOL     OW  868   0.297   0.035   2.033
  290SOL    HW1  869   0.346   0.119   2.012
  290SOL    HW2  870   0.359  -0.030   2.078
  291SOL     OW  871   0.935   0.236   2.342
  291SOL    HW1  872   0.887   0.277   2.264
  291SOL    HW2  873   1.034   0.234   2.323
  292SOL     OW  874   1.076   0.683   3.326
  292SOL    HW1  875   0.996   0.622   3.329
  292SOL    HW2  876   1.157   0.630   3.302
  293SOL     OW  877   1.227   1.570   2.655
  293SOL    HW1  878   1.248   1.644   2.590
  293SOL    HW2  879   1.295   1.570   2.728
  294SOL     OW  880   0.459   1.152   2.603
  294SOL    HW1  881   0.388   1.125   2.668
  294SOL    HW2  882   0.433   1.124   2.510
  295SOL     OW  883   1.271   1.797   2.453
  295SOL    HW1  884   1.315   1.861   2.389
  295SOL    HW2  885   1.221   1.849   2.523
  296SOL     OW  886   1.032   0.549   1.878
  296SOL    HW1  887   0.991   0.631   1.839
  296SOL    HW2  888   1.096   0.575   1.951
  297SOL     OW  889   0.078   0.556   3.248
  297SOL    HW1  890   0.170   0.555   3.207
  297SOL    HW2  891   0.072   0.630   3.315
  298SOL     OW  892   0.561   0.222   3.009
  298SOL    HW1  893   0.599   0.138   3.046
  298SOL    HW2  894   0.473   0.241   3.053
  299SOL     OW  895   0.866   0.454   2.504
  299SOL    HW1  896   0.834   0.526   2.442
  299SOL    HW2  897   0.890   0.373   2.451
  300SOL     OW  898   1.017   0.039   2.615
  300SOL    HW1  899   0.945   0.044   2.546
  300SOL    HW2  900   0.993  -0.030   2.684
  301SOL     OW  901   1.429   1.173   2.729
  301SOL    HW1  902   1.374   1.089   2.722
  301SOL    HW2  903   1.455   1.202   2.637
  302SOL     OW  904   1.466   0.590   2.854
  302SOL    HW1  905   1.436   0.495   2.861
  302SOL    HW2  906   1.539   0.606   2.920
  303SOL     OW  907   1.857   0.833   2.239
  303SOL    HW1  908   1.899   0.769   2.303
  303SOL    HW2  909   1.819   0.782   2.161
  304SOL     OW  910   0.488   1.385   2.036
  304SOL    HW1  911   0.401   1.370   2.083
  304SOL    HW2  912   0.471   1.411   1.941
  305SOL     OW  913   1.664   1.280   2.519
  305SOL    HW1  914   1.763   1.288   2.533
  305SOL    HW2  915   1.619   1.364   2.550
  306SOL     OW  916   1.390   0.575   1.940
  306SOL    HW1  917   1.336   0.554   2.021
  306SOL    HW2  918   1.481   0.534   1.949
  307SOL     OW  919   0.527   0.256   2.190
  307SOL    HW1  920   0.554   0.197   2.115
  307SOL    HW2  921   0.527   0.351   2.159
  308SOL     OW  922   1.754   1.223   3.450
  308SOL    HW1  923   1.845   1.184   3.437
  308SOL    HW2  924   1.762   1.319   3.474
  309SOL     OW  925   1.064   1.347   3.202
  309SOL    HW1  926   0.984   1.324   3.257
  309SOL    HW2  927   1.147   1.321   3.251
  310SOL     OW  928   1.592   1.629   3.487
  310SOL    HW1  929   1.619   1.663   3.397
  310SOL    HW2  930   1.671   1.591   3.533
  311SOL     OW  931   1.111   1.195   2.962
  311SOL    HW1  932   1.071   1.239   3.043
  311SOL    HW2  933   1.070   1.232   2.879
  312SOL     OW  934   1.638   1.099   2.941
  312SOL    HW1  935   1.643   1.180   3.000
  312SOL    HW2  936   1.552   1.101   2.890
  313SOL     OW  937   0.915   0.089   3.264
  313SOL    HW1  938   0.940   0.069   3.169
  313SOL    HW2  939   0.987   0.145   3.306
  314SOL     OW  940   0.980   1.116   3.581
  314SOL    HW1  941   0.881   1.122   3.591
  314SOL    HW2  942   1.003   1.036   3.525
  315SOL     OW  943   0.705   1.050   2.230
  315SOL    HW1  944   0.691   1.057   2.329
  315SOL    HW2  945   0.789   0.999   2.212
  316SOL     OW  946   0.410   0.813   3.113
  316SOL    HW1  947   0.496   0.825   3.163
  316SOL    HW2  948   0.368   0.726   3.140
  317SOL     OW  949   1.274   0.386   3.124
  317SOL    HW1  950   1.295   0.460   3.188
  317SOL    HW2  951   1.185   0.403   3.081
  318SOL     OW  952   0.064   1.564   3.193
  318SOL    HW1  953   0.018   1.646   3.159
  318SOL    HW2  954   0.162   1.583   3.202
  319SOL     OW  955   0.367   1.100   2.363
  319SOL    HW1  956   0.360   1.183   2.307
  319SOL    HW2  957   0.371   1.020   2.303
  320SOL     OW  958   0.566   0.537   2.727
  320SOL    HW1  959   0.578   0.603   2.653
  320SOL    HW2  960   0.612   0.571   2.810
  321SOL     OW  961   1.252   1.348   2.250
  321SOL    HW1  962   1.302   1.425   2.290
  321SOL    HW2  963   1.157   1.350   2.282
  322SOL     OW  964   1.272   1.445   3.004
  322SOL    HW1  965   1.319   1.458   3.091
  322SOL    HW2  966   1.206   1.371   3.013
  323SOL     OW  967   1.582   0.639   2.334
  323SOL    HW1  968   1.551   0.700   2.407
  323SOL    HW2  969   1.632   0.691   2.265
  324SOL     OW  970   0.354   1.510   3.191
  324SOL    HW1  971   0.333   1.466   3.104
  324SOL    HW2  972   0.451   1.536   3.194
  325SOL     OW  973   0.402   0.751   3.460
  325SOL    HW1  974   0.470   0.806   3.413
  325SOL    HW2  975   0.442   0.663   3.487
  326SOL     OW  976   1.587   0.779   3.532
  326SOL    HW1  977   1.495   0.817   3.527
  326SOL    HW2  978   1.647   0.826   3.467
  327SOL     OW  979   1.013   0.105   3.632
  327SOL    HW1  980   1.019   0.190   3.580
  327SOL    HW2  981   1.045   0.029   3.575
  328SOL     OW  982   0.504   0.050   3.602
  328SOL    HW1  983   0.462  -0.007   3.532
  328SOL    HW2  984   0.438   0.119   3.634
  329SOL     OW  985   0.573   0.870   2.891
  329SOL    HW1  986   0.617   0.959   2.882
  329SOL    HW2  987   0.510   0.870   2.968
  330SOL     OW  988   1.360   0.862   2.907
  330SOL    HW1  989   1.285   0.862   2.841
  330SOL    HW2  990   1.397   0.770   2.916
  331SOL     OW  991   1.209   0.525   2.137
  331SOL    HW1  992   1.222   0.441   2.191
  331SOL    HW2  993   1.180   0.599   2.197
  332SOL     OW  994   0.307   0.213   3.093
  332SOL    HW1  995   0.284   0.250   3.183
  332SOL    HW2  996   0.277   0.118   3.087
  333SOL     OW  997   0.037   1.310   3.144
  333SOL    HW1  998   0.090   1.261   3.212
  333SOL    HW2  999   0.059   1.408   3.149
  334SOL     OW 1000   0.732   0.634   2.926
  334SOL    HW1 1001   0.791   0.608   2.850
  334SOL    HW2 1002   0.704   0.730   2.915
  335SOL     OW 1003   1.728   0.935   3.716
  335SOL    HW1 1004   1.682   0.928   3.627
  335SOL    HW2 1005   1.666   0.979   3.782
  336SOL     OW 1006   0.307   0.063   2.480
  336SOL    HW1 1007   0.296   0.157   2.513
  336SOL    HW2 1008   0.302   0.000   2.557
  337SOL     OW 1009   1.622   0.367   2.236
  337SOL    HW1 1010   1.624   0.291   2.300
  337SOL    HW2 1011   1.574   0.444   2.276
  338SOL     OW 1012   1.023   0.766   2.828
  338SOL    HW1 1013   1.038   0.787   2.924
  338SOL    HW2 1014   0.993   0.671   2.819
  339SOL     OW 1015   0.980   1.573   3.562
  339SOL    HW1 1016   0.960   1.617   3.474
  339SOL    HW2 1017   1.019   1.482   3.546
  340SOL     OW 1018   1.859   1.518   3.467
  340SOL    HW1 1019   1.873   1.545   3.372
  340SOL    HW2 1020   1.942   1.540   3.520
  341SOL     OW 1021   0.350   0.898   3.666
  341SOL    HW1 1022   0.426   0.942   3.714
  341SOL    HW2 1023   0.385   0.851   3.584
  342SOL     OW 1024   1.540   0.274   1.987
  342SOL    HW1 1025   1.479   0.199   2.010
  342SOL    HW2 1026   1.562   0.326   2.070
  343SOL     OW 1027   1.303   0.838   1.904
  343SOL    HW1 1028   1.337   0.745   1.919
  343SOL    HW2 1029   1.321   0.865   1.809
  344SOL     OW 1030   1.068   1.333   2.711
  344SOL    HW1 1031   1.075   1.249   2.656
  344SOL    HW2 1032   1.130   1.402   2.675
  345SOL     OW 1033   0.319   0.810   2.811
  345SOL    HW1 1034   0.412   0.846   2.816
  345SOL    HW2 1035   0.313   0.725   2.863
  346SOL     OW 1036   0.339   0.509   2.868
  346SOL    HW1 1037   0.287   0.426   2.851
  346SOL    HW2 1038   0.416   0.514   2.804
  347SOL     OW 1039   1.138   0.380   3.540
  347SOL    HW1 1040   1.093   0.443   3.604
  347SOL    HW2 1041   1.231   0.411   3.523
  348SOL     OW 1042   1.160   0.207   3.339
  348SOL    HW1 1043   1.160   0.271   3.416
  348SOL    HW2 1044   1.188   0.255   3.256
  349SOL     OW 1045   0.008   1.326   2.062
  349SOL    HW1 1046  -0.085   1.347   2.031
  349SOL    HW2 1047   0.018   1.227   2.075
  350SOL     OW 1048   0.088   1.801   2.789
  350SOL    HW1 1049   0.046   1.715   2.762
  350SOL    HW2 1050   0.182   1.804   2.755
  351SOL     OW 1051   0.504   1.568   2.772
  351SOL    HW1 1052   0.570   1.642   2.781
  351SOL    HW2 1053   0.548   1.489   2.730
  352SOL     OW 1054   1.002   0.796   3.100
  352SOL    HW1 1055   1.043   0.764   3.186
  352SOL    HW2 1056   0.906   0.769   3.097
  353SOL     OW 1057   0.040   0.544   2.976
  353SOL    HW1 1058   0.125   0.511   2.935
  353SOL    HW2 1059   0.053   0.559   3.074
  354SOL     OW 1060   0.189   0.520   3.584
  354SOL    HW1 1061   0.248   0.480   3.514
  354SOL    HW2 1062   0.131   0.591   3.543
  355SOL     OW 1063   1.369   0.950   3.522
  355SOL    HW1 1064   1.408   1.039   3.542
  355SOL    HW2 1065   1.379   0.930   3.425
  356SOL     OW 1066   0.815   0.572   2.187
  356SOL    HW1 1067   0.822   0.483   2.141
  356SOL    HW2 1068   0.721   0.606   2.179
  357SOL     OW 1069   1.657   0.604   3.068
  357SOL    HW1 1070   1.619   0.535   3.130
  357SOL    HW2 1071   1.739   0.568   3.024
  358SOL     OW 1072   0.252   1.564   3.606
  358SOL    HW1 1073   0.222   1.621   3.682
  358SOL    HW2 1074   0.245   1.467   3.632
  359SOL     OW 1075   0.671   0.464   3.131
  359SOL    HW1 1076   0.637   0.375   3.101
  359SOL    HW2 1077   0.697   0.518   3.051
  360SOL     OW 1078   0.930   1.678   3.327
  360SOL    HW1 1079   0.906   1.660   3.232
  360SOL    HW2 1080   0.960   1.772   3.337
  361SOL     OW 1081   0.473   0.500   2.053
  361SOL    HW1 1082   0.534   0.580   2.057
  361SOL    HW2 1083   0.378   0.531   2.060
  362SOL     OW 1084   0.159   1.137   3.328
  362SOL    HW1 1085   0.181   1.076   3.404
  362SOL    HW2 1086   0.169   1.088   3.242
  363SOL     OW 1087   1.347   1.059   3.096
  363SOL    HW1 1088   1.371   0.996   3.022
  363SOL    HW2 1089   1.257   1.099   3.078
  364SOL     OW 1090   1.302   0.855   2.171
  364SOL    HW1 1091   1.216   0.824   2.213
  364SOL    HW2 1092   1.298   0.841   2.072
  365SOL     OW 1093   1.759   1.747   3.016
  365SOL    HW1 1094   1.820   1.777   2.943
  365SOL    HW2 1095   1.721   1.658   2.994
  366SOL     OW 1096   1.252   1.731   2.990
  366SOL    HW1 1097   1.336   1.736   2.936
  366SOL    HW2 1098   1.229   1.635   3.008
  367SOL     OW 1099   0.083   1.258   2.884
  367SOL    HW1 1100   0.078   1.257   2.984
  367SOL    HW2 1101   0.000   1.217   2.846
  368SOL     OW 1102   0.688   1.662   3.578
  368SOL    HW1 1103   0.632   1.743   3.587
  368SOL    HW2 1104   0.740   1.666   3.492
  369SOL     OW 1105   1.726   0.135   2.385
  369SOL    HW1 1106   1.799   0.118   2.318
  369SOL    HW2 1107   1.695   0.048   2.423
  370SOL     OW 1108   1.388   1.573   2.339
  370SOL    HW1 1109   1.455   1.585   2.265
  370SOL    HW2 1110   1.348   1.662   2.362
  371SOL     OW 1111   0.130   1.794   3.713
  371SOL    HW1 1112   0.089   1.720   3.766
  371SOL    HW2 1113   0.194   1.845   3.771
  372SOL     OW 1114   1.280   0.927   2.534
  372SOL    HW1 1115   1.340   0.846   2.536
  372SOL    HW2 1116   1.320   0.996   2.474
  373SOL     OW 1117   0.830   1.273   3.284
  373SOL    HW1 1118   0.825   1.306   3.379
  373SOL    HW2 1119   0.744   1.292   3.238
  374SOL     OW 1120   0.672   1.616   2.016
  374SOL    HW1 1121   0.681   1.626   1.917
  374SOL    HW2 1122   0.632   1.527   2.037
  375SOL     OW 1123   1.650   1.720   3.256
  375SOL    HW1 1124   1.703   1.730   3.172
  375SOL    HW2 1125   1.623   1.810   3.290
  376SOL     OW 1126   1.841   0.175   2.825
  376SOL    HW1 1127   1.880   0.090   2.789
  376SOL    HW2 1128   1.743   0.177   2.806
  377SOL     OW 1129   0.263   0.326   2.582
  377SOL    HW1 1130   0.184   0.377   2.548
  377SOL    HW2 1131   0.254   0.311   2.680
  378SOL     OW 1132   1.194   1.612   1.893
  378SOL    HW1 1133   1.200   1.519   1.930
  378SOL    HW2 1134   1.135   1.612   1.813
  379SOL     OW 1135   0.822   1.002   3.234
  379SOL    HW1 1136   0.862   1.001   3.142
  379SOL    HW2 1137   0.832   1.094   3.274
  380SOL     OW 1138   0.916   0.910   2.153
  380SOL    HW1 1139   0.979   0.948   2.085
  380SOL    HW2 1140   0.956   0.827   2.192
  381SOL     OW 1141   1.504   1.607   1.906
  381SOL    HW1 1142   1.412   1.644   1.913
  381SOL    HW2 1143   1.542   1.627   1.816
  382SOL     OW 1144   0.372   1.288   3.352
  382SOL    HW1 1145   0.359   1.381   3.318
  382SOL    HW2 1146   0.288   1.236   3.339
  383SOL     OW 1147   1.614   1.292   3.151
  383SOL    HW1 1148   1.674   1.295   3.231
  383SOL    HW2 1149   1.539   1.356   3.164
  384SOL     OW 1150   1.039   1.098   2.558
  384SOL    HW1 1151   0.969   1.051   2.612
  384SOL    HW2 1152   1.098   1.030   2.515
  385SOL     OW 1153   1.014   0.236   2.833
  385SOL    HW1 1154   1.006   0.200   2.740
  385SOL    HW2 1155   1.012   0.160   2.898
  386SOL     OW 1156   0.590   1.487   2.353
  386SOL    HW1 1157   0.632   1.429   2.283
  386SOL    HW2 1158   0.546   1.566   2.309
  387SOL     OW 1159   1.709   0.385   3.243
  387SOL    HW1 1160   1.782   0.454   3.247
  387SOL    HW2 1161   1.737   0.310   3.184
  388SOL     OW 1162   0.255   1.348   2.152
  388SOL    HW1 1163   0.159   1.349   2.125
  388SOL    HW2 1164   0.267   1.401   2.236
  389SOL     OW 1165   0.105   1.013   3.588
  389SOL    HW1 1166   0.028   0.980   3.642
  389SOL    HW2 1167   0.190   0.983   3.630
  390SOL     OW 1168   0.672   0.203   3.351
  390SOL    HW1 1169   0.762   0.187   3.311
  390SOL    HW2 1170   0.680   0.208   3.450
  391SOL     OW 1171   0.075   0.345   1.895
  391SOL    HW1 1172  -0.017   0.317   1.866
  391SOL    HW2 1173   0.106   0.422   1.839
  392SOL     OW 1174   1.440   0.856   3.260
  392SOL    HW1 1175   1.383   0.908   3.197
  392SOL    HW2 1176   1.536   0.868   3.236
  393SOL     OW 1177   0.072   0.166   2.180
  393SOL    HW1 1178   0.055   0.249   2.126
  393SOL    HW2 1179   0.162   0.129   2.158
  394SOL     OW 1180   1.183   1.335   1.981
  394SOL    HW1 1181   1.084   1.324   1.983
  394SOL    HW2 1182   1.217   1.350   2.074
  395SOL     OW 1183   0.613   0.842   3.293
  395SOL    HW1 1184   0.669   0.923   3.276
  395SOL    HW2 1185   0.672   0.762   3.296
  396SOL     OW 1186   1.493   1.767   2.821
  396SOL    HW1 1187   1.526   1.831   2.752
  396SOL    HW2 1188   1.559   1.761   2.896
  397SOL     OW 1189   0.716   0.565   3.570
  397SOL    HW1 1190   0.735   0.630   3.644
  397SOL    HW2 1191   0.776   0.485   3.579
  398SOL     OW 1192   1.450   1.220   3.495
  398SOL    HW1 1193   1.441   1.210   3.594
  398SOL    HW2 1194   1.546   1.213   3.469
  399SOL     OW 1195   0.390   1.741   3.422
  399SOL    HW1 1196   0.299   1.782   3.420
  399SOL    HW2 1197   0.383   1.647   3.454
  400SOL     OW 1198   1.674   0.883   3.116
  400SOL    HW1 1199   1.647   0.794   3.079
  400SOL    HW2 1200   1.675   0.951   3.043
  401SOL     OW 1201   1.225   0.325   2.311
  401SOL    HW1 1202   1.290   0.251   2.300
  401SOL    HW2 1203   1.245   0.375   2.395
  402SOL     OW 1204   0.594   0.745   2.514
  402SOL    HW1 1205   0.644   0.830   2.495
  402SOL    HW2 1206   0.506   0.747   2.466
  403SOL     OW 1207   1.777   0.342   3.504
  403SOL    HW1 1208   1.760   0.373   3.410
  403SOL    HW2 1209   1.693   0.305   3.542
  404SOL     OW 1210   1.730   0.934   3.379
  404SOL    HW1 1211   1.768   1.025   3.394
  404SOL    HW2 1212   1.722   0.917   3.280
  405SOL     OW 1213   0.859   1.374   1.878
  405SOL    HW1 1214   0.813   1.389   1.966
  405SOL    HW2 1215   0.903   1.459   1.848
  406SOL     OW 1216   0.661   1.790   2.815
  406SOL    HW1 1217   0.615   1.878   2.802
  406SOL    HW2 1218   0.760   1.802   2.808
  407SOL     OW 1219   0.859   0.956   2.723
  407SOL    HW1 1220   0.913   0.887   2.771
  407SOL    HW2 1221   0.827   1.025   2.789
  408SOL     OW 1222   1.083   0.984   1.949
  408SOL    HW1 1223   1.060   1.037   1.867
  408SOL    HW2 1224   1.164   0.928   1.930
  409SOL     OW 1225   1.861   1.569   2.713
  409SOL    HW1 1226   1.790   1.557   2.643
  409SOL    HW2 1227   1.862   1.490   2.773
  410SOL     OW 1228   0.221   1.314   3.706
  410SOL    HW1 1229   0.156   1.241   3.685
  410SOL    HW2 1230   0.225   1.328   3.804
  411SOL     OW 1231   0.079   1.240   2.515
  411SOL    HW1 1232   0.078   1.193   2.603
  411SOL    HW2 1233   0.161   1.212   2.464
  412SOL     OW 1234   0.672   1.391   3.486
  412SOL    HW1 1235   0.594   1.341   3.524
  412SOL    HW2 1236   0.669   1.486   3.517
  413SOL     OW 1237   1.824   0.192   3.089
  413SOL    HW1 1238   1.820   0.102   3.133
  413SOL    HW2 1239   1.827   0.181   2.990
  414SOL     OW 1240   0.428   0.424   2.382
  414SOL    HW1 1241   0.458   0.352   2.320
  414SOL    HW2 1242   0.389   0.384   2.465
  415SOL     OW 1243   1.705   1.487   2.966
  415SOL    HW1 1244   1.612   1.462   2.939
  415SOL    HW2 1245   1.731   1.437   3.048
  416SOL     OW 1246   0.317   0.547   3.142
  416SOL    HW1 1247   0.355   0.488   3.214
  416SOL    HW2 1248   0.357   0.521   3.054
  417SOL     OW 1249   0.812   1.586   2.549
  417SOL    HW1 1250   0.844   1.596   2.455
  417SOL    HW2 1251   0.733   1.524   2.551
  418SOL     OW 1252   1.424   0.214   2.974
  418SOL    HW1 1253   1.476   0.149   3.029
  418SOL    HW2 1254   1.375   0.277   3.035
  419SOL     OW 1255   1.001   0.034   3.016
  419SOL    HW1 1256   0.938  -0.038   2.985
  419SOL    HW2 1257   1.094  -0.002   3.016
  420SOL     OW 1258   0.770   1.330   2.163
  420SOL    HW1 1259   0.724   1.243   2.180
  420SOL    HW2 1260   0.861   1.327   2.204
  421SOL     OW 1261   0.618   1.567   3.146
  421SOL    HW1 1262   0.613   1.649   3.203
  421SOL    HW2 1263   0.707   1.564   3.101
  422SOL     OW 1264   1.352   0.052   2.030
  422SOL    HW1 1265   1.387   0.011   1.946
  422SOL    HW2 1266   1.262   0.014   2.050
  423SOL     OW 1267   1.300   0.453   2.553
  423SOL    HW1 1268   1.241   0.533   2.557
  423SOL    HW2 1269   1.315   0.418   2.646
  424SOL     OW 1270   1.593   0.221   2.744
  424SOL    HW1 1271   1.509   0.220   2.798
  424SOL    HW2 1272   1.595   0.304   2.688
  425SOL     OW 1273   0.039   1.077   2.162
  425SOL    HW1 1274   0.138   1.066   2.153
  425SOL    HW2 1275  -0.001   0.991   2.194
  426SOL     OW 1276   0.875   1.646   2.199
  426SOL    HW1 1277   0.798   1.611   2.145
  426SOL    HW2 1278   0.843   1.717   2.261
  427SOL     OW 1279   0.230   0.628   3.837
  427SOL    HW1 1280   0.137   0.626   3.874
  427SOL    HW2 1281   0.231   0.589   3.745
  428SOL     OW 1282   1.755   0.607   3.955
  428SOL    HW1 1283   1.743   0.594   3.856
  428SOL    HW2 1284   1.725   0.526   4.004
  429SOL     OW 1285   0.231   1.713   4.207
  429SOL    HW1 1286   0.265   1.790   4.261
  429SOL    HW2 1287   0.275   1.713   4.117
  430SOL     OW 1288   0.230   1.434   4.262
  430SOL    HW1 1289   0.204   1.530   4.262
  430SOL    HW2 1290   0.159   1.380   4.307
  431SOL     OW 1291   0.606   0.964   3.847
  431SOL    HW1 1292   0.613   1.048   3.793
  431SOL    HW2 1293   0.652   0.977   3.935
  432SOL     OW 1294   1.842   1.767   4.083
  432SOL    HW1 1295   1.896   1.738   4.163
  432SOL    HW2 1296   1.872   1.857   4.054
  433SOL     OW 1297   0.027   1.596   3.841
  433SOL    HW1 1298   0.008   1.500   3.862
  433SOL    HW2 1299  -0.006   1.654   3.916
  434SOL     OW 1300   1.689   0.922   4.336
  434SOL    HW1 1301   1.784   0.893   4.344
  434SOL    HW2 1302   1.681   0.987   4.261
  435SOL     OW 1303   1.641   1.108   4.156
  435SOL    HW1 1304   1.727   1.110   4.104
  435SOL    HW2 1305   1.655   1.155   4.244
  436SOL     OW 1306   1.525   0.999   3.914
  436SOL    HW1 1307   1.462   0.923   3.927
  436SOL    HW2 1308   1.573   1.017   4.000
  437SOL     OW 1309   0.598   0.729   3.994
  437SOL    HW1 1310   0.622   0.798   3.926
  437SOL    HW2 1311   0.520   0.762   4.048
  438SOL     OW 1312   0.865   0.348   3.919
  438SOL    HW1 1313   0.924   0.411   3.870
  438SOL    HW2 1314   0.884   0.254   3.890
  439SOL     OW 1315   0.321   0.943   3.966
  439SOL    HW1 1316   0.403   0.982   3.924
  439SOL    HW2 1317   0.294   0.861   3.917
  440SOL     OW 1318   1.458   0.735   4.452
  440SOL    HW1 1319   1.453   0.670   4.527
  440SOL    HW2 1320   1.538   0.794   4.465
  441SOL     OW 1321   1.111   1.776   3.961
  441SOL    HW1 1322   1.051   1.714   4.011
  441SOL    HW2 1323   1.142   1.732   3.876
  442SOL     OW 1324   1.632   1.377   3.805
  442SOL    HW1 1325   1.600   1.471   3.795
  442SOL    HW2 1326   1.556   1.314   3.793
  443SOL     OW 1327   0.464   1.743   4.047
  443SOL    HW1 1328   0.497   1.782   4.133
  443SOL    HW2 1329   0.540   1.736   3.982
  444SOL     OW 1330   1.400   0.107   4.150
  444SOL    HW1 1331   1.376   0.070   4.060
  444SOL    HW2 1332   1.499   0.123   4.154
  445SOL     OW 1333   0.614   0.122   3.841
  445SOL    HW1 1334   0.712   0.100   3.848
  445SOL    HW2 1335   0.583   0.105   3.748
  446SOL     OW 1336   1.434   1.188   3.765
  446SOL    HW1 1337   1.466   1.112   3.822
  446SOL    HW2 1338   1.342   1.215   3.795
  447SOL     OW 1339   0.297   0.035   3.895
  447SOL    HW1 1340   0.346   0.119   3.874
  447SOL    HW2 1341   0.359  -0.030   3.940
  448SOL     OW 1342   0.935   0.236   4.204
  448SOL    HW1 1343   0.887   0.277   4.126
  448SOL    HW2 1344   1.034   0.234   4.185
  449SOL     OW 1345   1.032   0.549   3.740
  449SOL    HW1 1346   0.991   0.631   3.701
  449SOL    HW2 1347   1.096   0.575   3.813
  450SOL     OW 1348   1.857   0.833   4.101
  450SOL    HW1 1349   1.899   0.769   4.165
  450SOL    HW2 1350   1.819   0.782   4.023
  451SOL     OW 1351   0.488   1.385   3.898
  451SOL    HW1 1352   0.401   1.370   3.945
  451SOL    HW2 1353   0.471   1.411   3.803
  452SOL     OW 1354   1.390   0.575   3.802
  452SOL    HW1 1355   1.336   0.554   3.883
  452SOL    HW2 1356   1.481   0.534   3.811
  453SOL     OW 1357   0.527   0.256   4.052
  453SOL    HW1 1358   0.554   0.197   3.977
  453SOL    HW2 1359   0.527   0.351   4.021
  454SOL     OW 1360   0.367   1.100   4.225
  454SOL    HW1 1361   0.360   1.183   4.169
  454SOL    HW2 1362   0.371   1.020   4.165
  455SOL     OW 1363   1.252   1.348   4.112
  455SOL    HW1 1364   1.302   1.425   4.152
  455SOL    HW2 1365   1.157   1.350   4.144
  456SOL     OW 1366   1.582   0.639   4.196
  456SOL    HW1 1367   1.551   0.700   4.269
  456SOL    HW2 1368   1.632   0.691   4.127
  457SOL     OW 1369   1.209   0.525   3.999
  457SOL    HW1 1370   1.222   0.441   4.053
  457SOL    HW2 1371   1.180   0.599   4.059
  458SOL     OW 1372   1.622   0.367   4.098
  458SOL    HW1 1373   1.624   0.291   4.162
  458SOL    HW2 1374   1.574   0.444   4.138
  459SOL     OW 1375   1.540   0.274   3.849
  459SOL    HW1 1376   1.479   0.199   3.872
  459SOL    HW2 1377   1.562   0.326   3.932
  460SOL     OW 1378   1.303   0.838   3.766
  460SOL    HW1 1379   1.337   0.745   3.781
  460SOL    HW2 1380   1.321   0.865   3.671
  461SOL     OW 1381   0.008   1.326   3.924
  461SOL    HW1 1382  -0.085   1.347   3.893
  461SOL    HW2 1383   0.018   1.227   3.937
  462SOL     OW 1384   0.815   0.572   4.049
  462SOL    HW1 1385   0.822   0.483   4.003
  462SOL    HW2 1386   0.721   0.606   4.041
  463SOL     OW 1387   0.473   0.500   3.915
  463SOL    HW1 1388   0.534   0.580   3.919
  463SOL    HW2 1389   0.378   0.531   3.922
  464SOL     OW 1390   1.726   0.135   4.247
  464SOL    HW1 1391   1.799   0.118   4.180
  464SOL    HW2 1392   1.695   0.048   4.285
  465SOL     OW 1393   0.672   1.616   3.878
  465SOL    HW1 1394   0.681   1.626   3.779
  465SOL    HW2 1395   0.632   1.527   3.899
  466SOL     OW 1396   0.263   0.326   4.444
  466SOL    HW1 1397   0.184   0.377   4.410
  466SOL    HW2 1398   0.254   0.311   4.542
  467SOL     OW 1399   1.194   1.612   3.755
  467SOL    HW1 1400   1.200   1.519   3.792
  467SOL    HW2 1401   1.135   1.612   3.675
  468SOL     OW 1402   0.916   0.910   4.015
  468SOL    HW1 1403   0.979   0.948   3.947
  468SOL    HW2 1404   0.956   0.827   4.054
  469SOL     OW 1405   1.504   1.607   3.768
  469SOL    HW1 1406   1.412   1.644   3.775
  469SOL    HW2 1407   1.542   1.627   3.678
  470SOL     OW 1408   0.255   1.348   4.014
  470SOL    HW1 1409   0.159   1.349   3.987
  470SOL    HW2 1410   0.267   1.401   4.098
  471SOL     OW 1411   0.075   0.345   3.757
  471SOL    HW1 1412  -0.017   0.317   3.728
  471SOL    HW2 1413   0.106   0.422   3.701
  472SOL     OW 1414   0.072   0.166   4.042
  472SOL    HW1 1415   0.055   0.249   3.988
  472SOL    HW2 1416   0.162   0.129   4.020
  473SOL     OW 1417   1.183   1.335   3.843
  473SOL    HW1 1418   1.084   1.324   3.845
  473SOL    HW2 1419   1.217   1.350   3.936
  474SOL     OW 1420   1.225   0.325   4.173
  474SOL    HW1 1421   1.290   0.251   4.162
  474SOL    HW2 1422   1.245   0.375   4.257
  475SOL     OW 1423   0.859   1.374   3.740
  475SOL    HW1 1424   0.813   1.389   3.828
  475SOL    HW2 1425   0.903   1.459   3.710
  476SOL     OW 1426   1.083   0.984   3.811
  476SOL    HW1 1427   1.060   1.037   3.729
  476SOL    HW2 1428   1.164   0.928   3.792
  477SOL     OW 1429   1.352   0.052   3.892
  477SOL    HW1 1430   1.387   0.011   3.808
  477SOL    HW2 1431   1.262   0.014   3.912
  478SOL     OW 1432   0.039   1.077   4.024
  478SOL    HW1 1433   0.138   1.066   4.015
  478SOL    HW2 1434  -0.001   0.991   4.056
  479SOL     OW 1435   0.875   1.646   4.061
  479SOL    HW1 1436   0.798   1.611   4.007
  479SOL    HW2 1437   0.843   1.717   4.123
  480SOL     OW 1438   0.230   2.490   0.113
  480SOL    HW1 1439   0.137   2.488   0.150
  480SOL    HW2 1440   0.231   2.451   0.021
  481SOL     OW 1441   0.225   2.137   0.996
  481SOL    HW1 1442   0.260   2.120   1.088
  481SOL    HW2 1443   0.137   2.092   0.984
  482SOL     OW 1444   0.019   2.230   0.647
  482SOL    HW1 1445  -0.063   2.273   0.686
  482SOL    HW2 1446  -0.009   2.157   0.584
  483SOL     OW 1447   0.569   3.137   1.165
  483SOL    HW1 1448   0.476   3.130   1.128
  483SOL    HW2 1449   0.580   3.226   1.209
  484SOL     OW 1450   1.555   3.373   0.703
  484SOL    HW1 1451   1.498   3.357   0.784
  484SOL    HW2 1452   1.496   3.383   0.623
  485SOL     OW 1453   1.135   2.565   0.717
  485SOL    HW1 1454   1.192   2.643   0.692
  485SOL    HW2 1455   1.075   2.591   0.793
  486SOL     OW 1456   1.755   2.469   0.231
  486SOL    HW1 1457   1.743   2.456   0.132
  486SOL    HW2 1458   1.725   2.388   0.280
  487SOL     OW 1459   0.768   3.006   1.023
  487SOL    HW1 1460   0.690   3.023   1.083
  487SOL    HW2 1461   0.802   3.093   0.987
  488SOL     OW 1462   0.850   2.660   1.823
  488SOL    HW1 1463   0.846   2.736   1.888
  488SOL    HW2 1464   0.872   2.696   1.732
  489SOL     OW 1465   0.685   2.874   0.665
  489SOL    HW1 1466   0.754   2.858   0.735
  489SOL    HW2 1467   0.612   2.931   0.703
  490SOL     OW 1468   0.686   3.023   1.803
  490SOL    HW1 1469   0.746   3.102   1.817
  490SOL    HW2 1470   0.600   3.054   1.762
  491SOL     OW 1471   0.335   3.297   1.061
  491SOL    HW1 1472   0.257   3.266   1.008
  491SOL    HW2 1473   0.393   3.355   1.004
  492SOL     OW 1474   1.460   3.367   1.339
  492SOL    HW1 1475   1.484   3.461   1.365
  492SOL    HW2 1476   1.444   3.313   1.421
  493SOL     OW 1477   0.438   2.254   1.499
  493SOL    HW1 1478   0.520   2.198   1.508
  493SOL    HW2 1479   0.357   2.196   1.503
  494SOL     OW 1480   1.603   2.309   0.737
  494SOL    HW1 1481   1.529   2.355   0.687
  494SOL    HW2 1482   1.654   2.377   0.790
  495SOL     OW 1483   0.231   3.575   0.483
  495SOL    HW1 1484   0.265   3.652   0.537
  495SOL    HW2 1485   0.275   3.575   0.393
  496SOL     OW 1486   1.127   3.203   1.690
  496SOL    HW1 1487   1.174   3.203   1.778
  496SOL    HW2 1488   1.079   3.116   1.679
  497SOL     OW 1489   0.230   3.296   0.538
  497SOL    HW1 1490   0.204   3.392   0.538
  497SOL    HW2 1491   0.159   3.242   0.583
  498SOL     OW 1492   0.240   2.953   0.886
  498SOL    HW1 1493   0.254   2.869   0.938
  498SOL    HW2 1494   0.185   3.017   0.941
  499SOL     OW 1495   0.620   3.648   1.439
  499SOL    HW1 1496   0.528   3.631   1.474
  499SOL    HW2 1497   0.648   3.740   1.465
  500SOL     OW 1498   0.606   2.826   0.123
  500SOL    HW1 1499   0.613   2.910   0.069
  500SOL    HW2 1500   0.652   2.839   0.211
  501SOL     OW 1501   1.594   1.976   1.480
  501SOL    HW1 1502   1.576   2.043   1.408
  501SOL    HW2 1503   1.591   2.022   1.569
  502SOL     OW 1504   0.122   2.505   0.563
  502SOL    HW1 1505   0.077   2.417   0.580
  502SOL    HW2 1506   0.121   2.559   0.647
  503SOL     OW 1507   1.842   3.629   0.359
  503SOL    HW1 1508   1.896   3.600   0.439
  503SOL    HW2 1509   1.872   3.719   0.330
  504SOL     OW 1510   0.027   3.458   0.117
  504SOL    HW1 1511   0.008   3.362   0.138
  504SOL    HW2 1512  -0.006   3.516   0.192
  505SOL     OW 1513   1.689   2.784   0.612
  505SOL    HW1 1514   1.784   2.755   0.620
  505SOL    HW2 1515   1.681   2.849   0.537
  506SOL     OW 1516   1.641   2.970   0.432
  506SOL    HW1 1517   1.727   2.972   0.380
  506SOL    HW2 1518   1.655   3.017   0.520
  507SOL     OW 1519   0.113   2.599   1.597
  507SOL    HW1 1520   0.201   2.586   1.642
  507SOL    HW2 1521   0.100   2.696   1.575
  508SOL     OW 1522   0.613   3.227   0.726
  508SOL    HW1 1523   0.564   3.140   0.735
  508SOL    HW2 1524   0.590   3.270   0.639
  509SOL     OW 1525   1.293   3.090   1.423
  509SOL    HW1 1526   1.330   3.017   1.365
  509SOL    HW2 1527   1.345   3.095   1.508
  510SOL     OW 1528   0.809   1.866   0.502
  510SOL    HW1 1529   0.849   1.957   0.493
  510SOL    HW2 1530   0.709   1.874   0.508
  511SOL     OW 1531   0.197   2.838   1.264
  511SOL    HW1 1532   0.286   2.793   1.250
  511SOL    HW2 1533   0.124   2.773   1.245
  512SOL     OW 1534   1.525   2.861   0.190
  512SOL    HW1 1535   1.462   2.785   0.203
  512SOL    HW2 1536   1.573   2.879   0.276
  513SOL     OW 1537   1.187   3.654   1.616
  513SOL    HW1 1538   1.211   3.714   1.540
  513SOL    HW2 1539   1.194   3.559   1.586
  514SOL     OW 1540   0.317   2.113   1.801
  514SOL    HW1 1541   0.388   2.184   1.807
  514SOL    HW2 1542   0.229   2.152   1.829
  515SOL     OW 1543   1.466   3.279   0.953
  515SOL    HW1 1544   1.407   3.285   1.033
  515SOL    HW2 1545   1.451   3.191   0.907
  516SOL     OW 1546   1.667   3.576   0.572
  516SOL    HW1 1547   1.626   3.553   0.484
  516SOL    HW2 1548   1.649   3.502   0.637
  517SOL     OW 1549   0.598   2.591   0.270
  517SOL    HW1 1550   0.622   2.660   0.202
  517SOL    HW2 1551   0.520   2.624   0.324
  518SOL     OW 1552   1.281   2.207   0.944
  518SOL    HW1 1553   1.195   2.157   0.931
  518SOL    HW2 1554   1.343   2.153   1.000
  519SOL     OW 1555   1.576   3.524   0.307
  519SOL    HW1 1556   1.665   3.570   0.310
  519SOL    HW2 1557   1.555   3.500   0.212
  520SOL     OW 1558   0.807   2.467   1.465
  520SOL    HW1 1559   0.760   2.464   1.554
  520SOL    HW2 1560   0.756   2.412   1.399
  521SOL     OW 1561   1.394   2.331   1.674
  521SOL    HW1 1562   1.374   2.374   1.762
  521SOL    HW2 1563   1.472   2.269   1.683
  522SOL     OW 1564   0.973   2.752   1.572
  522SOL    HW1 1565   1.019   2.668   1.543
  522SOL    HW2 1566   0.917   2.786   1.497
  523SOL     OW 1567   0.991   2.272   1.242
  523SOL    HW1 1568   0.914   2.306   1.296
  523SOL    HW2 1569   0.957   2.221   1.163
  524SOL     OW 1570   1.041   2.563   0.429
  524SOL    HW1 1571   1.067   2.559   0.525
  524SOL    HW2 1572   0.956   2.512   0.415
  525SOL     OW 1573   0.076   2.673   0.789
  525SOL    HW1 1574   0.175   2.661   0.798
  525SOL    HW2 1575   0.052   2.768   0.810
  526SOL     OW 1576   0.130   3.683   1.571
  526SOL    HW1 1577   0.120   3.668   1.670
  526SOL    HW2 1578   0.044   3.719   1.535
  527SOL     OW 1579   0.865   2.210   0.195
  527SOL    HW1 1580   0.924   2.273   0.146
  527SOL    HW2 1581   0.884   2.116   0.166
  528SOL     OW 1582   1.719   2.447   1.831
  528SOL    HW1 1583   1.693   2.536   1.795
  528SOL    HW2 1584   1.717   2.379   1.758
  529SOL     OW 1585   1.362   3.006   0.545
  529SOL    HW1 1586   1.445   2.977   0.497
  529SOL    HW2 1587   1.313   3.073   0.489
  530SOL     OW 1588   0.550   2.058   0.885
  530SOL    HW1 1589   0.545   2.053   0.985
  530SOL    HW2 1590   0.552   2.154   0.856
  531SOL     OW 1591   1.008   3.318   0.477
  531SOL    HW1 1592   0.962   3.390   0.425
  531SOL    HW2 1593   1.004   3.338   0.575
  532SOL     OW 1594   0.351   3.663   0.853
  532SOL    HW1 1595   0.401   3.577   0.859
  532SOL    HW2 1596   0.416   3.740   0.850
  533SOL     OW 1597   1.795   2.928   0.873
  533SOL    HW1 1598   1.733   2.913   0.797
  533SOL    HW2 1599   1.743   2.939   0.958
  534SOL     OW 1600   1.227   3.412   1.506
  534SOL    HW1 1601   1.233   3.335   1.570
  534SOL    HW2 1602   1.175   3.386   1.426
  535SOL     OW 1603   0.321   2.805   0.242
  535SOL    HW1 1604   0.403   2.844   0.200
  535SOL    HW2 1605   0.294   2.723   0.193
  536SOL     OW 1606   1.458   2.597   0.728
  536SOL    HW1 1607   1.453   2.532   0.803
  536SOL    HW2 1608   1.538   2.656   0.741
  537SOL     OW 1609   0.461   3.128   1.727
  537SOL    HW1 1610   0.411   3.129   1.641
  537SOL    HW2 1611   0.398   3.110   1.803
  538SOL     OW 1612   1.111   3.638   0.237
  538SOL    HW1 1613   1.051   3.576   0.287
  538SOL    HW2 1614   1.142   3.594   0.152
  539SOL     OW 1615   0.202   2.147   1.498
  539SOL    HW1 1616   0.122   2.207   1.485
  539SOL    HW2 1617   0.192   2.098   1.584
  540SOL     OW 1618   1.632   3.239   0.081
  540SOL    HW1 1619   1.600   3.333   0.071
  540SOL    HW2 1620   1.556   3.176   0.069
  541SOL     OW 1621   0.464   3.605   0.323
  541SOL    HW1 1622   0.497   3.644   0.409
  541SOL    HW2 1623   0.540   3.598   0.258
  542SOL     OW 1624   1.400   1.969   0.426
  542SOL    HW1 1625   1.376   1.932   0.336
  542SOL    HW2 1626   1.499   1.985   0.430
  543SOL     OW 1627   0.249   3.647   1.241
  543SOL    HW1 1628   0.306   3.582   1.291
  543SOL    HW2 1629   0.233   3.614   1.148
  544SOL     OW 1630   0.940   3.560   0.904
  544SOL    HW1 1631   1.020   3.503   0.925
  544SOL    HW2 1632   0.891   3.520   0.827
  545SOL     OW 1633   0.382   2.562   0.480
  545SOL    HW1 1634   0.427   2.472   0.477
  545SOL    HW2 1635   0.288   2.551   0.513
  546SOL     OW 1636   1.547   2.084   1.729
  546SOL    HW1 1637   1.542   2.121   1.821
  546SOL    HW2 1638   1.475   2.015   1.717
  547SOL     OW 1639   0.614   1.984   0.117
  547SOL    HW1 1640   0.712   1.962   0.124
  547SOL    HW2 1641   0.583   1.967   0.024
  548SOL     OW 1642   0.781   2.126   1.749
  548SOL    HW1 1643   0.848   2.065   1.792
  548SOL    HW2 1644   0.708   2.145   1.814
  549SOL     OW 1645   0.888   3.376   1.195
  549SOL    HW1 1646   0.865   3.351   1.101
  549SOL    HW2 1647   0.949   3.307   1.234
  550SOL     OW 1648   1.351   2.452   1.433
  550SOL    HW1 1649   1.379   2.409   1.518
  550SOL    HW2 1650   1.376   2.548   1.434
  551SOL     OW 1651   0.803   3.264   0.924
  551SOL    HW1 1652   0.893   3.278   0.882
  551SOL    HW2 1653   0.732   3.266   0.853
  552SOL     OW 1654   0.922   2.365   0.899
  552SOL    HW1 1655   0.897   2.356   0.803
  552SOL    HW2 1656   0.970   2.283   0.930
  553SOL     OW 1657   0.539   1.926   0.512
  553SOL    HW1 1658   0.458   1.927   0.570
  553SOL    HW2 1659   0.542   2.009   0.457
  554SOL     OW 1660   1.434   3.050   0.041
  554SOL    HW1 1661   1.466   2.974   0.098
  554SOL    HW2 1662   1.342   3.077   0.071
  555SOL     OW 1663   0.935   2.098   0.480
  555SOL    HW1 1664   0.887   2.139   0.402
  555SOL    HW2 1665   1.034   2.096   0.461
  556SOL     OW 1666   1.076   2.545   1.464
  556SOL    HW1 1667   0.996   2.484   1.467
  556SOL    HW2 1668   1.157   2.492   1.440
  557SOL     OW 1669   1.227   3.432   0.793
  557SOL    HW1 1670   1.248   3.506   0.728
  557SOL    HW2 1671   1.295   3.432   0.866
  558SOL     OW 1672   0.459   3.014   0.741
  558SOL    HW1 1673   0.388   2.987   0.806
  558SOL    HW2 1674   0.433   2.986   0.648
  559SOL     OW 1675   1.271   3.659   0.591
  559SOL    HW1 1676   1.315   3.723   0.527
  559SOL    HW2 1677   1.221   3.711   0.661
  560SOL     OW 1678   1.032   2.411   0.016
  560SOL    HW1 1679   0.991   2.493  -0.023
  560SOL    HW2 1680   1.096   2.437   0.089
  561SOL     OW 1681   0.078   2.418   1.386
  561SOL    HW1 1682   0.170   2.417   1.345
  561SOL    HW2 1683   0.072   2.492   1.453
  562SOL     OW 1684   0.561   2.084   1.147
  562SOL    HW1 1685   0.599   2.000   1.184
  562SOL    HW2 1686   0.473   2.103   1.191
  563SOL     OW 1687   0.866   2.316   0.642
  563SOL    HW1 1688   0.834   2.388   0.580
  563SOL    HW2 1689   0.890   2.235   0.589
  564SOL     OW 1690   1.017   1.901   0.753
  564SOL    HW1 1691   0.945   1.906   0.684
  564SOL    HW2 1692   0.993   1.832   0.822
  565SOL     OW 1693   1.429   3.035   0.867
  565SOL    HW1 1694   1.374   2.951   0.860
  565SOL    HW2 1695   1.455   3.064   0.775
  566SOL     OW 1696   1.466   2.452   0.992
  566SOL    HW1 1697   1.436   2.357   0.999
  566SOL    HW2 1698   1.539   2.468   1.058
  567SOL     OW 1699   1.857   2.695   0.377
  567SOL    HW1 1700   1.899   2.631   0.441
  567SOL    HW2 1701   1.819   2.644   0.299
  568SOL     OW 1702   0.488   3.247   0.174
  568SOL    HW1 1703   0.401   3.232   0.221
  568SOL    HW2 1704   0.471   3.273   0.079
  569SOL     OW 1705   1.664   3.142   0.657
  569SOL    HW1 1706   1.763   3.150   0.671
  569SOL    HW2 1707   1.619   3.226   0.688
  570SOL     OW 1708   1.390   2.437   0.078
  570SOL    HW1 1709   1.336   2.416   0.159
  570SOL    HW2 1710   1.481   2.396   0.087
  571SOL     OW 1711   0.527   2.118   0.328
  571SOL    HW1 1712   0.554   2.059   0.253
  571SOL    HW2 1713   0.527   2.213   0.297
  572SOL     OW 1714   1.754   3.085   1.588
  572SOL    HW1 1715   1.845   3.046   1.575
  572SOL    HW2 1716   1.762   3.181   1.612
  573SOL     OW 1717   1.064   3.209   1.340
  573SOL    HW1 1718   0.984   3.186   1.395
  573SOL    HW2 1719   1.147   3.183   1.389
  574SOL     OW 1720   1.592   3.491   1.625
  574SOL    HW1 1721   1.619   3.525   1.535
  574SOL    HW2 1722   1.671   3.453   1.671
  575SOL     OW 1723   1.111   3.057   1.100
  575SOL    HW1 1724   1.071   3.101   1.181
  575SOL    HW2 1725   1.070   3.094   1.017
  576SOL     OW 1726   1.638   2.961   1.079
  576SOL    HW1 1727   1.643   3.042   1.138
  576SOL    HW2 1728   1.552   2.963   1.028
  577SOL     OW 1729   0.915   1.951   1.402
  577SOL    HW1 1730   0.940   1.931   1.307
  577SOL    HW2 1731   0.987   2.007   1.444
  578SOL     OW 1732   0.980   2.978   1.719
  578SOL    HW1 1733   0.881   2.984   1.729
  578SOL    HW2 1734   1.003   2.898   1.663
  579SOL     OW 1735   0.705   2.912   0.368
  579SOL    HW1 1736   0.691   2.919   0.467
  579SOL    HW2 1737   0.789   2.861   0.350
  580SOL     OW 1738   0.410   2.675   1.251
  580SOL    HW1 1739   0.496   2.687   1.301
  580SOL    HW2 1740   0.368   2.588   1.278
  581SOL     OW 1741   1.274   2.248   1.262
  581SOL    HW1 1742   1.295   2.322   1.326
  581SOL    HW2 1743   1.185   2.265   1.219
  582SOL     OW 1744   0.064   3.426   1.331
  582SOL    HW1 1745   0.018   3.508   1.297
  582SOL    HW2 1746   0.162   3.445   1.340
  583SOL     OW 1747   0.367   2.962   0.501
  583SOL    HW1 1748   0.360   3.045   0.445
  583SOL    HW2 1749   0.371   2.882   0.441
  584SOL     OW 1750   0.566   2.399   0.865
  584SOL    HW1 1751   0.578   2.465   0.791
  584SOL    HW2 1752   0.612   2.433   0.948
  585SOL     OW 1753   1.252   3.210   0.388
  585SOL    HW1 1754   1.302   3.287   0.428
  585SOL    HW2 1755   1.157   3.212   0.420
  586SOL     OW 1756   1.272   3.307   1.142
  586SOL    HW1 1757   1.319   3.320   1.229
  586SOL    HW2 1758   1.206   3.233   1.151
  587SOL     OW 1759   1.582   2.501   0.472
  587SOL    HW1 1760   1.551   2.562   0.545
  587SOL    HW2 1761   1.632   2.553   0.403
  588SOL     OW 1762   0.354   3.372   1.329
  588SOL    HW1 1763   0.333   3.328   1.242
  588SOL    HW2 1764   0.451   3.398   1.332
  589SOL     OW 1765   0.402   2.613   1.598
  589SOL    HW1 1766   0.470   2.668   1.551
  589SOL    HW2 1767   0.442   2.525   1.625
  590SOL     OW 1768   1.587   2.641   1.670
  590SOL    HW1 1769   1.495   2.679   1.665
  590SOL    HW2 1770   1.647   2.688   1.605
  591SOL     OW 1771   1.013   1.967   1.770
  591SOL    HW1 1772   1.019   2.052   1.718
  591SOL    HW2 1773   1.045   1.891   1.713
  592SOL     OW 1774   0.504   1.912   1.740
  592SOL    HW1 1775   0.462   1.855   1.670
  592SOL    HW2 1776   0.438   1.981   1.772
  593SOL     OW 1777   0.573   2.732   1.029
  593SOL    HW1 1778   0.617   2.821   1.020
  593SOL    HW2 1779   0.510   2.732   1.106
  594SOL     OW 1780   1.360   2.724   1.045
  594SOL    HW1 1781   1.285   2.724   0.979
  594SOL    HW2 1782   1.397   2.632   1.054
  595SOL     OW 1783   1.209   2.387   0.275
  595SOL    HW1 1784   1.222   2.303   0.329
  595SOL    HW2 1785   1.180   2.461   0.335
  596SOL     OW 1786   0.307   2.075   1.231
  596SOL    HW1 1787   0.284   2.112   1.321
  596SOL    HW2 1788   0.277   1.980   1.225
  597SOL     OW 1789   0.037   3.172   1.282
  597SOL    HW1 1790   0.090   3.123   1.350
  597SOL    HW2 1791   0.059   3.270   1.287
  598SOL     OW 1792   0.732   2.496   1.064
  598SOL    HW1 1793   0.791   2.470   0.988
  598SOL    HW2 1794   0.704   2.592   1.053
  599SOL     OW 1795   1.728   2.797   1.854
  599SOL    HW1 1796   1.682   2.790   1.765
  599SOL    HW2 1797   1.666   2.841   1.920
  600SOL     OW 1798   0.307   1.925   0.618
  600SOL    HW1 1799   0.296   2.019   0.651
  600SOL    HW2 1800   0.302   1.862   0.695
  601SOL     OW 1801   1.622   2.229   0.374
  601SOL    HW1 1802   1.624   2.153   0.438
  601SOL    HW2 1803   1.574   2.306   0.414
  602SOL     OW 1804   1.023   2.628   0.966
  602SOL    HW1 1805   1.038   2.649   1.062
  602SOL    HW2 1806   0.993   2.533   0.957
  603SOL     OW 1807   0.980   3.435   1.700
  603SOL    HW1 1808   0.960   3.479   1.612
  603SOL    HW2 1809   1.019   3.344   1.684
  604SOL     OW 1810   1.859   3.380   1.605
  604SOL    HW1 1811   1.873   3.407   1.510
  604SOL    HW2 1812   1.942   3.402   1.658
  605SOL     OW 1813   0.350   2.760   1.804
  605SOL    HW1 1814   0.426   2.804   1.852
  605SOL    HW2 1815   0.385   2.713   1.722
  606SOL     OW 1816   1.540   2.136   0.125
  606SOL    HW1 1817   1.479   2.061   0.148
  606SOL    HW2 1818   1.562   2.188   0.208
  607SOL     OW 1819   1.303   2.700   0.042
  607SOL    HW1 1820   1.337   2.607   0.057
  607SOL    HW2 1821   1.321   2.727  -0.053
  608SOL     OW 1822   1.068   3.195   0.849
  608SOL    HW1 1823   1.075   3.111   0.794
  608SOL    HW2 1824   1.130   3.264   0.813
  609SOL     OW 1825   0.319   2.672   0.949
  609SOL    HW1 1826   0.412   2.708   0.954
  609SOL    HW2 1827   0.313   2.587   1.001
  610SOL     OW 1828   0.339   2.371   1.006
  610SOL    HW1 1829   0.287   2.288   0.989
  610SOL    HW2 1830   0.416   2.376   0.942
  611SOL     OW 1831   1.138   2.242   1.678
  611SOL    HW1 1832   1.093   2.305   1.742
  611SOL    HW2 1833   1.231   2.273   1.661
  612SOL     OW 1834   1.160   2.069   1.477
  612SOL    HW1 1835   1.160   2.133   1.554
  612SOL    HW2 1836   1.188   2.117   1.394
  613SOL     OW 1837   0.008   3.188   0.200
  613SOL    HW1 1838  -0.085   3.209   0.169
  613SOL    HW2 1839   0.018   3.089   0.213
  614SOL     OW 1840   0.088   3.663   0.927
  614SOL    HW1 1841   0.046   3.577   0.900
  614SOL    HW2 1842   0.182   3.666   0.893
  615SOL     OW 1843   0.504   3.430   0.910
  615SOL    HW1 1844   0.570   3.504   0.919
  615SOL    HW2 1845   0.548   3.351   0.868
  616SOL     OW 1846   1.002   2.658   1.238
  616SOL    HW1 1847   1.043   2.626   1.324
  616SOL    HW2 1848   0.906   2.631   1.235
  617SOL     OW 1849   0.040   2.406   1.114
  617SOL    HW1 1850   0.125   2.373   1.073
  617SOL    HW2 1851   0.053   2.421   1.212
  618SOL     OW 1852   0.189   2.382   1.722
  618SOL    HW1 1853   0.248   2.342   1.652
  618SOL    HW2 1854   0.131   2.453   1.681
  619SOL     OW 1855   1.369   2.812   1.660
  619SOL    HW1 1856   1.408   2.901   1.680
  619SOL    HW2 1857   1.379   2.792   1.563
  620SOL     OW 1858   0.815   2.434   0.325
  620SOL    HW1 1859   0.822   2.345   0.279
  620SOL    HW2 1860   0.721   2.468   0.317
  621SOL     OW 1861   1.657   2.466   1.206
  621SOL    HW1 1862   1.619   2.397   1.268
  621SOL    HW2 1863   1.739   2.430   1.162
  622SOL     OW 1864   0.252   3.426   1.744
  622SOL    HW1 1865   0.222   3.483   1.820
  622SOL    HW2 1866   0.245   3.329   1.770
  623SOL     OW 1867   0.671   2.326   1.269
  623SOL    HW1 1868   0.637   2.237   1.239
  623SOL    HW2 1869   0.697   2.380   1.189
  624SOL     OW 1870   0.930   3.540   1.465
  624SOL    HW1 1871   0.906   3.522   1.370
  624SOL    HW2 1872   0.960   3.634   1.475
  625SOL     OW 1873   0.473   2.362   0.191
  625SOL    HW1 1874   0.534   2.442   0.195
  625SOL    HW2 1875   0.378   2.393   0.198
  626SOL     OW 1876   0.159   2.999   1.466
  626SOL    HW1 1877   0.181   2.938   1.542
  626SOL    HW2 1878   0.169   2.950   1.380
  627SOL     OW 1879   1.347   2.921   1.234
  627SOL    HW1 1880   1.371   2.858   1.160
  627SOL    HW2 1881   1.257   2.961   1.216
  628SOL     OW 1882   1.302   2.717   0.309
  628SOL    HW1 1883   1.216   2.686   0.351
  628SOL    HW2 1884   1.298   2.703   0.210
  629SOL     OW 1885   1.759   3.609   1.154
  629SOL    HW1 1886   1.820   3.639   1.081
  629SOL    HW2 1887   1.721   3.520   1.132
  630SOL     OW 1888   1.252   3.593   1.128
  630SOL    HW1 1889   1.336   3.598   1.074
  630SOL    HW2 1890   1.229   3.497   1.146
  631SOL     OW 1891   0.083   3.120   1.022
  631SOL    HW1 1892   0.078   3.119   1.122
  631SOL    HW2 1893   0.000   3.079   0.984
  632SOL     OW 1894   0.688   3.524   1.716
  632SOL    HW1 1895   0.632   3.605   1.725
  632SOL    HW2 1896   0.740   3.528   1.630
  633SOL     OW 1897   0.903   1.948   0.133
  633SOL    HW1 1898   0.954   1.949   0.047
  633SOL    HW2 1899   0.959   1.906   0.204
  634SOL     OW 1900   1.726   1.997   0.523
  634SOL    HW1 1901   1.799   1.980   0.456
  634SOL    HW2 1902   1.695   1.910   0.561
  635SOL     OW 1903   1.388   3.435   0.477
  635SOL    HW1 1904   1.455   3.447   0.403
  635SOL    HW2 1905   1.348   3.524   0.500
  636SOL     OW 1906   0.130   3.656   1.851
  636SOL    HW1 1907   0.089   3.582   1.904
  636SOL    HW2 1908   0.194   3.707   1.909
  637SOL     OW 1909   1.280   2.789   0.672
  637SOL    HW1 1910   1.340   2.708   0.674
  637SOL    HW2 1911   1.320   2.858   0.612
  638SOL     OW 1912   0.830   3.135   1.422
  638SOL    HW1 1913   0.825   3.168   1.517
  638SOL    HW2 1914   0.744   3.154   1.376
  639SOL     OW 1915   0.672   3.478   0.154
  639SOL    HW1 1916   0.681   3.488   0.055
  639SOL    HW2 1917   0.632   3.389   0.175
  640SOL     OW 1918   1.650   3.582   1.394
  640SOL    HW1 1919   1.703   3.592   1.310
  640SOL    HW2 1920   1.623   3.672   1.428
  641SOL     OW 1921   1.841   2.037   0.963
  641SOL    HW1 1922   1.880   1.952   0.927
  641SOL    HW2 1923   1.743   2.039   0.944
  642SOL     OW 1924   0.263   2.188   0.720
  642SOL    HW1 1925   0.184   2.239   0.686
  642SOL    HW2 1926   0.254   2.173   0.818
  643SOL     OW 1927   1.194   3.474   0.031
  643SOL    HW1 1928   1.200   3.381   0.068
  643SOL    HW2 1929   1.135   3.474  -0.049
  644SOL     OW 1930   0.822   2.864   1.372
  644SOL    HW1 1931   0.862   2.863   1.280
  644SOL    HW2 1932   0.832   2.956   1.412
  645SOL     OW 1933   0.916   2.772   0.291
  645SOL    HW1 1934   0.979   2.810   0.223
  645SOL    HW2 1935   0.956   2.689   0.330
  646SOL     OW 1936   1.504   3.469   0.044
  646SOL    HW1 1937   1.412   3.506   0.051
  646SOL    HW2 1938   1.542   3.489  -0.046
  647SOL     OW 1939   0.372   3.150   1.490
  647SOL    HW1 1940   0.359   3.243   1.456
  647SOL    HW2 1941   0.288   3.098   1.477
  648SOL     OW 1942   1.614   3.154   1.289
  648SOL    HW1 1943   1.674   3.157   1.369
  648SOL    HW2 1944   1.539   3.218   1.302
  649SOL     OW 1945   1.039   2.960   0.696
  649SOL    HW1 1946   0.969   2.913   0.750
  649SOL    HW2 1947   1.098   2.892   0.653
  650SOL     OW 1948   1.014   2.098   0.971
  650SOL    HW1 1949   1.006   2.062   0.878
  650SOL    HW2 1950   1.012   2.022   1.036
  651SOL     OW 1951   0.590   3.349   0.491
  651SOL    HW1 1952   0.632   3.291   0.421
  651SOL    HW2 1953   0.546   3.428   0.447
  652SOL     OW 1954   1.709   2.247   1.381
  652SOL    HW1 1955   1.782   2.316   1.385
  652SOL    HW2 1956   1.737   2.172   1.322
  653SOL     OW 1957   0.255   3.210   0.290
  653SOL    HW1 1958   0.159   3.211   0.263
  653SOL    HW2 1959   0.267   3.263   0.374
  654SOL     OW 1960   0.105   2.875   1.726
  654SOL    HW1 1961   0.028   2.842   1.780
  654SOL    HW2 1962   0.190   2.845   1.768
  655SOL     OW 1963   0.672   2.065   1.489
  655SOL    HW1 1964   0.762   2.049   1.449
  655SOL    HW2 1965   0.680   2.070   1.588
  656SOL     OW 1966   0.075   2.207   0.033
  656SOL    HW1 1967  -0.017   2.179   0.004
  656SOL    HW2 1968   0.106   2.284  -0.023
  657SOL     OW 1969   1.440   2.718   1.398
  657SOL    HW1 1970   1.383   2.770   1.335
  657SOL    HW2 1971   1.536   2.730   1.374
  658SOL     OW 1972   0.072   2.028   0.318
  658SOL    HW1 1973   0.055   2.111   0.264
  658SOL    HW2 1974   0.162   1.991   0.296
  659SOL     OW 1975   1.183   3.197   0.119
  659SOL    HW1 1976   1.084   3.186   0.121
  659SOL    HW2 1977   1.217   3.212   0.212
  660SOL     OW 1978   0.613   2.704   1.431
  660SOL    HW1 1979   0.669   2.785   1.414
  660SOL    HW2 1980   0.672   2.624   1.434
  661SOL     OW 1981   1.493   3.629   0.959
  661SOL    HW1 1982   1.526   3.693   0.890
  661SOL    HW2 1983   1.559   3.623   1.034
  662SOL     OW 1984   0.716   2.427   1.708
  662SOL    HW1 1985   0.735   2.492   1.782
  662SOL    HW2 1986   0.776   2.347   1.717
  663SOL     OW 1987   1.450   3.082   1.633
  663SOL    HW1 1988   1.441   3.072   1.732
  663SOL    HW2 1989   1.546   3.075   1.607
  664SOL     OW 1990   0.390   3.603   1.560
  664SOL    HW1 1991   0.299   3.644   1.558
  664SOL    HW2 1992   0.383   3.509   1.592
  665SOL     OW 1993   1.674   2.745   1.254
  665SOL    HW1 1994   1.647   2.656   1.217
  665SOL    HW2 1995   1.675   2.813   1.181
  666SOL     OW 1996   1.225   2.187   0.449
  666SOL    HW1 1997   1.290   2.113   0.438
  666SOL    HW2 1998   1.245   2.237   0.533
  667SOL     OW 1999   0.594   2.607   0.652
  667SOL    HW1 2000   0.644   2.692   0.633
  667SOL    HW2 2001   0.506   2.609   0.604
  668SOL     OW 2002   1.777   2.204   1.642
  668SOL    HW1 2003   1.760   2.235   1.548
  668SOL    HW2 2004   1.693   2.167   1.680
  669SOL     OW 2005   1.730   2.796   1.517
  669SOL    HW1 2006   1.768   2.887   1.532
  669SOL    HW2 2007   1.722   2.779   1.418
  670SOL     OW 2008   0.859   3.236   0.016
  670SOL    HW1 2009   0.813   3.251   0.104
  670SOL    HW2 2010   0.903   3.321  -0.014
  671SOL     OW 2011   0.661   3.652   0.953
  671SOL    HW1 2012   0.615   3.740   0.940
  671SOL    HW2 2013   0.760   3.664   0.946
  672SOL     OW 2014   0.859   2.818   0.861
  672SOL    HW1 2015   0.913   2.749   0.909
  672SOL    HW2 2016   0.827   2.887   0.927
  673SOL     OW 2017   1.083   2.846   0.087
  673SOL    HW1 2018   1.060   2.899   0.005
  673SOL    HW2 2019   1.164   2.790   0.068
  674SOL     OW 2020   1.861   3.431   0.851
  674SOL    HW1 2021   1.790   3.419   0.781
  674SOL    HW2 2022   1.862   3.352   0.911
  675SOL     OW 2023   0.221   3.176   1.844
  675SOL    HW1 2024   0.156   3.103   1.823
  675SOL    HW2 2025   0.225   3.190   1.942
  676SOL     OW 2026   0.079   3.102   0.653
  676SOL    HW1 2027   0.078   3.055   0.741
  676SOL    HW2 2028   0.161   3.074   0.602
  677SOL     OW 2029   0.672   3.253   1.624
  677SOL    HW1 2030   0.594   3.203   1.662
  677SOL    HW2 2031   0.669   3.348   1.655
  678SOL     OW 2032   1.824   2.054   1.227
  678SOL    HW1 2033   1.820   1.964   1.271
  678SOL    HW2 2034   1.827   2.043   1.128
  679SOL     OW 2035   0.428   2.286   0.520
  679SOL    HW1 2036   0.458   2.214   0.458
  679SOL    HW2 2037   0.389   2.246   0.603
  680SOL     OW 2038   1.705   3.349   1.104
  680SOL    HW1 2039   1.612   3.324   1.077
  680SOL    HW2 2040   1.731   3.299   1.186
  681SOL     OW 2041   0.317   2.409   1.280
  681SOL    HW1 2042   0.355   2.350   1.352
  681SOL    HW2 2043   0.357   2.383   1.192
  682SOL     OW 2044   0.812   3.448   0.687
  682SOL    HW1 2045   0.844   3.458   0.593
  682SOL    HW2 2046   0.733   3.386   0.689
  683SOL     OW 2047   1.424   2.076   1.112
  683SOL    HW1 2048   1.476   2.011   1.167
  683SOL    HW2 2049   1.375   2.139   1.173
  684SOL     OW 2050   1.001   1.896   1.154
  684SOL    HW1 2051   0.938   1.824   1.123
  684SOL    HW2 2052   1.094   1.860   1.154
  685SOL     OW 2053   0.770   3.192   0.301
  685SOL    HW1 2054   0.724   3.105   0.318
  685SOL    HW2 2055   0.861   3.189   0.342
  686SOL     OW 2056   0.618   3.429   1.284
  686SOL    HW1 2057   0.613   3.511   1.341
  686SOL    HW2 2058   0.707   3.426   1.239
  687SOL     OW 2059   1.352   1.914   0.168
  687SOL    HW1 2060   1.387   1.873   0.084
  687SOL    HW2 2061   1.262   1.876   0.188
  688SOL     OW 2062   1.300   2.315   0.691
  688SOL    HW1 2063   1.241   2.395   0.695
  688SOL    HW2 2064   1.315   2.280   0.784
  689SOL     OW 2065   1.593   2.083   0.882
  689SOL    HW1 2066   1.509   2.082   0.936
  689SOL    HW2 2067   1.595   2.166   0.826
  690SOL     OW 2068   0.039   2.939   0.300
  690SOL    HW1 2069   0.138   2.928   0.291
  690SOL    HW2 2070  -0.001   2.853   0.332
  691SOL     OW 2071   0.875   3.508   0.337
  691SOL    HW1 2072   0.798   3.473   0.283
  691SOL    HW2 2073   0.843   3.579   0.399
  692SOL     OW 2074   0.230   2.490   1.975
  692SOL    HW1 2075   0.137   2.488   2.012
  692SOL    HW2 2076   0.231   2.451   1.883
  693SOL     OW 2077   0.225   2.137   2.858
  693SOL    HW1 2078   0.260   2.120   2.950
  693SOL    HW2 2079   0.137   2.092   2.846
  694SOL     OW 2080   0.019   2.230   2.509
  694SOL    HW1 2081  -0.063   2.273   2.548
  694SOL    HW2 2082  -0.009   2.157   2.446
  695SOL     OW 2083   0.569   3.137   3.027
  695SOL    HW1 2084   0.476   3.130   2.990
  695SOL    HW2 2085   0.580   3.226   3.071
  696SOL     OW 2086   1.555   3.373   2.565
  696SOL    HW1 2087   1.498   3.357   2.646
  696SOL    HW2 2088   1.496   3.383   2.485
  697SOL     OW 2089   1.135   2.565   2.579
  697SOL    HW1 2090   1.192   2.643   2.554
  697SOL    HW2 2091   1.075   2.591   2.655
  698SOL     OW 2092   1.755   2.469   2.093
  698SOL    HW1 2093   1.743   2.456   1.994
  698SOL    HW2 2094   1.725   2.388   2.142
  699SOL     OW 2095   0.768   3.006   2.885
  699SOL    HW1 2096   0.690   3.023   2.945
  699SOL    HW2 2097   0.802   3.093   2.849
  700SOL     OW 2098   0.850   2.660   3.685
  700SOL    HW1 2099   0.846   2.736   3.750
  700SOL    HW2 2100   0.872   2.696   3.594
  701SOL     OW 2101   0.685   2.874   2.527
  701SOL    HW1 2102   0.754   2.858   2.597
  701SOL    HW2 2103   0.612   2.931   2.565
  702SOL     OW 2104   0.686   3.023   3.665
  702SOL    HW1 2105   0.746   3.102   3.679
  702SOL    HW2 2106   0.600   3.054   3.624
  703SOL     OW 2107   0.335   3.297   2.923
  703SOL    HW1 2108   0.257   3.266   2.870
  703SOL    HW2 2109   0.393   3.355   2.866
  704SOL     OW 2110   1.460   3.367   3.201
  704SOL    HW1 2111   1.484   3.461   3.227
  704SOL    HW2 2112   1.444   3.313   3.283
  705SOL     OW 2113   0.438   2.254   3.361
  705SOL    HW1 2114   0.520   2.198   3.370
  705SOL    HW2 2115   0.357   2.196   3.365
  706SOL     OW 2116   1.603   2.309   2.599
  706SOL    HW1 2117   1.529   2.355   2.549
  706SOL    HW2 2118   1.654   2.377   2.652
  707SOL     OW 2119   0.231   3.575   2.345
  707SOL    HW1 2120   0.265   3.652   2.399
  707SOL    HW2 2121   0.275   3.575   2.255
  708SOL     OW 2122   1.127   3.203   3.552
  708SOL    HW1 2123   1.174   3.203   3.640
  708SOL    HW2 2124   1.079   3.116   3.541
  709SOL     OW 2125   0.230   3.296   2.400
  709SOL    HW1 2126   0.204   3.392   2.400
  709SOL    HW2 2127   0.159   3.242   2.445
  710SOL     OW 2128   0.240   2.953   2.748
  710SOL    HW1 2129   0.254   2.869   2.800
  710SOL    HW2 2130   0.185   3.017   2.803
  711SOL     OW 2131   0.620   3.648   3.301
  711SOL    HW1 2132   0.528   3.631   3.336
  711SOL    HW2 2133   0.648   3.740   3.327
  712SOL     OW 2134   0.606   2.826   1.985
  712SOL    HW1 2135   0.613   2.910   1.931
  712SOL    HW2 2136   0.652   2.839   2.073
  713SOL     OW 2137   1.594   1.976   3.342
  713SOL    HW1 2138   1.576   2.043   3.270
  713SOL    HW2 2139   1.591   2.022   3.431
  714SOL     OW 2140   0.122   2.505   2.425
  714SOL    HW1 2141   0.077   2.417   2.442
  714SOL    HW2 2142   0.121   2.559   2.509
  715SOL     OW 2143   1.842   3.629   2.221
  715SOL    HW1 2144   1.896   3.600   2.301
  715SOL    HW2 2145   1.872   3.719   2.192
  716SOL     OW 2146   0.027   3.458   1.979
  716SOL    HW1 2147   0.008   3.362   2.000
  716SOL    HW2 2148  -0.006   3.516   2.054
  717SOL     OW 2149   1.689   2.784   2.474
  717SOL    HW1 2150   1.784   2.755   2.482
  717SOL    HW2 2151   1.681   2.849   2.399
  718SOL     OW 2152   1.641   2.970   2.294
  718SOL    HW1 2153   1.727   2.972   2.242
  718SOL    HW2 2154   1.655   3.017   2.382
  719SOL     OW 2155   0.113   2.599   3.459
  719SOL    HW1 2156   0.201   2.586   3.504
  719SOL    HW2 2157   0.100   2.696   3.437
  720SOL     OW 2158   0.613   3.227   2.588
  720SOL    HW1 2159   0.564   3.140   2.597
  720SOL    HW2 2160   0.590   3.270   2.501
  721SOL     OW 2161   1.293   3.090   3.285
  721SOL    HW1 2162   1.330   3.017   3.227
  721SOL    HW2 2163   1.345   3.095   3.370
  722SOL     OW 2164   0.809   1.866   2.364
  722SOL    HW1 2165   0.849   1.957   2.355
  722SOL    HW2 2166   0.709   1.874   2.370
  723SOL     OW 2167   0.197   2.838   3.126
  723SOL    HW1 2168   0.286   2.793   3.112
  723SOL    HW2 2169   0.124   2.773   3.107
  724SOL     OW 2170   1.525   2.861   2.052
  724SOL    HW1 2171   1.462   2.785   2.065
  724SOL    HW2 2172   1.573   2.879   2.138
  725SOL     OW 2173   1.187   3.654   3.478
  725SOL    HW1 2174   1.211   3.714   3.402
  725SOL    HW2 2175   1.194   3.559   3.448
  726SOL     OW 2176   0.317   2.113   3.663
  726SOL    HW1 2177   0.388   2.184   3.669
  726SOL    HW2 2178   0.229   2.152   3.691
  727SOL     OW 2179   1.466   3.279   2.815
  727SOL    HW1 2180   1.407   3.285   2.895
  727SOL    HW2 2181   1.451   3.191   2.769
  728SOL     OW 2182   1.667   3.576   2.434
  728SOL    HW1 2183   1.626   3.553   2.346
  728SOL    HW2 2184   1.649   3.502   2.499
  729SOL     OW 2185   0.598   2.591   2.132
  729SOL    HW1 2186   0.622   2.660   2.064
  729SOL    HW2 2187   0.520   2.624   2.186
  730SOL     OW 2188   1.281   2.207   2.806
  730SOL    HW1 2189   1.195   2.157   2.793
  730SOL    HW2 2190   1.343   2.153   2.862
  731SOL     OW 2191   1.576   3.524   2.169
  731SOL    HW1 2192   1.665   3.570   2.172
  731SOL    HW2 2193   1.555   3.500   2.074
  732SOL     OW 2194   0.807   2.467   3.327
  732SOL    HW1 2195   0.760   2.464   3.416
  732SOL    HW2 2196   0.756   2.412   3.261
  733SOL     OW 2197   1.394   2.331   3.536
  733SOL    HW1 2198   1.374   2.374   3.624
  733SOL    HW2 2199   1.472   2.269   3.545
  734SOL     OW 2200   0.973   2.752   3.434
  734SOL    HW1 2201   1.019   2.668   3.405
  734SOL    HW2 2202   0.917   2.786   3.359
  735SOL     OW 2203   0.991   2.272   3.104
  735SOL    HW1 2204   0.914   2.306   3.158
  735SOL    HW2 2205   0.957   2.221   3.025
  736SOL     OW 2206   1.041   2.563   2.291
  736SOL    HW1 2207   1.067   2.559   2.387
  736SOL    HW2 2208   0.956   2.512   2.277
  737SOL     OW 2209   0.076   2.673   2.651
  737SOL    HW1 2210   0.175   2.661   2.660
  737SOL    HW2 2211   0.052   2.768   2.672
  738SOL     OW 2212   0.130   3.683   3.433
  738SOL    HW1 2213   0.120   3.668   3.532
  738SOL    HW2 2214   0.044   3.719   3.397
  739SOL     OW 2215   0.865   2.210   2.057
  739SOL    HW1 2216   0.924   2.273   2.008
  739SOL    HW2 2217   0.884   2.116   2.028
  740SOL     OW 2218   1.719   2.447   3.693
  740SOL    HW1 2219   1.693   2.536   3.657
  740SOL    HW2 2220   1.717   2.379   3.620
  741SOL     OW 2221   1.362   3.006   2.407
  741SOL    HW1 2222   1.445   2.977   2.359
  741SOL    HW2 2223   1.313   3.073   2.351
  742SOL     OW 2224   0.550   2.058   2.747
  742SOL    HW1 2225   0.545   2.053   2.847
  742SOL    HW2 2226   0.552   2.154   2.718
  743SOL     OW 2227   1.008   3.318   2.339
  743SOL    HW1 2228   0.962   3.390   2.287
  743SOL    HW2 2229   1.004   3.338   2.437
  744SOL     OW 2230   0.351   3.663   2.715
  744SOL    HW1 2231   0.401   3.577   2.721
  744SOL    HW2 2232   0.416   3.740   2.712
  745SOL     OW 2233   1.795   2.928   2.735
  745SOL    HW1 2234   1.733   2.913   2.659
  745SOL    HW2 2235   1.743   2.939   2.820
  746SOL     OW 2236   1.227   3.412   3.368
  746SOL    HW1 2237   1.233   3.335   3.432
  746SOL    HW2 2238   1.175   3.386   3.288
  747SOL     OW 2239   0.321   2.805   2.104
  747SOL    HW1 2240   0.403   2.844   2.062
  747SOL    HW2 2241   0.294   2.723   2.055
  748SOL     OW 2242   1.458   2.597   2.590
  748SOL    HW1 2243   1.453   2.532   2.665
  748SOL    HW2 2244   1.538   2.656   2.603
  749SOL     OW 2245   0.461   3.128   3.589
  749SOL    HW1 2246   0.411   3.129   3.503
  749SOL    HW2 2247   0.398   3.110   3.665
  750SOL     OW 2248   1.111   3.638   2.099
  750SOL    HW1 2249   1.051   3.576   2.149
  750SOL    HW2 2250   1.142   3.594   2.014
  751SOL     OW 2251   0.202   2.147   3.360
  751SOL    HW1 2252   0.122   2.207   3.347
  751SOL    HW2 2253   0.192   2.098   3.446
  752SOL     OW 2254   1.632   3.239   1.943
  752SOL    HW1 2255   1.600   3.333   1.933
  752SOL    HW2 2256   1.556   3.176   1.931
  753SOL     OW 2257   0.464   3.605   2.185
  753SOL    HW1 2258   0.497   3.644   2.271
  753SOL    HW2 2259   0.540   3.598   2.120
  754SOL     OW 2260   1.400   1.969   2.288
  754SOL    HW1 2261   1.376   1.932   2.198
  754SOL    HW2 2262   1.499   1.985   2.292
  755SOL     OW 2263   0.249   3.647   3.103
  755SOL    HW1 2264   0.306   3.582   3.153
  755SOL    HW2 2265   0.233   3.614   3.010
  756SOL     OW 2266   0.940   3.560   2.766
  756SOL    HW1 2267   1.020   3.503   2.787
  756SOL    HW2 2268   0.891   3.520   2.689
  757SOL     OW 2269   0.382   2.562   2.342
  757SOL    HW1 2270   0.427   2.472   2.339
  757SOL    HW2 2271   0.288   2.551   2.375
  758SOL     OW 2272   1.547   2.084   3.591
  758SOL    HW1 2273   1.542   2.121   3.683
  758SOL    HW2 2274   1.475   2.015   3.579
  759SOL     OW 2275   0.614   1.984   1.979
  759SOL    HW1 2276   0.712   1.962   1.986
  759SOL    HW2 2277   0.583   1.967   1.886
  760SOL     OW 2278   0.781   2.126   3.611
  760SOL    HW1 2279   0.848   2.065   3.654
  760SOL    HW2 2280   0.708   2.145   3.676
  761SOL     OW 2281   0.888   3.376   3.057
  761SOL    HW1 2282   0.865   3.351   2.963
  761SOL    HW2 2283   0.949   3.307   3.096
  762SOL     OW 2284   1.351   2.452   3.295
  762SOL    HW1 2285   1.379   2.409   3.380
  762SOL    HW2 2286   1.376   2.548   3.296
  763SOL     OW 2287   0.803   3.264   2.786
  763SOL    HW1 2288   0.893   3.278   2.744
  763SOL    HW2 2289   0.732   3.266   2.715
  764SOL     OW 2290   0.922   2.365   2.761
  764SOL    HW1 2291   0.897   2.356   2.665
  764SOL    HW2 2292   0.970   2.283   2.792
  765SOL     OW 2293   0.539   1.926   2.374
  765SOL    HW1 2294   0.458   1.927   2.432
  765SOL    HW2 2295   0.542   2.009   2.319
  766SOL     OW 2296   1.434   3.050   1.903
  766SOL    HW1 2297   1.466   2.974   1.960
  766SOL    HW2 2298   1.342   3.077   1.933
  767SOL     OW 2299   0.297   1.897   2.033
  767SOL    HW1 2300   0.346   1.981   2.012
  767SOL    HW2 2301   0.359   1.832   2.078
  768SOL     OW 2302   0.935   2.098   2.342
  768SOL    HW1 2303   0.887   2.139   2.264
  768SOL    HW2 2304   1.034   2.096   2.323
  769SOL     OW 2305   1.076   2.545   3.326
  769SOL    HW1 2306   0.996   2.484   3.329
  769SOL    HW2 2307   1.157   2.492   3.302
  770SOL     OW 2308   1.227   3.432   2.655
  770SOL    HW1 2309   1.248   3.506   2.590
  770SOL    HW2 2310   1.295   3.432   2.728
  771SOL     OW 2311   0.459   3.014   2.603
  771SOL    HW1 2312   0.388   2.987   2.668
  771SOL    HW2 2313   0.433   2.986   2.510
  772SOL     OW 2314   1.271   3.659   2.453
  772SOL    HW1 2315   1.315   3.723   2.389
  772SOL    HW2 2316   1.221   3.711   2.523
  773SOL     OW 2317   1.032   2.411   1.878
  773SOL    HW1 2318   0.991   2.493   1.839
  773SOL    HW2 2319   1.096   2.437   1.951
  774SOL     OW 2320   0.078   2.418   3.248
  774SOL    HW1 2321   0.170   2.417   3.207
  774SOL    HW2 2322   0.072   2.492   3.315
  775SOL     OW 2323   0.561   2.084   3.009
  775SOL    HW1 2324   0.599   2.000   3.046
  775SOL    HW2 2325   0.473   2.103   3.053
  776SOL     OW 2326   0.866   2.316   2.504
  776SOL    HW1 2327   0.834   2.388   2.442
  776SOL    HW2 2328   0.890   2.235   2.451
  777SOL     OW 2329   1.017   1.901   2.615
  777SOL    HW1 2330   0.945   1.906   2.546
  777SOL    HW2 2331   0.993   1.832   2.684
  778SOL     OW 2332   1.429   3.035   2.729
  778SOL    HW1 2333   1.374   2.951   2.722
  778SOL    HW2 2334   1.455   3.064   2.637
  779SOL     OW 2335   1.466   2.452   2.854
  779SOL    HW1 2336   1.436   2.357   2.861
  779SOL    HW2 2337   1.539   2.468   2.920
  780SOL     OW 2338   1.857   2.695   2.239
  780SOL    HW1 2339   1.899   2.631   2.303
  780SOL    HW2 2340   1.819   2.644   2.161
  781SOL     OW 2341   0.488   3.247   2.036
  781SOL    HW1 2342   0.401   3.232   2.083
  781SOL    HW2 2343   0.471   3.273   1.941
  782SOL     OW 2344   1.664   3.142   2.519
  782SOL    HW1 2345   1.763   3.150   2.533
  782SOL    HW2 2346   1.619   3.226   2.550
  783SOL     OW 2347   1.390   2.437   1.940
  783SOL    HW1 2348   1.336   2.416   2.021
  783SOL    HW2 2349   1.481   2.396   1.949
  784SOL     OW 2350   0.527   2.118   2.190
  784SOL    HW1 2351   0.554   2.059   2.115
  784SOL    HW2 2352   0.527   2.213   2.159
  785SOL     OW 2353   1.754   3.085   3.450
  785SOL    HW1 2354   1.845   3.046   3.437
  785SOL    HW2 2355   1.762   3.181   3.474
  786SOL     OW 2356   1.064   3.209   3.202
  786SOL    HW1 2357   0.984   3.186   3.257
  786SOL    HW2 2358   1.147   3.183   3.251
  787SOL     OW 2359   1.592   3.491   3.487
  787SOL    HW1 2360   1.619   3.525   3.397
  787SOL    HW2 2361   1.671   3.453   3.533
  788SOL     OW 2362   1.111   3.057   2.962
  788SOL    HW1 2363   1.071   3.101   3.043
  788SOL    HW2 2364   1.070   3.094   2.879
  789SOL     OW 2365   1.638   2.961   2.941
  789SOL    HW1 2366   1.643   3.042   3.000
  789SOL    HW2 2367   1.552   2.963   2.890
  790SOL     OW 2368   0.915   1.951   3.264
  790SOL    HW1 2369   0.940   1.931   3.169
  790SOL    HW2 2370   0.987   2.007   3.306
  791SOL     OW 2371   0.980   2.978   3.581
  791SOL    HW1 2372   0.881   2.984   3.591
  791SOL    HW2 2373   1.003   2.898   3.525
  792SOL     OW 2374   0.705   2.912   2.230
  792SOL    HW1 2375   0.691   2.919   2.329
  792SOL    HW2 2376   0.789   2.861   2.212
  793SOL     OW 2377   0.410   2.675   3.113
  793SOL    HW1 2378   0.496   2.687   3.163
  793SOL    HW2 2379   0.368   2.588   3.140
  794SOL     OW 2380   1.274   2.248   3.124
  794SOL    HW1 2381   1.295   2.322   3.188
  794SOL    HW2 2382   1.185   2.265   3.081
  795SOL     OW 2383   0.064   3.426   3.193
  795SOL    HW1 2384   0.018   3.508   3.159
  795SOL    HW2 2385   0.162   3.445   3.202
  796SOL     OW 2386   0.367   2.962   2.363
  796SOL    HW1 2387   0.360   3.045   2.307
  796SOL    HW2 2388   0.371   2.882   2.303
  797SOL     OW 2389   0.566   2.399   2.727
  797SOL    HW1 2390   0.578   2.465   2.653
  797SOL    HW2 2391   0.612   2.433   2.810
  798SOL     OW 2392   1.252   3.210   2.250
  798SOL    HW1 2393   1.302   3.287   2.290
  798SOL    HW2 2394   1.157   3.212   2.282
  799SOL     OW 2395   1.272   3.307   3.004
  799SOL    HW1 2396   1.319   3.320   3.091
  799SOL    HW2 2397   1.206   3.233   3.013
  800SOL     OW 2398   1.582   2.501   2.334
  800SOL    HW1 2399   1.551   2.562   2.407
  800SOL    HW2 2400   1.632   2.553   2.265
  801SOL     OW 2401   0.354   3.372   3.191
  801SOL    HW1 2402   0.333   3.328   3.104
  801SOL    HW2 2403   0.451   3.398   3.194
  802SOL     OW 2404   0.402   2.613   3.460
  802SOL    HW1 2405   0.470   2.668   3.413
  802SOL    HW2 2406   0.442   2.525   3.487
  803SOL     OW 2407   1.587   2.641   3.532
  803SOL    HW1 2408   1.495   2.679   3.527
  803SOL    HW2 2409   1.647   2.688   3.467
  804SOL     OW 2410   1.013   1.967   3.632
  804SOL    HW1 2411   1.019   2.052   3.580
  804SOL    HW2 2412   1.045   1.891   3.575
  805SOL     OW 2413   0.504   1.912   3.602
  805SOL    HW1 2414   0.462   1.855   3.532
  805SOL    HW2 2415   0.438   1.981   3.634
  806SOL     OW 2416   0.573   2.732   2.891
  806SOL    HW1 2417   0.617   2.821   2.882
  806SOL    HW2 2418   0.510   2.732   2.968
  807SOL     OW 2419   1.360   2.724   2.907
  807SOL    HW1 2420   1.285   2.724   2.841
  807SOL    HW2 2421   1.397   2.632   2.916
  808SOL     OW 2422   1.209   2.387   2.137
  808SOL    HW1 2423   1.222   2.303   2.191
  808SOL    HW2 2424   1.180   2.461   2.197
  809SOL     OW 2425   0.307   2.075   3.093
  809SOL    HW1 2426   0.284   2.112   3.183
  809SOL    HW2 2427   0.277   1.980   3.087
  810SOL     OW 2428   0.037   3.172   3.144
  810SOL    HW1 2429   0.090   3.123   3.212
  810SOL    HW2 2430   0.059   3.270   3.149
  811SOL     OW 2431   0.732   2.496   2.926
  811SOL    HW1 2432   0.791   2.470   2.850
  811SOL    HW2 2433   0.704   2.592   2.915
  812SOL     OW 2434   1.728   2.797   3.716
  812SOL    HW1 2435   1.682   2.790   3.627
  812SOL    HW2 2436   1.666   2.841   3.782
  813SOL     OW 2437   0.307   1.925   2.480
  813SOL    HW1 2438   0.296   2.019   2.513
  813SOL    HW2 2439   0.302   1.862   2.557
  814SOL     OW 2440   1.622   2.229   2.236
  814SOL    HW1 2441   1.624   2.153   2.300
  814SOL    HW2 2442   1.574   2.306   2.276
  815SOL     OW 2443   1.023   2.628   2.828
  815SOL    HW1 2444   1.038   2.649   2.924
  815SOL    HW2 2445   0.993   2.533   2.819
  816SOL     OW 2446   0.980   3.435   3.562
  816SOL    HW1 2447   0.960   3.479   3.474
  816SOL    HW2 2448   1.019   3.344   3.546
  817SOL     OW 2449   1.859   3.380   3.467
  817SOL    HW1 2450   1.873   3.407   3.372
  817SOL    HW2 2451   1.942   3.402   3.520
  818SOL     OW 2452   0.350   2.760   3.666
  818SOL    HW1 2453   0.426   2.804   3.714
  818SOL    HW2 2454   0.385   2.713   3.584
  819SOL     OW 2455   1.540   2.136   1.987
  819SOL    HW1 2456   1.479   2.061   2.010
  819SOL    HW2 2457   1.562   2.188   2.070
  820SOL     OW 2458   1.303   2.700   1.904
  820SOL    HW1 2459   1.337   2.607   1.919
  820SOL    HW2 2460   1.321   2.727   1.809
  821SOL     OW 2461   1.068   3.195   2.711
  821SOL    HW1 2462   1.075   3.111   2.656
  821SOL    HW2 2463   1.130   3.264   2.675
  822SOL     OW 2464   0.319   2.672   2.811
  822SOL    HW1 2465   0.412   2.708   2.816
  822SOL    HW2 2466   0.313   2.587   2.863
  823SOL     OW 2467   0.339   2.371   2.868
  823SOL    HW1 2468   0.287   2.288   2.851
  823SOL    HW2 2469   0.416   2.376   2.804
  824SOL     OW 2470   1.138   2.242   3.540
  824SOL    HW1 2471   1.093   2.305   3.604
  824SOL    HW2 2472   1.231   2.273   3.523
  825SOL     OW 2473   1.160   2.069   3.339
  825SOL    HW1 2474   1.160   2.133   3.416
  825SOL    HW2 2475   1.188   2.117   3.256
  826SOL     OW 2476   0.008   3.188   2.062
  826SOL    HW1 2477  -0.085   3.209   2.031
  826SOL    HW2 2478   0.018   3.089   2.075
  827SOL     OW 2479   0.088   3.663   2.789
  827SOL    HW1 2480   0.046   3.577   2.762
  827SOL    HW2 2481   0.182   3.666   2.755
  828SOL     OW 2482   0.504   3.430   2.772
  828SOL    HW1 2483   0.570   3.504   2.781
  828SOL    HW2 2484   0.548   3.351   2.730
  829SOL     OW 2485   1.002   2.658   3.100
  829SOL    HW1 2486   1.043   2.626   3.186
  829SOL    HW2 2487   0.906   2.631   3.097
  830SOL     OW 2488   0.040   2.406   2.976
  830SOL    HW1 2489   0.125   2.373   2.935
  830SOL    HW2 2490   0.053   2.421   3.074
  831SOL     OW 2491   0.189   2.382   3.584
  831SOL    HW1 2492   0.248   2.342   3.514
  831SOL    HW2 2493   0.131   2.453   3.543
  832SOL     OW 2494   1.369   2.812   3.522
  832SOL    HW1 2495   1.408   2.901   3.542
  832SOL    HW2 2496   1.379   2.792   3.425
  833SOL     OW 2497   0.815   2.434   2.187
  833SOL    HW1 2498   0.822   2.345   2.141
  833SOL    HW2 2499   0.721   2.468   2.179
  834SOL     OW 2500   1.657   2.466   3.068
  834SOL    HW1 2501   1.619   2.397   3.130
  834SOL    HW2 2502   1.739   2.430   3.024
  835SOL     OW 2503   0.252   3.426   3.606
  835SOL    HW1 2504   0.222   3.483   3.682
  835SOL    HW2 2505   0.245   3.329   3.632
  836SOL     OW 2506   0.671   2.326   3.131
  836SOL    HW1 2507   0.637   2.237   3.101
  836SOL    HW2 2508   0.697   2.380   3.051
  837SOL     OW 2509   0.930   3.540   3.327
  837SOL    HW1 2510   0.906   3.522   3.232
  837SOL    HW2 2511   0.960   3.634   3.337
  838SOL     OW 2512   0.473   2.362   2.053
  838SOL    HW1 2513   0.534   2.442   2.057
  838SOL    HW2 2514   0.378   2.393   2.060
  839SOL     OW 2515   0.159   2.999   3.328
  839SOL    HW1 2516   0.181   2.938   3.404
  839SOL    HW2 2517   0.169   2.950   3.242
  840SOL     OW 2518   1.347   2.921   3.096
  840SOL    HW1 2519   1.371   2.858   3.022
  840SOL    HW2 2520   1.257   2.961   3.078
  841SOL     OW 2521   1.302   2.717   2.171
  841SOL    HW1 2522   1.216   2.686   2.213
  841SOL    HW2 2523   1.298   2.703   2.072
  842SOL     OW 2524   1.759   3.609   3.016
  842SOL    HW1 2525   1.820   3.639   2.943
  842SOL    HW2 2526   1.721   3.520   2.994
  843SOL     OW 2527   1.252   3.593   2.990
  843SOL    HW1 2528   1.336   3.598   2.936
  843SOL    HW2 2529   1.229   3.497   3.008
  844SOL     OW 2530   0.083   3.120   2.884
  844SOL    HW1 2531   0.078   3.119   2.984
  844SOL    HW2 2532   0.000   3.079   2.846
  845SOL     OW 2533   0.688   3.524   3.578
  845SOL    HW1 2534   0.632   3.605   3.587
  845SOL    HW2 2535   0.740   3.528   3.492
  846SOL     OW 2536   1.726   1.997   2.385
  846SOL    HW1 2537   1.799   1.980   2.318
  846SOL    HW2 2538   1.695   1.910   2.423
  847SOL     OW 2539   1.388   3.435   2.339
  847SOL    HW1 2540   1.455   3.447   2.265
  847SOL    HW2 2541   1.348   3.524   2.362
  848SOL     OW 2542   0.130   3.656   3.713
  848SOL    HW1 2543   0.089   3.582   3.766
  848SOL    HW2 2544   0.194   3.707   3.771
  849SOL     OW 2545   1.280   2.789   2.534
  849SOL    HW1 2546   1.340   2.708   2.536
  849SOL    HW2 2547   1.320   2.858   2.474
  850SOL     OW 2548   0.830   3.135   3.284
  850SOL    HW1 2549   0.825   3.168   3.379
  850SOL    HW2 2550   0.744   3.154   3.238
  851SOL     OW 2551   0.672   3.478   2.016
  851SOL    HW1 2552   0.681   3.488   1.917
  851SOL    HW2 2553   0.632   3.389   2.037
  852SOL     OW 2554   1.650   3.582   3.256
  852SOL    HW1 2555   1.703   3.592   3.172
  852SOL    HW2 2556   1.623   3.672   3.290
  853SOL     OW 2557   1.841   2.037   2.825
  853SOL    HW1 2558   1.880   1.952   2.789
  853SOL    HW2 2559   1.743   2.039   2.806
  854SOL     OW 2560   0.263   2.188   2.582
  854SOL    HW1 2561   0.184   2.239   2.548
  854SOL    HW2 2562   0.254   2.173   2.680
  855SOL     OW 2563   1.194   3.474   1.893
  855SOL    HW1 2564   1.200   3.381   1.930
  855SOL    HW2 2565   1.135   3.474   1.813
  856SOL     OW 2566   0.822   2.864   3.234
  856SOL    HW1 2567   0.862   2.863   3.142
  856SOL    HW2 2568   0.832   2.956   3.274
  857SOL     OW 2569   0.916   2.772   2.153
  857SOL    HW1 2570   0.979   2.810   2.085
  857SOL    HW2 2571   0.956   2.689   2.192
  858SOL     OW 2572   1.504   3.469   1.906
  858SOL    HW1 2573   1.412   3.506   1.913
  858SOL    HW2 2574   1.542   3.489   1.816
  859SOL     OW 2575   0.372   3.150   3.352
  859SOL    HW1 2576   0.359   3.243   3.318
  859SOL    HW2 2577   0.288   3.098   3.339
  860SOL     OW 2578   1.614   3.154   3.151
  860SOL    HW1 2579   1.674   3.157   3.231
  860SOL    HW2 2580   1.539   3.218   3.164
  861SOL     OW 2581   1.039   2.960   2.558
  861SOL    HW1 2582   0.969   2.913   2.612
  861SOL    HW2 2583   1.098   2.892   2.515
  862SOL     OW 2584   1.014   2.098   2.833
  862SOL    HW1 2585   1.006   2.062   2.740
  862SOL    HW2 2586   1.012   2.022   2.898
  863SOL     OW 2587   0.590   3.349   2.353
  863SOL    HW1 2588   0.632   3.291   2.283
  863SOL    HW2 2589   0.546   3.428   2.309
  864SOL     OW 2590   1.709   2.247   3.243
  864SOL    HW1 2591   1.782   2.316   3.247
  864SOL    HW2 2592   1.737   2.172   3.184
  865SOL     OW 2593   0.255   3.210   2.152
  865SOL    HW1 2594   0.159   3.211   2.125
  865SOL    HW2 2595   0.267   3.263   2.236
  866SOL     OW 2596   0.105   2.875   3.588
  866SOL    HW1 2597   0.028   2.842   3.642
  866SOL    HW2 2598   0.190   2.845   3.630
  867SOL     OW 2599   0.672   2.065   3.351
  867SOL    HW1 2600   0.762   2.049   3.311
  867SOL    HW2 2601   0.680   2.070   3.450
  868SOL     OW 2602   0.075   2.207   1.895
  868SOL    HW1 2603  -0.017   2.179   1.866
  868SOL    HW2 2604   0.106   2.284   1.839
  869SOL     OW 2605   1.440   2.718   3.260
  869SOL    HW1 2606   1.383   2.770   3.197
  869SOL    HW2 2607   1.536   2.730   3.236
  870SOL     OW 2608   0.072   2.028   2.180
  870SOL    HW1 2609   0.055   2.111   2.126
  870SOL    HW2 2610   0.162   1.991   2.158
  871SOL     OW 2611   1.183   3.197   1.981
  871SOL    HW1 2612   1.084   3.186   1.983
  871SOL    HW2 2613   1.217   3.212   2.074
  872SOL     OW 2614   0.613   2.704   3.293
  872SOL    HW1 2615   0.669   2.785   3.276
  872SOL    HW2 2616   0.672   2.624   3.296
  873SOL     OW 2617   1.493   3.629   2.821
  873SOL    HW1 2618   1.526   3.693   2.752
  873SOL    HW2 2619   1.559   3.623   2.896
  874SOL     OW 2620   0.716   2.427   3.570
  874SOL    HW1 2621   0.735   2.492   3.644
  874SOL    HW2 2622   0.776   2.347   3.579
  875SOL     OW 2623   1.450   3.082   3.495
  875SOL    HW1 2624   1.441   3.072   3.594
  875SOL    HW2 2625   1.546   3.075   3.469
  876SOL     OW 2626   0.390   3.603   3.422
  876SOL    HW1 2627   0.299   3.644   3.420
  876SOL    HW2 2628   0.383   3.509   3.454
  877SOL     OW 2629   1.674   2.745   3.116
  877SOL    HW1 2630   1.647   2.656   3.079
  877SOL    HW2 2631   1.675   2.813   3.043
  878SOL     OW 2632   1.225   2.187   2.311
  878SOL    HW1 2633   1.290   2.113   2.300
  878SOL    HW2 2634   1.245   2.237   2.395
  879SOL     OW 2635   0.594   2.607   2.514
  879SOL    HW1 2636   0.644   2.692   2.495
  879SOL    HW2 2637   0.506   2.609   2.466
  880SOL     OW 2638   1.777   2.204   3.504
  880SOL    HW1 2639   1.760   2.235   3.410
  880SOL    HW2 2640   1.693   2.167   3.542
  881SOL     OW 2641   1.730   2.796   3.379
  881SOL    HW1 2642   1.768   2.887   3.394
  881SOL    HW2 2643   1.722   2.779   3.280
  882SOL     OW 2644   0.859   3.236   1.878
  882SOL    HW1 2645   0.813   3.251   1.966
  882SOL    HW2 2646   0.903   3.321   1.848
  883SOL     OW 2647   0.661   3.652   2.815
  883SOL    HW1 2648   0.615   3.740   2.802
  883SOL    HW2 2649   0.760   3.664   2.808
  884SOL     OW 2650   0.859   2.818   2.723
  884SOL    HW1 2651   0.913   2.749   2.771
  884SOL    HW2 2652   0.827   2.887   2.789
  885SOL     OW 2653   1.083   2.846   1.949
  885SOL    HW1 2654   1.060   2.899   1.867
  885SOL    HW2 2655   1.164   2.790   1.930
  886SOL     OW 2656   1.861   3.431   2.713
  886SOL    HW1 2657   1.790   3.419   2.643
  886SOL    HW2 2658   1.862   3.352   2.773
  887SOL     OW 2659   0.221   3.176   3.706
  887SOL    HW1 2660   0.156   3.103   3.685
  887SOL    HW2 2661   0.225   3.190   3.804
  888SOL     OW 2662   0.079   3.102   2.515
  888SOL    HW1 2663   0.078   3.055   2.603
  888SOL    HW2 2664   0.161   3.074   2.464
  889SOL     OW 2665   0.672   3.253   3.486
  889SOL    HW1 2666   0.594   3.203   3.524
  889SOL    HW2 2667   0.669   3.348   3.517
  890SOL     OW 2668   1.824   2.054   3.089
  890SOL    HW1 2669   1.820   1.964   3.133
  890SOL    HW2 2670   1.827   2.043   2.990
  891SOL     OW 2671   0.428   2.286   2.382
  891SOL    HW1 2672   0.458   2.214   2.320
  891SOL    HW2 2673   0.389   2.246   2.465
  892SOL     OW 2674   1.705   3.349   2.966
  892SOL    HW1 2675   1.612   3.324   2.939
  892SOL    HW2 2676   1.731   3.299   3.048
  893SOL     OW 2677   0.317   2.409   3.142
  893SOL    HW1 2678   0.355   2.350   3.214
  893SOL    HW2 2679   0.357   2.383   3.054
  894SOL     OW 2680   0.812   3.448   2.549
  894SOL    HW1 2681   0.844   3.458   2.455
  894SOL    HW2 2682   0.733   3.386   2.551
  895SOL     OW 2683   1.424   2.076   2.974
  895SOL    HW1 2684   1.476   2.011   3.029
  895SOL    HW2 2685   1.375   2.139   3.035
  896SOL     OW 2686   1.001   1.896   3.016
  896SOL    HW1 2687   0.938   1.824   2.985
  896SOL    HW2 2688   1.094   1.860   3.016
  897SOL     OW 2689   0.770   3.192   2.163
  897SOL    HW1 2690   0.724   3.105   2.180
  897SOL    HW2 2691   0.861   3.189   2.204
  898SOL     OW 2692   0.618   3.429   3.146
  898SOL    HW1 2693   0.613   3.511   3.203
  898SOL    HW2 2694   0.707   3.426   3.101
  899SOL     OW 2695   1.352   1.914   2.030
  899SOL    HW1 2696   1.387   1.873   1.946
  899SOL    HW2 2697   1.262   1.876   2.050
  900SOL     OW 2698   1.300   2.315   2.553
  900SOL    HW1 2699   1.241   2.395   2.557
  900SOL    HW2 2700   1.315   2.280   2.646
  901SOL     OW 2701   1.593   2.083   2.744
  901SOL    HW1 2702   1.509   2.082   2.798
  901SOL    HW2 2703   1.595   2.166   2.688
  902SOL     OW 2704   0.039   2.939   2.162
  902SOL    HW1 2705   0.138   2.928   2.153
  902SOL    HW2 2706  -0.001   2.853   2.194
  903SOL     OW 2707   0.875   3.508   2.199
  903SOL    HW1 2708   0.798   3.473   2.145
  903SOL    HW2 2709   0.843   3.579   2.261
  904SOL     OW 2710   0.230   2.490   3.837
  904SOL    HW1 2711   0.137   2.488   3.874
  904SOL    HW2 2712   0.231   2.451   3.745
  905SOL     OW 2713   1.755   2.469   3.955
  905SOL    HW1 2714   1.743   2.456   3.856
  905SOL    HW2 2715   1.725   2.388   4.004
  906SOL     OW 2716   0.231   3.575   4.207
  906SOL    HW1 2717   0.265   3.652   4.261
  906SOL    HW2 2718   0.275   3.575   4.117
  907SOL     OW 2719   0.230   3.296   4.262
  907SOL    HW1 2720   0.204   3.392   4.262
  907SOL    HW2 2721   0.159   3.242   4.307
  908SOL     OW 2722   0.606   2.826   3.847
  908SOL    HW1 2723   0.613   2.910   3.793
  908SOL    HW2 2724   0.652   2.839   3.935
  909SOL     OW 2725   1.842   3.629   4.083
  909SOL    HW1 2726   1.896   3.600   4.163
  909SOL    HW2 2727   1.872   3.719   4.054
  910SOL     OW 2728   0.027   3.458   3.841
  910SOL    HW1 2729   0.008   3.362   3.862
  910SOL    HW2 2730  -0.006   3.516   3.916
  911SOL     OW 2731   1.689   2.784   4.336
  911SOL    HW1 2732   1.784   2.755   4.344
  911SOL    HW2 2733   1.681   2.849   4.261
  912SOL     OW 2734   1.641   2.970   4.156
  912SOL    HW1 2735   1.727   2.972   4.104
  912SOL    HW2 2736   1.655   3.017   4.244
  913SOL     OW 2737   1.525   2.861   3.914
  913SOL    HW1 2738   1.462   2.785   3.927
  913SOL    HW2 2739   1.573   2.879   4.000
  914SOL     OW 2740   0.598   2.591   3.994
  914SOL    HW1 2741   0.622   2.660   3.926
  914SOL    HW2 2742   0.520   2.624   4.048
  915SOL     OW 2743   0.865   2.210   3.919
  915SOL    HW1 2744   0.924   2.273   3.870
  915SOL    HW2 2745   0.884   2.116   3.890
  916SOL     OW 2746   0.321   2.805   3.966
  916SOL    HW1 2747   0.403   2.844   3.924
  916SOL    HW2 2748   0.294   2.723   3.917
  917SOL     OW 2749   1.458   2.597   4.452
  917SOL    HW1 2750   1.453   2.532   4.527
  917SOL    HW2 2751   1.538   2.656   4.465
  918SOL     OW 2752   1.111   3.638   3.961
  918SOL    HW1 2753   1.051   3.576   4.011
  918SOL    HW2 2754   1.142   3.594   3.876
  919SOL     OW 2755   1.632   3.239   3.805
  919SOL    HW1 2756   1.600   3.333   3.795
  919SOL    HW2 2757   1.556   3.176   3.793
  920SOL     OW 2758   0.464   3.605   4.047
  920SOL    HW1 2759   0.497   3.644   4.133
  920SOL    HW2 2760   0.540   3.598   3.982
  921SOL     OW 2761   1.400   1.969   4.150
  921SOL    HW1 2762   1.376   1.932   4.060
  921SOL    HW2 2763   1.499   1.985   4.154
  922SOL     OW 2764   0.614   1.984   3.841
  922SOL    HW1 2765   0.712   1.962   3.848
  922SOL    HW2 2766   0.583   1.967   3.748
  923SOL     OW 2767   1.434   3.050   3.765
  923SOL    HW1 2768   1.466   2.974   3.822
  923SOL    HW2 2769   1.342   3.077   3.795
  924SOL     OW 2770   0.297   1.897   3.895
  924SOL    HW1 2771   0.346   1.981   3.874
  924SOL    HW2 2772   0.359   1.832   3.940
  925SOL     OW 2773   0.935   2.098   4.204
  925SOL    HW1 2774   0.887   2.139   4.126
  925SOL    HW2 2775   1.034   2.096   4.185
  926SOL     OW 2776   1.032   2.411   3.740
  926SOL    HW1 2777   0.991   2.493   3.701
  926SOL    HW2 2778   1.096   2.437   3.813
  927SOL     OW 2779   1.857   2.695   4.101
  927SOL    HW1 2780   1.899   2.631   4.165
  927SOL    HW2 2781   1.819   2.644   4.023
  928SOL     OW 2782   0.488   3.247   3.898
  928SOL    HW1 2783   0.401   3.232   3.945
  928SOL    HW2 2784   0.471   3.273   3.803
  929SOL     OW 2785   1.390   2.437   3.802
  929SOL    HW1 2786   1.336   2.416   3.883
  929SOL    HW2 2787   1.481   2.396   3.811
  930SOL     OW 2788   0.527   2.118   4.052
  930SOL    HW1 2789   0.554   2.059   3.977
  930SOL    HW2 2790   0.527   2.213   4.021
  931SOL     OW 2791   0.367   2.962   4.225
  931SOL    HW1 2792   0.360   3.045   4.169
  931SOL    HW2 2793   0.371   2.882   4.165
  932SOL     OW 2794   1.252   3.210   4.112
  932SOL    HW1 2795   1.302   3.287   4.152
  932SOL    HW2 2796   1.157   3.212   4.144
  933SOL     OW 2797   1.582   2.501   4.196
  933SOL    HW1 2798   1.551   2.562   4.269
  933SOL    HW2 2799   1.632   2.553   4.127
  934SOL     OW 2800   1.209   2.387   3.999
  934SOL    HW1 2801   1.222   2.303   4.053
  934SOL    HW2 2802   1.180   2.461   4.059
  935SOL     OW 2803   0.307   1.925   4.342
  935SOL    HW1 2804   0.296   2.019   4.375
  935SOL    HW2 2805   0.302   1.862   4.419
  936SOL     OW 2806   1.622   2.229   4.098
  936SOL    HW1 2807   1.624   2.153   4.162
  936SOL    HW2 2808   1.574   2.306   4.138
  937SOL     OW 2809   1.540   2.136   3.849
  937SOL    HW1 2810   1.479   2.061   3.872
  937SOL    HW2 2811   1.562   2.188   3.932
  938SOL     OW 2812   1.303   2.700   3.766
  938SOL    HW1 2813   1.337   2.607   3.781
  938SOL    HW2 2814   1.321   2.727   3.671
  939SOL     OW 2815   0.008   3.188   3.924
  939SOL    HW1 2816  -0.085   3.209   3.893
  939SOL    HW2 2817   0.018   3.089   3.937
  940SOL     OW 2818   0.815   2.434   4.049
  940SOL    HW1 2819   0.822   2.345   4.003
  940SOL    HW2 2820   0.721   2.468   4.041
  941SOL     OW 2821   0.473   2.362   3.915
  941SOL    HW1 2822   0.534   2.442   3.919
  941SOL    HW2 2823   0.378   2.393   3.922
  942SOL     OW 2824   1.726   1.997   4.247
  942SOL    HW1 2825   1.799   1.980   4.180
  942SOL    HW2 2826   1.695   1.910   4.285
  943SOL     OW 2827   0.672   3.478   3.878
  943SOL    HW1 2828   0.681   3.488   3.779
  943SOL    HW2 2829   0.632   3.389   3.899
  944SOL     OW 2830   0.263   2.188   4.444
  944SOL    HW1 2831   0.184   2.239   4.410
  944SOL    HW2 2832   0.254   2.173   4.542
  945SOL     OW 2833   1.194   3.474   3.755
  945SOL    HW1 2834   1.200   3.381   3.792
  945SOL    HW2 2835   1.135   3.474   3.675
  946SOL     OW 2836   0.916   2.772   4.015
  946SOL    HW1 2837   0.979   2.810   3.947
  946SOL    HW2 2838   0.956   2.689   4.054
  947SOL     OW 2839   1.504   3.469   3.768
  947SOL    HW1 2840   1.412   3.506   3.775
  947SOL    HW2 2841   1.542   3.489   3.678
  948SOL     OW 2842   0.255   3.210   4.014
  948SOL    HW1 2843   0.159   3.211   3.987
  948SOL    HW2 2844   0.267   3.263   4.098
  949SOL     OW 2845   0.075   2.207   3.757
  949SOL    HW1 2846  -0.017   2.179   3.728
  949SOL    HW2 2847   0.106   2.284   3.701
  950SOL     OW 2848   0.072   2.028   4.042
  950SOL    HW1 2849   0.055   2.111   3.988
  950SOL    HW2 2850   0.162   1.991   4.020
  951SOL     OW 2851   1.183   3.197   3.843
  951SOL    HW1 2852   1.084   3.186   3.845
  951SOL    HW2 2853   1.217   3.212   3.936
  952SOL     OW 2854   1.225   2.187   4.173
  952SOL    HW1 2855   1.290   2.113   4.162
  952SOL    HW2 2856   1.245   2.237   4.257
  953SOL     OW 2857   0.859   3.236   3.740
  953SOL    HW1 2858   0.813   3.251   3.828
  953SOL    HW2 2859   0.903   3.321   3.710
  954SOL     OW 2860   1.083   2.846   3.811
  954SOL    HW1 2861   1.060   2.899   3.729
  954SOL    HW2 2862   1.164   2.790   3.792
  955SOL     OW 2863   1.352   1.914   3.892
  955SOL    HW1 2864   1.387   1.873   3.808
  955SOL    HW2 2865   1.262   1.876   3.912
  956SOL     OW 2866   0.039   2.939   4.024
  956SOL    HW1 2867   0.138   2.928   4.015
  956SOL    HW2 2868  -0.001   2.853   4.056
  957SOL     OW 2869   0.875   3.508   4.061
  957SOL    HW1 2870   0.798   3.473   4.007
  957SOL    HW2 2871   0.843   3.579   4.123
  958SOL     OW 2872   0.225   3.999   0.996
  958SOL    HW1 2873   0.260   3.982   1.088
  958SOL    HW2 2874   0.137   3.954   0.984
  959SOL     OW 2875   0.019   4.092   0.647
  959SOL    HW1 2876  -0.063   4.135   0.686
  959SOL    HW2 2877  -0.009   4.019   0.584
  960SOL     OW 2878   0.438   4.116   1.499
  960SOL    HW1 2879   0.520   4.060   1.508
  960SOL    HW2 2880   0.357   4.058   1.503
  961SOL     OW 2881   1.603   4.171   0.737
  961SOL    HW1 2882   1.529   4.217   0.687
  961SOL    HW2 2883   1.654   4.239   0.790
  962SOL     OW 2884   1.594   3.838   1.480
  962SOL    HW1 2885   1.576   3.905   1.408
  962SOL    HW2 2886   1.591   3.884   1.569
  963SOL     OW 2887   0.122   4.367   0.563
  963SOL    HW1 2888   0.077   4.279   0.580
  963SOL    HW2 2889   0.121   4.421   0.647
  964SOL     OW 2890   0.809   3.728   0.502
  964SOL    HW1 2891   0.849   3.819   0.493
  964SOL    HW2 2892   0.709   3.736   0.508
  965SOL     OW 2893   0.317   3.975   1.801
  965SOL    HW1 2894   0.388   4.046   1.807
  965SOL    HW2 2895   0.229   4.014   1.829
  966SOL     OW 2896   1.281   4.069   0.944
  966SOL    HW1 2897   1.195   4.019   0.931
  966SOL    HW2 2898   1.343   4.015   1.000
  967SOL     OW 2899   1.394   4.193   1.674
  967SOL    HW1 2900   1.374   4.236   1.762
  967SOL    HW2 2901   1.472   4.131   1.683
  968SOL     OW 2902   1.719   4.309   1.831
  968SOL    HW1 2903   1.693   4.398   1.795
  968SOL    HW2 2904   1.717   4.241   1.758
  969SOL     OW 2905   0.550   3.920   0.885
  969SOL    HW1 2906   0.545   3.915   0.985
  969SOL    HW2 2907   0.552   4.016   0.856
  970SOL     OW 2908   0.202   4.009   1.498
  970SOL    HW1 2909   0.122   4.069   1.485
  970SOL    HW2 2910   0.192   3.960   1.584
  971SOL     OW 2911   1.400   3.831   0.426
  971SOL    HW1 2912   1.376   3.794   0.336
  971SOL    HW2 2913   1.499   3.847   0.430
  972SOL     OW 2914   1.547   3.946   1.729
  972SOL    HW1 2915   1.542   3.983   1.821
  972SOL    HW2 2916   1.475   3.877   1.717
  973SOL     OW 2917   0.614   3.846   0.117
  973SOL    HW1 2918   0.712   3.824   0.124
  973SOL    HW2 2919   0.583   3.829   0.024
  974SOL     OW 2920   0.781   3.988   1.749
  974SOL    HW1 2921   0.848   3.927   1.792
  974SOL    HW2 2922   0.708   4.007   1.814
  975SOL     OW 2923   1.351   4.314   1.433
  975SOL    HW1 2924   1.379   4.271   1.518
  975SOL    HW2 2925   1.376   4.410   1.434
  976SOL     OW 2926   0.539   3.788   0.512
  976SOL    HW1 2927   0.458   3.789   0.570
  976SOL    HW2 2928   0.542   3.871   0.457
  977SOL     OW 2929   0.935   3.960   0.480
  977SOL    HW1 2930   0.887   4.001   0.402
  977SOL    HW2 2931   1.034   3.958   0.461
  978SOL     OW 2932   0.078   4.280   1.386
  978SOL    HW1 2933   0.170   4.279   1.345
  978SOL    HW2 2934   0.072   4.354   1.453
  979SOL     OW 2935   0.561   3.946   1.147
  979SOL    HW1 2936   0.599   3.862   1.184
  979SOL    HW2 2937   0.473   3.965   1.191
  980SOL     OW 2938   1.017   3.763   0.753
  980SOL    HW1 2939   0.945   3.768   0.684
  980SOL    HW2 2940   0.993   3.694   0.822
  981SOL     OW 2941   0.527   3.980   0.328
  981SOL    HW1 2942   0.554   3.921   0.253
  981SOL    HW2 2943   0.527   4.075   0.297
  982SOL     OW 2944   0.915   3.813   1.402
  982SOL    HW1 2945   0.940   3.793   1.307
  982SOL    HW2 2946   0.987   3.869   1.444
  983SOL     OW 2947   1.013   3.829   1.770
  983SOL    HW1 2948   1.019   3.914   1.718
  983SOL    HW2 2949   1.045   3.753   1.713
  984SOL     OW 2950   0.504   3.774   1.740
  984SOL    HW1 2951   0.462   3.717   1.670
  984SOL    HW2 2952   0.438   3.843   1.772
  985SOL     OW 2953   0.307   3.937   1.231
  985SOL    HW1 2954   0.284   3.974   1.321
  985SOL    HW2 2955   0.277   3.842   1.225
  986SOL     OW 2956   0.732   4.358   1.064
  986SOL    HW1 2957   0.791   4.332   0.988
  986SOL    HW2 2958   0.704   4.454   1.053
  987SOL     OW 2959   0.307   3.787   0.618
  987SOL    HW1 2960   0.296   3.881   0.651
  987SOL    HW2 2961   0.302   3.724   0.695
  988SOL     OW 2962   1.622   4.091   0.374
  988SOL    HW1 2963   1.624   4.015   0.438
  988SOL    HW2 2964   1.574   4.168   0.414
  989SOL     OW 2965   1.540   3.998   0.125
  989SOL    HW1 2966   1.479   3.923   0.148
  989SOL    HW2 2967   1.562   4.050   0.208
  990SOL     OW 2968   0.339   4.233   1.006
  990SOL    HW1 2969   0.287   4.150   0.989
  990SOL    HW2 2970   0.416   4.238   0.942
  991SOL     OW 2971   1.160   3.931   1.477
  991SOL    HW1 2972   1.160   3.995   1.554
  991SOL    HW2 2973   1.188   3.979   1.394
  992SOL     OW 2974   0.040   4.268   1.114
  992SOL    HW1 2975   0.125   4.235   1.073
  992SOL    HW2 2976   0.053   4.283   1.212
  993SOL     OW 2977   0.189   4.244   1.722
  993SOL    HW1 2978   0.248   4.204   1.652
  993SOL    HW2 2979   0.131   4.315   1.681
  994SOL     OW 2980   0.815   4.296   0.325
  994SOL    HW1 2981   0.822   4.207   0.279
  994SOL    HW2 2982   0.721   4.330   0.317
  995SOL     OW 2983   0.903   3.810   0.133
  995SOL    HW1 2984   0.954   3.811   0.047
  995SOL    HW2 2985   0.959   3.768   0.204
  996SOL     OW 2986   1.726   3.859   0.523
  996SOL    HW1 2987   1.799   3.842   0.456
  996SOL    HW2 2988   1.695   3.772   0.561
  997SOL     OW 2989   1.841   3.899   0.963
  997SOL    HW1 2990   1.880   3.814   0.927
  997SOL    HW2 2991   1.743   3.901   0.944
  998SOL     OW 2992   1.014   3.960   0.971
  998SOL    HW1 2993   1.006   3.924   0.878
  998SOL    HW2 2994   1.012   3.884   1.036
  999SOL     OW 2995   1.709   4.109   1.381
  999SOL    HW1 2996   1.782   4.178   1.385
  999SOL    HW2 2997   1.737   4.034   1.322
 1000SOL     OW 2998   0.672   3.927   1.489
 1000SOL    HW1 2999   0.762   3.911   1.449
 1000SOL    HW2 3000   0.680   3.932   1.588
 1001SOL     OW 3001   0.075   4.069   0.033
 1001SOL    HW1 3002  -0.017   4.041   0.004
 1001SOL    HW2 3003   0.106   4.146  -0.023
 1002SOL     OW 3004   0.072   3.890   0.318
 1002SOL    HW1 3005   0.055   3.973   0.264
 1002SOL    HW2 3006   0.162   3.853   0.296
 1003SOL     OW 3007   1.225   4.049   0.449
 1003SOL    HW1 3008   1.290   3.975   0.438
 1003SOL    HW2 3009   1.245   4.099   0.533
 1004SOL     OW 3010   1.777   4.066   1.642
 1004SOL    HW1 3011   1.760   4.097   1.548
 1004SOL    HW2 3012   1.693   4.029   1.680
 1005SOL     OW 3013   1.824   3.916   1.227
 1005SOL    HW1 3014   1.820   3.826   1.271
 1005SOL    HW2 3015   1.827   3.905   1.128
 1006SOL     OW 3016   1.424   3.938   1.112
 1006SOL    HW1 3017   1.476   3.873   1.167
 1006SOL    HW2 3018   1.375   4.001   1.173
 1007SOL     OW 3019   1.001   3.758   1.154
 1007SOL    HW1 3020   0.938   3.686   1.123
 1007SOL    HW2 3021   1.094   3.722   1.154
 1008SOL     OW 3022   1.352   3.776   0.168
 1008SOL    HW1 3023   1.387   3.735   0.084
 1008SOL    HW2 3024   1.262   3.738   0.188
 1009SOL     OW 3025   1.300   4.177   0.691
 1009SOL    HW1 3026   1.241   4.257   0.695
 1009SOL    HW2 3027   1.315   4.142   0.784
 1010SOL     OW 3028   1.593   3.945   0.882
 1010SOL    HW1 3029   1.509   3.944   0.936
 1010SOL    HW2 3030   1.595   4.028   0.826
 1011SOL     OW 3031   0.225   3.999   2.858
 1011SOL    HW1 3032   0.260   3.982   2.950
 1011SOL    HW2 3033   0.137   3.954   2.846
 1012SOL     OW 3034   0.019   4.092   2.509
 1012SOL    HW1 3035  -0.063   4.135   2.548
 1012SOL    HW2 3036  -0.009   4.019   2.446
 1013SOL     OW 3037   1.755   4.331   2.093
 1013SOL    HW1 3038   1.743   4.318   1.994
 1013SOL    HW2 3039   1.725   4.250   2.142
 1014SOL     OW 3040   0.438   4.116   3.361
 1014SOL    HW1 3041   0.520   4.060   3.370
 1014SOL    HW2 3042   0.357   4.058   3.365
 1015SOL     OW 3043   1.603   4.171   2.599
 1015SOL    HW1 3044   1.529   4.217   2.549
 1015SOL    HW2 3045   1.654   4.239   2.652
 1016SOL     OW 3046   1.594   3.838   3.342
 1016SOL    HW1 3047   1.576   3.905   3.270
 1016SOL    HW2 3048   1.591   3.884   3.431
 1017SOL     OW 3049   0.122   4.367   2.425
 1017SOL    HW1 3050   0.077   4.279   2.442
 1017SOL    HW2 3051   0.121   4.421   2.509
 1018SOL     OW 3052   0.809   3.728   2.364
 1018SOL    HW1 3053   0.849   3.819   2.355
 1018SOL    HW2 3054   0.709   3.736   2.370
 1019SOL     OW 3055   0.317   3.975   3.663
 1019SOL    HW1 3056   0.388   4.046   3.669
 1019SOL    HW2 3057   0.229   4.014   3.691
 1020SOL     OW 3058   1.281   4.069   2.806
 1020SOL    HW1 3059   1.195   4.019   2.793
 1020SOL    HW2 3060   1.343   4.015   2.862
 1021SOL     OW 3061   1.394   4.193   3.536
 1021SOL    HW1 3062   1.374   4.236   3.624
 1021SOL    HW2 3063   1.472   4.131   3.545
 1022SOL     OW 3064   0.865   4.072   2.057
 1022SOL    HW1 3065   0.924   4.135   2.008
 1022SOL    HW2 3066   0.884   3.978   2.028
 1023SOL     OW 3067   1.719   4.309   3.693
 1023SOL    HW1 3068   1.693   4.398   3.657
 1023SOL    HW2 3069   1.717   4.241   3.620
 1024SOL     OW 3070   0.550   3.920   2.747
 1024SOL    HW1 3071   0.545   3.915   2.847
 1024SOL    HW2 3072   0.552   4.016   2.718
 1025SOL     OW 3073   0.202   4.009   3.360
 1025SOL    HW1 3074   0.122   4.069   3.347
 1025SOL    HW2 3075   0.192   3.960   3.446
 1026SOL     OW 3076   1.400   3.831   2.288
 1026SOL    HW1 3077   1.376   3.794   2.198
 1026SOL    HW2 3078   1.499   3.847   2.292
 1027SOL     OW 3079   1.547   3.946   3.591
 1027SOL    HW1 3080   1.542   3.983   3.683
 1027SOL    HW2 3081   1.475   3.877   3.579
 1028SOL     OW 3082   0.614   3.846   1.979
 1028SOL    HW1 3083   0.712   3.824   1.986
 1028SOL    HW2 3084   0.583   3.829   1.886
 1029SOL     OW 3085   0.781   3.988   3.611
 1029SOL    HW1 3086   0.848   3.927   3.654
 1029SOL    HW2 3087   0.708   4.007   3.676
 1030SOL     OW 3088   1.351   4.314   3.295
 1030SOL    HW1 3089   1.379   4.271   3.380
 1030SOL    HW2 3090   1.376   4.410   3.296
 1031SOL     OW 3091   0.539   3.788   2.374
 1031SOL    HW1 3092   0.458   3.789   2.432
 1031SOL    HW2 3093   0.542   3.871   2.319
 1032SOL     OW 3094   0.297   3.759   2.033
 1032SOL    HW1 3095   0.346   3.843   2.012
 1032SOL    HW2 3096   0.359   3.694   2.078
 1033SOL     OW 3097   0.935   3.960   2.342
 1033SOL    HW1 3098   0.887   4.001   2.264
 1033SOL    HW2 3099   1.034   3.958   2.323
 1034SOL     OW 3100   0.078   4.280   3.248
 1034SOL    HW1 3101   0.170   4.279   3.207
 1034SOL    HW2 3102   0.072   4.354   3.315
 1035SOL     OW 3103   0.561   3.946   3.009
 1035SOL    HW1 3104   0.599   3.862   3.046
 1035SOL    HW2 3105   0.473   3.965   3.053
 1036SOL     OW 3106   1.017   3.763   2.615
 1036SOL    HW1 3107   0.945   3.768   2.546
 1036SOL    HW2 3108   0.993   3.694   2.684
 1037SOL     OW 3109   0.527   3.980   2.190
 1037SOL    HW1 3110   0.554   3.921   2.115
 1037SOL    HW2 3111   0.527   4.075   2.159
 1038SOL     OW 3112   0.915   3.813   3.264
 1038SOL    HW1 3113   0.940   3.793   3.169
 1038SOL    HW2 3114   0.987   3.869   3.306
 1039SOL     OW 3115   1.013   3.829   3.632
 1039SOL    HW1 3116   1.019   3.914   3.580
 1039SOL    HW2 3117   1.045   3.753   3.575
 1040SOL     OW 3118   0.504   3.774   3.602
 1040SOL    HW1 3119   0.462   3.717   3.532
 1040SOL    HW2 3120   0.438   3.843   3.634
 1041SOL     OW 3121   0.307   3.937   3.093
 1041SOL    HW1 3122   0.284   3.974   3.183
 1041SOL    HW2 3123   0.277   3.842   3.087
 1042SOL     OW 3124   0.732   4.358   2.926
 1042SOL    HW1 3125   0.791   4.332   2.850
 1042SOL    HW2 3126   0.704   4.454   2.915
 1043SOL     OW 3127   0.307   3.787   2.480
 1043SOL    HW1 3128   0.296   3.881   2.513
 1043SOL    HW2 3129   0.302   3.724   2.557
 1044SOL     OW 3130   1.622   4.091   2.236
 1044SOL    HW1 3131   1.624   4.015   2.300
 1044SOL    HW2 3132   1.574   4.168   2.276
 1045SOL     OW 3133   1.540   3.998   1.987
 1045SOL    HW1 3134   1.479   3.923   2.010
 1045SOL    HW2 3135   1.562   4.050   2.070
 1046SOL     OW 3136   0.339   4.233   2.868
 1046SOL    HW1 3137   0.287   4.150   2.851
 1046SOL    HW2 3138   0.416   4.238   2.804
 1047SOL     OW 3139   1.160   3.931   3.339
 1047SOL    HW1 3140   1.160   3.995   3.416
 1047SOL    HW2 3141   1.188   3.979   3.256
 1048SOL     OW 3142   0.040   4.268   2.976
 1048SOL    HW1 3143   0.125   4.235   2.935
 1048SOL    HW2 3144   0.053   4.283   3.074
 1049SOL     OW 3145   0.189   4.244   3.584
 1049SOL    HW1 3146   0.248   4.204   3.514
 1049SOL    HW2 3147   0.131   4.315   3.543
 1050SOL     OW 3148   0.815   4.296   2.187
 1050SOL    HW1 3149   0.822   4.207   2.141
 1050SOL    HW2 3150   0.721   4.330   2.179
 1051SOL     OW 3151   1.726   3.859   2.385
 1051SOL    HW1 3152   1.799   3.842   2.318
 1051SOL    HW2 3153   1.695   3.772   2.423
 1052SOL     OW 3154   1.841   3.899   2.825
 1052SOL    HW1 3155   1.880   3.814   2.789
 1052SOL    HW2 3156   1.743   3.901   2.806
 1053SOL     OW 3157   1.014   3.960   2.833
 1053SOL    HW1 3158   1.006   3.924   2.740
 1053SOL    HW2 3159   1.012   3.884   2.898
 1054SOL     OW 3160   1.709   4.109   3.243
 1054SOL    HW1 3161   1.782   4.178   3.247
 1054SOL    HW2 3162   1.737   4.034   3.184
 1055SOL     OW 3163   0.672   3.927   3.351
 1055SOL    HW1 3164   0.762   3.911   3.311
 1055SOL    HW2 3165   0.680   3.932   3.450
 1056SOL     OW 3166   0.075   4.069   1.895
 1056SOL    HW1 3167  -0.017   4.041   1.866
 1056SOL    HW2 3168   0.106   4.146   1.839
 1057SOL     OW 3169   0.072   3.890   2.180
 1057SOL    HW1 3170   0.055   3.973   2.126
 1057SOL    HW2 3171   0.162   3.853   2.158
 1058SOL     OW 3172   1.225   4.049   2.311
 1058SOL    HW1 3173   1.290   3.975   2.300
 1058SOL    HW2 3174   1.245   4.099   2.395
 1059SOL     OW 3175   1.777   4.066   3.504
 1059SOL    HW1 3176   1.760   4.097   3.410
 1059SOL    HW2 3177   1.693   4.029   3.542
 1060SOL     OW 3178   1.824   3.916   3.089
 1060SOL    HW1 3179   1.820   3.826   3.133
 1060SOL    HW2 3180   1.827   3.905   2.990
 1061SOL     OW 3181   1.424   3.938   2.974
 1061SOL    HW1 3182   1.476   3.873   3.029
 1061SOL    HW2 3183   1.375   4.001   3.035
 1062SOL     OW 3184   1.001   3.758   3.016
 1062SOL    HW1 3185   0.938   3.686   2.985
 1062SOL    HW2 3186   1.094   3.722   3.016
 1063SOL     OW 3187   1.352   3.776   2.030
 1063SOL    HW1 3188   1.387   3.735   1.946
 1063SOL    HW2 3189   1.262   3.738   2.050
 1064SOL     OW 3190   1.300   4.177   2.553
 1064SOL    HW1 3191   1.241   4.257   2.557
 1064SOL    HW2 3192   1.315   4.142   2.646
 1065SOL     OW 3193   1.593   3.945   2.744
 1065SOL    HW1 3194   1.509   3.944   2.798
 1065SOL    HW2 3195   1.595   4.028   2.688
 1066SOL     OW 3196   1.135   4.427   4.441
 1066SOL    HW1 3197   1.192   4.505   4.416
 1066SOL    HW2 3198   1.075   4.453   4.517
 1067SOL     OW 3199   1.755   4.331   3.955
 1067SOL    HW1 3200   1.743   4.318   3.856
 1067SOL    HW2 3201   1.725   4.250   4.004
 1068SOL     OW 3202   0.865   4.072   3.919
 1068SOL    HW1 3203   0.924   4.135   3.870
 1068SOL    HW2 3204   0.884   3.978   3.890
 1069SOL     OW 3205   1.400   3.831   4.150
 1069SOL    HW1 3206   1.376   3.794   4.060
 1069SOL    HW2 3207   1.499   3.847   4.154
 1070SOL     OW 3208   0.382   4.424   4.204
 1070SOL    HW1 3209   0.427   4.334   4.201
 1070SOL    HW2 3210   0.288   4.413   4.237
 1071SOL     OW 3211   0.614   3.846   3.841
 1071SOL    HW1 3212   0.712   3.824   3.848
 1071SOL    HW2 3213   0.583   3.829   3.748
 1072SOL     OW 3214   0.297   3.759   3.895
 1072SOL    HW1 3215   0.346   3.843   3.874
 1072SOL    HW2 3216   0.359   3.694   3.940
 1073SOL     OW 3217   0.935   3.960   4.204
 1073SOL    HW1 3218   0.887   4.001   4.126
 1073SOL    HW2 3219   1.034   3.958   4.185
 1074SOL     OW 3220   0.527   3.980   4.052
 1074SOL    HW1 3221   0.554   3.921   3.977
 1074SOL    HW2 3222   0.527   4.075   4.021
 1075SOL     OW 3223   0.307   3.787   4.342
 1075SOL    HW1 3224   0.296   3.881   4.375
 1075SOL    HW2 3225   0.302   3.724   4.419
 1076SOL     OW 3226   1.622   4.091   4.098
 1076SOL    HW1 3227   1.624   4.015   4.162
 1076SOL    HW2 3228   1.574   4.168   4.138
 1077SOL     OW 3229   1.540   3.998   3.849
 1077SOL    HW1 3230   1.479   3.923   3.872
 1077SOL    HW2 3231   1.562   4.050   3.932
 1078SOL     OW 3232   0.815   4.296   4.049
 1078SOL    HW1 3233   0.822   4.207   4.003
 1078SOL    HW2 3234   0.721   4.330   4.041
 1079SOL     OW 3235   1.726   3.859   4.247
 1079SOL    HW1 3236   1.799   3.842   4.180
 1079SOL    HW2 3237   1.695   3.772   4.285
 1080SOL     OW 3238   0.075   4.069   3.757
 1080SOL    HW1 3239  -0.017   4.041   3.728
 1080SOL    HW2 3240   0.106   4.146   3.701
 1081SOL     OW 3241   0.072   3.890   4.042
 1081SOL    HW1 3242   0.055   3.973   3.988
 1081SOL    HW2 3243   0.162   3.853   4.020
 1082SOL     OW 3244   1.225   4.049   4.173
 1082SOL    HW1 3245   1.290   3.975   4.162
 1082SOL    HW2 3246   1.245   4.099   4.257
 1083SOL     OW 3247   1.352   3.776   3.892
 1083SOL    HW1 3248   1.387   3.735   3.808
 1083SOL    HW2 3249   1.262   3.738   3.912
 1084SOL     OW 3250   2.092   0.628   0.113
 1084SOL    HW1 3251   1.999   0.626   0.150
 1084SOL    HW2 3252   2.093   0.589   0.021
 1085SOL     OW 3253   2.087   0.275   0.996
 1085SOL    HW1 3254   2.122   0.258   1.088
 1085SOL    HW2 3255   1.999   0.230   0.984
 1086SOL     OW 3256   1.881   0.368   0.647
 1086SOL    HW1 3257   1.799   0.411   0.686
 1086SOL    HW2 3258   1.853   0.295   0.584
 1087SOL     OW 3259   2.431   1.275   1.165
 1087SOL    HW1 3260   2.338   1.268   1.128
 1087SOL    HW2 3261   2.442   1.364   1.209
 1088SOL     OW 3262   3.417   1.511   0.703
 1088SOL    HW1 3263   3.360   1.495   0.784
 1088SOL    HW2 3264   3.358   1.521   0.623
 1089SOL     OW 3265   2.997   0.703   0.717
 1089SOL    HW1 3266   3.054   0.781   0.692
 1089SOL    HW2 3267   2.937   0.729   0.793
 1090SOL     OW 3268   3.617   0.607   0.231
 1090SOL    HW1 3269   3.605   0.594   0.132
 1090SOL    HW2 3270   3.587   0.526   0.280
 1091SOL     OW 3271   2.630   1.144   1.023
 1091SOL    HW1 3272   2.552   1.161   1.083
 1091SOL    HW2 3273   2.664   1.231   0.987
 1092SOL     OW 3274   2.712   0.798   1.823
 1092SOL    HW1 3275   2.708   0.874   1.888
 1092SOL    HW2 3276   2.734   0.834   1.732
 1093SOL     OW 3277   2.547   1.012   0.665
 1093SOL    HW1 3278   2.616   0.996   0.735
 1093SOL    HW2 3279   2.474   1.069   0.703
 1094SOL     OW 3280   2.548   1.161   1.803
 1094SOL    HW1 3281   2.608   1.240   1.817
 1094SOL    HW2 3282   2.462   1.192   1.762
 1095SOL     OW 3283   2.197   1.435   1.061
 1095SOL    HW1 3284   2.119   1.404   1.008
 1095SOL    HW2 3285   2.255   1.493   1.004
 1096SOL     OW 3286   3.322   1.505   1.339
 1096SOL    HW1 3287   3.346   1.599   1.365
 1096SOL    HW2 3288   3.306   1.451   1.421
 1097SOL     OW 3289   2.300   0.392   1.499
 1097SOL    HW1 3290   2.382   0.336   1.508
 1097SOL    HW2 3291   2.219   0.334   1.503
 1098SOL     OW 3292   3.465   0.447   0.737
 1098SOL    HW1 3293   3.391   0.493   0.687
 1098SOL    HW2 3294   3.516   0.515   0.790
 1099SOL     OW 3295   2.093   1.713   0.483
 1099SOL    HW1 3296   2.127   1.790   0.537
 1099SOL    HW2 3297   2.137   1.713   0.393
 1100SOL     OW 3298   2.989   1.341   1.690
 1100SOL    HW1 3299   3.036   1.341   1.778
 1100SOL    HW2 3300   2.941   1.254   1.679
 1101SOL     OW 3301   2.092   1.434   0.538
 1101SOL    HW1 3302   2.066   1.530   0.538
 1101SOL    HW2 3303   2.021   1.380   0.583
 1102SOL     OW 3304   2.102   1.091   0.886
 1102SOL    HW1 3305   2.116   1.007   0.938
 1102SOL    HW2 3306   2.047   1.155   0.941
 1103SOL     OW 3307   2.482   1.786   1.439
 1103SOL    HW1 3308   2.390   1.769   1.474
 1103SOL    HW2 3309   2.510   1.878   1.465
 1104SOL     OW 3310   2.468   0.964   0.123
 1104SOL    HW1 3311   2.475   1.048   0.069
 1104SOL    HW2 3312   2.514   0.977   0.211
 1105SOL     OW 3313   3.456   0.114   1.480
 1105SOL    HW1 3314   3.438   0.181   1.408
 1105SOL    HW2 3315   3.453   0.160   1.569
 1106SOL     OW 3316   1.984   0.643   0.563
 1106SOL    HW1 3317   1.939   0.555   0.580
 1106SOL    HW2 3318   1.983   0.697   0.647
 1107SOL     OW 3319   3.704   1.767   0.359
 1107SOL    HW1 3320   3.758   1.738   0.439
 1107SOL    HW2 3321   3.734   1.857   0.330
 1108SOL     OW 3322   1.889   1.596   0.117
 1108SOL    HW1 3323   1.870   1.500   0.138
 1108SOL    HW2 3324   1.856   1.654   0.192
 1109SOL     OW 3325   3.551   0.922   0.612
 1109SOL    HW1 3326   3.646   0.893   0.620
 1109SOL    HW2 3327   3.543   0.987   0.537
 1110SOL     OW 3328   3.503   1.108   0.432
 1110SOL    HW1 3329   3.589   1.110   0.380
 1110SOL    HW2 3330   3.517   1.155   0.520
 1111SOL     OW 3331   1.975   0.737   1.597
 1111SOL    HW1 3332   2.063   0.724   1.642
 1111SOL    HW2 3333   1.962   0.834   1.575
 1112SOL     OW 3334   2.475   1.365   0.726
 1112SOL    HW1 3335   2.426   1.278   0.735
 1112SOL    HW2 3336   2.452   1.408   0.639
 1113SOL     OW 3337   3.155   1.228   1.423
 1113SOL    HW1 3338   3.192   1.155   1.365
 1113SOL    HW2 3339   3.207   1.233   1.508
 1114SOL     OW 3340   2.671   0.004   0.502
 1114SOL    HW1 3341   2.711   0.095   0.493
 1114SOL    HW2 3342   2.571   0.012   0.508
 1115SOL     OW 3343   2.059   0.976   1.264
 1115SOL    HW1 3344   2.148   0.931   1.250
 1115SOL    HW2 3345   1.986   0.911   1.245
 1116SOL     OW 3346   3.387   0.999   0.190
 1116SOL    HW1 3347   3.324   0.923   0.203
 1116SOL    HW2 3348   3.435   1.017   0.276
 1117SOL     OW 3349   3.049   1.792   1.616
 1117SOL    HW1 3350   3.073   1.852   1.540
 1117SOL    HW2 3351   3.056   1.697   1.586
 1118SOL     OW 3352   2.179   0.251   1.801
 1118SOL    HW1 3353   2.250   0.322   1.807
 1118SOL    HW2 3354   2.091   0.290   1.829
 1119SOL     OW 3355   3.328   1.417   0.953
 1119SOL    HW1 3356   3.269   1.423   1.033
 1119SOL    HW2 3357   3.313   1.329   0.907
 1120SOL     OW 3358   3.529   1.714   0.572
 1120SOL    HW1 3359   3.488   1.691   0.484
 1120SOL    HW2 3360   3.511   1.640   0.637
 1121SOL     OW 3361   2.460   0.729   0.270
 1121SOL    HW1 3362   2.484   0.798   0.202
 1121SOL    HW2 3363   2.382   0.762   0.324
 1122SOL     OW 3364   3.143   0.345   0.944
 1122SOL    HW1 3365   3.057   0.295   0.931
 1122SOL    HW2 3366   3.205   0.291   1.000
 1123SOL     OW 3367   3.438   1.662   0.307
 1123SOL    HW1 3368   3.527   1.708   0.310
 1123SOL    HW2 3369   3.417   1.638   0.212
 1124SOL     OW 3370   2.669   0.605   1.465
 1124SOL    HW1 3371   2.622   0.602   1.554
 1124SOL    HW2 3372   2.618   0.550   1.399
 1125SOL     OW 3373   3.256   0.469   1.674
 1125SOL    HW1 3374   3.236   0.512   1.762
 1125SOL    HW2 3375   3.334   0.407   1.683
 1126SOL     OW 3376   2.835   0.890   1.572
 1126SOL    HW1 3377   2.881   0.806   1.543
 1126SOL    HW2 3378   2.779   0.924   1.497
 1127SOL     OW 3379   2.853   0.410   1.242
 1127SOL    HW1 3380   2.776   0.444   1.296
 1127SOL    HW2 3381   2.819   0.359   1.163
 1128SOL     OW 3382   2.903   0.701   0.429
 1128SOL    HW1 3383   2.929   0.697   0.525
 1128SOL    HW2 3384   2.818   0.650   0.415
 1129SOL     OW 3385   1.938   0.811   0.789
 1129SOL    HW1 3386   2.037   0.799   0.798
 1129SOL    HW2 3387   1.914   0.906   0.810
 1130SOL     OW 3388   1.992   1.821   1.571
 1130SOL    HW1 3389   1.982   1.806   1.670
 1130SOL    HW2 3390   1.906   1.857   1.535
 1131SOL     OW 3391   2.727   0.348   0.195
 1131SOL    HW1 3392   2.786   0.411   0.146
 1131SOL    HW2 3393   2.746   0.254   0.166
 1132SOL     OW 3394   3.581   0.585   1.831
 1132SOL    HW1 3395   3.555   0.674   1.795
 1132SOL    HW2 3396   3.579   0.517   1.758
 1133SOL     OW 3397   3.224   1.144   0.545
 1133SOL    HW1 3398   3.307   1.115   0.497
 1133SOL    HW2 3399   3.175   1.211   0.489
 1134SOL     OW 3400   2.412   0.196   0.885
 1134SOL    HW1 3401   2.407   0.191   0.985
 1134SOL    HW2 3402   2.414   0.292   0.856
 1135SOL     OW 3403   2.870   1.456   0.477
 1135SOL    HW1 3404   2.824   1.528   0.425
 1135SOL    HW2 3405   2.866   1.476   0.575
 1136SOL     OW 3406   2.213   1.801   0.853
 1136SOL    HW1 3407   2.263   1.715   0.859
 1136SOL    HW2 3408   2.278   1.878   0.850
 1137SOL     OW 3409   3.657   1.066   0.873
 1137SOL    HW1 3410   3.595   1.051   0.797
 1137SOL    HW2 3411   3.605   1.077   0.958
 1138SOL     OW 3412   3.089   1.550   1.506
 1138SOL    HW1 3413   3.095   1.473   1.570
 1138SOL    HW2 3414   3.037   1.524   1.426
 1139SOL     OW 3415   2.183   0.943   0.242
 1139SOL    HW1 3416   2.265   0.982   0.200
 1139SOL    HW2 3417   2.156   0.861   0.193
 1140SOL     OW 3418   3.320   0.735   0.728
 1140SOL    HW1 3419   3.315   0.670   0.803
 1140SOL    HW2 3420   3.400   0.794   0.741
 1141SOL     OW 3421   2.323   1.266   1.727
 1141SOL    HW1 3422   2.273   1.267   1.641
 1141SOL    HW2 3423   2.260   1.248   1.803
 1142SOL     OW 3424   2.973   1.776   0.237
 1142SOL    HW1 3425   2.913   1.714   0.287
 1142SOL    HW2 3426   3.004   1.732   0.152
 1143SOL     OW 3427   2.064   0.285   1.498
 1143SOL    HW1 3428   1.984   0.345   1.485
 1143SOL    HW2 3429   2.054   0.236   1.584
 1144SOL     OW 3430   3.494   1.377   0.081
 1144SOL    HW1 3431   3.462   1.471   0.071
 1144SOL    HW2 3432   3.418   1.314   0.069
 1145SOL     OW 3433   2.326   1.743   0.323
 1145SOL    HW1 3434   2.359   1.782   0.409
 1145SOL    HW2 3435   2.402   1.736   0.258
 1146SOL     OW 3436   3.262   0.107   0.426
 1146SOL    HW1 3437   3.238   0.070   0.336
 1146SOL    HW2 3438   3.361   0.123   0.430
 1147SOL     OW 3439   2.111   1.785   1.241
 1147SOL    HW1 3440   2.168   1.720   1.291
 1147SOL    HW2 3441   2.095   1.752   1.148
 1148SOL     OW 3442   2.802   1.698   0.904
 1148SOL    HW1 3443   2.882   1.641   0.925
 1148SOL    HW2 3444   2.753   1.658   0.827
 1149SOL     OW 3445   2.244   0.700   0.480
 1149SOL    HW1 3446   2.289   0.610   0.477
 1149SOL    HW2 3447   2.150   0.689   0.513
 1150SOL     OW 3448   3.409   0.222   1.729
 1150SOL    HW1 3449   3.404   0.259   1.821
 1150SOL    HW2 3450   3.337   0.153   1.717
 1151SOL     OW 3451   2.476   0.122   0.117
 1151SOL    HW1 3452   2.574   0.100   0.124
 1151SOL    HW2 3453   2.445   0.105   0.024
 1152SOL     OW 3454   2.643   0.264   1.749
 1152SOL    HW1 3455   2.710   0.203   1.792
 1152SOL    HW2 3456   2.570   0.283   1.814
 1153SOL     OW 3457   2.750   1.514   1.195
 1153SOL    HW1 3458   2.727   1.489   1.101
 1153SOL    HW2 3459   2.811   1.445   1.234
 1154SOL     OW 3460   3.213   0.590   1.433
 1154SOL    HW1 3461   3.241   0.547   1.518
 1154SOL    HW2 3462   3.238   0.686   1.434
 1155SOL     OW 3463   2.665   1.402   0.924
 1155SOL    HW1 3464   2.755   1.416   0.882
 1155SOL    HW2 3465   2.594   1.404   0.853
 1156SOL     OW 3466   2.784   0.503   0.899
 1156SOL    HW1 3467   2.759   0.494   0.803
 1156SOL    HW2 3468   2.832   0.421   0.930
 1157SOL     OW 3469   2.401   0.064   0.512
 1157SOL    HW1 3470   2.320   0.065   0.570
 1157SOL    HW2 3471   2.404   0.147   0.457
 1158SOL     OW 3472   3.296   1.188   0.041
 1158SOL    HW1 3473   3.328   1.112   0.098
 1158SOL    HW2 3474   3.204   1.215   0.071
 1159SOL     OW 3475   2.159   0.035   0.171
 1159SOL    HW1 3476   2.208   0.119   0.150
 1159SOL    HW2 3477   2.221  -0.030   0.216
 1160SOL     OW 3478   2.797   0.236   0.480
 1160SOL    HW1 3479   2.749   0.277   0.402
 1160SOL    HW2 3480   2.896   0.234   0.461
 1161SOL     OW 3481   2.938   0.683   1.464
 1161SOL    HW1 3482   2.858   0.622   1.467
 1161SOL    HW2 3483   3.019   0.630   1.440
 1162SOL     OW 3484   3.089   1.570   0.793
 1162SOL    HW1 3485   3.110   1.644   0.728
 1162SOL    HW2 3486   3.157   1.570   0.866
 1163SOL     OW 3487   2.321   1.152   0.741
 1163SOL    HW1 3488   2.250   1.125   0.806
 1163SOL    HW2 3489   2.295   1.124   0.648
 1164SOL     OW 3490   3.133   1.797   0.591
 1164SOL    HW1 3491   3.177   1.861   0.527
 1164SOL    HW2 3492   3.083   1.849   0.661
 1165SOL     OW 3493   2.894   0.549   0.016
 1165SOL    HW1 3494   2.853   0.631  -0.023
 1165SOL    HW2 3495   2.958   0.575   0.089
 1166SOL     OW 3496   1.940   0.556   1.386
 1166SOL    HW1 3497   2.032   0.555   1.345
 1166SOL    HW2 3498   1.934   0.630   1.453
 1167SOL     OW 3499   2.423   0.222   1.147
 1167SOL    HW1 3500   2.461   0.138   1.184
 1167SOL    HW2 3501   2.335   0.241   1.191
 1168SOL     OW 3502   2.728   0.454   0.642
 1168SOL    HW1 3503   2.696   0.526   0.580
 1168SOL    HW2 3504   2.752   0.373   0.589
 1169SOL     OW 3505   2.879   0.039   0.753
 1169SOL    HW1 3506   2.807   0.044   0.684
 1169SOL    HW2 3507   2.855  -0.030   0.822
 1170SOL     OW 3508   3.291   1.173   0.867
 1170SOL    HW1 3509   3.236   1.089   0.860
 1170SOL    HW2 3510   3.317   1.202   0.775
 1171SOL     OW 3511   3.328   0.590   0.992
 1171SOL    HW1 3512   3.298   0.495   0.999
 1171SOL    HW2 3513   3.401   0.606   1.058
 1172SOL     OW 3514   3.719   0.833   0.377
 1172SOL    HW1 3515   3.761   0.769   0.441
 1172SOL    HW2 3516   3.681   0.782   0.299
 1173SOL     OW 3517   2.350   1.385   0.174
 1173SOL    HW1 3518   2.263   1.370   0.221
 1173SOL    HW2 3519   2.333   1.411   0.079
 1174SOL     OW 3520   3.526   1.280   0.657
 1174SOL    HW1 3521   3.625   1.288   0.671
 1174SOL    HW2 3522   3.481   1.364   0.688
 1175SOL     OW 3523   3.252   0.575   0.078
 1175SOL    HW1 3524   3.198   0.554   0.159
 1175SOL    HW2 3525   3.343   0.534   0.087
 1176SOL     OW 3526   2.389   0.256   0.328
 1176SOL    HW1 3527   2.416   0.197   0.253
 1176SOL    HW2 3528   2.389   0.351   0.297
 1177SOL     OW 3529   3.616   1.223   1.588
 1177SOL    HW1 3530   3.707   1.184   1.575
 1177SOL    HW2 3531   3.624   1.319   1.612
 1178SOL     OW 3532   2.926   1.347   1.340
 1178SOL    HW1 3533   2.846   1.324   1.395
 1178SOL    HW2 3534   3.009   1.321   1.389
 1179SOL     OW 3535   3.454   1.629   1.625
 1179SOL    HW1 3536   3.481   1.663   1.535
 1179SOL    HW2 3537   3.533   1.591   1.671
 1180SOL     OW 3538   2.973   1.195   1.100
 1180SOL    HW1 3539   2.933   1.239   1.181
 1180SOL    HW2 3540   2.932   1.232   1.017
 1181SOL     OW 3541   3.500   1.099   1.079
 1181SOL    HW1 3542   3.505   1.180   1.138
 1181SOL    HW2 3543   3.414   1.101   1.028
 1182SOL     OW 3544   2.777   0.089   1.402
 1182SOL    HW1 3545   2.802   0.069   1.307
 1182SOL    HW2 3546   2.849   0.145   1.444
 1183SOL     OW 3547   2.842   1.116   1.719
 1183SOL    HW1 3548   2.743   1.122   1.729
 1183SOL    HW2 3549   2.865   1.036   1.663
 1184SOL     OW 3550   2.567   1.050   0.368
 1184SOL    HW1 3551   2.553   1.057   0.467
 1184SOL    HW2 3552   2.651   0.999   0.350
 1185SOL     OW 3553   2.272   0.813   1.251
 1185SOL    HW1 3554   2.358   0.825   1.301
 1185SOL    HW2 3555   2.230   0.726   1.278
 1186SOL     OW 3556   3.136   0.386   1.262
 1186SOL    HW1 3557   3.157   0.460   1.326
 1186SOL    HW2 3558   3.047   0.403   1.219
 1187SOL     OW 3559   1.926   1.564   1.331
 1187SOL    HW1 3560   1.880   1.646   1.297
 1187SOL    HW2 3561   2.024   1.583   1.340
 1188SOL     OW 3562   2.229   1.100   0.501
 1188SOL    HW1 3563   2.222   1.183   0.445
 1188SOL    HW2 3564   2.233   1.020   0.441
 1189SOL     OW 3565   2.428   0.537   0.865
 1189SOL    HW1 3566   2.440   0.603   0.791
 1189SOL    HW2 3567   2.474   0.571   0.948
 1190SOL     OW 3568   3.114   1.348   0.388
 1190SOL    HW1 3569   3.164   1.425   0.428
 1190SOL    HW2 3570   3.019   1.350   0.420
 1191SOL     OW 3571   3.134   1.445   1.142
 1191SOL    HW1 3572   3.181   1.458   1.229
 1191SOL    HW2 3573   3.068   1.371   1.151
 1192SOL     OW 3574   3.444   0.639   0.472
 1192SOL    HW1 3575   3.413   0.700   0.545
 1192SOL    HW2 3576   3.494   0.691   0.403
 1193SOL     OW 3577   2.216   1.510   1.329
 1193SOL    HW1 3578   2.195   1.466   1.242
 1193SOL    HW2 3579   2.313   1.536   1.332
 1194SOL     OW 3580   2.264   0.751   1.598
 1194SOL    HW1 3581   2.332   0.806   1.551
 1194SOL    HW2 3582   2.304   0.663   1.625
 1195SOL     OW 3583   3.449   0.779   1.670
 1195SOL    HW1 3584   3.357   0.817   1.665
 1195SOL    HW2 3585   3.509   0.826   1.605
 1196SOL     OW 3586   2.875   0.105   1.770
 1196SOL    HW1 3587   2.881   0.190   1.718
 1196SOL    HW2 3588   2.907   0.029   1.713
 1197SOL     OW 3589   2.366   0.050   1.740
 1197SOL    HW1 3590   2.324  -0.007   1.670
 1197SOL    HW2 3591   2.300   0.119   1.772
 1198SOL     OW 3592   2.435   0.870   1.029
 1198SOL    HW1 3593   2.479   0.959   1.020
 1198SOL    HW2 3594   2.372   0.870   1.106
 1199SOL     OW 3595   3.222   0.862   1.045
 1199SOL    HW1 3596   3.147   0.862   0.979
 1199SOL    HW2 3597   3.259   0.770   1.054
 1200SOL     OW 3598   3.071   0.525   0.275
 1200SOL    HW1 3599   3.084   0.441   0.329
 1200SOL    HW2 3600   3.042   0.599   0.335
 1201SOL     OW 3601   2.169   0.213   1.231
 1201SOL    HW1 3602   2.146   0.250   1.321
 1201SOL    HW2 3603   2.139   0.118   1.225
 1202SOL     OW 3604   1.899   1.310   1.282
 1202SOL    HW1 3605   1.952   1.261   1.350
 1202SOL    HW2 3606   1.921   1.408   1.287
 1203SOL     OW 3607   2.594   0.634   1.064
 1203SOL    HW1 3608   2.653   0.608   0.988
 1203SOL    HW2 3609   2.566   0.730   1.053
 1204SOL     OW 3610   3.590   0.935   1.854
 1204SOL    HW1 3611   3.544   0.928   1.765
 1204SOL    HW2 3612   3.528   0.979   1.920
 1205SOL     OW 3613   2.169   0.063   0.618
 1205SOL    HW1 3614   2.158   0.157   0.651
 1205SOL    HW2 3615   2.164   0.000   0.695
 1206SOL     OW 3616   3.484   0.367   0.374
 1206SOL    HW1 3617   3.486   0.291   0.438
 1206SOL    HW2 3618   3.436   0.444   0.414
 1207SOL     OW 3619   2.885   0.766   0.966
 1207SOL    HW1 3620   2.900   0.787   1.062
 1207SOL    HW2 3621   2.855   0.671   0.957
 1208SOL     OW 3622   2.842   1.573   1.700
 1208SOL    HW1 3623   2.822   1.617   1.612
 1208SOL    HW2 3624   2.881   1.482   1.684
 1209SOL     OW 3625   3.721   1.518   1.605
 1209SOL    HW1 3626   3.735   1.545   1.510
 1209SOL    HW2 3627   3.804   1.540   1.658
 1210SOL     OW 3628   2.212   0.898   1.804
 1210SOL    HW1 3629   2.288   0.942   1.852
 1210SOL    HW2 3630   2.247   0.851   1.722
 1211SOL     OW 3631   3.402   0.274   0.125
 1211SOL    HW1 3632   3.341   0.199   0.148
 1211SOL    HW2 3633   3.424   0.326   0.208
 1212SOL     OW 3634   3.165   0.838   0.042
 1212SOL    HW1 3635   3.199   0.745   0.057
 1212SOL    HW2 3636   3.183   0.865  -0.053
 1213SOL     OW 3637   2.930   1.333   0.849
 1213SOL    HW1 3638   2.937   1.249   0.794
 1213SOL    HW2 3639   2.992   1.402   0.813
 1214SOL     OW 3640   2.181   0.810   0.949
 1214SOL    HW1 3641   2.274   0.846   0.954
 1214SOL    HW2 3642   2.175   0.725   1.001
 1215SOL     OW 3643   2.201   0.509   1.006
 1215SOL    HW1 3644   2.149   0.426   0.989
 1215SOL    HW2 3645   2.278   0.514   0.942
 1216SOL     OW 3646   3.000   0.380   1.678
 1216SOL    HW1 3647   2.955   0.443   1.742
 1216SOL    HW2 3648   3.093   0.411   1.661
 1217SOL     OW 3649   3.022   0.207   1.477
 1217SOL    HW1 3650   3.022   0.271   1.554
 1217SOL    HW2 3651   3.050   0.255   1.394
 1218SOL     OW 3652   1.870   1.326   0.200
 1218SOL    HW1 3653   1.777   1.347   0.169
 1218SOL    HW2 3654   1.880   1.227   0.213
 1219SOL     OW 3655   1.950   1.801   0.927
 1219SOL    HW1 3656   1.908   1.715   0.900
 1219SOL    HW2 3657   2.044   1.804   0.893
 1220SOL     OW 3658   2.366   1.568   0.910
 1220SOL    HW1 3659   2.432   1.642   0.919
 1220SOL    HW2 3660   2.410   1.489   0.868
 1221SOL     OW 3661   2.864   0.796   1.238
 1221SOL    HW1 3662   2.905   0.764   1.324
 1221SOL    HW2 3663   2.768   0.769   1.235
 1222SOL     OW 3664   1.902   0.544   1.114
 1222SOL    HW1 3665   1.987   0.511   1.073
 1222SOL    HW2 3666   1.915   0.559   1.212
 1223SOL     OW 3667   2.051   0.520   1.722
 1223SOL    HW1 3668   2.110   0.480   1.652
 1223SOL    HW2 3669   1.993   0.591   1.681
 1224SOL     OW 3670   3.231   0.950   1.660
 1224SOL    HW1 3671   3.270   1.039   1.680
 1224SOL    HW2 3672   3.241   0.930   1.563
 1225SOL     OW 3673   2.677   0.572   0.325
 1225SOL    HW1 3674   2.684   0.483   0.279
 1225SOL    HW2 3675   2.583   0.606   0.317
 1226SOL     OW 3676   3.519   0.604   1.206
 1226SOL    HW1 3677   3.481   0.535   1.268
 1226SOL    HW2 3678   3.601   0.568   1.162
 1227SOL     OW 3679   2.114   1.564   1.744
 1227SOL    HW1 3680   2.084   1.621   1.820
 1227SOL    HW2 3681   2.107   1.467   1.770
 1228SOL     OW 3682   2.533   0.464   1.269
 1228SOL    HW1 3683   2.499   0.375   1.239
 1228SOL    HW2 3684   2.559   0.518   1.189
 1229SOL     OW 3685   2.792   1.678   1.465
 1229SOL    HW1 3686   2.768   1.660   1.370
 1229SOL    HW2 3687   2.822   1.772   1.475
 1230SOL     OW 3688   2.335   0.500   0.191
 1230SOL    HW1 3689   2.396   0.580   0.195
 1230SOL    HW2 3690   2.240   0.531   0.198
 1231SOL     OW 3691   2.021   1.137   1.466
 1231SOL    HW1 3692   2.043   1.076   1.542
 1231SOL    HW2 3693   2.031   1.088   1.380
 1232SOL     OW 3694   3.209   1.059   1.234
 1232SOL    HW1 3695   3.233   0.996   1.160
 1232SOL    HW2 3696   3.119   1.099   1.216
 1233SOL     OW 3697   3.164   0.855   0.309
 1233SOL    HW1 3698   3.078   0.824   0.351
 1233SOL    HW2 3699   3.160   0.841   0.210
 1234SOL     OW 3700   3.621   1.747   1.154
 1234SOL    HW1 3701   3.682   1.777   1.081
 1234SOL    HW2 3702   3.583   1.658   1.132
 1235SOL     OW 3703   3.114   1.731   1.128
 1235SOL    HW1 3704   3.198   1.736   1.074
 1235SOL    HW2 3705   3.091   1.635   1.146
 1236SOL     OW 3706   1.945   1.258   1.022
 1236SOL    HW1 3707   1.940   1.257   1.122
 1236SOL    HW2 3708   1.862   1.217   0.984
 1237SOL     OW 3709   2.550   1.662   1.716
 1237SOL    HW1 3710   2.494   1.743   1.725
 1237SOL    HW2 3711   2.602   1.666   1.630
 1238SOL     OW 3712   2.765   0.086   0.133
 1238SOL    HW1 3713   2.816   0.087   0.047
 1238SOL    HW2 3714   2.821   0.044   0.204
 1239SOL     OW 3715   3.588   0.135   0.523
 1239SOL    HW1 3716   3.661   0.118   0.456
 1239SOL    HW2 3717   3.557   0.048   0.561
 1240SOL     OW 3718   3.250   1.573   0.477
 1240SOL    HW1 3719   3.317   1.585   0.403
 1240SOL    HW2 3720   3.210   1.662   0.500
 1241SOL     OW 3721   1.992   1.794   1.851
 1241SOL    HW1 3722   1.951   1.720   1.904
 1241SOL    HW2 3723   2.056   1.845   1.909
 1242SOL     OW 3724   3.142   0.927   0.672
 1242SOL    HW1 3725   3.202   0.846   0.674
 1242SOL    HW2 3726   3.182   0.996   0.612
 1243SOL     OW 3727   2.692   1.273   1.422
 1243SOL    HW1 3728   2.687   1.306   1.517
 1243SOL    HW2 3729   2.606   1.292   1.376
 1244SOL     OW 3730   2.534   1.616   0.154
 1244SOL    HW1 3731   2.543   1.626   0.055
 1244SOL    HW2 3732   2.494   1.527   0.175
 1245SOL     OW 3733   3.512   1.720   1.394
 1245SOL    HW1 3734   3.565   1.730   1.310
 1245SOL    HW2 3735   3.485   1.810   1.428
 1246SOL     OW 3736   3.703   0.175   0.963
 1246SOL    HW1 3737   3.742   0.090   0.927
 1246SOL    HW2 3738   3.605   0.177   0.944
 1247SOL     OW 3739   2.125   0.326   0.720
 1247SOL    HW1 3740   2.046   0.377   0.686
 1247SOL    HW2 3741   2.116   0.311   0.818
 1248SOL     OW 3742   3.056   1.612   0.031
 1248SOL    HW1 3743   3.062   1.519   0.068
 1248SOL    HW2 3744   2.997   1.612  -0.049
 1249SOL     OW 3745   2.684   1.002   1.372
 1249SOL    HW1 3746   2.724   1.001   1.280
 1249SOL    HW2 3747   2.694   1.094   1.412
 1250SOL     OW 3748   2.778   0.910   0.291
 1250SOL    HW1 3749   2.841   0.948   0.223
 1250SOL    HW2 3750   2.818   0.827   0.330
 1251SOL     OW 3751   3.366   1.607   0.044
 1251SOL    HW1 3752   3.274   1.644   0.051
 1251SOL    HW2 3753   3.404   1.627  -0.046
 1252SOL     OW 3754   2.234   1.288   1.490
 1252SOL    HW1 3755   2.221   1.381   1.456
 1252SOL    HW2 3756   2.150   1.236   1.477
 1253SOL     OW 3757   3.476   1.292   1.289
 1253SOL    HW1 3758   3.536   1.295   1.369
 1253SOL    HW2 3759   3.401   1.356   1.302
 1254SOL     OW 3760   2.901   1.098   0.696
 1254SOL    HW1 3761   2.831   1.051   0.750
 1254SOL    HW2 3762   2.960   1.030   0.653
 1255SOL     OW 3763   2.876   0.236   0.971
 1255SOL    HW1 3764   2.868   0.200   0.878
 1255SOL    HW2 3765   2.874   0.160   1.036
 1256SOL     OW 3766   2.452   1.487   0.491
 1256SOL    HW1 3767   2.494   1.429   0.421
 1256SOL    HW2 3768   2.408   1.566   0.447
 1257SOL     OW 3769   3.571   0.385   1.381
 1257SOL    HW1 3770   3.644   0.454   1.385
 1257SOL    HW2 3771   3.599   0.310   1.322
 1258SOL     OW 3772   2.117   1.348   0.290
 1258SOL    HW1 3773   2.021   1.349   0.263
 1258SOL    HW2 3774   2.129   1.401   0.374
 1259SOL     OW 3775   1.967   1.013   1.726
 1259SOL    HW1 3776   1.890   0.980   1.780
 1259SOL    HW2 3777   2.052   0.983   1.768
 1260SOL     OW 3778   2.534   0.203   1.489
 1260SOL    HW1 3779   2.624   0.187   1.449
 1260SOL    HW2 3780   2.542   0.208   1.588
 1261SOL     OW 3781   1.937   0.345   0.033
 1261SOL    HW1 3782   1.845   0.317   0.004
 1261SOL    HW2 3783   1.968   0.422  -0.023
 1262SOL     OW 3784   3.302   0.856   1.398
 1262SOL    HW1 3785   3.245   0.908   1.335
 1262SOL    HW2 3786   3.398   0.868   1.374
 1263SOL     OW 3787   1.934   0.166   0.318
 1263SOL    HW1 3788   1.917   0.249   0.264
 1263SOL    HW2 3789   2.024   0.129   0.296
 1264SOL     OW 3790   3.045   1.335   0.119
 1264SOL    HW1 3791   2.946   1.324   0.121
 1264SOL    HW2 3792   3.079   1.350   0.212
 1265SOL     OW 3793   2.475   0.842   1.431
 1265SOL    HW1 3794   2.531   0.923   1.414
 1265SOL    HW2 3795   2.534   0.762   1.434
 1266SOL     OW 3796   3.355   1.767   0.959
 1266SOL    HW1 3797   3.388   1.831   0.890
 1266SOL    HW2 3798   3.421   1.761   1.034
 1267SOL     OW 3799   2.578   0.565   1.708
 1267SOL    HW1 3800   2.597   0.630   1.782
 1267SOL    HW2 3801   2.638   0.485   1.717
 1268SOL     OW 3802   3.312   1.220   1.633
 1268SOL    HW1 3803   3.303   1.210   1.732
 1268SOL    HW2 3804   3.408   1.213   1.607
 1269SOL     OW 3805   2.252   1.741   1.560
 1269SOL    HW1 3806   2.161   1.782   1.558
 1269SOL    HW2 3807   2.245   1.647   1.592
 1270SOL     OW 3808   3.536   0.883   1.254
 1270SOL    HW1 3809   3.509   0.794   1.217
 1270SOL    HW2 3810   3.537   0.951   1.181
 1271SOL     OW 3811   3.087   0.325   0.449
 1271SOL    HW1 3812   3.152   0.251   0.438
 1271SOL    HW2 3813   3.107   0.375   0.533
 1272SOL     OW 3814   2.456   0.745   0.652
 1272SOL    HW1 3815   2.506   0.830   0.633
 1272SOL    HW2 3816   2.368   0.747   0.604
 1273SOL     OW 3817   3.639   0.342   1.642
 1273SOL    HW1 3818   3.622   0.373   1.548
 1273SOL    HW2 3819   3.555   0.305   1.680
 1274SOL     OW 3820   3.592   0.934   1.517
 1274SOL    HW1 3821   3.630   1.025   1.532
 1274SOL    HW2 3822   3.584   0.917   1.418
 1275SOL     OW 3823   2.721   1.374   0.016
 1275SOL    HW1 3824   2.675   1.389   0.104
 1275SOL    HW2 3825   2.765   1.459  -0.014
 1276SOL     OW 3826   2.523   1.790   0.953
 1276SOL    HW1 3827   2.477   1.878   0.940
 1276SOL    HW2 3828   2.622   1.802   0.946
 1277SOL     OW 3829   2.721   0.956   0.861
 1277SOL    HW1 3830   2.775   0.887   0.909
 1277SOL    HW2 3831   2.689   1.025   0.927
 1278SOL     OW 3832   2.945   0.984   0.087
 1278SOL    HW1 3833   2.922   1.037   0.005
 1278SOL    HW2 3834   3.026   0.928   0.068
 1279SOL     OW 3835   3.723   1.569   0.851
 1279SOL    HW1 3836   3.652   1.557   0.781
 1279SOL    HW2 3837   3.724   1.490   0.911
 1280SOL     OW 3838   2.083   1.314   1.844
 1280SOL    HW1 3839   2.018   1.241   1.823
 1280SOL    HW2 3840   2.087   1.328   1.942
 1281SOL     OW 3841   1.941   1.240   0.653
 1281SOL    HW1 3842   1.940   1.193   0.741
 1281SOL    HW2 3843   2.023   1.212   0.602
 1282SOL     OW 3844   2.534   1.391   1.624
 1282SOL    HW1 3845   2.456   1.341   1.662
 1282SOL    HW2 3846   2.531   1.486   1.655
 1283SOL     OW 3847   3.686   0.192   1.227
 1283SOL    HW1 3848   3.682   0.102   1.271
 1283SOL    HW2 3849   3.689   0.181   1.128
 1284SOL     OW 3850   2.290   0.424   0.520
 1284SOL    HW1 3851   2.320   0.352   0.458
 1284SOL    HW2 3852   2.251   0.384   0.603
 1285SOL     OW 3853   3.567   1.487   1.104
 1285SOL    HW1 3854   3.474   1.462   1.077
 1285SOL    HW2 3855   3.593   1.437   1.186
 1286SOL     OW 3856   2.179   0.547   1.280
 1286SOL    HW1 3857   2.217   0.488   1.352
 1286SOL    HW2 3858   2.219   0.521   1.192
 1287SOL     OW 3859   2.674   1.586   0.687
 1287SOL    HW1 3860   2.706   1.596   0.593
 1287SOL    HW2 3861   2.595   1.524   0.689
 1288SOL     OW 3862   3.286   0.214   1.112
 1288SOL    HW1 3863   3.338   0.149   1.167
 1288SOL    HW2 3864   3.237   0.277   1.173
 1289SOL     OW 3865   2.863   0.034   1.154
 1289SOL    HW1 3866   2.800  -0.038   1.123
 1289SOL    HW2 3867   2.956  -0.002   1.154
 1290SOL     OW 3868   2.632   1.330   0.301
 1290SOL    HW1 3869   2.586   1.243   0.318
 1290SOL    HW2 3870   2.723   1.327   0.342
 1291SOL     OW 3871   2.480   1.567   1.284
 1291SOL    HW1 3872   2.475   1.649   1.341
 1291SOL    HW2 3873   2.569   1.564   1.239
 1292SOL     OW 3874   3.214   0.052   0.168
 1292SOL    HW1 3875   3.249   0.011   0.084
 1292SOL    HW2 3876   3.124   0.014   0.188
 1293SOL     OW 3877   3.162   0.453   0.691
 1293SOL    HW1 3878   3.103   0.533   0.695
 1293SOL    HW2 3879   3.177   0.418   0.784
 1294SOL     OW 3880   3.455   0.221   0.882
 1294SOL    HW1 3881   3.371   0.220   0.936
 1294SOL    HW2 3882   3.457   0.304   0.826
 1295SOL     OW 3883   1.901   1.077   0.300
 1295SOL    HW1 3884   2.000   1.066   0.291
 1295SOL    HW2 3885   1.861   0.991   0.332
 1296SOL     OW 3886   2.737   1.646   0.337
 1296SOL    HW1 3887   2.660   1.611   0.283
 1296SOL    HW2 3888   2.705   1.717   0.399
 1297SOL     OW 3889   2.092   0.628   1.975
 1297SOL    HW1 3890   1.999   0.626   2.012
 1297SOL    HW2 3891   2.093   0.589   1.883
 1298SOL     OW 3892   2.087   0.275   2.858
 1298SOL    HW1 3893   2.122   0.258   2.950
 1298SOL    HW2 3894   1.999   0.230   2.846
 1299SOL     OW 3895   1.881   0.368   2.509
 1299SOL    HW1 3896   1.799   0.411   2.548
 1299SOL    HW2 3897   1.853   0.295   2.446
 1300SOL     OW 3898   2.431   1.275   3.027
 1300SOL    HW1 3899   2.338   1.268   2.990
 1300SOL    HW2 3900   2.442   1.364   3.071
 1301SOL     OW 3901   3.417   1.511   2.565
 1301SOL    HW1 3902   3.360   1.495   2.646
 1301SOL    HW2 3903   3.358   1.521   2.485
 1302SOL     OW 3904   2.997   0.703   2.579
 1302SOL    HW1 3905   3.054   0.781   2.554
 1302SOL    HW2 3906   2.937   0.729   2.655
 1303SOL     OW 3907   3.617   0.607   2.093
 1303SOL    HW1 3908   3.605   0.594   1.994
 1303SOL    HW2 3909   3.587   0.526   2.142
 1304SOL     OW 3910   2.630   1.144   2.885
 1304SOL    HW1 3911   2.552   1.161   2.945
 1304SOL    HW2 3912   2.664   1.231   2.849
 1305SOL     OW 3913   2.712   0.798   3.685
 1305SOL    HW1 3914   2.708   0.874   3.750
 1305SOL    HW2 3915   2.734   0.834   3.594
 1306SOL     OW 3916   2.547   1.012   2.527
 1306SOL    HW1 3917   2.616   0.996   2.597
 1306SOL    HW2 3918   2.474   1.069   2.565
 1307SOL     OW 3919   2.548   1.161   3.665
 1307SOL    HW1 3920   2.608   1.240   3.679
 1307SOL    HW2 3921   2.462   1.192   3.624
 1308SOL     OW 3922   2.197   1.435   2.923
 1308SOL    HW1 3923   2.119   1.404   2.870
 1308SOL    HW2 3924   2.255   1.493   2.866
 1309SOL     OW 3925   3.322   1.505   3.201
 1309SOL    HW1 3926   3.346   1.599   3.227
 1309SOL    HW2 3927   3.306   1.451   3.283
 1310SOL     OW 3928   2.300   0.392   3.361
 1310SOL    HW1 3929   2.382   0.336   3.370
 1310SOL    HW2 3930   2.219   0.334   3.365
 1311SOL     OW 3931   3.465   0.447   2.599
 1311SOL    HW1 3932   3.391   0.493   2.549
 1311SOL    HW2 3933   3.516   0.515   2.652
 1312SOL     OW 3934   2.093   1.713   2.345
 1312SOL    HW1 3935   2.127   1.790   2.399
 1312SOL    HW2 3936   2.137   1.713   2.255
 1313SOL     OW 3937   2.989   1.341   3.552
 1313SOL    HW1 3938   3.036   1.341   3.640
 1313SOL    HW2 3939   2.941   1.254   3.541
 1314SOL     OW 3940   2.092   1.434   2.400
 1314SOL    HW1 3941   2.066   1.530   2.400
 1314SOL    HW2 3942   2.021   1.380   2.445
 1315SOL     OW 3943   2.102   1.091   2.748
 1315SOL    HW1 3944   2.116   1.007   2.800
 1315SOL    HW2 3945   2.047   1.155   2.803
 1316SOL     OW 3946   2.482   1.786   3.301
 1316SOL    HW1 3947   2.390   1.769   3.336
 1316SOL    HW2 3948   2.510   1.878   3.327
 1317SOL     OW 3949   2.468   0.964   1.985
 1317SOL    HW1 3950   2.475   1.048   1.931
 1317SOL    HW2 3951   2.514   0.977   2.073
 1318SOL     OW 3952   3.456   0.114   3.342
 1318SOL    HW1 3953   3.438   0.181   3.270
 1318SOL    HW2 3954   3.453   0.160   3.431
 1319SOL     OW 3955   1.984   0.643   2.425
 1319SOL    HW1 3956   1.939   0.555   2.442
 1319SOL    HW2 3957   1.983   0.697   2.509
 1320SOL     OW 3958   3.704   1.767   2.221
 1320SOL    HW1 3959   3.758   1.738   2.301
 1320SOL    HW2 3960   3.734   1.857   2.192
 1321SOL     OW 3961   1.889   1.596   1.979
 1321SOL    HW1 3962   1.870   1.500   2.000
 1321SOL    HW2 3963   1.856   1.654   2.054
 1322SOL     OW 3964   3.551   0.922   2.474
 1322SOL    HW1 3965   3.646   0.893   2.482
 1322SOL    HW2 3966   3.543   0.987   2.399
 1323SOL     OW 3967   3.503   1.108   2.294
 1323SOL    HW1 3968   3.589   1.110   2.242
 1323SOL    HW2 3969   3.517   1.155   2.382
 1324SOL     OW 3970   1.975   0.737   3.459
 1324SOL    HW1 3971   2.063   0.724   3.504
 1324SOL    HW2 3972   1.962   0.834   3.437
 1325SOL     OW 3973   2.475   1.365   2.588
 1325SOL    HW1 3974   2.426   1.278   2.597
 1325SOL    HW2 3975   2.452   1.408   2.501
 1326SOL     OW 3976   3.155   1.228   3.285
 1326SOL    HW1 3977   3.192   1.155   3.227
 1326SOL    HW2 3978   3.207   1.233   3.370
 1327SOL     OW 3979   2.671   0.004   2.364
 1327SOL    HW1 3980   2.711   0.095   2.355
 1327SOL    HW2 3981   2.571   0.012   2.370
 1328SOL     OW 3982   2.059   0.976   3.126
 1328SOL    HW1 3983   2.148   0.931   3.112
 1328SOL    HW2 3984   1.986   0.911   3.107
 1329SOL     OW 3985   3.387   0.999   2.052
 1329SOL    HW1 3986   3.324   0.923   2.065
 1329SOL    HW2 3987   3.435   1.017   2.138
 1330SOL     OW 3988   3.049   1.792   3.478
 1330SOL    HW1 3989   3.073   1.852   3.402
 1330SOL    HW2 3990   3.056   1.697   3.448
 1331SOL     OW 3991   2.179   0.251   3.663
 1331SOL    HW1 3992   2.250   0.322   3.669
 1331SOL    HW2 3993   2.091   0.290   3.691
 1332SOL     OW 3994   3.328   1.417   2.815
 1332SOL    HW1 3995   3.269   1.423   2.895
 1332SOL    HW2 3996   3.313   1.329   2.769
 1333SOL     OW 3997   3.529   1.714   2.434
 1333SOL    HW1 3998   3.488   1.691   2.346
 1333SOL    HW2 3999   3.511   1.640   2.499
 1334SOL     OW 4000   2.460   0.729   2.132
 1334SOL    HW1 4001   2.484   0.798   2.064
 1334SOL    HW2 4002   2.382   0.762   2.186
 1335SOL     OW 4003   3.143   0.345   2.806
 1335SOL    HW1 4004   3.057   0.295   2.793
 1335SOL    HW2 4005   3.205   0.291   2.862
 1336SOL     OW 4006   3.438   1.662   2.169
 1336SOL    HW1 4007   3.527   1.708   2.172
 1336SOL    HW2 4008   3.417   1.638   2.074
 1337SOL     OW 4009   2.669   0.605   3.327
 1337SOL    HW1 4010   2.622   0.602   3.416
 1337SOL    HW2 4011   2.618   0.550   3.261
 1338SOL     OW 4012   3.256   0.469   3.536
 1338SOL    HW1 4013   3.236   0.512   3.624
 1338SOL    HW2 4014   3.334   0.407   3.545
 1339SOL     OW 4015   2.835   0.890   3.434
 1339SOL    HW1 4016   2.881   0.806   3.405
 1339SOL    HW2 4017   2.779   0.924   3.359
 1340SOL     OW 4018   2.853   0.410   3.104
 1340SOL    HW1 4019   2.776   0.444   3.158
 1340SOL    HW2 4020   2.819   0.359   3.025
 1341SOL     OW 4021   2.903   0.701   2.291
 1341SOL    HW1 4022   2.929   0.697   2.387
 1341SOL    HW2 4023   2.818   0.650   2.277
 1342SOL     OW 4024   1.938   0.811   2.651
 1342SOL    HW1 4025   2.037   0.799   2.660
 1342SOL    HW2 4026   1.914   0.906   2.672
 1343SOL     OW 4027   1.992   1.821   3.433
 1343SOL    HW1 4028   1.982   1.806   3.532
 1343SOL    HW2 4029   1.906   1.857   3.397
 1344SOL     OW 4030   2.727   0.348   2.057
 1344SOL    HW1 4031   2.786   0.411   2.008
 1344SOL    HW2 4032   2.746   0.254   2.028
 1345SOL     OW 4033   3.581   0.585   3.693
 1345SOL    HW1 4034   3.555   0.674   3.657
 1345SOL    HW2 4035   3.579   0.517   3.620
 1346SOL     OW 4036   3.224   1.144   2.407
 1346SOL    HW1 4037   3.307   1.115   2.359
 1346SOL    HW2 4038   3.175   1.211   2.351
 1347SOL     OW 4039   2.412   0.196   2.747
 1347SOL    HW1 4040   2.407   0.191   2.847
 1347SOL    HW2 4041   2.414   0.292   2.718
 1348SOL     OW 4042   2.870   1.456   2.339
 1348SOL    HW1 4043   2.824   1.528   2.287
 1348SOL    HW2 4044   2.866   1.476   2.437
 1349SOL     OW 4045   2.213   1.801   2.715
 1349SOL    HW1 4046   2.263   1.715   2.721
 1349SOL    HW2 4047   2.278   1.878   2.712
 1350SOL     OW 4048   3.657   1.066   2.735
 1350SOL    HW1 4049   3.595   1.051   2.659
 1350SOL    HW2 4050   3.605   1.077   2.820
 1351SOL     OW 4051   3.089   1.550   3.368
 1351SOL    HW1 4052   3.095   1.473   3.432
 1351SOL    HW2 4053   3.037   1.524   3.288
 1352SOL     OW 4054   2.183   0.943   2.104
 1352SOL    HW1 4055   2.265   0.982   2.062
 1352SOL    HW2 4056   2.156   0.861   2.055
 1353SOL     OW 4057   3.320   0.735   2.590
 1353SOL    HW1 4058   3.315   0.670   2.665
 1353SOL    HW2 4059   3.400   0.794   2.603
 1354SOL     OW 4060   2.323   1.266   3.589
 1354SOL    HW1 4061   2.273   1.267   3.503
 1354SOL    HW2 4062   2.260   1.248   3.665
 1355SOL     OW 4063   2.973   1.776   2.099
 1355SOL    HW1 4064   2.913   1.714   2.149
 1355SOL    HW2 4065   3.004   1.732   2.014
 1356SOL     OW 4066   2.064   0.285   3.360
 1356SOL    HW1 4067   1.984   0.345   3.347
 1356SOL    HW2 4068   2.054   0.236   3.446
 1357SOL     OW 4069   3.494   1.377   1.943
 1357SOL    HW1 4070   3.462   1.471   1.933
 1357SOL    HW2 4071   3.418   1.314   1.931
 1358SOL     OW 4072   2.326   1.743   2.185
 1358SOL    HW1 4073   2.359   1.782   2.271
 1358SOL    HW2 4074   2.402   1.736   2.120
 1359SOL     OW 4075   3.262   0.107   2.288
 1359SOL    HW1 4076   3.238   0.070   2.198
 1359SOL    HW2 4077   3.361   0.123   2.292
 1360SOL     OW 4078   2.111   1.785   3.103
 1360SOL    HW1 4079   2.168   1.720   3.153
 1360SOL    HW2 4080   2.095   1.752   3.010
 1361SOL     OW 4081   2.802   1.698   2.766
 1361SOL    HW1 4082   2.882   1.641   2.787
 1361SOL    HW2 4083   2.753   1.658   2.689
 1362SOL     OW 4084   2.244   0.700   2.342
 1362SOL    HW1 4085   2.289   0.610   2.339
 1362SOL    HW2 4086   2.150   0.689   2.375
 1363SOL     OW 4087   3.409   0.222   3.591
 1363SOL    HW1 4088   3.404   0.259   3.683
 1363SOL    HW2 4089   3.337   0.153   3.579
 1364SOL     OW 4090   2.476   0.122   1.979
 1364SOL    HW1 4091   2.574   0.100   1.986
 1364SOL    HW2 4092   2.445   0.105   1.886
 1365SOL     OW 4093   2.643   0.264   3.611
 1365SOL    HW1 4094   2.710   0.203   3.654
 1365SOL    HW2 4095   2.570   0.283   3.676
 1366SOL     OW 4096   2.750   1.514   3.057
 1366SOL    HW1 4097   2.727   1.489   2.963
 1366SOL    HW2 4098   2.811   1.445   3.096
 1367SOL     OW 4099   3.213   0.590   3.295
 1367SOL    HW1 4100   3.241   0.547   3.380
 1367SOL    HW2 4101   3.238   0.686   3.296
 1368SOL     OW 4102   2.665   1.402   2.786
 1368SOL    HW1 4103   2.755   1.416   2.744
 1368SOL    HW2 4104   2.594   1.404   2.715
 1369SOL     OW 4105   2.784   0.503   2.761
 1369SOL    HW1 4106   2.759   0.494   2.665
 1369SOL    HW2 4107   2.832   0.421   2.792
 1370SOL     OW 4108   2.401   0.064   2.374
 1370SOL    HW1 4109   2.320   0.065   2.432
 1370SOL    HW2 4110   2.404   0.147   2.319
 1371SOL     OW 4111   3.296   1.188   1.903
 1371SOL    HW1 4112   3.328   1.112   1.960
 1371SOL    HW2 4113   3.204   1.215   1.933
 1372SOL     OW 4114   2.159   0.035   2.033
 1372SOL    HW1 4115   2.208   0.119   2.012
 1372SOL    HW2 4116   2.221  -0.030   2.078
 1373SOL     OW 4117   2.797   0.236   2.342
 1373SOL    HW1 4118   2.749   0.277   2.264
 1373SOL    HW2 4119   2.896   0.234   2.323
 1374SOL     OW 4120   2.938   0.683   3.326
 1374SOL    HW1 4121   2.858   0.622   3.329
 1374SOL    HW2 4122   3.019   0.630   3.302
 1375SOL     OW 4123   3.089   1.570   2.655
 1375SOL    HW1 4124   3.110   1.644   2.590
 1375SOL    HW2 4125   3.157   1.570   2.728
 1376SOL     OW 4126   2.321   1.152   2.603
 1376SOL    HW1 4127   2.250   1.125   2.668
 1376SOL    HW2 4128   2.295   1.124   2.510
 1377SOL     OW 4129   3.133   1.797   2.453
 1377SOL    HW1 4130   3.177   1.861   2.389
 1377SOL    HW2 4131   3.083   1.849   2.523
 1378SOL     OW 4132   2.894   0.549   1.878
 1378SOL    HW1 4133   2.853   0.631   1.839
 1378SOL    HW2 4134   2.958   0.575   1.951
 1379SOL     OW 4135   1.940   0.556   3.248
 1379SOL    HW1 4136   2.032   0.555   3.207
 1379SOL    HW2 4137   1.934   0.630   3.315
 1380SOL     OW 4138   2.423   0.222   3.009
 1380SOL    HW1 4139   2.461   0.138   3.046
 1380SOL    HW2 4140   2.335   0.241   3.053
 1381SOL     OW 4141   2.728   0.454   2.504
 1381SOL    HW1 4142   2.696   0.526   2.442
 1381SOL    HW2 4143   2.752   0.373   2.451
 1382SOL     OW 4144   2.879   0.039   2.615
 1382SOL    HW1 4145   2.807   0.044   2.546
 1382SOL    HW2 4146   2.855  -0.030   2.684
 1383SOL     OW 4147   3.291   1.173   2.729
 1383SOL    HW1 4148   3.236   1.089   2.722
 1383SOL    HW2 4149   3.317   1.202   2.637
 1384SOL     OW 4150   3.328   0.590   2.854
 1384SOL    HW1 4151   3.298   0.495   2.861
 1384SOL    HW2 4152   3.401   0.606   2.920
 1385SOL     OW 4153   3.719   0.833   2.239
 1385SOL    HW1 4154   3.761   0.769   2.303
 1385SOL    HW2 4155   3.681   0.782   2.161
 1386SOL     OW 4156   2.350   1.385   2.036
 1386SOL    HW1 4157   2.263   1.370   2.083
 1386SOL    HW2 4158   2.333   1.411   1.941
 1387SOL     OW 4159   3.526   1.280   2.519
 1387SOL    HW1 4160   3.625   1.288   2.533
 1387SOL    HW2 4161   3.481   1.364   2.550
 1388SOL     OW 4162   3.252   0.575   1.940
 1388SOL    HW1 4163   3.198   0.554   2.021
 1388SOL    HW2 4164   3.343   0.534   1.949
 1389SOL     OW 4165   2.389   0.256   2.190
 1389SOL    HW1 4166   2.416   0.197   2.115
 1389SOL    HW2 4167   2.389   0.351   2.159
 1390SOL     OW 4168   3.616   1.223   3.450
 1390SOL    HW1 4169   3.707   1.184   3.437
 1390SOL    HW2 4170   3.624   1.319   3.474
 1391SOL     OW 4171   2.926   1.347   3.202
 1391SOL    HW1 4172   2.846   1.324   3.257
 1391SOL    HW2 4173   3.009   1.321   3.251
 1392SOL     OW 4174   3.454   1.629   3.487
 1392SOL    HW1 4175   3.481   1.663   3.397
 1392SOL    HW2 4176   3.533   1.591   3.533
 1393SOL     OW 4177   2.973   1.195   2.962
 1393SOL    HW1 4178   2.933   1.239   3.043
 1393SOL    HW2 4179   2.932   1.232   2.879
 1394SOL     OW 4180   3.500   1.099   2.941
 1394SOL    HW1 4181   3.505   1.180   3.000
 1394SOL    HW2 4182   3.414   1.101   2.890
 1395SOL     OW 4183   2.777   0.089   3.264
 1395SOL    HW1 4184   2.802   0.069   3.169
 1395SOL    HW2 4185   2.849   0.145   3.306
 1396SOL     OW 4186   2.842   1.116   3.581
 1396SOL    HW1 4187   2.743   1.122   3.591
 1396SOL    HW2 4188   2.865   1.036   3.525
 1397SOL     OW 4189   2.567   1.050   2.230
 1397SOL    HW1 4190   2.553   1.057   2.329
 1397SOL    HW2 4191   2.651   0.999   2.212
 1398SOL     OW 4192   2.272   0.813   3.113
 1398SOL    HW1 4193   2.358   0.825   3.163
 1398SOL    HW2 4194   2.230   0.726   3.140
 1399SOL     OW 4195   3.136   0.386   3.124
 1399SOL    HW1 4196   3.157   0.460   3.188
 1399SOL    HW2 4197   3.047   0.403   3.081
 1400SOL     OW 4198   1.926   1.564   3.193
 1400SOL    HW1 4199   1.880   1.646   3.159
 1400SOL    HW2 4200   2.024   1.583   3.202
 1401SOL     OW 4201   2.229   1.100   2.363
 1401SOL    HW1 4202   2.222   1.183   2.307
 1401SOL    HW2 4203   2.233   1.020   2.303
 1402SOL     OW 4204   2.428   0.537   2.727
 1402SOL    HW1 4205   2.440   0.603   2.653
 1402SOL    HW2 4206   2.474   0.571   2.810
 1403SOL     OW 4207   3.114   1.348   2.250
 1403SOL    HW1 4208   3.164   1.425   2.290
 1403SOL    HW2 4209   3.019   1.350   2.282
 1404SOL     OW 4210   3.134   1.445   3.004
 1404SOL    HW1 4211   3.181   1.458   3.091
 1404SOL    HW2 4212   3.068   1.371   3.013
 1405SOL     OW 4213   3.444   0.639   2.334
 1405SOL    HW1 4214   3.413   0.700   2.407
 1405SOL    HW2 4215   3.494   0.691   2.265
 1406SOL     OW 4216   2.216   1.510   3.191
 1406SOL    HW1 4217   2.195   1.466   3.104
 1406SOL    HW2 4218   2.313   1.536   3.194
 1407SOL     OW 4219   2.264   0.751   3.460
 1407SOL    HW1 4220   2.332   0.806   3.413
 1407SOL    HW2 4221   2.304   0.663   3.487
 1408SOL     OW 4222   3.449   0.779   3.532
 1408SOL    HW1 4223   3.357   0.817   3.527
 1408SOL    HW2 4224   3.509   0.826   3.467
 1409SOL     OW 4225   2.875   0.105   3.632
 1409SOL    HW1 4226   2.881   0.190   3.580
 1409SOL    HW2 4227   2.907   0.029   3.575
 1410SOL     OW 4228   2.366   0.050   3.602
 1410SOL    HW1 4229   2.324  -0.007   3.532
 1410SOL    HW2 4230   2.300   0.119   3.634
 1411SOL     OW 4231   2.435   0.870   2.891
 1411SOL    HW1 4232   2.479   0.959   2.882
 1411SOL    HW2 4233   2.372   0.870   2.968
 1412SOL     OW 4234   3.222   0.862   2.907
 1412SOL    HW1 4235   3.147   0.862   2.841
 1412SOL    HW2 4236   3.259   0.770   2.916
 1413SOL     OW 4237   3.071   0.525   2.137
 1413SOL    HW1 4238   3.084   0.441   2.191
 1413SOL    HW2 4239   3.042   0.599   2.197
 1414SOL     OW 4240   2.169   0.213   3.093
 1414SOL    HW1 4241   2.146   0.250   3.183
 1414SOL    HW2 4242   2.139   0.118   3.087
 1415SOL     OW 4243   1.899   1.310   3.144
 1415SOL    HW1 4244   1.952   1.261   3.212
 1415SOL    HW2 4245   1.921   1.408   3.149
 1416SOL     OW 4246   2.594   0.634   2.926
 1416SOL    HW1 4247   2.653   0.608   2.850
 1416SOL    HW2 4248   2.566   0.730   2.915
 1417SOL     OW 4249   3.590   0.935   3.716
 1417SOL    HW1 4250   3.544   0.928   3.627
 1417SOL    HW2 4251   3.528   0.979   3.782
 1418SOL     OW 4252   2.169   0.063   2.480
 1418SOL    HW1 4253   2.158   0.157   2.513
 1418SOL    HW2 4254   2.164   0.000   2.557
 1419SOL     OW 4255   3.484   0.367   2.236
 1419SOL    HW1 4256   3.486   0.291   2.300
 1419SOL    HW2 4257   3.436   0.444   2.276
 1420SOL     OW 4258   2.885   0.766   2.828
 1420SOL    HW1 4259   2.900   0.787   2.924
 1420SOL    HW2 4260   2.855   0.671   2.819
 1421SOL     OW 4261   2.842   1.573   3.562
 1421SOL    HW1 4262   2.822   1.617   3.474
 1421SOL    HW2 4263   2.881   1.482   3.546
 1422SOL     OW 4264   3.721   1.518   3.467
 1422SOL    HW1 4265   3.735   1.545   3.372
 1422SOL    HW2 4266   3.804   1.540   3.520
 1423SOL     OW 4267   2.212   0.898   3.666
 1423SOL    HW1 4268   2.288   0.942   3.714
 1423SOL    HW2 4269   2.247   0.851   3.584
 1424SOL     OW 4270   3.402   0.274   1.987
 1424SOL    HW1 4271   3.341   0.199   2.010
 1424SOL    HW2 4272   3.424   0.326   2.070
 1425SOL     OW 4273   3.165   0.838   1.904
 1425SOL    HW1 4274   3.199   0.745   1.919
 1425SOL    HW2 4275   3.183   0.865   1.809
 1426SOL     OW 4276   2.930   1.333   2.711
 1426SOL    HW1 4277   2.937   1.249   2.656
 1426SOL    HW2 4278   2.992   1.402   2.675
 1427SOL     OW 4279   2.181   0.810   2.811
 1427SOL    HW1 4280   2.274   0.846   2.816
 1427SOL    HW2 4281   2.175   0.725   2.863
 1428SOL     OW 4282   2.201   0.509   2.868
 1428SOL    HW1 4283   2.149   0.426   2.851
 1428SOL    HW2 4284   2.278   0.514   2.804
 1429SOL     OW 4285   3.000   0.380   3.540
 1429SOL    HW1 4286   2.955   0.443   3.604
 1429SOL    HW2 4287   3.093   0.411   3.523
 1430SOL     OW 4288   3.022   0.207   3.339
 1430SOL    HW1 4289   3.022   0.271   3.416
 1430SOL    HW2 4290   3.050   0.255   3.256
 1431SOL     OW 4291   1.870   1.326   2.062
 1431SOL    HW1 4292   1.777   1.347   2.031
 1431SOL    HW2 4293   1.880   1.227   2.075
 1432SOL     OW 4294   1.950   1.801   2.789
 1432SOL    HW1 4295   1.908   1.715   2.762
 1432SOL    HW2 4296   2.044   1.804   2.755
 1433SOL     OW 4297   2.366   1.568   2.772
 1433SOL    HW1 4298   2.432   1.642   2.781
 1433SOL    HW2 4299   2.410   1.489   2.730
 1434SOL     OW 4300   2.864   0.796   3.100
 1434SOL    HW1 4301   2.905   0.764   3.186
 1434SOL    HW2 4302   2.768   0.769   3.097
 1435SOL     OW 4303   1.902   0.544   2.976
 1435SOL    HW1 4304   1.987   0.511   2.935
 1435SOL    HW2 4305   1.915   0.559   3.074
 1436SOL     OW 4306   2.051   0.520   3.584
 1436SOL    HW1 4307   2.110   0.480   3.514
 1436SOL    HW2 4308   1.993   0.591   3.543
 1437SOL     OW 4309   3.231   0.950   3.522
 1437SOL    HW1 4310   3.270   1.039   3.542
 1437SOL    HW2 4311   3.241   0.930   3.425
 1438SOL     OW 4312   2.677   0.572   2.187
 1438SOL    HW1 4313   2.684   0.483   2.141
 1438SOL    HW2 4314   2.583   0.606   2.179
 1439SOL     OW 4315   3.519   0.604   3.068
 1439SOL    HW1 4316   3.481   0.535   3.130
 1439SOL    HW2 4317   3.601   0.568   3.024
 1440SOL     OW 4318   2.114   1.564   3.606
 1440SOL    HW1 4319   2.084   1.621   3.682
 1440SOL    HW2 4320   2.107   1.467   3.632
 1441SOL     OW 4321   2.533   0.464   3.131
 1441SOL    HW1 4322   2.499   0.375   3.101
 1441SOL    HW2 4323   2.559   0.518   3.051
 1442SOL     OW 4324   2.792   1.678   3.327
 1442SOL    HW1 4325   2.768   1.660   3.232
 1442SOL    HW2 4326   2.822   1.772   3.337
 1443SOL     OW 4327   2.335   0.500   2.053
 1443SOL    HW1 4328   2.396   0.580   2.057
 1443SOL    HW2 4329   2.240   0.531   2.060
 1444SOL     OW 4330   2.021   1.137   3.328
 1444SOL    HW1 4331   2.043   1.076   3.404
 1444SOL    HW2 4332   2.031   1.088   3.242
 1445SOL     OW 4333   3.209   1.059   3.096
 1445SOL    HW1 4334   3.233   0.996   3.022
 1445SOL    HW2 4335   3.119   1.099   3.078
 1446SOL     OW 4336   3.164   0.855   2.171
 1446SOL    HW1 4337   3.078   0.824   2.213
 1446SOL    HW2 4338   3.160   0.841   2.072
 1447SOL     OW 4339   3.621   1.747   3.016
 1447SOL    HW1 4340   3.682   1.777   2.943
 1447SOL    HW2 4341   3.583   1.658   2.994
 1448SOL     OW 4342   3.114   1.731   2.990
 1448SOL    HW1 4343   3.198   1.736   2.936
 1448SOL    HW2 4344   3.091   1.635   3.008
 1449SOL     OW 4345   1.945   1.258   2.884
 1449SOL    HW1 4346   1.940   1.257   2.984
 1449SOL    HW2 4347   1.862   1.217   2.846
 1450SOL     OW 4348   2.550   1.662   3.578
 1450SOL    HW1 4349   2.494   1.743   3.587
 1450SOL    HW2 4350   2.602   1.666   3.492
 1451SOL     OW 4351   3.588   0.135   2.385
 1451SOL    HW1 4352   3.661   0.118   2.318
 1451SOL    HW2 4353   3.557   0.048   2.423
 1452SOL     OW 4354   3.250   1.573   2.339
 1452SOL    HW1 4355   3.317   1.585   2.265
 1452SOL    HW2 4356   3.210   1.662   2.362
 1453SOL     OW 4357   1.992   1.794   3.713
 1453SOL    HW1 4358   1.951   1.720   3.766
 1453SOL    HW2 4359   2.056   1.845   3.771
 1454SOL     OW 4360   3.142   0.927   2.534
 1454SOL    HW1 4361   3.202   0.846   2.536
 1454SOL    HW2 4362   3.182   0.996   2.474
 1455SOL     OW 4363   2.692   1.273   3.284
 1455SOL    HW1 4364   2.687   1.306   3.379
 1455SOL    HW2 4365   2.606   1.292   3.238
 1456SOL     OW 4366   2.534   1.616   2.016
 1456SOL    HW1 4367   2.543   1.626   1.917
 1456SOL    HW2 4368   2.494   1.527   2.037
 1457SOL     OW 4369   3.512   1.720   3.256
 1457SOL    HW1 4370   3.565   1.730   3.172
 1457SOL    HW2 4371   3.485   1.810   3.290
 1458SOL     OW 4372   3.703   0.175   2.825
 1458SOL    HW1 4373   3.742   0.090   2.789
 1458SOL    HW2 4374   3.605   0.177   2.806
 1459SOL     OW 4375   2.125   0.326   2.582
 1459SOL    HW1 4376   2.046   0.377   2.548
 1459SOL    HW2 4377   2.116   0.311   2.680
 1460SOL     OW 4378   3.056   1.612   1.893
 1460SOL    HW1 4379   3.062   1.519   1.930
 1460SOL    HW2 4380   2.997   1.612   1.813
 1461SOL     OW 4381   2.684   1.002   3.234
 1461SOL    HW1 4382   2.724   1.001   3.142
 1461SOL    HW2 4383   2.694   1.094   3.274
 1462SOL     OW 4384   2.778   0.910   2.153
 1462SOL    HW1 4385   2.841   0.948   2.085
 1462SOL    HW2 4386   2.818   0.827   2.192
 1463SOL     OW 4387   3.366   1.607   1.906
 1463SOL    HW1 4388   3.274   1.644   1.913
 1463SOL    HW2 4389   3.404   1.627   1.816
 1464SOL     OW 4390   2.234   1.288   3.352
 1464SOL    HW1 4391   2.221   1.381   3.318
 1464SOL    HW2 4392   2.150   1.236   3.339
 1465SOL     OW 4393   3.476   1.292   3.151
 1465SOL    HW1 4394   3.536   1.295   3.231
 1465SOL    HW2 4395   3.401   1.356   3.164
 1466SOL     OW 4396   2.901   1.098   2.558
 1466SOL    HW1 4397   2.831   1.051   2.612
 1466SOL    HW2 4398   2.960   1.030   2.515
 1467SOL     OW 4399   2.876   0.236   2.833
 1467SOL    HW1 4400   2.868   0.200   2.740
 1467SOL    HW2 4401   2.874   0.160   2.898
 1468SOL     OW 4402   2.452   1.487   2.353
 1468SOL    HW1 4403   2.494   1.429   2.283
 1468SOL    HW2 4404   2.408   1.566   2.309
 1469SOL     OW 4405   3.571   0.385   3.243
 1469SOL    HW1 4406   3.644   0.454   3.247
 1469SOL    HW2 4407   3.599   0.310   3.184
 1470SOL     OW 4408   2.117   1.348   2.152
 1470SOL    HW1 4409   2.021   1.349   2.125
 1470SOL    HW2 4410   2.129   1.401   2.236
 1471SOL     OW 4411   1.967   1.013   3.588
 1471SOL    HW1 4412   1.890   0.980   3.642
 1471SOL    HW2 4413   2.052   0.983   3.630
 1472SOL     OW 4414   2.534   0.203   3.351
 1472SOL    HW1 4415   2.624   0.187   3.311
 1472SOL    HW2 4416   2.542   0.208   3.450
 1473SOL     OW 4417   1.937   0.345   1.895
 1473SOL    HW1 4418   1.845   0.317   1.866
 1473SOL    HW2 4419   1.968   0.422   1.839
 1474SOL     OW 4420   3.302   0.856   3.260
 1474SOL    HW1 4421   3.245   0.908   3.197
 1474SOL    HW2 4422   3.398   0.868   3.236
 1475SOL     OW 4423   1.934   0.166   2.180
 1475SOL    HW1 4424   1.917   0.249   2.126
 1475SOL    HW2 4425   2.024   0.129   2.158
 1476SOL     OW 4426   3.045   1.335   1.981
 1476SOL    HW1 4427   2.946   1.324   1.983
 1476SOL    HW2 4428   3.079   1.350   2.074
 1477SOL     OW 4429   2.475   0.842   3.293
 1477SOL    HW1 4430   2.531   0.923   3.276
 1477SOL    HW2 4431   2.534   0.762   3.296
 1478SOL     OW 4432   3.355   1.767   2.821
 1478SOL    HW1 4433   3.388   1.831   2.752
 1478SOL    HW2 4434   3.421   1.761   2.896
 1479SOL     OW 4435   2.578   0.565   3.570
 1479SOL    HW1 4436   2.597   0.630   3.644
 1479SOL    HW2 4437   2.638   0.485   3.579
 1480SOL     OW 4438   3.312   1.220   3.495
 1480SOL    HW1 4439   3.303   1.210   3.594
 1480SOL    HW2 4440   3.408   1.213   3.469
 1481SOL     OW 4441   2.252   1.741   3.422
 1481SOL    HW1 4442   2.161   1.782   3.420
 1481SOL    HW2 4443   2.245   1.647   3.454
 1482SOL     OW 4444   3.536   0.883   3.116
 1482SOL    HW1 4445   3.509   0.794   3.079
 1482SOL    HW2 4446   3.537   0.951   3.043
 1483SOL     OW 4447   3.087   0.325   2.311
 1483SOL    HW1 4448   3.152   0.251   2.300
 1483SOL    HW2 4449   3.107   0.375   2.395
 1484SOL     OW 4450   2.456   0.745   2.514
 1484SOL    HW1 4451   2.506   0.830   2.495
 1484SOL    HW2 4452   2.368   0.747   2.466
 1485SOL     OW 4453   3.639   0.342   3.504
 1485SOL    HW1 4454   3.622   0.373   3.410
 1485SOL    HW2 4455   3.555   0.305   3.542
 1486SOL     OW 4456   3.592   0.934   3.379
 1486SOL    HW1 4457   3.630   1.025   3.394
 1486SOL    HW2 4458   3.584   0.917   3.280
 1487SOL     OW 4459   2.721   1.374   1.878
 1487SOL    HW1 4460   2.675   1.389   1.966
 1487SOL    HW2 4461   2.765   1.459   1.848
 1488SOL     OW 4462   2.523   1.790   2.815
 1488SOL    HW1 4463   2.477   1.878   2.802
 1488SOL    HW2 4464   2.622   1.802   2.808
 1489SOL     OW 4465   2.721   0.956   2.723
 1489SOL    HW1 4466   2.775   0.887   2.771
 1489SOL    HW2 4467   2.689   1.025   2.789
 1490SOL     OW 4468   2.945   0.984   1.949
 1490SOL    HW1 4469   2.922   1.037   1.867
 1490SOL    HW2 4470   3.026   0.928   1.930
 1491SOL     OW 4471   3.723   1.569   2.713
 1491SOL    HW1 4472   3.652   1.557   2.643
 1491SOL    HW2 4473   3.724   1.490   2.773
 1492SOL     OW 4474   2.083   1.314   3.706
 1492SOL    HW1 4475   2.018   1.241   3.685
 1492SOL    HW2 4476   2.087   1.328   3.804
 1493SOL     OW 4477   1.941   1.240   2.515
 1493SOL    HW1 4478   1.940   1.193   2.603
 1493SOL    HW2 4479   2.023   1.212   2.464
 1494SOL     OW 4480   2.534   1.391   3.486
 1494SOL    HW1 4481   2.456   1.341   3.524
 1494SOL    HW2 4482   2.531   1.486   3.517
 1495SOL     OW 4483   3.686   0.192   3.089
 1495SOL    HW1 4484   3.682   0.102   3.133
 1495SOL    HW2 4485   3.689   0.181   2.990
 1496SOL     OW 4486   2.290   0.424   2.382
 1496SOL    HW1 4487   2.320   0.352   2.320
 1496SOL    HW2 4488   2.251   0.384   2.465
 1497SOL     OW 4489   3.567   1.487   2.966
 1497SOL    HW1 4490   3.474   1.462   2.939
 1497SOL    HW2 4491   3.593   1.437   3.048
 1498SOL     OW 4492   2.179   0.547   3.142
 1498SOL    HW1 4493   2.217   0.488   3.214
 1498SOL    HW2 4494   2.219   0.521   3.054
 1499SOL     OW 4495   2.674   1.586   2.549
 1499SOL    HW1 4496   2.706   1.596   2.455
 1499SOL    HW2 4497   2.595   1.524   2.551
 1500SOL     OW 4498   3.286   0.214   2.974
 1500SOL    HW1 4499   3.338   0.149   3.029
 1500SOL    HW2 4500   3.237   0.277   3.035
 1501SOL     OW 4501   2.863   0.034   3.016
 1501SOL    HW1 4502   2.800  -0.038   2.985
 1501SOL    HW2 4503   2.956  -0.002   3.016
 1502SOL     OW 4504   2.632   1.330   2.163
 1502SOL    HW1 4505   2.586   1.243   2.180
 1502SOL    HW2 4506   2.723   1.327   2.204
 1503SOL     OW 4507   2.480   1.567   3.146
 1503SOL    HW1 4508   2.475   1.649   3.203
 1503SOL    HW2 4509   2.569   1.564   3.101
 1504SOL     OW 4510   3.214   0.052   2.030
 1504SOL    HW1 4511   3.249   0.011   1.946
 1504SOL    HW2 4512   3.124   0.014   2.050
 1505SOL     OW 4513   3.162   0.453   2.553
 1505SOL    HW1 4514   3.103   0.533   2.557
 1505SOL    HW2 4515   3.177   0.418   2.646
 1506SOL     OW 4516   3.455   0.221   2.744
 1506SOL    HW1 4517   3.371   0.220   2.798
 1506SOL    HW2 4518   3.457   0.304   2.688
 1507SOL     OW 4519   1.901   1.077   2.162
 1507SOL    HW1 4520   2.000   1.066   2.153
 1507SOL    HW2 4521   1.861   0.991   2.194
 1508SOL     OW 4522   2.737   1.646   2.199
 1508SOL    HW1 4523   2.660   1.611   2.145
 1508SOL    HW2 4524   2.705   1.717   2.261
 1509SOL     OW 4525   2.092   0.628   3.837
 1509SOL    HW1 4526   1.999   0.626   3.874
 1509SOL    HW2 4527   2.093   0.589   3.745
 1510SOL     OW 4528   3.617   0.607   3.955
 1510SOL    HW1 4529   3.605   0.594   3.856
 1510SOL    HW2 4530   3.587   0.526   4.004
 1511SOL     OW 4531   2.093   1.713   4.207
 1511SOL    HW1 4532   2.127   1.790   4.261
 1511SOL    HW2 4533   2.137   1.713   4.117
 1512SOL     OW 4534   2.092   1.434   4.262
 1512SOL    HW1 4535   2.066   1.530   4.262
 1512SOL    HW2 4536   2.021   1.380   4.307
 1513SOL     OW 4537   2.468   0.964   3.847
 1513SOL    HW1 4538   2.475   1.048   3.793
 1513SOL    HW2 4539   2.514   0.977   3.935
 1514SOL     OW 4540   3.704   1.767   4.083
 1514SOL    HW1 4541   3.758   1.738   4.163
 1514SOL    HW2 4542   3.734   1.857   4.054
 1515SOL     OW 4543   1.889   1.596   3.841
 1515SOL    HW1 4544   1.870   1.500   3.862
 1515SOL    HW2 4545   1.856   1.654   3.916
 1516SOL     OW 4546   3.551   0.922   4.336
 1516SOL    HW1 4547   3.646   0.893   4.344
 1516SOL    HW2 4548   3.543   0.987   4.261
 1517SOL     OW 4549   3.503   1.108   4.156
 1517SOL    HW1 4550   3.589   1.110   4.104
 1517SOL    HW2 4551   3.517   1.155   4.244
 1518SOL     OW 4552   3.387   0.999   3.914
 1518SOL    HW1 4553   3.324   0.923   3.927
 1518SOL    HW2 4554   3.435   1.017   4.000
 1519SOL     OW 4555   2.460   0.729   3.994
 1519SOL    HW1 4556   2.484   0.798   3.926
 1519SOL    HW2 4557   2.382   0.762   4.048
 1520SOL     OW 4558   2.727   0.348   3.919
 1520SOL    HW1 4559   2.786   0.411   3.870
 1520SOL    HW2 4560   2.746   0.254   3.890
 1521SOL     OW 4561   2.183   0.943   3.966
 1521SOL    HW1 4562   2.265   0.982   3.924
 1521SOL    HW2 4563   2.156   0.861   3.917
 1522SOL     OW 4564   3.320   0.735   4.452
 1522SOL    HW1 4565   3.315   0.670   4.527
 1522SOL    HW2 4566   3.400   0.794   4.465
 1523SOL     OW 4567   2.973   1.776   3.961
 1523SOL    HW1 4568   2.913   1.714   4.011
 1523SOL    HW2 4569   3.004   1.732   3.876
 1524SOL     OW 4570   3.494   1.377   3.805
 1524SOL    HW1 4571   3.462   1.471   3.795
 1524SOL    HW2 4572   3.418   1.314   3.793
 1525SOL     OW 4573   2.326   1.743   4.047
 1525SOL    HW1 4574   2.359   1.782   4.133
 1525SOL    HW2 4575   2.402   1.736   3.982
 1526SOL     OW 4576   3.262   0.107   4.150
 1526SOL    HW1 4577   3.238   0.070   4.060
 1526SOL    HW2 4578   3.361   0.123   4.154
 1527SOL     OW 4579   2.476   0.122   3.841
 1527SOL    HW1 4580   2.574   0.100   3.848
 1527SOL    HW2 4581   2.445   0.105   3.748
 1528SOL     OW 4582   3.296   1.188   3.765
 1528SOL    HW1 4583   3.328   1.112   3.822
 1528SOL    HW2 4584   3.204   1.215   3.795
 1529SOL     OW 4585   2.159   0.035   3.895
 1529SOL    HW1 4586   2.208   0.119   3.874
 1529SOL    HW2 4587   2.221  -0.030   3.940
 1530SOL     OW 4588   2.797   0.236   4.204
 1530SOL    HW1 4589   2.749   0.277   4.126
 1530SOL    HW2 4590   2.896   0.234   4.185
 1531SOL     OW 4591   2.894   0.549   3.740
 1531SOL    HW1 4592   2.853   0.631   3.701
 1531SOL    HW2 4593   2.958   0.575   3.813
 1532SOL     OW 4594   3.719   0.833   4.101
 1532SOL    HW1 4595   3.761   0.769   4.165
 1532SOL    HW2 4596   3.681   0.782   4.023
 1533SOL     OW 4597   2.350   1.385   3.898
 1533SOL    HW1 4598   2.263   1.370   3.945
 1533SOL    HW2 4599   2.333   1.411   3.803
 1534SOL     OW 4600   3.252   0.575   3.802
 1534SOL    HW1 4601   3.198   0.554   3.883
 1534SOL    HW2 4602   3.343   0.534   3.811
 1535SOL     OW 4603   2.389   0.256   4.052
 1535SOL    HW1 4604   2.416   0.197   3.977
 1535SOL    HW2 4605   2.389   0.351   4.021
 1536SOL     OW 4606   2.229   1.100   4.225
 1536SOL    HW1 4607   2.222   1.183   4.169
 1536SOL    HW2 4608   2.233   1.020   4.165
 1537SOL     OW 4609   3.114   1.348   4.112
 1537SOL    HW1 4610   3.164   1.425   4.152
 1537SOL    HW2 4611   3.019   1.350   4.144
 1538SOL     OW 4612   3.444   0.639   4.196
 1538SOL    HW1 4613   3.413   0.700   4.269
 1538SOL    HW2 4614   3.494   0.691   4.127
 1539SOL     OW 4615   3.071   0.525   3.999
 1539SOL    HW1 4616   3.084   0.441   4.053
 1539SOL    HW2 4617   3.042   0.599   4.059
 1540SOL     OW 4618   3.484   0.367   4.098
 1540SOL    HW1 4619   3.486   0.291   4.162
 1540SOL    HW2 4620   3.436   0.444   4.138
 1541SOL     OW 4621   3.402   0.274   3.849
 1541SOL    HW1 4622   3.341   0.199   3.872
 1541SOL    HW2 4623   3.424   0.326   3.932
 1542SOL     OW 4624   3.165   0.838   3.766
 1542SOL    HW1 4625   3.199   0.745   3.781
 1542SOL    HW2 4626   3.183   0.865   3.671
 1543SOL     OW 4627   1.870   1.326   3.924
 1543SOL    HW1 4628   1.777   1.347   3.893
 1543SOL    HW2 4629   1.880   1.227   3.937
 1544SOL     OW 4630   2.677   0.572   4.049
 1544SOL    HW1 4631   2.684   0.483   4.003
 1544SOL    HW2 4632   2.583   0.606   4.041
 1545SOL     OW 4633   2.335   0.500   3.915
 1545SOL    HW1 4634   2.396   0.580   3.919
 1545SOL    HW2 4635   2.240   0.531   3.922
 1546SOL     OW 4636   3.588   0.135   4.247
 1546SOL    HW1 4637   3.661   0.118   4.180
 1546SOL    HW2 4638   3.557   0.048   4.285
 1547SOL     OW 4639   2.534   1.616   3.878
 1547SOL    HW1 4640   2.543   1.626   3.779
 1547SOL    HW2 4641   2.494   1.527   3.899
 1548SOL     OW 4642   2.125   0.326   4.444
 1548SOL    HW1 4643   2.046   0.377   4.410
 1548SOL    HW2 4644   2.116   0.311   4.542
 1549SOL     OW 4645   3.056   1.612   3.755
 1549SOL    HW1 4646   3.062   1.519   3.792
 1549SOL    HW2 4647   2.997   1.612   3.675
 1550SOL     OW 4648   2.778   0.910   4.015
 1550SOL    HW1 4649   2.841   0.948   3.947
 1550SOL    HW2 4650   2.818   0.827   4.054
 1551SOL     OW 4651   3.366   1.607   3.768
 1551SOL    HW1 4652   3.274   1.644   3.775
 1551SOL    HW2 4653   3.404   1.627   3.678
 1552SOL     OW 4654   2.117   1.348   4.014
 1552SOL    HW1 4655   2.021   1.349   3.987
 1552SOL    HW2 4656   2.129   1.401   4.098
 1553SOL     OW 4657   1.937   0.345   3.757
 1553SOL    HW1 4658   1.845   0.317   3.728
 1553SOL    HW2 4659   1.968   0.422   3.701
 1554SOL     OW 4660   1.934   0.166   4.042
 1554SOL    HW1 4661   1.917   0.249   3.988
 1554SOL    HW2 4662   2.024   0.129   4.020
 1555SOL     OW 4663   3.045   1.335   3.843
 1555SOL    HW1 4664   2.946   1.324   3.845
 1555SOL    HW2 4665   3.079   1.350   3.936
 1556SOL     OW 4666   3.087   0.325   4.173
 1556SOL    HW1 4667   3.152   0.251   4.162
 1556SOL    HW2 4668   3.107   0.375   4.257
 1557SOL     OW 4669   2.721   1.374   3.740
 1557SOL    HW1 4670   2.675   1.389   3.828
 1557SOL    HW2 4671   2.765   1.459   3.710
 1558SOL     OW 4672   2.945   0.984   3.811
 1558SOL    HW1 4673   2.922   1.037   3.729
 1558SOL    HW2 4674   3.026   0.928   3.792
 1559SOL     OW 4675   3.214   0.052   3.892
 1559SOL    HW1 4676   3.249   0.011   3.808
 1559SOL    HW2 4677   3.124   0.014   3.912
 1560SOL     OW 4678   1.901   1.077   4.024
 1560SOL    HW1 4679   2.000   1.066   4.015
 1560SOL    HW2 4680   1.861   0.991   4.056
 1561SOL     OW 4681   2.737   1.646   4.061
 1561SOL    HW1 4682   2.660   1.611   4.007
 1561SOL    HW2 4683   2.705   1.717   4.123
 1562SOL     OW 4684   2.092   2.490   0.113
 1562SOL    HW1 4685   1.999   2.488   0.150
 1562SOL    HW2 4686   2.093   2.451   0.021
 1563SOL     OW 4687   2.087   2.137   0.996
 1563SOL    HW1 4688   2.122   2.120   1.088
 1563SOL    HW2 4689   1.999   2.092   0.984
 1564SOL     OW 4690   1.881   2.230   0.647
 1564SOL    HW1 4691   1.799   2.273   0.686
 1564SOL    HW2 4692   1.853   2.157   0.584
 1565SOL     OW 4693   2.431   3.137   1.165
 1565SOL    HW1 4694   2.338   3.130   1.128
 1565SOL    HW2 4695   2.442   3.226   1.209
 1566SOL     OW 4696   3.417   3.373   0.703
 1566SOL    HW1 4697   3.360   3.357   0.784
 1566SOL    HW2 4698   3.358   3.383   0.623
 1567SOL     OW 4699   2.997   2.565   0.717
 1567SOL    HW1 4700   3.054   2.643   0.692
 1567SOL    HW2 4701   2.937   2.591   0.793
 1568SOL     OW 4702   3.617   2.469   0.231
 1568SOL    HW1 4703   3.605   2.456   0.132
 1568SOL    HW2 4704   3.587   2.388   0.280
 1569SOL     OW 4705   2.630   3.006   1.023
 1569SOL    HW1 4706   2.552   3.023   1.083
 1569SOL    HW2 4707   2.664   3.093   0.987
 1570SOL     OW 4708   2.712   2.660   1.823
 1570SOL    HW1 4709   2.708   2.736   1.888
 1570SOL    HW2 4710   2.734   2.696   1.732
 1571SOL     OW 4711   2.547   2.874   0.665
 1571SOL    HW1 4712   2.616   2.858   0.735
 1571SOL    HW2 4713   2.474   2.931   0.703
 1572SOL     OW 4714   2.548   3.023   1.803
 1572SOL    HW1 4715   2.608   3.102   1.817
 1572SOL    HW2 4716   2.462   3.054   1.762
 1573SOL     OW 4717   2.197   3.297   1.061
 1573SOL    HW1 4718   2.119   3.266   1.008
 1573SOL    HW2 4719   2.255   3.355   1.004
 1574SOL     OW 4720   3.322   3.367   1.339
 1574SOL    HW1 4721   3.346   3.461   1.365
 1574SOL    HW2 4722   3.306   3.313   1.421
 1575SOL     OW 4723   2.300   2.254   1.499
 1575SOL    HW1 4724   2.382   2.198   1.508
 1575SOL    HW2 4725   2.219   2.196   1.503
 1576SOL     OW 4726   3.465   2.309   0.737
 1576SOL    HW1 4727   3.391   2.355   0.687
 1576SOL    HW2 4728   3.516   2.377   0.790
 1577SOL     OW 4729   2.093   3.575   0.483
 1577SOL    HW1 4730   2.127   3.652   0.537
 1577SOL    HW2 4731   2.137   3.575   0.393
 1578SOL     OW 4732   2.989   3.203   1.690
 1578SOL    HW1 4733   3.036   3.203   1.778
 1578SOL    HW2 4734   2.941   3.116   1.679
 1579SOL     OW 4735   2.092   3.296   0.538
 1579SOL    HW1 4736   2.066   3.392   0.538
 1579SOL    HW2 4737   2.021   3.242   0.583
 1580SOL     OW 4738   2.102   2.953   0.886
 1580SOL    HW1 4739   2.116   2.869   0.938
 1580SOL    HW2 4740   2.047   3.017   0.941
 1581SOL     OW 4741   2.482   3.648   1.439
 1581SOL    HW1 4742   2.390   3.631   1.474
 1581SOL    HW2 4743   2.510   3.740   1.465
 1582SOL     OW 4744   2.468   2.826   0.123
 1582SOL    HW1 4745   2.475   2.910   0.069
 1582SOL    HW2 4746   2.514   2.839   0.211
 1583SOL     OW 4747   3.456   1.976   1.480
 1583SOL    HW1 4748   3.438   2.043   1.408
 1583SOL    HW2 4749   3.453   2.022   1.569
 1584SOL     OW 4750   1.984   2.505   0.563
 1584SOL    HW1 4751   1.939   2.417   0.580
 1584SOL    HW2 4752   1.983   2.559   0.647
 1585SOL     OW 4753   3.704   3.629   0.359
 1585SOL    HW1 4754   3.758   3.600   0.439
 1585SOL    HW2 4755   3.734   3.719   0.330
 1586SOL     OW 4756   1.889   3.458   0.117
 1586SOL    HW1 4757   1.870   3.362   0.138
 1586SOL    HW2 4758   1.856   3.516   0.192
 1587SOL     OW 4759   3.551   2.784   0.612
 1587SOL    HW1 4760   3.646   2.755   0.620
 1587SOL    HW2 4761   3.543   2.849   0.537
 1588SOL     OW 4762   3.503   2.970   0.432
 1588SOL    HW1 4763   3.589   2.972   0.380
 1588SOL    HW2 4764   3.517   3.017   0.520
 1589SOL     OW 4765   1.975   2.599   1.597
 1589SOL    HW1 4766   2.063   2.586   1.642
 1589SOL    HW2 4767   1.962   2.696   1.575
 1590SOL     OW 4768   2.475   3.227   0.726
 1590SOL    HW1 4769   2.426   3.140   0.735
 1590SOL    HW2 4770   2.452   3.270   0.639
 1591SOL     OW 4771   3.155   3.090   1.423
 1591SOL    HW1 4772   3.192   3.017   1.365
 1591SOL    HW2 4773   3.207   3.095   1.508
 1592SOL     OW 4774   2.671   1.866   0.502
 1592SOL    HW1 4775   2.711   1.957   0.493
 1592SOL    HW2 4776   2.571   1.874   0.508
 1593SOL     OW 4777   2.059   2.838   1.264
 1593SOL    HW1 4778   2.148   2.793   1.250
 1593SOL    HW2 4779   1.986   2.773   1.245
 1594SOL     OW 4780   3.387   2.861   0.190
 1594SOL    HW1 4781   3.324   2.785   0.203
 1594SOL    HW2 4782   3.435   2.879   0.276
 1595SOL     OW 4783   3.049   3.654   1.616
 1595SOL    HW1 4784   3.073   3.714   1.540
 1595SOL    HW2 4785   3.056   3.559   1.586
 1596SOL     OW 4786   2.179   2.113   1.801
 1596SOL    HW1 4787   2.250   2.184   1.807
 1596SOL    HW2 4788   2.091   2.152   1.829
 1597SOL     OW 4789   3.328   3.279   0.953
 1597SOL    HW1 4790   3.269   3.285   1.033
 1597SOL    HW2 4791   3.313   3.191   0.907
 1598SOL     OW 4792   3.529   3.576   0.572
 1598SOL    HW1 4793   3.488   3.553   0.484
 1598SOL    HW2 4794   3.511   3.502   0.637
 1599SOL     OW 4795   2.460   2.591   0.270
 1599SOL    HW1 4796   2.484   2.660   0.202
 1599SOL    HW2 4797   2.382   2.624   0.324
 1600SOL     OW 4798   3.143   2.207   0.944
 1600SOL    HW1 4799   3.057   2.157   0.931
 1600SOL    HW2 4800   3.205   2.153   1.000
 1601SOL     OW 4801   3.438   3.524   0.307
 1601SOL    HW1 4802   3.527   3.570   0.310
 1601SOL    HW2 4803   3.417   3.500   0.212
 1602SOL     OW 4804   2.669   2.467   1.465
 1602SOL    HW1 4805   2.622   2.464   1.554
 1602SOL    HW2 4806   2.618   2.412   1.399
 1603SOL     OW 4807   3.256   2.331   1.674
 1603SOL    HW1 4808   3.236   2.374   1.762
 1603SOL    HW2 4809   3.334   2.269   1.683
 1604SOL     OW 4810   2.835   2.752   1.572
 1604SOL    HW1 4811   2.881   2.668   1.543
 1604SOL    HW2 4812   2.779   2.786   1.497
 1605SOL     OW 4813   2.853   2.272   1.242
 1605SOL    HW1 4814   2.776   2.306   1.296
 1605SOL    HW2 4815   2.819   2.221   1.163
 1606SOL     OW 4816   2.903   2.563   0.429
 1606SOL    HW1 4817   2.929   2.559   0.525
 1606SOL    HW2 4818   2.818   2.512   0.415
 1607SOL     OW 4819   1.938   2.673   0.789
 1607SOL    HW1 4820   2.037   2.661   0.798
 1607SOL    HW2 4821   1.914   2.768   0.810
 1608SOL     OW 4822   1.992   3.683   1.571
 1608SOL    HW1 4823   1.982   3.668   1.670
 1608SOL    HW2 4824   1.906   3.719   1.535
 1609SOL     OW 4825   2.727   2.210   0.195
 1609SOL    HW1 4826   2.786   2.273   0.146
 1609SOL    HW2 4827   2.746   2.116   0.166
 1610SOL     OW 4828   3.581   2.447   1.831
 1610SOL    HW1 4829   3.555   2.536   1.795
 1610SOL    HW2 4830   3.579   2.379   1.758
 1611SOL     OW 4831   3.224   3.006   0.545
 1611SOL    HW1 4832   3.307   2.977   0.497
 1611SOL    HW2 4833   3.175   3.073   0.489
 1612SOL     OW 4834   2.412   2.058   0.885
 1612SOL    HW1 4835   2.407   2.053   0.985
 1612SOL    HW2 4836   2.414   2.154   0.856
 1613SOL     OW 4837   2.870   3.318   0.477
 1613SOL    HW1 4838   2.824   3.390   0.425
 1613SOL    HW2 4839   2.866   3.338   0.575
 1614SOL     OW 4840   2.213   3.663   0.853
 1614SOL    HW1 4841   2.263   3.577   0.859
 1614SOL    HW2 4842   2.278   3.740   0.850
 1615SOL     OW 4843   3.657   2.928   0.873
 1615SOL    HW1 4844   3.595   2.913   0.797
 1615SOL    HW2 4845   3.605   2.939   0.958
 1616SOL     OW 4846   3.089   3.412   1.506
 1616SOL    HW1 4847   3.095   3.335   1.570
 1616SOL    HW2 4848   3.037   3.386   1.426
 1617SOL     OW 4849   2.183   2.805   0.242
 1617SOL    HW1 4850   2.265   2.844   0.200
 1617SOL    HW2 4851   2.156   2.723   0.193
 1618SOL     OW 4852   3.320   2.597   0.728
 1618SOL    HW1 4853   3.315   2.532   0.803
 1618SOL    HW2 4854   3.400   2.656   0.741
 1619SOL     OW 4855   2.323   3.128   1.727
 1619SOL    HW1 4856   2.273   3.129   1.641
 1619SOL    HW2 4857   2.260   3.110   1.803
 1620SOL     OW 4858   2.973   3.638   0.237
 1620SOL    HW1 4859   2.913   3.576   0.287
 1620SOL    HW2 4860   3.004   3.594   0.152
 1621SOL     OW 4861   2.064   2.147   1.498
 1621SOL    HW1 4862   1.984   2.207   1.485
 1621SOL    HW2 4863   2.054   2.098   1.584
 1622SOL     OW 4864   3.494   3.239   0.081
 1622SOL    HW1 4865   3.462   3.333   0.071
 1622SOL    HW2 4866   3.418   3.176   0.069
 1623SOL     OW 4867   2.326   3.605   0.323
 1623SOL    HW1 4868   2.359   3.644   0.409
 1623SOL    HW2 4869   2.402   3.598   0.258
 1624SOL     OW 4870   3.262   1.969   0.426
 1624SOL    HW1 4871   3.238   1.932   0.336
 1624SOL    HW2 4872   3.361   1.985   0.430
 1625SOL     OW 4873   2.111   3.647   1.241
 1625SOL    HW1 4874   2.168   3.582   1.291
 1625SOL    HW2 4875   2.095   3.614   1.148
 1626SOL     OW 4876   2.802   3.560   0.904
 1626SOL    HW1 4877   2.882   3.503   0.925
 1626SOL    HW2 4878   2.753   3.520   0.827
 1627SOL     OW 4879   2.244   2.562   0.480
 1627SOL    HW1 4880   2.289   2.472   0.477
 1627SOL    HW2 4881   2.150   2.551   0.513
 1628SOL     OW 4882   3.409   2.084   1.729
 1628SOL    HW1 4883   3.404   2.121   1.821
 1628SOL    HW2 4884   3.337   2.015   1.717
 1629SOL     OW 4885   2.476   1.984   0.117
 1629SOL    HW1 4886   2.574   1.962   0.124
 1629SOL    HW2 4887   2.445   1.967   0.024
 1630SOL     OW 4888   2.643   2.126   1.749
 1630SOL    HW1 4889   2.710   2.065   1.792
 1630SOL    HW2 4890   2.570   2.145   1.814
 1631SOL     OW 4891   2.750   3.376   1.195
 1631SOL    HW1 4892   2.727   3.351   1.101
 1631SOL    HW2 4893   2.811   3.307   1.234
 1632SOL     OW 4894   3.213   2.452   1.433
 1632SOL    HW1 4895   3.241   2.409   1.518
 1632SOL    HW2 4896   3.238   2.548   1.434
 1633SOL     OW 4897   2.665   3.264   0.924
 1633SOL    HW1 4898   2.755   3.278   0.882
 1633SOL    HW2 4899   2.594   3.266   0.853
 1634SOL     OW 4900   2.784   2.365   0.899
 1634SOL    HW1 4901   2.759   2.356   0.803
 1634SOL    HW2 4902   2.832   2.283   0.930
 1635SOL     OW 4903   2.401   1.926   0.512
 1635SOL    HW1 4904   2.320   1.927   0.570
 1635SOL    HW2 4905   2.404   2.009   0.457
 1636SOL     OW 4906   3.296   3.050   0.041
 1636SOL    HW1 4907   3.328   2.974   0.098
 1636SOL    HW2 4908   3.204   3.077   0.071
 1637SOL     OW 4909   2.797   2.098   0.480
 1637SOL    HW1 4910   2.749   2.139   0.402
 1637SOL    HW2 4911   2.896   2.096   0.461
 1638SOL     OW 4912   2.938   2.545   1.464
 1638SOL    HW1 4913   2.858   2.484   1.467
 1638SOL    HW2 4914   3.019   2.492   1.440
 1639SOL     OW 4915   3.089   3.432   0.793
 1639SOL    HW1 4916   3.110   3.506   0.728
 1639SOL    HW2 4917   3.157   3.432   0.866
 1640SOL     OW 4918   2.321   3.014   0.741
 1640SOL    HW1 4919   2.250   2.987   0.806
 1640SOL    HW2 4920   2.295   2.986   0.648
 1641SOL     OW 4921   3.133   3.659   0.591
 1641SOL    HW1 4922   3.177   3.723   0.527
 1641SOL    HW2 4923   3.083   3.711   0.661
 1642SOL     OW 4924   2.894   2.411   0.016
 1642SOL    HW1 4925   2.853   2.493  -0.023
 1642SOL    HW2 4926   2.958   2.437   0.089
 1643SOL     OW 4927   1.940   2.418   1.386
 1643SOL    HW1 4928   2.032   2.417   1.345
 1643SOL    HW2 4929   1.934   2.492   1.453
 1644SOL     OW 4930   2.423   2.084   1.147
 1644SOL    HW1 4931   2.461   2.000   1.184
 1644SOL    HW2 4932   2.335   2.103   1.191
 1645SOL     OW 4933   2.728   2.316   0.642
 1645SOL    HW1 4934   2.696   2.388   0.580
 1645SOL    HW2 4935   2.752   2.235   0.589
 1646SOL     OW 4936   2.879   1.901   0.753
 1646SOL    HW1 4937   2.807   1.906   0.684
 1646SOL    HW2 4938   2.855   1.832   0.822
 1647SOL     OW 4939   3.291   3.035   0.867
 1647SOL    HW1 4940   3.236   2.951   0.860
 1647SOL    HW2 4941   3.317   3.064   0.775
 1648SOL     OW 4942   3.328   2.452   0.992
 1648SOL    HW1 4943   3.298   2.357   0.999
 1648SOL    HW2 4944   3.401   2.468   1.058
 1649SOL     OW 4945   3.719   2.695   0.377
 1649SOL    HW1 4946   3.761   2.631   0.441
 1649SOL    HW2 4947   3.681   2.644   0.299
 1650SOL     OW 4948   2.350   3.247   0.174
 1650SOL    HW1 4949   2.263   3.232   0.221
 1650SOL    HW2 4950   2.333   3.273   0.079
 1651SOL     OW 4951   3.526   3.142   0.657
 1651SOL    HW1 4952   3.625   3.150   0.671
 1651SOL    HW2 4953   3.481   3.226   0.688
 1652SOL     OW 4954   3.252   2.437   0.078
 1652SOL    HW1 4955   3.198   2.416   0.159
 1652SOL    HW2 4956   3.343   2.396   0.087
 1653SOL     OW 4957   2.389   2.118   0.328
 1653SOL    HW1 4958   2.416   2.059   0.253
 1653SOL    HW2 4959   2.389   2.213   0.297
 1654SOL     OW 4960   3.616   3.085   1.588
 1654SOL    HW1 4961   3.707   3.046   1.575
 1654SOL    HW2 4962   3.624   3.181   1.612
 1655SOL     OW 4963   2.926   3.209   1.340
 1655SOL    HW1 4964   2.846   3.186   1.395
 1655SOL    HW2 4965   3.009   3.183   1.389
 1656SOL     OW 4966   3.454   3.491   1.625
 1656SOL    HW1 4967   3.481   3.525   1.535
 1656SOL    HW2 4968   3.533   3.453   1.671
 1657SOL     OW 4969   2.973   3.057   1.100
 1657SOL    HW1 4970   2.933   3.101   1.181
 1657SOL    HW2 4971   2.932   3.094   1.017
 1658SOL     OW 4972   3.500   2.961   1.079
 1658SOL    HW1 4973   3.505   3.042   1.138
 1658SOL    HW2 4974   3.414   2.963   1.028
 1659SOL     OW 4975   2.777   1.951   1.402
 1659SOL    HW1 4976   2.802   1.931   1.307
 1659SOL    HW2 4977   2.849   2.007   1.444
 1660SOL     OW 4978   2.842   2.978   1.719
 1660SOL    HW1 4979   2.743   2.984   1.729
 1660SOL    HW2 4980   2.865   2.898   1.663
 1661SOL     OW 4981   2.567   2.912   0.368
 1661SOL    HW1 4982   2.553   2.919   0.467
 1661SOL    HW2 4983   2.651   2.861   0.350
 1662SOL     OW 4984   2.272   2.675   1.251
 1662SOL    HW1 4985   2.358   2.687   1.301
 1662SOL    HW2 4986   2.230   2.588   1.278
 1663SOL     OW 4987   3.136   2.248   1.262
 1663SOL    HW1 4988   3.157   2.322   1.326
 1663SOL    HW2 4989   3.047   2.265   1.219
 1664SOL     OW 4990   1.926   3.426   1.331
 1664SOL    HW1 4991   1.880   3.508   1.297
 1664SOL    HW2 4992   2.024   3.445   1.340
 1665SOL     OW 4993   2.229   2.962   0.501
 1665SOL    HW1 4994   2.222   3.045   0.445
 1665SOL    HW2 4995   2.233   2.882   0.441
 1666SOL     OW 4996   2.428   2.399   0.865
 1666SOL    HW1 4997   2.440   2.465   0.791
 1666SOL    HW2 4998   2.474   2.433   0.948
 1667SOL     OW 4999   3.114   3.210   0.388
 1667SOL    HW1 5000   3.164   3.287   0.428
 1667SOL    HW2 5001   3.019   3.212   0.420
 1668SOL     OW 5002   3.134   3.307   1.142
 1668SOL    HW1 5003   3.181   3.320   1.229
 1668SOL    HW2 5004   3.068   3.233   1.151
 1669SOL     OW 5005   3.444   2.501   0.472
 1669SOL    HW1 5006   3.413   2.562   0.545
 1669SOL    HW2 5007   3.494   2.553   0.403
 1670SOL     OW 5008   2.216   3.372   1.329
 1670SOL    HW1 5009   2.195   3.328   1.242
 1670SOL    HW2 5010   2.313   3.398   1.332
 1671SOL     OW 5011   2.264   2.613   1.598
 1671SOL    HW1 5012   2.332   2.668   1.551
 1671SOL    HW2 5013   2.304   2.525   1.625
 1672SOL     OW 5014   3.449   2.641   1.670
 1672SOL    HW1 5015   3.357   2.679   1.665
 1672SOL    HW2 5016   3.509   2.688   1.605
 1673SOL     OW 5017   2.875   1.967   1.770
 1673SOL    HW1 5018   2.881   2.052   1.718
 1673SOL    HW2 5019   2.907   1.891   1.713
 1674SOL     OW 5020   2.366   1.912   1.740
 1674SOL    HW1 5021   2.324   1.855   1.670
 1674SOL    HW2 5022   2.300   1.981   1.772
 1675SOL     OW 5023   2.435   2.732   1.029
 1675SOL    HW1 5024   2.479   2.821   1.020
 1675SOL    HW2 5025   2.372   2.732   1.106
 1676SOL     OW 5026   3.222   2.724   1.045
 1676SOL    HW1 5027   3.147   2.724   0.979
 1676SOL    HW2 5028   3.259   2.632   1.054
 1677SOL     OW 5029   3.071   2.387   0.275
 1677SOL    HW1 5030   3.084   2.303   0.329
 1677SOL    HW2 5031   3.042   2.461   0.335
 1678SOL     OW 5032   2.169   2.075   1.231
 1678SOL    HW1 5033   2.146   2.112   1.321
 1678SOL    HW2 5034   2.139   1.980   1.225
 1679SOL     OW 5035   1.899   3.172   1.282
 1679SOL    HW1 5036   1.952   3.123   1.350
 1679SOL    HW2 5037   1.921   3.270   1.287
 1680SOL     OW 5038   2.594   2.496   1.064
 1680SOL    HW1 5039   2.653   2.470   0.988
 1680SOL    HW2 5040   2.566   2.592   1.053
 1681SOL     OW 5041   3.590   2.797   1.854
 1681SOL    HW1 5042   3.544   2.790   1.765
 1681SOL    HW2 5043   3.528   2.841   1.920
 1682SOL     OW 5044   2.169   1.925   0.618
 1682SOL    HW1 5045   2.158   2.019   0.651
 1682SOL    HW2 5046   2.164   1.862   0.695
 1683SOL     OW 5047   3.484   2.229   0.374
 1683SOL    HW1 5048   3.486   2.153   0.438
 1683SOL    HW2 5049   3.436   2.306   0.414
 1684SOL     OW 5050   2.885   2.628   0.966
 1684SOL    HW1 5051   2.900   2.649   1.062
 1684SOL    HW2 5052   2.855   2.533   0.957
 1685SOL     OW 5053   2.842   3.435   1.700
 1685SOL    HW1 5054   2.822   3.479   1.612
 1685SOL    HW2 5055   2.881   3.344   1.684
 1686SOL     OW 5056   3.721   3.380   1.605
 1686SOL    HW1 5057   3.735   3.407   1.510
 1686SOL    HW2 5058   3.804   3.402   1.658
 1687SOL     OW 5059   2.212   2.760   1.804
 1687SOL    HW1 5060   2.288   2.804   1.852
 1687SOL    HW2 5061   2.247   2.713   1.722
 1688SOL     OW 5062   3.402   2.136   0.125
 1688SOL    HW1 5063   3.341   2.061   0.148
 1688SOL    HW2 5064   3.424   2.188   0.208
 1689SOL     OW 5065   3.165   2.700   0.042
 1689SOL    HW1 5066   3.199   2.607   0.057
 1689SOL    HW2 5067   3.183   2.727  -0.053
 1690SOL     OW 5068   2.930   3.195   0.849
 1690SOL    HW1 5069   2.937   3.111   0.794
 1690SOL    HW2 5070   2.992   3.264   0.813
 1691SOL     OW 5071   2.181   2.672   0.949
 1691SOL    HW1 5072   2.274   2.708   0.954
 1691SOL    HW2 5073   2.175   2.587   1.001
 1692SOL     OW 5074   2.201   2.371   1.006
 1692SOL    HW1 5075   2.149   2.288   0.989
 1692SOL    HW2 5076   2.278   2.376   0.942
 1693SOL     OW 5077   3.000   2.242   1.678
 1693SOL    HW1 5078   2.955   2.305   1.742
 1693SOL    HW2 5079   3.093   2.273   1.661
 1694SOL     OW 5080   3.022   2.069   1.477
 1694SOL    HW1 5081   3.022   2.133   1.554
 1694SOL    HW2 5082   3.050   2.117   1.394
 1695SOL     OW 5083   1.870   3.188   0.200
 1695SOL    HW1 5084   1.777   3.209   0.169
 1695SOL    HW2 5085   1.880   3.089   0.213
 1696SOL     OW 5086   1.950   3.663   0.927
 1696SOL    HW1 5087   1.908   3.577   0.900
 1696SOL    HW2 5088   2.044   3.666   0.893
 1697SOL     OW 5089   2.366   3.430   0.910
 1697SOL    HW1 5090   2.432   3.504   0.919
 1697SOL    HW2 5091   2.410   3.351   0.868
 1698SOL     OW 5092   2.864   2.658   1.238
 1698SOL    HW1 5093   2.905   2.626   1.324
 1698SOL    HW2 5094   2.768   2.631   1.235
 1699SOL     OW 5095   1.902   2.406   1.114
 1699SOL    HW1 5096   1.987   2.373   1.073
 1699SOL    HW2 5097   1.915   2.421   1.212
 1700SOL     OW 5098   2.051   2.382   1.722
 1700SOL    HW1 5099   2.110   2.342   1.652
 1700SOL    HW2 5100   1.993   2.453   1.681
 1701SOL     OW 5101   3.231   2.812   1.660
 1701SOL    HW1 5102   3.270   2.901   1.680
 1701SOL    HW2 5103   3.241   2.792   1.563
 1702SOL     OW 5104   2.677   2.434   0.325
 1702SOL    HW1 5105   2.684   2.345   0.279
 1702SOL    HW2 5106   2.583   2.468   0.317
 1703SOL     OW 5107   3.519   2.466   1.206
 1703SOL    HW1 5108   3.481   2.397   1.268
 1703SOL    HW2 5109   3.601   2.430   1.162
 1704SOL     OW 5110   2.114   3.426   1.744
 1704SOL    HW1 5111   2.084   3.483   1.820
 1704SOL    HW2 5112   2.107   3.329   1.770
 1705SOL     OW 5113   2.533   2.326   1.269
 1705SOL    HW1 5114   2.499   2.237   1.239
 1705SOL    HW2 5115   2.559   2.380   1.189
 1706SOL     OW 5116   2.792   3.540   1.465
 1706SOL    HW1 5117   2.768   3.522   1.370
 1706SOL    HW2 5118   2.822   3.634   1.475
 1707SOL     OW 5119   2.335   2.362   0.191
 1707SOL    HW1 5120   2.396   2.442   0.195
 1707SOL    HW2 5121   2.240   2.393   0.198
 1708SOL     OW 5122   2.021   2.999   1.466
 1708SOL    HW1 5123   2.043   2.938   1.542
 1708SOL    HW2 5124   2.031   2.950   1.380
 1709SOL     OW 5125   3.209   2.921   1.234
 1709SOL    HW1 5126   3.233   2.858   1.160
 1709SOL    HW2 5127   3.119   2.961   1.216
 1710SOL     OW 5128   3.164   2.717   0.309
 1710SOL    HW1 5129   3.078   2.686   0.351
 1710SOL    HW2 5130   3.160   2.703   0.210
 1711SOL     OW 5131   3.621   3.609   1.154
 1711SOL    HW1 5132   3.682   3.639   1.081
 1711SOL    HW2 5133   3.583   3.520   1.132
 1712SOL     OW 5134   3.114   3.593   1.128
 1712SOL    HW1 5135   3.198   3.598   1.074
 1712SOL    HW2 5136   3.091   3.497   1.146
 1713SOL     OW 5137   1.945   3.120   1.022
 1713SOL    HW1 5138   1.940   3.119   1.122
 1713SOL    HW2 5139   1.862   3.079   0.984
 1714SOL     OW 5140   2.550   3.524   1.716
 1714SOL    HW1 5141   2.494   3.605   1.725
 1714SOL    HW2 5142   2.602   3.528   1.630
 1715SOL     OW 5143   2.765   1.948   0.133
 1715SOL    HW1 5144   2.816   1.949   0.047
 1715SOL    HW2 5145   2.821   1.906   0.204
 1716SOL     OW 5146   3.588   1.997   0.523
 1716SOL    HW1 5147   3.661   1.980   0.456
 1716SOL    HW2 5148   3.557   1.910   0.561
 1717SOL     OW 5149   3.250   3.435   0.477
 1717SOL    HW1 5150   3.317   3.447   0.403
 1717SOL    HW2 5151   3.210   3.524   0.500
 1718SOL     OW 5152   1.992   3.656   1.851
 1718SOL    HW1 5153   1.951   3.582   1.904
 1718SOL    HW2 5154   2.056   3.707   1.909
 1719SOL     OW 5155   3.142   2.789   0.672
 1719SOL    HW1 5156   3.202   2.708   0.674
 1719SOL    HW2 5157   3.182   2.858   0.612
 1720SOL     OW 5158   2.692   3.135   1.422
 1720SOL    HW1 5159   2.687   3.168   1.517
 1720SOL    HW2 5160   2.606   3.154   1.376
 1721SOL     OW 5161   2.534   3.478   0.154
 1721SOL    HW1 5162   2.543   3.488   0.055
 1721SOL    HW2 5163   2.494   3.389   0.175
 1722SOL     OW 5164   3.512   3.582   1.394
 1722SOL    HW1 5165   3.565   3.592   1.310
 1722SOL    HW2 5166   3.485   3.672   1.428
 1723SOL     OW 5167   3.703   2.037   0.963
 1723SOL    HW1 5168   3.742   1.952   0.927
 1723SOL    HW2 5169   3.605   2.039   0.944
 1724SOL     OW 5170   2.125   2.188   0.720
 1724SOL    HW1 5171   2.046   2.239   0.686
 1724SOL    HW2 5172   2.116   2.173   0.818
 1725SOL     OW 5173   3.056   3.474   0.031
 1725SOL    HW1 5174   3.062   3.381   0.068
 1725SOL    HW2 5175   2.997   3.474  -0.049
 1726SOL     OW 5176   2.684   2.864   1.372
 1726SOL    HW1 5177   2.724   2.863   1.280
 1726SOL    HW2 5178   2.694   2.956   1.412
 1727SOL     OW 5179   2.778   2.772   0.291
 1727SOL    HW1 5180   2.841   2.810   0.223
 1727SOL    HW2 5181   2.818   2.689   0.330
 1728SOL     OW 5182   3.366   3.469   0.044
 1728SOL    HW1 5183   3.274   3.506   0.051
 1728SOL    HW2 5184   3.404   3.489  -0.046
 1729SOL     OW 5185   2.234   3.150   1.490
 1729SOL    HW1 5186   2.221   3.243   1.456
 1729SOL    HW2 5187   2.150   3.098   1.477
 1730SOL     OW 5188   3.476   3.154   1.289
 1730SOL    HW1 5189   3.536   3.157   1.369
 1730SOL    HW2 5190   3.401   3.218   1.302
 1731SOL     OW 5191   2.901   2.960   0.696
 1731SOL    HW1 5192   2.831   2.913   0.750
 1731SOL    HW2 5193   2.960   2.892   0.653
 1732SOL     OW 5194   2.876   2.098   0.971
 1732SOL    HW1 5195   2.868   2.062   0.878
 1732SOL    HW2 5196   2.874   2.022   1.036
 1733SOL     OW 5197   2.452   3.349   0.491
 1733SOL    HW1 5198   2.494   3.291   0.421
 1733SOL    HW2 5199   2.408   3.428   0.447
 1734SOL     OW 5200   3.571   2.247   1.381
 1734SOL    HW1 5201   3.644   2.316   1.385
 1734SOL    HW2 5202   3.599   2.172   1.322
 1735SOL     OW 5203   2.117   3.210   0.290
 1735SOL    HW1 5204   2.021   3.211   0.263
 1735SOL    HW2 5205   2.129   3.263   0.374
 1736SOL     OW 5206   1.967   2.875   1.726
 1736SOL    HW1 5207   1.890   2.842   1.780
 1736SOL    HW2 5208   2.052   2.845   1.768
 1737SOL     OW 5209   2.534   2.065   1.489
 1737SOL    HW1 5210   2.624   2.049   1.449
 1737SOL    HW2 5211   2.542   2.070   1.588
 1738SOL     OW 5212   1.937   2.207   0.033
 1738SOL    HW1 5213   1.845   2.179   0.004
 1738SOL    HW2 5214   1.968   2.284  -0.023
 1739SOL     OW 5215   3.302   2.718   1.398
 1739SOL    HW1 5216   3.245   2.770   1.335
 1739SOL    HW2 5217   3.398   2.730   1.374
 1740SOL     OW 5218   1.934   2.028   0.318
 1740SOL    HW1 5219   1.917   2.111   0.264
 1740SOL    HW2 5220   2.024   1.991   0.296
 1741SOL     OW 5221   3.045   3.197   0.119
 1741SOL    HW1 5222   2.946   3.186   0.121
 1741SOL    HW2 5223   3.079   3.212   0.212
 1742SOL     OW 5224   2.475   2.704   1.431
 1742SOL    HW1 5225   2.531   2.785   1.414
 1742SOL    HW2 5226   2.534   2.624   1.434
 1743SOL     OW 5227   3.355   3.629   0.959
 1743SOL    HW1 5228   3.388   3.693   0.890
 1743SOL    HW2 5229   3.421   3.623   1.034
 1744SOL     OW 5230   2.578   2.427   1.708
 1744SOL    HW1 5231   2.597   2.492   1.782
 1744SOL    HW2 5232   2.638   2.347   1.717
 1745SOL     OW 5233   3.312   3.082   1.633
 1745SOL    HW1 5234   3.303   3.072   1.732
 1745SOL    HW2 5235   3.408   3.075   1.607
 1746SOL     OW 5236   2.252   3.603   1.560
 1746SOL    HW1 5237   2.161   3.644   1.558
 1746SOL    HW2 5238   2.245   3.509   1.592
 1747SOL     OW 5239   3.536   2.745   1.254
 1747SOL    HW1 5240   3.509   2.656   1.217
 1747SOL    HW2 5241   3.537   2.813   1.181
 1748SOL     OW 5242   3.087   2.187   0.449
 1748SOL    HW1 5243   3.152   2.113   0.438
 1748SOL    HW2 5244   3.107   2.237   0.533
 1749SOL     OW 5245   2.456   2.607   0.652
 1749SOL    HW1 5246   2.506   2.692   0.633
 1749SOL    HW2 5247   2.368   2.609   0.604
 1750SOL     OW 5248   3.639   2.204   1.642
 1750SOL    HW1 5249   3.622   2.235   1.548
 1750SOL    HW2 5250   3.555   2.167   1.680
 1751SOL     OW 5251   3.592   2.796   1.517
 1751SOL    HW1 5252   3.630   2.887   1.532
 1751SOL    HW2 5253   3.584   2.779   1.418
 1752SOL     OW 5254   2.721   3.236   0.016
 1752SOL    HW1 5255   2.675   3.251   0.104
 1752SOL    HW2 5256   2.765   3.321  -0.014
 1753SOL     OW 5257   2.523   3.652   0.953
 1753SOL    HW1 5258   2.477   3.740   0.940
 1753SOL    HW2 5259   2.622   3.664   0.946
 1754SOL     OW 5260   2.721   2.818   0.861
 1754SOL    HW1 5261   2.775   2.749   0.909
 1754SOL    HW2 5262   2.689   2.887   0.927
 1755SOL     OW 5263   2.945   2.846   0.087
 1755SOL    HW1 5264   2.922   2.899   0.005
 1755SOL    HW2 5265   3.026   2.790   0.068
 1756SOL     OW 5266   3.723   3.431   0.851
 1756SOL    HW1 5267   3.652   3.419   0.781
 1756SOL    HW2 5268   3.724   3.352   0.911
 1757SOL     OW 5269   2.083   3.176   1.844
 1757SOL    HW1 5270   2.018   3.103   1.823
 1757SOL    HW2 5271   2.087   3.190   1.942
 1758SOL     OW 5272   1.941   3.102   0.653
 1758SOL    HW1 5273   1.940   3.055   0.741
 1758SOL    HW2 5274   2.023   3.074   0.602
 1759SOL     OW 5275   2.534   3.253   1.624
 1759SOL    HW1 5276   2.456   3.203   1.662
 1759SOL    HW2 5277   2.531   3.348   1.655
 1760SOL     OW 5278   3.686   2.054   1.227
 1760SOL    HW1 5279   3.682   1.964   1.271
 1760SOL    HW2 5280   3.689   2.043   1.128
 1761SOL     OW 5281   2.290   2.286   0.520
 1761SOL    HW1 5282   2.320   2.214   0.458
 1761SOL    HW2 5283   2.251   2.246   0.603
 1762SOL     OW 5284   3.567   3.349   1.104
 1762SOL    HW1 5285   3.474   3.324   1.077
 1762SOL    HW2 5286   3.593   3.299   1.186
 1763SOL     OW 5287   2.179   2.409   1.280
 1763SOL    HW1 5288   2.217   2.350   1.352
 1763SOL    HW2 5289   2.219   2.383   1.192
 1764SOL     OW 5290   2.674   3.448   0.687
 1764SOL    HW1 5291   2.706   3.458   0.593
 1764SOL    HW2 5292   2.595   3.386   0.689
 1765SOL     OW 5293   3.286   2.076   1.112
 1765SOL    HW1 5294   3.338   2.011   1.167
 1765SOL    HW2 5295   3.237   2.139   1.173
 1766SOL     OW 5296   2.863   1.896   1.154
 1766SOL    HW1 5297   2.800   1.824   1.123
 1766SOL    HW2 5298   2.956   1.860   1.154
 1767SOL     OW 5299   2.632   3.192   0.301
 1767SOL    HW1 5300   2.586   3.105   0.318
 1767SOL    HW2 5301   2.723   3.189   0.342
 1768SOL     OW 5302   2.480   3.429   1.284
 1768SOL    HW1 5303   2.475   3.511   1.341
 1768SOL    HW2 5304   2.569   3.426   1.239
 1769SOL     OW 5305   3.214   1.914   0.168
 1769SOL    HW1 5306   3.249   1.873   0.084
 1769SOL    HW2 5307   3.124   1.876   0.188
 1770SOL     OW 5308   3.162   2.315   0.691
 1770SOL    HW1 5309   3.103   2.395   0.695
 1770SOL    HW2 5310   3.177   2.280   0.784
 1771SOL     OW 5311   3.455   2.083   0.882
 1771SOL    HW1 5312   3.371   2.082   0.936
 1771SOL    HW2 5313   3.457   2.166   0.826
 1772SOL     OW 5314   1.901   2.939   0.300
 1772SOL    HW1 5315   2.000   2.928   0.291
 1772SOL    HW2 5316   1.861   2.853   0.332
 1773SOL     OW 5317   2.737   3.508   0.337
 1773SOL    HW1 5318   2.660   3.473   0.283
 1773SOL    HW2 5319   2.705   3.579   0.399
 1774SOL     OW 5320   2.092   2.490   1.975
 1774SOL    HW1 5321   1.999   2.488   2.012
 1774SOL    HW2 5322   2.093   2.451   1.883
 1775SOL     OW 5323   2.087   2.137   2.858
 1775SOL    HW1 5324   2.122   2.120   2.950
 1775SOL    HW2 5325   1.999   2.092   2.846
 1776SOL     OW 5326   1.881   2.230   2.509
 1776SOL    HW1 5327   1.799   2.273   2.548
 1776SOL    HW2 5328   1.853   2.157   2.446
 1777SOL     OW 5329   2.431   3.137   3.027
 1777SOL    HW1 5330   2.338   3.130   2.990
 1777SOL    HW2 5331   2.442   3.226   3.071
 1778SOL     OW 5332   3.417   3.373   2.565
 1778SOL    HW1 5333   3.360   3.357   2.646
 1778SOL    HW2 5334   3.358   3.383   2.485
 1779SOL     OW 5335   2.997   2.565   2.579
 1779SOL    HW1 5336   3.054   2.643   2.554
 1779SOL    HW2 5337   2.937   2.591   2.655
 1780SOL     OW 5338   3.617   2.469   2.093
 1780SOL    HW1 5339   3.605   2.456   1.994
 1780SOL    HW2 5340   3.587   2.388   2.142
 1781SOL     OW 5341   2.630   3.006   2.885
 1781SOL    HW1 5342   2.552   3.023   2.945
 1781SOL    HW2 5343   2.664   3.093   2.849
 1782SOL     OW 5344   2.712   2.660   3.685
 1782SOL    HW1 5345   2.708   2.736   3.750
 1782SOL    HW2 5346   2.734   2.696   3.594
 1783SOL     OW 5347   2.547   2.874   2.527
 1783SOL    HW1 5348   2.616   2.858   2.597
 1783SOL    HW2 5349   2.474   2.931   2.565
 1784SOL     OW 5350   2.548   3.023   3.665
 1784SOL    HW1 5351   2.608   3.102   3.679
 1784SOL    HW2 5352   2.462   3.054   3.624
 1785SOL     OW 5353   2.197   3.297   2.923
 1785SOL    HW1 5354   2.119   3.266   2.870
 1785SOL    HW2 5355   2.255   3.355   2.866
 1786SOL     OW 5356   3.322   3.367   3.201
 1786SOL    HW1 5357   3.346   3.461   3.227
 1786SOL    HW2 5358   3.306   3.313   3.283
 1787SOL     OW 5359   2.300   2.254   3.361
 1787SOL    HW1 5360   2.382   2.198   3.370
 1787SOL    HW2 5361   2.219   2.196   3.365
 1788SOL     OW 5362   3.465   2.309   2.599
 1788SOL    HW1 5363   3.391   2.355   2.549
 1788SOL    HW2 5364   3.516   2.377   2.652
 1789SOL     OW 5365   2.093   3.575   2.345
 1789SOL    HW1 5366   2.127   3.652   2.399
 1789SOL    HW2 5367   2.137   3.575   2.255
 1790SOL     OW 5368   2.989   3.203   3.552
 1790SOL    HW1 5369   3.036   3.203   3.640
 1790SOL    HW2 5370   2.941   3.116   3.541
 1791SOL     OW 5371   2.092   3.296   2.400
 1791SOL    HW1 5372   2.066   3.392   2.400
 1791SOL    HW2 5373   2.021   3.242   2.445
 1792SOL     OW 5374   2.102   2.953   2.748
 1792SOL    HW1 5375   2.116   2.869   2.800
 1792SOL    HW2 5376   2.047   3.017   2.803
 1793SOL     OW 5377   2.482   3.648   3.301
 1793SOL    HW1 5378   2.390   3.631   3.336
 1793SOL    HW2 5379   2.510   3.740   3.327
 1794SOL     OW 5380   2.468   2.826   1.985
 1794SOL    HW1 5381   2.475   2.910   1.931
 1794SOL    HW2 5382   2.514   2.839   2.073
 1795SOL     OW 5383   3.456   1.976   3.342
 1795SOL    HW1 5384   3.438   2.043   3.270
 1795SOL    HW2 5385   3.453   2.022   3.431
 1796SOL     OW 5386   1.984   2.505   2.425
 1796SOL    HW1 5387   1.939   2.417   2.442
 1796SOL    HW2 5388   1.983   2.559   2.509
 1797SOL     OW 5389   3.704   3.629   2.221
 1797SOL    HW1 5390   3.758   3.600   2.301
 1797SOL    HW2 5391   3.734   3.719   2.192
 1798SOL     OW 5392   1.889   3.458   1.979
 1798SOL    HW1 5393   1.870   3.362   2.000
 1798SOL    HW2 5394   1.856   3.516   2.054
 1799SOL     OW 5395   3.551   2.784   2.474
 1799SOL    HW1 5396   3.646   2.755   2.482
 1799SOL    HW2 5397   3.543   2.849   2.399
 1800SOL     OW 5398   3.503   2.970   2.294
 1800SOL    HW1 5399   3.589   2.972   2.242
 1800SOL    HW2 5400   3.517   3.017   2.382
 1801SOL     OW 5401   1.975   2.599   3.459
 1801SOL    HW1 5402   2.063   2.586   3.504
 1801SOL    HW2 5403   1.962   2.696   3.437
 1802SOL     OW 5404   2.475   3.227   2.588
 1802SOL    HW1 5405   2.426   3.140   2.597
 1802SOL    HW2 5406   2.452   3.270   2.501
 1803SOL     OW 5407   3.155   3.090   3.285
 1803SOL    HW1 5408   3.192   3.017   3.227
 1803SOL    HW2 5409   3.207   3.095   3.370
 1804SOL     OW 5410   2.671   1.866   2.364
 1804SOL    HW1 5411   2.711   1.957   2.355
 1804SOL    HW2 5412   2.571   1.874   2.370
 1805SOL     OW 5413   2.059   2.838   3.126
 1805SOL    HW1 5414   2.148   2.793   3.112
 1805SOL    HW2 5415   1.986   2.773   3.107
 1806SOL     OW 5416   3.387   2.861   2.052
 1806SOL    HW1 5417   3.324   2.785   2.065
 1806SOL    HW2 5418   3.435   2.879   2.138
 1807SOL     OW 5419   3.049   3.654   3.478
 1807SOL    HW1 5420   3.073   3.714   3.402
 1807SOL    HW2 5421   3.056   3.559   3.448
 1808SOL     OW 5422   2.179   2.113   3.663
 1808SOL    HW1 5423   2.250   2.184   3.669
 1808SOL    HW2 5424   2.091   2.152   3.691
 1809SOL     OW 5425   3.328   3.279   2.815
 1809SOL    HW1 5426   3.269   3.285   2.895
 1809SOL    HW2 5427   3.313   3.191   2.769
 1810SOL     OW 5428   3.529   3.576   2.434
 1810SOL    HW1 5429   3.488   3.553   2.346
 1810SOL    HW2 5430   3.511   3.502   2.499
 1811SOL     OW 5431   2.460   2.591   2.132
 1811SOL    HW1 5432   2.484   2.660   2.064
 1811SOL    HW2 5433   2.382   2.624   2.186
 1812SOL     OW 5434   3.143   2.207   2.806
 1812SOL    HW1 5435   3.057   2.157   2.793
 1812SOL    HW2 5436   3.205   2.153   2.862
 1813SOL     OW 5437   3.438   3.524   2.169
 1813SOL    HW1 5438   3.527   3.570   2.172
 1813SOL    HW2 5439   3.417   3.500   2.074
 1814SOL     OW 5440   2.669   2.467   3.327
 1814SOL    HW1 5441   2.622   2.464   3.416
 1814SOL    HW2 5442   2.618   2.412   3.261
 1815SOL     OW 5443   3.256   2.331   3.536
 1815SOL    HW1 5444   3.236   2.374   3.624
 1815SOL    HW2 5445   3.334   2.269   3.545
 1816SOL     OW 5446   2.835   2.752   3.434
 1816SOL    HW1 5447   2.881   2.668   3.405
 1816SOL    HW2 5448   2.779   2.786   3.359
 1817SOL     OW 5449   2.853   2.272   3.104
 1817SOL    HW1 5450   2.776   2.306   3.158
 1817SOL    HW2 5451   2.819   2.221   3.025
 1818SOL     OW 5452   2.903   2.563   2.291
 1818SOL    HW1 5453   2.929   2.559   2.387
 1818SOL    HW2 5454   2.818   2.512   2.277
 1819SOL     OW 5455   1.938   2.673   2.651
 1819SOL    HW1 5456   2.037   2.661   2.660
 1819SOL    HW2 5457   1.914   2.768   2.672
 1820SOL     OW 5458   1.992   3.683   3.433
 1820SOL    HW1 5459   1.982   3.668   3.532
 1820SOL    HW2 5460   1.906   3.719   3.397
 1821SOL     OW 5461   2.727   2.210   2.057
 1821SOL    HW1 5462   2.786   2.273   2.008
 1821SOL    HW2 5463   2.746   2.116   2.028
 1822SOL     OW 5464   3.581   2.447   3.693
 1822SOL    HW1 5465   3.555   2.536   3.657
 1822SOL    HW2 5466   3.579   2.379   3.620
 1823SOL     OW 5467   3.224   3.006   2.407
 1823SOL    HW1 5468   3.307   2.977   2.359
 1823SOL    HW2 5469   3.175   3.073   2.351
 1824SOL     OW 5470   2.412   2.058   2.747
 1824SOL    HW1 5471   2.407   2.053   2.847
 1824SOL    HW2 5472   2.414   2.154   2.718
 1825SOL     OW 5473   2.870   3.318   2.339
 1825SOL    HW1 5474   2.824   3.390   2.287
 1825SOL    HW2 5475   2.866   3.338   2.437
 1826SOL     OW 5476   2.213   3.663   2.715
 1826SOL    HW1 5477   2.263   3.577   2.721
 1826SOL    HW2 5478   2.278   3.740   2.712
 1827SOL     OW 5479   3.657   2.928   2.735
 1827SOL    HW1 5480   3.595   2.913   2.659
 1827SOL    HW2 5481   3.605   2.939   2.820
 1828SOL     OW 5482   3.089   3.412   3.368
 1828SOL    HW1 5483   3.095   3.335   3.432
 1828SOL    HW2 5484   3.037   3.386   3.288
 1829SOL     OW 5485   2.183   2.805   2.104
 1829SOL    HW1 5486   2.265   2.844   2.062
 1829SOL    HW2 5487   2.156   2.723   2.055
 1830SOL     OW 5488   3.320   2.597   2.590
 1830SOL    HW1 5489   3.315   2.532   2.665
 1830SOL    HW2 5490   3.400   2.656   2.603
 1831SOL     OW 5491   2.323   3.128   3.589
 1831SOL    HW1 5492   2.273   3.129   3.503
 1831SOL    HW2 5493   2.260   3.110   3.665
 1832SOL     OW 5494   2.973   3.638   2.099
 1832SOL    HW1 5495   2.913   3.576   2.149
 1832SOL    HW2 5496   3.004   3.594   2.014
 1833SOL     OW 5497   2.064   2.147   3.360
 1833SOL    HW1 5498   1.984   2.207   3.347
 1833SOL    HW2 5499   2.054   2.098   3.446
 1834SOL     OW 5500   3.494   3.239   1.943
 1834SOL    HW1 5501   3.462   3.333   1.933
 1834SOL    HW2 5502   3.418   3.176   1.931
 1835SOL     OW 5503   2.326   3.605   2.185
 1835SOL    HW1 5504   2.359   3.644   2.271
 1835SOL    HW2 5505   2.402   3.598   2.120
 1836SOL     OW 5506   3.262   1.969   2.288
 1836SOL    HW1 5507   3.238   1.932   2.198
 1836SOL    HW2 5508   3.361   1.985   2.292
 1837SOL     OW 5509   2.111   3.647   3.103
 1837SOL    HW1 5510   2.168   3.582   3.153
 1837SOL    HW2 5511   2.095   3.614   3.010
 1838SOL     OW 5512   2.802   3.560   2.766
 1838SOL    HW1 5513   2.882   3.503   2.787
 1838SOL    HW2 5514   2.753   3.520   2.689
 1839SOL     OW 5515   2.244   2.562   2.342
 1839SOL    HW1 5516   2.289   2.472   2.339
 1839SOL    HW2 5517   2.150   2.551   2.375
 1840SOL     OW 5518   3.409   2.084   3.591
 1840SOL    HW1 5519   3.404   2.121   3.683
 1840SOL    HW2 5520   3.337   2.015   3.579
 1841SOL     OW 5521   2.476   1.984   1.979
 1841SOL    HW1 5522   2.574   1.962   1.986
 1841SOL    HW2 5523   2.445   1.967   1.886
 1842SOL     OW 5524   2.643   2.126   3.611
 1842SOL    HW1 5525   2.710   2.065   3.654
 1842SOL    HW2 5526   2.570   2.145   3.676
 1843SOL     OW 5527   2.750   3.376   3.057
 1843SOL    HW1 5528   2.727   3.351   2.963
 1843SOL    HW2 5529   2.811   3.307   3.096
 1844SOL     OW 5530   3.213   2.452   3.295
 1844SOL    HW1 5531   3.241   2.409   3.380
 1844SOL    HW2 5532   3.238   2.548   3.296
 1845SOL     OW 5533   2.665   3.264   2.786
 1845SOL    HW1 5534   2.755   3.278   2.744
 1845SOL    HW2 5535   2.594   3.266   2.715
 1846SOL     OW 5536   2.784   2.365   2.761
 1846SOL    HW1 5537   2.759   2.356   2.665
 1846SOL    HW2 5538   2.832   2.283   2.792
 1847SOL     OW 5539   2.401   1.926   2.374
 1847SOL    HW1 5540   2.320   1.927   2.432
 1847SOL    HW2 5541   2.404   2.009   2.319
 1848SOL     OW 5542   3.296   3.050   1.903
 1848SOL    HW1 5543   3.328   2.974   1.960
 1848SOL    HW2 5544   3.204   3.077   1.933
 1849SOL     OW 5545   2.797   2.098   2.342
 1849SOL    HW1 5546   2.749   2.139   2.264
 1849SOL    HW2 5547   2.896   2.096   2.323
 1850SOL     OW 5548   2.938   2.545   3.326
 1850SOL    HW1 5549   2.858   2.484   3.329
 1850SOL    HW2 5550   3.019   2.492   3.302
 1851SOL     OW 5551   3.089   3.432   2.655
 1851SOL    HW1 5552   3.110   3.506   2.590
 1851SOL    HW2 5553   3.157   3.432   2.728
 1852SOL     OW 5554   2.321   3.014   2.603
 1852SOL    HW1 5555   2.250   2.987   2.668
 1852SOL    HW2 5556   2.295   2.986   2.510
 1853SOL     OW 5557   3.133   3.659   2.453
 1853SOL    HW1 5558   3.177   3.723   2.389
 1853SOL    HW2 5559   3.083   3.711   2.523
 1854SOL     OW 5560   2.894   2.411   1.878
 1854SOL    HW1 5561   2.853   2.493   1.839
 1854SOL    HW2 5562   2.958   2.437   1.951
 1855SOL     OW 5563   1.940   2.418   3.248
 1855SOL    HW1 5564   2.032   2.417   3.207
 1855SOL    HW2 5565   1.934   2.492   3.315
 1856SOL     OW 5566   2.423   2.084   3.009
 1856SOL    HW1 5567   2.461   2.000   3.046
 1856SOL    HW2 5568   2.335   2.103   3.053
 1857SOL     OW 5569   2.728   2.316   2.504
 1857SOL    HW1 5570   2.696   2.388   2.442
 1857SOL    HW2 5571   2.752   2.235   2.451
 1858SOL     OW 5572   2.879   1.901   2.615
 1858SOL    HW1 5573   2.807   1.906   2.546
 1858SOL    HW2 5574   2.855   1.832   2.684
 1859SOL     OW 5575   3.291   3.035   2.729
 1859SOL    HW1 5576   3.236   2.951   2.722
 1859SOL    HW2 5577   3.317   3.064   2.637
 1860SOL     OW 5578   3.328   2.452   2.854
 1860SOL    HW1 5579   3.298   2.357   2.861
 1860SOL    HW2 5580   3.401   2.468   2.920
 1861SOL     OW 5581   3.719   2.695   2.239
 1861SOL    HW1 5582   3.761   2.631   2.303
 1861SOL    HW2 5583   3.681   2.644   2.161
 1862SOL     OW 5584   2.350   3.247   2.036
 1862SOL    HW1 5585   2.263   3.232   2.083
 1862SOL    HW2 5586   2.333   3.273   1.941
 1863SOL     OW 5587   3.526   3.142   2.519
 1863SOL    HW1 5588   3.625   3.150   2.533
 1863SOL    HW2 5589   3.481   3.226   2.550
 1864SOL     OW 5590   3.252   2.437   1.940
 1864SOL    HW1 5591   3.198   2.416   2.021
 1864SOL    HW2 5592   3.343   2.396   1.949
 1865SOL     OW 5593   2.389   2.118   2.190
 1865SOL    HW1 5594   2.416   2.059   2.115
 1865SOL    HW2 5595   2.389   2.213   2.159
 1866SOL     OW 5596   3.616   3.085   3.450
 1866SOL    HW1 5597   3.707   3.046   3.437
 1866SOL    HW2 5598   3.624   3.181   3.474
 1867SOL     OW 5599   2.926   3.209   3.202
 1867SOL    HW1 5600   2.846   3.186   3.257
 1867SOL    HW2 5601   3.009   3.183   3.251
 1868SOL     OW 5602   3.454   3.491   3.487
 1868SOL    HW1 5603   3.481   3.525   3.397
 1868SOL    HW2 5604   3.533   3.453   3.533
 1869SOL     OW 5605   2.973   3.057   2.962
 1869SOL    HW1 5606   2.933   3.101   3.043
 1869SOL    HW2 5607   2.932   3.094   2.879
 1870SOL     OW 5608   3.500   2.961   2.941
 1870SOL    HW1 5609   3.505   3.042   3.000
 1870SOL    HW2 5610   3.414   2.963   2.890
 1871SOL     OW 5611   2.777   1.951   3.264
 1871SOL    HW1 5612   2.802   1.931   3.169
 1871SOL    HW2 5613   2.849   2.007   3.306
 1872SOL     OW 5614   2.842   2.978   3.581
 1872SOL    HW1 5615   2.743   2.984   3.591
 1872SOL    HW2 5616   2.865   2.898   3.525
 1873SOL     OW 5617   2.567   2.912   2.230
 1873SOL    HW1 5618   2.553   2.919   2.329
 1873SOL    HW2 5619   2.651   2.861   2.212
 1874SOL     OW 5620   2.272   2.675   3.113
 1874SOL    HW1 5621   2.358   2.687   3.163
 1874SOL    HW2 5622   2.230   2.588   3.140
 1875SOL     OW 5623   3.136   2.248   3.124
 1875SOL    HW1 5624   3.157   2.322   3.188
 1875SOL    HW2 5625   3.047   2.265   3.081
 1876SOL     OW 5626   1.926   3.426   3.193
 1876SOL    HW1 5627   1.880   3.508   3.159
 1876SOL    HW2 5628   2.024   3.445   3.202
 1877SOL     OW 5629   2.229   2.962   2.363
 1877SOL    HW1 5630   2.222   3.045   2.307
 1877SOL    HW2 5631   2.233   2.882   2.303
 1878SOL     OW 5632   2.428   2.399   2.727
 1878SOL    HW1 5633   2.440   2.465   2.653
 1878SOL    HW2 5634   2.474   2.433   2.810
 1879SOL     OW 5635   3.114   3.210   2.250
 1879SOL    HW1 5636   3.164   3.287   2.290
 1879SOL    HW2 5637   3.019   3.212   2.282
 1880SOL     OW 5638   3.134   3.307   3.004
 1880SOL    HW1 5639   3.181   3.320   3.091
 1880SOL    HW2 5640   3.068   3.233   3.013
 1881SOL     OW 5641   3.444   2.501   2.334
 1881SOL    HW1 5642   3.413   2.562   2.407
 1881SOL    HW2 5643   3.494   2.553   2.265
 1882SOL     OW 5644   2.216   3.372   3.191
 1882SOL    HW1 5645   2.195   3.328   3.104
 1882SOL    HW2 5646   2.313   3.398   3.194
 1883SOL     OW 5647   2.264   2.613   3.460
 1883SOL    HW1 5648   2.332   2.668   3.413
 1883SOL    HW2 5649   2.304   2.525   3.487
 1884SOL     OW 5650   3.449   2.641   3.532
 1884SOL    HW1 5651   3.357   2.679   3.527
 1884SOL    HW2 5652   3.509   2.688   3.467
 1885SOL     OW 5653   2.875   1.967   3.632
 1885SOL    HW1 5654   2.881   2.052   3.580
 1885SOL    HW2 5655   2.907   1.891   3.575
 1886SOL     OW 5656   2.366   1.912   3.602
 1886SOL    HW1 5657   2.324   1.855   3.532
 1886SOL    HW2 5658   2.300   1.981   3.634
 1887SOL     OW 5659   2.435   2.732   2.891
 1887SOL    HW1 5660   2.479   2.821   2.882
 1887SOL    HW2 5661   2.372   2.732   2.968
 1888SOL     OW 5662   3.222   2.724   2.907
 1888SOL    HW1 5663   3.147   2.724   2.841
 1888SOL    HW2 5664   3.259   2.632   2.916
 1889SOL     OW 5665   3.071   2.387   2.137
 1889SOL    HW1 5666   3.084   2.303   2.191
 1889SOL    HW2 5667   3.042   2.461   2.197
 1890SOL     OW 5668   2.169   2.075   3.093
 1890SOL    HW1 5669   2.146   2.112   3.183
 1890SOL    HW2 5670   2.139   1.980   3.087
 1891SOL     OW 5671   1.899   3.172   3.144
 1891SOL    HW1 5672   1.952   3.123   3.212
 1891SOL    HW2 5673   1.921   3.270   3.149
 1892SOL     OW 5674   2.594   2.496   2.926
 1892SOL    HW1 5675   2.653   2.470   2.850
 1892SOL    HW2 5676   2.566   2.592   2.915
 1893SOL     OW 5677   3.590   2.797   3.716
 1893SOL    HW1 5678   3.544   2.790   3.627
 1893SOL    HW2 5679   3.528   2.841   3.782
 1894SOL     OW 5680   2.169   1.925   2.480
 1894SOL    HW1 5681   2.158   2.019   2.513
 1894SOL    HW2 5682   2.164   1.862   2.557
 1895SOL     OW 5683   3.484   2.229   2.236
 1895SOL    HW1 5684   3.486   2.153   2.300
 1895SOL    HW2 5685   3.436   2.306   2.276
 1896SOL     OW 5686   2.885   2.628   2.828
 1896SOL    HW1 5687   2.900   2.649   2.924
 1896SOL    HW2 5688   2.855   2.533   2.819
 1897SOL     OW 5689   2.842   3.435   3.562
 1897SOL    HW1 5690   2.822   3.479   3.474
 1897SOL    HW2 5691   2.881   3.344   3.546
 1898SOL     OW 5692   3.721   3.380   3.467
 1898SOL    HW1 5693   3.735   3.407   3.372
 1898SOL    HW2 5694   3.804   3.402   3.520
 1899SOL     OW 5695   2.212   2.760   3.666
 1899SOL    HW1 5696   2.288   2.804   3.714
 1899SOL    HW2 5697   2.247   2.713   3.584
 1900SOL     OW 5698   3.402   2.136   1.987
 1900SOL    HW1 5699   3.341   2.061   2.010
 1900SOL    HW2 5700   3.424   2.188   2.070
 1901SOL     OW 5701   3.165   2.700   1.904
 1901SOL    HW1 5702   3.199   2.607   1.919
 1901SOL    HW2 5703   3.183   2.727   1.809
 1902SOL     OW 5704   2.930   3.195   2.711
 1902SOL    HW1 5705   2.937   3.111   2.656
 1902SOL    HW2 5706   2.992   3.264   2.675
 1903SOL     OW 5707   2.181   2.672   2.811
 1903SOL    HW1 5708   2.274   2.708   2.816
 1903SOL    HW2 5709   2.175   2.587   2.863
 1904SOL     OW 5710   2.201   2.371   2.868
 1904SOL    HW1 5711   2.149   2.288   2.851
 1904SOL    HW2 5712   2.278   2.376   2.804
 1905SOL     OW 5713   3.000   2.242   3.540
 1905SOL    HW1 5714   2.955   2.305   3.604
 1905SOL    HW2 5715   3.093   2.273   3.523
 1906SOL     OW 5716   3.022   2.069   3.339
 1906SOL    HW1 5717   3.022   2.133   3.416
 1906SOL    HW2 5718   3.050   2.117   3.256
 1907SOL     OW 5719   1.870   3.188   2.062
 1907SOL    HW1 5720   1.777   3.209   2.031
 1907SOL    HW2 5721   1.880   3.089   2.075
 1908SOL     OW 5722   1.950   3.663   2.789
 1908SOL    HW1 5723   1.908   3.577   2.762
 1908SOL    HW2 5724   2.044   3.666   2.755
 1909SOL     OW 5725   2.366   3.430   2.772
 1909SOL    HW1 5726   2.432   3.504   2.781
 1909SOL    HW2 5727   2.410   3.351   2.730
 1910SOL     OW 5728   2.864   2.658   3.100
 1910SOL    HW1 5729   2.905   2.626   3.186
 1910SOL    HW2 5730   2.768   2.631   3.097
 1911SOL     OW 5731   1.902   2.406   2.976
 1911SOL    HW1 5732   1.987   2.373   2.935
 1911SOL    HW2 5733   1.915   2.421   3.074
 1912SOL     OW 5734   2.051   2.382   3.584
 1912SOL    HW1 5735   2.110   2.342   3.514
 1912SOL    HW2 5736   1.993   2.453   3.543
 1913SOL     OW 5737   3.231   2.812   3.522
 1913SOL    HW1 5738   3.270   2.901   3.542
 1913SOL    HW2 5739   3.241   2.792   3.425
 1914SOL     OW 5740   2.677   2.434   2.187
 1914SOL    HW1 5741   2.684   2.345   2.141
 1914SOL    HW2 5742   2.583   2.468   2.179
 1915SOL     OW 5743   3.519   2.466   3.068
 1915SOL    HW1 5744   3.481   2.397   3.130
 1915SOL    HW2 5745   3.601   2.430   3.024
 1916SOL     OW 5746   2.114   3.426   3.606
 1916SOL    HW1 5747   2.084   3.483   3.682
 1916SOL    HW2 5748   2.107   3.329   3.632
 1917SOL     OW 5749   2.533   2.326   3.131
 1917SOL    HW1 5750   2.499   2.237   3.101
 1917SOL    HW2 5751   2.559   2.380   3.051
 1918SOL     OW 5752   2.792   3.540   3.327
 1918SOL    HW1 5753   2.768   3.522   3.232
 1918SOL    HW2 5754   2.822   3.634   3.337
 1919SOL     OW 5755   2.335   2.362   2.053
 1919SOL    HW1 5756   2.396   2.442   2.057
 1919SOL    HW2 5757   2.240   2.393   2.060
 1920SOL     OW 5758   2.021   2.999   3.328
 1920SOL    HW1 5759   2.043   2.938   3.404
 1920SOL    HW2 5760   2.031   2.950   3.242
 1921SOL     OW 5761   3.209   2.921   3.096
 1921SOL    HW1 5762   3.233   2.858   3.022
 1921SOL    HW2 5763   3.119   2.961   3.078
 1922SOL     OW 5764   3.164   2.717   2.171
 1922SOL    HW1 5765   3.078   2.686   2.213
 1922SOL    HW2 5766   3.160   2.703   2.072
 1923SOL     OW 5767   3.621   3.609   3.016
 1923SOL    HW1 5768   3.682   3.639   2.943
 1923SOL    HW2 5769   3.583   3.520   2.994
 1924SOL     OW 5770   3.114   3.593   2.990
 1924SOL    HW1 5771   3.198   3.598   2.936
 1924SOL    HW2 5772   3.091   3.497   3.008
 1925SOL     OW 5773   1.945   3.120   2.884
 1925SOL    HW1 5774   1.940   3.119   2.984
 1925SOL    HW2 5775   1.862   3.079   2.846
 1926SOL     OW 5776   2.550   3.524   3.578
 1926SOL    HW1 5777   2.494   3.605   3.587
 1926SOL    HW2 5778   2.602   3.528   3.492
 1927SOL     OW 5779   3.588   1.997   2.385
 1927SOL    HW1 5780   3.661   1.980   2.318
 1927SOL    HW2 5781   3.557   1.910   2.423
 1928SOL     OW 5782   3.250   3.435   2.339
 1928SOL    HW1 5783   3.317   3.447   2.265
 1928SOL    HW2 5784   3.210   3.524   2.362
 1929SOL     OW 5785   1.992   3.656   3.713
 1929SOL    HW1 5786   1.951   3.582   3.766
 1929SOL    HW2 5787   2.056   3.707   3.771
 1930SOL     OW 5788   3.142   2.789   2.534
 1930SOL    HW1 5789   3.202   2.708   2.536
 1930SOL    HW2 5790   3.182   2.858   2.474
 1931SOL     OW 5791   2.692   3.135   3.284
 1931SOL    HW1 5792   2.687   3.168   3.379
 1931SOL    HW2 5793   2.606   3.154   3.238
 1932SOL     OW 5794   2.534   3.478   2.016
 1932SOL    HW1 5795   2.543   3.488   1.917
 1932SOL    HW2 5796   2.494   3.389   2.037
 1933SOL     OW 5797   3.512   3.582   3.256
 1933SOL    HW1 5798   3.565   3.592   3.172
 1933SOL    HW2 5799   3.485   3.672   3.290
 1934SOL     OW 5800   3.703   2.037   2.825
 1934SOL    HW1 5801   3.742   1.952   2.789
 1934SOL    HW2 5802   3.605   2.039   2.806
 1935SOL     OW 5803   2.125   2.188   2.582
 1935SOL    HW1 5804   2.046   2.239   2.548
 1935SOL    HW2 5805   2.116   2.173   2.680
 1936SOL     OW 5806   3.056   3.474   1.893
 1936SOL    HW1 5807   3.062   3.381   1.930
 1936SOL    HW2 5808   2.997   3.474   1.813
 1937SOL     OW 5809   2.684   2.864   3.234
 1937SOL    HW1 5810   2.724   2.863   3.142
 1937SOL    HW2 5811   2.694   2.956   3.274
 1938SOL     OW 5812   2.778   2.772   2.153
 1938SOL    HW1 5813   2.841   2.810   2.085
 1938SOL    HW2 5814   2.818   2.689   2.192
 1939SOL     OW 5815   3.366   3.469   1.906
 1939SOL    HW1 5816   3.274   3.506   1.913
 1939SOL    HW2 5817   3.404   3.489   1.816
 1940SOL     OW 5818   2.234   3.150   3.352
 1940SOL    HW1 5819   2.221   3.243   3.318
 1940SOL    HW2 5820   2.150   3.098   3.339
 1941SOL     OW 5821   3.476   3.154   3.151
 1941SOL    HW1 5822   3.536   3.157   3.231
 1941SOL    HW2 5823   3.401   3.218   3.164
 1942SOL     OW 5824   2.901   2.960   2.558
 1942SOL    HW1 5825   2.831   2.913   2.612
 1942SOL    HW2 5826   2.960   2.892   2.515
 1943SOL     OW 5827   2.876   2.098   2.833
 1943SOL    HW1 5828   2.868   2.062   2.740
 1943SOL    HW2 5829   2.874   2.022   2.898
 1944SOL     OW 5830   2.452   3.349   2.353
 1944SOL    HW1 5831   2.494   3.291   2.283
 1944SOL    HW2 5832   2.408   3.428   2.309
 1945SOL     OW 5833   3.571   2.247   3.243
 1945SOL    HW1 5834   3.644   2.316   3.247
 1945SOL    HW2 5835   3.599   2.172   3.184
 1946SOL     OW 5836   2.117   3.210   2.152
 1946SOL    HW1 5837   2.021   3.211   2.125
 1946SOL    HW2 5838   2.129   3.263   2.236
 1947SOL     OW 5839   1.967   2.875   3.588
 1947SOL    HW1 5840   1.890   2.842   3.642
 1947SOL    HW2 5841   2.052   2.845   3.630
 1948SOL     OW 5842   2.534   2.065   3.351
 1948SOL    HW1 5843   2.624   2.049   3.311
 1948SOL    HW2 5844   2.542   2.070   3.450
 1949SOL     OW 5845   1.937   2.207   1.895
 1949SOL    HW1 5846   1.845   2.179   1.866
 1949SOL    HW2 5847   1.968   2.284   1.839
 1950SOL     OW 5848   3.302   2.718   3.260
 1950SOL    HW1 5849   3.245   2.770   3.197
 1950SOL    HW2 5850   3.398   2.730   3.236
 1951SOL     OW 5851   3.045   3.197   1.981
 1951SOL    HW1 5852   2.946   3.186   1.983
 1951SOL    HW2 5853   3.079   3.212   2.074
 1952SOL     OW 5854   2.475   2.704   3.293
 1952SOL    HW1 5855   2.531   2.785   3.276
 1952SOL    HW2 5856   2.534   2.624   3.296
 1953SOL     OW 5857   3.355   3.629   2.821
 1953SOL    HW1 5858   3.388   3.693   2.752
 1953SOL    HW2 5859   3.421   3.623   2.896
 1954SOL     OW 5860   2.578   2.427   3.570
 1954SOL    HW1 5861   2.597   2.492   3.644
 1954SOL    HW2 5862   2.638   2.347   3.579
 1955SOL     OW 5863   3.312   3.082   3.495
 1955SOL    HW1 5864   3.303   3.072   3.594
 1955SOL    HW2 5865   3.408   3.075   3.469
 1956SOL     OW 5866   2.252   3.603   3.422
 1956SOL    HW1 5867   2.161   3.644   3.420
 1956SOL    HW2 5868   2.245   3.509   3.454
 1957SOL     OW 5869   3.536   2.745   3.116
 1957SOL    HW1 5870   3.509   2.656   3.079
 1957SOL    HW2 5871   3.537   2.813   3.043
 1958SOL     OW 5872   3.087   2.187   2.311
 1958SOL    HW1 5873   3.152   2.113   2.300
 1958SOL    HW2 5874   3.107   2.237   2.395
 1959SOL     OW 5875   2.456   2.607   2.514
 1959SOL    HW1 5876   2.506   2.692   2.495
 1959SOL    HW2 5877   2.368   2.609   2.466
 1960SOL     OW 5878   3.639   2.204   3.504
 1960SOL    HW1 5879   3.622   2.235   3.410
 1960SOL    HW2 5880   3.555   2.167   3.542
 1961SOL     OW 5881   3.592   2.796   3.379
 1961SOL    HW1 5882   3.630   2.887   3.394
 1961SOL    HW2 5883   3.584   2.779   3.280
 1962SOL     OW 5884   2.721   3.236   1.878
 1962SOL    HW1 5885   2.675   3.251   1.966
 1962SOL    HW2 5886   2.765   3.321   1.848
 1963SOL     OW 5887   2.523   3.652   2.815
 1963SOL    HW1 5888   2.477   3.740   2.802
 1963SOL    HW2 5889   2.622   3.664   2.808
 1964SOL     OW 5890   2.721   2.818   2.723
 1964SOL    HW1 5891   2.775   2.749   2.771
 1964SOL    HW2 5892   2.689   2.887   2.789
 1965SOL     OW 5893   2.945   2.846   1.949
 1965SOL    HW1 5894   2.922   2.899   1.867
 1965SOL    HW2 5895   3.026   2.790   1.930
 1966SOL     OW 5896   3.723   3.431   2.713
 1966SOL    HW1 5897   3.652   3.419   2.643
 1966SOL    HW2 5898   3.724   3.352   2.773
 1967SOL     OW 5899   2.083   3.176   3.706
 1967SOL    HW1 5900   2.018   3.103   3.685
 1967SOL    HW2 5901   2.087   3.190   3.804
 1968SOL     OW 5902   1.941   3.102   2.515
 1968SOL    HW1 5903   1.940   3.055   2.603
 1968SOL    HW2 5904   2.023   3.074   2.464
 1969SOL     OW 5905   2.534   3.253   3.486
 1969SOL    HW1 5906   2.456   3.203   3.524
 1969SOL    HW2 5907   2.531   3.348   3.517
 1970SOL     OW 5908   3.686   2.054   3.089
 1970SOL    HW1 5909   3.682   1.964   3.133
 1970SOL    HW2 5910   3.689   2.043   2.990
 1971SOL     OW 5911   2.290   2.286   2.382
 1971SOL    HW1 5912   2.320   2.214   2.320
 1971SOL    HW2 5913   2.251   2.246   2.465
 1972SOL     OW 5914   3.567   3.349   2.966
 1972SOL    HW1 5915   3.474   3.324   2.939
 1972SOL    HW2 5916   3.593   3.299   3.048
 1973SOL     OW 5917   2.179   2.409   3.142
 1973SOL    HW1 5918   2.217   2.350   3.214
 1973SOL    HW2 5919   2.219   2.383   3.054
 1974SOL     OW 5920   2.674   3.448   2.549
 1974SOL    HW1 5921   2.706   3.458   2.455
 1974SOL    HW2 5922   2.595   3.386   2.551
 1975SOL     OW 5923   3.286   2.076   2.974
 1975SOL    HW1 5924   3.338   2.011   3.029
 1975SOL    HW2 5925   3.237   2.139   3.035
 1976SOL     OW 5926   2.863   1.896   3.016
 1976SOL    HW1 5927   2.800   1.824   2.985
 1976SOL    HW2 5928   2.956   1.860   3.016
 1977SOL     OW 5929   2.632   3.192   2.163
 1977SOL    HW1 5930   2.586   3.105   2.180
 1977SOL    HW2 5931   2.723   3.189   2.204
 1978SOL     OW 5932   2.480   3.429   3.146
 1978SOL    HW1 5933   2.475   3.511   3.203
 1978SOL    HW2 5934   2.569   3.426   3.101
 1979SOL     OW 5935   3.214   1.914   2.030
 1979SOL    HW1 5936   3.249   1.873   1.946
 1979SOL    HW2 5937   3.124   1.876   2.050
 1980SOL     OW 5938   3.162   2.315   2.553
 1980SOL    HW1 5939   3.103   2.395   2.557
 1980SOL    HW2 5940   3.177   2.280   2.646
 1981SOL     OW 5941   3.455   2.083   2.744
 1981SOL    HW1 5942   3.371   2.082   2.798
 1981SOL    HW2 5943   3.457   2.166   2.688
 1982SOL     OW 5944   1.901   2.939   2.162
 1982SOL    HW1 5945   2.000   2.928   2.153
 1982SOL    HW2 5946   1.861   2.853   2.194
 1983SOL     OW 5947   2.737   3.508   2.199
 1983SOL    HW1 5948   2.660   3.473   2.145
 1983SOL    HW2 5949   2.705   3.579   2.261
 1984SOL     OW 5950   2.092   2.490   3.837
 1984SOL    HW1 5951   1.999   2.488   3.874
 1984SOL    HW2 5952   2.093   2.451   3.745
 1985SOL     OW 5953   3.617   2.469   3.955
 1985SOL    HW1 5954   3.605   2.456   3.856
 1985SOL    HW2 5955   3.587   2.388   4.004
 1986SOL     OW 5956   2.093   3.575   4.207
 1986SOL    HW1 5957   2.127   3.652   4.261
 1986SOL    HW2 5958   2.137   3.575   4.117
 1987SOL     OW 5959   2.092   3.296   4.262
 1987SOL    HW1 5960   2.066   3.392   4.262
 1987SOL    HW2 5961   2.021   3.242   4.307
 1988SOL     OW 5962   2.468   2.826   3.847
 1988SOL    HW1 5963   2.475   2.910   3.793
 1988SOL    HW2 5964   2.514   2.839   3.935
 1989SOL     OW 5965   3.704   3.629   4.083
 1989SOL    HW1 5966   3.758   3.600   4.163
 1989SOL    HW2 5967   3.734   3.719   4.054
 1990SOL     OW 5968   1.889   3.458   3.841
 1990SOL    HW1 5969   1.870   3.362   3.862
 1990SOL    HW2 5970   1.856   3.516   3.916
 1991SOL     OW 5971   3.551   2.784   4.336
 1991SOL    HW1 5972   3.646   2.755   4.344
 1991SOL    HW2 5973   3.543   2.849   4.261
 1992SOL     OW 5974   3.503   2.970   4.156
 1992SOL    HW1 5975   3.589   2.972   4.104
 1992SOL    HW2 5976   3.517   3.017   4.244
 1993SOL     OW 5977   3.387   2.861   3.914
 1993SOL    HW1 5978   3.324   2.785   3.927
 1993SOL    HW2 5979   3.435   2.879   4.000
 1994SOL     OW 5980   2.460   2.591   3.994
 1994SOL    HW1 5981   2.484   2.660   3.926
 1994SOL    HW2 5982   2.382   2.624   4.048
 1995SOL     OW 5983   2.727   2.210   3.919
 1995SOL    HW1 5984   2.786   2.273   3.870
 1995SOL    HW2 5985   2.746   2.116   3.890
 1996SOL     OW 5986   2.183   2.805   3.966
 1996SOL    HW1 5987   2.265   2.844   3.924
 1996SOL    HW2 5988   2.156   2.723   3.917
 1997SOL     OW 5989   3.320   2.597   4.452
 1997SOL    HW1 5990   3.315   2.532   4.527
 1997SOL    HW2 5991   3.400   2.656   4.465
 1998SOL     OW 5992   2.973   3.638   3.961
 1998SOL    HW1 5993   2.913   3.576   4.011
 1998SOL    HW2 5994   3.004   3.594   3.876
 1999SOL     OW 5995   3.494   3.239   3.805
 1999SOL    HW1 5996   3.462   3.333   3.795
 1999SOL    HW2 5997   3.418   3.176   3.793
 2000SOL     OW 5998   2.326   3.605   4.047
 2000SOL    HW1 5999   2.359   3.644   4.133
 2000SOL    HW2 6000   2.402   3.598   3.982
 2001SOL     OW 6001   3.262   1.969   4.150
 2001SOL    HW1 6002   3.238   1.932   4.060
 2001SOL    HW2 6003   3.361   1.985   4.154
 2002SOL     OW 6004   2.476   1.984   3.841
 2002SOL    HW1 6005   2.574   1.962   3.848
 2002SOL    HW2 6006   2.445   1.967   3.748
 2003SOL     OW 6007   3.296   3.050   3.765
 2003SOL    HW1 6008   3.328   2.974   3.822
 2003SOL    HW2 6009   3.204   3.077   3.795
 2004SOL     OW 6010   2.159   1.897   3.895
 2004SOL    HW1 6011   2.208   1.981   3.874
 2004SOL    HW2 6012   2.221   1.832   3.940
 2005SOL     OW 6013   2.797   2.098   4.204
 2005SOL    HW1 6014   2.749   2.139   4.126
 2005SOL    HW2 6015   2.896   2.096   4.185
 2006SOL     OW 6016   2.894   2.411   3.740
 2006SOL    HW1 6017   2.853   2.493   3.701
 2006SOL    HW2 6018   2.958   2.437   3.813
 2007SOL     OW 6019   3.719   2.695   4.101
 2007SOL    HW1 6020   3.761   2.631   4.165
 2007SOL    HW2 6021   3.681   2.644   4.023
 2008SOL     OW 6022   2.350   3.247   3.898
 2008SOL    HW1 6023   2.263   3.232   3.945
 2008SOL    HW2 6024   2.333   3.273   3.803
 2009SOL     OW 6025   3.252   2.437   3.802
 2009SOL    HW1 6026   3.198   2.416   3.883
 2009SOL    HW2 6027   3.343   2.396   3.811
 2010SOL     OW 6028   2.389   2.118   4.052
 2010SOL    HW1 6029   2.416   2.059   3.977
 2010SOL    HW2 6030   2.389   2.213   4.021
 2011SOL     OW 6031   2.229   2.962   4.225
 2011SOL    HW1 6032   2.222   3.045   4.169
 2011SOL    HW2 6033   2.233   2.882   4.165
 2012SOL     OW 6034   3.114   3.210   4.112
 2012SOL    HW1 6035   3.164   3.287   4.152
 2012SOL    HW2 6036   3.019   3.212   4.144
 2013SOL     OW 6037   3.444   2.501   4.196
 2013SOL    HW1 6038   3.413   2.562   4.269
 2013SOL    HW2 6039   3.494   2.553   4.127
 2014SOL     OW 6040   3.071   2.387   3.999
 2014SOL    HW1 6041   3.084   2.303   4.053
 2014SOL    HW2 6042   3.042   2.461   4.059
 2015SOL     OW 6043   2.169   1.925   4.342
 2015SOL    HW1 6044   2.158   2.019   4.375
 2015SOL    HW2 6045   2.164   1.862   4.419
 2016SOL     OW 6046   3.484   2.229   4.098
 2016SOL    HW1 6047   3.486   2.153   4.162
 2016SOL    HW2 6048   3.436   2.306   4.138
 2017SOL     OW 6049   3.402   2.136   3.849
 2017SOL    HW1 6050   3.341   2.061   3.872
 2017SOL    HW2 6051   3.424   2.188   3.932
 2018SOL     OW 6052   3.165   2.700   3.766
 2018SOL    HW1 6053   3.199   2.607   3.781
 2018SOL    HW2 6054   3.183   2.727   3.671
 2019SOL     OW 6055   1.870   3.188   3.924
 2019SOL    HW1 6056   1.777   3.209   3.893
 2019SOL    HW2 6057   1.880   3.089   3.937
 2020SOL     OW 6058   2.677   2.434   4.049
 2020SOL    HW1 6059   2.684   2.345   4.003
 2020SOL    HW2 6060   2.583   2.468   4.041
 2021SOL     OW 6061   2.335   2.362   3.915
 2021SOL    HW1 6062   2.396   2.442   3.919
 2021SOL    HW2 6063   2.240   2.393   3.922
 2022SOL     OW 6064   3.588   1.997   4.247
 2022SOL    HW1 6065   3.661   1.980   4.180
 2022SOL    HW2 6066   3.557   1.910   4.285
 2023SOL     OW 6067   2.534   3.478   3.878
 2023SOL    HW1 6068   2.543   3.488   3.779
 2023SOL    HW2 6069   2.494   3.389   3.899
 2024SOL     OW 6070   2.125   2.188   4.444
 2024SOL    HW1 6071   2.046   2.239   4.410
 2024SOL    HW2 6072   2.116   2.173   4.542
 2025SOL     OW 6073   3.056   3.474   3.755
 2025SOL    HW1 6074   3.062   3.381   3.792
 2025SOL    HW2 6075   2.997   3.474   3.675
 2026SOL     OW 6076   2.778   2.772   4.015
 2026SOL    HW1 6077   2.841   2.810   3.947
 2026SOL    HW2 6078   2.818   2.689   4.054
 2027SOL     OW 6079   3.366   3.469   3.768
 2027SOL    HW1 6080   3.274   3.506   3.775
 2027SOL    HW2 6081   3.404   3.489   3.678
 2028SOL     OW 6082   2.117   3.210   4.014
 2028SOL    HW1 6083   2.021   3.211   3.987
 2028SOL    HW2 6084   2.129   3.263   4.098
 2029SOL     OW 6085   1.937   2.207   3.757
 2029SOL    HW1 6086   1.845   2.179   3.728
 2029SOL    HW2 6087   1.968   2.284   3.701
 2030SOL     OW 6088   1.934   2.028   4.042
 2030SOL    HW1 6089   1.917   2.111   3.988
 2030SOL    HW2 6090   2.024   1.991   4.020
 2031SOL     OW 6091   3.045   3.197   3.843
 2031SOL    HW1 6092   2.946   3.186   3.845
 2031SOL    HW2 6093   3.079   3.212   3.936
 2032SOL     OW 6094   3.087   2.187   4.173
 2032SOL    HW1 6095   3.152   2.113   4.162
 2032SOL    HW2 6096   3.107   2.237   4.257
 2033SOL     OW 6097   2.721   3.236   3.740
 2033SOL    HW1 6098   2.675   3.251   3.828
 2033SOL    HW2 6099   2.765   3.321   3.710
 2034SOL     OW 6100   2.945   2.846   3.811
 2034SOL    HW1 6101   2.922   2.899   3.729
 2034SOL    HW2 6102   3.026   2.790   3.792
 2035SOL     OW 6103   3.214   1.914   3.892
 2035SOL    HW1 6104   3.249   1.873   3.808
 2035SOL    HW2 6105   3.124   1.876   3.912
 2036SOL     OW 6106   1.901   2.939   4.024
 2036SOL    HW1 6107   2.000   2.928   4.015
 2036SOL    HW2 6108   1.861   2.853   4.056
 2037SOL     OW 6109   2.737   3.508   4.061
 2037SOL    HW1 6110   2.660   3.473   4.007
 2037SOL    HW2 6111   2.705   3.579   4.123
 2038SOL     OW 6112   2.087   3.999   0.996
 2038SOL    HW1 6113   2.122   3.982   1.088
 2038SOL    HW2 6114   1.999   3.954   0.984
 2039SOL     OW 6115   1.881   4.092   0.647
 2039SOL    HW1 6116   1.799   4.135   0.686
 2039SOL    HW2 6117   1.853   4.019   0.584
 2040SOL     OW 6118   2.300   4.116   1.499
 2040SOL    HW1 6119   2.382   4.060   1.508
 2040SOL    HW2 6120   2.219   4.058   1.503
 2041SOL     OW 6121   3.465   4.171   0.737
 2041SOL    HW1 6122   3.391   4.217   0.687
 2041SOL    HW2 6123   3.516   4.239   0.790
 2042SOL     OW 6124   3.456   3.838   1.480
 2042SOL    HW1 6125   3.438   3.905   1.408
 2042SOL    HW2 6126   3.453   3.884   1.569
 2043SOL     OW 6127   1.984   4.367   0.563
 2043SOL    HW1 6128   1.939   4.279   0.580
 2043SOL    HW2 6129   1.983   4.421   0.647
 2044SOL     OW 6130   2.671   3.728   0.502
 2044SOL    HW1 6131   2.711   3.819   0.493
 2044SOL    HW2 6132   2.571   3.736   0.508
 2045SOL     OW 6133   2.179   3.975   1.801
 2045SOL    HW1 6134   2.250   4.046   1.807
 2045SOL    HW2 6135   2.091   4.014   1.829
 2046SOL     OW 6136   3.143   4.069   0.944
 2046SOL    HW1 6137   3.057   4.019   0.931
 2046SOL    HW2 6138   3.205   4.015   1.000
 2047SOL     OW 6139   3.256   4.193   1.674
 2047SOL    HW1 6140   3.236   4.236   1.762
 2047SOL    HW2 6141   3.334   4.131   1.683
 2048SOL     OW 6142   3.581   4.309   1.831
 2048SOL    HW1 6143   3.555   4.398   1.795
 2048SOL    HW2 6144   3.579   4.241   1.758
 2049SOL     OW 6145   2.412   3.920   0.885
 2049SOL    HW1 6146   2.407   3.915   0.985
 2049SOL    HW2 6147   2.414   4.016   0.856
 2050SOL     OW 6148   2.064   4.009   1.498
 2050SOL    HW1 6149   1.984   4.069   1.485
 2050SOL    HW2 6150   2.054   3.960   1.584
 2051SOL     OW 6151   3.262   3.831   0.426
 2051SOL    HW1 6152   3.238   3.794   0.336
 2051SOL    HW2 6153   3.361   3.847   0.430
 2052SOL     OW 6154   3.409   3.946   1.729
 2052SOL    HW1 6155   3.404   3.983   1.821
 2052SOL    HW2 6156   3.337   3.877   1.717
 2053SOL     OW 6157   2.476   3.846   0.117
 2053SOL    HW1 6158   2.574   3.824   0.124
 2053SOL    HW2 6159   2.445   3.829   0.024
 2054SOL     OW 6160   2.643   3.988   1.749
 2054SOL    HW1 6161   2.710   3.927   1.792
 2054SOL    HW2 6162   2.570   4.007   1.814
 2055SOL     OW 6163   3.213   4.314   1.433
 2055SOL    HW1 6164   3.241   4.271   1.518
 2055SOL    HW2 6165   3.238   4.410   1.434
 2056SOL     OW 6166   2.401   3.788   0.512
 2056SOL    HW1 6167   2.320   3.789   0.570
 2056SOL    HW2 6168   2.404   3.871   0.457
 2057SOL     OW 6169   2.797   3.960   0.480
 2057SOL    HW1 6170   2.749   4.001   0.402
 2057SOL    HW2 6171   2.896   3.958   0.461
 2058SOL     OW 6172   1.940   4.280   1.386
 2058SOL    HW1 6173   2.032   4.279   1.345
 2058SOL    HW2 6174   1.934   4.354   1.453
 2059SOL     OW 6175   2.423   3.946   1.147
 2059SOL    HW1 6176   2.461   3.862   1.184
 2059SOL    HW2 6177   2.335   3.965   1.191
 2060SOL     OW 6178   2.879   3.763   0.753
 2060SOL    HW1 6179   2.807   3.768   0.684
 2060SOL    HW2 6180   2.855   3.694   0.822
 2061SOL     OW 6181   2.389   3.980   0.328
 2061SOL    HW1 6182   2.416   3.921   0.253
 2061SOL    HW2 6183   2.389   4.075   0.297
 2062SOL     OW 6184   2.777   3.813   1.402
 2062SOL    HW1 6185   2.802   3.793   1.307
 2062SOL    HW2 6186   2.849   3.869   1.444
 2063SOL     OW 6187   2.875   3.829   1.770
 2063SOL    HW1 6188   2.881   3.914   1.718
 2063SOL    HW2 6189   2.907   3.753   1.713
 2064SOL     OW 6190   2.366   3.774   1.740
 2064SOL    HW1 6191   2.324   3.717   1.670
 2064SOL    HW2 6192   2.300   3.843   1.772
 2065SOL     OW 6193   2.169   3.937   1.231
 2065SOL    HW1 6194   2.146   3.974   1.321
 2065SOL    HW2 6195   2.139   3.842   1.225
 2066SOL     OW 6196   2.594   4.358   1.064
 2066SOL    HW1 6197   2.653   4.332   0.988
 2066SOL    HW2 6198   2.566   4.454   1.053
 2067SOL     OW 6199   2.169   3.787   0.618
 2067SOL    HW1 6200   2.158   3.881   0.651
 2067SOL    HW2 6201   2.164   3.724   0.695
 2068SOL     OW 6202   3.484   4.091   0.374
 2068SOL    HW1 6203   3.486   4.015   0.438
 2068SOL    HW2 6204   3.436   4.168   0.414
 2069SOL     OW 6205   3.402   3.998   0.125
 2069SOL    HW1 6206   3.341   3.923   0.148
 2069SOL    HW2 6207   3.424   4.050   0.208
 2070SOL     OW 6208   2.201   4.233   1.006
 2070SOL    HW1 6209   2.149   4.150   0.989
 2070SOL    HW2 6210   2.278   4.238   0.942
 2071SOL     OW 6211   3.022   3.931   1.477
 2071SOL    HW1 6212   3.022   3.995   1.554
 2071SOL    HW2 6213   3.050   3.979   1.394
 2072SOL     OW 6214   2.051   4.244   1.722
 2072SOL    HW1 6215   2.110   4.204   1.652
 2072SOL    HW2 6216   1.993   4.315   1.681
 2073SOL     OW 6217   2.677   4.296   0.325
 2073SOL    HW1 6218   2.684   4.207   0.279
 2073SOL    HW2 6219   2.583   4.330   0.317
 2074SOL     OW 6220   2.765   3.810   0.133
 2074SOL    HW1 6221   2.816   3.811   0.047
 2074SOL    HW2 6222   2.821   3.768   0.204
 2075SOL     OW 6223   3.588   3.859   0.523
 2075SOL    HW1 6224   3.661   3.842   0.456
 2075SOL    HW2 6225   3.557   3.772   0.561
 2076SOL     OW 6226   3.703   3.899   0.963
 2076SOL    HW1 6227   3.742   3.814   0.927
 2076SOL    HW2 6228   3.605   3.901   0.944
 2077SOL     OW 6229   2.876   3.960   0.971
 2077SOL    HW1 6230   2.868   3.924   0.878
 2077SOL    HW2 6231   2.874   3.884   1.036
 2078SOL     OW 6232   3.571   4.109   1.381
 2078SOL    HW1 6233   3.644   4.178   1.385
 2078SOL    HW2 6234   3.599   4.034   1.322
 2079SOL     OW 6235   2.534   3.927   1.489
 2079SOL    HW1 6236   2.624   3.911   1.449
 2079SOL    HW2 6237   2.542   3.932   1.588
 2080SOL     OW 6238   1.937   4.069   0.033
 2080SOL    HW1 6239   1.845   4.041   0.004
 2080SOL    HW2 6240   1.968   4.146  -0.023
 2081SOL     OW 6241   1.934   3.890   0.318
 2081SOL    HW1 6242   1.917   3.973   0.264
 2081SOL    HW2 6243   2.024   3.853   0.296
 2082SOL     OW 6244   3.087   4.049   0.449
 2082SOL    HW1 6245   3.152   3.975   0.438
 2082SOL    HW2 6246   3.107   4.099   0.533
 2083SOL     OW 6247   3.639   4.066   1.642
 2083SOL    HW1 6248   3.622   4.097   1.548
 2083SOL    HW2 6249   3.555   4.029   1.680
 2084SOL     OW 6250   3.686   3.916   1.227
 2084SOL    HW1 6251   3.682   3.826   1.271
 2084SOL    HW2 6252   3.689   3.905   1.128
 2085SOL     OW 6253   3.286   3.938   1.112
 2085SOL    HW1 6254   3.338   3.873   1.167
 2085SOL    HW2 6255   3.237   4.001   1.173
 2086SOL     OW 6256   2.863   3.758   1.154
 2086SOL    HW1 6257   2.800   3.686   1.123
 2086SOL    HW2 6258   2.956   3.722   1.154
 2087SOL     OW 6259   3.214   3.776   0.168
 2087SOL    HW1 6260   3.249   3.735   0.084
 2087SOL    HW2 6261   3.124   3.738   0.188
 2088SOL     OW 6262   3.162   4.177   0.691
 2088SOL    HW1 6263   3.103   4.257   0.695
 2088SOL    HW2 6264   3.177   4.142   0.784
 2089SOL     OW 6265   3.455   3.945   0.882
 2089SOL    HW1 6266   3.371   3.944   0.936
 2089SOL    HW2 6267   3.457   4.028   0.826
 2090SOL     OW 6268   2.087   3.999   2.858
 2090SOL    HW1 6269   2.122   3.982   2.950
 2090SOL    HW2 6270   1.999   3.954   2.846
 2091SOL     OW 6271   1.881   4.092   2.509
 2091SOL    HW1 6272   1.799   4.135   2.548
 2091SOL    HW2 6273   1.853   4.019   2.446
 2092SOL     OW 6274   3.617   4.331   2.093
 2092SOL    HW1 6275   3.605   4.318   1.994
 2092SOL    HW2 6276   3.587   4.250   2.142
 2093SOL     OW 6277   2.300   4.116   3.361
 2093SOL    HW1 6278   2.382   4.060   3.370
 2093SOL    HW2 6279   2.219   4.058   3.365
 2094SOL     OW 6280   3.465   4.171   2.599
 2094SOL    HW1 6281   3.391   4.217   2.549
 2094SOL    HW2 6282   3.516   4.239   2.652
 2095SOL     OW 6283   3.456   3.838   3.342
 2095SOL    HW1 6284   3.438   3.905   3.270
 2095SOL    HW2 6285   3.453   3.884   3.431
 2096SOL     OW 6286   1.984   4.367   2.425
 2096SOL    HW1 6287   1.939   4.279   2.442
 2096SOL    HW2 6288   1.983   4.421   2.509
 2097SOL     OW 6289   2.671   3.728   2.364
 2097SOL    HW1 6290   2.711   3.819   2.355
 2097SOL    HW2 6291   2.571   3.736   2.370
 2098SOL     OW 6292   2.179   3.975   3.663
 2098SOL    HW1 6293   2.250   4.046   3.669
 2098SOL    HW2 6294   2.091   4.014   3.691
 2099SOL     OW 6295   3.143   4.069   2.806
 2099SOL    HW1 6296   3.057   4.019   2.793
 2099SOL    HW2 6297   3.205   4.015   2.862
 2100SOL     OW 6298   3.256   4.193   3.536
 2100SOL    HW1 6299   3.236   4.236   3.624
 2100SOL    HW2 6300   3.334   4.131   3.545
 2101SOL     OW 6301   2.727   4.072   2.057
 2101SOL    HW1 6302   2.786   4.135   2.008
 2101SOL    HW2 6303   2.746   3.978   2.028
 2102SOL     OW 6304   3.581   4.309   3.693
 2102SOL    HW1 6305   3.555   4.398   3.657
 2102SOL    HW2 6306   3.579   4.241   3.620
 2103SOL     OW 6307   2.412   3.920   2.747
 2103SOL    HW1 6308   2.407   3.915   2.847
 2103SOL    HW2 6309   2.414   4.016   2.718
 2104SOL     OW 6310   2.064   4.009   3.360
 2104SOL    HW1 6311   1.984   4.069   3.347
 2104SOL    HW2 6312   2.054   3.960   3.446
 2105SOL     OW 6313   3.262   3.831   2.288
 2105SOL    HW1 6314   3.238   3.794   2.198
 2105SOL    HW2 6315   3.361   3.847   2.292
 2106SOL     OW 6316   3.409   3.946   3.591
 2106SOL    HW1 6317   3.404   3.983   3.683
 2106SOL    HW2 6318   3.337   3.877   3.579
 2107SOL     OW 6319   2.476   3.846   1.979
 2107SOL    HW1 6320   2.574   3.824   1.986
 2107SOL    HW2 6321   2.445   3.829   1.886
 2108SOL     OW 6322   2.643   3.988   3.611
 2108SOL    HW1 6323   2.710   3.927   3.654
 2108SOL    HW2 6324   2.570   4.007   3.676
 2109SOL     OW 6325   3.213   4.314   3.295
 2109SOL    HW1 6326   3.241   4.271   3.380
 2109SOL    HW2 6327   3.238   4.410   3.296
 2110SOL     OW 6328   2.401   3.788   2.374
 2110SOL    HW1 6329   2.320   3.789   2.432
 2110SOL    HW2 6330   2.404   3.871   2.319
 2111SOL     OW 6331   2.159   3.759   2.033
 2111SOL    HW1 6332   2.208   3.843   2.012
 2111SOL    HW2 6333   2.221   3.694   2.078
 2112SOL     OW 6334   2.797   3.960   2.342
 2112SOL    HW1 6335   2.749   4.001   2.264
 2112SOL    HW2 6336   2.896   3.958   2.323
 2113SOL     OW 6337   1.940   4.280   3.248
 2113SOL    HW1 6338   2.032   4.279   3.207
 2113SOL    HW2 6339   1.934   4.354   3.315
 2114SOL     OW 6340   2.423   3.946   3.009
 2114SOL    HW1 6341   2.461   3.862   3.046
 2114SOL    HW2 6342   2.335   3.965   3.053
 2115SOL     OW 6343   2.879   3.763   2.615
 2115SOL    HW1 6344   2.807   3.768   2.546
 2115SOL    HW2 6345   2.855   3.694   2.684
 2116SOL     OW 6346   2.389   3.980   2.190
 2116SOL    HW1 6347   2.416   3.921   2.115
 2116SOL    HW2 6348   2.389   4.075   2.159
 2117SOL     OW 6349   2.777   3.813   3.264
 2117SOL    HW1 6350   2.802   3.793   3.169
 2117SOL    HW2 6351   2.849   3.869   3.306
 2118SOL     OW 6352   2.875   3.829   3.632
 2118SOL    HW1 6353   2.881   3.914   3.580
 2118SOL    HW2 6354   2.907   3.753   3.575
 2119SOL     OW 6355   2.366   3.774   3.602
 2119SOL    HW1 6356   2.324   3.717   3.532
 2119SOL    HW2 6357   2.300   3.843   3.634
 2120SOL     OW 6358   2.169   3.937   3.093
 2120SOL    HW1 6359   2.146   3.974   3.183
 2120SOL    HW2 6360   2.139   3.842   3.087
 2121SOL     OW 6361   2.594   4.358   2.926
 2121SOL    HW1 6362   2.653   4.332   2.850
 2121SOL    HW2 6363   2.566   4.454   2.915
 2122SOL     OW 6364   2.169   3.787   2.480
 2122SOL    HW1 6365   2.158   3.881   2.513
 2122SOL    HW2 6366   2.164   3.724   2.557
 2123SOL     OW 6367   3.484   4.091   2.236
 2123SOL    HW1 6368   3.486   4.015   2.300
 2123SOL    HW2 6369   3.436   4.168   2.276
 2124SOL     OW 6370   3.402   3.998   1.987
 2124SOL    HW1 6371   3.341   3.923   2.010
 2124SOL    HW2 6372   3.424   4.050   2.070
 2125SOL     OW 6373   2.201   4.233   2.868
 2125SOL    HW1 6374   2.149   4.150   2.851
 2125SOL    HW2 6375   2.278   4.238   2.804
 2126SOL     OW 6376   3.022   3.931   3.339
 2126SOL    HW1 6377   3.022   3.995   3.416
 2126SOL    HW2 6378   3.050   3.979   3.256
 2127SOL     OW 6379   2.051   4.244   3.584
 2127SOL    HW1 6380   2.110   4.204   3.514
 2127SOL    HW2 6381   1.993   4.315   3.543
 2128SOL     OW 6382   2.677   4.296   2.187
 2128SOL    HW1 6383   2.684   4.207   2.141
 2128SOL    HW2 6384   2.583   4.330   2.179
 2129SOL     OW 6385   3.588   3.859   2.385
 2129SOL    HW1 6386   3.661   3.842   2.318
 2129SOL    HW2 6387   3.557   3.772   2.423
 2130SOL     OW 6388   3.703   3.899   2.825
 2130SOL    HW1 6389   3.742   3.814   2.789
 2130SOL    HW2 6390   3.605   3.901   2.806
 2131SOL     OW 6391   2.876   3.960   2.833
 2131SOL    HW1 6392   2.868   3.924   2.740
 2131SOL    HW2 6393   2.874   3.884   2.898
 2132SOL     OW 6394   3.571   4.109   3.243
 2132SOL    HW1 6395   3.644   4.178   3.247
 2132SOL    HW2 6396   3.599   4.034   3.184
 2133SOL     OW 6397   2.534   3.927   3.351
 2133SOL    HW1 6398   2.624   3.911   3.311
 2133SOL    HW2 6399   2.542   3.932   3.450
 2134SOL     OW 6400   1.937   4.069   1.895
 2134SOL    HW1 6401   1.845   4.041   1.866
 2134SOL    HW2 6402   1.968   4.146   1.839
 2135SOL     OW 6403   1.934   3.890   2.180
 2135SOL    HW1 6404   1.917   3.973   2.126
 2135SOL    HW2 6405   2.024   3.853   2.158
 2136SOL     OW 6406   3.087   4.049   2.311
 2136SOL    HW1 6407   3.152   3.975   2.300
 2136SOL    HW2 6408   3.107   4.099   2.395
 2137SOL     OW 6409   3.639   4.066   3.504
 2137SOL    HW1 6410   3.622   4.097   3.410
 2137SOL    HW2 6411   3.555   4.029   3.542
 2138SOL     OW 6412   3.686   3.916   3.089
 2138SOL    HW1 6413   3.682   3.826   3.133
 2138SOL    HW2 6414   3.689   3.905   2.990
 2139SOL     OW 6415   3.286   3.938   2.974
 2139SOL    HW1 6416   3.338   3.873   3.029
 2139SOL    HW2 6417   3.237   4.001   3.035
 2140SOL     OW 6418   2.863   3.758   3.016
 2140SOL    HW1 6419   2.800   3.686   2.985
 2140SOL    HW2 6420   2.956   3.722   3.016
 2141SOL     OW 6421   3.214   3.776   2.030
 2141SOL    HW1 6422   3.249   3.735   1.946
 2141SOL    HW2 6423   3.124   3.738   2.050
 2142SOL     OW 6424   3.162   4.177   2.553
 2142SOL    HW1 6425   3.103   4.257   2.557
 2142SOL    HW2 6426   3.177   4.142   2.646
 2143SOL     OW 6427   3.455   3.945   2.744
 2143SOL    HW1 6428   3.371   3.944   2.798
 2143SOL    HW2 6429   3.457   4.028   2.688
 2144SOL     OW 6430   2.997   4.427   4.441
 2144SOL    HW1 6431   3.054   4.505   4.416
 2144SOL    HW2 6432   2.937   4.453   4.517
 2145SOL     OW 6433   3.617   4.331   3.955
 2145SOL    HW1 6434   3.605   4.318   3.856
 2145SOL    HW2 6435   3.587   4.250   4.004
 2146SOL     OW 6436   2.727   4.072   3.919
 2146SOL    HW1 6437   2.786   4.135   3.870
 2146SOL    HW2 6438   2.746   3.978   3.890
 2147SOL     OW 6439   3.262   3.831   4.150
 2147SOL    HW1 6440   3.238   3.794   4.060
 2147SOL    HW2 6441   3.361   3.847   4.154
 2148SOL     OW 6442   2.244   4.424   4.204
 2148SOL    HW1 6443   2.289   4.334   4.201
 2148SOL    HW2 6444   2.150   4.413   4.237
 2149SOL     OW 6445   2.476   3.846   3.841
 2149SOL    HW1 6446   2.574   3.824   3.848
 2149SOL    HW2 6447   2.445   3.829   3.748
 2150SOL     OW 6448   2.159   3.759   3.895
 2150SOL    HW1 6449   2.208   3.843   3.874
 2150SOL    HW2 6450   2.221   3.694   3.940
 2151SOL     OW 6451   2.797   3.960   4.204
 2151SOL    HW1 6452   2.749   4.001   4.126
 2151SOL    HW2 6453   2.896   3.958   4.185
 2152SOL     OW 6454   2.389   3.980   4.052
 2152SOL    HW1 6455   2.416   3.921   3.977
 2152SOL    HW2 6456   2.389   4.075   4.021
 2153SOL     OW 6457   2.169   3.787   4.342
 2153SOL    HW1 6458   2.158   3.881   4.375
 2153SOL    HW2 6459   2.164   3.724   4.419
 2154SOL     OW 6460   3.484   4.091   4.098
 2154SOL    HW1 6461   3.486   4.015   4.162
 2154SOL    HW2 6462   3.436   4.168   4.138
 2155SOL     OW 6463   3.402   3.998   3.849
 2155SOL    HW1 6464   3.341   3.923   3.872
 2155SOL    HW2 6465   3.424   4.050   3.932
 2156SOL     OW 6466   2.677   4.296   4.049
 2156SOL    HW1 6467   2.684   4.207   4.003
 2156SOL    HW2 6468   2.583   4.330   4.041
 2157SOL     OW 6469   3.588   3.859   4.247
 2157SOL    HW1 6470   3.661   3.842   4.180
 2157SOL    HW2 6471   3.557   3.772   4.285
 2158SOL     OW 6472   1.937   4.069   3.757
 2158SOL    HW1 6473   1.845   4.041   3.728
 2158SOL    HW2 6474   1.968   4.146   3.701
 2159SOL     OW 6475   1.934   3.890   4.042
 2159SOL    HW1 6476   1.917   3.973   3.988
 2159SOL    HW2 6477   2.024   3.853   4.020
 2160SOL     OW 6478   3.087   4.049   4.173
 2160SOL    HW1 6479   3.152   3.975   4.162
 2160SOL    HW2 6480   3.107   4.099   4.257
 2161SOL     OW 6481   3.214   3.776   3.892
 2161SOL    HW1 6482   3.249   3.735   3.808
 2161SOL    HW2 6483   3.124   3.738   3.912
 2162SOL     OW 6484   3.954   0.628   0.113
 2162SOL    HW1 6485   3.861   0.626   0.150
 2162SOL    HW2 6486   3.955   0.589   0.021
 2163SOL     OW 6487   3.949   0.275   0.996
 2163SOL    HW1 6488   3.984   0.258   1.088
 2163SOL    HW2 6489   3.861   0.230   0.984
 2164SOL     OW 6490   3.743   0.368   0.647
 2164SOL    HW1 6491   3.661   0.411   0.686
 2164SOL    HW2 6492   3.715   0.295   0.584
 2165SOL     OW 6493   4.409   1.012   0.665
 2165SOL    HW1 6494   4.478   0.996   0.735
 2165SOL    HW2 6495   4.336   1.069   0.703
 2166SOL     OW 6496   4.059   1.435   1.061
 2166SOL    HW1 6497   3.981   1.404   1.008
 2166SOL    HW2 6498   4.117   1.493   1.004
 2167SOL     OW 6499   3.955   1.713   0.483
 2167SOL    HW1 6500   3.989   1.790   0.537
 2167SOL    HW2 6501   3.999   1.713   0.393
 2168SOL     OW 6502   3.954   1.434   0.538
 2168SOL    HW1 6503   3.928   1.530   0.538
 2168SOL    HW2 6504   3.883   1.380   0.583
 2169SOL     OW 6505   3.964   1.091   0.886
 2169SOL    HW1 6506   3.978   1.007   0.938
 2169SOL    HW2 6507   3.909   1.155   0.941
 2170SOL     OW 6508   3.846   0.643   0.563
 2170SOL    HW1 6509   3.801   0.555   0.580
 2170SOL    HW2 6510   3.845   0.697   0.647
 2171SOL     OW 6511   3.751   1.596   0.117
 2171SOL    HW1 6512   3.732   1.500   0.138
 2171SOL    HW2 6513   3.718   1.654   0.192
 2172SOL     OW 6514   3.837   0.737   1.597
 2172SOL    HW1 6515   3.925   0.724   1.642
 2172SOL    HW2 6516   3.824   0.834   1.575
 2173SOL     OW 6517   3.921   0.976   1.264
 2173SOL    HW1 6518   4.010   0.931   1.250
 2173SOL    HW2 6519   3.848   0.911   1.245
 2174SOL     OW 6520   4.322   0.729   0.270
 2174SOL    HW1 6521   4.346   0.798   0.202
 2174SOL    HW2 6522   4.244   0.762   0.324
 2175SOL     OW 6523   3.800   0.811   0.789
 2175SOL    HW1 6524   3.899   0.799   0.798
 2175SOL    HW2 6525   3.776   0.906   0.810
 2176SOL     OW 6526   3.854   1.821   1.571
 2176SOL    HW1 6527   3.844   1.806   1.670
 2176SOL    HW2 6528   3.768   1.857   1.535
 2177SOL     OW 6529   4.045   0.943   0.242
 2177SOL    HW1 6530   4.127   0.982   0.200
 2177SOL    HW2 6531   4.018   0.861   0.193
 2178SOL     OW 6532   4.185   1.266   1.727
 2178SOL    HW1 6533   4.135   1.267   1.641
 2178SOL    HW2 6534   4.122   1.248   1.803
 2179SOL     OW 6535   3.926   0.285   1.498
 2179SOL    HW1 6536   3.846   0.345   1.485
 2179SOL    HW2 6537   3.916   0.236   1.584
 2180SOL     OW 6538   3.973   1.785   1.241
 2180SOL    HW1 6539   4.030   1.720   1.291
 2180SOL    HW2 6540   3.957   1.752   1.148
 2181SOL     OW 6541   4.106   0.700   0.480
 2181SOL    HW1 6542   4.151   0.610   0.477
 2181SOL    HW2 6543   4.012   0.689   0.513
 2182SOL     OW 6544   4.021   0.035   0.171
 2182SOL    HW1 6545   4.070   0.119   0.150
 2182SOL    HW2 6546   4.083  -0.030   0.216
 2183SOL     OW 6547   3.802   0.556   1.386
 2183SOL    HW1 6548   3.894   0.555   1.345
 2183SOL    HW2 6549   3.796   0.630   1.453
 2184SOL     OW 6550   4.134   0.813   1.251
 2184SOL    HW1 6551   4.220   0.825   1.301
 2184SOL    HW2 6552   4.092   0.726   1.278
 2185SOL     OW 6553   3.788   1.564   1.331
 2185SOL    HW1 6554   3.742   1.646   1.297
 2185SOL    HW2 6555   3.886   1.583   1.340
 2186SOL     OW 6556   4.091   1.100   0.501
 2186SOL    HW1 6557   4.084   1.183   0.445
 2186SOL    HW2 6558   4.095   1.020   0.441
 2187SOL     OW 6559   4.290   0.537   0.865
 2187SOL    HW1 6560   4.302   0.603   0.791
 2187SOL    HW2 6561   4.336   0.571   0.948
 2188SOL     OW 6562   4.297   0.870   1.029
 2188SOL    HW1 6563   4.341   0.959   1.020
 2188SOL    HW2 6564   4.234   0.870   1.106
 2189SOL     OW 6565   4.031   0.213   1.231
 2189SOL    HW1 6566   4.008   0.250   1.321
 2189SOL    HW2 6567   4.001   0.118   1.225
 2190SOL     OW 6568   3.761   1.310   1.282
 2190SOL    HW1 6569   3.814   1.261   1.350
 2190SOL    HW2 6570   3.783   1.408   1.287
 2191SOL     OW 6571   4.043   0.810   0.949
 2191SOL    HW1 6572   4.136   0.846   0.954
 2191SOL    HW2 6573   4.037   0.725   1.001
 2192SOL     OW 6574   4.063   0.509   1.006
 2192SOL    HW1 6575   4.011   0.426   0.989
 2192SOL    HW2 6576   4.140   0.514   0.942
 2193SOL     OW 6577   3.732   1.326   0.200
 2193SOL    HW1 6578   3.639   1.347   0.169
 2193SOL    HW2 6579   3.742   1.227   0.213
 2194SOL     OW 6580   3.812   1.801   0.927
 2194SOL    HW1 6581   3.770   1.715   0.900
 2194SOL    HW2 6582   3.906   1.804   0.893
 2195SOL     OW 6583   3.764   0.544   1.114
 2195SOL    HW1 6584   3.849   0.511   1.073
 2195SOL    HW2 6585   3.777   0.559   1.212
 2196SOL     OW 6586   3.913   0.520   1.722
 2196SOL    HW1 6587   3.972   0.480   1.652
 2196SOL    HW2 6588   3.855   0.591   1.681
 2197SOL     OW 6589   3.976   1.564   1.744
 2197SOL    HW1 6590   3.946   1.621   1.820
 2197SOL    HW2 6591   3.969   1.467   1.770
 2198SOL     OW 6592   3.883   1.137   1.466
 2198SOL    HW1 6593   3.905   1.076   1.542
 2198SOL    HW2 6594   3.893   1.088   1.380
 2199SOL     OW 6595   3.807   1.258   1.022
 2199SOL    HW1 6596   3.802   1.257   1.122
 2199SOL    HW2 6597   3.724   1.217   0.984
 2200SOL     OW 6598   3.854   1.794   1.851
 2200SOL    HW1 6599   3.813   1.720   1.904
 2200SOL    HW2 6600   3.918   1.845   1.909
 2201SOL     OW 6601   3.987   0.326   0.720
 2201SOL    HW1 6602   3.908   0.377   0.686
 2201SOL    HW2 6603   3.978   0.311   0.818
 2202SOL     OW 6604   4.096   1.288   1.490
 2202SOL    HW1 6605   4.083   1.381   1.456
 2202SOL    HW2 6606   4.012   1.236   1.477
 2203SOL     OW 6607   3.979   1.348   0.290
 2203SOL    HW1 6608   3.883   1.349   0.263
 2203SOL    HW2 6609   3.991   1.401   0.374
 2204SOL     OW 6610   3.829   1.013   1.726
 2204SOL    HW1 6611   3.752   0.980   1.780
 2204SOL    HW2 6612   3.914   0.983   1.768
 2205SOL     OW 6613   3.799   0.345   0.033
 2205SOL    HW1 6614   3.707   0.317   0.004
 2205SOL    HW2 6615   3.830   0.422  -0.023
 2206SOL     OW 6616   3.796   0.166   0.318
 2206SOL    HW1 6617   3.779   0.249   0.264
 2206SOL    HW2 6618   3.886   0.129   0.296
 2207SOL     OW 6619   4.114   1.741   1.560
 2207SOL    HW1 6620   4.023   1.782   1.558
 2207SOL    HW2 6621   4.107   1.647   1.592
 2208SOL     OW 6622   3.945   1.314   1.844
 2208SOL    HW1 6623   3.880   1.241   1.823
 2208SOL    HW2 6624   3.949   1.328   1.942
 2209SOL     OW 6625   3.803   1.240   0.653
 2209SOL    HW1 6626   3.802   1.193   0.741
 2209SOL    HW2 6627   3.885   1.212   0.602
 2210SOL     OW 6628   4.041   0.547   1.280
 2210SOL    HW1 6629   4.079   0.488   1.352
 2210SOL    HW2 6630   4.081   0.521   1.192
 2211SOL     OW 6631   3.763   1.077   0.300
 2211SOL    HW1 6632   3.862   1.066   0.291
 2211SOL    HW2 6633   3.723   0.991   0.332
 2212SOL     OW 6634   3.954   0.628   1.975
 2212SOL    HW1 6635   3.861   0.626   2.012
 2212SOL    HW2 6636   3.955   0.589   1.883
 2213SOL     OW 6637   3.949   0.275   2.858
 2213SOL    HW1 6638   3.984   0.258   2.950
 2213SOL    HW2 6639   3.861   0.230   2.846
 2214SOL     OW 6640   3.743   0.368   2.509
 2214SOL    HW1 6641   3.661   0.411   2.548
 2214SOL    HW2 6642   3.715   0.295   2.446
 2215SOL     OW 6643   4.409   1.012   2.527
 2215SOL    HW1 6644   4.478   0.996   2.597
 2215SOL    HW2 6645   4.336   1.069   2.565
 2216SOL     OW 6646   4.059   1.435   2.923
 2216SOL    HW1 6647   3.981   1.404   2.870
 2216SOL    HW2 6648   4.117   1.493   2.866
 2217SOL     OW 6649   3.955   1.713   2.345
 2217SOL    HW1 6650   3.989   1.790   2.399
 2217SOL    HW2 6651   3.999   1.713   2.255
 2218SOL     OW 6652   3.954   1.434   2.400
 2218SOL    HW1 6653   3.928   1.530   2.400
 2218SOL    HW2 6654   3.883   1.380   2.445
 2219SOL     OW 6655   3.964   1.091   2.748
 2219SOL    HW1 6656   3.978   1.007   2.800
 2219SOL    HW2 6657   3.909   1.155   2.803
 2220SOL     OW 6658   3.846   0.643   2.425
 2220SOL    HW1 6659   3.801   0.555   2.442
 2220SOL    HW2 6660   3.845   0.697   2.509
 2221SOL     OW 6661   3.751   1.596   1.979
 2221SOL    HW1 6662   3.732   1.500   2.000
 2221SOL    HW2 6663   3.718   1.654   2.054
 2222SOL     OW 6664   3.837   0.737   3.459
 2222SOL    HW1 6665   3.925   0.724   3.504
 2222SOL    HW2 6666   3.824   0.834   3.437
 2223SOL     OW 6667   3.921   0.976   3.126
 2223SOL    HW1 6668   4.010   0.931   3.112
 2223SOL    HW2 6669   3.848   0.911   3.107
 2224SOL     OW 6670   4.322   0.729   2.132
 2224SOL    HW1 6671   4.346   0.798   2.064
 2224SOL    HW2 6672   4.244   0.762   2.186
 2225SOL     OW 6673   3.800   0.811   2.651
 2225SOL    HW1 6674   3.899   0.799   2.660
 2225SOL    HW2 6675   3.776   0.906   2.672
 2226SOL     OW 6676   3.854   1.821   3.433
 2226SOL    HW1 6677   3.844   1.806   3.532
 2226SOL    HW2 6678   3.768   1.857   3.397
 2227SOL     OW 6679   4.045   0.943   2.104
 2227SOL    HW1 6680   4.127   0.982   2.062
 2227SOL    HW2 6681   4.018   0.861   2.055
 2228SOL     OW 6682   4.185   1.266   3.589
 2228SOL    HW1 6683   4.135   1.267   3.503
 2228SOL    HW2 6684   4.122   1.248   3.665
 2229SOL     OW 6685   3.926   0.285   3.360
 2229SOL    HW1 6686   3.846   0.345   3.347
 2229SOL    HW2 6687   3.916   0.236   3.446
 2230SOL     OW 6688   3.973   1.785   3.103
 2230SOL    HW1 6689   4.030   1.720   3.153
 2230SOL    HW2 6690   3.957   1.752   3.010
 2231SOL     OW 6691   4.106   0.700   2.342
 2231SOL    HW1 6692   4.151   0.610   2.339
 2231SOL    HW2 6693   4.012   0.689   2.375
 2232SOL     OW 6694   4.021   0.035   2.033
 2232SOL    HW1 6695   4.070   0.119   2.012
 2232SOL    HW2 6696   4.083  -0.030   2.078
 2233SOL     OW 6697   3.802   0.556   3.248
 2233SOL    HW1 6698   3.894   0.555   3.207
 2233SOL    HW2 6699   3.796   0.630   3.315
 2234SOL     OW 6700   4.134   0.813   3.113
 2234SOL    HW1 6701   4.220   0.825   3.163
 2234SOL    HW2 6702   4.092   0.726   3.140
 2235SOL     OW 6703   3.788   1.564   3.193
 2235SOL    HW1 6704   3.742   1.646   3.159
 2235SOL    HW2 6705   3.886   1.583   3.202
 2236SOL     OW 6706   4.091   1.100   2.363
 2236SOL    HW1 6707   4.084   1.183   2.307
 2236SOL    HW2 6708   4.095   1.020   2.303
 2237SOL     OW 6709   4.290   0.537   2.727
 2237SOL    HW1 6710   4.302   0.603   2.653
 2237SOL    HW2 6711   4.336   0.571   2.810
 2238SOL     OW 6712   4.297   0.870   2.891
 2238SOL    HW1 6713   4.341   0.959   2.882
 2238SOL    HW2 6714   4.234   0.870   2.968
 2239SOL     OW 6715   4.031   0.213   3.093
 2239SOL    HW1 6716   4.008   0.250   3.183
 2239SOL    HW2 6717   4.001   0.118   3.087
 2240SOL     OW 6718   3.761   1.310   3.144
 2240SOL    HW1 6719   3.814   1.261   3.212
 2240SOL    HW2 6720   3.783   1.408   3.149
 2241SOL     OW 6721   4.043   0.810   2.811
 2241SOL    HW1 6722   4.136   0.846   2.816
 2241SOL    HW2 6723   4.037   0.725   2.863
 2242SOL     OW 6724   4.063   0.509   2.868
 2242SOL    HW1 6725   4.011   0.426   2.851
 2242SOL    HW2 6726   4.140   0.514   2.804
 2243SOL     OW 6727   3.732   1.326   2.062
 2243SOL    HW1 6728   3.639   1.347   2.031
 2243SOL    HW2 6729   3.742   1.227   2.075
 2244SOL     OW 6730   3.812   1.801   2.789
 2244SOL    HW1 6731   3.770   1.715   2.762
 2244SOL    HW2 6732   3.906   1.804   2.755
 2245SOL     OW 6733   3.764   0.544   2.976
 2245SOL    HW1 6734   3.849   0.511   2.935
 2245SOL    HW2 6735   3.777   0.559   3.074
 2246SOL     OW 6736   3.913   0.520   3.584
 2246SOL    HW1 6737   3.972   0.480   3.514
 2246SOL    HW2 6738   3.855   0.591   3.543
 2247SOL     OW 6739   3.976   1.564   3.606
 2247SOL    HW1 6740   3.946   1.621   3.682
 2247SOL    HW2 6741   3.969   1.467   3.632
 2248SOL     OW 6742   3.883   1.137   3.328
 2248SOL    HW1 6743   3.905   1.076   3.404
 2248SOL    HW2 6744   3.893   1.088   3.242
 2249SOL     OW 6745   3.807   1.258   2.884
 2249SOL    HW1 6746   3.802   1.257   2.984
 2249SOL    HW2 6747   3.724   1.217   2.846
 2250SOL     OW 6748   3.854   1.794   3.713
 2250SOL    HW1 6749   3.813   1.720   3.766
 2250SOL    HW2 6750   3.918   1.845   3.771
 2251SOL     OW 6751   3.987   0.326   2.582
 2251SOL    HW1 6752   3.908   0.377   2.548
 2251SOL    HW2 6753   3.978   0.311   2.680
 2252SOL     OW 6754   4.096   1.288   3.352
 2252SOL    HW1 6755   4.083   1.381   3.318
 2252SOL    HW2 6756   4.012   1.236   3.339
 2253SOL     OW 6757   3.979   1.348   2.152
 2253SOL    HW1 6758   3.883   1.349   2.125
 2253SOL    HW2 6759   3.991   1.401   2.236
 2254SOL     OW 6760   3.829   1.013   3.588
 2254SOL    HW1 6761   3.752   0.980   3.642
 2254SOL    HW2 6762   3.914   0.983   3.630
 2255SOL     OW 6763   3.799   0.345   1.895
 2255SOL    HW1 6764   3.707   0.317   1.866
 2255SOL    HW2 6765   3.830   0.422   1.839
 2256SOL     OW 6766   3.796   0.166   2.180
 2256SOL    HW1 6767   3.779   0.249   2.126
 2256SOL    HW2 6768   3.886   0.129   2.158
 2257SOL     OW 6769   4.114   1.741   3.422
 2257SOL    HW1 6770   4.023   1.782   3.420
 2257SOL    HW2 6771   4.107   1.647   3.454
 2258SOL     OW 6772   3.945   1.314   3.706
 2258SOL    HW1 6773   3.880   1.241   3.685
 2258SOL    HW2 6774   3.949   1.328   3.804
 2259SOL     OW 6775   3.803   1.240   2.515
 2259SOL    HW1 6776   3.802   1.193   2.603
 2259SOL    HW2 6777   3.885   1.212   2.464
 2260SOL     OW 6778   4.041   0.547   3.142
 2260SOL    HW1 6779   4.079   0.488   3.214
 2260SOL    HW2 6780   4.081   0.521   3.054
 2261SOL     OW 6781   3.763   1.077   2.162
 2261SOL    HW1 6782   3.862   1.066   2.153
 2261SOL    HW2 6783   3.723   0.991   2.194
 2262SOL     OW 6784   3.954   0.628   3.837
 2262SOL    HW1 6785   3.861   0.626   3.874
 2262SOL    HW2 6786   3.955   0.589   3.745
 2263SOL     OW 6787   3.955   1.713   4.207
 2263SOL    HW1 6788   3.989   1.790   4.261
 2263SOL    HW2 6789   3.999   1.713   4.117
 2264SOL     OW 6790   3.954   1.434   4.262
 2264SOL    HW1 6791   3.928   1.530   4.262
 2264SOL    HW2 6792   3.883   1.380   4.307
 2265SOL     OW 6793   3.751   1.596   3.841
 2265SOL    HW1 6794   3.732   1.500   3.862
 2265SOL    HW2 6795   3.718   1.654   3.916
 2266SOL     OW 6796   4.322   0.729   3.994
 2266SOL    HW1 6797   4.346   0.798   3.926
 2266SOL    HW2 6798   4.244   0.762   4.048
 2267SOL     OW 6799   4.045   0.943   3.966
 2267SOL    HW1 6800   4.127   0.982   3.924
 2267SOL    HW2 6801   4.018   0.861   3.917
 2268SOL     OW 6802   4.021   0.035   3.895
 2268SOL    HW1 6803   4.070   0.119   3.874
 2268SOL    HW2 6804   4.083  -0.030   3.940
 2269SOL     OW 6805   4.091   1.100   4.225
 2269SOL    HW1 6806   4.084   1.183   4.169
 2269SOL    HW2 6807   4.095   1.020   4.165
 2270SOL     OW 6808   3.732   1.326   3.924
 2270SOL    HW1 6809   3.639   1.347   3.893
 2270SOL    HW2 6810   3.742   1.227   3.937
 2271SOL     OW 6811   3.987   0.326   4.444
 2271SOL    HW1 6812   3.908   0.377   4.410
 2271SOL    HW2 6813   3.978   0.311   4.542
 2272SOL     OW 6814   3.979   1.348   4.014
 2272SOL    HW1 6815   3.883   1.349   3.987
 2272SOL    HW2 6816   3.991   1.401   4.098
 2273SOL     OW 6817   3.799   0.345   3.757
 2273SOL    HW1 6818   3.707   0.317   3.728
 2273SOL    HW2 6819   3.830   0.422   3.701
 2274SOL     OW 6820   3.796   0.166   4.042
 2274SOL    HW1 6821   3.779   0.249   3.988
 2274SOL    HW2 6822   3.886   0.129   4.020
 2275SOL     OW 6823   3.763   1.077   4.024
 2275SOL    HW1 6824   3.862   1.066   4.015
 2275SOL    HW2 6825   3.723   0.991   4.056
 2276SOL     OW 6826   3.954   2.490   0.113
 2276SOL    HW1 6827   3.861   2.488   0.150
 2276SOL    HW2 6828   3.955   2.451   0.021
 2277SOL     OW 6829   3.949   2.137   0.996
 2277SOL    HW1 6830   3.984   2.120   1.088
 2277SOL    HW2 6831   3.861   2.092   0.984
 2278SOL     OW 6832   3.743   2.230   0.647
 2278SOL    HW1 6833   3.661   2.273   0.686
 2278SOL    HW2 6834   3.715   2.157   0.584
 2279SOL     OW 6835   4.409   2.874   0.665
 2279SOL    HW1 6836   4.478   2.858   0.735
 2279SOL    HW2 6837   4.336   2.931   0.703
 2280SOL     OW 6838   4.059   3.297   1.061
 2280SOL    HW1 6839   3.981   3.266   1.008
 2280SOL    HW2 6840   4.117   3.355   1.004
 2281SOL     OW 6841   3.955   3.575   0.483
 2281SOL    HW1 6842   3.989   3.652   0.537
 2281SOL    HW2 6843   3.999   3.575   0.393
 2282SOL     OW 6844   3.954   3.296   0.538
 2282SOL    HW1 6845   3.928   3.392   0.538
 2282SOL    HW2 6846   3.883   3.242   0.583
 2283SOL     OW 6847   3.964   2.953   0.886
 2283SOL    HW1 6848   3.978   2.869   0.938
 2283SOL    HW2 6849   3.909   3.017   0.941
 2284SOL     OW 6850   3.846   2.505   0.563
 2284SOL    HW1 6851   3.801   2.417   0.580
 2284SOL    HW2 6852   3.845   2.559   0.647
 2285SOL     OW 6853   3.751   3.458   0.117
 2285SOL    HW1 6854   3.732   3.362   0.138
 2285SOL    HW2 6855   3.718   3.516   0.192
 2286SOL     OW 6856   3.837   2.599   1.597
 2286SOL    HW1 6857   3.925   2.586   1.642
 2286SOL    HW2 6858   3.824   2.696   1.575
 2287SOL     OW 6859   3.921   2.838   1.264
 2287SOL    HW1 6860   4.010   2.793   1.250
 2287SOL    HW2 6861   3.848   2.773   1.245
 2288SOL     OW 6862   4.322   2.591   0.270
 2288SOL    HW1 6863   4.346   2.660   0.202
 2288SOL    HW2 6864   4.244   2.624   0.324
 2289SOL     OW 6865   3.800   2.673   0.789
 2289SOL    HW1 6866   3.899   2.661   0.798
 2289SOL    HW2 6867   3.776   2.768   0.810
 2290SOL     OW 6868   3.854   3.683   1.571
 2290SOL    HW1 6869   3.844   3.668   1.670
 2290SOL    HW2 6870   3.768   3.719   1.535
 2291SOL     OW 6871   4.045   2.805   0.242
 2291SOL    HW1 6872   4.127   2.844   0.200
 2291SOL    HW2 6873   4.018   2.723   0.193
 2292SOL     OW 6874   4.185   3.128   1.727
 2292SOL    HW1 6875   4.135   3.129   1.641
 2292SOL    HW2 6876   4.122   3.110   1.803
 2293SOL     OW 6877   3.926   2.147   1.498
 2293SOL    HW1 6878   3.846   2.207   1.485
 2293SOL    HW2 6879   3.916   2.098   1.584
 2294SOL     OW 6880   3.973   3.647   1.241
 2294SOL    HW1 6881   4.030   3.582   1.291
 2294SOL    HW2 6882   3.957   3.614   1.148
 2295SOL     OW 6883   4.106   2.562   0.480
 2295SOL    HW1 6884   4.151   2.472   0.477
 2295SOL    HW2 6885   4.012   2.551   0.513
 2296SOL     OW 6886   3.802   2.418   1.386
 2296SOL    HW1 6887   3.894   2.417   1.345
 2296SOL    HW2 6888   3.796   2.492   1.453
 2297SOL     OW 6889   4.285   2.084   1.147
 2297SOL    HW1 6890   4.323   2.000   1.184
 2297SOL    HW2 6891   4.197   2.103   1.191
 2298SOL     OW 6892   4.134   2.675   1.251
 2298SOL    HW1 6893   4.220   2.687   1.301
 2298SOL    HW2 6894   4.092   2.588   1.278
 2299SOL     OW 6895   3.788   3.426   1.331
 2299SOL    HW1 6896   3.742   3.508   1.297
 2299SOL    HW2 6897   3.886   3.445   1.340
 2300SOL     OW 6898   4.091   2.962   0.501
 2300SOL    HW1 6899   4.084   3.045   0.445
 2300SOL    HW2 6900   4.095   2.882   0.441
 2301SOL     OW 6901   4.290   2.399   0.865
 2301SOL    HW1 6902   4.302   2.465   0.791
 2301SOL    HW2 6903   4.336   2.433   0.948
 2302SOL     OW 6904   4.297   2.732   1.029
 2302SOL    HW1 6905   4.341   2.821   1.020
 2302SOL    HW2 6906   4.234   2.732   1.106
 2303SOL     OW 6907   4.031   2.075   1.231
 2303SOL    HW1 6908   4.008   2.112   1.321
 2303SOL    HW2 6909   4.001   1.980   1.225
 2304SOL     OW 6910   3.761   3.172   1.282
 2304SOL    HW1 6911   3.814   3.123   1.350
 2304SOL    HW2 6912   3.783   3.270   1.287
 2305SOL     OW 6913   4.031   1.925   0.618
 2305SOL    HW1 6914   4.020   2.019   0.651
 2305SOL    HW2 6915   4.026   1.862   0.695
 2306SOL     OW 6916   4.043   2.672   0.949
 2306SOL    HW1 6917   4.136   2.708   0.954
 2306SOL    HW2 6918   4.037   2.587   1.001
 2307SOL     OW 6919   4.063   2.371   1.006
 2307SOL    HW1 6920   4.011   2.288   0.989
 2307SOL    HW2 6921   4.140   2.376   0.942
 2308SOL     OW 6922   3.732   3.188   0.200
 2308SOL    HW1 6923   3.639   3.209   0.169
 2308SOL    HW2 6924   3.742   3.089   0.213
 2309SOL     OW 6925   3.812   3.663   0.927
 2309SOL    HW1 6926   3.770   3.577   0.900
 2309SOL    HW2 6927   3.906   3.666   0.893
 2310SOL     OW 6928   3.764   2.406   1.114
 2310SOL    HW1 6929   3.849   2.373   1.073
 2310SOL    HW2 6930   3.777   2.421   1.212
 2311SOL     OW 6931   3.913   2.382   1.722
 2311SOL    HW1 6932   3.972   2.342   1.652
 2311SOL    HW2 6933   3.855   2.453   1.681
 2312SOL     OW 6934   3.976   3.426   1.744
 2312SOL    HW1 6935   3.946   3.483   1.820
 2312SOL    HW2 6936   3.969   3.329   1.770
 2313SOL     OW 6937   3.883   2.999   1.466
 2313SOL    HW1 6938   3.905   2.938   1.542
 2313SOL    HW2 6939   3.893   2.950   1.380
 2314SOL     OW 6940   3.807   3.120   1.022
 2314SOL    HW1 6941   3.802   3.119   1.122
 2314SOL    HW2 6942   3.724   3.079   0.984
 2315SOL     OW 6943   3.854   3.656   1.851
 2315SOL    HW1 6944   3.813   3.582   1.904
 2315SOL    HW2 6945   3.918   3.707   1.909
 2316SOL     OW 6946   3.987   2.188   0.720
 2316SOL    HW1 6947   3.908   2.239   0.686
 2316SOL    HW2 6948   3.978   2.173   0.818
 2317SOL     OW 6949   4.096   3.150   1.490
 2317SOL    HW1 6950   4.083   3.243   1.456
 2317SOL    HW2 6951   4.012   3.098   1.477
 2318SOL     OW 6952   3.979   3.210   0.290
 2318SOL    HW1 6953   3.883   3.211   0.263
 2318SOL    HW2 6954   3.991   3.263   0.374
 2319SOL     OW 6955   3.829   2.875   1.726
 2319SOL    HW1 6956   3.752   2.842   1.780
 2319SOL    HW2 6957   3.914   2.845   1.768
 2320SOL     OW 6958   3.799   2.207   0.033
 2320SOL    HW1 6959   3.707   2.179   0.004
 2320SOL    HW2 6960   3.830   2.284  -0.023
 2321SOL     OW 6961   3.796   2.028   0.318
 2321SOL    HW1 6962   3.779   2.111   0.264
 2321SOL    HW2 6963   3.886   1.991   0.296
 2322SOL     OW 6964   4.114   3.603   1.560
 2322SOL    HW1 6965   4.023   3.644   1.558
 2322SOL    HW2 6966   4.107   3.509   1.592
 2323SOL     OW 6967   3.945   3.176   1.844
 2323SOL    HW1 6968   3.880   3.103   1.823
 2323SOL    HW2 6969   3.949   3.190   1.942
 2324SOL     OW 6970   3.803   3.102   0.653
 2324SOL    HW1 6971   3.802   3.055   0.741
 2324SOL    HW2 6972   3.885   3.074   0.602
 2325SOL     OW 6973   4.041   2.409   1.280
 2325SOL    HW1 6974   4.079   2.350   1.352
 2325SOL    HW2 6975   4.081   2.383   1.192
 2326SOL     OW 6976   3.763   2.939   0.300
 2326SOL    HW1 6977   3.862   2.928   0.291
 2326SOL    HW2 6978   3.723   2.853   0.332
 2327SOL     OW 6979   3.954   2.490   1.975
 2327SOL    HW1 6980   3.861   2.488   2.012
 2327SOL    HW2 6981   3.955   2.451   1.883
 2328SOL     OW 6982   3.949   2.137   2.858
 2328SOL    HW1 6983   3.984   2.120   2.950
 2328SOL    HW2 6984   3.861   2.092   2.846
 2329SOL     OW 6985   3.743   2.230   2.509
 2329SOL    HW1 6986   3.661   2.273   2.548
 2329SOL    HW2 6987   3.715   2.157   2.446
 2330SOL     OW 6988   4.409   2.874   2.527
 2330SOL    HW1 6989   4.478   2.858   2.597
 2330SOL    HW2 6990   4.336   2.931   2.565
 2331SOL     OW 6991   4.059   3.297   2.923
 2331SOL    HW1 6992   3.981   3.266   2.870
 2331SOL    HW2 6993   4.117   3.355   2.866
 2332SOL     OW 6994   3.955   3.575   2.345
 2332SOL    HW1 6995   3.989   3.652   2.399
 2332SOL    HW2 6996   3.999   3.575   2.255
 2333SOL     OW 6997   3.954   3.296   2.400
 2333SOL    HW1 6998   3.928   3.392   2.400
 2333SOL    HW2 6999   3.883   3.242   2.445
 2334SOL     OW 7000   3.964   2.953   2.748
 2334SOL    HW1 7001   3.978   2.869   2.800
 2334SOL    HW2 7002   3.909   3.017   2.803
 2335SOL     OW 7003   3.846   2.505   2.425
 2335SOL    HW1 7004   3.801   2.417   2.442
 2335SOL    HW2 7005   3.845   2.559   2.509
 2336SOL     OW 7006   3.751   3.458   1.979
 2336SOL    HW1 7007   3.732   3.362   2.000
 2336SOL    HW2 7008   3.718   3.516   2.054
 2337SOL     OW 7009   3.837   2.599   3.459
 2337SOL    HW1 7010   3.925   2.586   3.504
 2337SOL    HW2 7011   3.824   2.696   3.437
 2338SOL     OW 7012   3.921   2.838   3.126
 2338SOL    HW1 7013   4.010   2.793   3.112
 2338SOL    HW2 7014   3.848   2.773   3.107
 2339SOL     OW 7015   4.322   2.591   2.132
 2339SOL    HW1 7016   4.346   2.660   2.064
 2339SOL    HW2 7017   4.244   2.624   2.186
 2340SOL     OW 7018   3.800   2.673   2.651
 2340SOL    HW1 7019   3.899   2.661   2.660
 2340SOL    HW2 7020   3.776   2.768   2.672
 2341SOL     OW 7021   3.854   3.683   3.433
 2341SOL    HW1 7022   3.844   3.668   3.532
 2341SOL    HW2 7023   3.768   3.719   3.397
 2342SOL     OW 7024   4.045   2.805   2.104
 2342SOL    HW1 7025   4.127   2.844   2.062
 2342SOL    HW2 7026   4.018   2.723   2.055
 2343SOL     OW 7027   4.185   3.128   3.589
 2343SOL    HW1 7028   4.135   3.129   3.503
 2343SOL    HW2 7029   4.122   3.110   3.665
 2344SOL     OW 7030   3.926   2.147   3.360
 2344SOL    HW1 7031   3.846   2.207   3.347
 2344SOL    HW2 7032   3.916   2.098   3.446
 2345SOL     OW 7033   3.973   3.647   3.103
 2345SOL    HW1 7034   4.030   3.582   3.153
 2345SOL    HW2 7035   3.957   3.614   3.010
 2346SOL     OW 7036   4.106   2.562   2.342
 2346SOL    HW1 7037   4.151   2.472   2.339
 2346SOL    HW2 7038   4.012   2.551   2.375
 2347SOL     OW 7039   4.021   1.897   2.033
 2347SOL    HW1 7040   4.070   1.981   2.012
 2347SOL    HW2 7041   4.083   1.832   2.078
 2348SOL     OW 7042   3.802   2.418   3.248
 2348SOL    HW1 7043   3.894   2.417   3.207
 2348SOL    HW2 7044   3.796   2.492   3.315
 2349SOL     OW 7045   4.285   2.084   3.009
 2349SOL    HW1 7046   4.323   2.000   3.046
 2349SOL    HW2 7047   4.197   2.103   3.053
 2350SOL     OW 7048   4.134   2.675   3.113
 2350SOL    HW1 7049   4.220   2.687   3.163
 2350SOL    HW2 7050   4.092   2.588   3.140
 2351SOL     OW 7051   3.788   3.426   3.193
 2351SOL    HW1 7052   3.742   3.508   3.159
 2351SOL    HW2 7053   3.886   3.445   3.202
 2352SOL     OW 7054   4.091   2.962   2.363
 2352SOL    HW1 7055   4.084   3.045   2.307
 2352SOL    HW2 7056   4.095   2.882   2.303
 2353SOL     OW 7057   4.290   2.399   2.727
 2353SOL    HW1 7058   4.302   2.465   2.653
 2353SOL    HW2 7059   4.336   2.433   2.810
 2354SOL     OW 7060   4.297   2.732   2.891
 2354SOL    HW1 7061   4.341   2.821   2.882
 2354SOL    HW2 7062   4.234   2.732   2.968
 2355SOL     OW 7063   4.031   2.075   3.093
 2355SOL    HW1 7064   4.008   2.112   3.183
 2355SOL    HW2 7065   4.001   1.980   3.087
 2356SOL     OW 7066   3.761   3.172   3.144
 2356SOL    HW1 7067   3.814   3.123   3.212
 2356SOL    HW2 7068   3.783   3.270   3.149
 2357SOL     OW 7069   4.031   1.925   2.480
 2357SOL    HW1 7070   4.020   2.019   2.513
 2357SOL    HW2 7071   4.026   1.862   2.557
 2358SOL     OW 7072   4.043   2.672   2.811
 2358SOL    HW1 7073   4.136   2.708   2.816
 2358SOL    HW2 7074   4.037   2.587   2.863
 2359SOL     OW 7075   4.063   2.371   2.868
 2359SOL    HW1 7076   4.011   2.288   2.851
 2359SOL    HW2 7077   4.140   2.376   2.804
 2360SOL     OW 7078   3.732   3.188   2.062
 2360SOL    HW1 7079   3.639   3.209   2.031
 2360SOL    HW2 7080   3.742   3.089   2.075
 2361SOL     OW 7081   3.812   3.663   2.789
 2361SOL    HW1 7082   3.770   3.577   2.762
 2361SOL    HW2 7083   3.906   3.666   2.755
 2362SOL     OW 7084   3.764   2.406   2.976
 2362SOL    HW1 7085   3.849   2.373   2.935
 2362SOL    HW2 7086   3.777   2.421   3.074
 2363SOL     OW 7087   3.913   2.382   3.584
 2363SOL    HW1 7088   3.972   2.342   3.514
 2363SOL    HW2 7089   3.855   2.453   3.543
 2364SOL     OW 7090   3.976   3.426   3.606
 2364SOL    HW1 7091   3.946   3.483   3.682
 2364SOL    HW2 7092   3.969   3.329   3.632
 2365SOL     OW 7093   3.883   2.999   3.328
 2365SOL    HW1 7094   3.905   2.938   3.404
 2365SOL    HW2 7095   3.893   2.950   3.242
 2366SOL     OW 7096   3.807   3.120   2.884
 2366SOL    HW1 7097   3.802   3.119   2.984
 2366SOL    HW2 7098   3.724   3.079   2.846
 2367SOL     OW 7099   3.854   3.656   3.713
 2367SOL    HW1 7100   3.813   3.582   3.766
 2367SOL    HW2 7101   3.918   3.707   3.771
 2368SOL     OW 7102   3.987   2.188   2.582
 2368SOL    HW1 7103   3.908   2.239   2.548
 2368SOL    HW2 7104   3.978   2.173   2.680
 2369SOL     OW 7105   4.096   3.150   3.352
 2369SOL    HW1 7106   4.083   3.243   3.318
 2369SOL    HW2 7107   4.012   3.098   3.339
 2370SOL     OW 7108   3.979   3.210   2.152
 2370SOL    HW1 7109   3.883   3.211   2.125
 2370SOL    HW2 7110   3.991   3.263   2.236
 2371SOL     OW 7111   3.829   2.875   3.588
 2371SOL    HW1 7112   3.752   2.842   3.642
 2371SOL    HW2 7113   3.914   2.845   3.630
 2372SOL     OW 7114   3.799   2.207   1.895
 2372SOL    HW1 7115   3.707   2.179   1.866
 2372SOL    HW2 7116   3.830   2.284   1.839
 2373SOL     OW 7117   3.796   2.028   2.180
 2373SOL    HW1 7118   3.779   2.111   2.126
 2373SOL    HW2 7119   3.886   1.991   2.158
 2374SOL     OW 7120   4.114   3.603   3.422
 2374SOL    HW1 7121   4.023   3.644   3.420
 2374SOL    HW2 7122   4.107   3.509   3.454
 2375SOL     OW 7123   3.945   3.176   3.706
 2375SOL    HW1 7124   3.880   3.103   3.685
 2375SOL    HW2 7125   3.949   3.190   3.804
 2376SOL     OW 7126   3.803   3.102   2.515
 2376SOL    HW1 7127   3.802   3.055   2.603
 2376SOL    HW2 7128   3.885   3.074   2.464
 2377SOL     OW 7129   4.041   2.409   3.142
 2377SOL    HW1 7130   4.079   2.350   3.214
 2377SOL    HW2 7131   4.081   2.383   3.054
 2378SOL     OW 7132   3.763   2.939   2.162
 2378SOL    HW1 7133   3.862   2.928   2.153
 2378SOL    HW2 7134   3.723   2.853   2.194
 2379SOL     OW 7135   3.954   2.490   3.837
 2379SOL    HW1 7136   3.861   2.488   3.874
 2379SOL    HW2 7137   3.955   2.451   3.745
 2380SOL     OW 7138   3.955   3.575   4.207
 2380SOL    HW1 7139   3.989   3.652   4.261
 2380SOL    HW2 7140   3.999   3.575   4.117
 2381SOL     OW 7141   3.954   3.296   4.262
 2381SOL    HW1 7142   3.928   3.392   4.262
 2381SOL    HW2 7143   3.883   3.242   4.307
 2382SOL     OW 7144   3.751   3.458   3.841
 2382SOL    HW1 7145   3.732   3.362   3.862
 2382SOL    HW2 7146   3.718   3.516   3.916
 2383SOL     OW 7147   4.322   2.591   3.994
 2383SOL    HW1 7148   4.346   2.660   3.926
 2383SOL    HW2 7149   4.244   2.624   4.048
 2384SOL     OW 7150   4.045   2.805   3.966
 2384SOL    HW1 7151   4.127   2.844   3.924
 2384SOL    HW2 7152   4.018   2.723   3.917
 2385SOL     OW 7153   4.021   1.897   3.895
 2385SOL    HW1 7154   4.070   1.981   3.874
 2385SOL    HW2 7155   4.083   1.832   3.940
 2386SOL     OW 7156   4.091   2.962   4.225
 2386SOL    HW1 7157   4.084   3.045   4.169
 2386SOL    HW2 7158   4.095   2.882   4.165
 2387SOL     OW 7159   4.031   1.925   4.342
 2387SOL    HW1 7160   4.020   2.019   4.375
 2387SOL    HW2 7161   4.026   1.862   4.419
 2388SOL     OW 7162   3.732   3.188   3.924
 2388SOL    HW1 7163   3.639   3.209   3.893
 2388SOL    HW2 7164   3.742   3.089   3.937
 2389SOL     OW 7165   3.987   2.188   4.444
 2389SOL    HW1 7166   3.908   2.239   4.410
 2389SOL    HW2 7167   3.978   2.173   4.542
 2390SOL     OW 7168   3.979   3.210   4.014
 2390SOL    HW1 7169   3.883   3.211   3.987
 2390SOL    HW2 7170   3.991   3.263   4.098
 2391SOL     OW 7171   3.799   2.207   3.757
 2391SOL    HW1 7172   3.707   2.179   3.728
 2391SOL    HW2 7173   3.830   2.284   3.701
 2392SOL     OW 7174   3.796   2.028   4.042
 2392SOL    HW1 7175   3.779   2.111   3.988
 2392SOL    HW2 7176   3.886   1.991   4.020
 2393SOL     OW 7177   3.763   2.939   4.024
 2393SOL    HW1 7178   3.862   2.928   4.015
 2393SOL    HW2 7179   3.723   2.853   4.056
 2394SOL     OW 7180   3.949   3.999   0.996
 2394SOL    HW1 7181   3.984   3.982   1.088
 2394SOL    HW2 7182   3.861   3.954   0.984
 2395SOL     OW 7183   3.743   4.092   0.647
 2395SOL    HW1 7184   3.661   4.135   0.686
 2395SOL    HW2 7185   3.715   4.019   0.584
 2396SOL     OW 7186   3.846   4.367   0.563
 2396SOL    HW1 7187   3.801   4.279   0.580
 2396SOL    HW2 7188   3.845   4.421   0.647
 2397SOL     OW 7189   3.926   4.009   1.498
 2397SOL    HW1 7190   3.846   4.069   1.485
 2397SOL    HW2 7191   3.916   3.960   1.584
 2398SOL     OW 7192   3.802   4.280   1.386
 2398SOL    HW1 7193   3.894   4.279   1.345
 2398SOL    HW2 7194   3.796   4.354   1.453
 2399SOL     OW 7195   4.285   3.946   1.147
 2399SOL    HW1 7196   4.323   3.862   1.184
 2399SOL    HW2 7197   4.197   3.965   1.191
 2400SOL     OW 7198   4.126   4.475   1.598
 2400SOL    HW1 7199   4.194   4.530   1.551
 2400SOL    HW2 7200   4.166   4.387   1.625
 2401SOL     OW 7201   4.031   3.937   1.231
 2401SOL    HW1 7202   4.008   3.974   1.321
 2401SOL    HW2 7203   4.001   3.842   1.225
 2402SOL     OW 7204   4.031   3.787   0.618
 2402SOL    HW1 7205   4.020   3.881   0.651
 2402SOL    HW2 7206   4.026   3.724   0.695
 2403SOL     OW 7207   4.063   4.233   1.006
 2403SOL    HW1 7208   4.011   4.150   0.989
 2403SOL    HW2 7209   4.140   4.238   0.942
 2404SOL     OW 7210   3.913   4.244   1.722
 2404SOL    HW1 7211   3.972   4.204   1.652
 2404SOL    HW2 7212   3.855   4.315   1.681
 2405SOL     OW 7213   3.987   4.050   0.720
 2405SOL    HW1 7214   3.908   4.101   0.686
 2405SOL    HW2 7215   3.978   4.035   0.818
 2406SOL     OW 7216   3.799   4.069   0.033
 2406SOL    HW1 7217   3.707   4.041   0.004
 2406SOL    HW2 7218   3.830   4.146  -0.023
 2407SOL     OW 7219   3.796   3.890   0.318
 2407SOL    HW1 7220   3.779   3.973   0.264
 2407SOL    HW2 7221   3.886   3.853   0.296
 2408SOL     OW 7222   3.949   3.999   2.858
 2408SOL    HW1 7223   3.984   3.982   2.950
 2408SOL    HW2 7224   3.861   3.954   2.846
 2409SOL     OW 7225   3.743   4.092   2.509
 2409SOL    HW1 7226   3.661   4.135   2.548
 2409SOL    HW2 7227   3.715   4.019   2.446
 2410SOL     OW 7228   3.846   4.367   2.425
 2410SOL    HW1 7229   3.801   4.279   2.442
 2410SOL    HW2 7230   3.845   4.421   2.509
 2411SOL     OW 7231   3.926   4.009   3.360
 2411SOL    HW1 7232   3.846   4.069   3.347
 2411SOL    HW2 7233   3.916   3.960   3.446
 2412SOL     OW 7234   4.021   3.759   2.033
 2412SOL    HW1 7235   4.070   3.843   2.012
 2412SOL    HW2 7236   4.083   3.694   2.078
 2413SOL     OW 7237   3.802   4.280   3.248
 2413SOL    HW1 7238   3.894   4.279   3.207
 2413SOL    HW2 7239   3.796   4.354   3.315
 2414SOL     OW 7240   4.285   3.946   3.009
 2414SOL    HW1 7241   4.323   3.862   3.046
 2414SOL    HW2 7242   4.197   3.965   3.053
 2415SOL     OW 7243   4.126   4.475   3.460
 2415SOL    HW1 7244   4.194   4.530   3.413
 2415SOL    HW2 7245   4.166   4.387   3.487
 2416SOL     OW 7246   4.031   3.937   3.093
 2416SOL    HW1 7247   4.008   3.974   3.183
 2416SOL    HW2 7248   4.001   3.842   3.087
 2417SOL     OW 7249   4.031   3.787   2.480
 2417SOL    HW1 7250   4.020   3.881   2.513
 2417SOL    HW2 7251   4.026   3.724   2.557
 2418SOL     OW 7252   4.063   4.233   2.868
 2418SOL    HW1 7253   4.011   4.150   2.851
 2418SOL    HW2 7254   4.140   4.238   2.804
 2419SOL     OW 7255   3.913   4.244   3.584
 2419SOL    HW1 7256   3.972   4.204   3.514
 2419SOL    HW2 7257   3.855   4.315   3.543
 2420SOL     OW 7258   3.987   4.050   2.582
 2420SOL    HW1 7259   3.908   4.101   2.548
 2420SOL    HW2 7260   3.978   4.035   2.680
 2421SOL     OW 7261   3.799   4.069   1.895
 2421SOL    HW1 7262   3.707   4.041   1.866
 2421SOL    HW2 7263   3.830   4.146   1.839
 2422SOL     OW 7264   3.796   3.890   2.180
 2422SOL    HW1 7265   3.779   3.973   2.126
 2422SOL    HW2 7266   3.886   3.853   2.158
 2423SOL     OW 7267   4.021   3.759   3.895
 2423SOL    HW1 7268   4.070   3.843   3.874
 2423SOL    HW2 7269   4.083   3.694   3.940
 2424SOL     OW 7270   4.031   3.787   4.342
 2424SOL    HW1 7271   4.020   3.881   4.375
 2424SOL    HW2 7272   4.026   3.724   4.419
 2425SOL     OW 7273   3.799   4.069   3.757
 2425SOL    HW1 7274   3.707   4.041   3.728
 2425SOL    HW2 7275   3.830   4.146   3.701
 2426SOL     OW 7276   3.796   3.890   4.042
 2426SOL    HW1 7277   3.779   3.973   3.988
 2426SOL    HW2 7278   3.886   3.853   4.020
   4.19568   4.19568   4.19568
