; mobley_6843802_GMX_OPLS.top created by acpype (v: 2023.10.27) on Wed May 20 23:56:36 2026

; Include forcefield parameters
#include "ffoplsaa.itp"

; Include mobley_6843802_GMX.itp topology
#include "mobley_6843802_GMX.itp"

; Ligand position restraints
#ifdef POSRES_LIG
#include "posre_mobley_6843802.itp"
#endif

[ system ]
 mobley_6843802

[ molecules ]
; Compound        nmols
 mobley_6843802   1     
