phenyl_trifluoroethyl_ether
    19
   1.8850000  -1.0380000  -0.1090000   0.8180000  -0.4410000   0.5630000
   2.9350000  -1.6040000   0.6140000   0.8010000  -0.4100000   1.9570000
   2.9180000  -1.5730000   2.0080000   1.8510000  -0.9770000   2.6800000
   0.5630000  -0.9610000   4.6910000   0.7110000  -1.6110000   6.0470000
   1.8340000  -0.9480000   4.0400000   0.1560000   0.3240000   4.8780000
  -0.4790000  -1.5900000   6.6950000   1.5840000  -0.8970000   6.8020000
   1.8990000  -1.0600000  -1.1950000  -0.0000000  -0.0010000  -0.0000000
   3.7660000  -2.0680000   0.0900000  -0.0340000   0.0550000   2.4750000
   3.7390000  -2.0170000   2.5660000  -0.1900000  -1.4980000   4.1040000
   1.0710000  -2.6420000   5.9840000
