%VERSION  VERSION_STAMP = V0001.000  DATE = 05/20/26  23:56:43                  
%FLAG TITLE                                                                     
%FORMAT(20a4)                                                                   
phenyl_trifluoroethyl_ether                                                     
%FLAG POINTERS                                                                  
%FORMAT(10I8)                                                                   
      19       6       7      12      16      15      27      17       0       0
      88       1      12      15      17       7      11       6       6       0
       0       0       0       0       0       0       0       0      19       0
       0
%FLAG ATOM_NAME                                                                 
%FORMAT(20a4)                                                                   
C1  C2  C3  C4  C5  C6  C7  C8  O1  F1  F2  F3  H1  H2  H3  H4  H5  H6  H7  
%FLAG CHARGE                                                                    
%FORMAT(5E16.8)                                                                 
 -2.62401120E+00 -1.92245265E+00 -1.92245265E+00 -2.83356765E+00 -2.83356765E+00
  1.86049683E+00  5.76553572E+00  6.99554097E+00 -6.43064967E+00 -4.06903959E+00
 -4.20570684E+00 -4.20570684E+00  2.49645510E+00  2.51467740E+00  2.51467740E+00
  2.71512270E+00  2.71512270E+00  1.67098491E+00  1.81676331E+00
%FLAG ATOMIC_NUMBER                                                             
%FORMAT(10I8)                                                                   
       6       6       6       6       6       6       6       6       8       9
       9       9       1       1       1       1       1       1       1
%FLAG MASS                                                                      
%FORMAT(5E16.8)                                                                 
  1.20100000E+01  1.20100000E+01  1.20100000E+01  1.20100000E+01  1.20100000E+01
  1.20100000E+01  1.20100000E+01  1.20100000E+01  1.60000000E+01  1.90000000E+01
  1.90000000E+01  1.90000000E+01  1.00800000E+00  1.00800000E+00  1.00800000E+00
  1.00800000E+00  1.00800000E+00  1.00800000E+00  1.00800000E+00
%FLAG ATOM_TYPE_INDEX                                                           
%FORMAT(10I8)                                                                   
       1       1       1       1       1       1       2       2       3       4
       4       4       5       5       5       5       5       6       6
%FLAG NUMBER_EXCLUDED_ATOMS                                                     
%FORMAT(10I8)                                                                   
      10       9       8       8       7       9       7       6       7       4
       3       2       2       1       1       1       1       1       1
%FLAG NONBONDED_PARM_INDEX                                                      
%FORMAT(10I8)                                                                   
       1       2       4       7      11      16       2       3       5       8
      12      17       4       5       6       9      13      18       7       8
       9      10      14      19      11      12      13      14      15      20
      16      17      18      19      20      21
%FLAG RESIDUE_LABEL                                                             
%FORMAT(20a4)                                                                   
MOL 
%FLAG RESIDUE_POINTER                                                           
%FORMAT(10I8)                                                                   
       1
%FLAG BOND_FORCE_CONSTANT                                                       
%FORMAT(5E16.8)                                                                 
  3.54250000E+02  3.60690000E+02  3.43340000E+02  2.28890000E+02  2.82270000E+02
  3.34280000E+02  3.47020000E+02
%FLAG BOND_EQUIL_VALUE                                                          
%FORMAT(5E16.8)                                                                 
  1.39860000E+00  1.08600000E+00  1.36880000E+00  1.53540000E+00  1.42730000E+00
  1.35120000E+00  1.09500000E+00
%FLAG ANGLE_FORCE_CONSTANT                                                      
%FORMAT(5E16.8)                                                                 
  6.36700000E+01  4.49000000E+01  7.90000000E+01  8.82600000E+01  7.93600000E+01
  4.31300000E+01  7.74400000E+01  1.00660000E+02  5.60400000E+01  5.97900000E+01
  1.06880000E+02
%FLAG ANGLE_EQUIL_VALUE                                                         
%FORMAT(5E16.8)                                                                 
  2.09474507E+00  2.09230160E+00  2.07886256E+00  2.06629619E+00  1.91078728E+00
  1.92719339E+00  1.87832415E+00  1.94325042E+00  1.93783990E+00  1.90363143E+00
  1.87396082E+00
%FLAG DIHEDRAL_FORCE_CONSTANT                                                   
%FORMAT(5E16.8)                                                                 
  3.62500000E+00  1.66000000E+00  3.83333333E-01  1.55555556E-01  1.81000000E+00
  1.10000000E+00
%FLAG DIHEDRAL_PERIODICITY                                                      
%FORMAT(5E16.8)                                                                 
  2.00000000E+00  2.00000000E+00  3.00000000E+00  3.00000000E+00  2.00000000E+00
  2.00000000E+00
%FLAG DIHEDRAL_PHASE                                                            
%FORMAT(5E16.8)                                                                 
  3.14159400E+00  3.14159400E+00  0.00000000E+00  0.00000000E+00  0.00000000E+00
  3.14159400E+00
%FLAG SCEE_SCALE_FACTOR                                                         
%FORMAT(5E16.8)                                                                 
  1.20000000E+00  1.20000000E+00  1.20000000E+00  1.20000000E+00  1.20000000E+00
  0.00000000E+00
%FLAG SCNB_SCALE_FACTOR                                                         
%FORMAT(5E16.8)                                                                 
  2.00000000E+00  2.00000000E+00  2.00000000E+00  2.00000000E+00  2.00000000E+00
  0.00000000E+00
%FLAG SOLTY                                                                     
%FORMAT(5E16.8)                                                                 
  0.00000000E+00  0.00000000E+00  0.00000000E+00  0.00000000E+00  0.00000000E+00
  0.00000000E+00
%FLAG LENNARD_JONES_ACOEF                                                       
%FORMAT(5E16.8)                                                                 
  6.96551276E+05  8.43969952E+05  1.02073671E+06  4.46121722E+05  5.42502534E+05
  2.83662575E+05  3.80155513E+05  4.63627012E+05  2.40318810E+05  2.02652992E+05
  7.52549148E+04  9.27554496E+04  4.65732396E+04  3.86097375E+04  6.90855956E+03
  3.85565555E+04  4.80619274E+04  2.33261683E+04  1.89874158E+04  3.17496391E+03
  1.35510742E+03
%FLAG LENNARD_JONES_BCOEF                                                       
%FORMAT(5E16.8)                                                                 
  5.24668528E+02  5.90251928E+02  6.63431737E+02  3.88758656E+02  4.38146883E+02
  2.87011518E+02  3.71304925E+02  4.19082844E+02  2.73330984E+02  2.59697739E+02
  1.09570372E+02  1.24325688E+02  7.98066064E+01  7.51823196E+01  2.10929191E+01
  8.36149973E+01  9.54115851E+01  6.02145835E+01  5.62094831E+01  1.52447987E+01
  1.06181419E+01
%FLAG BONDS_INC_HYDROGEN                                                        
%FORMAT(10I8)                                                                   
       0      36       2       3      39       2       6      42       2       9
      45       2      12      48       2      18      51       7      21      54
       7
%FLAG BONDS_WITHOUT_HYDROGEN                                                    
%FORMAT(10I8)                                                                   
       0       3       1       0       6       1       3       9       1       6
      12       1       9      15       1      12      15       1      15      24
       3      18      21       4      18      24       5      18      27       6
      21      30       6      21      33       6
%FLAG ANGLES_INC_HYDROGEN                                                       
%FORMAT(10I8)                                                                   
       0       3      39       2       0       6      42       2       3       0
      36       2       3       9      45       2       6       0      36       2
       6      12      48       2       9       3      39       2      12       6
      42       2      15       9      45       2      15      12      48       2
      18      21      54       6      21      18      51       6      24      18
      51       9      27      18      51      10      30      21      54      10
      33      21      54      10
%FLAG ANGLES_WITHOUT_HYDROGEN                                                   
%FORMAT(10I8)                                                                   
       0       3       9       1       0       6      12       1       3       0
       6       1       3       9      15       1       6      12      15       1
       9      15      12       1       9      15      24       3      12      15
      24       3      15      24      18       4      18      21      30       5
      18      21      33       5      21      18      24       7      21      18
      27       5      24      18      27       8      30      21      33      11
%FLAG DIHEDRALS_INC_HYDROGEN                                                    
%FORMAT(10I8)                                                                   
       0       3       9      45       1       0       6      12      48       1
       3       0       6      42       1       6       0       3      39       1
      36       0       3       9       1       9      15      12      48       1
      36       0       6      12       1      12      15       9      45       1
      15       9       3      39       1      15      12       6      42       1
      15      24      18      51       3      24      15       9      45       1
      24      15      12      48       1      24      18      21      54       4
      27      18      21      54       4      30      21      18      51       4
      33      21      18      51       4      36       0       3      39       1
      36       0       6      42       1      39       3       9      45       1
      42       6      12      48       1      51      18      21      54       4
      36       0      -6      -3       6       0       9      -3     -39       6
       0      12      -6     -42       6       3      15      -9     -45       6
       6      15     -12     -48       6
%FLAG DIHEDRALS_WITHOUT_HYDROGEN                                                
%FORMAT(10I8)                                                                   
       0       3       9      15       1       0       6     -12      15       1
       3       0       6      12       1       3       9     -15      12       1
       3       9      15      24       1       6       0       3       9       1
       6      12     -15       9       1       6      12      15      24       1
       9      15      24      18       2      12      15      24      18       2
      15      24      18      21       3      15      24      18      27       3
      24      18      21      30       4      24      18      21      33       4
      27      18      21      30       5      27      18      21      33       5
       9      12     -15     -24       6
%FLAG EXCLUDED_ATOMS_LIST                                                       
%FORMAT(10I8)                                                                   
       2       3       4       5       6      13      14      15      16      17
       3       4       5       6       9      13      14      15      16       4
       5       6       9      13      14      15      17       5       6       7
       9      13      14      16      17       6       7       9      13      15
      16      17       7       8       9      10      14      15      16      17
      18       8       9      10      11      12      18      19       9      10
      11      12      18      19      10      11      12      16      17      18
      19      11      12      18      19      12      18      19      18      19
      14      15      16      17       0       0      19       0
%FLAG HBOND_ACOEF                                                               
%FORMAT(5E16.8)                                                                 

%FLAG HBOND_BCOEF                                                               
%FORMAT(5E16.8)                                                                 

%FLAG HBCUT                                                                     
%FORMAT(5E16.8)                                                                 

%FLAG AMBER_ATOM_TYPE                                                           
%FORMAT(20a4)                                                                   
ca  ca  ca  ca  ca  ca  c3  c3  os  f   f   f   ha  ha  ha  ha  ha  h2  h2  
%FLAG TREE_CHAIN_CLASSIFICATION                                                 
%FORMAT(20a4)                                                                   
BLA BLA BLA BLA BLA BLA BLA BLA BLA BLA BLA BLA BLA BLA BLA BLA BLA BLA BLA 
%FLAG JOIN_ARRAY                                                                
%FORMAT(10I8)                                                                   
       0       0       0       0       0       0       0       0       0       0
       0       0       0       0       0       0       0       0       0
%FLAG IROTAT                                                                    
%FORMAT(10I8)                                                                   
       0       0       0       0       0       0       0       0       0       0
       0       0       0       0       0       0       0       0       0
%FLAG RADIUS_SET                                                                
%FORMAT(1a80)                                                                   
modified Bondi radii (mbondi)                                                   
%FLAG RADII                                                                     
%FORMAT(5E16.8)                                                                 
  1.70000000E+00  1.70000000E+00  1.70000000E+00  1.70000000E+00  1.70000000E+00
  1.70000000E+00  1.70000000E+00  1.70000000E+00  1.50000000E+00  1.50000000E+00
  1.50000000E+00  1.50000000E+00  1.30000000E+00  1.30000000E+00  1.30000000E+00
  1.30000000E+00  1.30000000E+00  1.30000000E+00  1.30000000E+00
%FLAG SCREEN                                                                    
%FORMAT(5E16.8)                                                                 
  7.20000000E-01  7.20000000E-01  7.20000000E-01  7.20000000E-01  7.20000000E-01
  7.20000000E-01  7.20000000E-01  7.20000000E-01  8.50000000E-01  8.80000000E-01
  8.80000000E-01  8.80000000E-01  8.50000000E-01  8.50000000E-01  8.50000000E-01
  8.50000000E-01  8.50000000E-01  8.50000000E-01  8.50000000E-01
%FLAG IPOL                                                                      
%FORMAT(1I8)                                                                    
       0
