; mobley_6843802_GMX_OPLS.itp created by acpype (v: 2023.10.27) on Wed May 20 23:56:36 2026

; For OPLS atomtypes manual fine tuning
; AC_at:OPLS_at:OPLScode: Possible_Alternatives (see ffoplsaa.atp and ffoplsaanb.itp)
; ca:CA:opls_145: ['166', '501', '502']
; c3:CT:opls_135: ['136', '137', '149', '157', '158', '206', '209', '210', '223B', '224B', '245', '246', '274', '283', '284', '285', '292', '292B', '293B', '296', '307', '308', '505']
; os:x:opls_x: []
; f:x:opls_x: []
; ha:HA:opls_146: []
; h2:x:opls_x: []

[ moleculetype ]
;name            nrexcl
 mobley_6843802   3

[ atoms ]
;   nr  type  resi  res  atom  cgnr     charge      mass       ; qtot   bond_type
     1 opls_145     1   MOL    C1    1    -0.144000     12.01100 ; qtot -0.144  CA  
     2 opls_145     1   MOL    C2    2    -0.105500     12.01100 ; qtot -0.249  CA  
     3 opls_145     1   MOL    C3    3    -0.105500     12.01100 ; qtot -0.355  CA  
     4 opls_145     1   MOL    C4    4    -0.155500     12.01100 ; qtot -0.510  CA  
     5 opls_145     1   MOL    C5    5    -0.155500     12.01100 ; qtot -0.666  CA  
     6 opls_145     1   MOL    C6    6     0.102100     12.01100 ; qtot -0.564  CA  
     7 opls_135     1   MOL    C7    7     0.316400     12.01100 ; qtot -0.247  CT  
     8 opls_135     1   MOL    C8    8     0.382900     12.01100 ; qtot  0.135  CT  
     9 opls_x     1   MOL    O1    9    -0.352900      0.00000 ; qtot -0.217  x   
    10 opls_x     1   MOL    F1   10    -0.223300      0.00000 ; qtot -0.441  x   
    11 opls_x     1   MOL    F2   11    -0.230800      0.00000 ; qtot -0.672  x   
    12 opls_x     1   MOL    F3   12    -0.230800      0.00000 ; qtot -0.902  x   
    13 opls_146     1   MOL    H1   13     0.137000      1.00800 ; qtot -0.765  HA  
    14 opls_146     1   MOL    H2   14     0.138000      1.00800 ; qtot -0.627  HA  
    15 opls_146     1   MOL    H3   15     0.138000      1.00800 ; qtot -0.489  HA  
    16 opls_146     1   MOL    H4   16     0.149000      1.00800 ; qtot -0.340  HA  
    17 opls_146     1   MOL    H5   17     0.149000      1.00800 ; qtot -0.191  HA  
    18 opls_x     1   MOL    H6   18     0.091700      0.00000 ; qtot -0.100  x   
    19 opls_x     1   MOL    H7   19     0.099700      0.00000 ; qtot  0.000  x   

[ bonds ]
;   ai     aj funct   r             k
     1      2   1 ;    1.3986e-01    2.9644e+05 ;     C1 - C2         CA - CA    
     1      3   1 ;    1.3986e-01    2.9644e+05 ;     C1 - C3         CA - CA    
     1     13   1 ;    1.0860e-01    3.0183e+05 ;     C1 - H1         CA - HA    
     2      4   1 ;    1.3986e-01    2.9644e+05 ;     C2 - C4         CA - CA    
     2     14   1 ;    1.0860e-01    3.0183e+05 ;     C2 - H2         CA - HA    
     3      5   1 ;    1.3986e-01    2.9644e+05 ;     C3 - C5         CA - CA    
     3     15   1 ;    1.0860e-01    3.0183e+05 ;     C3 - H3         CA - HA    
     4      6   1 ;    1.3986e-01    2.9644e+05 ;     C4 - C6         CA - CA    
     4     16   1 ;    1.0860e-01    3.0183e+05 ;     C4 - H4         CA - HA    
     5      6   1 ;    1.3986e-01    2.9644e+05 ;     C5 - C6         CA - CA    
     5     17   1 ;    1.0860e-01    3.0183e+05 ;     C5 - H5         CA - HA    
     6      9   1 ;    1.3688e-01    2.8731e+05 ;     C6 - O1         CA - x     
     7      8   1 ;    1.5354e-01    1.9154e+05 ;     C7 - C8         CT - CT    
     7      9   1 ;    1.4273e-01    2.3620e+05 ;     C7 - O1         CT - x     
     7     10   1 ;    1.3512e-01    2.7973e+05 ;     C7 - F1         CT - x     
     7     18   1 ;    1.0950e-01    2.9039e+05 ;     C7 - H6         CT - x     
     8     11   1 ;    1.3512e-01    2.7973e+05 ;     C8 - F2         CT - x     
     8     12   1 ;    1.3512e-01    2.7973e+05 ;     C8 - F3         CT - x     
     8     19   1 ;    1.0950e-01    2.9039e+05 ;     C8 - H7         CT - x     

[ pairs ]
;   ai     aj    funct
     1      6      1 ;     C1 - C6    
     1     16      1 ;     C1 - H4    
     1     17      1 ;     C1 - H5    
     2      5      1 ;     C2 - C5    
     2      9      1 ;     C2 - O1    
     2     15      1 ;     C2 - H3    
     3      4      1 ;     C3 - C4    
     3      9      1 ;     C3 - O1    
     3     14      1 ;     C3 - H2    
     4      7      1 ;     C4 - C7    
     4     17      1 ;     C4 - H5    
     5      7      1 ;     C5 - C7    
     5     16      1 ;     C5 - H4    
     6      8      1 ;     C6 - C8    
     6     10      1 ;     C6 - F1    
     6     14      1 ;     C6 - H2    
     6     15      1 ;     C6 - H3    
     6     18      1 ;     C6 - H6    
     9     11      1 ;     O1 - F2    
     9     12      1 ;     O1 - F3    
     9     16      1 ;     O1 - H4    
     9     17      1 ;     O1 - H5    
     9     19      1 ;     O1 - H7    
    10     11      1 ;     F1 - F2    
    10     12      1 ;     F1 - F3    
    10     19      1 ;     F1 - H7    
    11     18      1 ;     F2 - H6    
    12     18      1 ;     F3 - H6    
    13      4      1 ;     H1 - C4    
    13      5      1 ;     H1 - C5    
    13     14      1 ;     H1 - H2    
    13     15      1 ;     H1 - H3    
    14     16      1 ;     H2 - H4    
    15     17      1 ;     H3 - H5    
    18     19      1 ;     H6 - H7    

[ angles ]
;   ai     aj     ak    funct   theta         cth
     1      2      4      1 ;    1.2002e+02    5.3279e+02 ;     C1 - C2   - C4       CA -   CA - CA  
     1      2     14      1 ;    1.1988e+02    3.7572e+02 ;     C1 - C2   - H2       CA -   CA - HA  
     1      3      5      1 ;    1.2002e+02    5.3279e+02 ;     C1 - C3   - C5       CA -   CA - CA  
     1      3     15      1 ;    1.1988e+02    3.7572e+02 ;     C1 - C3   - H3       CA -   CA - HA  
     2      1      3      1 ;    1.2002e+02    5.3279e+02 ;     C2 - C1   - C3       CA -   CA - CA  
     2      1     13      1 ;    1.1988e+02    3.7572e+02 ;     C2 - C1   - H1       CA -   CA - HA  
     2      4      6      1 ;    1.2002e+02    5.3279e+02 ;     C2 - C4   - C6       CA -   CA - CA  
     2      4     16      1 ;    1.1988e+02    3.7572e+02 ;     C2 - C4   - H4       CA -   CA - HA  
     3      1     13      1 ;    1.1988e+02    3.7572e+02 ;     C3 - C1   - H1       CA -   CA - HA  
     3      5      6      1 ;    1.2002e+02    5.3279e+02 ;     C3 - C5   - C6       CA -   CA - CA  
     3      5     17      1 ;    1.1988e+02    3.7572e+02 ;     C3 - C5   - H5       CA -   CA - HA  
     4      2     14      1 ;    1.1988e+02    3.7572e+02 ;     C4 - C2   - H2       CA -   CA - HA  
     4      6      5      1 ;    1.2002e+02    5.3279e+02 ;     C4 - C6   - C5       CA -   CA - CA  
     4      6      9      1 ;    1.1911e+02    6.6107e+02 ;     C4 - C6   - O1       CA -   CA - x   
     5      3     15      1 ;    1.1988e+02    3.7572e+02 ;     C5 - C3   - H3       CA -   CA - HA  
     5      6      9      1 ;    1.1911e+02    6.6107e+02 ;     C5 - C6   - O1       CA -   CA - x   
     6      4     16      1 ;    1.1988e+02    3.7572e+02 ;     C6 - C4   - H4       CA -   CA - HA  
     6      5     17      1 ;    1.1988e+02    3.7572e+02 ;     C6 - C5   - H5       CA -   CA - HA  
     6      9      7      1 ;    1.1839e+02    7.3856e+02 ;     C6 - O1   - C7       CA -    x - CT  
     7      8     11      1 ;    1.0948e+02    6.6408e+02 ;     C7 - C8   - F2       CT -   CT - x   
     7      8     12      1 ;    1.0948e+02    6.6408e+02 ;     C7 - C8   - F3       CT -   CT - x   
     7      8     19      1 ;    1.1042e+02    3.6091e+02 ;     C7 - C8   - H7       CT -   CT - x   
     8      7      9      1 ;    1.0762e+02    6.4802e+02 ;     C8 - C7   - O1       CT -   CT - x   
     8      7     10      1 ;    1.0948e+02    6.6408e+02 ;     C8 - C7   - F1       CT -   CT - x   
     8      7     18      1 ;    1.1042e+02    3.6091e+02 ;     C8 - C7   - H6       CT -   CT - x   
     9      7     10      1 ;    1.1134e+02    8.4232e+02 ;     O1 - C7   - F1        x -   CT - x   
     9      7     18      1 ;    1.1103e+02    4.6894e+02 ;     O1 - C7   - H6        x -   CT - x   
    10      7     18      1 ;    1.0907e+02    5.0032e+02 ;     F1 - C7   - H6        x -   CT - x   
    11      8     12      1 ;    1.0737e+02    8.9437e+02 ;     F2 - C8   - F3        x -   CT - x   
    11      8     19      1 ;    1.0907e+02    5.0032e+02 ;     F2 - C8   - H7        x -   CT - x   
    12      8     19      1 ;    1.0907e+02    5.0032e+02 ;     F3 - C8   - H7        x -   CT - x   

[ dihedrals ] ; propers
; for gromacs 4.5 or higher, using funct 9
;    i      j      k      l   func   phase     kd      pn
     1      2      4      6      9 ;   180.00  15.16700   2 ;     C1-    C2-    C4-    C6
     1      2      4     16      9 ;   180.00  15.16700   2 ;     C1-    C2-    C4-    H4
     1      3      5      6      9 ;   180.00  15.16700   2 ;     C1-    C3-    C5-    C6
     1      3      5     17      9 ;   180.00  15.16700   2 ;     C1-    C3-    C5-    H5
     2      1      3      5      9 ;   180.00  15.16700   2 ;     C2-    C1-    C3-    C5
     2      1      3     15      9 ;   180.00  15.16700   2 ;     C2-    C1-    C3-    H3
     2      4      6      5      9 ;   180.00  15.16700   2 ;     C2-    C4-    C6-    C5
     2      4      6      9      9 ;   180.00  15.16700   2 ;     C2-    C4-    C6-    O1
     3      1      2      4      9 ;   180.00  15.16700   2 ;     C3-    C1-    C2-    C4
     3      1      2     14      9 ;   180.00  15.16700   2 ;     C3-    C1-    C2-    H2
     3      5      6      4      9 ;   180.00  15.16700   2 ;     C3-    C5-    C6-    C4
     3      5      6      9      9 ;   180.00  15.16700   2 ;     C3-    C5-    C6-    O1
     4      6      5     17      9 ;   180.00  15.16700   2 ;     C4-    C6-    C5-    H5
     4      6      9      7      9 ;   180.00   6.94544   2 ;     C4-    C6-    O1-    C7
     5      6      4     16      9 ;   180.00  15.16700   2 ;     C5-    C6-    C4-    H4
     5      6      9      7      9 ;   180.00   6.94544   2 ;     C5-    C6-    O1-    C7
     6      4      2     14      9 ;   180.00  15.16700   2 ;     C6-    C4-    C2-    H2
     6      5      3     15      9 ;   180.00  15.16700   2 ;     C6-    C5-    C3-    H3
     6      9      7      8      9 ;     0.00   1.60387   3 ;     C6-    O1-    C7-    C8
     6      9      7     10      9 ;     0.00   1.60387   3 ;     C6-    O1-    C7-    F1
     6      9      7     18      9 ;     0.00   1.60387   3 ;     C6-    O1-    C7-    H6
     9      6      4     16      9 ;   180.00  15.16700   2 ;     O1-    C6-    C4-    H4
     9      6      5     17      9 ;   180.00  15.16700   2 ;     O1-    C6-    C5-    H5
     9      7      8     11      9 ;     0.00   0.65084   3 ;     O1-    C7-    C8-    F2
     9      7      8     12      9 ;     0.00   0.65084   3 ;     O1-    C7-    C8-    F3
     9      7      8     19      9 ;     0.00   0.65084   3 ;     O1-    C7-    C8-    H7
    10      7      8     11      9 ;     0.00   7.57304   2 ;     F1-    C7-    C8-    F2
    10      7      8     12      9 ;     0.00   7.57304   2 ;     F1-    C7-    C8-    F3
    10      7      8     19      9 ;     0.00   0.65084   3 ;     F1-    C7-    C8-    H7
    11      8      7     18      9 ;     0.00   0.65084   3 ;     F2-    C8-    C7-    H6
    12      8      7     18      9 ;     0.00   0.65084   3 ;     F3-    C8-    C7-    H6
    13      1      2      4      9 ;   180.00  15.16700   2 ;     H1-    C1-    C2-    C4
    13      1      2     14      9 ;   180.00  15.16700   2 ;     H1-    C1-    C2-    H2
    13      1      3      5      9 ;   180.00  15.16700   2 ;     H1-    C1-    C3-    C5
    13      1      3     15      9 ;   180.00  15.16700   2 ;     H1-    C1-    C3-    H3
    14      2      4     16      9 ;   180.00  15.16700   2 ;     H2-    C2-    C4-    H4
    15      3      5     17      9 ;   180.00  15.16700   2 ;     H3-    C3-    C5-    H5
    18      7      8     19      9 ;     0.00   0.65084   3 ;     H6-    C7-    C8-    H7

[ dihedrals ] ; impropers
; treated as propers in GROMACS to use correct AMBER analytical function
;    i      j      k      l   func   phase     kd      pn
     1      4      2     14      4 ;   180.00   4.60240   2 ;     C1-    C4-    C2-    H2
     1      5      3     15      4 ;   180.00   4.60240   2 ;     C1-    C5-    C3-    H3
     2      6      4     16      4 ;   180.00   4.60240   2 ;     C2-    C6-    C4-    H4
     3      6      5     17      4 ;   180.00   4.60240   2 ;     C3-    C6-    C5-    H5
     4      5      6      9      4 ;   180.00   4.60240   2 ;     C4-    C5-    C6-    O1
    13      1      3      2      4 ;   180.00   4.60240   2 ;     H1-    C1-    C3-    C2
