; mobley_6843802_GMX.top created by acpype (v: 2023.10.27) on Wed May 20 23:56:36 2026

[ defaults ]
; nbfunc        comb-rule       gen-pairs       fudgeLJ fudgeQQ
1               2               yes             0.5     0.8333333333

; Include mobley_6843802_GMX.itp topology
#include "mobley_6843802_GMX.itp"

; Ligand position restraints
#ifdef POSRES_LIG
#include "posre_mobley_6843802.itp"
#endif

[ system ]
mobley_6843802 in water

[ molecules ]
; Compound        nmols
 mobley_6843802   1     
SOL              3710
