mobley_468867_GMX.gro created by acpype (v: 2023.10.27) on Wed May 20 23:46:56 2026
10036
    1MOL     C1    1   2.408   2.470   2.201
    1MOL     C2    2   2.519   2.395   2.200
    1MOL     C3    3   2.336   2.462   2.487
    1MOL     C4    4   2.389   2.343   2.516
    1MOL     C5    5   2.289   2.394   2.251
    1MOL     C6    6   2.497   2.255   2.248
    1MOL     C7    7   2.348   2.252   2.285
    1MOL     C8    8   2.224   2.438   2.387
    1MOL     C9    9   2.313   2.238   2.437
    1MOL    C10   10   2.170   2.303   2.442
    1MOL    CL1   11   2.385   2.615   2.541
    1MOL    CL2   12   2.520   2.310   2.618
    1MOL    CL3   13   2.531   2.144   2.113
    1MOL    CL4   14   2.106   2.567   2.369
    1MOL    CL5   15   2.324   2.073   2.496
    1MOL    CL6   16   2.097   2.312   2.607
    1MOL    CL7   17   2.047   2.223   2.338
    1MOL     H1   18   2.404   2.574   2.169
    1MOL     H2   19   2.616   2.431   2.168
    1MOL     H3   20   2.215   2.385   2.171
    1MOL     H4   21   2.564   2.229   2.330
    1MOL     H5   22   2.295   2.175   2.228
    2SOL     OW   23   0.230   0.628   0.113
    2SOL    HW1   24   0.137   0.626   0.150
    2SOL    HW2   25   0.231   0.589   0.021
    3SOL     OW   26   0.225   0.275   0.996
    3SOL    HW1   27   0.260   0.258   1.088
    3SOL    HW2   28   0.137   0.230   0.984
    4SOL     OW   29   0.019   0.368   0.647
    4SOL    HW1   30  -0.063   0.411   0.686
    4SOL    HW2   31  -0.009   0.295   0.584
    5SOL     OW   32   0.569   1.275   1.165
    5SOL    HW1   33   0.476   1.268   1.128
    5SOL    HW2   34   0.580   1.364   1.209
    6SOL     OW   35   1.555   1.511   0.703
    6SOL    HW1   36   1.498   1.495   0.784
    6SOL    HW2   37   1.496   1.521   0.623
    7SOL     OW   38   1.135   0.703   0.717
    7SOL    HW1   39   1.192   0.781   0.692
    7SOL    HW2   40   1.075   0.729   0.793
    8SOL     OW   41   1.755   0.607   0.231
    8SOL    HW1   42   1.743   0.594   0.132
    8SOL    HW2   43   1.725   0.526   0.280
    9SOL     OW   44   0.768   1.144   1.023
    9SOL    HW1   45   0.690   1.161   1.083
    9SOL    HW2   46   0.802   1.231   0.987
   10SOL     OW   47   0.850   0.798   1.823
   10SOL    HW1   48   0.846   0.874   1.888
   10SOL    HW2   49   0.872   0.834   1.732
   11SOL     OW   50   0.685   1.012   0.665
   11SOL    HW1   51   0.754   0.996   0.735
   11SOL    HW2   52   0.612   1.069   0.703
   12SOL     OW   53   0.686   1.161   1.803
   12SOL    HW1   54   0.746   1.240   1.817
   12SOL    HW2   55   0.600   1.192   1.762
   13SOL     OW   56   0.335   1.435   1.061
   13SOL    HW1   57   0.257   1.404   1.008
   13SOL    HW2   58   0.393   1.493   1.004
   14SOL     OW   59   1.460   1.505   1.339
   14SOL    HW1   60   1.484   1.599   1.365
   14SOL    HW2   61   1.444   1.451   1.421
   15SOL     OW   62   0.438   0.392   1.499
   15SOL    HW1   63   0.520   0.336   1.508
   15SOL    HW2   64   0.357   0.334   1.503
   16SOL     OW   65   1.603   0.447   0.737
   16SOL    HW1   66   1.529   0.493   0.687
   16SOL    HW2   67   1.654   0.515   0.790
   17SOL     OW   68   0.231   1.713   0.483
   17SOL    HW1   69   0.265   1.790   0.537
   17SOL    HW2   70   0.275   1.713   0.393
   18SOL     OW   71   1.127   1.341   1.690
   18SOL    HW1   72   1.174   1.341   1.778
   18SOL    HW2   73   1.079   1.254   1.679
   19SOL     OW   74   0.230   1.434   0.538
   19SOL    HW1   75   0.204   1.530   0.538
   19SOL    HW2   76   0.159   1.380   0.583
   20SOL     OW   77   0.240   1.091   0.886
   20SOL    HW1   78   0.254   1.007   0.938
   20SOL    HW2   79   0.185   1.155   0.941
   21SOL     OW   80   0.620   1.786   1.439
   21SOL    HW1   81   0.528   1.769   1.474
   21SOL    HW2   82   0.648   1.878   1.465
   22SOL     OW   83   0.606   0.964   0.123
   22SOL    HW1   84   0.613   1.048   0.069
   22SOL    HW2   85   0.652   0.977   0.211
   23SOL     OW   86   1.594   0.114   1.480
   23SOL    HW1   87   1.576   0.181   1.408
   23SOL    HW2   88   1.591   0.160   1.569
   24SOL     OW   89   0.122   0.643   0.563
   24SOL    HW1   90   0.077   0.555   0.580
   24SOL    HW2   91   0.121   0.697   0.647
   25SOL     OW   92   1.842   1.767   0.359
   25SOL    HW1   93   1.896   1.738   0.439
   25SOL    HW2   94   1.872   1.857   0.330
   26SOL     OW   95   0.027   1.596   0.117
   26SOL    HW1   96   0.008   1.500   0.138
   26SOL    HW2   97  -0.006   1.654   0.192
   27SOL     OW   98   1.689   0.922   0.612
   27SOL    HW1   99   1.784   0.893   0.620
   27SOL    HW2  100   1.681   0.987   0.537
   28SOL     OW  101   1.641   1.108   0.432
   28SOL    HW1  102   1.727   1.110   0.380
   28SOL    HW2  103   1.655   1.155   0.520
   29SOL     OW  104   0.113   0.737   1.597
   29SOL    HW1  105   0.201   0.724   1.642
   29SOL    HW2  106   0.100   0.834   1.575
   30SOL     OW  107   0.613   1.365   0.726
   30SOL    HW1  108   0.564   1.278   0.735
   30SOL    HW2  109   0.590   1.408   0.639
   31SOL     OW  110   1.293   1.228   1.423
   31SOL    HW1  111   1.330   1.155   1.365
   31SOL    HW2  112   1.345   1.233   1.508
   32SOL     OW  113   0.809   0.004   0.502
   32SOL    HW1  114   0.849   0.095   0.493
   32SOL    HW2  115   0.709   0.012   0.508
   33SOL     OW  116   0.197   0.976   1.264
   33SOL    HW1  117   0.286   0.931   1.250
   33SOL    HW2  118   0.124   0.911   1.245
   34SOL     OW  119   1.525   0.999   0.190
   34SOL    HW1  120   1.462   0.923   0.203
   34SOL    HW2  121   1.573   1.017   0.276
   35SOL     OW  122   1.187   1.792   1.616
   35SOL    HW1  123   1.211   1.852   1.540
   35SOL    HW2  124   1.194   1.697   1.586
   36SOL     OW  125   0.317   0.251   1.801
   36SOL    HW1  126   0.388   0.322   1.807
   36SOL    HW2  127   0.229   0.290   1.829
   37SOL     OW  128   1.466   1.417   0.953
   37SOL    HW1  129   1.407   1.423   1.033
   37SOL    HW2  130   1.451   1.329   0.907
   38SOL     OW  131   1.667   1.714   0.572
   38SOL    HW1  132   1.626   1.691   0.484
   38SOL    HW2  133   1.649   1.640   0.637
   39SOL     OW  134   0.598   0.729   0.270
   39SOL    HW1  135   0.622   0.798   0.202
   39SOL    HW2  136   0.520   0.762   0.324
   40SOL     OW  137   1.281   0.345   0.944
   40SOL    HW1  138   1.195   0.295   0.931
   40SOL    HW2  139   1.343   0.291   1.000
   41SOL     OW  140   1.576   1.662   0.307
   41SOL    HW1  141   1.665   1.708   0.310
   41SOL    HW2  142   1.555   1.638   0.212
   42SOL     OW  143   0.807   0.605   1.465
   42SOL    HW1  144   0.760   0.602   1.554
   42SOL    HW2  145   0.756   0.550   1.399
   43SOL     OW  146   1.394   0.469   1.674
   43SOL    HW1  147   1.374   0.512   1.762
   43SOL    HW2  148   1.472   0.407   1.683
   44SOL     OW  149   0.973   0.890   1.572
   44SOL    HW1  150   1.019   0.806   1.543
   44SOL    HW2  151   0.917   0.924   1.497
   45SOL     OW  152   0.991   0.410   1.242
   45SOL    HW1  153   0.914   0.444   1.296
   45SOL    HW2  154   0.957   0.359   1.163
   46SOL     OW  155   1.041   0.701   0.429
   46SOL    HW1  156   1.067   0.697   0.525
   46SOL    HW2  157   0.956   0.650   0.415
   47SOL     OW  158   0.076   0.811   0.789
   47SOL    HW1  159   0.175   0.799   0.798
   47SOL    HW2  160   0.052   0.906   0.810
   48SOL     OW  161   0.130   1.821   1.571
   48SOL    HW1  162   0.120   1.806   1.670
   48SOL    HW2  163   0.044   1.857   1.535
   49SOL     OW  164   0.865   0.348   0.195
   49SOL    HW1  165   0.924   0.411   0.146
   49SOL    HW2  166   0.884   0.254   0.166
   50SOL     OW  167   1.719   0.585   1.831
   50SOL    HW1  168   1.693   0.674   1.795
   50SOL    HW2  169   1.717   0.517   1.758
   51SOL     OW  170   1.362   1.144   0.545
   51SOL    HW1  171   1.445   1.115   0.497
   51SOL    HW2  172   1.313   1.211   0.489
   52SOL     OW  173   0.550   0.196   0.885
   52SOL    HW1  174   0.545   0.191   0.985
   52SOL    HW2  175   0.552   0.292   0.856
   53SOL     OW  176   1.008   1.456   0.477
   53SOL    HW1  177   0.962   1.528   0.425
   53SOL    HW2  178   1.004   1.476   0.575
   54SOL     OW  179   0.351   1.801   0.853
   54SOL    HW1  180   0.401   1.715   0.859
   54SOL    HW2  181   0.416   1.878   0.850
   55SOL     OW  182   1.795   1.066   0.873
   55SOL    HW1  183   1.733   1.051   0.797
   55SOL    HW2  184   1.743   1.077   0.958
   56SOL     OW  185   1.227   1.550   1.506
   56SOL    HW1  186   1.233   1.473   1.570
   56SOL    HW2  187   1.175   1.524   1.426
   57SOL     OW  188   0.321   0.943   0.242
   57SOL    HW1  189   0.403   0.982   0.200
   57SOL    HW2  190   0.294   0.861   0.193
   58SOL     OW  191   1.458   0.735   0.728
   58SOL    HW1  192   1.453   0.670   0.803
   58SOL    HW2  193   1.538   0.794   0.741
   59SOL     OW  194   0.461   1.266   1.727
   59SOL    HW1  195   0.411   1.267   1.641
   59SOL    HW2  196   0.398   1.248   1.803
   60SOL     OW  197   1.111   1.776   0.237
   60SOL    HW1  198   1.051   1.714   0.287
   60SOL    HW2  199   1.142   1.732   0.152
   61SOL     OW  200   0.202   0.285   1.498
   61SOL    HW1  201   0.122   0.345   1.485
   61SOL    HW2  202   0.192   0.236   1.584
   62SOL     OW  203   1.632   1.377   0.081
   62SOL    HW1  204   1.600   1.471   0.071
   62SOL    HW2  205   1.556   1.314   0.069
   63SOL     OW  206   0.464   1.743   0.323
   63SOL    HW1  207   0.497   1.782   0.409
   63SOL    HW2  208   0.540   1.736   0.258
   64SOL     OW  209   1.400   0.107   0.426
   64SOL    HW1  210   1.376   0.070   0.336
   64SOL    HW2  211   1.499   0.123   0.430
   65SOL     OW  212   0.249   1.785   1.241
   65SOL    HW1  213   0.306   1.720   1.291
   65SOL    HW2  214   0.233   1.752   1.148
   66SOL     OW  215   0.940   1.698   0.904
   66SOL    HW1  216   1.020   1.641   0.925
   66SOL    HW2  217   0.891   1.658   0.827
   67SOL     OW  218   0.382   0.700   0.480
   67SOL    HW1  219   0.427   0.610   0.477
   67SOL    HW2  220   0.288   0.689   0.513
   68SOL     OW  221   1.547   0.222   1.729
   68SOL    HW1  222   1.542   0.259   1.821
   68SOL    HW2  223   1.475   0.153   1.717
   69SOL     OW  224   0.614   0.122   0.117
   69SOL    HW1  225   0.712   0.100   0.124
   69SOL    HW2  226   0.583   0.105   0.024
   70SOL     OW  227   0.781   0.264   1.749
   70SOL    HW1  228   0.848   0.203   1.792
   70SOL    HW2  229   0.708   0.283   1.814
   71SOL     OW  230   0.888   1.514   1.195
   71SOL    HW1  231   0.865   1.489   1.101
   71SOL    HW2  232   0.949   1.445   1.234
   72SOL     OW  233   1.351   0.590   1.433
   72SOL    HW1  234   1.379   0.547   1.518
   72SOL    HW2  235   1.376   0.686   1.434
   73SOL     OW  236   0.803   1.402   0.924
   73SOL    HW1  237   0.893   1.416   0.882
   73SOL    HW2  238   0.732   1.404   0.853
   74SOL     OW  239   0.922   0.503   0.899
   74SOL    HW1  240   0.897   0.494   0.803
   74SOL    HW2  241   0.970   0.421   0.930
   75SOL     OW  242   0.539   0.064   0.512
   75SOL    HW1  243   0.458   0.065   0.570
   75SOL    HW2  244   0.542   0.147   0.457
   76SOL     OW  245   1.434   1.188   0.041
   76SOL    HW1  246   1.466   1.112   0.098
   76SOL    HW2  247   1.342   1.215   0.071
   77SOL     OW  248   0.297   0.035   0.171
   77SOL    HW1  249   0.346   0.119   0.150
   77SOL    HW2  250   0.359  -0.030   0.216
   78SOL     OW  251   0.935   0.236   0.480
   78SOL    HW1  252   0.887   0.277   0.402
   78SOL    HW2  253   1.034   0.234   0.461
   79SOL     OW  254   1.076   0.683   1.464
   79SOL    HW1  255   0.996   0.622   1.467
   79SOL    HW2  256   1.157   0.630   1.440
   80SOL     OW  257   1.227   1.570   0.793
   80SOL    HW1  258   1.248   1.644   0.728
   80SOL    HW2  259   1.295   1.570   0.866
   81SOL     OW  260   0.459   1.152   0.741
   81SOL    HW1  261   0.388   1.125   0.806
   81SOL    HW2  262   0.433   1.124   0.648
   82SOL     OW  263   1.271   1.797   0.591
   82SOL    HW1  264   1.315   1.861   0.527
   82SOL    HW2  265   1.221   1.849   0.661
   83SOL     OW  266   1.032   0.549   0.016
   83SOL    HW1  267   0.991   0.631  -0.023
   83SOL    HW2  268   1.096   0.575   0.089
   84SOL     OW  269   0.078   0.556   1.386
   84SOL    HW1  270   0.170   0.555   1.345
   84SOL    HW2  271   0.072   0.630   1.453
   85SOL     OW  272   0.561   0.222   1.147
   85SOL    HW1  273   0.599   0.138   1.184
   85SOL    HW2  274   0.473   0.241   1.191
   86SOL     OW  275   0.866   0.454   0.642
   86SOL    HW1  276   0.834   0.526   0.580
   86SOL    HW2  277   0.890   0.373   0.589
   87SOL     OW  278   1.017   0.039   0.753
   87SOL    HW1  279   0.945   0.044   0.684
   87SOL    HW2  280   0.993  -0.030   0.822
   88SOL     OW  281   1.429   1.173   0.867
   88SOL    HW1  282   1.374   1.089   0.860
   88SOL    HW2  283   1.455   1.202   0.775
   89SOL     OW  284   1.466   0.590   0.992
   89SOL    HW1  285   1.436   0.495   0.999
   89SOL    HW2  286   1.539   0.606   1.058
   90SOL     OW  287   1.857   0.833   0.377
   90SOL    HW1  288   1.899   0.769   0.441
   90SOL    HW2  289   1.819   0.782   0.299
   91SOL     OW  290   0.488   1.385   0.174
   91SOL    HW1  291   0.401   1.370   0.221
   91SOL    HW2  292   0.471   1.411   0.079
   92SOL     OW  293   1.664   1.280   0.657
   92SOL    HW1  294   1.763   1.288   0.671
   92SOL    HW2  295   1.619   1.364   0.688
   93SOL     OW  296   1.390   0.575   0.078
   93SOL    HW1  297   1.336   0.554   0.159
   93SOL    HW2  298   1.481   0.534   0.087
   94SOL     OW  299   0.527   0.256   0.328
   94SOL    HW1  300   0.554   0.197   0.253
   94SOL    HW2  301   0.527   0.351   0.297
   95SOL     OW  302   1.754   1.223   1.588
   95SOL    HW1  303   1.845   1.184   1.575
   95SOL    HW2  304   1.762   1.319   1.612
   96SOL     OW  305   1.064   1.347   1.340
   96SOL    HW1  306   0.984   1.324   1.395
   96SOL    HW2  307   1.147   1.321   1.389
   97SOL     OW  308   1.592   1.629   1.625
   97SOL    HW1  309   1.619   1.663   1.535
   97SOL    HW2  310   1.671   1.591   1.671
   98SOL     OW  311   1.111   1.195   1.100
   98SOL    HW1  312   1.071   1.239   1.181
   98SOL    HW2  313   1.070   1.232   1.017
   99SOL     OW  314   1.638   1.099   1.079
   99SOL    HW1  315   1.643   1.180   1.138
   99SOL    HW2  316   1.552   1.101   1.028
  100SOL     OW  317   0.915   0.089   1.402
  100SOL    HW1  318   0.940   0.069   1.307
  100SOL    HW2  319   0.987   0.145   1.444
  101SOL     OW  320   0.980   1.116   1.719
  101SOL    HW1  321   0.881   1.122   1.729
  101SOL    HW2  322   1.003   1.036   1.663
  102SOL     OW  323   0.705   1.050   0.368
  102SOL    HW1  324   0.691   1.057   0.467
  102SOL    HW2  325   0.789   0.999   0.350
  103SOL     OW  326   0.410   0.813   1.251
  103SOL    HW1  327   0.496   0.825   1.301
  103SOL    HW2  328   0.368   0.726   1.278
  104SOL     OW  329   1.274   0.386   1.262
  104SOL    HW1  330   1.295   0.460   1.326
  104SOL    HW2  331   1.185   0.403   1.219
  105SOL     OW  332   0.064   1.564   1.331
  105SOL    HW1  333   0.018   1.646   1.297
  105SOL    HW2  334   0.162   1.583   1.340
  106SOL     OW  335   0.367   1.100   0.501
  106SOL    HW1  336   0.360   1.183   0.445
  106SOL    HW2  337   0.371   1.020   0.441
  107SOL     OW  338   0.566   0.537   0.865
  107SOL    HW1  339   0.578   0.603   0.791
  107SOL    HW2  340   0.612   0.571   0.948
  108SOL     OW  341   1.252   1.348   0.388
  108SOL    HW1  342   1.302   1.425   0.428
  108SOL    HW2  343   1.157   1.350   0.420
  109SOL     OW  344   1.272   1.445   1.142
  109SOL    HW1  345   1.319   1.458   1.229
  109SOL    HW2  346   1.206   1.371   1.151
  110SOL     OW  347   1.582   0.639   0.472
  110SOL    HW1  348   1.551   0.700   0.545
  110SOL    HW2  349   1.632   0.691   0.403
  111SOL     OW  350   0.354   1.510   1.329
  111SOL    HW1  351   0.333   1.466   1.242
  111SOL    HW2  352   0.451   1.536   1.332
  112SOL     OW  353   0.402   0.751   1.598
  112SOL    HW1  354   0.470   0.806   1.551
  112SOL    HW2  355   0.442   0.663   1.625
  113SOL     OW  356   1.587   0.779   1.670
  113SOL    HW1  357   1.495   0.817   1.665
  113SOL    HW2  358   1.647   0.826   1.605
  114SOL     OW  359   1.013   0.105   1.770
  114SOL    HW1  360   1.019   0.190   1.718
  114SOL    HW2  361   1.045   0.029   1.713
  115SOL     OW  362   0.504   0.050   1.740
  115SOL    HW1  363   0.462  -0.007   1.670
  115SOL    HW2  364   0.438   0.119   1.772
  116SOL     OW  365   0.573   0.870   1.029
  116SOL    HW1  366   0.617   0.959   1.020
  116SOL    HW2  367   0.510   0.870   1.106
  117SOL     OW  368   1.360   0.862   1.045
  117SOL    HW1  369   1.285   0.862   0.979
  117SOL    HW2  370   1.397   0.770   1.054
  118SOL     OW  371   1.209   0.525   0.275
  118SOL    HW1  372   1.222   0.441   0.329
  118SOL    HW2  373   1.180   0.599   0.335
  119SOL     OW  374   0.307   0.213   1.231
  119SOL    HW1  375   0.284   0.250   1.321
  119SOL    HW2  376   0.277   0.118   1.225
  120SOL     OW  377   0.037   1.310   1.282
  120SOL    HW1  378   0.090   1.261   1.350
  120SOL    HW2  379   0.059   1.408   1.287
  121SOL     OW  380   0.732   0.634   1.064
  121SOL    HW1  381   0.791   0.608   0.988
  121SOL    HW2  382   0.704   0.730   1.053
  122SOL     OW  383   1.728   0.935   1.854
  122SOL    HW1  384   1.682   0.928   1.765
  122SOL    HW2  385   1.666   0.979   1.920
  123SOL     OW  386   0.307   0.063   0.618
  123SOL    HW1  387   0.296   0.157   0.651
  123SOL    HW2  388   0.302   0.000   0.695
  124SOL     OW  389   1.622   0.367   0.374
  124SOL    HW1  390   1.624   0.291   0.438
  124SOL    HW2  391   1.574   0.444   0.414
  125SOL     OW  392   1.023   0.766   0.966
  125SOL    HW1  393   1.038   0.787   1.062
  125SOL    HW2  394   0.993   0.671   0.957
  126SOL     OW  395   0.980   1.573   1.700
  126SOL    HW1  396   0.960   1.617   1.612
  126SOL    HW2  397   1.019   1.482   1.684
  127SOL     OW  398   1.859   1.518   1.605
  127SOL    HW1  399   1.873   1.545   1.510
  127SOL    HW2  400   1.942   1.540   1.658
  128SOL     OW  401   0.350   0.898   1.804
  128SOL    HW1  402   0.426   0.942   1.852
  128SOL    HW2  403   0.385   0.851   1.722
  129SOL     OW  404   1.540   0.274   0.125
  129SOL    HW1  405   1.479   0.199   0.148
  129SOL    HW2  406   1.562   0.326   0.208
  130SOL     OW  407   1.303   0.838   0.042
  130SOL    HW1  408   1.337   0.745   0.057
  130SOL    HW2  409   1.321   0.865  -0.053
  131SOL     OW  410   1.068   1.333   0.849
  131SOL    HW1  411   1.075   1.249   0.794
  131SOL    HW2  412   1.130   1.402   0.813
  132SOL     OW  413   0.319   0.810   0.949
  132SOL    HW1  414   0.412   0.846   0.954
  132SOL    HW2  415   0.313   0.725   1.001
  133SOL     OW  416   0.339   0.509   1.006
  133SOL    HW1  417   0.287   0.426   0.989
  133SOL    HW2  418   0.416   0.514   0.942
  134SOL     OW  419   1.138   0.380   1.678
  134SOL    HW1  420   1.093   0.443   1.742
  134SOL    HW2  421   1.231   0.411   1.661
  135SOL     OW  422   1.160   0.207   1.477
  135SOL    HW1  423   1.160   0.271   1.554
  135SOL    HW2  424   1.188   0.255   1.394
  136SOL     OW  425   0.008   1.326   0.200
  136SOL    HW1  426  -0.085   1.347   0.169
  136SOL    HW2  427   0.018   1.227   0.213
  137SOL     OW  428   0.088   1.801   0.927
  137SOL    HW1  429   0.046   1.715   0.900
  137SOL    HW2  430   0.182   1.804   0.893
  138SOL     OW  431   0.504   1.568   0.910
  138SOL    HW1  432   0.570   1.642   0.919
  138SOL    HW2  433   0.548   1.489   0.868
  139SOL     OW  434   1.002   0.796   1.238
  139SOL    HW1  435   1.043   0.764   1.324
  139SOL    HW2  436   0.906   0.769   1.235
  140SOL     OW  437   0.040   0.544   1.114
  140SOL    HW1  438   0.125   0.511   1.073
  140SOL    HW2  439   0.053   0.559   1.212
  141SOL     OW  440   0.189   0.520   1.722
  141SOL    HW1  441   0.248   0.480   1.652
  141SOL    HW2  442   0.131   0.591   1.681
  142SOL     OW  443   1.369   0.950   1.660
  142SOL    HW1  444   1.408   1.039   1.680
  142SOL    HW2  445   1.379   0.930   1.563
  143SOL     OW  446   0.815   0.572   0.325
  143SOL    HW1  447   0.822   0.483   0.279
  143SOL    HW2  448   0.721   0.606   0.317
  144SOL     OW  449   1.657   0.604   1.206
  144SOL    HW1  450   1.619   0.535   1.268
  144SOL    HW2  451   1.739   0.568   1.162
  145SOL     OW  452   0.252   1.564   1.744
  145SOL    HW1  453   0.222   1.621   1.820
  145SOL    HW2  454   0.245   1.467   1.770
  146SOL     OW  455   0.671   0.464   1.269
  146SOL    HW1  456   0.637   0.375   1.239
  146SOL    HW2  457   0.697   0.518   1.189
  147SOL     OW  458   0.930   1.678   1.465
  147SOL    HW1  459   0.906   1.660   1.370
  147SOL    HW2  460   0.960   1.772   1.475
  148SOL     OW  461   0.473   0.500   0.191
  148SOL    HW1  462   0.534   0.580   0.195
  148SOL    HW2  463   0.378   0.531   0.198
  149SOL     OW  464   0.159   1.137   1.466
  149SOL    HW1  465   0.181   1.076   1.542
  149SOL    HW2  466   0.169   1.088   1.380
  150SOL     OW  467   1.347   1.059   1.234
  150SOL    HW1  468   1.371   0.996   1.160
  150SOL    HW2  469   1.257   1.099   1.216
  151SOL     OW  470   1.302   0.855   0.309
  151SOL    HW1  471   1.216   0.824   0.351
  151SOL    HW2  472   1.298   0.841   0.210
  152SOL     OW  473   1.759   1.747   1.154
  152SOL    HW1  474   1.820   1.777   1.081
  152SOL    HW2  475   1.721   1.658   1.132
  153SOL     OW  476   1.252   1.731   1.128
  153SOL    HW1  477   1.336   1.736   1.074
  153SOL    HW2  478   1.229   1.635   1.146
  154SOL     OW  479   0.083   1.258   1.022
  154SOL    HW1  480   0.078   1.257   1.122
  154SOL    HW2  481   0.000   1.217   0.984
  155SOL     OW  482   0.688   1.662   1.716
  155SOL    HW1  483   0.632   1.743   1.725
  155SOL    HW2  484   0.740   1.666   1.630
  156SOL     OW  485   0.903   0.086   0.133
  156SOL    HW1  486   0.954   0.087   0.047
  156SOL    HW2  487   0.959   0.044   0.204
  157SOL     OW  488   1.726   0.135   0.523
  157SOL    HW1  489   1.799   0.118   0.456
  157SOL    HW2  490   1.695   0.048   0.561
  158SOL     OW  491   1.388   1.573   0.477
  158SOL    HW1  492   1.455   1.585   0.403
  158SOL    HW2  493   1.348   1.662   0.500
  159SOL     OW  494   0.130   1.794   1.851
  159SOL    HW1  495   0.089   1.720   1.904
  159SOL    HW2  496   0.194   1.845   1.909
  160SOL     OW  497   1.280   0.927   0.672
  160SOL    HW1  498   1.340   0.846   0.674
  160SOL    HW2  499   1.320   0.996   0.612
  161SOL     OW  500   0.830   1.273   1.422
  161SOL    HW1  501   0.825   1.306   1.517
  161SOL    HW2  502   0.744   1.292   1.376
  162SOL     OW  503   0.672   1.616   0.154
  162SOL    HW1  504   0.681   1.626   0.055
  162SOL    HW2  505   0.632   1.527   0.175
  163SOL     OW  506   1.650   1.720   1.394
  163SOL    HW1  507   1.703   1.730   1.310
  163SOL    HW2  508   1.623   1.810   1.428
  164SOL     OW  509   1.841   0.175   0.963
  164SOL    HW1  510   1.880   0.090   0.927
  164SOL    HW2  511   1.743   0.177   0.944
  165SOL     OW  512   0.263   0.326   0.720
  165SOL    HW1  513   0.184   0.377   0.686
  165SOL    HW2  514   0.254   0.311   0.818
  166SOL     OW  515   1.194   1.612   0.031
  166SOL    HW1  516   1.200   1.519   0.068
  166SOL    HW2  517   1.135   1.612  -0.049
  167SOL     OW  518   0.822   1.002   1.372
  167SOL    HW1  519   0.862   1.001   1.280
  167SOL    HW2  520   0.832   1.094   1.412
  168SOL     OW  521   0.916   0.910   0.291
  168SOL    HW1  522   0.979   0.948   0.223
  168SOL    HW2  523   0.956   0.827   0.330
  169SOL     OW  524   1.504   1.607   0.044
  169SOL    HW1  525   1.412   1.644   0.051
  169SOL    HW2  526   1.542   1.627  -0.046
  170SOL     OW  527   0.372   1.288   1.490
  170SOL    HW1  528   0.359   1.381   1.456
  170SOL    HW2  529   0.288   1.236   1.477
  171SOL     OW  530   1.614   1.292   1.289
  171SOL    HW1  531   1.674   1.295   1.369
  171SOL    HW2  532   1.539   1.356   1.302
  172SOL     OW  533   1.039   1.098   0.696
  172SOL    HW1  534   0.969   1.051   0.750
  172SOL    HW2  535   1.098   1.030   0.653
  173SOL     OW  536   1.014   0.236   0.971
  173SOL    HW1  537   1.006   0.200   0.878
  173SOL    HW2  538   1.012   0.160   1.036
  174SOL     OW  539   0.590   1.487   0.491
  174SOL    HW1  540   0.632   1.429   0.421
  174SOL    HW2  541   0.546   1.566   0.447
  175SOL     OW  542   1.709   0.385   1.381
  175SOL    HW1  543   1.782   0.454   1.385
  175SOL    HW2  544   1.737   0.310   1.322
  176SOL     OW  545   0.255   1.348   0.290
  176SOL    HW1  546   0.159   1.349   0.263
  176SOL    HW2  547   0.267   1.401   0.374
  177SOL     OW  548   0.105   1.013   1.726
  177SOL    HW1  549   0.028   0.980   1.780
  177SOL    HW2  550   0.190   0.983   1.768
  178SOL     OW  551   0.672   0.203   1.489
  178SOL    HW1  552   0.762   0.187   1.449
  178SOL    HW2  553   0.680   0.208   1.588
  179SOL     OW  554   0.075   0.345   0.033
  179SOL    HW1  555  -0.017   0.317   0.004
  179SOL    HW2  556   0.106   0.422  -0.023
  180SOL     OW  557   1.440   0.856   1.398
  180SOL    HW1  558   1.383   0.908   1.335
  180SOL    HW2  559   1.536   0.868   1.374
  181SOL     OW  560   0.072   0.166   0.318
  181SOL    HW1  561   0.055   0.249   0.264
  181SOL    HW2  562   0.162   0.129   0.296
  182SOL     OW  563   1.183   1.335   0.119
  182SOL    HW1  564   1.084   1.324   0.121
  182SOL    HW2  565   1.217   1.350   0.212
  183SOL     OW  566   0.613   0.842   1.431
  183SOL    HW1  567   0.669   0.923   1.414
  183SOL    HW2  568   0.672   0.762   1.434
  184SOL     OW  569   1.493   1.767   0.959
  184SOL    HW1  570   1.526   1.831   0.890
  184SOL    HW2  571   1.559   1.761   1.034
  185SOL     OW  572   0.716   0.565   1.708
  185SOL    HW1  573   0.735   0.630   1.782
  185SOL    HW2  574   0.776   0.485   1.717
  186SOL     OW  575   1.450   1.220   1.633
  186SOL    HW1  576   1.441   1.210   1.732
  186SOL    HW2  577   1.546   1.213   1.607
  187SOL     OW  578   0.390   1.741   1.560
  187SOL    HW1  579   0.299   1.782   1.558
  187SOL    HW2  580   0.383   1.647   1.592
  188SOL     OW  581   1.674   0.883   1.254
  188SOL    HW1  582   1.647   0.794   1.217
  188SOL    HW2  583   1.675   0.951   1.181
  189SOL     OW  584   1.225   0.325   0.449
  189SOL    HW1  585   1.290   0.251   0.438
  189SOL    HW2  586   1.245   0.375   0.533
  190SOL     OW  587   0.594   0.745   0.652
  190SOL    HW1  588   0.644   0.830   0.633
  190SOL    HW2  589   0.506   0.747   0.604
  191SOL     OW  590   1.777   0.342   1.642
  191SOL    HW1  591   1.760   0.373   1.548
  191SOL    HW2  592   1.693   0.305   1.680
  192SOL     OW  593   1.730   0.934   1.517
  192SOL    HW1  594   1.768   1.025   1.532
  192SOL    HW2  595   1.722   0.917   1.418
  193SOL     OW  596   0.859   1.374   0.016
  193SOL    HW1  597   0.813   1.389   0.104
  193SOL    HW2  598   0.903   1.459  -0.014
  194SOL     OW  599   0.661   1.790   0.953
  194SOL    HW1  600   0.615   1.878   0.940
  194SOL    HW2  601   0.760   1.802   0.946
  195SOL     OW  602   0.859   0.956   0.861
  195SOL    HW1  603   0.913   0.887   0.909
  195SOL    HW2  604   0.827   1.025   0.927
  196SOL     OW  605   1.083   0.984   0.087
  196SOL    HW1  606   1.060   1.037   0.005
  196SOL    HW2  607   1.164   0.928   0.068
  197SOL     OW  608   1.861   1.569   0.851
  197SOL    HW1  609   1.790   1.557   0.781
  197SOL    HW2  610   1.862   1.490   0.911
  198SOL     OW  611   0.221   1.314   1.844
  198SOL    HW1  612   0.156   1.241   1.823
  198SOL    HW2  613   0.225   1.328   1.942
  199SOL     OW  614   0.079   1.240   0.653
  199SOL    HW1  615   0.078   1.193   0.741
  199SOL    HW2  616   0.161   1.212   0.602
  200SOL     OW  617   0.672   1.391   1.624
  200SOL    HW1  618   0.594   1.341   1.662
  200SOL    HW2  619   0.669   1.486   1.655
  201SOL     OW  620   1.824   0.192   1.227
  201SOL    HW1  621   1.820   0.102   1.271
  201SOL    HW2  622   1.827   0.181   1.128
  202SOL     OW  623   0.428   0.424   0.520
  202SOL    HW1  624   0.458   0.352   0.458
  202SOL    HW2  625   0.389   0.384   0.603
  203SOL     OW  626   1.705   1.487   1.104
  203SOL    HW1  627   1.612   1.462   1.077
  203SOL    HW2  628   1.731   1.437   1.186
  204SOL     OW  629   0.317   0.547   1.280
  204SOL    HW1  630   0.355   0.488   1.352
  204SOL    HW2  631   0.357   0.521   1.192
  205SOL     OW  632   0.812   1.586   0.687
  205SOL    HW1  633   0.844   1.596   0.593
  205SOL    HW2  634   0.733   1.524   0.689
  206SOL     OW  635   1.424   0.214   1.112
  206SOL    HW1  636   1.476   0.149   1.167
  206SOL    HW2  637   1.375   0.277   1.173
  207SOL     OW  638   1.001   0.034   1.154
  207SOL    HW1  639   0.938  -0.038   1.123
  207SOL    HW2  640   1.094  -0.002   1.154
  208SOL     OW  641   0.770   1.330   0.301
  208SOL    HW1  642   0.724   1.243   0.318
  208SOL    HW2  643   0.861   1.327   0.342
  209SOL     OW  644   0.618   1.567   1.284
  209SOL    HW1  645   0.613   1.649   1.341
  209SOL    HW2  646   0.707   1.564   1.239
  210SOL     OW  647   1.352   0.052   0.168
  210SOL    HW1  648   1.387   0.011   0.084
  210SOL    HW2  649   1.262   0.014   0.188
  211SOL     OW  650   1.300   0.453   0.691
  211SOL    HW1  651   1.241   0.533   0.695
  211SOL    HW2  652   1.315   0.418   0.784
  212SOL     OW  653   1.593   0.221   0.882
  212SOL    HW1  654   1.509   0.220   0.936
  212SOL    HW2  655   1.595   0.304   0.826
  213SOL     OW  656   0.039   1.077   0.300
  213SOL    HW1  657   0.138   1.066   0.291
  213SOL    HW2  658  -0.001   0.991   0.332
  214SOL     OW  659   0.875   1.646   0.337
  214SOL    HW1  660   0.798   1.611   0.283
  214SOL    HW2  661   0.843   1.717   0.399
  215SOL     OW  662   0.230   0.628   1.975
  215SOL    HW1  663   0.137   0.626   2.012
  215SOL    HW2  664   0.231   0.589   1.883
  216SOL     OW  665   0.225   0.275   2.858
  216SOL    HW1  666   0.260   0.258   2.950
  216SOL    HW2  667   0.137   0.230   2.846
  217SOL     OW  668   0.019   0.368   2.509
  217SOL    HW1  669  -0.063   0.411   2.548
  217SOL    HW2  670  -0.009   0.295   2.446
  218SOL     OW  671   0.569   1.275   3.027
  218SOL    HW1  672   0.476   1.268   2.990
  218SOL    HW2  673   0.580   1.364   3.071
  219SOL     OW  674   1.555   1.511   2.565
  219SOL    HW1  675   1.498   1.495   2.646
  219SOL    HW2  676   1.496   1.521   2.485
  220SOL     OW  677   1.135   0.703   2.579
  220SOL    HW1  678   1.192   0.781   2.554
  220SOL    HW2  679   1.075   0.729   2.655
  221SOL     OW  680   1.755   0.607   2.093
  221SOL    HW1  681   1.743   0.594   1.994
  221SOL    HW2  682   1.725   0.526   2.142
  222SOL     OW  683   0.768   1.144   2.885
  222SOL    HW1  684   0.690   1.161   2.945
  222SOL    HW2  685   0.802   1.231   2.849
  223SOL     OW  686   0.850   0.798   3.685
  223SOL    HW1  687   0.846   0.874   3.750
  223SOL    HW2  688   0.872   0.834   3.594
  224SOL     OW  689   0.685   1.012   2.527
  224SOL    HW1  690   0.754   0.996   2.597
  224SOL    HW2  691   0.612   1.069   2.565
  225SOL     OW  692   0.686   1.161   3.665
  225SOL    HW1  693   0.746   1.240   3.679
  225SOL    HW2  694   0.600   1.192   3.624
  226SOL     OW  695   0.335   1.435   2.923
  226SOL    HW1  696   0.257   1.404   2.870
  226SOL    HW2  697   0.393   1.493   2.866
  227SOL     OW  698   1.460   1.505   3.201
  227SOL    HW1  699   1.484   1.599   3.227
  227SOL    HW2  700   1.444   1.451   3.283
  228SOL     OW  701   0.438   0.392   3.361
  228SOL    HW1  702   0.520   0.336   3.370
  228SOL    HW2  703   0.357   0.334   3.365
  229SOL     OW  704   1.603   0.447   2.599
  229SOL    HW1  705   1.529   0.493   2.549
  229SOL    HW2  706   1.654   0.515   2.652
  230SOL     OW  707   0.231   1.713   2.345
  230SOL    HW1  708   0.265   1.790   2.399
  230SOL    HW2  709   0.275   1.713   2.255
  231SOL     OW  710   1.127   1.341   3.552
  231SOL    HW1  711   1.174   1.341   3.640
  231SOL    HW2  712   1.079   1.254   3.541
  232SOL     OW  713   0.230   1.434   2.400
  232SOL    HW1  714   0.204   1.530   2.400
  232SOL    HW2  715   0.159   1.380   2.445
  233SOL     OW  716   0.240   1.091   2.748
  233SOL    HW1  717   0.254   1.007   2.800
  233SOL    HW2  718   0.185   1.155   2.803
  234SOL     OW  719   0.620   1.786   3.301
  234SOL    HW1  720   0.528   1.769   3.336
  234SOL    HW2  721   0.648   1.878   3.327
  235SOL     OW  722   0.606   0.964   1.985
  235SOL    HW1  723   0.613   1.048   1.931
  235SOL    HW2  724   0.652   0.977   2.073
  236SOL     OW  725   1.594   0.114   3.342
  236SOL    HW1  726   1.576   0.181   3.270
  236SOL    HW2  727   1.591   0.160   3.431
  237SOL     OW  728   0.122   0.643   2.425
  237SOL    HW1  729   0.077   0.555   2.442
  237SOL    HW2  730   0.121   0.697   2.509
  238SOL     OW  731   1.842   1.767   2.221
  238SOL    HW1  732   1.896   1.738   2.301
  238SOL    HW2  733   1.872   1.857   2.192
  239SOL     OW  734   0.027   1.596   1.979
  239SOL    HW1  735   0.008   1.500   2.000
  239SOL    HW2  736  -0.006   1.654   2.054
  240SOL     OW  737   1.689   0.922   2.474
  240SOL    HW1  738   1.784   0.893   2.482
  240SOL    HW2  739   1.681   0.987   2.399
  241SOL     OW  740   1.641   1.108   2.294
  241SOL    HW1  741   1.727   1.110   2.242
  241SOL    HW2  742   1.655   1.155   2.382
  242SOL     OW  743   0.113   0.737   3.459
  242SOL    HW1  744   0.201   0.724   3.504
  242SOL    HW2  745   0.100   0.834   3.437
  243SOL     OW  746   0.613   1.365   2.588
  243SOL    HW1  747   0.564   1.278   2.597
  243SOL    HW2  748   0.590   1.408   2.501
  244SOL     OW  749   1.293   1.228   3.285
  244SOL    HW1  750   1.330   1.155   3.227
  244SOL    HW2  751   1.345   1.233   3.370
  245SOL     OW  752   0.809   0.004   2.364
  245SOL    HW1  753   0.849   0.095   2.355
  245SOL    HW2  754   0.709   0.012   2.370
  246SOL     OW  755   0.197   0.976   3.126
  246SOL    HW1  756   0.286   0.931   3.112
  246SOL    HW2  757   0.124   0.911   3.107
  247SOL     OW  758   1.525   0.999   2.052
  247SOL    HW1  759   1.462   0.923   2.065
  247SOL    HW2  760   1.573   1.017   2.138
  248SOL     OW  761   1.187   1.792   3.478
  248SOL    HW1  762   1.211   1.852   3.402
  248SOL    HW2  763   1.194   1.697   3.448
  249SOL     OW  764   0.317   0.251   3.663
  249SOL    HW1  765   0.388   0.322   3.669
  249SOL    HW2  766   0.229   0.290   3.691
  250SOL     OW  767   1.466   1.417   2.815
  250SOL    HW1  768   1.407   1.423   2.895
  250SOL    HW2  769   1.451   1.329   2.769
  251SOL     OW  770   1.667   1.714   2.434
  251SOL    HW1  771   1.626   1.691   2.346
  251SOL    HW2  772   1.649   1.640   2.499
  252SOL     OW  773   0.598   0.729   2.132
  252SOL    HW1  774   0.622   0.798   2.064
  252SOL    HW2  775   0.520   0.762   2.186
  253SOL     OW  776   1.281   0.345   2.806
  253SOL    HW1  777   1.195   0.295   2.793
  253SOL    HW2  778   1.343   0.291   2.862
  254SOL     OW  779   1.576   1.662   2.169
  254SOL    HW1  780   1.665   1.708   2.172
  254SOL    HW2  781   1.555   1.638   2.074
  255SOL     OW  782   0.807   0.605   3.327
  255SOL    HW1  783   0.760   0.602   3.416
  255SOL    HW2  784   0.756   0.550   3.261
  256SOL     OW  785   1.394   0.469   3.536
  256SOL    HW1  786   1.374   0.512   3.624
  256SOL    HW2  787   1.472   0.407   3.545
  257SOL     OW  788   0.973   0.890   3.434
  257SOL    HW1  789   1.019   0.806   3.405
  257SOL    HW2  790   0.917   0.924   3.359
  258SOL     OW  791   0.991   0.410   3.104
  258SOL    HW1  792   0.914   0.444   3.158
  258SOL    HW2  793   0.957   0.359   3.025
  259SOL     OW  794   1.041   0.701   2.291
  259SOL    HW1  795   1.067   0.697   2.387
  259SOL    HW2  796   0.956   0.650   2.277
  260SOL     OW  797   0.076   0.811   2.651
  260SOL    HW1  798   0.175   0.799   2.660
  260SOL    HW2  799   0.052   0.906   2.672
  261SOL     OW  800   0.130   1.821   3.433
  261SOL    HW1  801   0.120   1.806   3.532
  261SOL    HW2  802   0.044   1.857   3.397
  262SOL     OW  803   0.865   0.348   2.057
  262SOL    HW1  804   0.924   0.411   2.008
  262SOL    HW2  805   0.884   0.254   2.028
  263SOL     OW  806   1.719   0.585   3.693
  263SOL    HW1  807   1.693   0.674   3.657
  263SOL    HW2  808   1.717   0.517   3.620
  264SOL     OW  809   1.362   1.144   2.407
  264SOL    HW1  810   1.445   1.115   2.359
  264SOL    HW2  811   1.313   1.211   2.351
  265SOL     OW  812   0.550   0.196   2.747
  265SOL    HW1  813   0.545   0.191   2.847
  265SOL    HW2  814   0.552   0.292   2.718
  266SOL     OW  815   1.008   1.456   2.339
  266SOL    HW1  816   0.962   1.528   2.287
  266SOL    HW2  817   1.004   1.476   2.437
  267SOL     OW  818   0.351   1.801   2.715
  267SOL    HW1  819   0.401   1.715   2.721
  267SOL    HW2  820   0.416   1.878   2.712
  268SOL     OW  821   1.795   1.066   2.735
  268SOL    HW1  822   1.733   1.051   2.659
  268SOL    HW2  823   1.743   1.077   2.820
  269SOL     OW  824   1.227   1.550   3.368
  269SOL    HW1  825   1.233   1.473   3.432
  269SOL    HW2  826   1.175   1.524   3.288
  270SOL     OW  827   0.321   0.943   2.104
  270SOL    HW1  828   0.403   0.982   2.062
  270SOL    HW2  829   0.294   0.861   2.055
  271SOL     OW  830   1.458   0.735   2.590
  271SOL    HW1  831   1.453   0.670   2.665
  271SOL    HW2  832   1.538   0.794   2.603
  272SOL     OW  833   0.461   1.266   3.589
  272SOL    HW1  834   0.411   1.267   3.503
  272SOL    HW2  835   0.398   1.248   3.665
  273SOL     OW  836   1.111   1.776   2.099
  273SOL    HW1  837   1.051   1.714   2.149
  273SOL    HW2  838   1.142   1.732   2.014
  274SOL     OW  839   0.202   0.285   3.360
  274SOL    HW1  840   0.122   0.345   3.347
  274SOL    HW2  841   0.192   0.236   3.446
  275SOL     OW  842   1.632   1.377   1.943
  275SOL    HW1  843   1.600   1.471   1.933
  275SOL    HW2  844   1.556   1.314   1.931
  276SOL     OW  845   0.464   1.743   2.185
  276SOL    HW1  846   0.497   1.782   2.271
  276SOL    HW2  847   0.540   1.736   2.120
  277SOL     OW  848   1.400   0.107   2.288
  277SOL    HW1  849   1.376   0.070   2.198
  277SOL    HW2  850   1.499   0.123   2.292
  278SOL     OW  851   0.249   1.785   3.103
  278SOL    HW1  852   0.306   1.720   3.153
  278SOL    HW2  853   0.233   1.752   3.010
  279SOL     OW  854   0.940   1.698   2.766
  279SOL    HW1  855   1.020   1.641   2.787
  279SOL    HW2  856   0.891   1.658   2.689
  280SOL     OW  857   0.382   0.700   2.342
  280SOL    HW1  858   0.427   0.610   2.339
  280SOL    HW2  859   0.288   0.689   2.375
  281SOL     OW  860   1.547   0.222   3.591
  281SOL    HW1  861   1.542   0.259   3.683
  281SOL    HW2  862   1.475   0.153   3.579
  282SOL     OW  863   0.614   0.122   1.979
  282SOL    HW1  864   0.712   0.100   1.986
  282SOL    HW2  865   0.583   0.105   1.886
  283SOL     OW  866   0.781   0.264   3.611
  283SOL    HW1  867   0.848   0.203   3.654
  283SOL    HW2  868   0.708   0.283   3.676
  284SOL     OW  869   0.888   1.514   3.057
  284SOL    HW1  870   0.865   1.489   2.963
  284SOL    HW2  871   0.949   1.445   3.096
  285SOL     OW  872   1.351   0.590   3.295
  285SOL    HW1  873   1.379   0.547   3.380
  285SOL    HW2  874   1.376   0.686   3.296
  286SOL     OW  875   0.803   1.402   2.786
  286SOL    HW1  876   0.893   1.416   2.744
  286SOL    HW2  877   0.732   1.404   2.715
  287SOL     OW  878   0.922   0.503   2.761
  287SOL    HW1  879   0.897   0.494   2.665
  287SOL    HW2  880   0.970   0.421   2.792
  288SOL     OW  881   0.539   0.064   2.374
  288SOL    HW1  882   0.458   0.065   2.432
  288SOL    HW2  883   0.542   0.147   2.319
  289SOL     OW  884   1.434   1.188   1.903
  289SOL    HW1  885   1.466   1.112   1.960
  289SOL    HW2  886   1.342   1.215   1.933
  290SOL     OW  887   0.297   0.035   2.033
  290SOL    HW1  888   0.346   0.119   2.012
  290SOL    HW2  889   0.359  -0.030   2.078
  291SOL     OW  890   0.935   0.236   2.342
  291SOL    HW1  891   0.887   0.277   2.264
  291SOL    HW2  892   1.034   0.234   2.323
  292SOL     OW  893   1.076   0.683   3.326
  292SOL    HW1  894   0.996   0.622   3.329
  292SOL    HW2  895   1.157   0.630   3.302
  293SOL     OW  896   1.227   1.570   2.655
  293SOL    HW1  897   1.248   1.644   2.590
  293SOL    HW2  898   1.295   1.570   2.728
  294SOL     OW  899   0.459   1.152   2.603
  294SOL    HW1  900   0.388   1.125   2.668
  294SOL    HW2  901   0.433   1.124   2.510
  295SOL     OW  902   1.271   1.797   2.453
  295SOL    HW1  903   1.315   1.861   2.389
  295SOL    HW2  904   1.221   1.849   2.523
  296SOL     OW  905   1.032   0.549   1.878
  296SOL    HW1  906   0.991   0.631   1.839
  296SOL    HW2  907   1.096   0.575   1.951
  297SOL     OW  908   0.078   0.556   3.248
  297SOL    HW1  909   0.170   0.555   3.207
  297SOL    HW2  910   0.072   0.630   3.315
  298SOL     OW  911   0.561   0.222   3.009
  298SOL    HW1  912   0.599   0.138   3.046
  298SOL    HW2  913   0.473   0.241   3.053
  299SOL     OW  914   0.866   0.454   2.504
  299SOL    HW1  915   0.834   0.526   2.442
  299SOL    HW2  916   0.890   0.373   2.451
  300SOL     OW  917   1.017   0.039   2.615
  300SOL    HW1  918   0.945   0.044   2.546
  300SOL    HW2  919   0.993  -0.030   2.684
  301SOL     OW  920   1.429   1.173   2.729
  301SOL    HW1  921   1.374   1.089   2.722
  301SOL    HW2  922   1.455   1.202   2.637
  302SOL     OW  923   1.466   0.590   2.854
  302SOL    HW1  924   1.436   0.495   2.861
  302SOL    HW2  925   1.539   0.606   2.920
  303SOL     OW  926   1.857   0.833   2.239
  303SOL    HW1  927   1.899   0.769   2.303
  303SOL    HW2  928   1.819   0.782   2.161
  304SOL     OW  929   0.488   1.385   2.036
  304SOL    HW1  930   0.401   1.370   2.083
  304SOL    HW2  931   0.471   1.411   1.941
  305SOL     OW  932   1.664   1.280   2.519
  305SOL    HW1  933   1.763   1.288   2.533
  305SOL    HW2  934   1.619   1.364   2.550
  306SOL     OW  935   1.390   0.575   1.940
  306SOL    HW1  936   1.336   0.554   2.021
  306SOL    HW2  937   1.481   0.534   1.949
  307SOL     OW  938   0.527   0.256   2.190
  307SOL    HW1  939   0.554   0.197   2.115
  307SOL    HW2  940   0.527   0.351   2.159
  308SOL     OW  941   1.754   1.223   3.450
  308SOL    HW1  942   1.845   1.184   3.437
  308SOL    HW2  943   1.762   1.319   3.474
  309SOL     OW  944   1.064   1.347   3.202
  309SOL    HW1  945   0.984   1.324   3.257
  309SOL    HW2  946   1.147   1.321   3.251
  310SOL     OW  947   1.592   1.629   3.487
  310SOL    HW1  948   1.619   1.663   3.397
  310SOL    HW2  949   1.671   1.591   3.533
  311SOL     OW  950   1.111   1.195   2.962
  311SOL    HW1  951   1.071   1.239   3.043
  311SOL    HW2  952   1.070   1.232   2.879
  312SOL     OW  953   1.638   1.099   2.941
  312SOL    HW1  954   1.643   1.180   3.000
  312SOL    HW2  955   1.552   1.101   2.890
  313SOL     OW  956   0.915   0.089   3.264
  313SOL    HW1  957   0.940   0.069   3.169
  313SOL    HW2  958   0.987   0.145   3.306
  314SOL     OW  959   0.980   1.116   3.581
  314SOL    HW1  960   0.881   1.122   3.591
  314SOL    HW2  961   1.003   1.036   3.525
  315SOL     OW  962   0.705   1.050   2.230
  315SOL    HW1  963   0.691   1.057   2.329
  315SOL    HW2  964   0.789   0.999   2.212
  316SOL     OW  965   0.410   0.813   3.113
  316SOL    HW1  966   0.496   0.825   3.163
  316SOL    HW2  967   0.368   0.726   3.140
  317SOL     OW  968   1.274   0.386   3.124
  317SOL    HW1  969   1.295   0.460   3.188
  317SOL    HW2  970   1.185   0.403   3.081
  318SOL     OW  971   0.064   1.564   3.193
  318SOL    HW1  972   0.018   1.646   3.159
  318SOL    HW2  973   0.162   1.583   3.202
  319SOL     OW  974   0.367   1.100   2.363
  319SOL    HW1  975   0.360   1.183   2.307
  319SOL    HW2  976   0.371   1.020   2.303
  320SOL     OW  977   0.566   0.537   2.727
  320SOL    HW1  978   0.578   0.603   2.653
  320SOL    HW2  979   0.612   0.571   2.810
  321SOL     OW  980   1.252   1.348   2.250
  321SOL    HW1  981   1.302   1.425   2.290
  321SOL    HW2  982   1.157   1.350   2.282
  322SOL     OW  983   1.272   1.445   3.004
  322SOL    HW1  984   1.319   1.458   3.091
  322SOL    HW2  985   1.206   1.371   3.013
  323SOL     OW  986   1.582   0.639   2.334
  323SOL    HW1  987   1.551   0.700   2.407
  323SOL    HW2  988   1.632   0.691   2.265
  324SOL     OW  989   0.354   1.510   3.191
  324SOL    HW1  990   0.333   1.466   3.104
  324SOL    HW2  991   0.451   1.536   3.194
  325SOL     OW  992   0.402   0.751   3.460
  325SOL    HW1  993   0.470   0.806   3.413
  325SOL    HW2  994   0.442   0.663   3.487
  326SOL     OW  995   1.587   0.779   3.532
  326SOL    HW1  996   1.495   0.817   3.527
  326SOL    HW2  997   1.647   0.826   3.467
  327SOL     OW  998   1.013   0.105   3.632
  327SOL    HW1  999   1.019   0.190   3.580
  327SOL    HW2 1000   1.045   0.029   3.575
  328SOL     OW 1001   0.504   0.050   3.602
  328SOL    HW1 1002   0.462  -0.007   3.532
  328SOL    HW2 1003   0.438   0.119   3.634
  329SOL     OW 1004   0.573   0.870   2.891
  329SOL    HW1 1005   0.617   0.959   2.882
  329SOL    HW2 1006   0.510   0.870   2.968
  330SOL     OW 1007   1.360   0.862   2.907
  330SOL    HW1 1008   1.285   0.862   2.841
  330SOL    HW2 1009   1.397   0.770   2.916
  331SOL     OW 1010   1.209   0.525   2.137
  331SOL    HW1 1011   1.222   0.441   2.191
  331SOL    HW2 1012   1.180   0.599   2.197
  332SOL     OW 1013   0.307   0.213   3.093
  332SOL    HW1 1014   0.284   0.250   3.183
  332SOL    HW2 1015   0.277   0.118   3.087
  333SOL     OW 1016   0.037   1.310   3.144
  333SOL    HW1 1017   0.090   1.261   3.212
  333SOL    HW2 1018   0.059   1.408   3.149
  334SOL     OW 1019   0.732   0.634   2.926
  334SOL    HW1 1020   0.791   0.608   2.850
  334SOL    HW2 1021   0.704   0.730   2.915
  335SOL     OW 1022   1.728   0.935   3.716
  335SOL    HW1 1023   1.682   0.928   3.627
  335SOL    HW2 1024   1.666   0.979   3.782
  336SOL     OW 1025   0.307   0.063   2.480
  336SOL    HW1 1026   0.296   0.157   2.513
  336SOL    HW2 1027   0.302   0.000   2.557
  337SOL     OW 1028   1.622   0.367   2.236
  337SOL    HW1 1029   1.624   0.291   2.300
  337SOL    HW2 1030   1.574   0.444   2.276
  338SOL     OW 1031   1.023   0.766   2.828
  338SOL    HW1 1032   1.038   0.787   2.924
  338SOL    HW2 1033   0.993   0.671   2.819
  339SOL     OW 1034   0.980   1.573   3.562
  339SOL    HW1 1035   0.960   1.617   3.474
  339SOL    HW2 1036   1.019   1.482   3.546
  340SOL     OW 1037   1.859   1.518   3.467
  340SOL    HW1 1038   1.873   1.545   3.372
  340SOL    HW2 1039   1.942   1.540   3.520
  341SOL     OW 1040   0.350   0.898   3.666
  341SOL    HW1 1041   0.426   0.942   3.714
  341SOL    HW2 1042   0.385   0.851   3.584
  342SOL     OW 1043   1.540   0.274   1.987
  342SOL    HW1 1044   1.479   0.199   2.010
  342SOL    HW2 1045   1.562   0.326   2.070
  343SOL     OW 1046   1.303   0.838   1.904
  343SOL    HW1 1047   1.337   0.745   1.919
  343SOL    HW2 1048   1.321   0.865   1.809
  344SOL     OW 1049   1.068   1.333   2.711
  344SOL    HW1 1050   1.075   1.249   2.656
  344SOL    HW2 1051   1.130   1.402   2.675
  345SOL     OW 1052   0.319   0.810   2.811
  345SOL    HW1 1053   0.412   0.846   2.816
  345SOL    HW2 1054   0.313   0.725   2.863
  346SOL     OW 1055   0.339   0.509   2.868
  346SOL    HW1 1056   0.287   0.426   2.851
  346SOL    HW2 1057   0.416   0.514   2.804
  347SOL     OW 1058   1.138   0.380   3.540
  347SOL    HW1 1059   1.093   0.443   3.604
  347SOL    HW2 1060   1.231   0.411   3.523
  348SOL     OW 1061   1.160   0.207   3.339
  348SOL    HW1 1062   1.160   0.271   3.416
  348SOL    HW2 1063   1.188   0.255   3.256
  349SOL     OW 1064   0.008   1.326   2.062
  349SOL    HW1 1065  -0.085   1.347   2.031
  349SOL    HW2 1066   0.018   1.227   2.075
  350SOL     OW 1067   0.088   1.801   2.789
  350SOL    HW1 1068   0.046   1.715   2.762
  350SOL    HW2 1069   0.182   1.804   2.755
  351SOL     OW 1070   0.504   1.568   2.772
  351SOL    HW1 1071   0.570   1.642   2.781
  351SOL    HW2 1072   0.548   1.489   2.730
  352SOL     OW 1073   1.002   0.796   3.100
  352SOL    HW1 1074   1.043   0.764   3.186
  352SOL    HW2 1075   0.906   0.769   3.097
  353SOL     OW 1076   0.040   0.544   2.976
  353SOL    HW1 1077   0.125   0.511   2.935
  353SOL    HW2 1078   0.053   0.559   3.074
  354SOL     OW 1079   0.189   0.520   3.584
  354SOL    HW1 1080   0.248   0.480   3.514
  354SOL    HW2 1081   0.131   0.591   3.543
  355SOL     OW 1082   1.369   0.950   3.522
  355SOL    HW1 1083   1.408   1.039   3.542
  355SOL    HW2 1084   1.379   0.930   3.425
  356SOL     OW 1085   0.815   0.572   2.187
  356SOL    HW1 1086   0.822   0.483   2.141
  356SOL    HW2 1087   0.721   0.606   2.179
  357SOL     OW 1088   1.657   0.604   3.068
  357SOL    HW1 1089   1.619   0.535   3.130
  357SOL    HW2 1090   1.739   0.568   3.024
  358SOL     OW 1091   0.252   1.564   3.606
  358SOL    HW1 1092   0.222   1.621   3.682
  358SOL    HW2 1093   0.245   1.467   3.632
  359SOL     OW 1094   0.671   0.464   3.131
  359SOL    HW1 1095   0.637   0.375   3.101
  359SOL    HW2 1096   0.697   0.518   3.051
  360SOL     OW 1097   0.930   1.678   3.327
  360SOL    HW1 1098   0.906   1.660   3.232
  360SOL    HW2 1099   0.960   1.772   3.337
  361SOL     OW 1100   0.473   0.500   2.053
  361SOL    HW1 1101   0.534   0.580   2.057
  361SOL    HW2 1102   0.378   0.531   2.060
  362SOL     OW 1103   0.159   1.137   3.328
  362SOL    HW1 1104   0.181   1.076   3.404
  362SOL    HW2 1105   0.169   1.088   3.242
  363SOL     OW 1106   1.347   1.059   3.096
  363SOL    HW1 1107   1.371   0.996   3.022
  363SOL    HW2 1108   1.257   1.099   3.078
  364SOL     OW 1109   1.302   0.855   2.171
  364SOL    HW1 1110   1.216   0.824   2.213
  364SOL    HW2 1111   1.298   0.841   2.072
  365SOL     OW 1112   1.759   1.747   3.016
  365SOL    HW1 1113   1.820   1.777   2.943
  365SOL    HW2 1114   1.721   1.658   2.994
  366SOL     OW 1115   1.252   1.731   2.990
  366SOL    HW1 1116   1.336   1.736   2.936
  366SOL    HW2 1117   1.229   1.635   3.008
  367SOL     OW 1118   0.083   1.258   2.884
  367SOL    HW1 1119   0.078   1.257   2.984
  367SOL    HW2 1120   0.000   1.217   2.846
  368SOL     OW 1121   0.688   1.662   3.578
  368SOL    HW1 1122   0.632   1.743   3.587
  368SOL    HW2 1123   0.740   1.666   3.492
  369SOL     OW 1124   1.726   0.135   2.385
  369SOL    HW1 1125   1.799   0.118   2.318
  369SOL    HW2 1126   1.695   0.048   2.423
  370SOL     OW 1127   1.388   1.573   2.339
  370SOL    HW1 1128   1.455   1.585   2.265
  370SOL    HW2 1129   1.348   1.662   2.362
  371SOL     OW 1130   0.130   1.794   3.713
  371SOL    HW1 1131   0.089   1.720   3.766
  371SOL    HW2 1132   0.194   1.845   3.771
  372SOL     OW 1133   1.280   0.927   2.534
  372SOL    HW1 1134   1.340   0.846   2.536
  372SOL    HW2 1135   1.320   0.996   2.474
  373SOL     OW 1136   0.830   1.273   3.284
  373SOL    HW1 1137   0.825   1.306   3.379
  373SOL    HW2 1138   0.744   1.292   3.238
  374SOL     OW 1139   0.672   1.616   2.016
  374SOL    HW1 1140   0.681   1.626   1.917
  374SOL    HW2 1141   0.632   1.527   2.037
  375SOL     OW 1142   1.650   1.720   3.256
  375SOL    HW1 1143   1.703   1.730   3.172
  375SOL    HW2 1144   1.623   1.810   3.290
  376SOL     OW 1145   1.841   0.175   2.825
  376SOL    HW1 1146   1.880   0.090   2.789
  376SOL    HW2 1147   1.743   0.177   2.806
  377SOL     OW 1148   0.263   0.326   2.582
  377SOL    HW1 1149   0.184   0.377   2.548
  377SOL    HW2 1150   0.254   0.311   2.680
  378SOL     OW 1151   1.194   1.612   1.893
  378SOL    HW1 1152   1.200   1.519   1.930
  378SOL    HW2 1153   1.135   1.612   1.813
  379SOL     OW 1154   0.822   1.002   3.234
  379SOL    HW1 1155   0.862   1.001   3.142
  379SOL    HW2 1156   0.832   1.094   3.274
  380SOL     OW 1157   0.916   0.910   2.153
  380SOL    HW1 1158   0.979   0.948   2.085
  380SOL    HW2 1159   0.956   0.827   2.192
  381SOL     OW 1160   1.504   1.607   1.906
  381SOL    HW1 1161   1.412   1.644   1.913
  381SOL    HW2 1162   1.542   1.627   1.816
  382SOL     OW 1163   0.372   1.288   3.352
  382SOL    HW1 1164   0.359   1.381   3.318
  382SOL    HW2 1165   0.288   1.236   3.339
  383SOL     OW 1166   1.614   1.292   3.151
  383SOL    HW1 1167   1.674   1.295   3.231
  383SOL    HW2 1168   1.539   1.356   3.164
  384SOL     OW 1169   1.039   1.098   2.558
  384SOL    HW1 1170   0.969   1.051   2.612
  384SOL    HW2 1171   1.098   1.030   2.515
  385SOL     OW 1172   1.014   0.236   2.833
  385SOL    HW1 1173   1.006   0.200   2.740
  385SOL    HW2 1174   1.012   0.160   2.898
  386SOL     OW 1175   0.590   1.487   2.353
  386SOL    HW1 1176   0.632   1.429   2.283
  386SOL    HW2 1177   0.546   1.566   2.309
  387SOL     OW 1178   1.709   0.385   3.243
  387SOL    HW1 1179   1.782   0.454   3.247
  387SOL    HW2 1180   1.737   0.310   3.184
  388SOL     OW 1181   0.255   1.348   2.152
  388SOL    HW1 1182   0.159   1.349   2.125
  388SOL    HW2 1183   0.267   1.401   2.236
  389SOL     OW 1184   0.105   1.013   3.588
  389SOL    HW1 1185   0.028   0.980   3.642
  389SOL    HW2 1186   0.190   0.983   3.630
  390SOL     OW 1187   0.672   0.203   3.351
  390SOL    HW1 1188   0.762   0.187   3.311
  390SOL    HW2 1189   0.680   0.208   3.450
  391SOL     OW 1190   0.075   0.345   1.895
  391SOL    HW1 1191  -0.017   0.317   1.866
  391SOL    HW2 1192   0.106   0.422   1.839
  392SOL     OW 1193   1.440   0.856   3.260
  392SOL    HW1 1194   1.383   0.908   3.197
  392SOL    HW2 1195   1.536   0.868   3.236
  393SOL     OW 1196   0.072   0.166   2.180
  393SOL    HW1 1197   0.055   0.249   2.126
  393SOL    HW2 1198   0.162   0.129   2.158
  394SOL     OW 1199   1.183   1.335   1.981
  394SOL    HW1 1200   1.084   1.324   1.983
  394SOL    HW2 1201   1.217   1.350   2.074
  395SOL     OW 1202   0.613   0.842   3.293
  395SOL    HW1 1203   0.669   0.923   3.276
  395SOL    HW2 1204   0.672   0.762   3.296
  396SOL     OW 1205   1.493   1.767   2.821
  396SOL    HW1 1206   1.526   1.831   2.752
  396SOL    HW2 1207   1.559   1.761   2.896
  397SOL     OW 1208   0.716   0.565   3.570
  397SOL    HW1 1209   0.735   0.630   3.644
  397SOL    HW2 1210   0.776   0.485   3.579
  398SOL     OW 1211   1.450   1.220   3.495
  398SOL    HW1 1212   1.441   1.210   3.594
  398SOL    HW2 1213   1.546   1.213   3.469
  399SOL     OW 1214   0.390   1.741   3.422
  399SOL    HW1 1215   0.299   1.782   3.420
  399SOL    HW2 1216   0.383   1.647   3.454
  400SOL     OW 1217   1.674   0.883   3.116
  400SOL    HW1 1218   1.647   0.794   3.079
  400SOL    HW2 1219   1.675   0.951   3.043
  401SOL     OW 1220   1.225   0.325   2.311
  401SOL    HW1 1221   1.290   0.251   2.300
  401SOL    HW2 1222   1.245   0.375   2.395
  402SOL     OW 1223   0.594   0.745   2.514
  402SOL    HW1 1224   0.644   0.830   2.495
  402SOL    HW2 1225   0.506   0.747   2.466
  403SOL     OW 1226   1.777   0.342   3.504
  403SOL    HW1 1227   1.760   0.373   3.410
  403SOL    HW2 1228   1.693   0.305   3.542
  404SOL     OW 1229   1.730   0.934   3.379
  404SOL    HW1 1230   1.768   1.025   3.394
  404SOL    HW2 1231   1.722   0.917   3.280
  405SOL     OW 1232   0.859   1.374   1.878
  405SOL    HW1 1233   0.813   1.389   1.966
  405SOL    HW2 1234   0.903   1.459   1.848
  406SOL     OW 1235   0.661   1.790   2.815
  406SOL    HW1 1236   0.615   1.878   2.802
  406SOL    HW2 1237   0.760   1.802   2.808
  407SOL     OW 1238   0.859   0.956   2.723
  407SOL    HW1 1239   0.913   0.887   2.771
  407SOL    HW2 1240   0.827   1.025   2.789
  408SOL     OW 1241   1.083   0.984   1.949
  408SOL    HW1 1242   1.060   1.037   1.867
  408SOL    HW2 1243   1.164   0.928   1.930
  409SOL     OW 1244   1.861   1.569   2.713
  409SOL    HW1 1245   1.790   1.557   2.643
  409SOL    HW2 1246   1.862   1.490   2.773
  410SOL     OW 1247   0.221   1.314   3.706
  410SOL    HW1 1248   0.156   1.241   3.685
  410SOL    HW2 1249   0.225   1.328   3.804
  411SOL     OW 1250   0.079   1.240   2.515
  411SOL    HW1 1251   0.078   1.193   2.603
  411SOL    HW2 1252   0.161   1.212   2.464
  412SOL     OW 1253   0.672   1.391   3.486
  412SOL    HW1 1254   0.594   1.341   3.524
  412SOL    HW2 1255   0.669   1.486   3.517
  413SOL     OW 1256   1.824   0.192   3.089
  413SOL    HW1 1257   1.820   0.102   3.133
  413SOL    HW2 1258   1.827   0.181   2.990
  414SOL     OW 1259   0.428   0.424   2.382
  414SOL    HW1 1260   0.458   0.352   2.320
  414SOL    HW2 1261   0.389   0.384   2.465
  415SOL     OW 1262   1.705   1.487   2.966
  415SOL    HW1 1263   1.612   1.462   2.939
  415SOL    HW2 1264   1.731   1.437   3.048
  416SOL     OW 1265   0.317   0.547   3.142
  416SOL    HW1 1266   0.355   0.488   3.214
  416SOL    HW2 1267   0.357   0.521   3.054
  417SOL     OW 1268   0.812   1.586   2.549
  417SOL    HW1 1269   0.844   1.596   2.455
  417SOL    HW2 1270   0.733   1.524   2.551
  418SOL     OW 1271   1.424   0.214   2.974
  418SOL    HW1 1272   1.476   0.149   3.029
  418SOL    HW2 1273   1.375   0.277   3.035
  419SOL     OW 1274   1.001   0.034   3.016
  419SOL    HW1 1275   0.938  -0.038   2.985
  419SOL    HW2 1276   1.094  -0.002   3.016
  420SOL     OW 1277   0.770   1.330   2.163
  420SOL    HW1 1278   0.724   1.243   2.180
  420SOL    HW2 1279   0.861   1.327   2.204
  421SOL     OW 1280   0.618   1.567   3.146
  421SOL    HW1 1281   0.613   1.649   3.203
  421SOL    HW2 1282   0.707   1.564   3.101
  422SOL     OW 1283   1.352   0.052   2.030
  422SOL    HW1 1284   1.387   0.011   1.946
  422SOL    HW2 1285   1.262   0.014   2.050
  423SOL     OW 1286   1.300   0.453   2.553
  423SOL    HW1 1287   1.241   0.533   2.557
  423SOL    HW2 1288   1.315   0.418   2.646
  424SOL     OW 1289   1.593   0.221   2.744
  424SOL    HW1 1290   1.509   0.220   2.798
  424SOL    HW2 1291   1.595   0.304   2.688
  425SOL     OW 1292   0.039   1.077   2.162
  425SOL    HW1 1293   0.138   1.066   2.153
  425SOL    HW2 1294  -0.001   0.991   2.194
  426SOL     OW 1295   0.875   1.646   2.199
  426SOL    HW1 1296   0.798   1.611   2.145
  426SOL    HW2 1297   0.843   1.717   2.261
  427SOL     OW 1298   0.230   0.628   3.837
  427SOL    HW1 1299   0.137   0.626   3.874
  427SOL    HW2 1300   0.231   0.589   3.745
  428SOL     OW 1301   0.019   0.368   4.371
  428SOL    HW1 1302  -0.063   0.411   4.410
  428SOL    HW2 1303  -0.009   0.295   4.308
  429SOL     OW 1304   1.555   1.511   4.427
  429SOL    HW1 1305   1.498   1.495   4.508
  429SOL    HW2 1306   1.496   1.521   4.347
  430SOL     OW 1307   1.135   0.703   4.441
  430SOL    HW1 1308   1.192   0.781   4.416
  430SOL    HW2 1309   1.075   0.729   4.517
  431SOL     OW 1310   1.755   0.607   3.955
  431SOL    HW1 1311   1.743   0.594   3.856
  431SOL    HW2 1312   1.725   0.526   4.004
  432SOL     OW 1313   0.685   1.012   4.389
  432SOL    HW1 1314   0.754   0.996   4.459
  432SOL    HW2 1315   0.612   1.069   4.427
  433SOL     OW 1316   1.603   0.447   4.461
  433SOL    HW1 1317   1.529   0.493   4.411
  433SOL    HW2 1318   1.654   0.515   4.514
  434SOL     OW 1319   0.231   1.713   4.207
  434SOL    HW1 1320   0.265   1.790   4.261
  434SOL    HW2 1321   0.275   1.713   4.117
  435SOL     OW 1322   0.230   1.434   4.262
  435SOL    HW1 1323   0.204   1.530   4.262
  435SOL    HW2 1324   0.159   1.380   4.307
  436SOL     OW 1325   0.240   1.091   4.610
  436SOL    HW1 1326   0.254   1.007   4.662
  436SOL    HW2 1327   0.185   1.155   4.665
  437SOL     OW 1328   0.606   0.964   3.847
  437SOL    HW1 1329   0.613   1.048   3.793
  437SOL    HW2 1330   0.652   0.977   3.935
  438SOL     OW 1331   0.122   0.643   4.287
  438SOL    HW1 1332   0.077   0.555   4.304
  438SOL    HW2 1333   0.121   0.697   4.371
  439SOL     OW 1334   1.842   1.767   4.083
  439SOL    HW1 1335   1.896   1.738   4.163
  439SOL    HW2 1336   1.872   1.857   4.054
  440SOL     OW 1337   0.027   1.596   3.841
  440SOL    HW1 1338   0.008   1.500   3.862
  440SOL    HW2 1339  -0.006   1.654   3.916
  441SOL     OW 1340   1.689   0.922   4.336
  441SOL    HW1 1341   1.784   0.893   4.344
  441SOL    HW2 1342   1.681   0.987   4.261
  442SOL     OW 1343   1.641   1.108   4.156
  442SOL    HW1 1344   1.727   1.110   4.104
  442SOL    HW2 1345   1.655   1.155   4.244
  443SOL     OW 1346   0.613   1.365   4.450
  443SOL    HW1 1347   0.564   1.278   4.459
  443SOL    HW2 1348   0.590   1.408   4.363
  444SOL     OW 1349   0.809   0.004   4.226
  444SOL    HW1 1350   0.849   0.095   4.217
  444SOL    HW2 1351   0.709   0.012   4.232
  445SOL     OW 1352   1.525   0.999   3.914
  445SOL    HW1 1353   1.462   0.923   3.927
  445SOL    HW2 1354   1.573   1.017   4.000
  446SOL     OW 1355   1.466   1.417   4.677
  446SOL    HW1 1356   1.407   1.423   4.757
  446SOL    HW2 1357   1.451   1.329   4.631
  447SOL     OW 1358   1.667   1.714   4.296
  447SOL    HW1 1359   1.626   1.691   4.208
  447SOL    HW2 1360   1.649   1.640   4.361
  448SOL     OW 1361   0.598   0.729   3.994
  448SOL    HW1 1362   0.622   0.798   3.926
  448SOL    HW2 1363   0.520   0.762   4.048
  449SOL     OW 1364   1.281   0.345   4.668
  449SOL    HW1 1365   1.195   0.295   4.655
  449SOL    HW2 1366   1.343   0.291   4.724
  450SOL     OW 1367   1.576   1.662   4.031
  450SOL    HW1 1368   1.665   1.708   4.034
  450SOL    HW2 1369   1.555   1.638   3.936
  451SOL     OW 1370   1.041   0.701   4.153
  451SOL    HW1 1371   1.067   0.697   4.249
  451SOL    HW2 1372   0.956   0.650   4.139
  452SOL     OW 1373   0.076   0.811   4.513
  452SOL    HW1 1374   0.175   0.799   4.522
  452SOL    HW2 1375   0.052   0.906   4.534
  453SOL     OW 1376   0.865   0.348   3.919
  453SOL    HW1 1377   0.924   0.411   3.870
  453SOL    HW2 1378   0.884   0.254   3.890
  454SOL     OW 1379   1.362   1.144   4.269
  454SOL    HW1 1380   1.445   1.115   4.221
  454SOL    HW2 1381   1.313   1.211   4.213
  455SOL     OW 1382   1.008   1.456   4.201
  455SOL    HW1 1383   0.962   1.528   4.149
  455SOL    HW2 1384   1.004   1.476   4.299
  456SOL     OW 1385   0.351   1.801   4.577
  456SOL    HW1 1386   0.401   1.715   4.583
  456SOL    HW2 1387   0.416   1.878   4.574
  457SOL     OW 1388   1.795   1.066   4.597
  457SOL    HW1 1389   1.733   1.051   4.521
  457SOL    HW2 1390   1.743   1.077   4.682
  458SOL     OW 1391   0.321   0.943   3.966
  458SOL    HW1 1392   0.403   0.982   3.924
  458SOL    HW2 1393   0.294   0.861   3.917
  459SOL     OW 1394   1.458   0.735   4.452
  459SOL    HW1 1395   1.453   0.670   4.527
  459SOL    HW2 1396   1.538   0.794   4.465
  460SOL     OW 1397   1.111   1.776   3.961
  460SOL    HW1 1398   1.051   1.714   4.011
  460SOL    HW2 1399   1.142   1.732   3.876
  461SOL     OW 1400   1.632   1.377   3.805
  461SOL    HW1 1401   1.600   1.471   3.795
  461SOL    HW2 1402   1.556   1.314   3.793
  462SOL     OW 1403   0.464   1.743   4.047
  462SOL    HW1 1404   0.497   1.782   4.133
  462SOL    HW2 1405   0.540   1.736   3.982
  463SOL     OW 1406   1.400   0.107   4.150
  463SOL    HW1 1407   1.376   0.070   4.060
  463SOL    HW2 1408   1.499   0.123   4.154
  464SOL     OW 1409   0.382   0.700   4.204
  464SOL    HW1 1410   0.427   0.610   4.201
  464SOL    HW2 1411   0.288   0.689   4.237
  465SOL     OW 1412   0.614   0.122   3.841
  465SOL    HW1 1413   0.712   0.100   3.848
  465SOL    HW2 1414   0.583   0.105   3.748
  466SOL     OW 1415   0.539   0.064   4.236
  466SOL    HW1 1416   0.458   0.065   4.294
  466SOL    HW2 1417   0.542   0.147   4.181
  467SOL     OW 1418   1.434   1.188   3.765
  467SOL    HW1 1419   1.466   1.112   3.822
  467SOL    HW2 1420   1.342   1.215   3.795
  468SOL     OW 1421   0.297   0.035   3.895
  468SOL    HW1 1422   0.346   0.119   3.874
  468SOL    HW2 1423   0.359  -0.030   3.940
  469SOL     OW 1424   0.935   0.236   4.204
  469SOL    HW1 1425   0.887   0.277   4.126
  469SOL    HW2 1426   1.034   0.234   4.185
  470SOL     OW 1427   1.227   1.570   4.517
  470SOL    HW1 1428   1.248   1.644   4.452
  470SOL    HW2 1429   1.295   1.570   4.590
  471SOL     OW 1430   0.459   1.152   4.465
  471SOL    HW1 1431   0.388   1.125   4.530
  471SOL    HW2 1432   0.433   1.124   4.372
  472SOL     OW 1433   1.271   1.797   4.315
  472SOL    HW1 1434   1.315   1.861   4.251
  472SOL    HW2 1435   1.221   1.849   4.385
  473SOL     OW 1436   1.032   0.549   3.740
  473SOL    HW1 1437   0.991   0.631   3.701
  473SOL    HW2 1438   1.096   0.575   3.813
  474SOL     OW 1439   0.866   0.454   4.366
  474SOL    HW1 1440   0.834   0.526   4.304
  474SOL    HW2 1441   0.890   0.373   4.313
  475SOL     OW 1442   1.017   0.039   4.477
  475SOL    HW1 1443   0.945   0.044   4.408
  475SOL    HW2 1444   0.993  -0.030   4.546
  476SOL     OW 1445   1.857   0.833   4.101
  476SOL    HW1 1446   1.899   0.769   4.165
  476SOL    HW2 1447   1.819   0.782   4.023
  477SOL     OW 1448   0.488   1.385   3.898
  477SOL    HW1 1449   0.401   1.370   3.945
  477SOL    HW2 1450   0.471   1.411   3.803
  478SOL     OW 1451   1.664   1.280   4.381
  478SOL    HW1 1452   1.763   1.288   4.395
  478SOL    HW2 1453   1.619   1.364   4.412
  479SOL     OW 1454   1.390   0.575   3.802
  479SOL    HW1 1455   1.336   0.554   3.883
  479SOL    HW2 1456   1.481   0.534   3.811
  480SOL     OW 1457   0.527   0.256   4.052
  480SOL    HW1 1458   0.554   0.197   3.977
  480SOL    HW2 1459   0.527   0.351   4.021
  481SOL     OW 1460   0.705   1.050   4.092
  481SOL    HW1 1461   0.691   1.057   4.191
  481SOL    HW2 1462   0.789   0.999   4.074
  482SOL     OW 1463   0.367   1.100   4.225
  482SOL    HW1 1464   0.360   1.183   4.169
  482SOL    HW2 1465   0.371   1.020   4.165
  483SOL     OW 1466   0.566   0.537   4.589
  483SOL    HW1 1467   0.578   0.603   4.515
  483SOL    HW2 1468   0.612   0.571   4.672
  484SOL     OW 1469   1.252   1.348   4.112
  484SOL    HW1 1470   1.302   1.425   4.152
  484SOL    HW2 1471   1.157   1.350   4.144
  485SOL     OW 1472   1.582   0.639   4.196
  485SOL    HW1 1473   1.551   0.700   4.269
  485SOL    HW2 1474   1.632   0.691   4.127
  486SOL     OW 1475   1.209   0.525   3.999
  486SOL    HW1 1476   1.222   0.441   4.053
  486SOL    HW2 1477   1.180   0.599   4.059
  487SOL     OW 1478   0.732   0.634   4.788
  487SOL    HW1 1479   0.791   0.608   4.712
  487SOL    HW2 1480   0.704   0.730   4.777
  488SOL     OW 1481   0.307   0.063   4.342
  488SOL    HW1 1482   0.296   0.157   4.375
  488SOL    HW2 1483   0.302   0.000   4.419
  489SOL     OW 1484   1.622   0.367   4.098
  489SOL    HW1 1485   1.624   0.291   4.162
  489SOL    HW2 1486   1.574   0.444   4.138
  490SOL     OW 1487   1.540   0.274   3.849
  490SOL    HW1 1488   1.479   0.199   3.872
  490SOL    HW2 1489   1.562   0.326   3.932
  491SOL     OW 1490   1.303   0.838   3.766
  491SOL    HW1 1491   1.337   0.745   3.781
  491SOL    HW2 1492   1.321   0.865   3.671
  492SOL     OW 1493   1.068   1.333   4.573
  492SOL    HW1 1494   1.075   1.249   4.518
  492SOL    HW2 1495   1.130   1.402   4.537
  493SOL     OW 1496   0.008   1.326   3.924
  493SOL    HW1 1497  -0.085   1.347   3.893
  493SOL    HW2 1498   0.018   1.227   3.937
  494SOL     OW 1499   0.088   1.801   4.651
  494SOL    HW1 1500   0.046   1.715   4.624
  494SOL    HW2 1501   0.182   1.804   4.617
  495SOL     OW 1502   0.504   1.568   4.634
  495SOL    HW1 1503   0.570   1.642   4.643
  495SOL    HW2 1504   0.548   1.489   4.592
  496SOL     OW 1505   0.815   0.572   4.049
  496SOL    HW1 1506   0.822   0.483   4.003
  496SOL    HW2 1507   0.721   0.606   4.041
  497SOL     OW 1508   0.473   0.500   3.915
  497SOL    HW1 1509   0.534   0.580   3.919
  497SOL    HW2 1510   0.378   0.531   3.922
  498SOL     OW 1511   1.302   0.855   4.033
  498SOL    HW1 1512   1.216   0.824   4.075
  498SOL    HW2 1513   1.298   0.841   3.934
  499SOL     OW 1514   1.759   1.747   4.878
  499SOL    HW1 1515   1.820   1.777   4.805
  499SOL    HW2 1516   1.721   1.658   4.856
  500SOL     OW 1517   1.726   0.135   4.247
  500SOL    HW1 1518   1.799   0.118   4.180
  500SOL    HW2 1519   1.695   0.048   4.285
  501SOL     OW 1520   1.388   1.573   4.201
  501SOL    HW1 1521   1.455   1.585   4.127
  501SOL    HW2 1522   1.348   1.662   4.224
  502SOL     OW 1523   1.280   0.927   4.396
  502SOL    HW1 1524   1.340   0.846   4.398
  502SOL    HW2 1525   1.320   0.996   4.336
  503SOL     OW 1526   0.672   1.616   3.878
  503SOL    HW1 1527   0.681   1.626   3.779
  503SOL    HW2 1528   0.632   1.527   3.899
  504SOL     OW 1529   1.841   0.175   4.687
  504SOL    HW1 1530   1.880   0.090   4.651
  504SOL    HW2 1531   1.743   0.177   4.668
  505SOL     OW 1532   0.263   0.326   4.444
  505SOL    HW1 1533   0.184   0.377   4.410
  505SOL    HW2 1534   0.254   0.311   4.542
  506SOL     OW 1535   1.194   1.612   3.755
  506SOL    HW1 1536   1.200   1.519   3.792
  506SOL    HW2 1537   1.135   1.612   3.675
  507SOL     OW 1538   0.916   0.910   4.015
  507SOL    HW1 1539   0.979   0.948   3.947
  507SOL    HW2 1540   0.956   0.827   4.054
  508SOL     OW 1541   1.504   1.607   3.768
  508SOL    HW1 1542   1.412   1.644   3.775
  508SOL    HW2 1543   1.542   1.627   3.678
  509SOL     OW 1544   1.039   1.098   4.420
  509SOL    HW1 1545   0.969   1.051   4.474
  509SOL    HW2 1546   1.098   1.030   4.377
  510SOL     OW 1547   0.590   1.487   4.215
  510SOL    HW1 1548   0.632   1.429   4.145
  510SOL    HW2 1549   0.546   1.566   4.171
  511SOL     OW 1550   0.255   1.348   4.014
  511SOL    HW1 1551   0.159   1.349   3.987
  511SOL    HW2 1552   0.267   1.401   4.098
  512SOL     OW 1553   0.075   0.345   3.757
  512SOL    HW1 1554  -0.017   0.317   3.728
  512SOL    HW2 1555   0.106   0.422   3.701
  513SOL     OW 1556   0.072   0.166   4.042
  513SOL    HW1 1557   0.055   0.249   3.988
  513SOL    HW2 1558   0.162   0.129   4.020
  514SOL     OW 1559   1.183   1.335   3.843
  514SOL    HW1 1560   1.084   1.324   3.845
  514SOL    HW2 1561   1.217   1.350   3.936
  515SOL     OW 1562   1.225   0.325   4.173
  515SOL    HW1 1563   1.290   0.251   4.162
  515SOL    HW2 1564   1.245   0.375   4.257
  516SOL     OW 1565   0.594   0.745   4.376
  516SOL    HW1 1566   0.644   0.830   4.357
  516SOL    HW2 1567   0.506   0.747   4.328
  517SOL     OW 1568   0.859   1.374   3.740
  517SOL    HW1 1569   0.813   1.389   3.828
  517SOL    HW2 1570   0.903   1.459   3.710
  518SOL     OW 1571   0.661   1.790   4.677
  518SOL    HW1 1572   0.615   1.878   4.664
  518SOL    HW2 1573   0.760   1.802   4.670
  519SOL     OW 1574   0.859   0.956   4.585
  519SOL    HW1 1575   0.913   0.887   4.633
  519SOL    HW2 1576   0.827   1.025   4.651
  520SOL     OW 1577   1.083   0.984   3.811
  520SOL    HW1 1578   1.060   1.037   3.729
  520SOL    HW2 1579   1.164   0.928   3.792
  521SOL     OW 1580   1.861   1.569   4.575
  521SOL    HW1 1581   1.790   1.557   4.505
  521SOL    HW2 1582   1.862   1.490   4.635
  522SOL     OW 1583   0.079   1.240   4.377
  522SOL    HW1 1584   0.078   1.193   4.465
  522SOL    HW2 1585   0.161   1.212   4.326
  523SOL     OW 1586   1.824   0.192   4.951
  523SOL    HW1 1587   1.820   0.102   4.995
  523SOL    HW2 1588   1.827   0.181   4.852
  524SOL     OW 1589   0.428   0.424   4.244
  524SOL    HW1 1590   0.458   0.352   4.182
  524SOL    HW2 1591   0.389   0.384   4.327
  525SOL     OW 1592   0.812   1.586   4.411
  525SOL    HW1 1593   0.844   1.596   4.317
  525SOL    HW2 1594   0.733   1.524   4.413
  526SOL     OW 1595   0.770   1.330   4.025
  526SOL    HW1 1596   0.724   1.243   4.042
  526SOL    HW2 1597   0.861   1.327   4.066
  527SOL     OW 1598   1.352   0.052   3.892
  527SOL    HW1 1599   1.387   0.011   3.808
  527SOL    HW2 1600   1.262   0.014   3.912
  528SOL     OW 1601   1.300   0.453   4.415
  528SOL    HW1 1602   1.241   0.533   4.419
  528SOL    HW2 1603   1.315   0.418   4.508
  529SOL     OW 1604   1.593   0.221   4.606
  529SOL    HW1 1605   1.509   0.220   4.660
  529SOL    HW2 1606   1.595   0.304   4.550
  530SOL     OW 1607   0.039   1.077   4.024
  530SOL    HW1 1608   0.138   1.066   4.015
  530SOL    HW2 1609  -0.001   0.991   4.056
  531SOL     OW 1610   0.875   1.646   4.061
  531SOL    HW1 1611   0.798   1.611   4.007
  531SOL    HW2 1612   0.843   1.717   4.123
  532SOL     OW 1613   0.230   2.490   0.113
  532SOL    HW1 1614   0.137   2.488   0.150
  532SOL    HW2 1615   0.231   2.451   0.021
  533SOL     OW 1616   0.225   2.137   0.996
  533SOL    HW1 1617   0.260   2.120   1.088
  533SOL    HW2 1618   0.137   2.092   0.984
  534SOL     OW 1619   0.019   2.230   0.647
  534SOL    HW1 1620  -0.063   2.273   0.686
  534SOL    HW2 1621  -0.009   2.157   0.584
  535SOL     OW 1622   0.569   3.137   1.165
  535SOL    HW1 1623   0.476   3.130   1.128
  535SOL    HW2 1624   0.580   3.226   1.209
  536SOL     OW 1625   1.555   3.373   0.703
  536SOL    HW1 1626   1.498   3.357   0.784
  536SOL    HW2 1627   1.496   3.383   0.623
  537SOL     OW 1628   1.135   2.565   0.717
  537SOL    HW1 1629   1.192   2.643   0.692
  537SOL    HW2 1630   1.075   2.591   0.793
  538SOL     OW 1631   1.755   2.469   0.231
  538SOL    HW1 1632   1.743   2.456   0.132
  538SOL    HW2 1633   1.725   2.388   0.280
  539SOL     OW 1634   0.768   3.006   1.023
  539SOL    HW1 1635   0.690   3.023   1.083
  539SOL    HW2 1636   0.802   3.093   0.987
  540SOL     OW 1637   0.850   2.660   1.823
  540SOL    HW1 1638   0.846   2.736   1.888
  540SOL    HW2 1639   0.872   2.696   1.732
  541SOL     OW 1640   0.685   2.874   0.665
  541SOL    HW1 1641   0.754   2.858   0.735
  541SOL    HW2 1642   0.612   2.931   0.703
  542SOL     OW 1643   0.686   3.023   1.803
  542SOL    HW1 1644   0.746   3.102   1.817
  542SOL    HW2 1645   0.600   3.054   1.762
  543SOL     OW 1646   0.335   3.297   1.061
  543SOL    HW1 1647   0.257   3.266   1.008
  543SOL    HW2 1648   0.393   3.355   1.004
  544SOL     OW 1649   1.460   3.367   1.339
  544SOL    HW1 1650   1.484   3.461   1.365
  544SOL    HW2 1651   1.444   3.313   1.421
  545SOL     OW 1652   0.438   2.254   1.499
  545SOL    HW1 1653   0.520   2.198   1.508
  545SOL    HW2 1654   0.357   2.196   1.503
  546SOL     OW 1655   1.603   2.309   0.737
  546SOL    HW1 1656   1.529   2.355   0.687
  546SOL    HW2 1657   1.654   2.377   0.790
  547SOL     OW 1658   0.231   3.575   0.483
  547SOL    HW1 1659   0.265   3.652   0.537
  547SOL    HW2 1660   0.275   3.575   0.393
  548SOL     OW 1661   1.127   3.203   1.690
  548SOL    HW1 1662   1.174   3.203   1.778
  548SOL    HW2 1663   1.079   3.116   1.679
  549SOL     OW 1664   0.230   3.296   0.538
  549SOL    HW1 1665   0.204   3.392   0.538
  549SOL    HW2 1666   0.159   3.242   0.583
  550SOL     OW 1667   0.240   2.953   0.886
  550SOL    HW1 1668   0.254   2.869   0.938
  550SOL    HW2 1669   0.185   3.017   0.941
  551SOL     OW 1670   0.620   3.648   1.439
  551SOL    HW1 1671   0.528   3.631   1.474
  551SOL    HW2 1672   0.648   3.740   1.465
  552SOL     OW 1673   0.606   2.826   0.123
  552SOL    HW1 1674   0.613   2.910   0.069
  552SOL    HW2 1675   0.652   2.839   0.211
  553SOL     OW 1676   1.594   1.976   1.480
  553SOL    HW1 1677   1.576   2.043   1.408
  553SOL    HW2 1678   1.591   2.022   1.569
  554SOL     OW 1679   0.122   2.505   0.563
  554SOL    HW1 1680   0.077   2.417   0.580
  554SOL    HW2 1681   0.121   2.559   0.647
  555SOL     OW 1682   1.842   3.629   0.359
  555SOL    HW1 1683   1.896   3.600   0.439
  555SOL    HW2 1684   1.872   3.719   0.330
  556SOL     OW 1685   0.027   3.458   0.117
  556SOL    HW1 1686   0.008   3.362   0.138
  556SOL    HW2 1687  -0.006   3.516   0.192
  557SOL     OW 1688   1.689   2.784   0.612
  557SOL    HW1 1689   1.784   2.755   0.620
  557SOL    HW2 1690   1.681   2.849   0.537
  558SOL     OW 1691   1.641   2.970   0.432
  558SOL    HW1 1692   1.727   2.972   0.380
  558SOL    HW2 1693   1.655   3.017   0.520
  559SOL     OW 1694   0.113   2.599   1.597
  559SOL    HW1 1695   0.201   2.586   1.642
  559SOL    HW2 1696   0.100   2.696   1.575
  560SOL     OW 1697   0.613   3.227   0.726
  560SOL    HW1 1698   0.564   3.140   0.735
  560SOL    HW2 1699   0.590   3.270   0.639
  561SOL     OW 1700   1.293   3.090   1.423
  561SOL    HW1 1701   1.330   3.017   1.365
  561SOL    HW2 1702   1.345   3.095   1.508
  562SOL     OW 1703   0.809   1.866   0.502
  562SOL    HW1 1704   0.849   1.957   0.493
  562SOL    HW2 1705   0.709   1.874   0.508
  563SOL     OW 1706   0.197   2.838   1.264
  563SOL    HW1 1707   0.286   2.793   1.250
  563SOL    HW2 1708   0.124   2.773   1.245
  564SOL     OW 1709   1.525   2.861   0.190
  564SOL    HW1 1710   1.462   2.785   0.203
  564SOL    HW2 1711   1.573   2.879   0.276
  565SOL     OW 1712   1.187   3.654   1.616
  565SOL    HW1 1713   1.211   3.714   1.540
  565SOL    HW2 1714   1.194   3.559   1.586
  566SOL     OW 1715   0.317   2.113   1.801
  566SOL    HW1 1716   0.388   2.184   1.807
  566SOL    HW2 1717   0.229   2.152   1.829
  567SOL     OW 1718   1.466   3.279   0.953
  567SOL    HW1 1719   1.407   3.285   1.033
  567SOL    HW2 1720   1.451   3.191   0.907
  568SOL     OW 1721   1.667   3.576   0.572
  568SOL    HW1 1722   1.626   3.553   0.484
  568SOL    HW2 1723   1.649   3.502   0.637
  569SOL     OW 1724   0.598   2.591   0.270
  569SOL    HW1 1725   0.622   2.660   0.202
  569SOL    HW2 1726   0.520   2.624   0.324
  570SOL     OW 1727   1.281   2.207   0.944
  570SOL    HW1 1728   1.195   2.157   0.931
  570SOL    HW2 1729   1.343   2.153   1.000
  571SOL     OW 1730   1.576   3.524   0.307
  571SOL    HW1 1731   1.665   3.570   0.310
  571SOL    HW2 1732   1.555   3.500   0.212
  572SOL     OW 1733   0.807   2.467   1.465
  572SOL    HW1 1734   0.760   2.464   1.554
  572SOL    HW2 1735   0.756   2.412   1.399
  573SOL     OW 1736   1.394   2.331   1.674
  573SOL    HW1 1737   1.374   2.374   1.762
  573SOL    HW2 1738   1.472   2.269   1.683
  574SOL     OW 1739   0.973   2.752   1.572
  574SOL    HW1 1740   1.019   2.668   1.543
  574SOL    HW2 1741   0.917   2.786   1.497
  575SOL     OW 1742   0.991   2.272   1.242
  575SOL    HW1 1743   0.914   2.306   1.296
  575SOL    HW2 1744   0.957   2.221   1.163
  576SOL     OW 1745   1.041   2.563   0.429
  576SOL    HW1 1746   1.067   2.559   0.525
  576SOL    HW2 1747   0.956   2.512   0.415
  577SOL     OW 1748   0.076   2.673   0.789
  577SOL    HW1 1749   0.175   2.661   0.798
  577SOL    HW2 1750   0.052   2.768   0.810
  578SOL     OW 1751   0.130   3.683   1.571
  578SOL    HW1 1752   0.120   3.668   1.670
  578SOL    HW2 1753   0.044   3.719   1.535
  579SOL     OW 1754   0.865   2.210   0.195
  579SOL    HW1 1755   0.924   2.273   0.146
  579SOL    HW2 1756   0.884   2.116   0.166
  580SOL     OW 1757   1.719   2.447   1.831
  580SOL    HW1 1758   1.693   2.536   1.795
  580SOL    HW2 1759   1.717   2.379   1.758
  581SOL     OW 1760   1.362   3.006   0.545
  581SOL    HW1 1761   1.445   2.977   0.497
  581SOL    HW2 1762   1.313   3.073   0.489
  582SOL     OW 1763   0.550   2.058   0.885
  582SOL    HW1 1764   0.545   2.053   0.985
  582SOL    HW2 1765   0.552   2.154   0.856
  583SOL     OW 1766   1.008   3.318   0.477
  583SOL    HW1 1767   0.962   3.390   0.425
  583SOL    HW2 1768   1.004   3.338   0.575
  584SOL     OW 1769   0.351   3.663   0.853
  584SOL    HW1 1770   0.401   3.577   0.859
  584SOL    HW2 1771   0.416   3.740   0.850
  585SOL     OW 1772   1.795   2.928   0.873
  585SOL    HW1 1773   1.733   2.913   0.797
  585SOL    HW2 1774   1.743   2.939   0.958
  586SOL     OW 1775   1.227   3.412   1.506
  586SOL    HW1 1776   1.233   3.335   1.570
  586SOL    HW2 1777   1.175   3.386   1.426
  587SOL     OW 1778   0.321   2.805   0.242
  587SOL    HW1 1779   0.403   2.844   0.200
  587SOL    HW2 1780   0.294   2.723   0.193
  588SOL     OW 1781   1.458   2.597   0.728
  588SOL    HW1 1782   1.453   2.532   0.803
  588SOL    HW2 1783   1.538   2.656   0.741
  589SOL     OW 1784   0.461   3.128   1.727
  589SOL    HW1 1785   0.411   3.129   1.641
  589SOL    HW2 1786   0.398   3.110   1.803
  590SOL     OW 1787   1.111   3.638   0.237
  590SOL    HW1 1788   1.051   3.576   0.287
  590SOL    HW2 1789   1.142   3.594   0.152
  591SOL     OW 1790   0.202   2.147   1.498
  591SOL    HW1 1791   0.122   2.207   1.485
  591SOL    HW2 1792   0.192   2.098   1.584
  592SOL     OW 1793   1.632   3.239   0.081
  592SOL    HW1 1794   1.600   3.333   0.071
  592SOL    HW2 1795   1.556   3.176   0.069
  593SOL     OW 1796   0.464   3.605   0.323
  593SOL    HW1 1797   0.497   3.644   0.409
  593SOL    HW2 1798   0.540   3.598   0.258
  594SOL     OW 1799   1.400   1.969   0.426
  594SOL    HW1 1800   1.376   1.932   0.336
  594SOL    HW2 1801   1.499   1.985   0.430
  595SOL     OW 1802   0.249   3.647   1.241
  595SOL    HW1 1803   0.306   3.582   1.291
  595SOL    HW2 1804   0.233   3.614   1.148
  596SOL     OW 1805   0.940   3.560   0.904
  596SOL    HW1 1806   1.020   3.503   0.925
  596SOL    HW2 1807   0.891   3.520   0.827
  597SOL     OW 1808   0.382   2.562   0.480
  597SOL    HW1 1809   0.427   2.472   0.477
  597SOL    HW2 1810   0.288   2.551   0.513
  598SOL     OW 1811   1.547   2.084   1.729
  598SOL    HW1 1812   1.542   2.121   1.821
  598SOL    HW2 1813   1.475   2.015   1.717
  599SOL     OW 1814   0.781   2.126   1.749
  599SOL    HW1 1815   0.848   2.065   1.792
  599SOL    HW2 1816   0.708   2.145   1.814
  600SOL     OW 1817   0.888   3.376   1.195
  600SOL    HW1 1818   0.865   3.351   1.101
  600SOL    HW2 1819   0.949   3.307   1.234
  601SOL     OW 1820   1.351   2.452   1.433
  601SOL    HW1 1821   1.379   2.409   1.518
  601SOL    HW2 1822   1.376   2.548   1.434
  602SOL     OW 1823   0.803   3.264   0.924
  602SOL    HW1 1824   0.893   3.278   0.882
  602SOL    HW2 1825   0.732   3.266   0.853
  603SOL     OW 1826   0.922   2.365   0.899
  603SOL    HW1 1827   0.897   2.356   0.803
  603SOL    HW2 1828   0.970   2.283   0.930
  604SOL     OW 1829   0.539   1.926   0.512
  604SOL    HW1 1830   0.458   1.927   0.570
  604SOL    HW2 1831   0.542   2.009   0.457
  605SOL     OW 1832   1.434   3.050   0.041
  605SOL    HW1 1833   1.466   2.974   0.098
  605SOL    HW2 1834   1.342   3.077   0.071
  606SOL     OW 1835   0.297   1.897   0.171
  606SOL    HW1 1836   0.346   1.981   0.150
  606SOL    HW2 1837   0.359   1.832   0.216
  607SOL     OW 1838   0.935   2.098   0.480
  607SOL    HW1 1839   0.887   2.139   0.402
  607SOL    HW2 1840   1.034   2.096   0.461
  608SOL     OW 1841   1.076   2.545   1.464
  608SOL    HW1 1842   0.996   2.484   1.467
  608SOL    HW2 1843   1.157   2.492   1.440
  609SOL     OW 1844   1.227   3.432   0.793
  609SOL    HW1 1845   1.248   3.506   0.728
  609SOL    HW2 1846   1.295   3.432   0.866
  610SOL     OW 1847   0.459   3.014   0.741
  610SOL    HW1 1848   0.388   2.987   0.806
  610SOL    HW2 1849   0.433   2.986   0.648
  611SOL     OW 1850   1.271   3.659   0.591
  611SOL    HW1 1851   1.315   3.723   0.527
  611SOL    HW2 1852   1.221   3.711   0.661
  612SOL     OW 1853   1.032   2.411   0.016
  612SOL    HW1 1854   0.991   2.493  -0.023
  612SOL    HW2 1855   1.096   2.437   0.089
  613SOL     OW 1856   0.078   2.418   1.386
  613SOL    HW1 1857   0.170   2.417   1.345
  613SOL    HW2 1858   0.072   2.492   1.453
  614SOL     OW 1859   0.561   2.084   1.147
  614SOL    HW1 1860   0.599   2.000   1.184
  614SOL    HW2 1861   0.473   2.103   1.191
  615SOL     OW 1862   0.866   2.316   0.642
  615SOL    HW1 1863   0.834   2.388   0.580
  615SOL    HW2 1864   0.890   2.235   0.589
  616SOL     OW 1865   1.017   1.901   0.753
  616SOL    HW1 1866   0.945   1.906   0.684
  616SOL    HW2 1867   0.993   1.832   0.822
  617SOL     OW 1868   1.429   3.035   0.867
  617SOL    HW1 1869   1.374   2.951   0.860
  617SOL    HW2 1870   1.455   3.064   0.775
  618SOL     OW 1871   1.466   2.452   0.992
  618SOL    HW1 1872   1.436   2.357   0.999
  618SOL    HW2 1873   1.539   2.468   1.058
  619SOL     OW 1874   1.857   2.695   0.377
  619SOL    HW1 1875   1.899   2.631   0.441
  619SOL    HW2 1876   1.819   2.644   0.299
  620SOL     OW 1877   0.488   3.247   0.174
  620SOL    HW1 1878   0.401   3.232   0.221
  620SOL    HW2 1879   0.471   3.273   0.079
  621SOL     OW 1880   1.664   3.142   0.657
  621SOL    HW1 1881   1.763   3.150   0.671
  621SOL    HW2 1882   1.619   3.226   0.688
  622SOL     OW 1883   1.390   2.437   0.078
  622SOL    HW1 1884   1.336   2.416   0.159
  622SOL    HW2 1885   1.481   2.396   0.087
  623SOL     OW 1886   0.527   2.118   0.328
  623SOL    HW1 1887   0.554   2.059   0.253
  623SOL    HW2 1888   0.527   2.213   0.297
  624SOL     OW 1889   1.754   3.085   1.588
  624SOL    HW1 1890   1.845   3.046   1.575
  624SOL    HW2 1891   1.762   3.181   1.612
  625SOL     OW 1892   1.064   3.209   1.340
  625SOL    HW1 1893   0.984   3.186   1.395
  625SOL    HW2 1894   1.147   3.183   1.389
  626SOL     OW 1895   1.592   3.491   1.625
  626SOL    HW1 1896   1.619   3.525   1.535
  626SOL    HW2 1897   1.671   3.453   1.671
  627SOL     OW 1898   1.111   3.057   1.100
  627SOL    HW1 1899   1.071   3.101   1.181
  627SOL    HW2 1900   1.070   3.094   1.017
  628SOL     OW 1901   1.638   2.961   1.079
  628SOL    HW1 1902   1.643   3.042   1.138
  628SOL    HW2 1903   1.552   2.963   1.028
  629SOL     OW 1904   0.915   1.951   1.402
  629SOL    HW1 1905   0.940   1.931   1.307
  629SOL    HW2 1906   0.987   2.007   1.444
  630SOL     OW 1907   0.980   2.978   1.719
  630SOL    HW1 1908   0.881   2.984   1.729
  630SOL    HW2 1909   1.003   2.898   1.663
  631SOL     OW 1910   0.705   2.912   0.368
  631SOL    HW1 1911   0.691   2.919   0.467
  631SOL    HW2 1912   0.789   2.861   0.350
  632SOL     OW 1913   0.410   2.675   1.251
  632SOL    HW1 1914   0.496   2.687   1.301
  632SOL    HW2 1915   0.368   2.588   1.278
  633SOL     OW 1916   1.274   2.248   1.262
  633SOL    HW1 1917   1.295   2.322   1.326
  633SOL    HW2 1918   1.185   2.265   1.219
  634SOL     OW 1919   0.064   3.426   1.331
  634SOL    HW1 1920   0.018   3.508   1.297
  634SOL    HW2 1921   0.162   3.445   1.340
  635SOL     OW 1922   0.367   2.962   0.501
  635SOL    HW1 1923   0.360   3.045   0.445
  635SOL    HW2 1924   0.371   2.882   0.441
  636SOL     OW 1925   0.566   2.399   0.865
  636SOL    HW1 1926   0.578   2.465   0.791
  636SOL    HW2 1927   0.612   2.433   0.948
  637SOL     OW 1928   1.252   3.210   0.388
  637SOL    HW1 1929   1.302   3.287   0.428
  637SOL    HW2 1930   1.157   3.212   0.420
  638SOL     OW 1931   1.272   3.307   1.142
  638SOL    HW1 1932   1.319   3.320   1.229
  638SOL    HW2 1933   1.206   3.233   1.151
  639SOL     OW 1934   1.582   2.501   0.472
  639SOL    HW1 1935   1.551   2.562   0.545
  639SOL    HW2 1936   1.632   2.553   0.403
  640SOL     OW 1937   0.354   3.372   1.329
  640SOL    HW1 1938   0.333   3.328   1.242
  640SOL    HW2 1939   0.451   3.398   1.332
  641SOL     OW 1940   0.402   2.613   1.598
  641SOL    HW1 1941   0.470   2.668   1.551
  641SOL    HW2 1942   0.442   2.525   1.625
  642SOL     OW 1943   1.587   2.641   1.670
  642SOL    HW1 1944   1.495   2.679   1.665
  642SOL    HW2 1945   1.647   2.688   1.605
  643SOL     OW 1946   1.013   1.967   1.770
  643SOL    HW1 1947   1.019   2.052   1.718
  643SOL    HW2 1948   1.045   1.891   1.713
  644SOL     OW 1949   0.504   1.912   1.740
  644SOL    HW1 1950   0.462   1.855   1.670
  644SOL    HW2 1951   0.438   1.981   1.772
  645SOL     OW 1952   0.573   2.732   1.029
  645SOL    HW1 1953   0.617   2.821   1.020
  645SOL    HW2 1954   0.510   2.732   1.106
  646SOL     OW 1955   1.360   2.724   1.045
  646SOL    HW1 1956   1.285   2.724   0.979
  646SOL    HW2 1957   1.397   2.632   1.054
  647SOL     OW 1958   1.209   2.387   0.275
  647SOL    HW1 1959   1.222   2.303   0.329
  647SOL    HW2 1960   1.180   2.461   0.335
  648SOL     OW 1961   0.307   2.075   1.231
  648SOL    HW1 1962   0.284   2.112   1.321
  648SOL    HW2 1963   0.277   1.980   1.225
  649SOL     OW 1964   0.037   3.172   1.282
  649SOL    HW1 1965   0.090   3.123   1.350
  649SOL    HW2 1966   0.059   3.270   1.287
  650SOL     OW 1967   0.732   2.496   1.064
  650SOL    HW1 1968   0.791   2.470   0.988
  650SOL    HW2 1969   0.704   2.592   1.053
  651SOL     OW 1970   1.728   2.797   1.854
  651SOL    HW1 1971   1.682   2.790   1.765
  651SOL    HW2 1972   1.666   2.841   1.920
  652SOL     OW 1973   0.307   1.925   0.618
  652SOL    HW1 1974   0.296   2.019   0.651
  652SOL    HW2 1975   0.302   1.862   0.695
  653SOL     OW 1976   1.622   2.229   0.374
  653SOL    HW1 1977   1.624   2.153   0.438
  653SOL    HW2 1978   1.574   2.306   0.414
  654SOL     OW 1979   1.023   2.628   0.966
  654SOL    HW1 1980   1.038   2.649   1.062
  654SOL    HW2 1981   0.993   2.533   0.957
  655SOL     OW 1982   0.980   3.435   1.700
  655SOL    HW1 1983   0.960   3.479   1.612
  655SOL    HW2 1984   1.019   3.344   1.684
  656SOL     OW 1985   1.859   3.380   1.605
  656SOL    HW1 1986   1.873   3.407   1.510
  656SOL    HW2 1987   1.942   3.402   1.658
  657SOL     OW 1988   0.350   2.760   1.804
  657SOL    HW1 1989   0.426   2.804   1.852
  657SOL    HW2 1990   0.385   2.713   1.722
  658SOL     OW 1991   1.540   2.136   0.125
  658SOL    HW1 1992   1.479   2.061   0.148
  658SOL    HW2 1993   1.562   2.188   0.208
  659SOL     OW 1994   1.303   2.700   0.042
  659SOL    HW1 1995   1.337   2.607   0.057
  659SOL    HW2 1996   1.321   2.727  -0.053
  660SOL     OW 1997   1.068   3.195   0.849
  660SOL    HW1 1998   1.075   3.111   0.794
  660SOL    HW2 1999   1.130   3.264   0.813
  661SOL     OW 2000   0.319   2.672   0.949
  661SOL    HW1 2001   0.412   2.708   0.954
  661SOL    HW2 2002   0.313   2.587   1.001
  662SOL     OW 2003   0.339   2.371   1.006
  662SOL    HW1 2004   0.287   2.288   0.989
  662SOL    HW2 2005   0.416   2.376   0.942
  663SOL     OW 2006   1.138   2.242   1.678
  663SOL    HW1 2007   1.093   2.305   1.742
  663SOL    HW2 2008   1.231   2.273   1.661
  664SOL     OW 2009   1.160   2.069   1.477
  664SOL    HW1 2010   1.160   2.133   1.554
  664SOL    HW2 2011   1.188   2.117   1.394
  665SOL     OW 2012   0.008   3.188   0.200
  665SOL    HW1 2013  -0.085   3.209   0.169
  665SOL    HW2 2014   0.018   3.089   0.213
  666SOL     OW 2015   0.088   3.663   0.927
  666SOL    HW1 2016   0.046   3.577   0.900
  666SOL    HW2 2017   0.182   3.666   0.893
  667SOL     OW 2018   0.504   3.430   0.910
  667SOL    HW1 2019   0.570   3.504   0.919
  667SOL    HW2 2020   0.548   3.351   0.868
  668SOL     OW 2021   1.002   2.658   1.238
  668SOL    HW1 2022   1.043   2.626   1.324
  668SOL    HW2 2023   0.906   2.631   1.235
  669SOL     OW 2024   0.040   2.406   1.114
  669SOL    HW1 2025   0.125   2.373   1.073
  669SOL    HW2 2026   0.053   2.421   1.212
  670SOL     OW 2027   0.189   2.382   1.722
  670SOL    HW1 2028   0.248   2.342   1.652
  670SOL    HW2 2029   0.131   2.453   1.681
  671SOL     OW 2030   1.369   2.812   1.660
  671SOL    HW1 2031   1.408   2.901   1.680
  671SOL    HW2 2032   1.379   2.792   1.563
  672SOL     OW 2033   0.815   2.434   0.325
  672SOL    HW1 2034   0.822   2.345   0.279
  672SOL    HW2 2035   0.721   2.468   0.317
  673SOL     OW 2036   1.657   2.466   1.206
  673SOL    HW1 2037   1.619   2.397   1.268
  673SOL    HW2 2038   1.739   2.430   1.162
  674SOL     OW 2039   0.252   3.426   1.744
  674SOL    HW1 2040   0.222   3.483   1.820
  674SOL    HW2 2041   0.245   3.329   1.770
  675SOL     OW 2042   0.671   2.326   1.269
  675SOL    HW1 2043   0.637   2.237   1.239
  675SOL    HW2 2044   0.697   2.380   1.189
  676SOL     OW 2045   0.930   3.540   1.465
  676SOL    HW1 2046   0.906   3.522   1.370
  676SOL    HW2 2047   0.960   3.634   1.475
  677SOL     OW 2048   0.473   2.362   0.191
  677SOL    HW1 2049   0.534   2.442   0.195
  677SOL    HW2 2050   0.378   2.393   0.198
  678SOL     OW 2051   0.159   2.999   1.466
  678SOL    HW1 2052   0.181   2.938   1.542
  678SOL    HW2 2053   0.169   2.950   1.380
  679SOL     OW 2054   1.347   2.921   1.234
  679SOL    HW1 2055   1.371   2.858   1.160
  679SOL    HW2 2056   1.257   2.961   1.216
  680SOL     OW 2057   1.302   2.717   0.309
  680SOL    HW1 2058   1.216   2.686   0.351
  680SOL    HW2 2059   1.298   2.703   0.210
  681SOL     OW 2060   1.759   3.609   1.154
  681SOL    HW1 2061   1.820   3.639   1.081
  681SOL    HW2 2062   1.721   3.520   1.132
  682SOL     OW 2063   1.252   3.593   1.128
  682SOL    HW1 2064   1.336   3.598   1.074
  682SOL    HW2 2065   1.229   3.497   1.146
  683SOL     OW 2066   0.083   3.120   1.022
  683SOL    HW1 2067   0.078   3.119   1.122
  683SOL    HW2 2068   0.000   3.079   0.984
  684SOL     OW 2069   0.688   3.524   1.716
  684SOL    HW1 2070   0.632   3.605   1.725
  684SOL    HW2 2071   0.740   3.528   1.630
  685SOL     OW 2072   0.903   1.948   0.133
  685SOL    HW1 2073   0.954   1.949   0.047
  685SOL    HW2 2074   0.959   1.906   0.204
  686SOL     OW 2075   1.726   1.997   0.523
  686SOL    HW1 2076   1.799   1.980   0.456
  686SOL    HW2 2077   1.695   1.910   0.561
  687SOL     OW 2078   1.388   3.435   0.477
  687SOL    HW1 2079   1.455   3.447   0.403
  687SOL    HW2 2080   1.348   3.524   0.500
  688SOL     OW 2081   0.130   3.656   1.851
  688SOL    HW1 2082   0.089   3.582   1.904
  688SOL    HW2 2083   0.194   3.707   1.909
  689SOL     OW 2084   1.280   2.789   0.672
  689SOL    HW1 2085   1.340   2.708   0.674
  689SOL    HW2 2086   1.320   2.858   0.612
  690SOL     OW 2087   0.830   3.135   1.422
  690SOL    HW1 2088   0.825   3.168   1.517
  690SOL    HW2 2089   0.744   3.154   1.376
  691SOL     OW 2090   0.672   3.478   0.154
  691SOL    HW1 2091   0.681   3.488   0.055
  691SOL    HW2 2092   0.632   3.389   0.175
  692SOL     OW 2093   1.650   3.582   1.394
  692SOL    HW1 2094   1.703   3.592   1.310
  692SOL    HW2 2095   1.623   3.672   1.428
  693SOL     OW 2096   1.841   2.037   0.963
  693SOL    HW1 2097   1.880   1.952   0.927
  693SOL    HW2 2098   1.743   2.039   0.944
  694SOL     OW 2099   0.263   2.188   0.720
  694SOL    HW1 2100   0.184   2.239   0.686
  694SOL    HW2 2101   0.254   2.173   0.818
  695SOL     OW 2102   1.194   3.474   0.031
  695SOL    HW1 2103   1.200   3.381   0.068
  695SOL    HW2 2104   1.135   3.474  -0.049
  696SOL     OW 2105   0.822   2.864   1.372
  696SOL    HW1 2106   0.862   2.863   1.280
  696SOL    HW2 2107   0.832   2.956   1.412
  697SOL     OW 2108   0.916   2.772   0.291
  697SOL    HW1 2109   0.979   2.810   0.223
  697SOL    HW2 2110   0.956   2.689   0.330
  698SOL     OW 2111   1.504   3.469   0.044
  698SOL    HW1 2112   1.412   3.506   0.051
  698SOL    HW2 2113   1.542   3.489  -0.046
  699SOL     OW 2114   0.372   3.150   1.490
  699SOL    HW1 2115   0.359   3.243   1.456
  699SOL    HW2 2116   0.288   3.098   1.477
  700SOL     OW 2117   1.614   3.154   1.289
  700SOL    HW1 2118   1.674   3.157   1.369
  700SOL    HW2 2119   1.539   3.218   1.302
  701SOL     OW 2120   1.039   2.960   0.696
  701SOL    HW1 2121   0.969   2.913   0.750
  701SOL    HW2 2122   1.098   2.892   0.653
  702SOL     OW 2123   1.014   2.098   0.971
  702SOL    HW1 2124   1.006   2.062   0.878
  702SOL    HW2 2125   1.012   2.022   1.036
  703SOL     OW 2126   0.590   3.349   0.491
  703SOL    HW1 2127   0.632   3.291   0.421
  703SOL    HW2 2128   0.546   3.428   0.447
  704SOL     OW 2129   1.709   2.247   1.381
  704SOL    HW1 2130   1.782   2.316   1.385
  704SOL    HW2 2131   1.737   2.172   1.322
  705SOL     OW 2132   0.255   3.210   0.290
  705SOL    HW1 2133   0.159   3.211   0.263
  705SOL    HW2 2134   0.267   3.263   0.374
  706SOL     OW 2135   0.105   2.875   1.726
  706SOL    HW1 2136   0.028   2.842   1.780
  706SOL    HW2 2137   0.190   2.845   1.768
  707SOL     OW 2138   0.672   2.065   1.489
  707SOL    HW1 2139   0.762   2.049   1.449
  707SOL    HW2 2140   0.680   2.070   1.588
  708SOL     OW 2141   0.075   2.207   0.033
  708SOL    HW1 2142  -0.017   2.179   0.004
  708SOL    HW2 2143   0.106   2.284  -0.023
  709SOL     OW 2144   1.440   2.718   1.398
  709SOL    HW1 2145   1.383   2.770   1.335
  709SOL    HW2 2146   1.536   2.730   1.374
  710SOL     OW 2147   0.072   2.028   0.318
  710SOL    HW1 2148   0.055   2.111   0.264
  710SOL    HW2 2149   0.162   1.991   0.296
  711SOL     OW 2150   1.183   3.197   0.119
  711SOL    HW1 2151   1.084   3.186   0.121
  711SOL    HW2 2152   1.217   3.212   0.212
  712SOL     OW 2153   0.613   2.704   1.431
  712SOL    HW1 2154   0.669   2.785   1.414
  712SOL    HW2 2155   0.672   2.624   1.434
  713SOL     OW 2156   1.493   3.629   0.959
  713SOL    HW1 2157   1.526   3.693   0.890
  713SOL    HW2 2158   1.559   3.623   1.034
  714SOL     OW 2159   0.716   2.427   1.708
  714SOL    HW1 2160   0.735   2.492   1.782
  714SOL    HW2 2161   0.776   2.347   1.717
  715SOL     OW 2162   1.450   3.082   1.633
  715SOL    HW1 2163   1.441   3.072   1.732
  715SOL    HW2 2164   1.546   3.075   1.607
  716SOL     OW 2165   0.390   3.603   1.560
  716SOL    HW1 2166   0.299   3.644   1.558
  716SOL    HW2 2167   0.383   3.509   1.592
  717SOL     OW 2168   1.674   2.745   1.254
  717SOL    HW1 2169   1.647   2.656   1.217
  717SOL    HW2 2170   1.675   2.813   1.181
  718SOL     OW 2171   1.225   2.187   0.449
  718SOL    HW1 2172   1.290   2.113   0.438
  718SOL    HW2 2173   1.245   2.237   0.533
  719SOL     OW 2174   0.594   2.607   0.652
  719SOL    HW1 2175   0.644   2.692   0.633
  719SOL    HW2 2176   0.506   2.609   0.604
  720SOL     OW 2177   1.777   2.204   1.642
  720SOL    HW1 2178   1.760   2.235   1.548
  720SOL    HW2 2179   1.693   2.167   1.680
  721SOL     OW 2180   1.730   2.796   1.517
  721SOL    HW1 2181   1.768   2.887   1.532
  721SOL    HW2 2182   1.722   2.779   1.418
  722SOL     OW 2183   0.859   3.236   0.016
  722SOL    HW1 2184   0.813   3.251   0.104
  722SOL    HW2 2185   0.903   3.321  -0.014
  723SOL     OW 2186   0.661   3.652   0.953
  723SOL    HW1 2187   0.615   3.740   0.940
  723SOL    HW2 2188   0.760   3.664   0.946
  724SOL     OW 2189   0.859   2.818   0.861
  724SOL    HW1 2190   0.913   2.749   0.909
  724SOL    HW2 2191   0.827   2.887   0.927
  725SOL     OW 2192   1.083   2.846   0.087
  725SOL    HW1 2193   1.060   2.899   0.005
  725SOL    HW2 2194   1.164   2.790   0.068
  726SOL     OW 2195   1.861   3.431   0.851
  726SOL    HW1 2196   1.790   3.419   0.781
  726SOL    HW2 2197   1.862   3.352   0.911
  727SOL     OW 2198   0.221   3.176   1.844
  727SOL    HW1 2199   0.156   3.103   1.823
  727SOL    HW2 2200   0.225   3.190   1.942
  728SOL     OW 2201   0.079   3.102   0.653
  728SOL    HW1 2202   0.078   3.055   0.741
  728SOL    HW2 2203   0.161   3.074   0.602
  729SOL     OW 2204   0.672   3.253   1.624
  729SOL    HW1 2205   0.594   3.203   1.662
  729SOL    HW2 2206   0.669   3.348   1.655
  730SOL     OW 2207   1.824   2.054   1.227
  730SOL    HW1 2208   1.820   1.964   1.271
  730SOL    HW2 2209   1.827   2.043   1.128
  731SOL     OW 2210   0.428   2.286   0.520
  731SOL    HW1 2211   0.458   2.214   0.458
  731SOL    HW2 2212   0.389   2.246   0.603
  732SOL     OW 2213   1.705   3.349   1.104
  732SOL    HW1 2214   1.612   3.324   1.077
  732SOL    HW2 2215   1.731   3.299   1.186
  733SOL     OW 2216   0.317   2.409   1.280
  733SOL    HW1 2217   0.355   2.350   1.352
  733SOL    HW2 2218   0.357   2.383   1.192
  734SOL     OW 2219   0.812   3.448   0.687
  734SOL    HW1 2220   0.844   3.458   0.593
  734SOL    HW2 2221   0.733   3.386   0.689
  735SOL     OW 2222   1.424   2.076   1.112
  735SOL    HW1 2223   1.476   2.011   1.167
  735SOL    HW2 2224   1.375   2.139   1.173
  736SOL     OW 2225   1.001   1.896   1.154
  736SOL    HW1 2226   0.938   1.824   1.123
  736SOL    HW2 2227   1.094   1.860   1.154
  737SOL     OW 2228   0.770   3.192   0.301
  737SOL    HW1 2229   0.724   3.105   0.318
  737SOL    HW2 2230   0.861   3.189   0.342
  738SOL     OW 2231   0.618   3.429   1.284
  738SOL    HW1 2232   0.613   3.511   1.341
  738SOL    HW2 2233   0.707   3.426   1.239
  739SOL     OW 2234   1.352   1.914   0.168
  739SOL    HW1 2235   1.387   1.873   0.084
  739SOL    HW2 2236   1.262   1.876   0.188
  740SOL     OW 2237   1.300   2.315   0.691
  740SOL    HW1 2238   1.241   2.395   0.695
  740SOL    HW2 2239   1.315   2.280   0.784
  741SOL     OW 2240   1.593   2.083   0.882
  741SOL    HW1 2241   1.509   2.082   0.936
  741SOL    HW2 2242   1.595   2.166   0.826
  742SOL     OW 2243   0.039   2.939   0.300
  742SOL    HW1 2244   0.138   2.928   0.291
  742SOL    HW2 2245  -0.001   2.853   0.332
  743SOL     OW 2246   0.875   3.508   0.337
  743SOL    HW1 2247   0.798   3.473   0.283
  743SOL    HW2 2248   0.843   3.579   0.399
  744SOL     OW 2249   0.230   2.490   1.975
  744SOL    HW1 2250   0.137   2.488   2.012
  744SOL    HW2 2251   0.231   2.451   1.883
  745SOL     OW 2252   0.225   2.137   2.858
  745SOL    HW1 2253   0.260   2.120   2.950
  745SOL    HW2 2254   0.137   2.092   2.846
  746SOL     OW 2255   0.019   2.230   2.509
  746SOL    HW1 2256  -0.063   2.273   2.548
  746SOL    HW2 2257  -0.009   2.157   2.446
  747SOL     OW 2258   0.569   3.137   3.027
  747SOL    HW1 2259   0.476   3.130   2.990
  747SOL    HW2 2260   0.580   3.226   3.071
  748SOL     OW 2261   1.555   3.373   2.565
  748SOL    HW1 2262   1.498   3.357   2.646
  748SOL    HW2 2263   1.496   3.383   2.485
  749SOL     OW 2264   1.135   2.565   2.579
  749SOL    HW1 2265   1.192   2.643   2.554
  749SOL    HW2 2266   1.075   2.591   2.655
  750SOL     OW 2267   1.755   2.469   2.093
  750SOL    HW1 2268   1.743   2.456   1.994
  750SOL    HW2 2269   1.725   2.388   2.142
  751SOL     OW 2270   0.768   3.006   2.885
  751SOL    HW1 2271   0.690   3.023   2.945
  751SOL    HW2 2272   0.802   3.093   2.849
  752SOL     OW 2273   0.850   2.660   3.685
  752SOL    HW1 2274   0.846   2.736   3.750
  752SOL    HW2 2275   0.872   2.696   3.594
  753SOL     OW 2276   0.685   2.874   2.527
  753SOL    HW1 2277   0.754   2.858   2.597
  753SOL    HW2 2278   0.612   2.931   2.565
  754SOL     OW 2279   0.686   3.023   3.665
  754SOL    HW1 2280   0.746   3.102   3.679
  754SOL    HW2 2281   0.600   3.054   3.624
  755SOL     OW 2282   0.335   3.297   2.923
  755SOL    HW1 2283   0.257   3.266   2.870
  755SOL    HW2 2284   0.393   3.355   2.866
  756SOL     OW 2285   1.460   3.367   3.201
  756SOL    HW1 2286   1.484   3.461   3.227
  756SOL    HW2 2287   1.444   3.313   3.283
  757SOL     OW 2288   0.438   2.254   3.361
  757SOL    HW1 2289   0.520   2.198   3.370
  757SOL    HW2 2290   0.357   2.196   3.365
  758SOL     OW 2291   1.603   2.309   2.599
  758SOL    HW1 2292   1.529   2.355   2.549
  758SOL    HW2 2293   1.654   2.377   2.652
  759SOL     OW 2294   0.231   3.575   2.345
  759SOL    HW1 2295   0.265   3.652   2.399
  759SOL    HW2 2296   0.275   3.575   2.255
  760SOL     OW 2297   1.127   3.203   3.552
  760SOL    HW1 2298   1.174   3.203   3.640
  760SOL    HW2 2299   1.079   3.116   3.541
  761SOL     OW 2300   0.230   3.296   2.400
  761SOL    HW1 2301   0.204   3.392   2.400
  761SOL    HW2 2302   0.159   3.242   2.445
  762SOL     OW 2303   0.240   2.953   2.748
  762SOL    HW1 2304   0.254   2.869   2.800
  762SOL    HW2 2305   0.185   3.017   2.803
  763SOL     OW 2306   0.620   3.648   3.301
  763SOL    HW1 2307   0.528   3.631   3.336
  763SOL    HW2 2308   0.648   3.740   3.327
  764SOL     OW 2309   0.606   2.826   1.985
  764SOL    HW1 2310   0.613   2.910   1.931
  764SOL    HW2 2311   0.652   2.839   2.073
  765SOL     OW 2312   1.594   1.976   3.342
  765SOL    HW1 2313   1.576   2.043   3.270
  765SOL    HW2 2314   1.591   2.022   3.431
  766SOL     OW 2315   0.122   2.505   2.425
  766SOL    HW1 2316   0.077   2.417   2.442
  766SOL    HW2 2317   0.121   2.559   2.509
  767SOL     OW 2318   1.842   3.629   2.221
  767SOL    HW1 2319   1.896   3.600   2.301
  767SOL    HW2 2320   1.872   3.719   2.192
  768SOL     OW 2321   0.027   3.458   1.979
  768SOL    HW1 2322   0.008   3.362   2.000
  768SOL    HW2 2323  -0.006   3.516   2.054
  769SOL     OW 2324   1.689   2.784   2.474
  769SOL    HW1 2325   1.784   2.755   2.482
  769SOL    HW2 2326   1.681   2.849   2.399
  770SOL     OW 2327   1.641   2.970   2.294
  770SOL    HW1 2328   1.727   2.972   2.242
  770SOL    HW2 2329   1.655   3.017   2.382
  771SOL     OW 2330   0.113   2.599   3.459
  771SOL    HW1 2331   0.201   2.586   3.504
  771SOL    HW2 2332   0.100   2.696   3.437
  772SOL     OW 2333   0.613   3.227   2.588
  772SOL    HW1 2334   0.564   3.140   2.597
  772SOL    HW2 2335   0.590   3.270   2.501
  773SOL     OW 2336   1.293   3.090   3.285
  773SOL    HW1 2337   1.330   3.017   3.227
  773SOL    HW2 2338   1.345   3.095   3.370
  774SOL     OW 2339   0.809   1.866   2.364
  774SOL    HW1 2340   0.849   1.957   2.355
  774SOL    HW2 2341   0.709   1.874   2.370
  775SOL     OW 2342   0.197   2.838   3.126
  775SOL    HW1 2343   0.286   2.793   3.112
  775SOL    HW2 2344   0.124   2.773   3.107
  776SOL     OW 2345   1.525   2.861   2.052
  776SOL    HW1 2346   1.462   2.785   2.065
  776SOL    HW2 2347   1.573   2.879   2.138
  777SOL     OW 2348   1.187   3.654   3.478
  777SOL    HW1 2349   1.211   3.714   3.402
  777SOL    HW2 2350   1.194   3.559   3.448
  778SOL     OW 2351   0.317   2.113   3.663
  778SOL    HW1 2352   0.388   2.184   3.669
  778SOL    HW2 2353   0.229   2.152   3.691
  779SOL     OW 2354   1.466   3.279   2.815
  779SOL    HW1 2355   1.407   3.285   2.895
  779SOL    HW2 2356   1.451   3.191   2.769
  780SOL     OW 2357   1.667   3.576   2.434
  780SOL    HW1 2358   1.626   3.553   2.346
  780SOL    HW2 2359   1.649   3.502   2.499
  781SOL     OW 2360   0.598   2.591   2.132
  781SOL    HW1 2361   0.622   2.660   2.064
  781SOL    HW2 2362   0.520   2.624   2.186
  782SOL     OW 2363   1.281   2.207   2.806
  782SOL    HW1 2364   1.195   2.157   2.793
  782SOL    HW2 2365   1.343   2.153   2.862
  783SOL     OW 2366   1.576   3.524   2.169
  783SOL    HW1 2367   1.665   3.570   2.172
  783SOL    HW2 2368   1.555   3.500   2.074
  784SOL     OW 2369   0.807   2.467   3.327
  784SOL    HW1 2370   0.760   2.464   3.416
  784SOL    HW2 2371   0.756   2.412   3.261
  785SOL     OW 2372   1.394   2.331   3.536
  785SOL    HW1 2373   1.374   2.374   3.624
  785SOL    HW2 2374   1.472   2.269   3.545
  786SOL     OW 2375   0.973   2.752   3.434
  786SOL    HW1 2376   1.019   2.668   3.405
  786SOL    HW2 2377   0.917   2.786   3.359
  787SOL     OW 2378   0.991   2.272   3.104
  787SOL    HW1 2379   0.914   2.306   3.158
  787SOL    HW2 2380   0.957   2.221   3.025
  788SOL     OW 2381   1.041   2.563   2.291
  788SOL    HW1 2382   1.067   2.559   2.387
  788SOL    HW2 2383   0.956   2.512   2.277
  789SOL     OW 2384   0.076   2.673   2.651
  789SOL    HW1 2385   0.175   2.661   2.660
  789SOL    HW2 2386   0.052   2.768   2.672
  790SOL     OW 2387   0.130   3.683   3.433
  790SOL    HW1 2388   0.120   3.668   3.532
  790SOL    HW2 2389   0.044   3.719   3.397
  791SOL     OW 2390   0.865   2.210   2.057
  791SOL    HW1 2391   0.924   2.273   2.008
  791SOL    HW2 2392   0.884   2.116   2.028
  792SOL     OW 2393   1.719   2.447   3.693
  792SOL    HW1 2394   1.693   2.536   3.657
  792SOL    HW2 2395   1.717   2.379   3.620
  793SOL     OW 2396   1.362   3.006   2.407
  793SOL    HW1 2397   1.445   2.977   2.359
  793SOL    HW2 2398   1.313   3.073   2.351
  794SOL     OW 2399   0.550   2.058   2.747
  794SOL    HW1 2400   0.545   2.053   2.847
  794SOL    HW2 2401   0.552   2.154   2.718
  795SOL     OW 2402   1.008   3.318   2.339
  795SOL    HW1 2403   0.962   3.390   2.287
  795SOL    HW2 2404   1.004   3.338   2.437
  796SOL     OW 2405   0.351   3.663   2.715
  796SOL    HW1 2406   0.401   3.577   2.721
  796SOL    HW2 2407   0.416   3.740   2.712
  797SOL     OW 2408   1.795   2.928   2.735
  797SOL    HW1 2409   1.733   2.913   2.659
  797SOL    HW2 2410   1.743   2.939   2.820
  798SOL     OW 2411   1.227   3.412   3.368
  798SOL    HW1 2412   1.233   3.335   3.432
  798SOL    HW2 2413   1.175   3.386   3.288
  799SOL     OW 2414   0.321   2.805   2.104
  799SOL    HW1 2415   0.403   2.844   2.062
  799SOL    HW2 2416   0.294   2.723   2.055
  800SOL     OW 2417   1.458   2.597   2.590
  800SOL    HW1 2418   1.453   2.532   2.665
  800SOL    HW2 2419   1.538   2.656   2.603
  801SOL     OW 2420   0.461   3.128   3.589
  801SOL    HW1 2421   0.411   3.129   3.503
  801SOL    HW2 2422   0.398   3.110   3.665
  802SOL     OW 2423   1.111   3.638   2.099
  802SOL    HW1 2424   1.051   3.576   2.149
  802SOL    HW2 2425   1.142   3.594   2.014
  803SOL     OW 2426   0.202   2.147   3.360
  803SOL    HW1 2427   0.122   2.207   3.347
  803SOL    HW2 2428   0.192   2.098   3.446
  804SOL     OW 2429   1.632   3.239   1.943
  804SOL    HW1 2430   1.600   3.333   1.933
  804SOL    HW2 2431   1.556   3.176   1.931
  805SOL     OW 2432   0.464   3.605   2.185
  805SOL    HW1 2433   0.497   3.644   2.271
  805SOL    HW2 2434   0.540   3.598   2.120
  806SOL     OW 2435   1.400   1.969   2.288
  806SOL    HW1 2436   1.376   1.932   2.198
  806SOL    HW2 2437   1.499   1.985   2.292
  807SOL     OW 2438   0.249   3.647   3.103
  807SOL    HW1 2439   0.306   3.582   3.153
  807SOL    HW2 2440   0.233   3.614   3.010
  808SOL     OW 2441   0.940   3.560   2.766
  808SOL    HW1 2442   1.020   3.503   2.787
  808SOL    HW2 2443   0.891   3.520   2.689
  809SOL     OW 2444   0.382   2.562   2.342
  809SOL    HW1 2445   0.427   2.472   2.339
  809SOL    HW2 2446   0.288   2.551   2.375
  810SOL     OW 2447   1.547   2.084   3.591
  810SOL    HW1 2448   1.542   2.121   3.683
  810SOL    HW2 2449   1.475   2.015   3.579
  811SOL     OW 2450   0.614   1.984   1.979
  811SOL    HW1 2451   0.712   1.962   1.986
  811SOL    HW2 2452   0.583   1.967   1.886
  812SOL     OW 2453   0.781   2.126   3.611
  812SOL    HW1 2454   0.848   2.065   3.654
  812SOL    HW2 2455   0.708   2.145   3.676
  813SOL     OW 2456   0.888   3.376   3.057
  813SOL    HW1 2457   0.865   3.351   2.963
  813SOL    HW2 2458   0.949   3.307   3.096
  814SOL     OW 2459   1.351   2.452   3.295
  814SOL    HW1 2460   1.379   2.409   3.380
  814SOL    HW2 2461   1.376   2.548   3.296
  815SOL     OW 2462   0.803   3.264   2.786
  815SOL    HW1 2463   0.893   3.278   2.744
  815SOL    HW2 2464   0.732   3.266   2.715
  816SOL     OW 2465   0.922   2.365   2.761
  816SOL    HW1 2466   0.897   2.356   2.665
  816SOL    HW2 2467   0.970   2.283   2.792
  817SOL     OW 2468   0.539   1.926   2.374
  817SOL    HW1 2469   0.458   1.927   2.432
  817SOL    HW2 2470   0.542   2.009   2.319
  818SOL     OW 2471   1.434   3.050   1.903
  818SOL    HW1 2472   1.466   2.974   1.960
  818SOL    HW2 2473   1.342   3.077   1.933
  819SOL     OW 2474   0.297   1.897   2.033
  819SOL    HW1 2475   0.346   1.981   2.012
  819SOL    HW2 2476   0.359   1.832   2.078
  820SOL     OW 2477   0.935   2.098   2.342
  820SOL    HW1 2478   0.887   2.139   2.264
  820SOL    HW2 2479   1.034   2.096   2.323
  821SOL     OW 2480   1.076   2.545   3.326
  821SOL    HW1 2481   0.996   2.484   3.329
  821SOL    HW2 2482   1.157   2.492   3.302
  822SOL     OW 2483   1.227   3.432   2.655
  822SOL    HW1 2484   1.248   3.506   2.590
  822SOL    HW2 2485   1.295   3.432   2.728
  823SOL     OW 2486   0.459   3.014   2.603
  823SOL    HW1 2487   0.388   2.987   2.668
  823SOL    HW2 2488   0.433   2.986   2.510
  824SOL     OW 2489   1.271   3.659   2.453
  824SOL    HW1 2490   1.315   3.723   2.389
  824SOL    HW2 2491   1.221   3.711   2.523
  825SOL     OW 2492   1.032   2.411   1.878
  825SOL    HW1 2493   0.991   2.493   1.839
  825SOL    HW2 2494   1.096   2.437   1.951
  826SOL     OW 2495   0.078   2.418   3.248
  826SOL    HW1 2496   0.170   2.417   3.207
  826SOL    HW2 2497   0.072   2.492   3.315
  827SOL     OW 2498   0.561   2.084   3.009
  827SOL    HW1 2499   0.599   2.000   3.046
  827SOL    HW2 2500   0.473   2.103   3.053
  828SOL     OW 2501   0.866   2.316   2.504
  828SOL    HW1 2502   0.834   2.388   2.442
  828SOL    HW2 2503   0.890   2.235   2.451
  829SOL     OW 2504   1.017   1.901   2.615
  829SOL    HW1 2505   0.945   1.906   2.546
  829SOL    HW2 2506   0.993   1.832   2.684
  830SOL     OW 2507   1.429   3.035   2.729
  830SOL    HW1 2508   1.374   2.951   2.722
  830SOL    HW2 2509   1.455   3.064   2.637
  831SOL     OW 2510   1.466   2.452   2.854
  831SOL    HW1 2511   1.436   2.357   2.861
  831SOL    HW2 2512   1.539   2.468   2.920
  832SOL     OW 2513   1.857   2.695   2.239
  832SOL    HW1 2514   1.899   2.631   2.303
  832SOL    HW2 2515   1.819   2.644   2.161
  833SOL     OW 2516   0.488   3.247   2.036
  833SOL    HW1 2517   0.401   3.232   2.083
  833SOL    HW2 2518   0.471   3.273   1.941
  834SOL     OW 2519   1.664   3.142   2.519
  834SOL    HW1 2520   1.763   3.150   2.533
  834SOL    HW2 2521   1.619   3.226   2.550
  835SOL     OW 2522   1.390   2.437   1.940
  835SOL    HW1 2523   1.336   2.416   2.021
  835SOL    HW2 2524   1.481   2.396   1.949
  836SOL     OW 2525   0.527   2.118   2.190
  836SOL    HW1 2526   0.554   2.059   2.115
  836SOL    HW2 2527   0.527   2.213   2.159
  837SOL     OW 2528   1.754   3.085   3.450
  837SOL    HW1 2529   1.845   3.046   3.437
  837SOL    HW2 2530   1.762   3.181   3.474
  838SOL     OW 2531   1.064   3.209   3.202
  838SOL    HW1 2532   0.984   3.186   3.257
  838SOL    HW2 2533   1.147   3.183   3.251
  839SOL     OW 2534   1.592   3.491   3.487
  839SOL    HW1 2535   1.619   3.525   3.397
  839SOL    HW2 2536   1.671   3.453   3.533
  840SOL     OW 2537   1.111   3.057   2.962
  840SOL    HW1 2538   1.071   3.101   3.043
  840SOL    HW2 2539   1.070   3.094   2.879
  841SOL     OW 2540   1.638   2.961   2.941
  841SOL    HW1 2541   1.643   3.042   3.000
  841SOL    HW2 2542   1.552   2.963   2.890
  842SOL     OW 2543   0.915   1.951   3.264
  842SOL    HW1 2544   0.940   1.931   3.169
  842SOL    HW2 2545   0.987   2.007   3.306
  843SOL     OW 2546   0.980   2.978   3.581
  843SOL    HW1 2547   0.881   2.984   3.591
  843SOL    HW2 2548   1.003   2.898   3.525
  844SOL     OW 2549   0.705   2.912   2.230
  844SOL    HW1 2550   0.691   2.919   2.329
  844SOL    HW2 2551   0.789   2.861   2.212
  845SOL     OW 2552   0.410   2.675   3.113
  845SOL    HW1 2553   0.496   2.687   3.163
  845SOL    HW2 2554   0.368   2.588   3.140
  846SOL     OW 2555   1.274   2.248   3.124
  846SOL    HW1 2556   1.295   2.322   3.188
  846SOL    HW2 2557   1.185   2.265   3.081
  847SOL     OW 2558   0.064   3.426   3.193
  847SOL    HW1 2559   0.018   3.508   3.159
  847SOL    HW2 2560   0.162   3.445   3.202
  848SOL     OW 2561   0.367   2.962   2.363
  848SOL    HW1 2562   0.360   3.045   2.307
  848SOL    HW2 2563   0.371   2.882   2.303
  849SOL     OW 2564   0.566   2.399   2.727
  849SOL    HW1 2565   0.578   2.465   2.653
  849SOL    HW2 2566   0.612   2.433   2.810
  850SOL     OW 2567   1.252   3.210   2.250
  850SOL    HW1 2568   1.302   3.287   2.290
  850SOL    HW2 2569   1.157   3.212   2.282
  851SOL     OW 2570   1.272   3.307   3.004
  851SOL    HW1 2571   1.319   3.320   3.091
  851SOL    HW2 2572   1.206   3.233   3.013
  852SOL     OW 2573   1.582   2.501   2.334
  852SOL    HW1 2574   1.551   2.562   2.407
  852SOL    HW2 2575   1.632   2.553   2.265
  853SOL     OW 2576   0.354   3.372   3.191
  853SOL    HW1 2577   0.333   3.328   3.104
  853SOL    HW2 2578   0.451   3.398   3.194
  854SOL     OW 2579   0.402   2.613   3.460
  854SOL    HW1 2580   0.470   2.668   3.413
  854SOL    HW2 2581   0.442   2.525   3.487
  855SOL     OW 2582   1.587   2.641   3.532
  855SOL    HW1 2583   1.495   2.679   3.527
  855SOL    HW2 2584   1.647   2.688   3.467
  856SOL     OW 2585   1.013   1.967   3.632
  856SOL    HW1 2586   1.019   2.052   3.580
  856SOL    HW2 2587   1.045   1.891   3.575
  857SOL     OW 2588   0.504   1.912   3.602
  857SOL    HW1 2589   0.462   1.855   3.532
  857SOL    HW2 2590   0.438   1.981   3.634
  858SOL     OW 2591   0.573   2.732   2.891
  858SOL    HW1 2592   0.617   2.821   2.882
  858SOL    HW2 2593   0.510   2.732   2.968
  859SOL     OW 2594   1.360   2.724   2.907
  859SOL    HW1 2595   1.285   2.724   2.841
  859SOL    HW2 2596   1.397   2.632   2.916
  860SOL     OW 2597   1.209   2.387   2.137
  860SOL    HW1 2598   1.222   2.303   2.191
  860SOL    HW2 2599   1.180   2.461   2.197
  861SOL     OW 2600   0.307   2.075   3.093
  861SOL    HW1 2601   0.284   2.112   3.183
  861SOL    HW2 2602   0.277   1.980   3.087
  862SOL     OW 2603   0.037   3.172   3.144
  862SOL    HW1 2604   0.090   3.123   3.212
  862SOL    HW2 2605   0.059   3.270   3.149
  863SOL     OW 2606   0.732   2.496   2.926
  863SOL    HW1 2607   0.791   2.470   2.850
  863SOL    HW2 2608   0.704   2.592   2.915
  864SOL     OW 2609   1.728   2.797   3.716
  864SOL    HW1 2610   1.682   2.790   3.627
  864SOL    HW2 2611   1.666   2.841   3.782
  865SOL     OW 2612   0.307   1.925   2.480
  865SOL    HW1 2613   0.296   2.019   2.513
  865SOL    HW2 2614   0.302   1.862   2.557
  866SOL     OW 2615   1.622   2.229   2.236
  866SOL    HW1 2616   1.624   2.153   2.300
  866SOL    HW2 2617   1.574   2.306   2.276
  867SOL     OW 2618   1.023   2.628   2.828
  867SOL    HW1 2619   1.038   2.649   2.924
  867SOL    HW2 2620   0.993   2.533   2.819
  868SOL     OW 2621   0.980   3.435   3.562
  868SOL    HW1 2622   0.960   3.479   3.474
  868SOL    HW2 2623   1.019   3.344   3.546
  869SOL     OW 2624   1.859   3.380   3.467
  869SOL    HW1 2625   1.873   3.407   3.372
  869SOL    HW2 2626   1.942   3.402   3.520
  870SOL     OW 2627   0.350   2.760   3.666
  870SOL    HW1 2628   0.426   2.804   3.714
  870SOL    HW2 2629   0.385   2.713   3.584
  871SOL     OW 2630   1.540   2.136   1.987
  871SOL    HW1 2631   1.479   2.061   2.010
  871SOL    HW2 2632   1.562   2.188   2.070
  872SOL     OW 2633   1.303   2.700   1.904
  872SOL    HW1 2634   1.337   2.607   1.919
  872SOL    HW2 2635   1.321   2.727   1.809
  873SOL     OW 2636   1.068   3.195   2.711
  873SOL    HW1 2637   1.075   3.111   2.656
  873SOL    HW2 2638   1.130   3.264   2.675
  874SOL     OW 2639   0.319   2.672   2.811
  874SOL    HW1 2640   0.412   2.708   2.816
  874SOL    HW2 2641   0.313   2.587   2.863
  875SOL     OW 2642   0.339   2.371   2.868
  875SOL    HW1 2643   0.287   2.288   2.851
  875SOL    HW2 2644   0.416   2.376   2.804
  876SOL     OW 2645   1.138   2.242   3.540
  876SOL    HW1 2646   1.093   2.305   3.604
  876SOL    HW2 2647   1.231   2.273   3.523
  877SOL     OW 2648   1.160   2.069   3.339
  877SOL    HW1 2649   1.160   2.133   3.416
  877SOL    HW2 2650   1.188   2.117   3.256
  878SOL     OW 2651   0.008   3.188   2.062
  878SOL    HW1 2652  -0.085   3.209   2.031
  878SOL    HW2 2653   0.018   3.089   2.075
  879SOL     OW 2654   0.088   3.663   2.789
  879SOL    HW1 2655   0.046   3.577   2.762
  879SOL    HW2 2656   0.182   3.666   2.755
  880SOL     OW 2657   0.504   3.430   2.772
  880SOL    HW1 2658   0.570   3.504   2.781
  880SOL    HW2 2659   0.548   3.351   2.730
  881SOL     OW 2660   1.002   2.658   3.100
  881SOL    HW1 2661   1.043   2.626   3.186
  881SOL    HW2 2662   0.906   2.631   3.097
  882SOL     OW 2663   0.040   2.406   2.976
  882SOL    HW1 2664   0.125   2.373   2.935
  882SOL    HW2 2665   0.053   2.421   3.074
  883SOL     OW 2666   0.189   2.382   3.584
  883SOL    HW1 2667   0.248   2.342   3.514
  883SOL    HW2 2668   0.131   2.453   3.543
  884SOL     OW 2669   1.369   2.812   3.522
  884SOL    HW1 2670   1.408   2.901   3.542
  884SOL    HW2 2671   1.379   2.792   3.425
  885SOL     OW 2672   0.815   2.434   2.187
  885SOL    HW1 2673   0.822   2.345   2.141
  885SOL    HW2 2674   0.721   2.468   2.179
  886SOL     OW 2675   1.657   2.466   3.068
  886SOL    HW1 2676   1.619   2.397   3.130
  886SOL    HW2 2677   1.739   2.430   3.024
  887SOL     OW 2678   0.252   3.426   3.606
  887SOL    HW1 2679   0.222   3.483   3.682
  887SOL    HW2 2680   0.245   3.329   3.632
  888SOL     OW 2681   0.671   2.326   3.131
  888SOL    HW1 2682   0.637   2.237   3.101
  888SOL    HW2 2683   0.697   2.380   3.051
  889SOL     OW 2684   0.930   3.540   3.327
  889SOL    HW1 2685   0.906   3.522   3.232
  889SOL    HW2 2686   0.960   3.634   3.337
  890SOL     OW 2687   0.473   2.362   2.053
  890SOL    HW1 2688   0.534   2.442   2.057
  890SOL    HW2 2689   0.378   2.393   2.060
  891SOL     OW 2690   0.159   2.999   3.328
  891SOL    HW1 2691   0.181   2.938   3.404
  891SOL    HW2 2692   0.169   2.950   3.242
  892SOL     OW 2693   1.347   2.921   3.096
  892SOL    HW1 2694   1.371   2.858   3.022
  892SOL    HW2 2695   1.257   2.961   3.078
  893SOL     OW 2696   1.302   2.717   2.171
  893SOL    HW1 2697   1.216   2.686   2.213
  893SOL    HW2 2698   1.298   2.703   2.072
  894SOL     OW 2699   1.759   3.609   3.016
  894SOL    HW1 2700   1.820   3.639   2.943
  894SOL    HW2 2701   1.721   3.520   2.994
  895SOL     OW 2702   1.252   3.593   2.990
  895SOL    HW1 2703   1.336   3.598   2.936
  895SOL    HW2 2704   1.229   3.497   3.008
  896SOL     OW 2705   0.083   3.120   2.884
  896SOL    HW1 2706   0.078   3.119   2.984
  896SOL    HW2 2707   0.000   3.079   2.846
  897SOL     OW 2708   0.688   3.524   3.578
  897SOL    HW1 2709   0.632   3.605   3.587
  897SOL    HW2 2710   0.740   3.528   3.492
  898SOL     OW 2711   1.726   1.997   2.385
  898SOL    HW1 2712   1.799   1.980   2.318
  898SOL    HW2 2713   1.695   1.910   2.423
  899SOL     OW 2714   1.388   3.435   2.339
  899SOL    HW1 2715   1.455   3.447   2.265
  899SOL    HW2 2716   1.348   3.524   2.362
  900SOL     OW 2717   0.130   3.656   3.713
  900SOL    HW1 2718   0.089   3.582   3.766
  900SOL    HW2 2719   0.194   3.707   3.771
  901SOL     OW 2720   1.280   2.789   2.534
  901SOL    HW1 2721   1.340   2.708   2.536
  901SOL    HW2 2722   1.320   2.858   2.474
  902SOL     OW 2723   0.830   3.135   3.284
  902SOL    HW1 2724   0.825   3.168   3.379
  902SOL    HW2 2725   0.744   3.154   3.238
  903SOL     OW 2726   0.672   3.478   2.016
  903SOL    HW1 2727   0.681   3.488   1.917
  903SOL    HW2 2728   0.632   3.389   2.037
  904SOL     OW 2729   1.650   3.582   3.256
  904SOL    HW1 2730   1.703   3.592   3.172
  904SOL    HW2 2731   1.623   3.672   3.290
  905SOL     OW 2732   1.841   2.037   2.825
  905SOL    HW1 2733   1.880   1.952   2.789
  905SOL    HW2 2734   1.743   2.039   2.806
  906SOL     OW 2735   0.263   2.188   2.582
  906SOL    HW1 2736   0.184   2.239   2.548
  906SOL    HW2 2737   0.254   2.173   2.680
  907SOL     OW 2738   1.194   3.474   1.893
  907SOL    HW1 2739   1.200   3.381   1.930
  907SOL    HW2 2740   1.135   3.474   1.813
  908SOL     OW 2741   0.822   2.864   3.234
  908SOL    HW1 2742   0.862   2.863   3.142
  908SOL    HW2 2743   0.832   2.956   3.274
  909SOL     OW 2744   0.916   2.772   2.153
  909SOL    HW1 2745   0.979   2.810   2.085
  909SOL    HW2 2746   0.956   2.689   2.192
  910SOL     OW 2747   1.504   3.469   1.906
  910SOL    HW1 2748   1.412   3.506   1.913
  910SOL    HW2 2749   1.542   3.489   1.816
  911SOL     OW 2750   0.372   3.150   3.352
  911SOL    HW1 2751   0.359   3.243   3.318
  911SOL    HW2 2752   0.288   3.098   3.339
  912SOL     OW 2753   1.614   3.154   3.151
  912SOL    HW1 2754   1.674   3.157   3.231
  912SOL    HW2 2755   1.539   3.218   3.164
  913SOL     OW 2756   1.039   2.960   2.558
  913SOL    HW1 2757   0.969   2.913   2.612
  913SOL    HW2 2758   1.098   2.892   2.515
  914SOL     OW 2759   1.014   2.098   2.833
  914SOL    HW1 2760   1.006   2.062   2.740
  914SOL    HW2 2761   1.012   2.022   2.898
  915SOL     OW 2762   0.590   3.349   2.353
  915SOL    HW1 2763   0.632   3.291   2.283
  915SOL    HW2 2764   0.546   3.428   2.309
  916SOL     OW 2765   1.709   2.247   3.243
  916SOL    HW1 2766   1.782   2.316   3.247
  916SOL    HW2 2767   1.737   2.172   3.184
  917SOL     OW 2768   0.255   3.210   2.152
  917SOL    HW1 2769   0.159   3.211   2.125
  917SOL    HW2 2770   0.267   3.263   2.236
  918SOL     OW 2771   0.105   2.875   3.588
  918SOL    HW1 2772   0.028   2.842   3.642
  918SOL    HW2 2773   0.190   2.845   3.630
  919SOL     OW 2774   0.672   2.065   3.351
  919SOL    HW1 2775   0.762   2.049   3.311
  919SOL    HW2 2776   0.680   2.070   3.450
  920SOL     OW 2777   0.075   2.207   1.895
  920SOL    HW1 2778  -0.017   2.179   1.866
  920SOL    HW2 2779   0.106   2.284   1.839
  921SOL     OW 2780   1.440   2.718   3.260
  921SOL    HW1 2781   1.383   2.770   3.197
  921SOL    HW2 2782   1.536   2.730   3.236
  922SOL     OW 2783   0.072   2.028   2.180
  922SOL    HW1 2784   0.055   2.111   2.126
  922SOL    HW2 2785   0.162   1.991   2.158
  923SOL     OW 2786   1.183   3.197   1.981
  923SOL    HW1 2787   1.084   3.186   1.983
  923SOL    HW2 2788   1.217   3.212   2.074
  924SOL     OW 2789   0.613   2.704   3.293
  924SOL    HW1 2790   0.669   2.785   3.276
  924SOL    HW2 2791   0.672   2.624   3.296
  925SOL     OW 2792   1.493   3.629   2.821
  925SOL    HW1 2793   1.526   3.693   2.752
  925SOL    HW2 2794   1.559   3.623   2.896
  926SOL     OW 2795   0.716   2.427   3.570
  926SOL    HW1 2796   0.735   2.492   3.644
  926SOL    HW2 2797   0.776   2.347   3.579
  927SOL     OW 2798   1.450   3.082   3.495
  927SOL    HW1 2799   1.441   3.072   3.594
  927SOL    HW2 2800   1.546   3.075   3.469
  928SOL     OW 2801   0.390   3.603   3.422
  928SOL    HW1 2802   0.299   3.644   3.420
  928SOL    HW2 2803   0.383   3.509   3.454
  929SOL     OW 2804   1.674   2.745   3.116
  929SOL    HW1 2805   1.647   2.656   3.079
  929SOL    HW2 2806   1.675   2.813   3.043
  930SOL     OW 2807   1.225   2.187   2.311
  930SOL    HW1 2808   1.290   2.113   2.300
  930SOL    HW2 2809   1.245   2.237   2.395
  931SOL     OW 2810   0.594   2.607   2.514
  931SOL    HW1 2811   0.644   2.692   2.495
  931SOL    HW2 2812   0.506   2.609   2.466
  932SOL     OW 2813   1.777   2.204   3.504
  932SOL    HW1 2814   1.760   2.235   3.410
  932SOL    HW2 2815   1.693   2.167   3.542
  933SOL     OW 2816   1.730   2.796   3.379
  933SOL    HW1 2817   1.768   2.887   3.394
  933SOL    HW2 2818   1.722   2.779   3.280
  934SOL     OW 2819   0.859   3.236   1.878
  934SOL    HW1 2820   0.813   3.251   1.966
  934SOL    HW2 2821   0.903   3.321   1.848
  935SOL     OW 2822   0.661   3.652   2.815
  935SOL    HW1 2823   0.615   3.740   2.802
  935SOL    HW2 2824   0.760   3.664   2.808
  936SOL     OW 2825   0.859   2.818   2.723
  936SOL    HW1 2826   0.913   2.749   2.771
  936SOL    HW2 2827   0.827   2.887   2.789
  937SOL     OW 2828   1.083   2.846   1.949
  937SOL    HW1 2829   1.060   2.899   1.867
  937SOL    HW2 2830   1.164   2.790   1.930
  938SOL     OW 2831   1.861   3.431   2.713
  938SOL    HW1 2832   1.790   3.419   2.643
  938SOL    HW2 2833   1.862   3.352   2.773
  939SOL     OW 2834   0.221   3.176   3.706
  939SOL    HW1 2835   0.156   3.103   3.685
  939SOL    HW2 2836   0.225   3.190   3.804
  940SOL     OW 2837   0.079   3.102   2.515
  940SOL    HW1 2838   0.078   3.055   2.603
  940SOL    HW2 2839   0.161   3.074   2.464
  941SOL     OW 2840   0.672   3.253   3.486
  941SOL    HW1 2841   0.594   3.203   3.524
  941SOL    HW2 2842   0.669   3.348   3.517
  942SOL     OW 2843   1.824   2.054   3.089
  942SOL    HW1 2844   1.820   1.964   3.133
  942SOL    HW2 2845   1.827   2.043   2.990
  943SOL     OW 2846   0.428   2.286   2.382
  943SOL    HW1 2847   0.458   2.214   2.320
  943SOL    HW2 2848   0.389   2.246   2.465
  944SOL     OW 2849   1.705   3.349   2.966
  944SOL    HW1 2850   1.612   3.324   2.939
  944SOL    HW2 2851   1.731   3.299   3.048
  945SOL     OW 2852   0.317   2.409   3.142
  945SOL    HW1 2853   0.355   2.350   3.214
  945SOL    HW2 2854   0.357   2.383   3.054
  946SOL     OW 2855   0.812   3.448   2.549
  946SOL    HW1 2856   0.844   3.458   2.455
  946SOL    HW2 2857   0.733   3.386   2.551
  947SOL     OW 2858   1.424   2.076   2.974
  947SOL    HW1 2859   1.476   2.011   3.029
  947SOL    HW2 2860   1.375   2.139   3.035
  948SOL     OW 2861   1.001   1.896   3.016
  948SOL    HW1 2862   0.938   1.824   2.985
  948SOL    HW2 2863   1.094   1.860   3.016
  949SOL     OW 2864   0.770   3.192   2.163
  949SOL    HW1 2865   0.724   3.105   2.180
  949SOL    HW2 2866   0.861   3.189   2.204
  950SOL     OW 2867   0.618   3.429   3.146
  950SOL    HW1 2868   0.613   3.511   3.203
  950SOL    HW2 2869   0.707   3.426   3.101
  951SOL     OW 2870   1.352   1.914   2.030
  951SOL    HW1 2871   1.387   1.873   1.946
  951SOL    HW2 2872   1.262   1.876   2.050
  952SOL     OW 2873   1.300   2.315   2.553
  952SOL    HW1 2874   1.241   2.395   2.557
  952SOL    HW2 2875   1.315   2.280   2.646
  953SOL     OW 2876   1.593   2.083   2.744
  953SOL    HW1 2877   1.509   2.082   2.798
  953SOL    HW2 2878   1.595   2.166   2.688
  954SOL     OW 2879   0.039   2.939   2.162
  954SOL    HW1 2880   0.138   2.928   2.153
  954SOL    HW2 2881  -0.001   2.853   2.194
  955SOL     OW 2882   0.875   3.508   2.199
  955SOL    HW1 2883   0.798   3.473   2.145
  955SOL    HW2 2884   0.843   3.579   2.261
  956SOL     OW 2885   0.230   2.490   3.837
  956SOL    HW1 2886   0.137   2.488   3.874
  956SOL    HW2 2887   0.231   2.451   3.745
  957SOL     OW 2888   0.019   2.230   4.371
  957SOL    HW1 2889  -0.063   2.273   4.410
  957SOL    HW2 2890  -0.009   2.157   4.308
  958SOL     OW 2891   1.555   3.373   4.427
  958SOL    HW1 2892   1.498   3.357   4.508
  958SOL    HW2 2893   1.496   3.383   4.347
  959SOL     OW 2894   1.135   2.565   4.441
  959SOL    HW1 2895   1.192   2.643   4.416
  959SOL    HW2 2896   1.075   2.591   4.517
  960SOL     OW 2897   1.755   2.469   3.955
  960SOL    HW1 2898   1.743   2.456   3.856
  960SOL    HW2 2899   1.725   2.388   4.004
  961SOL     OW 2900   0.685   2.874   4.389
  961SOL    HW1 2901   0.754   2.858   4.459
  961SOL    HW2 2902   0.612   2.931   4.427
  962SOL     OW 2903   1.603   2.309   4.461
  962SOL    HW1 2904   1.529   2.355   4.411
  962SOL    HW2 2905   1.654   2.377   4.514
  963SOL     OW 2906   0.231   3.575   4.207
  963SOL    HW1 2907   0.265   3.652   4.261
  963SOL    HW2 2908   0.275   3.575   4.117
  964SOL     OW 2909   0.230   3.296   4.262
  964SOL    HW1 2910   0.204   3.392   4.262
  964SOL    HW2 2911   0.159   3.242   4.307
  965SOL     OW 2912   0.240   2.953   4.610
  965SOL    HW1 2913   0.254   2.869   4.662
  965SOL    HW2 2914   0.185   3.017   4.665
  966SOL     OW 2915   0.606   2.826   3.847
  966SOL    HW1 2916   0.613   2.910   3.793
  966SOL    HW2 2917   0.652   2.839   3.935
  967SOL     OW 2918   0.122   2.505   4.287
  967SOL    HW1 2919   0.077   2.417   4.304
  967SOL    HW2 2920   0.121   2.559   4.371
  968SOL     OW 2921   1.842   3.629   4.083
  968SOL    HW1 2922   1.896   3.600   4.163
  968SOL    HW2 2923   1.872   3.719   4.054
  969SOL     OW 2924   0.027   3.458   3.841
  969SOL    HW1 2925   0.008   3.362   3.862
  969SOL    HW2 2926  -0.006   3.516   3.916
  970SOL     OW 2927   1.689   2.784   4.336
  970SOL    HW1 2928   1.784   2.755   4.344
  970SOL    HW2 2929   1.681   2.849   4.261
  971SOL     OW 2930   1.641   2.970   4.156
  971SOL    HW1 2931   1.727   2.972   4.104
  971SOL    HW2 2932   1.655   3.017   4.244
  972SOL     OW 2933   0.613   3.227   4.450
  972SOL    HW1 2934   0.564   3.140   4.459
  972SOL    HW2 2935   0.590   3.270   4.363
  973SOL     OW 2936   0.809   1.866   4.226
  973SOL    HW1 2937   0.849   1.957   4.217
  973SOL    HW2 2938   0.709   1.874   4.232
  974SOL     OW 2939   1.525   2.861   3.914
  974SOL    HW1 2940   1.462   2.785   3.927
  974SOL    HW2 2941   1.573   2.879   4.000
  975SOL     OW 2942   1.466   3.279   4.677
  975SOL    HW1 2943   1.407   3.285   4.757
  975SOL    HW2 2944   1.451   3.191   4.631
  976SOL     OW 2945   1.667   3.576   4.296
  976SOL    HW1 2946   1.626   3.553   4.208
  976SOL    HW2 2947   1.649   3.502   4.361
  977SOL     OW 2948   0.598   2.591   3.994
  977SOL    HW1 2949   0.622   2.660   3.926
  977SOL    HW2 2950   0.520   2.624   4.048
  978SOL     OW 2951   1.281   2.207   4.668
  978SOL    HW1 2952   1.195   2.157   4.655
  978SOL    HW2 2953   1.343   2.153   4.724
  979SOL     OW 2954   1.576   3.524   4.031
  979SOL    HW1 2955   1.665   3.570   4.034
  979SOL    HW2 2956   1.555   3.500   3.936
  980SOL     OW 2957   1.041   2.563   4.153
  980SOL    HW1 2958   1.067   2.559   4.249
  980SOL    HW2 2959   0.956   2.512   4.139
  981SOL     OW 2960   0.076   2.673   4.513
  981SOL    HW1 2961   0.175   2.661   4.522
  981SOL    HW2 2962   0.052   2.768   4.534
  982SOL     OW 2963   0.865   2.210   3.919
  982SOL    HW1 2964   0.924   2.273   3.870
  982SOL    HW2 2965   0.884   2.116   3.890
  983SOL     OW 2966   1.362   3.006   4.269
  983SOL    HW1 2967   1.445   2.977   4.221
  983SOL    HW2 2968   1.313   3.073   4.213
  984SOL     OW 2969   0.550   2.058   4.609
  984SOL    HW1 2970   0.545   2.053   4.709
  984SOL    HW2 2971   0.552   2.154   4.580
  985SOL     OW 2972   1.008   3.318   4.201
  985SOL    HW1 2973   0.962   3.390   4.149
  985SOL    HW2 2974   1.004   3.338   4.299
  986SOL     OW 2975   0.351   3.663   4.577
  986SOL    HW1 2976   0.401   3.577   4.583
  986SOL    HW2 2977   0.416   3.740   4.574
  987SOL     OW 2978   1.795   2.928   4.597
  987SOL    HW1 2979   1.733   2.913   4.521
  987SOL    HW2 2980   1.743   2.939   4.682
  988SOL     OW 2981   0.321   2.805   3.966
  988SOL    HW1 2982   0.403   2.844   3.924
  988SOL    HW2 2983   0.294   2.723   3.917
  989SOL     OW 2984   1.458   2.597   4.452
  989SOL    HW1 2985   1.453   2.532   4.527
  989SOL    HW2 2986   1.538   2.656   4.465
  990SOL     OW 2987   1.111   3.638   3.961
  990SOL    HW1 2988   1.051   3.576   4.011
  990SOL    HW2 2989   1.142   3.594   3.876
  991SOL     OW 2990   1.632   3.239   3.805
  991SOL    HW1 2991   1.600   3.333   3.795
  991SOL    HW2 2992   1.556   3.176   3.793
  992SOL     OW 2993   0.464   3.605   4.047
  992SOL    HW1 2994   0.497   3.644   4.133
  992SOL    HW2 2995   0.540   3.598   3.982
  993SOL     OW 2996   1.400   1.969   4.150
  993SOL    HW1 2997   1.376   1.932   4.060
  993SOL    HW2 2998   1.499   1.985   4.154
  994SOL     OW 2999   0.382   2.562   4.204
  994SOL    HW1 3000   0.427   2.472   4.201
  994SOL    HW2 3001   0.288   2.551   4.237
  995SOL     OW 3002   0.614   1.984   3.841
  995SOL    HW1 3003   0.712   1.962   3.848
  995SOL    HW2 3004   0.583   1.967   3.748
  996SOL     OW 3005   0.539   1.926   4.236
  996SOL    HW1 3006   0.458   1.927   4.294
  996SOL    HW2 3007   0.542   2.009   4.181
  997SOL     OW 3008   1.434   3.050   3.765
  997SOL    HW1 3009   1.466   2.974   3.822
  997SOL    HW2 3010   1.342   3.077   3.795
  998SOL     OW 3011   0.297   1.897   3.895
  998SOL    HW1 3012   0.346   1.981   3.874
  998SOL    HW2 3013   0.359   1.832   3.940
  999SOL     OW 3014   0.935   2.098   4.204
  999SOL    HW1 3015   0.887   2.139   4.126
  999SOL    HW2 3016   1.034   2.096   4.185
 1000SOL     OW 3017   1.227   3.432   4.517
 1000SOL    HW1 3018   1.248   3.506   4.452
 1000SOL    HW2 3019   1.295   3.432   4.590
 1001SOL     OW 3020   0.459   3.014   4.465
 1001SOL    HW1 3021   0.388   2.987   4.530
 1001SOL    HW2 3022   0.433   2.986   4.372
 1002SOL     OW 3023   1.271   3.659   4.315
 1002SOL    HW1 3024   1.315   3.723   4.251
 1002SOL    HW2 3025   1.221   3.711   4.385
 1003SOL     OW 3026   1.032   2.411   3.740
 1003SOL    HW1 3027   0.991   2.493   3.701
 1003SOL    HW2 3028   1.096   2.437   3.813
 1004SOL     OW 3029   0.866   2.316   4.366
 1004SOL    HW1 3030   0.834   2.388   4.304
 1004SOL    HW2 3031   0.890   2.235   4.313
 1005SOL     OW 3032   1.017   1.901   4.477
 1005SOL    HW1 3033   0.945   1.906   4.408
 1005SOL    HW2 3034   0.993   1.832   4.546
 1006SOL     OW 3035   1.857   2.695   4.101
 1006SOL    HW1 3036   1.899   2.631   4.165
 1006SOL    HW2 3037   1.819   2.644   4.023
 1007SOL     OW 3038   0.488   3.247   3.898
 1007SOL    HW1 3039   0.401   3.232   3.945
 1007SOL    HW2 3040   0.471   3.273   3.803
 1008SOL     OW 3041   1.664   3.142   4.381
 1008SOL    HW1 3042   1.763   3.150   4.395
 1008SOL    HW2 3043   1.619   3.226   4.412
 1009SOL     OW 3044   1.390   2.437   3.802
 1009SOL    HW1 3045   1.336   2.416   3.883
 1009SOL    HW2 3046   1.481   2.396   3.811
 1010SOL     OW 3047   0.527   2.118   4.052
 1010SOL    HW1 3048   0.554   2.059   3.977
 1010SOL    HW2 3049   0.527   2.213   4.021
 1011SOL     OW 3050   0.705   2.912   4.092
 1011SOL    HW1 3051   0.691   2.919   4.191
 1011SOL    HW2 3052   0.789   2.861   4.074
 1012SOL     OW 3053   0.367   2.962   4.225
 1012SOL    HW1 3054   0.360   3.045   4.169
 1012SOL    HW2 3055   0.371   2.882   4.165
 1013SOL     OW 3056   0.566   2.399   4.589
 1013SOL    HW1 3057   0.578   2.465   4.515
 1013SOL    HW2 3058   0.612   2.433   4.672
 1014SOL     OW 3059   1.252   3.210   4.112
 1014SOL    HW1 3060   1.302   3.287   4.152
 1014SOL    HW2 3061   1.157   3.212   4.144
 1015SOL     OW 3062   1.582   2.501   4.196
 1015SOL    HW1 3063   1.551   2.562   4.269
 1015SOL    HW2 3064   1.632   2.553   4.127
 1016SOL     OW 3065   1.209   2.387   3.999
 1016SOL    HW1 3066   1.222   2.303   4.053
 1016SOL    HW2 3067   1.180   2.461   4.059
 1017SOL     OW 3068   0.732   2.496   4.788
 1017SOL    HW1 3069   0.791   2.470   4.712
 1017SOL    HW2 3070   0.704   2.592   4.777
 1018SOL     OW 3071   0.307   1.925   4.342
 1018SOL    HW1 3072   0.296   2.019   4.375
 1018SOL    HW2 3073   0.302   1.862   4.419
 1019SOL     OW 3074   1.622   2.229   4.098
 1019SOL    HW1 3075   1.624   2.153   4.162
 1019SOL    HW2 3076   1.574   2.306   4.138
 1020SOL     OW 3077   1.540   2.136   3.849
 1020SOL    HW1 3078   1.479   2.061   3.872
 1020SOL    HW2 3079   1.562   2.188   3.932
 1021SOL     OW 3080   1.303   2.700   3.766
 1021SOL    HW1 3081   1.337   2.607   3.781
 1021SOL    HW2 3082   1.321   2.727   3.671
 1022SOL     OW 3083   1.068   3.195   4.573
 1022SOL    HW1 3084   1.075   3.111   4.518
 1022SOL    HW2 3085   1.130   3.264   4.537
 1023SOL     OW 3086   0.008   3.188   3.924
 1023SOL    HW1 3087  -0.085   3.209   3.893
 1023SOL    HW2 3088   0.018   3.089   3.937
 1024SOL     OW 3089   0.088   3.663   4.651
 1024SOL    HW1 3090   0.046   3.577   4.624
 1024SOL    HW2 3091   0.182   3.666   4.617
 1025SOL     OW 3092   0.504   3.430   4.634
 1025SOL    HW1 3093   0.570   3.504   4.643
 1025SOL    HW2 3094   0.548   3.351   4.592
 1026SOL     OW 3095   0.815   2.434   4.049
 1026SOL    HW1 3096   0.822   2.345   4.003
 1026SOL    HW2 3097   0.721   2.468   4.041
 1027SOL     OW 3098   0.473   2.362   3.915
 1027SOL    HW1 3099   0.534   2.442   3.919
 1027SOL    HW2 3100   0.378   2.393   3.922
 1028SOL     OW 3101   1.302   2.717   4.033
 1028SOL    HW1 3102   1.216   2.686   4.075
 1028SOL    HW2 3103   1.298   2.703   3.934
 1029SOL     OW 3104   1.759   3.609   4.878
 1029SOL    HW1 3105   1.820   3.639   4.805
 1029SOL    HW2 3106   1.721   3.520   4.856
 1030SOL     OW 3107   1.726   1.997   4.247
 1030SOL    HW1 3108   1.799   1.980   4.180
 1030SOL    HW2 3109   1.695   1.910   4.285
 1031SOL     OW 3110   1.388   3.435   4.201
 1031SOL    HW1 3111   1.455   3.447   4.127
 1031SOL    HW2 3112   1.348   3.524   4.224
 1032SOL     OW 3113   1.280   2.789   4.396
 1032SOL    HW1 3114   1.340   2.708   4.398
 1032SOL    HW2 3115   1.320   2.858   4.336
 1033SOL     OW 3116   0.672   3.478   3.878
 1033SOL    HW1 3117   0.681   3.488   3.779
 1033SOL    HW2 3118   0.632   3.389   3.899
 1034SOL     OW 3119   1.841   2.037   4.687
 1034SOL    HW1 3120   1.880   1.952   4.651
 1034SOL    HW2 3121   1.743   2.039   4.668
 1035SOL     OW 3122   0.263   2.188   4.444
 1035SOL    HW1 3123   0.184   2.239   4.410
 1035SOL    HW2 3124   0.254   2.173   4.542
 1036SOL     OW 3125   1.194   3.474   3.755
 1036SOL    HW1 3126   1.200   3.381   3.792
 1036SOL    HW2 3127   1.135   3.474   3.675
 1037SOL     OW 3128   0.916   2.772   4.015
 1037SOL    HW1 3129   0.979   2.810   3.947
 1037SOL    HW2 3130   0.956   2.689   4.054
 1038SOL     OW 3131   1.504   3.469   3.768
 1038SOL    HW1 3132   1.412   3.506   3.775
 1038SOL    HW2 3133   1.542   3.489   3.678
 1039SOL     OW 3134   1.039   2.960   4.420
 1039SOL    HW1 3135   0.969   2.913   4.474
 1039SOL    HW2 3136   1.098   2.892   4.377
 1040SOL     OW 3137   0.590   3.349   4.215
 1040SOL    HW1 3138   0.632   3.291   4.145
 1040SOL    HW2 3139   0.546   3.428   4.171
 1041SOL     OW 3140   0.255   3.210   4.014
 1041SOL    HW1 3141   0.159   3.211   3.987
 1041SOL    HW2 3142   0.267   3.263   4.098
 1042SOL     OW 3143   0.075   2.207   3.757
 1042SOL    HW1 3144  -0.017   2.179   3.728
 1042SOL    HW2 3145   0.106   2.284   3.701
 1043SOL     OW 3146   0.072   2.028   4.042
 1043SOL    HW1 3147   0.055   2.111   3.988
 1043SOL    HW2 3148   0.162   1.991   4.020
 1044SOL     OW 3149   1.183   3.197   3.843
 1044SOL    HW1 3150   1.084   3.186   3.845
 1044SOL    HW2 3151   1.217   3.212   3.936
 1045SOL     OW 3152   1.225   2.187   4.173
 1045SOL    HW1 3153   1.290   2.113   4.162
 1045SOL    HW2 3154   1.245   2.237   4.257
 1046SOL     OW 3155   0.594   2.607   4.376
 1046SOL    HW1 3156   0.644   2.692   4.357
 1046SOL    HW2 3157   0.506   2.609   4.328
 1047SOL     OW 3158   0.859   3.236   3.740
 1047SOL    HW1 3159   0.813   3.251   3.828
 1047SOL    HW2 3160   0.903   3.321   3.710
 1048SOL     OW 3161   0.661   3.652   4.677
 1048SOL    HW1 3162   0.615   3.740   4.664
 1048SOL    HW2 3163   0.760   3.664   4.670
 1049SOL     OW 3164   0.859   2.818   4.585
 1049SOL    HW1 3165   0.913   2.749   4.633
 1049SOL    HW2 3166   0.827   2.887   4.651
 1050SOL     OW 3167   1.083   2.846   3.811
 1050SOL    HW1 3168   1.060   2.899   3.729
 1050SOL    HW2 3169   1.164   2.790   3.792
 1051SOL     OW 3170   1.861   3.431   4.575
 1051SOL    HW1 3171   1.790   3.419   4.505
 1051SOL    HW2 3172   1.862   3.352   4.635
 1052SOL     OW 3173   0.079   3.102   4.377
 1052SOL    HW1 3174   0.078   3.055   4.465
 1052SOL    HW2 3175   0.161   3.074   4.326
 1053SOL     OW 3176   0.428   2.286   4.244
 1053SOL    HW1 3177   0.458   2.214   4.182
 1053SOL    HW2 3178   0.389   2.246   4.327
 1054SOL     OW 3179   0.812   3.448   4.411
 1054SOL    HW1 3180   0.844   3.458   4.317
 1054SOL    HW2 3181   0.733   3.386   4.413
 1055SOL     OW 3182   0.770   3.192   4.025
 1055SOL    HW1 3183   0.724   3.105   4.042
 1055SOL    HW2 3184   0.861   3.189   4.066
 1056SOL     OW 3185   1.352   1.914   3.892
 1056SOL    HW1 3186   1.387   1.873   3.808
 1056SOL    HW2 3187   1.262   1.876   3.912
 1057SOL     OW 3188   1.300   2.315   4.415
 1057SOL    HW1 3189   1.241   2.395   4.419
 1057SOL    HW2 3190   1.315   2.280   4.508
 1058SOL     OW 3191   1.593   2.083   4.606
 1058SOL    HW1 3192   1.509   2.082   4.660
 1058SOL    HW2 3193   1.595   2.166   4.550
 1059SOL     OW 3194   0.039   2.939   4.024
 1059SOL    HW1 3195   0.138   2.928   4.015
 1059SOL    HW2 3196  -0.001   2.853   4.056
 1060SOL     OW 3197   0.875   3.508   4.061
 1060SOL    HW1 3198   0.798   3.473   4.007
 1060SOL    HW2 3199   0.843   3.579   4.123
 1061SOL     OW 3200   0.230   4.352   0.113
 1061SOL    HW1 3201   0.137   4.350   0.150
 1061SOL    HW2 3202   0.231   4.313   0.021
 1062SOL     OW 3203   0.225   3.999   0.996
 1062SOL    HW1 3204   0.260   3.982   1.088
 1062SOL    HW2 3205   0.137   3.954   0.984
 1063SOL     OW 3206   0.019   4.092   0.647
 1063SOL    HW1 3207  -0.063   4.135   0.686
 1063SOL    HW2 3208  -0.009   4.019   0.584
 1064SOL     OW 3209   1.135   4.427   0.717
 1064SOL    HW1 3210   1.192   4.505   0.692
 1064SOL    HW2 3211   1.075   4.453   0.793
 1065SOL     OW 3212   1.755   4.331   0.231
 1065SOL    HW1 3213   1.743   4.318   0.132
 1065SOL    HW2 3214   1.725   4.250   0.280
 1066SOL     OW 3215   0.850   4.522   1.823
 1066SOL    HW1 3216   0.846   4.598   1.888
 1066SOL    HW2 3217   0.872   4.558   1.732
 1067SOL     OW 3218   0.685   4.736   0.665
 1067SOL    HW1 3219   0.754   4.720   0.735
 1067SOL    HW2 3220   0.612   4.793   0.703
 1068SOL     OW 3221   0.438   4.116   1.499
 1068SOL    HW1 3222   0.520   4.060   1.508
 1068SOL    HW2 3223   0.357   4.058   1.503
 1069SOL     OW 3224   1.603   4.171   0.737
 1069SOL    HW1 3225   1.529   4.217   0.687
 1069SOL    HW2 3226   1.654   4.239   0.790
 1070SOL     OW 3227   1.594   3.838   1.480
 1070SOL    HW1 3228   1.576   3.905   1.408
 1070SOL    HW2 3229   1.591   3.884   1.569
 1071SOL     OW 3230   0.122   4.367   0.563
 1071SOL    HW1 3231   0.077   4.279   0.580
 1071SOL    HW2 3232   0.121   4.421   0.647
 1072SOL     OW 3233   0.113   4.461   1.597
 1072SOL    HW1 3234   0.201   4.448   1.642
 1072SOL    HW2 3235   0.100   4.558   1.575
 1073SOL     OW 3236   0.809   3.728   0.502
 1073SOL    HW1 3237   0.849   3.819   0.493
 1073SOL    HW2 3238   0.709   3.736   0.508
 1074SOL     OW 3239   0.317   3.975   1.801
 1074SOL    HW1 3240   0.388   4.046   1.807
 1074SOL    HW2 3241   0.229   4.014   1.829
 1075SOL     OW 3242   0.598   4.453   0.270
 1075SOL    HW1 3243   0.622   4.522   0.202
 1075SOL    HW2 3244   0.520   4.486   0.324
 1076SOL     OW 3245   1.281   4.069   0.944
 1076SOL    HW1 3246   1.195   4.019   0.931
 1076SOL    HW2 3247   1.343   4.015   1.000
 1077SOL     OW 3248   0.807   4.329   1.465
 1077SOL    HW1 3249   0.760   4.326   1.554
 1077SOL    HW2 3250   0.756   4.274   1.399
 1078SOL     OW 3251   1.394   4.193   1.674
 1078SOL    HW1 3252   1.374   4.236   1.762
 1078SOL    HW2 3253   1.472   4.131   1.683
 1079SOL     OW 3254   0.973   4.614   1.572
 1079SOL    HW1 3255   1.019   4.530   1.543
 1079SOL    HW2 3256   0.917   4.648   1.497
 1080SOL     OW 3257   0.991   4.134   1.242
 1080SOL    HW1 3258   0.914   4.168   1.296
 1080SOL    HW2 3259   0.957   4.083   1.163
 1081SOL     OW 3260   1.041   4.425   0.429
 1081SOL    HW1 3261   1.067   4.421   0.525
 1081SOL    HW2 3262   0.956   4.374   0.415
 1082SOL     OW 3263   0.076   4.535   0.789
 1082SOL    HW1 3264   0.175   4.523   0.798
 1082SOL    HW2 3265   0.052   4.630   0.810
 1083SOL     OW 3266   0.865   4.072   0.195
 1083SOL    HW1 3267   0.924   4.135   0.146
 1083SOL    HW2 3268   0.884   3.978   0.166
 1084SOL     OW 3269   1.719   4.309   1.831
 1084SOL    HW1 3270   1.693   4.398   1.795
 1084SOL    HW2 3271   1.717   4.241   1.758
 1085SOL     OW 3272   0.550   3.920   0.885
 1085SOL    HW1 3273   0.545   3.915   0.985
 1085SOL    HW2 3274   0.552   4.016   0.856
 1086SOL     OW 3275   1.458   4.459   0.728
 1086SOL    HW1 3276   1.453   4.394   0.803
 1086SOL    HW2 3277   1.538   4.518   0.741
 1087SOL     OW 3278   0.202   4.009   1.498
 1087SOL    HW1 3279   0.122   4.069   1.485
 1087SOL    HW2 3280   0.192   3.960   1.584
 1088SOL     OW 3281   1.400   3.831   0.426
 1088SOL    HW1 3282   1.376   3.794   0.336
 1088SOL    HW2 3283   1.499   3.847   0.430
 1089SOL     OW 3284   0.382   4.424   0.480
 1089SOL    HW1 3285   0.427   4.334   0.477
 1089SOL    HW2 3286   0.288   4.413   0.513
 1090SOL     OW 3287   1.547   3.946   1.729
 1090SOL    HW1 3288   1.542   3.983   1.821
 1090SOL    HW2 3289   1.475   3.877   1.717
 1091SOL     OW 3290   0.781   3.988   1.749
 1091SOL    HW1 3291   0.848   3.927   1.792
 1091SOL    HW2 3292   0.708   4.007   1.814
 1092SOL     OW 3293   1.351   4.314   1.433
 1092SOL    HW1 3294   1.379   4.271   1.518
 1092SOL    HW2 3295   1.376   4.410   1.434
 1093SOL     OW 3296   0.922   4.227   0.899
 1093SOL    HW1 3297   0.897   4.218   0.803
 1093SOL    HW2 3298   0.970   4.145   0.930
 1094SOL     OW 3299   0.539   3.788   0.512
 1094SOL    HW1 3300   0.458   3.789   0.570
 1094SOL    HW2 3301   0.542   3.871   0.457
 1095SOL     OW 3302   0.297   3.759   0.171
 1095SOL    HW1 3303   0.346   3.843   0.150
 1095SOL    HW2 3304   0.359   3.694   0.216
 1096SOL     OW 3305   0.935   3.960   0.480
 1096SOL    HW1 3306   0.887   4.001   0.402
 1096SOL    HW2 3307   1.034   3.958   0.461
 1097SOL     OW 3308   1.076   4.407   1.464
 1097SOL    HW1 3309   0.996   4.346   1.467
 1097SOL    HW2 3310   1.157   4.354   1.440
 1098SOL     OW 3311   1.032   4.273   0.016
 1098SOL    HW1 3312   0.991   4.355  -0.023
 1098SOL    HW2 3313   1.096   4.299   0.089
 1099SOL     OW 3314   0.078   4.280   1.386
 1099SOL    HW1 3315   0.170   4.279   1.345
 1099SOL    HW2 3316   0.072   4.354   1.453
 1100SOL     OW 3317   0.561   3.946   1.147
 1100SOL    HW1 3318   0.599   3.862   1.184
 1100SOL    HW2 3319   0.473   3.965   1.191
 1101SOL     OW 3320   0.866   4.178   0.642
 1101SOL    HW1 3321   0.834   4.250   0.580
 1101SOL    HW2 3322   0.890   4.097   0.589
 1102SOL     OW 3323   1.017   3.763   0.753
 1102SOL    HW1 3324   0.945   3.768   0.684
 1102SOL    HW2 3325   0.993   3.694   0.822
 1103SOL     OW 3326   1.466   4.314   0.992
 1103SOL    HW1 3327   1.436   4.219   0.999
 1103SOL    HW2 3328   1.539   4.330   1.058
 1104SOL     OW 3329   1.857   4.557   0.377
 1104SOL    HW1 3330   1.899   4.493   0.441
 1104SOL    HW2 3331   1.819   4.506   0.299
 1105SOL     OW 3332   1.390   4.299   0.078
 1105SOL    HW1 3333   1.336   4.278   0.159
 1105SOL    HW2 3334   1.481   4.258   0.087
 1106SOL     OW 3335   0.527   3.980   0.328
 1106SOL    HW1 3336   0.554   3.921   0.253
 1106SOL    HW2 3337   0.527   4.075   0.297
 1107SOL     OW 3338   0.915   3.813   1.402
 1107SOL    HW1 3339   0.940   3.793   1.307
 1107SOL    HW2 3340   0.987   3.869   1.444
 1108SOL     OW 3341   0.410   4.537   1.251
 1108SOL    HW1 3342   0.496   4.549   1.301
 1108SOL    HW2 3343   0.368   4.450   1.278
 1109SOL     OW 3344   1.274   4.110   1.262
 1109SOL    HW1 3345   1.295   4.184   1.326
 1109SOL    HW2 3346   1.185   4.127   1.219
 1110SOL     OW 3347   0.566   4.261   0.865
 1110SOL    HW1 3348   0.578   4.327   0.791
 1110SOL    HW2 3349   0.612   4.295   0.948
 1111SOL     OW 3350   1.582   4.363   0.472
 1111SOL    HW1 3351   1.551   4.424   0.545
 1111SOL    HW2 3352   1.632   4.415   0.403
 1112SOL     OW 3353   0.402   4.475   1.598
 1112SOL    HW1 3354   0.470   4.530   1.551
 1112SOL    HW2 3355   0.442   4.387   1.625
 1113SOL     OW 3356   1.587   4.503   1.670
 1113SOL    HW1 3357   1.495   4.541   1.665
 1113SOL    HW2 3358   1.647   4.550   1.605
 1114SOL     OW 3359   1.013   3.829   1.770
 1114SOL    HW1 3360   1.019   3.914   1.718
 1114SOL    HW2 3361   1.045   3.753   1.713
 1115SOL     OW 3362   0.504   3.774   1.740
 1115SOL    HW1 3363   0.462   3.717   1.670
 1115SOL    HW2 3364   0.438   3.843   1.772
 1116SOL     OW 3365   0.573   4.594   1.029
 1116SOL    HW1 3366   0.617   4.683   1.020
 1116SOL    HW2 3367   0.510   4.594   1.106
 1117SOL     OW 3368   1.360   4.586   1.045
 1117SOL    HW1 3369   1.285   4.586   0.979
 1117SOL    HW2 3370   1.397   4.494   1.054
 1118SOL     OW 3371   1.209   4.249   0.275
 1118SOL    HW1 3372   1.222   4.165   0.329
 1118SOL    HW2 3373   1.180   4.323   0.335
 1119SOL     OW 3374   0.307   3.937   1.231
 1119SOL    HW1 3375   0.284   3.974   1.321
 1119SOL    HW2 3376   0.277   3.842   1.225
 1120SOL     OW 3377   0.732   4.358   1.064
 1120SOL    HW1 3378   0.791   4.332   0.988
 1120SOL    HW2 3379   0.704   4.454   1.053
 1121SOL     OW 3380   1.728   4.659   1.854
 1121SOL    HW1 3381   1.682   4.652   1.765
 1121SOL    HW2 3382   1.666   4.703   1.920
 1122SOL     OW 3383   0.307   3.787   0.618
 1122SOL    HW1 3384   0.296   3.881   0.651
 1122SOL    HW2 3385   0.302   3.724   0.695
 1123SOL     OW 3386   1.622   4.091   0.374
 1123SOL    HW1 3387   1.624   4.015   0.438
 1123SOL    HW2 3388   1.574   4.168   0.414
 1124SOL     OW 3389   1.023   4.490   0.966
 1124SOL    HW1 3390   1.038   4.511   1.062
 1124SOL    HW2 3391   0.993   4.395   0.957
 1125SOL     OW 3392   0.350   4.622   1.804
 1125SOL    HW1 3393   0.426   4.666   1.852
 1125SOL    HW2 3394   0.385   4.575   1.722
 1126SOL     OW 3395   1.540   3.998   0.125
 1126SOL    HW1 3396   1.479   3.923   0.148
 1126SOL    HW2 3397   1.562   4.050   0.208
 1127SOL     OW 3398   1.303   4.562   0.042
 1127SOL    HW1 3399   1.337   4.469   0.057
 1127SOL    HW2 3400   1.321   4.589  -0.053
 1128SOL     OW 3401   0.319   4.534   0.949
 1128SOL    HW1 3402   0.412   4.570   0.954
 1128SOL    HW2 3403   0.313   4.449   1.001
 1129SOL     OW 3404   0.339   4.233   1.006
 1129SOL    HW1 3405   0.287   4.150   0.989
 1129SOL    HW2 3406   0.416   4.238   0.942
 1130SOL     OW 3407   1.138   4.104   1.678
 1130SOL    HW1 3408   1.093   4.167   1.742
 1130SOL    HW2 3409   1.231   4.135   1.661
 1131SOL     OW 3410   1.160   3.931   1.477
 1131SOL    HW1 3411   1.160   3.995   1.554
 1131SOL    HW2 3412   1.188   3.979   1.394
 1132SOL     OW 3413   1.002   4.520   1.238
 1132SOL    HW1 3414   1.043   4.488   1.324
 1132SOL    HW2 3415   0.906   4.493   1.235
 1133SOL     OW 3416   0.040   4.268   1.114
 1133SOL    HW1 3417   0.125   4.235   1.073
 1133SOL    HW2 3418   0.053   4.283   1.212
 1134SOL     OW 3419   0.189   4.244   1.722
 1134SOL    HW1 3420   0.248   4.204   1.652
 1134SOL    HW2 3421   0.131   4.315   1.681
 1135SOL     OW 3422   0.815   4.296   0.325
 1135SOL    HW1 3423   0.822   4.207   0.279
 1135SOL    HW2 3424   0.721   4.330   0.317
 1136SOL     OW 3425   1.657   4.328   1.206
 1136SOL    HW1 3426   1.619   4.259   1.268
 1136SOL    HW2 3427   1.739   4.292   1.162
 1137SOL     OW 3428   0.671   4.188   1.269
 1137SOL    HW1 3429   0.637   4.099   1.239
 1137SOL    HW2 3430   0.697   4.242   1.189
 1138SOL     OW 3431   0.473   4.224   0.191
 1138SOL    HW1 3432   0.534   4.304   0.195
 1138SOL    HW2 3433   0.378   4.255   0.198
 1139SOL     OW 3434   1.347   4.783   1.234
 1139SOL    HW1 3435   1.371   4.720   1.160
 1139SOL    HW2 3436   1.257   4.823   1.216
 1140SOL     OW 3437   1.302   4.579   0.309
 1140SOL    HW1 3438   1.216   4.548   0.351
 1140SOL    HW2 3439   1.298   4.565   0.210
 1141SOL     OW 3440   0.903   3.810   0.133
 1141SOL    HW1 3441   0.954   3.811   0.047
 1141SOL    HW2 3442   0.959   3.768   0.204
 1142SOL     OW 3443   1.726   3.859   0.523
 1142SOL    HW1 3444   1.799   3.842   0.456
 1142SOL    HW2 3445   1.695   3.772   0.561
 1143SOL     OW 3446   1.280   4.651   0.672
 1143SOL    HW1 3447   1.340   4.570   0.674
 1143SOL    HW2 3448   1.320   4.720   0.612
 1144SOL     OW 3449   1.841   3.899   0.963
 1144SOL    HW1 3450   1.880   3.814   0.927
 1144SOL    HW2 3451   1.743   3.901   0.944
 1145SOL     OW 3452   0.263   4.050   0.720
 1145SOL    HW1 3453   0.184   4.101   0.686
 1145SOL    HW2 3454   0.254   4.035   0.818
 1146SOL     OW 3455   1.014   3.960   0.971
 1146SOL    HW1 3456   1.006   3.924   0.878
 1146SOL    HW2 3457   1.012   3.884   1.036
 1147SOL     OW 3458   1.709   4.109   1.381
 1147SOL    HW1 3459   1.782   4.178   1.385
 1147SOL    HW2 3460   1.737   4.034   1.322
 1148SOL     OW 3461   0.105   4.737   1.726
 1148SOL    HW1 3462   0.028   4.704   1.780
 1148SOL    HW2 3463   0.190   4.707   1.768
 1149SOL     OW 3464   0.672   3.927   1.489
 1149SOL    HW1 3465   0.762   3.911   1.449
 1149SOL    HW2 3466   0.680   3.932   1.588
 1150SOL     OW 3467   0.075   4.069   0.033
 1150SOL    HW1 3468  -0.017   4.041   0.004
 1150SOL    HW2 3469   0.106   4.146  -0.023
 1151SOL     OW 3470   1.440   4.580   1.398
 1151SOL    HW1 3471   1.383   4.632   1.335
 1151SOL    HW2 3472   1.536   4.592   1.374
 1152SOL     OW 3473   0.072   3.890   0.318
 1152SOL    HW1 3474   0.055   3.973   0.264
 1152SOL    HW2 3475   0.162   3.853   0.296
 1153SOL     OW 3476   0.613   4.566   1.431
 1153SOL    HW1 3477   0.669   4.647   1.414
 1153SOL    HW2 3478   0.672   4.486   1.434
 1154SOL     OW 3479   0.716   4.289   1.708
 1154SOL    HW1 3480   0.735   4.354   1.782
 1154SOL    HW2 3481   0.776   4.209   1.717
 1155SOL     OW 3482   1.674   4.607   1.254
 1155SOL    HW1 3483   1.647   4.518   1.217
 1155SOL    HW2 3484   1.675   4.675   1.181
 1156SOL     OW 3485   1.225   4.049   0.449
 1156SOL    HW1 3486   1.290   3.975   0.438
 1156SOL    HW2 3487   1.245   4.099   0.533
 1157SOL     OW 3488   0.594   4.469   0.652
 1157SOL    HW1 3489   0.644   4.554   0.633
 1157SOL    HW2 3490   0.506   4.471   0.604
 1158SOL     OW 3491   1.777   4.066   1.642
 1158SOL    HW1 3492   1.760   4.097   1.548
 1158SOL    HW2 3493   1.693   4.029   1.680
 1159SOL     OW 3494   1.730   4.658   1.517
 1159SOL    HW1 3495   1.768   4.749   1.532
 1159SOL    HW2 3496   1.722   4.641   1.418
 1160SOL     OW 3497   1.824   3.916   1.227
 1160SOL    HW1 3498   1.820   3.826   1.271
 1160SOL    HW2 3499   1.827   3.905   1.128
 1161SOL     OW 3500   0.428   4.148   0.520
 1161SOL    HW1 3501   0.458   4.076   0.458
 1161SOL    HW2 3502   0.389   4.108   0.603
 1162SOL     OW 3503   0.317   4.271   1.280
 1162SOL    HW1 3504   0.355   4.212   1.352
 1162SOL    HW2 3505   0.357   4.245   1.192
 1163SOL     OW 3506   1.424   3.938   1.112
 1163SOL    HW1 3507   1.476   3.873   1.167
 1163SOL    HW2 3508   1.375   4.001   1.173
 1164SOL     OW 3509   1.001   3.758   1.154
 1164SOL    HW1 3510   0.938   3.686   1.123
 1164SOL    HW2 3511   1.094   3.722   1.154
 1165SOL     OW 3512   1.352   3.776   0.168
 1165SOL    HW1 3513   1.387   3.735   0.084
 1165SOL    HW2 3514   1.262   3.738   0.188
 1166SOL     OW 3515   1.300   4.177   0.691
 1166SOL    HW1 3516   1.241   4.257   0.695
 1166SOL    HW2 3517   1.315   4.142   0.784
 1167SOL     OW 3518   1.593   3.945   0.882
 1167SOL    HW1 3519   1.509   3.944   0.936
 1167SOL    HW2 3520   1.595   4.028   0.826
 1168SOL     OW 3521   0.230   4.352   1.975
 1168SOL    HW1 3522   0.137   4.350   2.012
 1168SOL    HW2 3523   0.231   4.313   1.883
 1169SOL     OW 3524   0.225   3.999   2.858
 1169SOL    HW1 3525   0.260   3.982   2.950
 1169SOL    HW2 3526   0.137   3.954   2.846
 1170SOL     OW 3527   0.019   4.092   2.509
 1170SOL    HW1 3528  -0.063   4.135   2.548
 1170SOL    HW2 3529  -0.009   4.019   2.446
 1171SOL     OW 3530   1.135   4.427   2.579
 1171SOL    HW1 3531   1.192   4.505   2.554
 1171SOL    HW2 3532   1.075   4.453   2.655
 1172SOL     OW 3533   1.755   4.331   2.093
 1172SOL    HW1 3534   1.743   4.318   1.994
 1172SOL    HW2 3535   1.725   4.250   2.142
 1173SOL     OW 3536   0.850   4.522   3.685
 1173SOL    HW1 3537   0.846   4.598   3.750
 1173SOL    HW2 3538   0.872   4.558   3.594
 1174SOL     OW 3539   0.685   4.736   2.527
 1174SOL    HW1 3540   0.754   4.720   2.597
 1174SOL    HW2 3541   0.612   4.793   2.565
 1175SOL     OW 3542   0.438   4.116   3.361
 1175SOL    HW1 3543   0.520   4.060   3.370
 1175SOL    HW2 3544   0.357   4.058   3.365
 1176SOL     OW 3545   1.603   4.171   2.599
 1176SOL    HW1 3546   1.529   4.217   2.549
 1176SOL    HW2 3547   1.654   4.239   2.652
 1177SOL     OW 3548   1.594   3.838   3.342
 1177SOL    HW1 3549   1.576   3.905   3.270
 1177SOL    HW2 3550   1.591   3.884   3.431
 1178SOL     OW 3551   0.122   4.367   2.425
 1178SOL    HW1 3552   0.077   4.279   2.442
 1178SOL    HW2 3553   0.121   4.421   2.509
 1179SOL     OW 3554   0.113   4.461   3.459
 1179SOL    HW1 3555   0.201   4.448   3.504
 1179SOL    HW2 3556   0.100   4.558   3.437
 1180SOL     OW 3557   0.809   3.728   2.364
 1180SOL    HW1 3558   0.849   3.819   2.355
 1180SOL    HW2 3559   0.709   3.736   2.370
 1181SOL     OW 3560   0.317   3.975   3.663
 1181SOL    HW1 3561   0.388   4.046   3.669
 1181SOL    HW2 3562   0.229   4.014   3.691
 1182SOL     OW 3563   0.598   4.453   2.132
 1182SOL    HW1 3564   0.622   4.522   2.064
 1182SOL    HW2 3565   0.520   4.486   2.186
 1183SOL     OW 3566   1.281   4.069   2.806
 1183SOL    HW1 3567   1.195   4.019   2.793
 1183SOL    HW2 3568   1.343   4.015   2.862
 1184SOL     OW 3569   0.807   4.329   3.327
 1184SOL    HW1 3570   0.760   4.326   3.416
 1184SOL    HW2 3571   0.756   4.274   3.261
 1185SOL     OW 3572   1.394   4.193   3.536
 1185SOL    HW1 3573   1.374   4.236   3.624
 1185SOL    HW2 3574   1.472   4.131   3.545
 1186SOL     OW 3575   0.973   4.614   3.434
 1186SOL    HW1 3576   1.019   4.530   3.405
 1186SOL    HW2 3577   0.917   4.648   3.359
 1187SOL     OW 3578   0.991   4.134   3.104
 1187SOL    HW1 3579   0.914   4.168   3.158
 1187SOL    HW2 3580   0.957   4.083   3.025
 1188SOL     OW 3581   1.041   4.425   2.291
 1188SOL    HW1 3582   1.067   4.421   2.387
 1188SOL    HW2 3583   0.956   4.374   2.277
 1189SOL     OW 3584   0.076   4.535   2.651
 1189SOL    HW1 3585   0.175   4.523   2.660
 1189SOL    HW2 3586   0.052   4.630   2.672
 1190SOL     OW 3587   0.865   4.072   2.057
 1190SOL    HW1 3588   0.924   4.135   2.008
 1190SOL    HW2 3589   0.884   3.978   2.028
 1191SOL     OW 3590   1.719   4.309   3.693
 1191SOL    HW1 3591   1.693   4.398   3.657
 1191SOL    HW2 3592   1.717   4.241   3.620
 1192SOL     OW 3593   0.550   3.920   2.747
 1192SOL    HW1 3594   0.545   3.915   2.847
 1192SOL    HW2 3595   0.552   4.016   2.718
 1193SOL     OW 3596   1.458   4.459   2.590
 1193SOL    HW1 3597   1.453   4.394   2.665
 1193SOL    HW2 3598   1.538   4.518   2.603
 1194SOL     OW 3599   0.202   4.009   3.360
 1194SOL    HW1 3600   0.122   4.069   3.347
 1194SOL    HW2 3601   0.192   3.960   3.446
 1195SOL     OW 3602   1.400   3.831   2.288
 1195SOL    HW1 3603   1.376   3.794   2.198
 1195SOL    HW2 3604   1.499   3.847   2.292
 1196SOL     OW 3605   0.382   4.424   2.342
 1196SOL    HW1 3606   0.427   4.334   2.339
 1196SOL    HW2 3607   0.288   4.413   2.375
 1197SOL     OW 3608   1.547   3.946   3.591
 1197SOL    HW1 3609   1.542   3.983   3.683
 1197SOL    HW2 3610   1.475   3.877   3.579
 1198SOL     OW 3611   0.614   3.846   1.979
 1198SOL    HW1 3612   0.712   3.824   1.986
 1198SOL    HW2 3613   0.583   3.829   1.886
 1199SOL     OW 3614   0.781   3.988   3.611
 1199SOL    HW1 3615   0.848   3.927   3.654
 1199SOL    HW2 3616   0.708   4.007   3.676
 1200SOL     OW 3617   1.351   4.314   3.295
 1200SOL    HW1 3618   1.379   4.271   3.380
 1200SOL    HW2 3619   1.376   4.410   3.296
 1201SOL     OW 3620   0.922   4.227   2.761
 1201SOL    HW1 3621   0.897   4.218   2.665
 1201SOL    HW2 3622   0.970   4.145   2.792
 1202SOL     OW 3623   0.539   3.788   2.374
 1202SOL    HW1 3624   0.458   3.789   2.432
 1202SOL    HW2 3625   0.542   3.871   2.319
 1203SOL     OW 3626   0.297   3.759   2.033
 1203SOL    HW1 3627   0.346   3.843   2.012
 1203SOL    HW2 3628   0.359   3.694   2.078
 1204SOL     OW 3629   0.935   3.960   2.342
 1204SOL    HW1 3630   0.887   4.001   2.264
 1204SOL    HW2 3631   1.034   3.958   2.323
 1205SOL     OW 3632   1.076   4.407   3.326
 1205SOL    HW1 3633   0.996   4.346   3.329
 1205SOL    HW2 3634   1.157   4.354   3.302
 1206SOL     OW 3635   1.032   4.273   1.878
 1206SOL    HW1 3636   0.991   4.355   1.839
 1206SOL    HW2 3637   1.096   4.299   1.951
 1207SOL     OW 3638   0.078   4.280   3.248
 1207SOL    HW1 3639   0.170   4.279   3.207
 1207SOL    HW2 3640   0.072   4.354   3.315
 1208SOL     OW 3641   0.561   3.946   3.009
 1208SOL    HW1 3642   0.599   3.862   3.046
 1208SOL    HW2 3643   0.473   3.965   3.053
 1209SOL     OW 3644   0.866   4.178   2.504
 1209SOL    HW1 3645   0.834   4.250   2.442
 1209SOL    HW2 3646   0.890   4.097   2.451
 1210SOL     OW 3647   1.017   3.763   2.615
 1210SOL    HW1 3648   0.945   3.768   2.546
 1210SOL    HW2 3649   0.993   3.694   2.684
 1211SOL     OW 3650   1.466   4.314   2.854
 1211SOL    HW1 3651   1.436   4.219   2.861
 1211SOL    HW2 3652   1.539   4.330   2.920
 1212SOL     OW 3653   1.857   4.557   2.239
 1212SOL    HW1 3654   1.899   4.493   2.303
 1212SOL    HW2 3655   1.819   4.506   2.161
 1213SOL     OW 3656   1.390   4.299   1.940
 1213SOL    HW1 3657   1.336   4.278   2.021
 1213SOL    HW2 3658   1.481   4.258   1.949
 1214SOL     OW 3659   0.527   3.980   2.190
 1214SOL    HW1 3660   0.554   3.921   2.115
 1214SOL    HW2 3661   0.527   4.075   2.159
 1215SOL     OW 3662   0.915   3.813   3.264
 1215SOL    HW1 3663   0.940   3.793   3.169
 1215SOL    HW2 3664   0.987   3.869   3.306
 1216SOL     OW 3665   0.410   4.537   3.113
 1216SOL    HW1 3666   0.496   4.549   3.163
 1216SOL    HW2 3667   0.368   4.450   3.140
 1217SOL     OW 3668   1.274   4.110   3.124
 1217SOL    HW1 3669   1.295   4.184   3.188
 1217SOL    HW2 3670   1.185   4.127   3.081
 1218SOL     OW 3671   0.566   4.261   2.727
 1218SOL    HW1 3672   0.578   4.327   2.653
 1218SOL    HW2 3673   0.612   4.295   2.810
 1219SOL     OW 3674   1.582   4.363   2.334
 1219SOL    HW1 3675   1.551   4.424   2.407
 1219SOL    HW2 3676   1.632   4.415   2.265
 1220SOL     OW 3677   0.402   4.475   3.460
 1220SOL    HW1 3678   0.470   4.530   3.413
 1220SOL    HW2 3679   0.442   4.387   3.487
 1221SOL     OW 3680   1.587   4.503   3.532
 1221SOL    HW1 3681   1.495   4.541   3.527
 1221SOL    HW2 3682   1.647   4.550   3.467
 1222SOL     OW 3683   1.013   3.829   3.632
 1222SOL    HW1 3684   1.019   3.914   3.580
 1222SOL    HW2 3685   1.045   3.753   3.575
 1223SOL     OW 3686   0.504   3.774   3.602
 1223SOL    HW1 3687   0.462   3.717   3.532
 1223SOL    HW2 3688   0.438   3.843   3.634
 1224SOL     OW 3689   0.573   4.594   2.891
 1224SOL    HW1 3690   0.617   4.683   2.882
 1224SOL    HW2 3691   0.510   4.594   2.968
 1225SOL     OW 3692   1.360   4.586   2.907
 1225SOL    HW1 3693   1.285   4.586   2.841
 1225SOL    HW2 3694   1.397   4.494   2.916
 1226SOL     OW 3695   1.209   4.249   2.137
 1226SOL    HW1 3696   1.222   4.165   2.191
 1226SOL    HW2 3697   1.180   4.323   2.197
 1227SOL     OW 3698   0.307   3.937   3.093
 1227SOL    HW1 3699   0.284   3.974   3.183
 1227SOL    HW2 3700   0.277   3.842   3.087
 1228SOL     OW 3701   0.732   4.358   2.926
 1228SOL    HW1 3702   0.791   4.332   2.850
 1228SOL    HW2 3703   0.704   4.454   2.915
 1229SOL     OW 3704   1.728   4.659   3.716
 1229SOL    HW1 3705   1.682   4.652   3.627
 1229SOL    HW2 3706   1.666   4.703   3.782
 1230SOL     OW 3707   0.307   3.787   2.480
 1230SOL    HW1 3708   0.296   3.881   2.513
 1230SOL    HW2 3709   0.302   3.724   2.557
 1231SOL     OW 3710   1.622   4.091   2.236
 1231SOL    HW1 3711   1.624   4.015   2.300
 1231SOL    HW2 3712   1.574   4.168   2.276
 1232SOL     OW 3713   1.023   4.490   2.828
 1232SOL    HW1 3714   1.038   4.511   2.924
 1232SOL    HW2 3715   0.993   4.395   2.819
 1233SOL     OW 3716   0.350   4.622   3.666
 1233SOL    HW1 3717   0.426   4.666   3.714
 1233SOL    HW2 3718   0.385   4.575   3.584
 1234SOL     OW 3719   1.540   3.998   1.987
 1234SOL    HW1 3720   1.479   3.923   2.010
 1234SOL    HW2 3721   1.562   4.050   2.070
 1235SOL     OW 3722   1.303   4.562   1.904
 1235SOL    HW1 3723   1.337   4.469   1.919
 1235SOL    HW2 3724   1.321   4.589   1.809
 1236SOL     OW 3725   0.319   4.534   2.811
 1236SOL    HW1 3726   0.412   4.570   2.816
 1236SOL    HW2 3727   0.313   4.449   2.863
 1237SOL     OW 3728   0.339   4.233   2.868
 1237SOL    HW1 3729   0.287   4.150   2.851
 1237SOL    HW2 3730   0.416   4.238   2.804
 1238SOL     OW 3731   1.138   4.104   3.540
 1238SOL    HW1 3732   1.093   4.167   3.604
 1238SOL    HW2 3733   1.231   4.135   3.523
 1239SOL     OW 3734   1.160   3.931   3.339
 1239SOL    HW1 3735   1.160   3.995   3.416
 1239SOL    HW2 3736   1.188   3.979   3.256
 1240SOL     OW 3737   1.002   4.520   3.100
 1240SOL    HW1 3738   1.043   4.488   3.186
 1240SOL    HW2 3739   0.906   4.493   3.097
 1241SOL     OW 3740   0.040   4.268   2.976
 1241SOL    HW1 3741   0.125   4.235   2.935
 1241SOL    HW2 3742   0.053   4.283   3.074
 1242SOL     OW 3743   0.189   4.244   3.584
 1242SOL    HW1 3744   0.248   4.204   3.514
 1242SOL    HW2 3745   0.131   4.315   3.543
 1243SOL     OW 3746   0.815   4.296   2.187
 1243SOL    HW1 3747   0.822   4.207   2.141
 1243SOL    HW2 3748   0.721   4.330   2.179
 1244SOL     OW 3749   1.657   4.328   3.068
 1244SOL    HW1 3750   1.619   4.259   3.130
 1244SOL    HW2 3751   1.739   4.292   3.024
 1245SOL     OW 3752   0.671   4.188   3.131
 1245SOL    HW1 3753   0.637   4.099   3.101
 1245SOL    HW2 3754   0.697   4.242   3.051
 1246SOL     OW 3755   0.473   4.224   2.053
 1246SOL    HW1 3756   0.534   4.304   2.057
 1246SOL    HW2 3757   0.378   4.255   2.060
 1247SOL     OW 3758   1.347   4.783   3.096
 1247SOL    HW1 3759   1.371   4.720   3.022
 1247SOL    HW2 3760   1.257   4.823   3.078
 1248SOL     OW 3761   1.302   4.579   2.171
 1248SOL    HW1 3762   1.216   4.548   2.213
 1248SOL    HW2 3763   1.298   4.565   2.072
 1249SOL     OW 3764   1.726   3.859   2.385
 1249SOL    HW1 3765   1.799   3.842   2.318
 1249SOL    HW2 3766   1.695   3.772   2.423
 1250SOL     OW 3767   1.280   4.651   2.534
 1250SOL    HW1 3768   1.340   4.570   2.536
 1250SOL    HW2 3769   1.320   4.720   2.474
 1251SOL     OW 3770   1.841   3.899   2.825
 1251SOL    HW1 3771   1.880   3.814   2.789
 1251SOL    HW2 3772   1.743   3.901   2.806
 1252SOL     OW 3773   0.263   4.050   2.582
 1252SOL    HW1 3774   0.184   4.101   2.548
 1252SOL    HW2 3775   0.254   4.035   2.680
 1253SOL     OW 3776   0.916   4.634   2.153
 1253SOL    HW1 3777   0.979   4.672   2.085
 1253SOL    HW2 3778   0.956   4.551   2.192
 1254SOL     OW 3779   1.014   3.960   2.833
 1254SOL    HW1 3780   1.006   3.924   2.740
 1254SOL    HW2 3781   1.012   3.884   2.898
 1255SOL     OW 3782   1.709   4.109   3.243
 1255SOL    HW1 3783   1.782   4.178   3.247
 1255SOL    HW2 3784   1.737   4.034   3.184
 1256SOL     OW 3785   0.105   4.737   3.588
 1256SOL    HW1 3786   0.028   4.704   3.642
 1256SOL    HW2 3787   0.190   4.707   3.630
 1257SOL     OW 3788   0.672   3.927   3.351
 1257SOL    HW1 3789   0.762   3.911   3.311
 1257SOL    HW2 3790   0.680   3.932   3.450
 1258SOL     OW 3791   0.075   4.069   1.895
 1258SOL    HW1 3792  -0.017   4.041   1.866
 1258SOL    HW2 3793   0.106   4.146   1.839
 1259SOL     OW 3794   1.440   4.580   3.260
 1259SOL    HW1 3795   1.383   4.632   3.197
 1259SOL    HW2 3796   1.536   4.592   3.236
 1260SOL     OW 3797   0.072   3.890   2.180
 1260SOL    HW1 3798   0.055   3.973   2.126
 1260SOL    HW2 3799   0.162   3.853   2.158
 1261SOL     OW 3800   0.613   4.566   3.293
 1261SOL    HW1 3801   0.669   4.647   3.276
 1261SOL    HW2 3802   0.672   4.486   3.296
 1262SOL     OW 3803   0.716   4.289   3.570
 1262SOL    HW1 3804   0.735   4.354   3.644
 1262SOL    HW2 3805   0.776   4.209   3.579
 1263SOL     OW 3806   1.674   4.607   3.116
 1263SOL    HW1 3807   1.647   4.518   3.079
 1263SOL    HW2 3808   1.675   4.675   3.043
 1264SOL     OW 3809   1.225   4.049   2.311
 1264SOL    HW1 3810   1.290   3.975   2.300
 1264SOL    HW2 3811   1.245   4.099   2.395
 1265SOL     OW 3812   0.594   4.469   2.514
 1265SOL    HW1 3813   0.644   4.554   2.495
 1265SOL    HW2 3814   0.506   4.471   2.466
 1266SOL     OW 3815   1.777   4.066   3.504
 1266SOL    HW1 3816   1.760   4.097   3.410
 1266SOL    HW2 3817   1.693   4.029   3.542
 1267SOL     OW 3818   1.730   4.658   3.379
 1267SOL    HW1 3819   1.768   4.749   3.394
 1267SOL    HW2 3820   1.722   4.641   3.280
 1268SOL     OW 3821   1.824   3.916   3.089
 1268SOL    HW1 3822   1.820   3.826   3.133
 1268SOL    HW2 3823   1.827   3.905   2.990
 1269SOL     OW 3824   0.428   4.148   2.382
 1269SOL    HW1 3825   0.458   4.076   2.320
 1269SOL    HW2 3826   0.389   4.108   2.465
 1270SOL     OW 3827   0.317   4.271   3.142
 1270SOL    HW1 3828   0.355   4.212   3.214
 1270SOL    HW2 3829   0.357   4.245   3.054
 1271SOL     OW 3830   1.424   3.938   2.974
 1271SOL    HW1 3831   1.476   3.873   3.029
 1271SOL    HW2 3832   1.375   4.001   3.035
 1272SOL     OW 3833   1.001   3.758   3.016
 1272SOL    HW1 3834   0.938   3.686   2.985
 1272SOL    HW2 3835   1.094   3.722   3.016
 1273SOL     OW 3836   1.352   3.776   2.030
 1273SOL    HW1 3837   1.387   3.735   1.946
 1273SOL    HW2 3838   1.262   3.738   2.050
 1274SOL     OW 3839   1.300   4.177   2.553
 1274SOL    HW1 3840   1.241   4.257   2.557
 1274SOL    HW2 3841   1.315   4.142   2.646
 1275SOL     OW 3842   1.593   3.945   2.744
 1275SOL    HW1 3843   1.509   3.944   2.798
 1275SOL    HW2 3844   1.595   4.028   2.688
 1276SOL     OW 3845   0.230   4.352   3.837
 1276SOL    HW1 3846   0.137   4.350   3.874
 1276SOL    HW2 3847   0.231   4.313   3.745
 1277SOL     OW 3848   0.019   4.092   4.371
 1277SOL    HW1 3849  -0.063   4.135   4.410
 1277SOL    HW2 3850  -0.009   4.019   4.308
 1278SOL     OW 3851   1.135   4.427   4.441
 1278SOL    HW1 3852   1.192   4.505   4.416
 1278SOL    HW2 3853   1.075   4.453   4.517
 1279SOL     OW 3854   1.755   4.331   3.955
 1279SOL    HW1 3855   1.743   4.318   3.856
 1279SOL    HW2 3856   1.725   4.250   4.004
 1280SOL     OW 3857   0.685   4.736   4.389
 1280SOL    HW1 3858   0.754   4.720   4.459
 1280SOL    HW2 3859   0.612   4.793   4.427
 1281SOL     OW 3860   1.603   4.171   4.461
 1281SOL    HW1 3861   1.529   4.217   4.411
 1281SOL    HW2 3862   1.654   4.239   4.514
 1282SOL     OW 3863   0.240   4.815   4.610
 1282SOL    HW1 3864   0.254   4.731   4.662
 1282SOL    HW2 3865   0.185   4.879   4.665
 1283SOL     OW 3866   0.122   4.367   4.287
 1283SOL    HW1 3867   0.077   4.279   4.304
 1283SOL    HW2 3868   0.121   4.421   4.371
 1284SOL     OW 3869   0.809   3.728   4.226
 1284SOL    HW1 3870   0.849   3.819   4.217
 1284SOL    HW2 3871   0.709   3.736   4.232
 1285SOL     OW 3872   0.598   4.453   3.994
 1285SOL    HW1 3873   0.622   4.522   3.926
 1285SOL    HW2 3874   0.520   4.486   4.048
 1286SOL     OW 3875   1.281   4.069   4.668
 1286SOL    HW1 3876   1.195   4.019   4.655
 1286SOL    HW2 3877   1.343   4.015   4.724
 1287SOL     OW 3878   1.041   4.425   4.153
 1287SOL    HW1 3879   1.067   4.421   4.249
 1287SOL    HW2 3880   0.956   4.374   4.139
 1288SOL     OW 3881   0.076   4.535   4.513
 1288SOL    HW1 3882   0.175   4.523   4.522
 1288SOL    HW2 3883   0.052   4.630   4.534
 1289SOL     OW 3884   0.865   4.072   3.919
 1289SOL    HW1 3885   0.924   4.135   3.870
 1289SOL    HW2 3886   0.884   3.978   3.890
 1290SOL     OW 3887   0.550   3.920   4.609
 1290SOL    HW1 3888   0.545   3.915   4.709
 1290SOL    HW2 3889   0.552   4.016   4.580
 1291SOL     OW 3890   1.458   4.459   4.452
 1291SOL    HW1 3891   1.453   4.394   4.527
 1291SOL    HW2 3892   1.538   4.518   4.465
 1292SOL     OW 3893   1.400   3.831   4.150
 1292SOL    HW1 3894   1.376   3.794   4.060
 1292SOL    HW2 3895   1.499   3.847   4.154
 1293SOL     OW 3896   0.382   4.424   4.204
 1293SOL    HW1 3897   0.427   4.334   4.201
 1293SOL    HW2 3898   0.288   4.413   4.237
 1294SOL     OW 3899   0.614   3.846   3.841
 1294SOL    HW1 3900   0.712   3.824   3.848
 1294SOL    HW2 3901   0.583   3.829   3.748
 1295SOL     OW 3902   0.539   3.788   4.236
 1295SOL    HW1 3903   0.458   3.789   4.294
 1295SOL    HW2 3904   0.542   3.871   4.181
 1296SOL     OW 3905   0.297   3.759   3.895
 1296SOL    HW1 3906   0.346   3.843   3.874
 1296SOL    HW2 3907   0.359   3.694   3.940
 1297SOL     OW 3908   0.935   3.960   4.204
 1297SOL    HW1 3909   0.887   4.001   4.126
 1297SOL    HW2 3910   1.034   3.958   4.185
 1298SOL     OW 3911   1.032   4.273   3.740
 1298SOL    HW1 3912   0.991   4.355   3.701
 1298SOL    HW2 3913   1.096   4.299   3.813
 1299SOL     OW 3914   0.866   4.178   4.366
 1299SOL    HW1 3915   0.834   4.250   4.304
 1299SOL    HW2 3916   0.890   4.097   4.313
 1300SOL     OW 3917   1.017   3.763   4.477
 1300SOL    HW1 3918   0.945   3.768   4.408
 1300SOL    HW2 3919   0.993   3.694   4.546
 1301SOL     OW 3920   1.857   4.557   4.101
 1301SOL    HW1 3921   1.899   4.493   4.165
 1301SOL    HW2 3922   1.819   4.506   4.023
 1302SOL     OW 3923   1.390   4.299   3.802
 1302SOL    HW1 3924   1.336   4.278   3.883
 1302SOL    HW2 3925   1.481   4.258   3.811
 1303SOL     OW 3926   0.527   3.980   4.052
 1303SOL    HW1 3927   0.554   3.921   3.977
 1303SOL    HW2 3928   0.527   4.075   4.021
 1304SOL     OW 3929   1.111   4.919   4.824
 1304SOL    HW1 3930   1.071   4.963   4.905
 1304SOL    HW2 3931   1.070   4.956   4.741
 1305SOL     OW 3932   0.566   4.261   4.589
 1305SOL    HW1 3933   0.578   4.327   4.515
 1305SOL    HW2 3934   0.612   4.295   4.672
 1306SOL     OW 3935   1.582   4.363   4.196
 1306SOL    HW1 3936   1.551   4.424   4.269
 1306SOL    HW2 3937   1.632   4.415   4.127
 1307SOL     OW 3938   1.209   4.249   3.999
 1307SOL    HW1 3939   1.222   4.165   4.053
 1307SOL    HW2 3940   1.180   4.323   4.059
 1308SOL     OW 3941   0.732   4.358   4.788
 1308SOL    HW1 3942   0.791   4.332   4.712
 1308SOL    HW2 3943   0.704   4.454   4.777
 1309SOL     OW 3944   0.307   3.787   4.342
 1309SOL    HW1 3945   0.296   3.881   4.375
 1309SOL    HW2 3946   0.302   3.724   4.419
 1310SOL     OW 3947   1.622   4.091   4.098
 1310SOL    HW1 3948   1.624   4.015   4.162
 1310SOL    HW2 3949   1.574   4.168   4.138
 1311SOL     OW 3950   1.540   3.998   3.849
 1311SOL    HW1 3951   1.479   3.923   3.872
 1311SOL    HW2 3952   1.562   4.050   3.932
 1312SOL     OW 3953   1.303   4.562   3.766
 1312SOL    HW1 3954   1.337   4.469   3.781
 1312SOL    HW2 3955   1.321   4.589   3.671
 1313SOL     OW 3956   0.815   4.296   4.049
 1313SOL    HW1 3957   0.822   4.207   4.003
 1313SOL    HW2 3958   0.721   4.330   4.041
 1314SOL     OW 3959   0.473   4.224   3.915
 1314SOL    HW1 3960   0.534   4.304   3.919
 1314SOL    HW2 3961   0.378   4.255   3.922
 1315SOL     OW 3962   1.302   4.579   4.033
 1315SOL    HW1 3963   1.216   4.548   4.075
 1315SOL    HW2 3964   1.298   4.565   3.934
 1316SOL     OW 3965   1.726   3.859   4.247
 1316SOL    HW1 3966   1.799   3.842   4.180
 1316SOL    HW2 3967   1.695   3.772   4.285
 1317SOL     OW 3968   1.280   4.651   4.396
 1317SOL    HW1 3969   1.340   4.570   4.398
 1317SOL    HW2 3970   1.320   4.720   4.336
 1318SOL     OW 3971   1.841   3.899   4.687
 1318SOL    HW1 3972   1.880   3.814   4.651
 1318SOL    HW2 3973   1.743   3.901   4.668
 1319SOL     OW 3974   0.263   4.050   4.444
 1319SOL    HW1 3975   0.184   4.101   4.410
 1319SOL    HW2 3976   0.254   4.035   4.542
 1320SOL     OW 3977   0.916   4.634   4.015
 1320SOL    HW1 3978   0.979   4.672   3.947
 1320SOL    HW2 3979   0.956   4.551   4.054
 1321SOL     OW 3980   0.075   4.069   3.757
 1321SOL    HW1 3981  -0.017   4.041   3.728
 1321SOL    HW2 3982   0.106   4.146   3.701
 1322SOL     OW 3983   0.072   3.890   4.042
 1322SOL    HW1 3984   0.055   3.973   3.988
 1322SOL    HW2 3985   0.162   3.853   4.020
 1323SOL     OW 3986   1.674   4.607   4.978
 1323SOL    HW1 3987   1.647   4.518   4.941
 1323SOL    HW2 3988   1.675   4.675   4.905
 1324SOL     OW 3989   1.225   4.049   4.173
 1324SOL    HW1 3990   1.290   3.975   4.162
 1324SOL    HW2 3991   1.245   4.099   4.257
 1325SOL     OW 3992   0.594   4.469   4.376
 1325SOL    HW1 3993   0.644   4.554   4.357
 1325SOL    HW2 3994   0.506   4.471   4.328
 1326SOL     OW 3995   0.428   4.148   4.244
 1326SOL    HW1 3996   0.458   4.076   4.182
 1326SOL    HW2 3997   0.389   4.108   4.327
 1327SOL     OW 3998   1.352   3.776   3.892
 1327SOL    HW1 3999   1.387   3.735   3.808
 1327SOL    HW2 4000   1.262   3.738   3.912
 1328SOL     OW 4001   1.300   4.177   4.415
 1328SOL    HW1 4002   1.241   4.257   4.419
 1328SOL    HW2 4003   1.315   4.142   4.508
 1329SOL     OW 4004   1.593   3.945   4.606
 1329SOL    HW1 4005   1.509   3.944   4.660
 1329SOL    HW2 4006   1.595   4.028   4.550
 1330SOL     OW 4007   2.092   0.628   0.113
 1330SOL    HW1 4008   1.999   0.626   0.150
 1330SOL    HW2 4009   2.093   0.589   0.021
 1331SOL     OW 4010   2.087   0.275   0.996
 1331SOL    HW1 4011   2.122   0.258   1.088
 1331SOL    HW2 4012   1.999   0.230   0.984
 1332SOL     OW 4013   1.881   0.368   0.647
 1332SOL    HW1 4014   1.799   0.411   0.686
 1332SOL    HW2 4015   1.853   0.295   0.584
 1333SOL     OW 4016   2.431   1.275   1.165
 1333SOL    HW1 4017   2.338   1.268   1.128
 1333SOL    HW2 4018   2.442   1.364   1.209
 1334SOL     OW 4019   3.417   1.511   0.703
 1334SOL    HW1 4020   3.360   1.495   0.784
 1334SOL    HW2 4021   3.358   1.521   0.623
 1335SOL     OW 4022   2.997   0.703   0.717
 1335SOL    HW1 4023   3.054   0.781   0.692
 1335SOL    HW2 4024   2.937   0.729   0.793
 1336SOL     OW 4025   3.617   0.607   0.231
 1336SOL    HW1 4026   3.605   0.594   0.132
 1336SOL    HW2 4027   3.587   0.526   0.280
 1337SOL     OW 4028   2.630   1.144   1.023
 1337SOL    HW1 4029   2.552   1.161   1.083
 1337SOL    HW2 4030   2.664   1.231   0.987
 1338SOL     OW 4031   2.712   0.798   1.823
 1338SOL    HW1 4032   2.708   0.874   1.888
 1338SOL    HW2 4033   2.734   0.834   1.732
 1339SOL     OW 4034   2.547   1.012   0.665
 1339SOL    HW1 4035   2.616   0.996   0.735
 1339SOL    HW2 4036   2.474   1.069   0.703
 1340SOL     OW 4037   2.548   1.161   1.803
 1340SOL    HW1 4038   2.608   1.240   1.817
 1340SOL    HW2 4039   2.462   1.192   1.762
 1341SOL     OW 4040   2.197   1.435   1.061
 1341SOL    HW1 4041   2.119   1.404   1.008
 1341SOL    HW2 4042   2.255   1.493   1.004
 1342SOL     OW 4043   3.322   1.505   1.339
 1342SOL    HW1 4044   3.346   1.599   1.365
 1342SOL    HW2 4045   3.306   1.451   1.421
 1343SOL     OW 4046   2.300   0.392   1.499
 1343SOL    HW1 4047   2.382   0.336   1.508
 1343SOL    HW2 4048   2.219   0.334   1.503
 1344SOL     OW 4049   3.465   0.447   0.737
 1344SOL    HW1 4050   3.391   0.493   0.687
 1344SOL    HW2 4051   3.516   0.515   0.790
 1345SOL     OW 4052   2.093   1.713   0.483
 1345SOL    HW1 4053   2.127   1.790   0.537
 1345SOL    HW2 4054   2.137   1.713   0.393
 1346SOL     OW 4055   2.989   1.341   1.690
 1346SOL    HW1 4056   3.036   1.341   1.778
 1346SOL    HW2 4057   2.941   1.254   1.679
 1347SOL     OW 4058   2.092   1.434   0.538
 1347SOL    HW1 4059   2.066   1.530   0.538
 1347SOL    HW2 4060   2.021   1.380   0.583
 1348SOL     OW 4061   2.102   1.091   0.886
 1348SOL    HW1 4062   2.116   1.007   0.938
 1348SOL    HW2 4063   2.047   1.155   0.941
 1349SOL     OW 4064   2.482   1.786   1.439
 1349SOL    HW1 4065   2.390   1.769   1.474
 1349SOL    HW2 4066   2.510   1.878   1.465
 1350SOL     OW 4067   2.468   0.964   0.123
 1350SOL    HW1 4068   2.475   1.048   0.069
 1350SOL    HW2 4069   2.514   0.977   0.211
 1351SOL     OW 4070   3.456   0.114   1.480
 1351SOL    HW1 4071   3.438   0.181   1.408
 1351SOL    HW2 4072   3.453   0.160   1.569
 1352SOL     OW 4073   1.984   0.643   0.563
 1352SOL    HW1 4074   1.939   0.555   0.580
 1352SOL    HW2 4075   1.983   0.697   0.647
 1353SOL     OW 4076   3.704   1.767   0.359
 1353SOL    HW1 4077   3.758   1.738   0.439
 1353SOL    HW2 4078   3.734   1.857   0.330
 1354SOL     OW 4079   3.551   0.922   0.612
 1354SOL    HW1 4080   3.646   0.893   0.620
 1354SOL    HW2 4081   3.543   0.987   0.537
 1355SOL     OW 4082   3.503   1.108   0.432
 1355SOL    HW1 4083   3.589   1.110   0.380
 1355SOL    HW2 4084   3.517   1.155   0.520
 1356SOL     OW 4085   1.975   0.737   1.597
 1356SOL    HW1 4086   2.063   0.724   1.642
 1356SOL    HW2 4087   1.962   0.834   1.575
 1357SOL     OW 4088   2.475   1.365   0.726
 1357SOL    HW1 4089   2.426   1.278   0.735
 1357SOL    HW2 4090   2.452   1.408   0.639
 1358SOL     OW 4091   3.155   1.228   1.423
 1358SOL    HW1 4092   3.192   1.155   1.365
 1358SOL    HW2 4093   3.207   1.233   1.508
 1359SOL     OW 4094   2.671   0.004   0.502
 1359SOL    HW1 4095   2.711   0.095   0.493
 1359SOL    HW2 4096   2.571   0.012   0.508
 1360SOL     OW 4097   2.059   0.976   1.264
 1360SOL    HW1 4098   2.148   0.931   1.250
 1360SOL    HW2 4099   1.986   0.911   1.245
 1361SOL     OW 4100   3.387   0.999   0.190
 1361SOL    HW1 4101   3.324   0.923   0.203
 1361SOL    HW2 4102   3.435   1.017   0.276
 1362SOL     OW 4103   3.049   1.792   1.616
 1362SOL    HW1 4104   3.073   1.852   1.540
 1362SOL    HW2 4105   3.056   1.697   1.586
 1363SOL     OW 4106   2.179   0.251   1.801
 1363SOL    HW1 4107   2.250   0.322   1.807
 1363SOL    HW2 4108   2.091   0.290   1.829
 1364SOL     OW 4109   3.328   1.417   0.953
 1364SOL    HW1 4110   3.269   1.423   1.033
 1364SOL    HW2 4111   3.313   1.329   0.907
 1365SOL     OW 4112   3.529   1.714   0.572
 1365SOL    HW1 4113   3.488   1.691   0.484
 1365SOL    HW2 4114   3.511   1.640   0.637
 1366SOL     OW 4115   2.460   0.729   0.270
 1366SOL    HW1 4116   2.484   0.798   0.202
 1366SOL    HW2 4117   2.382   0.762   0.324
 1367SOL     OW 4118   3.143   0.345   0.944
 1367SOL    HW1 4119   3.057   0.295   0.931
 1367SOL    HW2 4120   3.205   0.291   1.000
 1368SOL     OW 4121   3.438   1.662   0.307
 1368SOL    HW1 4122   3.527   1.708   0.310
 1368SOL    HW2 4123   3.417   1.638   0.212
 1369SOL     OW 4124   2.669   0.605   1.465
 1369SOL    HW1 4125   2.622   0.602   1.554
 1369SOL    HW2 4126   2.618   0.550   1.399
 1370SOL     OW 4127   3.256   0.469   1.674
 1370SOL    HW1 4128   3.236   0.512   1.762
 1370SOL    HW2 4129   3.334   0.407   1.683
 1371SOL     OW 4130   2.835   0.890   1.572
 1371SOL    HW1 4131   2.881   0.806   1.543
 1371SOL    HW2 4132   2.779   0.924   1.497
 1372SOL     OW 4133   2.853   0.410   1.242
 1372SOL    HW1 4134   2.776   0.444   1.296
 1372SOL    HW2 4135   2.819   0.359   1.163
 1373SOL     OW 4136   2.903   0.701   0.429
 1373SOL    HW1 4137   2.929   0.697   0.525
 1373SOL    HW2 4138   2.818   0.650   0.415
 1374SOL     OW 4139   1.938   0.811   0.789
 1374SOL    HW1 4140   2.037   0.799   0.798
 1374SOL    HW2 4141   1.914   0.906   0.810
 1375SOL     OW 4142   1.992   1.821   1.571
 1375SOL    HW1 4143   1.982   1.806   1.670
 1375SOL    HW2 4144   1.906   1.857   1.535
 1376SOL     OW 4145   2.727   0.348   0.195
 1376SOL    HW1 4146   2.786   0.411   0.146
 1376SOL    HW2 4147   2.746   0.254   0.166
 1377SOL     OW 4148   3.581   0.585   1.831
 1377SOL    HW1 4149   3.555   0.674   1.795
 1377SOL    HW2 4150   3.579   0.517   1.758
 1378SOL     OW 4151   3.224   1.144   0.545
 1378SOL    HW1 4152   3.307   1.115   0.497
 1378SOL    HW2 4153   3.175   1.211   0.489
 1379SOL     OW 4154   2.412   0.196   0.885
 1379SOL    HW1 4155   2.407   0.191   0.985
 1379SOL    HW2 4156   2.414   0.292   0.856
 1380SOL     OW 4157   2.870   1.456   0.477
 1380SOL    HW1 4158   2.824   1.528   0.425
 1380SOL    HW2 4159   2.866   1.476   0.575
 1381SOL     OW 4160   2.213   1.801   0.853
 1381SOL    HW1 4161   2.263   1.715   0.859
 1381SOL    HW2 4162   2.278   1.878   0.850
 1382SOL     OW 4163   3.657   1.066   0.873
 1382SOL    HW1 4164   3.595   1.051   0.797
 1382SOL    HW2 4165   3.605   1.077   0.958
 1383SOL     OW 4166   3.089   1.550   1.506
 1383SOL    HW1 4167   3.095   1.473   1.570
 1383SOL    HW2 4168   3.037   1.524   1.426
 1384SOL     OW 4169   2.183   0.943   0.242
 1384SOL    HW1 4170   2.265   0.982   0.200
 1384SOL    HW2 4171   2.156   0.861   0.193
 1385SOL     OW 4172   3.320   0.735   0.728
 1385SOL    HW1 4173   3.315   0.670   0.803
 1385SOL    HW2 4174   3.400   0.794   0.741
 1386SOL     OW 4175   2.323   1.266   1.727
 1386SOL    HW1 4176   2.273   1.267   1.641
 1386SOL    HW2 4177   2.260   1.248   1.803
 1387SOL     OW 4178   2.973   1.776   0.237
 1387SOL    HW1 4179   2.913   1.714   0.287
 1387SOL    HW2 4180   3.004   1.732   0.152
 1388SOL     OW 4181   2.064   0.285   1.498
 1388SOL    HW1 4182   1.984   0.345   1.485
 1388SOL    HW2 4183   2.054   0.236   1.584
 1389SOL     OW 4184   3.494   1.377   0.081
 1389SOL    HW1 4185   3.462   1.471   0.071
 1389SOL    HW2 4186   3.418   1.314   0.069
 1390SOL     OW 4187   2.326   1.743   0.323
 1390SOL    HW1 4188   2.359   1.782   0.409
 1390SOL    HW2 4189   2.402   1.736   0.258
 1391SOL     OW 4190   3.262   0.107   0.426
 1391SOL    HW1 4191   3.238   0.070   0.336
 1391SOL    HW2 4192   3.361   0.123   0.430
 1392SOL     OW 4193   2.111   1.785   1.241
 1392SOL    HW1 4194   2.168   1.720   1.291
 1392SOL    HW2 4195   2.095   1.752   1.148
 1393SOL     OW 4196   2.802   1.698   0.904
 1393SOL    HW1 4197   2.882   1.641   0.925
 1393SOL    HW2 4198   2.753   1.658   0.827
 1394SOL     OW 4199   2.244   0.700   0.480
 1394SOL    HW1 4200   2.289   0.610   0.477
 1394SOL    HW2 4201   2.150   0.689   0.513
 1395SOL     OW 4202   3.409   0.222   1.729
 1395SOL    HW1 4203   3.404   0.259   1.821
 1395SOL    HW2 4204   3.337   0.153   1.717
 1396SOL     OW 4205   2.476   0.122   0.117
 1396SOL    HW1 4206   2.574   0.100   0.124
 1396SOL    HW2 4207   2.445   0.105   0.024
 1397SOL     OW 4208   2.643   0.264   1.749
 1397SOL    HW1 4209   2.710   0.203   1.792
 1397SOL    HW2 4210   2.570   0.283   1.814
 1398SOL     OW 4211   2.750   1.514   1.195
 1398SOL    HW1 4212   2.727   1.489   1.101
 1398SOL    HW2 4213   2.811   1.445   1.234
 1399SOL     OW 4214   3.213   0.590   1.433
 1399SOL    HW1 4215   3.241   0.547   1.518
 1399SOL    HW2 4216   3.238   0.686   1.434
 1400SOL     OW 4217   2.665   1.402   0.924
 1400SOL    HW1 4218   2.755   1.416   0.882
 1400SOL    HW2 4219   2.594   1.404   0.853
 1401SOL     OW 4220   2.784   0.503   0.899
 1401SOL    HW1 4221   2.759   0.494   0.803
 1401SOL    HW2 4222   2.832   0.421   0.930
 1402SOL     OW 4223   2.401   0.064   0.512
 1402SOL    HW1 4224   2.320   0.065   0.570
 1402SOL    HW2 4225   2.404   0.147   0.457
 1403SOL     OW 4226   3.296   1.188   0.041
 1403SOL    HW1 4227   3.328   1.112   0.098
 1403SOL    HW2 4228   3.204   1.215   0.071
 1404SOL     OW 4229   2.159   0.035   0.171
 1404SOL    HW1 4230   2.208   0.119   0.150
 1404SOL    HW2 4231   2.221  -0.030   0.216
 1405SOL     OW 4232   2.797   0.236   0.480
 1405SOL    HW1 4233   2.749   0.277   0.402
 1405SOL    HW2 4234   2.896   0.234   0.461
 1406SOL     OW 4235   2.938   0.683   1.464
 1406SOL    HW1 4236   2.858   0.622   1.467
 1406SOL    HW2 4237   3.019   0.630   1.440
 1407SOL     OW 4238   3.089   1.570   0.793
 1407SOL    HW1 4239   3.110   1.644   0.728
 1407SOL    HW2 4240   3.157   1.570   0.866
 1408SOL     OW 4241   2.321   1.152   0.741
 1408SOL    HW1 4242   2.250   1.125   0.806
 1408SOL    HW2 4243   2.295   1.124   0.648
 1409SOL     OW 4244   3.133   1.797   0.591
 1409SOL    HW1 4245   3.177   1.861   0.527
 1409SOL    HW2 4246   3.083   1.849   0.661
 1410SOL     OW 4247   2.894   0.549   0.016
 1410SOL    HW1 4248   2.853   0.631  -0.023
 1410SOL    HW2 4249   2.958   0.575   0.089
 1411SOL     OW 4250   1.940   0.556   1.386
 1411SOL    HW1 4251   2.032   0.555   1.345
 1411SOL    HW2 4252   1.934   0.630   1.453
 1412SOL     OW 4253   2.423   0.222   1.147
 1412SOL    HW1 4254   2.461   0.138   1.184
 1412SOL    HW2 4255   2.335   0.241   1.191
 1413SOL     OW 4256   2.728   0.454   0.642
 1413SOL    HW1 4257   2.696   0.526   0.580
 1413SOL    HW2 4258   2.752   0.373   0.589
 1414SOL     OW 4259   2.879   0.039   0.753
 1414SOL    HW1 4260   2.807   0.044   0.684
 1414SOL    HW2 4261   2.855  -0.030   0.822
 1415SOL     OW 4262   3.291   1.173   0.867
 1415SOL    HW1 4263   3.236   1.089   0.860
 1415SOL    HW2 4264   3.317   1.202   0.775
 1416SOL     OW 4265   3.328   0.590   0.992
 1416SOL    HW1 4266   3.298   0.495   0.999
 1416SOL    HW2 4267   3.401   0.606   1.058
 1417SOL     OW 4268   3.719   0.833   0.377
 1417SOL    HW1 4269   3.761   0.769   0.441
 1417SOL    HW2 4270   3.681   0.782   0.299
 1418SOL     OW 4271   2.350   1.385   0.174
 1418SOL    HW1 4272   2.263   1.370   0.221
 1418SOL    HW2 4273   2.333   1.411   0.079
 1419SOL     OW 4274   3.526   1.280   0.657
 1419SOL    HW1 4275   3.625   1.288   0.671
 1419SOL    HW2 4276   3.481   1.364   0.688
 1420SOL     OW 4277   3.252   0.575   0.078
 1420SOL    HW1 4278   3.198   0.554   0.159
 1420SOL    HW2 4279   3.343   0.534   0.087
 1421SOL     OW 4280   2.389   0.256   0.328
 1421SOL    HW1 4281   2.416   0.197   0.253
 1421SOL    HW2 4282   2.389   0.351   0.297
 1422SOL     OW 4283   3.616   1.223   1.588
 1422SOL    HW1 4284   3.707   1.184   1.575
 1422SOL    HW2 4285   3.624   1.319   1.612
 1423SOL     OW 4286   2.926   1.347   1.340
 1423SOL    HW1 4287   2.846   1.324   1.395
 1423SOL    HW2 4288   3.009   1.321   1.389
 1424SOL     OW 4289   3.454   1.629   1.625
 1424SOL    HW1 4290   3.481   1.663   1.535
 1424SOL    HW2 4291   3.533   1.591   1.671
 1425SOL     OW 4292   2.973   1.195   1.100
 1425SOL    HW1 4293   2.933   1.239   1.181
 1425SOL    HW2 4294   2.932   1.232   1.017
 1426SOL     OW 4295   3.500   1.099   1.079
 1426SOL    HW1 4296   3.505   1.180   1.138
 1426SOL    HW2 4297   3.414   1.101   1.028
 1427SOL     OW 4298   2.777   0.089   1.402
 1427SOL    HW1 4299   2.802   0.069   1.307
 1427SOL    HW2 4300   2.849   0.145   1.444
 1428SOL     OW 4301   2.842   1.116   1.719
 1428SOL    HW1 4302   2.743   1.122   1.729
 1428SOL    HW2 4303   2.865   1.036   1.663
 1429SOL     OW 4304   2.567   1.050   0.368
 1429SOL    HW1 4305   2.553   1.057   0.467
 1429SOL    HW2 4306   2.651   0.999   0.350
 1430SOL     OW 4307   2.272   0.813   1.251
 1430SOL    HW1 4308   2.358   0.825   1.301
 1430SOL    HW2 4309   2.230   0.726   1.278
 1431SOL     OW 4310   3.136   0.386   1.262
 1431SOL    HW1 4311   3.157   0.460   1.326
 1431SOL    HW2 4312   3.047   0.403   1.219
 1432SOL     OW 4313   1.926   1.564   1.331
 1432SOL    HW1 4314   1.880   1.646   1.297
 1432SOL    HW2 4315   2.024   1.583   1.340
 1433SOL     OW 4316   2.229   1.100   0.501
 1433SOL    HW1 4317   2.222   1.183   0.445
 1433SOL    HW2 4318   2.233   1.020   0.441
 1434SOL     OW 4319   2.428   0.537   0.865
 1434SOL    HW1 4320   2.440   0.603   0.791
 1434SOL    HW2 4321   2.474   0.571   0.948
 1435SOL     OW 4322   3.114   1.348   0.388
 1435SOL    HW1 4323   3.164   1.425   0.428
 1435SOL    HW2 4324   3.019   1.350   0.420
 1436SOL     OW 4325   3.134   1.445   1.142
 1436SOL    HW1 4326   3.181   1.458   1.229
 1436SOL    HW2 4327   3.068   1.371   1.151
 1437SOL     OW 4328   3.444   0.639   0.472
 1437SOL    HW1 4329   3.413   0.700   0.545
 1437SOL    HW2 4330   3.494   0.691   0.403
 1438SOL     OW 4331   2.216   1.510   1.329
 1438SOL    HW1 4332   2.195   1.466   1.242
 1438SOL    HW2 4333   2.313   1.536   1.332
 1439SOL     OW 4334   2.264   0.751   1.598
 1439SOL    HW1 4335   2.332   0.806   1.551
 1439SOL    HW2 4336   2.304   0.663   1.625
 1440SOL     OW 4337   3.449   0.779   1.670
 1440SOL    HW1 4338   3.357   0.817   1.665
 1440SOL    HW2 4339   3.509   0.826   1.605
 1441SOL     OW 4340   2.875   0.105   1.770
 1441SOL    HW1 4341   2.881   0.190   1.718
 1441SOL    HW2 4342   2.907   0.029   1.713
 1442SOL     OW 4343   2.366   0.050   1.740
 1442SOL    HW1 4344   2.324  -0.007   1.670
 1442SOL    HW2 4345   2.300   0.119   1.772
 1443SOL     OW 4346   2.435   0.870   1.029
 1443SOL    HW1 4347   2.479   0.959   1.020
 1443SOL    HW2 4348   2.372   0.870   1.106
 1444SOL     OW 4349   3.222   0.862   1.045
 1444SOL    HW1 4350   3.147   0.862   0.979
 1444SOL    HW2 4351   3.259   0.770   1.054
 1445SOL     OW 4352   3.071   0.525   0.275
 1445SOL    HW1 4353   3.084   0.441   0.329
 1445SOL    HW2 4354   3.042   0.599   0.335
 1446SOL     OW 4355   2.169   0.213   1.231
 1446SOL    HW1 4356   2.146   0.250   1.321
 1446SOL    HW2 4357   2.139   0.118   1.225
 1447SOL     OW 4358   1.899   1.310   1.282
 1447SOL    HW1 4359   1.952   1.261   1.350
 1447SOL    HW2 4360   1.921   1.408   1.287
 1448SOL     OW 4361   2.594   0.634   1.064
 1448SOL    HW1 4362   2.653   0.608   0.988
 1448SOL    HW2 4363   2.566   0.730   1.053
 1449SOL     OW 4364   3.590   0.935   1.854
 1449SOL    HW1 4365   3.544   0.928   1.765
 1449SOL    HW2 4366   3.528   0.979   1.920
 1450SOL     OW 4367   2.169   0.063   0.618
 1450SOL    HW1 4368   2.158   0.157   0.651
 1450SOL    HW2 4369   2.164   0.000   0.695
 1451SOL     OW 4370   3.484   0.367   0.374
 1451SOL    HW1 4371   3.486   0.291   0.438
 1451SOL    HW2 4372   3.436   0.444   0.414
 1452SOL     OW 4373   2.885   0.766   0.966
 1452SOL    HW1 4374   2.900   0.787   1.062
 1452SOL    HW2 4375   2.855   0.671   0.957
 1453SOL     OW 4376   2.842   1.573   1.700
 1453SOL    HW1 4377   2.822   1.617   1.612
 1453SOL    HW2 4378   2.881   1.482   1.684
 1454SOL     OW 4379   3.721   1.518   1.605
 1454SOL    HW1 4380   3.735   1.545   1.510
 1454SOL    HW2 4381   3.804   1.540   1.658
 1455SOL     OW 4382   2.212   0.898   1.804
 1455SOL    HW1 4383   2.288   0.942   1.852
 1455SOL    HW2 4384   2.247   0.851   1.722
 1456SOL     OW 4385   3.402   0.274   0.125
 1456SOL    HW1 4386   3.341   0.199   0.148
 1456SOL    HW2 4387   3.424   0.326   0.208
 1457SOL     OW 4388   3.165   0.838   0.042
 1457SOL    HW1 4389   3.199   0.745   0.057
 1457SOL    HW2 4390   3.183   0.865  -0.053
 1458SOL     OW 4391   2.930   1.333   0.849
 1458SOL    HW1 4392   2.937   1.249   0.794
 1458SOL    HW2 4393   2.992   1.402   0.813
 1459SOL     OW 4394   2.181   0.810   0.949
 1459SOL    HW1 4395   2.274   0.846   0.954
 1459SOL    HW2 4396   2.175   0.725   1.001
 1460SOL     OW 4397   2.201   0.509   1.006
 1460SOL    HW1 4398   2.149   0.426   0.989
 1460SOL    HW2 4399   2.278   0.514   0.942
 1461SOL     OW 4400   3.000   0.380   1.678
 1461SOL    HW1 4401   2.955   0.443   1.742
 1461SOL    HW2 4402   3.093   0.411   1.661
 1462SOL     OW 4403   3.022   0.207   1.477
 1462SOL    HW1 4404   3.022   0.271   1.554
 1462SOL    HW2 4405   3.050   0.255   1.394
 1463SOL     OW 4406   1.870   1.326   0.200
 1463SOL    HW1 4407   1.777   1.347   0.169
 1463SOL    HW2 4408   1.880   1.227   0.213
 1464SOL     OW 4409   1.950   1.801   0.927
 1464SOL    HW1 4410   1.908   1.715   0.900
 1464SOL    HW2 4411   2.044   1.804   0.893
 1465SOL     OW 4412   2.366   1.568   0.910
 1465SOL    HW1 4413   2.432   1.642   0.919
 1465SOL    HW2 4414   2.410   1.489   0.868
 1466SOL     OW 4415   2.864   0.796   1.238
 1466SOL    HW1 4416   2.905   0.764   1.324
 1466SOL    HW2 4417   2.768   0.769   1.235
 1467SOL     OW 4418   1.902   0.544   1.114
 1467SOL    HW1 4419   1.987   0.511   1.073
 1467SOL    HW2 4420   1.915   0.559   1.212
 1468SOL     OW 4421   2.051   0.520   1.722
 1468SOL    HW1 4422   2.110   0.480   1.652
 1468SOL    HW2 4423   1.993   0.591   1.681
 1469SOL     OW 4424   3.231   0.950   1.660
 1469SOL    HW1 4425   3.270   1.039   1.680
 1469SOL    HW2 4426   3.241   0.930   1.563
 1470SOL     OW 4427   2.677   0.572   0.325
 1470SOL    HW1 4428   2.684   0.483   0.279
 1470SOL    HW2 4429   2.583   0.606   0.317
 1471SOL     OW 4430   3.519   0.604   1.206
 1471SOL    HW1 4431   3.481   0.535   1.268
 1471SOL    HW2 4432   3.601   0.568   1.162
 1472SOL     OW 4433   2.114   1.564   1.744
 1472SOL    HW1 4434   2.084   1.621   1.820
 1472SOL    HW2 4435   2.107   1.467   1.770
 1473SOL     OW 4436   2.533   0.464   1.269
 1473SOL    HW1 4437   2.499   0.375   1.239
 1473SOL    HW2 4438   2.559   0.518   1.189
 1474SOL     OW 4439   2.792   1.678   1.465
 1474SOL    HW1 4440   2.768   1.660   1.370
 1474SOL    HW2 4441   2.822   1.772   1.475
 1475SOL     OW 4442   2.335   0.500   0.191
 1475SOL    HW1 4443   2.396   0.580   0.195
 1475SOL    HW2 4444   2.240   0.531   0.198
 1476SOL     OW 4445   2.021   1.137   1.466
 1476SOL    HW1 4446   2.043   1.076   1.542
 1476SOL    HW2 4447   2.031   1.088   1.380
 1477SOL     OW 4448   3.209   1.059   1.234
 1477SOL    HW1 4449   3.233   0.996   1.160
 1477SOL    HW2 4450   3.119   1.099   1.216
 1478SOL     OW 4451   3.164   0.855   0.309
 1478SOL    HW1 4452   3.078   0.824   0.351
 1478SOL    HW2 4453   3.160   0.841   0.210
 1479SOL     OW 4454   3.621   1.747   1.154
 1479SOL    HW1 4455   3.682   1.777   1.081
 1479SOL    HW2 4456   3.583   1.658   1.132
 1480SOL     OW 4457   3.114   1.731   1.128
 1480SOL    HW1 4458   3.198   1.736   1.074
 1480SOL    HW2 4459   3.091   1.635   1.146
 1481SOL     OW 4460   1.945   1.258   1.022
 1481SOL    HW1 4461   1.940   1.257   1.122
 1481SOL    HW2 4462   1.862   1.217   0.984
 1482SOL     OW 4463   2.550   1.662   1.716
 1482SOL    HW1 4464   2.494   1.743   1.725
 1482SOL    HW2 4465   2.602   1.666   1.630
 1483SOL     OW 4466   2.765   0.086   0.133
 1483SOL    HW1 4467   2.816   0.087   0.047
 1483SOL    HW2 4468   2.821   0.044   0.204
 1484SOL     OW 4469   3.588   0.135   0.523
 1484SOL    HW1 4470   3.661   0.118   0.456
 1484SOL    HW2 4471   3.557   0.048   0.561
 1485SOL     OW 4472   3.250   1.573   0.477
 1485SOL    HW1 4473   3.317   1.585   0.403
 1485SOL    HW2 4474   3.210   1.662   0.500
 1486SOL     OW 4475   1.992   1.794   1.851
 1486SOL    HW1 4476   1.951   1.720   1.904
 1486SOL    HW2 4477   2.056   1.845   1.909
 1487SOL     OW 4478   3.142   0.927   0.672
 1487SOL    HW1 4479   3.202   0.846   0.674
 1487SOL    HW2 4480   3.182   0.996   0.612
 1488SOL     OW 4481   2.692   1.273   1.422
 1488SOL    HW1 4482   2.687   1.306   1.517
 1488SOL    HW2 4483   2.606   1.292   1.376
 1489SOL     OW 4484   2.534   1.616   0.154
 1489SOL    HW1 4485   2.543   1.626   0.055
 1489SOL    HW2 4486   2.494   1.527   0.175
 1490SOL     OW 4487   3.512   1.720   1.394
 1490SOL    HW1 4488   3.565   1.730   1.310
 1490SOL    HW2 4489   3.485   1.810   1.428
 1491SOL     OW 4490   3.703   0.175   0.963
 1491SOL    HW1 4491   3.742   0.090   0.927
 1491SOL    HW2 4492   3.605   0.177   0.944
 1492SOL     OW 4493   2.125   0.326   0.720
 1492SOL    HW1 4494   2.046   0.377   0.686
 1492SOL    HW2 4495   2.116   0.311   0.818
 1493SOL     OW 4496   3.056   1.612   0.031
 1493SOL    HW1 4497   3.062   1.519   0.068
 1493SOL    HW2 4498   2.997   1.612  -0.049
 1494SOL     OW 4499   2.684   1.002   1.372
 1494SOL    HW1 4500   2.724   1.001   1.280
 1494SOL    HW2 4501   2.694   1.094   1.412
 1495SOL     OW 4502   2.778   0.910   0.291
 1495SOL    HW1 4503   2.841   0.948   0.223
 1495SOL    HW2 4504   2.818   0.827   0.330
 1496SOL     OW 4505   3.366   1.607   0.044
 1496SOL    HW1 4506   3.274   1.644   0.051
 1496SOL    HW2 4507   3.404   1.627  -0.046
 1497SOL     OW 4508   2.234   1.288   1.490
 1497SOL    HW1 4509   2.221   1.381   1.456
 1497SOL    HW2 4510   2.150   1.236   1.477
 1498SOL     OW 4511   3.476   1.292   1.289
 1498SOL    HW1 4512   3.536   1.295   1.369
 1498SOL    HW2 4513   3.401   1.356   1.302
 1499SOL     OW 4514   2.901   1.098   0.696
 1499SOL    HW1 4515   2.831   1.051   0.750
 1499SOL    HW2 4516   2.960   1.030   0.653
 1500SOL     OW 4517   2.876   0.236   0.971
 1500SOL    HW1 4518   2.868   0.200   0.878
 1500SOL    HW2 4519   2.874   0.160   1.036
 1501SOL     OW 4520   2.452   1.487   0.491
 1501SOL    HW1 4521   2.494   1.429   0.421
 1501SOL    HW2 4522   2.408   1.566   0.447
 1502SOL     OW 4523   3.571   0.385   1.381
 1502SOL    HW1 4524   3.644   0.454   1.385
 1502SOL    HW2 4525   3.599   0.310   1.322
 1503SOL     OW 4526   2.117   1.348   0.290
 1503SOL    HW1 4527   2.021   1.349   0.263
 1503SOL    HW2 4528   2.129   1.401   0.374
 1504SOL     OW 4529   1.967   1.013   1.726
 1504SOL    HW1 4530   1.890   0.980   1.780
 1504SOL    HW2 4531   2.052   0.983   1.768
 1505SOL     OW 4532   2.534   0.203   1.489
 1505SOL    HW1 4533   2.624   0.187   1.449
 1505SOL    HW2 4534   2.542   0.208   1.588
 1506SOL     OW 4535   3.302   0.856   1.398
 1506SOL    HW1 4536   3.245   0.908   1.335
 1506SOL    HW2 4537   3.398   0.868   1.374
 1507SOL     OW 4538   3.045   1.335   0.119
 1507SOL    HW1 4539   2.946   1.324   0.121
 1507SOL    HW2 4540   3.079   1.350   0.212
 1508SOL     OW 4541   2.475   0.842   1.431
 1508SOL    HW1 4542   2.531   0.923   1.414
 1508SOL    HW2 4543   2.534   0.762   1.434
 1509SOL     OW 4544   3.355   1.767   0.959
 1509SOL    HW1 4545   3.388   1.831   0.890
 1509SOL    HW2 4546   3.421   1.761   1.034
 1510SOL     OW 4547   2.578   0.565   1.708
 1510SOL    HW1 4548   2.597   0.630   1.782
 1510SOL    HW2 4549   2.638   0.485   1.717
 1511SOL     OW 4550   3.312   1.220   1.633
 1511SOL    HW1 4551   3.303   1.210   1.732
 1511SOL    HW2 4552   3.408   1.213   1.607
 1512SOL     OW 4553   2.252   1.741   1.560
 1512SOL    HW1 4554   2.161   1.782   1.558
 1512SOL    HW2 4555   2.245   1.647   1.592
 1513SOL     OW 4556   3.536   0.883   1.254
 1513SOL    HW1 4557   3.509   0.794   1.217
 1513SOL    HW2 4558   3.537   0.951   1.181
 1514SOL     OW 4559   3.087   0.325   0.449
 1514SOL    HW1 4560   3.152   0.251   0.438
 1514SOL    HW2 4561   3.107   0.375   0.533
 1515SOL     OW 4562   2.456   0.745   0.652
 1515SOL    HW1 4563   2.506   0.830   0.633
 1515SOL    HW2 4564   2.368   0.747   0.604
 1516SOL     OW 4565   3.639   0.342   1.642
 1516SOL    HW1 4566   3.622   0.373   1.548
 1516SOL    HW2 4567   3.555   0.305   1.680
 1517SOL     OW 4568   3.592   0.934   1.517
 1517SOL    HW1 4569   3.630   1.025   1.532
 1517SOL    HW2 4570   3.584   0.917   1.418
 1518SOL     OW 4571   2.721   1.374   0.016
 1518SOL    HW1 4572   2.675   1.389   0.104
 1518SOL    HW2 4573   2.765   1.459  -0.014
 1519SOL     OW 4574   2.523   1.790   0.953
 1519SOL    HW1 4575   2.477   1.878   0.940
 1519SOL    HW2 4576   2.622   1.802   0.946
 1520SOL     OW 4577   2.721   0.956   0.861
 1520SOL    HW1 4578   2.775   0.887   0.909
 1520SOL    HW2 4579   2.689   1.025   0.927
 1521SOL     OW 4580   2.945   0.984   0.087
 1521SOL    HW1 4581   2.922   1.037   0.005
 1521SOL    HW2 4582   3.026   0.928   0.068
 1522SOL     OW 4583   3.723   1.569   0.851
 1522SOL    HW1 4584   3.652   1.557   0.781
 1522SOL    HW2 4585   3.724   1.490   0.911
 1523SOL     OW 4586   2.083   1.314   1.844
 1523SOL    HW1 4587   2.018   1.241   1.823
 1523SOL    HW2 4588   2.087   1.328   1.942
 1524SOL     OW 4589   1.941   1.240   0.653
 1524SOL    HW1 4590   1.940   1.193   0.741
 1524SOL    HW2 4591   2.023   1.212   0.602
 1525SOL     OW 4592   2.534   1.391   1.624
 1525SOL    HW1 4593   2.456   1.341   1.662
 1525SOL    HW2 4594   2.531   1.486   1.655
 1526SOL     OW 4595   3.686   0.192   1.227
 1526SOL    HW1 4596   3.682   0.102   1.271
 1526SOL    HW2 4597   3.689   0.181   1.128
 1527SOL     OW 4598   2.290   0.424   0.520
 1527SOL    HW1 4599   2.320   0.352   0.458
 1527SOL    HW2 4600   2.251   0.384   0.603
 1528SOL     OW 4601   3.567   1.487   1.104
 1528SOL    HW1 4602   3.474   1.462   1.077
 1528SOL    HW2 4603   3.593   1.437   1.186
 1529SOL     OW 4604   2.179   0.547   1.280
 1529SOL    HW1 4605   2.217   0.488   1.352
 1529SOL    HW2 4606   2.219   0.521   1.192
 1530SOL     OW 4607   2.674   1.586   0.687
 1530SOL    HW1 4608   2.706   1.596   0.593
 1530SOL    HW2 4609   2.595   1.524   0.689
 1531SOL     OW 4610   3.286   0.214   1.112
 1531SOL    HW1 4611   3.338   0.149   1.167
 1531SOL    HW2 4612   3.237   0.277   1.173
 1532SOL     OW 4613   2.863   0.034   1.154
 1532SOL    HW1 4614   2.800  -0.038   1.123
 1532SOL    HW2 4615   2.956  -0.002   1.154
 1533SOL     OW 4616   2.632   1.330   0.301
 1533SOL    HW1 4617   2.586   1.243   0.318
 1533SOL    HW2 4618   2.723   1.327   0.342
 1534SOL     OW 4619   2.480   1.567   1.284
 1534SOL    HW1 4620   2.475   1.649   1.341
 1534SOL    HW2 4621   2.569   1.564   1.239
 1535SOL     OW 4622   3.214   0.052   0.168
 1535SOL    HW1 4623   3.249   0.011   0.084
 1535SOL    HW2 4624   3.124   0.014   0.188
 1536SOL     OW 4625   3.162   0.453   0.691
 1536SOL    HW1 4626   3.103   0.533   0.695
 1536SOL    HW2 4627   3.177   0.418   0.784
 1537SOL     OW 4628   3.455   0.221   0.882
 1537SOL    HW1 4629   3.371   0.220   0.936
 1537SOL    HW2 4630   3.457   0.304   0.826
 1538SOL     OW 4631   1.901   1.077   0.300
 1538SOL    HW1 4632   2.000   1.066   0.291
 1538SOL    HW2 4633   1.861   0.991   0.332
 1539SOL     OW 4634   2.737   1.646   0.337
 1539SOL    HW1 4635   2.660   1.611   0.283
 1539SOL    HW2 4636   2.705   1.717   0.399
 1540SOL     OW 4637   2.092   0.628   1.975
 1540SOL    HW1 4638   1.999   0.626   2.012
 1540SOL    HW2 4639   2.093   0.589   1.883
 1541SOL     OW 4640   2.087   0.275   2.858
 1541SOL    HW1 4641   2.122   0.258   2.950
 1541SOL    HW2 4642   1.999   0.230   2.846
 1542SOL     OW 4643   1.881   0.368   2.509
 1542SOL    HW1 4644   1.799   0.411   2.548
 1542SOL    HW2 4645   1.853   0.295   2.446
 1543SOL     OW 4646   2.431   1.275   3.027
 1543SOL    HW1 4647   2.338   1.268   2.990
 1543SOL    HW2 4648   2.442   1.364   3.071
 1544SOL     OW 4649   3.417   1.511   2.565
 1544SOL    HW1 4650   3.360   1.495   2.646
 1544SOL    HW2 4651   3.358   1.521   2.485
 1545SOL     OW 4652   2.997   0.703   2.579
 1545SOL    HW1 4653   3.054   0.781   2.554
 1545SOL    HW2 4654   2.937   0.729   2.655
 1546SOL     OW 4655   3.617   0.607   2.093
 1546SOL    HW1 4656   3.605   0.594   1.994
 1546SOL    HW2 4657   3.587   0.526   2.142
 1547SOL     OW 4658   2.630   1.144   2.885
 1547SOL    HW1 4659   2.552   1.161   2.945
 1547SOL    HW2 4660   2.664   1.231   2.849
 1548SOL     OW 4661   2.712   0.798   3.685
 1548SOL    HW1 4662   2.708   0.874   3.750
 1548SOL    HW2 4663   2.734   0.834   3.594
 1549SOL     OW 4664   2.547   1.012   2.527
 1549SOL    HW1 4665   2.616   0.996   2.597
 1549SOL    HW2 4666   2.474   1.069   2.565
 1550SOL     OW 4667   2.548   1.161   3.665
 1550SOL    HW1 4668   2.608   1.240   3.679
 1550SOL    HW2 4669   2.462   1.192   3.624
 1551SOL     OW 4670   2.197   1.435   2.923
 1551SOL    HW1 4671   2.119   1.404   2.870
 1551SOL    HW2 4672   2.255   1.493   2.866
 1552SOL     OW 4673   3.322   1.505   3.201
 1552SOL    HW1 4674   3.346   1.599   3.227
 1552SOL    HW2 4675   3.306   1.451   3.283
 1553SOL     OW 4676   2.300   0.392   3.361
 1553SOL    HW1 4677   2.382   0.336   3.370
 1553SOL    HW2 4678   2.219   0.334   3.365
 1554SOL     OW 4679   3.465   0.447   2.599
 1554SOL    HW1 4680   3.391   0.493   2.549
 1554SOL    HW2 4681   3.516   0.515   2.652
 1555SOL     OW 4682   2.093   1.713   2.345
 1555SOL    HW1 4683   2.127   1.790   2.399
 1555SOL    HW2 4684   2.137   1.713   2.255
 1556SOL     OW 4685   2.989   1.341   3.552
 1556SOL    HW1 4686   3.036   1.341   3.640
 1556SOL    HW2 4687   2.941   1.254   3.541
 1557SOL     OW 4688   2.092   1.434   2.400
 1557SOL    HW1 4689   2.066   1.530   2.400
 1557SOL    HW2 4690   2.021   1.380   2.445
 1558SOL     OW 4691   2.102   1.091   2.748
 1558SOL    HW1 4692   2.116   1.007   2.800
 1558SOL    HW2 4693   2.047   1.155   2.803
 1559SOL     OW 4694   2.482   1.786   3.301
 1559SOL    HW1 4695   2.390   1.769   3.336
 1559SOL    HW2 4696   2.510   1.878   3.327
 1560SOL     OW 4697   2.468   0.964   1.985
 1560SOL    HW1 4698   2.475   1.048   1.931
 1560SOL    HW2 4699   2.514   0.977   2.073
 1561SOL     OW 4700   3.456   0.114   3.342
 1561SOL    HW1 4701   3.438   0.181   3.270
 1561SOL    HW2 4702   3.453   0.160   3.431
 1562SOL     OW 4703   1.984   0.643   2.425
 1562SOL    HW1 4704   1.939   0.555   2.442
 1562SOL    HW2 4705   1.983   0.697   2.509
 1563SOL     OW 4706   3.704   1.767   2.221
 1563SOL    HW1 4707   3.758   1.738   2.301
 1563SOL    HW2 4708   3.734   1.857   2.192
 1564SOL     OW 4709   1.889   1.596   1.979
 1564SOL    HW1 4710   1.870   1.500   2.000
 1564SOL    HW2 4711   1.856   1.654   2.054
 1565SOL     OW 4712   3.551   0.922   2.474
 1565SOL    HW1 4713   3.646   0.893   2.482
 1565SOL    HW2 4714   3.543   0.987   2.399
 1566SOL     OW 4715   3.503   1.108   2.294
 1566SOL    HW1 4716   3.589   1.110   2.242
 1566SOL    HW2 4717   3.517   1.155   2.382
 1567SOL     OW 4718   1.975   0.737   3.459
 1567SOL    HW1 4719   2.063   0.724   3.504
 1567SOL    HW2 4720   1.962   0.834   3.437
 1568SOL     OW 4721   2.475   1.365   2.588
 1568SOL    HW1 4722   2.426   1.278   2.597
 1568SOL    HW2 4723   2.452   1.408   2.501
 1569SOL     OW 4724   3.155   1.228   3.285
 1569SOL    HW1 4725   3.192   1.155   3.227
 1569SOL    HW2 4726   3.207   1.233   3.370
 1570SOL     OW 4727   2.671   0.004   2.364
 1570SOL    HW1 4728   2.711   0.095   2.355
 1570SOL    HW2 4729   2.571   0.012   2.370
 1571SOL     OW 4730   2.059   0.976   3.126
 1571SOL    HW1 4731   2.148   0.931   3.112
 1571SOL    HW2 4732   1.986   0.911   3.107
 1572SOL     OW 4733   3.387   0.999   2.052
 1572SOL    HW1 4734   3.324   0.923   2.065
 1572SOL    HW2 4735   3.435   1.017   2.138
 1573SOL     OW 4736   3.049   1.792   3.478
 1573SOL    HW1 4737   3.073   1.852   3.402
 1573SOL    HW2 4738   3.056   1.697   3.448
 1574SOL     OW 4739   2.179   0.251   3.663
 1574SOL    HW1 4740   2.250   0.322   3.669
 1574SOL    HW2 4741   2.091   0.290   3.691
 1575SOL     OW 4742   3.328   1.417   2.815
 1575SOL    HW1 4743   3.269   1.423   2.895
 1575SOL    HW2 4744   3.313   1.329   2.769
 1576SOL     OW 4745   3.529   1.714   2.434
 1576SOL    HW1 4746   3.488   1.691   2.346
 1576SOL    HW2 4747   3.511   1.640   2.499
 1577SOL     OW 4748   2.460   0.729   2.132
 1577SOL    HW1 4749   2.484   0.798   2.064
 1577SOL    HW2 4750   2.382   0.762   2.186
 1578SOL     OW 4751   3.143   0.345   2.806
 1578SOL    HW1 4752   3.057   0.295   2.793
 1578SOL    HW2 4753   3.205   0.291   2.862
 1579SOL     OW 4754   3.438   1.662   2.169
 1579SOL    HW1 4755   3.527   1.708   2.172
 1579SOL    HW2 4756   3.417   1.638   2.074
 1580SOL     OW 4757   2.669   0.605   3.327
 1580SOL    HW1 4758   2.622   0.602   3.416
 1580SOL    HW2 4759   2.618   0.550   3.261
 1581SOL     OW 4760   3.256   0.469   3.536
 1581SOL    HW1 4761   3.236   0.512   3.624
 1581SOL    HW2 4762   3.334   0.407   3.545
 1582SOL     OW 4763   2.835   0.890   3.434
 1582SOL    HW1 4764   2.881   0.806   3.405
 1582SOL    HW2 4765   2.779   0.924   3.359
 1583SOL     OW 4766   2.853   0.410   3.104
 1583SOL    HW1 4767   2.776   0.444   3.158
 1583SOL    HW2 4768   2.819   0.359   3.025
 1584SOL     OW 4769   2.903   0.701   2.291
 1584SOL    HW1 4770   2.929   0.697   2.387
 1584SOL    HW2 4771   2.818   0.650   2.277
 1585SOL     OW 4772   1.938   0.811   2.651
 1585SOL    HW1 4773   2.037   0.799   2.660
 1585SOL    HW2 4774   1.914   0.906   2.672
 1586SOL     OW 4775   1.992   1.821   3.433
 1586SOL    HW1 4776   1.982   1.806   3.532
 1586SOL    HW2 4777   1.906   1.857   3.397
 1587SOL     OW 4778   2.727   0.348   2.057
 1587SOL    HW1 4779   2.786   0.411   2.008
 1587SOL    HW2 4780   2.746   0.254   2.028
 1588SOL     OW 4781   3.581   0.585   3.693
 1588SOL    HW1 4782   3.555   0.674   3.657
 1588SOL    HW2 4783   3.579   0.517   3.620
 1589SOL     OW 4784   3.224   1.144   2.407
 1589SOL    HW1 4785   3.307   1.115   2.359
 1589SOL    HW2 4786   3.175   1.211   2.351
 1590SOL     OW 4787   2.412   0.196   2.747
 1590SOL    HW1 4788   2.407   0.191   2.847
 1590SOL    HW2 4789   2.414   0.292   2.718
 1591SOL     OW 4790   2.870   1.456   2.339
 1591SOL    HW1 4791   2.824   1.528   2.287
 1591SOL    HW2 4792   2.866   1.476   2.437
 1592SOL     OW 4793   2.213   1.801   2.715
 1592SOL    HW1 4794   2.263   1.715   2.721
 1592SOL    HW2 4795   2.278   1.878   2.712
 1593SOL     OW 4796   3.657   1.066   2.735
 1593SOL    HW1 4797   3.595   1.051   2.659
 1593SOL    HW2 4798   3.605   1.077   2.820
 1594SOL     OW 4799   3.089   1.550   3.368
 1594SOL    HW1 4800   3.095   1.473   3.432
 1594SOL    HW2 4801   3.037   1.524   3.288
 1595SOL     OW 4802   2.183   0.943   2.104
 1595SOL    HW1 4803   2.265   0.982   2.062
 1595SOL    HW2 4804   2.156   0.861   2.055
 1596SOL     OW 4805   3.320   0.735   2.590
 1596SOL    HW1 4806   3.315   0.670   2.665
 1596SOL    HW2 4807   3.400   0.794   2.603
 1597SOL     OW 4808   2.323   1.266   3.589
 1597SOL    HW1 4809   2.273   1.267   3.503
 1597SOL    HW2 4810   2.260   1.248   3.665
 1598SOL     OW 4811   2.973   1.776   2.099
 1598SOL    HW1 4812   2.913   1.714   2.149
 1598SOL    HW2 4813   3.004   1.732   2.014
 1599SOL     OW 4814   2.064   0.285   3.360
 1599SOL    HW1 4815   1.984   0.345   3.347
 1599SOL    HW2 4816   2.054   0.236   3.446
 1600SOL     OW 4817   3.494   1.377   1.943
 1600SOL    HW1 4818   3.462   1.471   1.933
 1600SOL    HW2 4819   3.418   1.314   1.931
 1601SOL     OW 4820   2.326   1.743   2.185
 1601SOL    HW1 4821   2.359   1.782   2.271
 1601SOL    HW2 4822   2.402   1.736   2.120
 1602SOL     OW 4823   3.262   0.107   2.288
 1602SOL    HW1 4824   3.238   0.070   2.198
 1602SOL    HW2 4825   3.361   0.123   2.292
 1603SOL     OW 4826   2.111   1.785   3.103
 1603SOL    HW1 4827   2.168   1.720   3.153
 1603SOL    HW2 4828   2.095   1.752   3.010
 1604SOL     OW 4829   2.802   1.698   2.766
 1604SOL    HW1 4830   2.882   1.641   2.787
 1604SOL    HW2 4831   2.753   1.658   2.689
 1605SOL     OW 4832   2.244   0.700   2.342
 1605SOL    HW1 4833   2.289   0.610   2.339
 1605SOL    HW2 4834   2.150   0.689   2.375
 1606SOL     OW 4835   3.409   0.222   3.591
 1606SOL    HW1 4836   3.404   0.259   3.683
 1606SOL    HW2 4837   3.337   0.153   3.579
 1607SOL     OW 4838   2.476   0.122   1.979
 1607SOL    HW1 4839   2.574   0.100   1.986
 1607SOL    HW2 4840   2.445   0.105   1.886
 1608SOL     OW 4841   2.643   0.264   3.611
 1608SOL    HW1 4842   2.710   0.203   3.654
 1608SOL    HW2 4843   2.570   0.283   3.676
 1609SOL     OW 4844   2.750   1.514   3.057
 1609SOL    HW1 4845   2.727   1.489   2.963
 1609SOL    HW2 4846   2.811   1.445   3.096
 1610SOL     OW 4847   3.213   0.590   3.295
 1610SOL    HW1 4848   3.241   0.547   3.380
 1610SOL    HW2 4849   3.238   0.686   3.296
 1611SOL     OW 4850   2.665   1.402   2.786
 1611SOL    HW1 4851   2.755   1.416   2.744
 1611SOL    HW2 4852   2.594   1.404   2.715
 1612SOL     OW 4853   2.784   0.503   2.761
 1612SOL    HW1 4854   2.759   0.494   2.665
 1612SOL    HW2 4855   2.832   0.421   2.792
 1613SOL     OW 4856   2.401   0.064   2.374
 1613SOL    HW1 4857   2.320   0.065   2.432
 1613SOL    HW2 4858   2.404   0.147   2.319
 1614SOL     OW 4859   3.296   1.188   1.903
 1614SOL    HW1 4860   3.328   1.112   1.960
 1614SOL    HW2 4861   3.204   1.215   1.933
 1615SOL     OW 4862   2.159   0.035   2.033
 1615SOL    HW1 4863   2.208   0.119   2.012
 1615SOL    HW2 4864   2.221  -0.030   2.078
 1616SOL     OW 4865   2.797   0.236   2.342
 1616SOL    HW1 4866   2.749   0.277   2.264
 1616SOL    HW2 4867   2.896   0.234   2.323
 1617SOL     OW 4868   2.938   0.683   3.326
 1617SOL    HW1 4869   2.858   0.622   3.329
 1617SOL    HW2 4870   3.019   0.630   3.302
 1618SOL     OW 4871   3.089   1.570   2.655
 1618SOL    HW1 4872   3.110   1.644   2.590
 1618SOL    HW2 4873   3.157   1.570   2.728
 1619SOL     OW 4874   2.321   1.152   2.603
 1619SOL    HW1 4875   2.250   1.125   2.668
 1619SOL    HW2 4876   2.295   1.124   2.510
 1620SOL     OW 4877   3.133   1.797   2.453
 1620SOL    HW1 4878   3.177   1.861   2.389
 1620SOL    HW2 4879   3.083   1.849   2.523
 1621SOL     OW 4880   2.894   0.549   1.878
 1621SOL    HW1 4881   2.853   0.631   1.839
 1621SOL    HW2 4882   2.958   0.575   1.951
 1622SOL     OW 4883   1.940   0.556   3.248
 1622SOL    HW1 4884   2.032   0.555   3.207
 1622SOL    HW2 4885   1.934   0.630   3.315
 1623SOL     OW 4886   2.423   0.222   3.009
 1623SOL    HW1 4887   2.461   0.138   3.046
 1623SOL    HW2 4888   2.335   0.241   3.053
 1624SOL     OW 4889   2.728   0.454   2.504
 1624SOL    HW1 4890   2.696   0.526   2.442
 1624SOL    HW2 4891   2.752   0.373   2.451
 1625SOL     OW 4892   2.879   0.039   2.615
 1625SOL    HW1 4893   2.807   0.044   2.546
 1625SOL    HW2 4894   2.855  -0.030   2.684
 1626SOL     OW 4895   3.291   1.173   2.729
 1626SOL    HW1 4896   3.236   1.089   2.722
 1626SOL    HW2 4897   3.317   1.202   2.637
 1627SOL     OW 4898   3.328   0.590   2.854
 1627SOL    HW1 4899   3.298   0.495   2.861
 1627SOL    HW2 4900   3.401   0.606   2.920
 1628SOL     OW 4901   3.719   0.833   2.239
 1628SOL    HW1 4902   3.761   0.769   2.303
 1628SOL    HW2 4903   3.681   0.782   2.161
 1629SOL     OW 4904   2.350   1.385   2.036
 1629SOL    HW1 4905   2.263   1.370   2.083
 1629SOL    HW2 4906   2.333   1.411   1.941
 1630SOL     OW 4907   3.526   1.280   2.519
 1630SOL    HW1 4908   3.625   1.288   2.533
 1630SOL    HW2 4909   3.481   1.364   2.550
 1631SOL     OW 4910   3.252   0.575   1.940
 1631SOL    HW1 4911   3.198   0.554   2.021
 1631SOL    HW2 4912   3.343   0.534   1.949
 1632SOL     OW 4913   2.389   0.256   2.190
 1632SOL    HW1 4914   2.416   0.197   2.115
 1632SOL    HW2 4915   2.389   0.351   2.159
 1633SOL     OW 4916   3.616   1.223   3.450
 1633SOL    HW1 4917   3.707   1.184   3.437
 1633SOL    HW2 4918   3.624   1.319   3.474
 1634SOL     OW 4919   2.926   1.347   3.202
 1634SOL    HW1 4920   2.846   1.324   3.257
 1634SOL    HW2 4921   3.009   1.321   3.251
 1635SOL     OW 4922   3.454   1.629   3.487
 1635SOL    HW1 4923   3.481   1.663   3.397
 1635SOL    HW2 4924   3.533   1.591   3.533
 1636SOL     OW 4925   2.973   1.195   2.962
 1636SOL    HW1 4926   2.933   1.239   3.043
 1636SOL    HW2 4927   2.932   1.232   2.879
 1637SOL     OW 4928   3.500   1.099   2.941
 1637SOL    HW1 4929   3.505   1.180   3.000
 1637SOL    HW2 4930   3.414   1.101   2.890
 1638SOL     OW 4931   2.777   0.089   3.264
 1638SOL    HW1 4932   2.802   0.069   3.169
 1638SOL    HW2 4933   2.849   0.145   3.306
 1639SOL     OW 4934   2.842   1.116   3.581
 1639SOL    HW1 4935   2.743   1.122   3.591
 1639SOL    HW2 4936   2.865   1.036   3.525
 1640SOL     OW 4937   2.567   1.050   2.230
 1640SOL    HW1 4938   2.553   1.057   2.329
 1640SOL    HW2 4939   2.651   0.999   2.212
 1641SOL     OW 4940   2.272   0.813   3.113
 1641SOL    HW1 4941   2.358   0.825   3.163
 1641SOL    HW2 4942   2.230   0.726   3.140
 1642SOL     OW 4943   3.136   0.386   3.124
 1642SOL    HW1 4944   3.157   0.460   3.188
 1642SOL    HW2 4945   3.047   0.403   3.081
 1643SOL     OW 4946   1.926   1.564   3.193
 1643SOL    HW1 4947   1.880   1.646   3.159
 1643SOL    HW2 4948   2.024   1.583   3.202
 1644SOL     OW 4949   2.229   1.100   2.363
 1644SOL    HW1 4950   2.222   1.183   2.307
 1644SOL    HW2 4951   2.233   1.020   2.303
 1645SOL     OW 4952   2.428   0.537   2.727
 1645SOL    HW1 4953   2.440   0.603   2.653
 1645SOL    HW2 4954   2.474   0.571   2.810
 1646SOL     OW 4955   3.114   1.348   2.250
 1646SOL    HW1 4956   3.164   1.425   2.290
 1646SOL    HW2 4957   3.019   1.350   2.282
 1647SOL     OW 4958   3.134   1.445   3.004
 1647SOL    HW1 4959   3.181   1.458   3.091
 1647SOL    HW2 4960   3.068   1.371   3.013
 1648SOL     OW 4961   3.444   0.639   2.334
 1648SOL    HW1 4962   3.413   0.700   2.407
 1648SOL    HW2 4963   3.494   0.691   2.265
 1649SOL     OW 4964   2.216   1.510   3.191
 1649SOL    HW1 4965   2.195   1.466   3.104
 1649SOL    HW2 4966   2.313   1.536   3.194
 1650SOL     OW 4967   2.264   0.751   3.460
 1650SOL    HW1 4968   2.332   0.806   3.413
 1650SOL    HW2 4969   2.304   0.663   3.487
 1651SOL     OW 4970   3.449   0.779   3.532
 1651SOL    HW1 4971   3.357   0.817   3.527
 1651SOL    HW2 4972   3.509   0.826   3.467
 1652SOL     OW 4973   2.875   0.105   3.632
 1652SOL    HW1 4974   2.881   0.190   3.580
 1652SOL    HW2 4975   2.907   0.029   3.575
 1653SOL     OW 4976   2.366   0.050   3.602
 1653SOL    HW1 4977   2.324  -0.007   3.532
 1653SOL    HW2 4978   2.300   0.119   3.634
 1654SOL     OW 4979   2.435   0.870   2.891
 1654SOL    HW1 4980   2.479   0.959   2.882
 1654SOL    HW2 4981   2.372   0.870   2.968
 1655SOL     OW 4982   3.222   0.862   2.907
 1655SOL    HW1 4983   3.147   0.862   2.841
 1655SOL    HW2 4984   3.259   0.770   2.916
 1656SOL     OW 4985   3.071   0.525   2.137
 1656SOL    HW1 4986   3.084   0.441   2.191
 1656SOL    HW2 4987   3.042   0.599   2.197
 1657SOL     OW 4988   2.169   0.213   3.093
 1657SOL    HW1 4989   2.146   0.250   3.183
 1657SOL    HW2 4990   2.139   0.118   3.087
 1658SOL     OW 4991   1.899   1.310   3.144
 1658SOL    HW1 4992   1.952   1.261   3.212
 1658SOL    HW2 4993   1.921   1.408   3.149
 1659SOL     OW 4994   2.594   0.634   2.926
 1659SOL    HW1 4995   2.653   0.608   2.850
 1659SOL    HW2 4996   2.566   0.730   2.915
 1660SOL     OW 4997   3.590   0.935   3.716
 1660SOL    HW1 4998   3.544   0.928   3.627
 1660SOL    HW2 4999   3.528   0.979   3.782
 1661SOL     OW 5000   2.169   0.063   2.480
 1661SOL    HW1 5001   2.158   0.157   2.513
 1661SOL    HW2 5002   2.164   0.000   2.557
 1662SOL     OW 5003   3.484   0.367   2.236
 1662SOL    HW1 5004   3.486   0.291   2.300
 1662SOL    HW2 5005   3.436   0.444   2.276
 1663SOL     OW 5006   2.885   0.766   2.828
 1663SOL    HW1 5007   2.900   0.787   2.924
 1663SOL    HW2 5008   2.855   0.671   2.819
 1664SOL     OW 5009   2.842   1.573   3.562
 1664SOL    HW1 5010   2.822   1.617   3.474
 1664SOL    HW2 5011   2.881   1.482   3.546
 1665SOL     OW 5012   3.721   1.518   3.467
 1665SOL    HW1 5013   3.735   1.545   3.372
 1665SOL    HW2 5014   3.804   1.540   3.520
 1666SOL     OW 5015   2.212   0.898   3.666
 1666SOL    HW1 5016   2.288   0.942   3.714
 1666SOL    HW2 5017   2.247   0.851   3.584
 1667SOL     OW 5018   3.402   0.274   1.987
 1667SOL    HW1 5019   3.341   0.199   2.010
 1667SOL    HW2 5020   3.424   0.326   2.070
 1668SOL     OW 5021   3.165   0.838   1.904
 1668SOL    HW1 5022   3.199   0.745   1.919
 1668SOL    HW2 5023   3.183   0.865   1.809
 1669SOL     OW 5024   2.930   1.333   2.711
 1669SOL    HW1 5025   2.937   1.249   2.656
 1669SOL    HW2 5026   2.992   1.402   2.675
 1670SOL     OW 5027   2.181   0.810   2.811
 1670SOL    HW1 5028   2.274   0.846   2.816
 1670SOL    HW2 5029   2.175   0.725   2.863
 1671SOL     OW 5030   2.201   0.509   2.868
 1671SOL    HW1 5031   2.149   0.426   2.851
 1671SOL    HW2 5032   2.278   0.514   2.804
 1672SOL     OW 5033   3.000   0.380   3.540
 1672SOL    HW1 5034   2.955   0.443   3.604
 1672SOL    HW2 5035   3.093   0.411   3.523
 1673SOL     OW 5036   3.022   0.207   3.339
 1673SOL    HW1 5037   3.022   0.271   3.416
 1673SOL    HW2 5038   3.050   0.255   3.256
 1674SOL     OW 5039   1.870   1.326   2.062
 1674SOL    HW1 5040   1.777   1.347   2.031
 1674SOL    HW2 5041   1.880   1.227   2.075
 1675SOL     OW 5042   1.950   1.801   2.789
 1675SOL    HW1 5043   1.908   1.715   2.762
 1675SOL    HW2 5044   2.044   1.804   2.755
 1676SOL     OW 5045   2.366   1.568   2.772
 1676SOL    HW1 5046   2.432   1.642   2.781
 1676SOL    HW2 5047   2.410   1.489   2.730
 1677SOL     OW 5048   2.864   0.796   3.100
 1677SOL    HW1 5049   2.905   0.764   3.186
 1677SOL    HW2 5050   2.768   0.769   3.097
 1678SOL     OW 5051   1.902   0.544   2.976
 1678SOL    HW1 5052   1.987   0.511   2.935
 1678SOL    HW2 5053   1.915   0.559   3.074
 1679SOL     OW 5054   2.051   0.520   3.584
 1679SOL    HW1 5055   2.110   0.480   3.514
 1679SOL    HW2 5056   1.993   0.591   3.543
 1680SOL     OW 5057   3.231   0.950   3.522
 1680SOL    HW1 5058   3.270   1.039   3.542
 1680SOL    HW2 5059   3.241   0.930   3.425
 1681SOL     OW 5060   2.677   0.572   2.187
 1681SOL    HW1 5061   2.684   0.483   2.141
 1681SOL    HW2 5062   2.583   0.606   2.179
 1682SOL     OW 5063   3.519   0.604   3.068
 1682SOL    HW1 5064   3.481   0.535   3.130
 1682SOL    HW2 5065   3.601   0.568   3.024
 1683SOL     OW 5066   2.114   1.564   3.606
 1683SOL    HW1 5067   2.084   1.621   3.682
 1683SOL    HW2 5068   2.107   1.467   3.632
 1684SOL     OW 5069   2.533   0.464   3.131
 1684SOL    HW1 5070   2.499   0.375   3.101
 1684SOL    HW2 5071   2.559   0.518   3.051
 1685SOL     OW 5072   2.792   1.678   3.327
 1685SOL    HW1 5073   2.768   1.660   3.232
 1685SOL    HW2 5074   2.822   1.772   3.337
 1686SOL     OW 5075   2.335   0.500   2.053
 1686SOL    HW1 5076   2.396   0.580   2.057
 1686SOL    HW2 5077   2.240   0.531   2.060
 1687SOL     OW 5078   2.021   1.137   3.328
 1687SOL    HW1 5079   2.043   1.076   3.404
 1687SOL    HW2 5080   2.031   1.088   3.242
 1688SOL     OW 5081   3.209   1.059   3.096
 1688SOL    HW1 5082   3.233   0.996   3.022
 1688SOL    HW2 5083   3.119   1.099   3.078
 1689SOL     OW 5084   3.164   0.855   2.171
 1689SOL    HW1 5085   3.078   0.824   2.213
 1689SOL    HW2 5086   3.160   0.841   2.072
 1690SOL     OW 5087   3.621   1.747   3.016
 1690SOL    HW1 5088   3.682   1.777   2.943
 1690SOL    HW2 5089   3.583   1.658   2.994
 1691SOL     OW 5090   3.114   1.731   2.990
 1691SOL    HW1 5091   3.198   1.736   2.936
 1691SOL    HW2 5092   3.091   1.635   3.008
 1692SOL     OW 5093   1.945   1.258   2.884
 1692SOL    HW1 5094   1.940   1.257   2.984
 1692SOL    HW2 5095   1.862   1.217   2.846
 1693SOL     OW 5096   2.550   1.662   3.578
 1693SOL    HW1 5097   2.494   1.743   3.587
 1693SOL    HW2 5098   2.602   1.666   3.492
 1694SOL     OW 5099   3.588   0.135   2.385
 1694SOL    HW1 5100   3.661   0.118   2.318
 1694SOL    HW2 5101   3.557   0.048   2.423
 1695SOL     OW 5102   3.250   1.573   2.339
 1695SOL    HW1 5103   3.317   1.585   2.265
 1695SOL    HW2 5104   3.210   1.662   2.362
 1696SOL     OW 5105   1.992   1.794   3.713
 1696SOL    HW1 5106   1.951   1.720   3.766
 1696SOL    HW2 5107   2.056   1.845   3.771
 1697SOL     OW 5108   3.142   0.927   2.534
 1697SOL    HW1 5109   3.202   0.846   2.536
 1697SOL    HW2 5110   3.182   0.996   2.474
 1698SOL     OW 5111   2.692   1.273   3.284
 1698SOL    HW1 5112   2.687   1.306   3.379
 1698SOL    HW2 5113   2.606   1.292   3.238
 1699SOL     OW 5114   2.534   1.616   2.016
 1699SOL    HW1 5115   2.543   1.626   1.917
 1699SOL    HW2 5116   2.494   1.527   2.037
 1700SOL     OW 5117   3.512   1.720   3.256
 1700SOL    HW1 5118   3.565   1.730   3.172
 1700SOL    HW2 5119   3.485   1.810   3.290
 1701SOL     OW 5120   3.703   0.175   2.825
 1701SOL    HW1 5121   3.742   0.090   2.789
 1701SOL    HW2 5122   3.605   0.177   2.806
 1702SOL     OW 5123   2.125   0.326   2.582
 1702SOL    HW1 5124   2.046   0.377   2.548
 1702SOL    HW2 5125   2.116   0.311   2.680
 1703SOL     OW 5126   3.056   1.612   1.893
 1703SOL    HW1 5127   3.062   1.519   1.930
 1703SOL    HW2 5128   2.997   1.612   1.813
 1704SOL     OW 5129   2.684   1.002   3.234
 1704SOL    HW1 5130   2.724   1.001   3.142
 1704SOL    HW2 5131   2.694   1.094   3.274
 1705SOL     OW 5132   2.778   0.910   2.153
 1705SOL    HW1 5133   2.841   0.948   2.085
 1705SOL    HW2 5134   2.818   0.827   2.192
 1706SOL     OW 5135   3.366   1.607   1.906
 1706SOL    HW1 5136   3.274   1.644   1.913
 1706SOL    HW2 5137   3.404   1.627   1.816
 1707SOL     OW 5138   2.234   1.288   3.352
 1707SOL    HW1 5139   2.221   1.381   3.318
 1707SOL    HW2 5140   2.150   1.236   3.339
 1708SOL     OW 5141   3.476   1.292   3.151
 1708SOL    HW1 5142   3.536   1.295   3.231
 1708SOL    HW2 5143   3.401   1.356   3.164
 1709SOL     OW 5144   2.901   1.098   2.558
 1709SOL    HW1 5145   2.831   1.051   2.612
 1709SOL    HW2 5146   2.960   1.030   2.515
 1710SOL     OW 5147   2.876   0.236   2.833
 1710SOL    HW1 5148   2.868   0.200   2.740
 1710SOL    HW2 5149   2.874   0.160   2.898
 1711SOL     OW 5150   2.452   1.487   2.353
 1711SOL    HW1 5151   2.494   1.429   2.283
 1711SOL    HW2 5152   2.408   1.566   2.309
 1712SOL     OW 5153   3.571   0.385   3.243
 1712SOL    HW1 5154   3.644   0.454   3.247
 1712SOL    HW2 5155   3.599   0.310   3.184
 1713SOL     OW 5156   2.117   1.348   2.152
 1713SOL    HW1 5157   2.021   1.349   2.125
 1713SOL    HW2 5158   2.129   1.401   2.236
 1714SOL     OW 5159   1.967   1.013   3.588
 1714SOL    HW1 5160   1.890   0.980   3.642
 1714SOL    HW2 5161   2.052   0.983   3.630
 1715SOL     OW 5162   2.534   0.203   3.351
 1715SOL    HW1 5163   2.624   0.187   3.311
 1715SOL    HW2 5164   2.542   0.208   3.450
 1716SOL     OW 5165   1.937   0.345   1.895
 1716SOL    HW1 5166   1.845   0.317   1.866
 1716SOL    HW2 5167   1.968   0.422   1.839
 1717SOL     OW 5168   3.302   0.856   3.260
 1717SOL    HW1 5169   3.245   0.908   3.197
 1717SOL    HW2 5170   3.398   0.868   3.236
 1718SOL     OW 5171   1.934   0.166   2.180
 1718SOL    HW1 5172   1.917   0.249   2.126
 1718SOL    HW2 5173   2.024   0.129   2.158
 1719SOL     OW 5174   3.045   1.335   1.981
 1719SOL    HW1 5175   2.946   1.324   1.983
 1719SOL    HW2 5176   3.079   1.350   2.074
 1720SOL     OW 5177   2.475   0.842   3.293
 1720SOL    HW1 5178   2.531   0.923   3.276
 1720SOL    HW2 5179   2.534   0.762   3.296
 1721SOL     OW 5180   3.355   1.767   2.821
 1721SOL    HW1 5181   3.388   1.831   2.752
 1721SOL    HW2 5182   3.421   1.761   2.896
 1722SOL     OW 5183   2.578   0.565   3.570
 1722SOL    HW1 5184   2.597   0.630   3.644
 1722SOL    HW2 5185   2.638   0.485   3.579
 1723SOL     OW 5186   3.312   1.220   3.495
 1723SOL    HW1 5187   3.303   1.210   3.594
 1723SOL    HW2 5188   3.408   1.213   3.469
 1724SOL     OW 5189   2.252   1.741   3.422
 1724SOL    HW1 5190   2.161   1.782   3.420
 1724SOL    HW2 5191   2.245   1.647   3.454
 1725SOL     OW 5192   3.536   0.883   3.116
 1725SOL    HW1 5193   3.509   0.794   3.079
 1725SOL    HW2 5194   3.537   0.951   3.043
 1726SOL     OW 5195   3.087   0.325   2.311
 1726SOL    HW1 5196   3.152   0.251   2.300
 1726SOL    HW2 5197   3.107   0.375   2.395
 1727SOL     OW 5198   2.456   0.745   2.514
 1727SOL    HW1 5199   2.506   0.830   2.495
 1727SOL    HW2 5200   2.368   0.747   2.466
 1728SOL     OW 5201   3.639   0.342   3.504
 1728SOL    HW1 5202   3.622   0.373   3.410
 1728SOL    HW2 5203   3.555   0.305   3.542
 1729SOL     OW 5204   3.592   0.934   3.379
 1729SOL    HW1 5205   3.630   1.025   3.394
 1729SOL    HW2 5206   3.584   0.917   3.280
 1730SOL     OW 5207   2.721   1.374   1.878
 1730SOL    HW1 5208   2.675   1.389   1.966
 1730SOL    HW2 5209   2.765   1.459   1.848
 1731SOL     OW 5210   2.523   1.790   2.815
 1731SOL    HW1 5211   2.477   1.878   2.802
 1731SOL    HW2 5212   2.622   1.802   2.808
 1732SOL     OW 5213   2.721   0.956   2.723
 1732SOL    HW1 5214   2.775   0.887   2.771
 1732SOL    HW2 5215   2.689   1.025   2.789
 1733SOL     OW 5216   2.945   0.984   1.949
 1733SOL    HW1 5217   2.922   1.037   1.867
 1733SOL    HW2 5218   3.026   0.928   1.930
 1734SOL     OW 5219   3.723   1.569   2.713
 1734SOL    HW1 5220   3.652   1.557   2.643
 1734SOL    HW2 5221   3.724   1.490   2.773
 1735SOL     OW 5222   2.083   1.314   3.706
 1735SOL    HW1 5223   2.018   1.241   3.685
 1735SOL    HW2 5224   2.087   1.328   3.804
 1736SOL     OW 5225   1.941   1.240   2.515
 1736SOL    HW1 5226   1.940   1.193   2.603
 1736SOL    HW2 5227   2.023   1.212   2.464
 1737SOL     OW 5228   2.534   1.391   3.486
 1737SOL    HW1 5229   2.456   1.341   3.524
 1737SOL    HW2 5230   2.531   1.486   3.517
 1738SOL     OW 5231   3.686   0.192   3.089
 1738SOL    HW1 5232   3.682   0.102   3.133
 1738SOL    HW2 5233   3.689   0.181   2.990
 1739SOL     OW 5234   2.290   0.424   2.382
 1739SOL    HW1 5235   2.320   0.352   2.320
 1739SOL    HW2 5236   2.251   0.384   2.465
 1740SOL     OW 5237   3.567   1.487   2.966
 1740SOL    HW1 5238   3.474   1.462   2.939
 1740SOL    HW2 5239   3.593   1.437   3.048
 1741SOL     OW 5240   2.179   0.547   3.142
 1741SOL    HW1 5241   2.217   0.488   3.214
 1741SOL    HW2 5242   2.219   0.521   3.054
 1742SOL     OW 5243   2.674   1.586   2.549
 1742SOL    HW1 5244   2.706   1.596   2.455
 1742SOL    HW2 5245   2.595   1.524   2.551
 1743SOL     OW 5246   3.286   0.214   2.974
 1743SOL    HW1 5247   3.338   0.149   3.029
 1743SOL    HW2 5248   3.237   0.277   3.035
 1744SOL     OW 5249   2.863   0.034   3.016
 1744SOL    HW1 5250   2.800  -0.038   2.985
 1744SOL    HW2 5251   2.956  -0.002   3.016
 1745SOL     OW 5252   2.632   1.330   2.163
 1745SOL    HW1 5253   2.586   1.243   2.180
 1745SOL    HW2 5254   2.723   1.327   2.204
 1746SOL     OW 5255   2.480   1.567   3.146
 1746SOL    HW1 5256   2.475   1.649   3.203
 1746SOL    HW2 5257   2.569   1.564   3.101
 1747SOL     OW 5258   3.214   0.052   2.030
 1747SOL    HW1 5259   3.249   0.011   1.946
 1747SOL    HW2 5260   3.124   0.014   2.050
 1748SOL     OW 5261   3.162   0.453   2.553
 1748SOL    HW1 5262   3.103   0.533   2.557
 1748SOL    HW2 5263   3.177   0.418   2.646
 1749SOL     OW 5264   3.455   0.221   2.744
 1749SOL    HW1 5265   3.371   0.220   2.798
 1749SOL    HW2 5266   3.457   0.304   2.688
 1750SOL     OW 5267   1.901   1.077   2.162
 1750SOL    HW1 5268   2.000   1.066   2.153
 1750SOL    HW2 5269   1.861   0.991   2.194
 1751SOL     OW 5270   2.737   1.646   2.199
 1751SOL    HW1 5271   2.660   1.611   2.145
 1751SOL    HW2 5272   2.705   1.717   2.261
 1752SOL     OW 5273   2.092   0.628   3.837
 1752SOL    HW1 5274   1.999   0.626   3.874
 1752SOL    HW2 5275   2.093   0.589   3.745
 1753SOL     OW 5276   2.087   0.275   4.720
 1753SOL    HW1 5277   2.122   0.258   4.812
 1753SOL    HW2 5278   1.999   0.230   4.708
 1754SOL     OW 5279   1.881   0.368   4.371
 1754SOL    HW1 5280   1.799   0.411   4.410
 1754SOL    HW2 5281   1.853   0.295   4.308
 1755SOL     OW 5282   3.417   1.511   4.427
 1755SOL    HW1 5283   3.360   1.495   4.508
 1755SOL    HW2 5284   3.358   1.521   4.347
 1756SOL     OW 5285   2.997   0.703   4.441
 1756SOL    HW1 5286   3.054   0.781   4.416
 1756SOL    HW2 5287   2.937   0.729   4.517
 1757SOL     OW 5288   3.617   0.607   3.955
 1757SOL    HW1 5289   3.605   0.594   3.856
 1757SOL    HW2 5290   3.587   0.526   4.004
 1758SOL     OW 5291   2.547   1.012   4.389
 1758SOL    HW1 5292   2.616   0.996   4.459
 1758SOL    HW2 5293   2.474   1.069   4.427
 1759SOL     OW 5294   3.465   0.447   4.461
 1759SOL    HW1 5295   3.391   0.493   4.411
 1759SOL    HW2 5296   3.516   0.515   4.514
 1760SOL     OW 5297   2.093   1.713   4.207
 1760SOL    HW1 5298   2.127   1.790   4.261
 1760SOL    HW2 5299   2.137   1.713   4.117
 1761SOL     OW 5300   2.092   1.434   4.262
 1761SOL    HW1 5301   2.066   1.530   4.262
 1761SOL    HW2 5302   2.021   1.380   4.307
 1762SOL     OW 5303   2.102   1.091   4.610
 1762SOL    HW1 5304   2.116   1.007   4.662
 1762SOL    HW2 5305   2.047   1.155   4.665
 1763SOL     OW 5306   2.468   0.964   3.847
 1763SOL    HW1 5307   2.475   1.048   3.793
 1763SOL    HW2 5308   2.514   0.977   3.935
 1764SOL     OW 5309   1.984   0.643   4.287
 1764SOL    HW1 5310   1.939   0.555   4.304
 1764SOL    HW2 5311   1.983   0.697   4.371
 1765SOL     OW 5312   3.704   1.767   4.083
 1765SOL    HW1 5313   3.758   1.738   4.163
 1765SOL    HW2 5314   3.734   1.857   4.054
 1766SOL     OW 5315   1.889   1.596   3.841
 1766SOL    HW1 5316   1.870   1.500   3.862
 1766SOL    HW2 5317   1.856   1.654   3.916
 1767SOL     OW 5318   3.551   0.922   4.336
 1767SOL    HW1 5319   3.646   0.893   4.344
 1767SOL    HW2 5320   3.543   0.987   4.261
 1768SOL     OW 5321   3.503   1.108   4.156
 1768SOL    HW1 5322   3.589   1.110   4.104
 1768SOL    HW2 5323   3.517   1.155   4.244
 1769SOL     OW 5324   2.475   1.365   4.450
 1769SOL    HW1 5325   2.426   1.278   4.459
 1769SOL    HW2 5326   2.452   1.408   4.363
 1770SOL     OW 5327   2.671   0.004   4.226
 1770SOL    HW1 5328   2.711   0.095   4.217
 1770SOL    HW2 5329   2.571   0.012   4.232
 1771SOL     OW 5330   3.387   0.999   3.914
 1771SOL    HW1 5331   3.324   0.923   3.927
 1771SOL    HW2 5332   3.435   1.017   4.000
 1772SOL     OW 5333   3.328   1.417   4.677
 1772SOL    HW1 5334   3.269   1.423   4.757
 1772SOL    HW2 5335   3.313   1.329   4.631
 1773SOL     OW 5336   3.529   1.714   4.296
 1773SOL    HW1 5337   3.488   1.691   4.208
 1773SOL    HW2 5338   3.511   1.640   4.361
 1774SOL     OW 5339   2.460   0.729   3.994
 1774SOL    HW1 5340   2.484   0.798   3.926
 1774SOL    HW2 5341   2.382   0.762   4.048
 1775SOL     OW 5342   3.143   0.345   4.668
 1775SOL    HW1 5343   3.057   0.295   4.655
 1775SOL    HW2 5344   3.205   0.291   4.724
 1776SOL     OW 5345   3.438   1.662   4.031
 1776SOL    HW1 5346   3.527   1.708   4.034
 1776SOL    HW2 5347   3.417   1.638   3.936
 1777SOL     OW 5348   2.903   0.701   4.153
 1777SOL    HW1 5349   2.929   0.697   4.249
 1777SOL    HW2 5350   2.818   0.650   4.139
 1778SOL     OW 5351   1.938   0.811   4.513
 1778SOL    HW1 5352   2.037   0.799   4.522
 1778SOL    HW2 5353   1.914   0.906   4.534
 1779SOL     OW 5354   2.727   0.348   3.919
 1779SOL    HW1 5355   2.786   0.411   3.870
 1779SOL    HW2 5356   2.746   0.254   3.890
 1780SOL     OW 5357   3.224   1.144   4.269
 1780SOL    HW1 5358   3.307   1.115   4.221
 1780SOL    HW2 5359   3.175   1.211   4.213
 1781SOL     OW 5360   2.870   1.456   4.201
 1781SOL    HW1 5361   2.824   1.528   4.149
 1781SOL    HW2 5362   2.866   1.476   4.299
 1782SOL     OW 5363   2.213   1.801   4.577
 1782SOL    HW1 5364   2.263   1.715   4.583
 1782SOL    HW2 5365   2.278   1.878   4.574
 1783SOL     OW 5366   3.657   1.066   4.597
 1783SOL    HW1 5367   3.595   1.051   4.521
 1783SOL    HW2 5368   3.605   1.077   4.682
 1784SOL     OW 5369   2.183   0.943   3.966
 1784SOL    HW1 5370   2.265   0.982   3.924
 1784SOL    HW2 5371   2.156   0.861   3.917
 1785SOL     OW 5372   3.320   0.735   4.452
 1785SOL    HW1 5373   3.315   0.670   4.527
 1785SOL    HW2 5374   3.400   0.794   4.465
 1786SOL     OW 5375   2.973   1.776   3.961
 1786SOL    HW1 5376   2.913   1.714   4.011
 1786SOL    HW2 5377   3.004   1.732   3.876
 1787SOL     OW 5378   3.494   1.377   3.805
 1787SOL    HW1 5379   3.462   1.471   3.795
 1787SOL    HW2 5380   3.418   1.314   3.793
 1788SOL     OW 5381   2.326   1.743   4.047
 1788SOL    HW1 5382   2.359   1.782   4.133
 1788SOL    HW2 5383   2.402   1.736   3.982
 1789SOL     OW 5384   3.262   0.107   4.150
 1789SOL    HW1 5385   3.238   0.070   4.060
 1789SOL    HW2 5386   3.361   0.123   4.154
 1790SOL     OW 5387   2.244   0.700   4.204
 1790SOL    HW1 5388   2.289   0.610   4.201
 1790SOL    HW2 5389   2.150   0.689   4.237
 1791SOL     OW 5390   2.476   0.122   3.841
 1791SOL    HW1 5391   2.574   0.100   3.848
 1791SOL    HW2 5392   2.445   0.105   3.748
 1792SOL     OW 5393   2.401   0.064   4.236
 1792SOL    HW1 5394   2.320   0.065   4.294
 1792SOL    HW2 5395   2.404   0.147   4.181
 1793SOL     OW 5396   3.296   1.188   3.765
 1793SOL    HW1 5397   3.328   1.112   3.822
 1793SOL    HW2 5398   3.204   1.215   3.795
 1794SOL     OW 5399   2.159   0.035   3.895
 1794SOL    HW1 5400   2.208   0.119   3.874
 1794SOL    HW2 5401   2.221  -0.030   3.940
 1795SOL     OW 5402   2.797   0.236   4.204
 1795SOL    HW1 5403   2.749   0.277   4.126
 1795SOL    HW2 5404   2.896   0.234   4.185
 1796SOL     OW 5405   3.089   1.570   4.517
 1796SOL    HW1 5406   3.110   1.644   4.452
 1796SOL    HW2 5407   3.157   1.570   4.590
 1797SOL     OW 5408   2.321   1.152   4.465
 1797SOL    HW1 5409   2.250   1.125   4.530
 1797SOL    HW2 5410   2.295   1.124   4.372
 1798SOL     OW 5411   3.133   1.797   4.315
 1798SOL    HW1 5412   3.177   1.861   4.251
 1798SOL    HW2 5413   3.083   1.849   4.385
 1799SOL     OW 5414   2.894   0.549   3.740
 1799SOL    HW1 5415   2.853   0.631   3.701
 1799SOL    HW2 5416   2.958   0.575   3.813
 1800SOL     OW 5417   2.728   0.454   4.366
 1800SOL    HW1 5418   2.696   0.526   4.304
 1800SOL    HW2 5419   2.752   0.373   4.313
 1801SOL     OW 5420   2.879   0.039   4.477
 1801SOL    HW1 5421   2.807   0.044   4.408
 1801SOL    HW2 5422   2.855  -0.030   4.546
 1802SOL     OW 5423   3.719   0.833   4.101
 1802SOL    HW1 5424   3.761   0.769   4.165
 1802SOL    HW2 5425   3.681   0.782   4.023
 1803SOL     OW 5426   2.350   1.385   3.898
 1803SOL    HW1 5427   2.263   1.370   3.945
 1803SOL    HW2 5428   2.333   1.411   3.803
 1804SOL     OW 5429   3.526   1.280   4.381
 1804SOL    HW1 5430   3.625   1.288   4.395
 1804SOL    HW2 5431   3.481   1.364   4.412
 1805SOL     OW 5432   3.252   0.575   3.802
 1805SOL    HW1 5433   3.198   0.554   3.883
 1805SOL    HW2 5434   3.343   0.534   3.811
 1806SOL     OW 5435   2.389   0.256   4.052
 1806SOL    HW1 5436   2.416   0.197   3.977
 1806SOL    HW2 5437   2.389   0.351   4.021
 1807SOL     OW 5438   2.567   1.050   4.092
 1807SOL    HW1 5439   2.553   1.057   4.191
 1807SOL    HW2 5440   2.651   0.999   4.074
 1808SOL     OW 5441   2.229   1.100   4.225
 1808SOL    HW1 5442   2.222   1.183   4.169
 1808SOL    HW2 5443   2.233   1.020   4.165
 1809SOL     OW 5444   2.428   0.537   4.589
 1809SOL    HW1 5445   2.440   0.603   4.515
 1809SOL    HW2 5446   2.474   0.571   4.672
 1810SOL     OW 5447   3.114   1.348   4.112
 1810SOL    HW1 5448   3.164   1.425   4.152
 1810SOL    HW2 5449   3.019   1.350   4.144
 1811SOL     OW 5450   3.444   0.639   4.196
 1811SOL    HW1 5451   3.413   0.700   4.269
 1811SOL    HW2 5452   3.494   0.691   4.127
 1812SOL     OW 5453   3.071   0.525   3.999
 1812SOL    HW1 5454   3.084   0.441   4.053
 1812SOL    HW2 5455   3.042   0.599   4.059
 1813SOL     OW 5456   2.594   0.634   4.788
 1813SOL    HW1 5457   2.653   0.608   4.712
 1813SOL    HW2 5458   2.566   0.730   4.777
 1814SOL     OW 5459   2.169   0.063   4.342
 1814SOL    HW1 5460   2.158   0.157   4.375
 1814SOL    HW2 5461   2.164   0.000   4.419
 1815SOL     OW 5462   3.484   0.367   4.098
 1815SOL    HW1 5463   3.486   0.291   4.162
 1815SOL    HW2 5464   3.436   0.444   4.138
 1816SOL     OW 5465   3.402   0.274   3.849
 1816SOL    HW1 5466   3.341   0.199   3.872
 1816SOL    HW2 5467   3.424   0.326   3.932
 1817SOL     OW 5468   3.165   0.838   3.766
 1817SOL    HW1 5469   3.199   0.745   3.781
 1817SOL    HW2 5470   3.183   0.865   3.671
 1818SOL     OW 5471   2.930   1.333   4.573
 1818SOL    HW1 5472   2.937   1.249   4.518
 1818SOL    HW2 5473   2.992   1.402   4.537
 1819SOL     OW 5474   1.870   1.326   3.924
 1819SOL    HW1 5475   1.777   1.347   3.893
 1819SOL    HW2 5476   1.880   1.227   3.937
 1820SOL     OW 5477   1.950   1.801   4.651
 1820SOL    HW1 5478   1.908   1.715   4.624
 1820SOL    HW2 5479   2.044   1.804   4.617
 1821SOL     OW 5480   2.366   1.568   4.634
 1821SOL    HW1 5481   2.432   1.642   4.643
 1821SOL    HW2 5482   2.410   1.489   4.592
 1822SOL     OW 5483   2.677   0.572   4.049
 1822SOL    HW1 5484   2.684   0.483   4.003
 1822SOL    HW2 5485   2.583   0.606   4.041
 1823SOL     OW 5486   2.335   0.500   3.915
 1823SOL    HW1 5487   2.396   0.580   3.919
 1823SOL    HW2 5488   2.240   0.531   3.922
 1824SOL     OW 5489   3.164   0.855   4.033
 1824SOL    HW1 5490   3.078   0.824   4.075
 1824SOL    HW2 5491   3.160   0.841   3.934
 1825SOL     OW 5492   3.621   1.747   4.878
 1825SOL    HW1 5493   3.682   1.777   4.805
 1825SOL    HW2 5494   3.583   1.658   4.856
 1826SOL     OW 5495   3.588   0.135   4.247
 1826SOL    HW1 5496   3.661   0.118   4.180
 1826SOL    HW2 5497   3.557   0.048   4.285
 1827SOL     OW 5498   3.250   1.573   4.201
 1827SOL    HW1 5499   3.317   1.585   4.127
 1827SOL    HW2 5500   3.210   1.662   4.224
 1828SOL     OW 5501   3.142   0.927   4.396
 1828SOL    HW1 5502   3.202   0.846   4.398
 1828SOL    HW2 5503   3.182   0.996   4.336
 1829SOL     OW 5504   2.534   1.616   3.878
 1829SOL    HW1 5505   2.543   1.626   3.779
 1829SOL    HW2 5506   2.494   1.527   3.899
 1830SOL     OW 5507   3.703   0.175   4.687
 1830SOL    HW1 5508   3.742   0.090   4.651
 1830SOL    HW2 5509   3.605   0.177   4.668
 1831SOL     OW 5510   2.125   0.326   4.444
 1831SOL    HW1 5511   2.046   0.377   4.410
 1831SOL    HW2 5512   2.116   0.311   4.542
 1832SOL     OW 5513   3.056   1.612   3.755
 1832SOL    HW1 5514   3.062   1.519   3.792
 1832SOL    HW2 5515   2.997   1.612   3.675
 1833SOL     OW 5516   2.778   0.910   4.015
 1833SOL    HW1 5517   2.841   0.948   3.947
 1833SOL    HW2 5518   2.818   0.827   4.054
 1834SOL     OW 5519   3.366   1.607   3.768
 1834SOL    HW1 5520   3.274   1.644   3.775
 1834SOL    HW2 5521   3.404   1.627   3.678
 1835SOL     OW 5522   2.901   1.098   4.420
 1835SOL    HW1 5523   2.831   1.051   4.474
 1835SOL    HW2 5524   2.960   1.030   4.377
 1836SOL     OW 5525   2.452   1.487   4.215
 1836SOL    HW1 5526   2.494   1.429   4.145
 1836SOL    HW2 5527   2.408   1.566   4.171
 1837SOL     OW 5528   2.117   1.348   4.014
 1837SOL    HW1 5529   2.021   1.349   3.987
 1837SOL    HW2 5530   2.129   1.401   4.098
 1838SOL     OW 5531   1.937   0.345   3.757
 1838SOL    HW1 5532   1.845   0.317   3.728
 1838SOL    HW2 5533   1.968   0.422   3.701
 1839SOL     OW 5534   1.934   0.166   4.042
 1839SOL    HW1 5535   1.917   0.249   3.988
 1839SOL    HW2 5536   2.024   0.129   4.020
 1840SOL     OW 5537   3.045   1.335   3.843
 1840SOL    HW1 5538   2.946   1.324   3.845
 1840SOL    HW2 5539   3.079   1.350   3.936
 1841SOL     OW 5540   3.087   0.325   4.173
 1841SOL    HW1 5541   3.152   0.251   4.162
 1841SOL    HW2 5542   3.107   0.375   4.257
 1842SOL     OW 5543   2.456   0.745   4.376
 1842SOL    HW1 5544   2.506   0.830   4.357
 1842SOL    HW2 5545   2.368   0.747   4.328
 1843SOL     OW 5546   2.721   1.374   3.740
 1843SOL    HW1 5547   2.675   1.389   3.828
 1843SOL    HW2 5548   2.765   1.459   3.710
 1844SOL     OW 5549   2.523   1.790   4.677
 1844SOL    HW1 5550   2.477   1.878   4.664
 1844SOL    HW2 5551   2.622   1.802   4.670
 1845SOL     OW 5552   2.721   0.956   4.585
 1845SOL    HW1 5553   2.775   0.887   4.633
 1845SOL    HW2 5554   2.689   1.025   4.651
 1846SOL     OW 5555   2.945   0.984   3.811
 1846SOL    HW1 5556   2.922   1.037   3.729
 1846SOL    HW2 5557   3.026   0.928   3.792
 1847SOL     OW 5558   3.723   1.569   4.575
 1847SOL    HW1 5559   3.652   1.557   4.505
 1847SOL    HW2 5560   3.724   1.490   4.635
 1848SOL     OW 5561   1.941   1.240   4.377
 1848SOL    HW1 5562   1.940   1.193   4.465
 1848SOL    HW2 5563   2.023   1.212   4.326
 1849SOL     OW 5564   3.686   0.192   4.951
 1849SOL    HW1 5565   3.682   0.102   4.995
 1849SOL    HW2 5566   3.689   0.181   4.852
 1850SOL     OW 5567   2.290   0.424   4.244
 1850SOL    HW1 5568   2.320   0.352   4.182
 1850SOL    HW2 5569   2.251   0.384   4.327
 1851SOL     OW 5570   2.674   1.586   4.411
 1851SOL    HW1 5571   2.706   1.596   4.317
 1851SOL    HW2 5572   2.595   1.524   4.413
 1852SOL     OW 5573   2.632   1.330   4.025
 1852SOL    HW1 5574   2.586   1.243   4.042
 1852SOL    HW2 5575   2.723   1.327   4.066
 1853SOL     OW 5576   3.214   0.052   3.892
 1853SOL    HW1 5577   3.249   0.011   3.808
 1853SOL    HW2 5578   3.124   0.014   3.912
 1854SOL     OW 5579   3.162   0.453   4.415
 1854SOL    HW1 5580   3.103   0.533   4.419
 1854SOL    HW2 5581   3.177   0.418   4.508
 1855SOL     OW 5582   3.455   0.221   4.606
 1855SOL    HW1 5583   3.371   0.220   4.660
 1855SOL    HW2 5584   3.457   0.304   4.550
 1856SOL     OW 5585   1.901   1.077   4.024
 1856SOL    HW1 5586   2.000   1.066   4.015
 1856SOL    HW2 5587   1.861   0.991   4.056
 1857SOL     OW 5588   2.737   1.646   4.061
 1857SOL    HW1 5589   2.660   1.611   4.007
 1857SOL    HW2 5590   2.705   1.717   4.123
 1858SOL     OW 5591   2.092   2.490   0.113
 1858SOL    HW1 5592   1.999   2.488   0.150
 1858SOL    HW2 5593   2.093   2.451   0.021
 1859SOL     OW 5594   2.087   2.137   0.996
 1859SOL    HW1 5595   2.122   2.120   1.088
 1859SOL    HW2 5596   1.999   2.092   0.984
 1860SOL     OW 5597   1.881   2.230   0.647
 1860SOL    HW1 5598   1.799   2.273   0.686
 1860SOL    HW2 5599   1.853   2.157   0.584
 1861SOL     OW 5600   2.431   3.137   1.165
 1861SOL    HW1 5601   2.338   3.130   1.128
 1861SOL    HW2 5602   2.442   3.226   1.209
 1862SOL     OW 5603   3.417   3.373   0.703
 1862SOL    HW1 5604   3.360   3.357   0.784
 1862SOL    HW2 5605   3.358   3.383   0.623
 1863SOL     OW 5606   2.997   2.565   0.717
 1863SOL    HW1 5607   3.054   2.643   0.692
 1863SOL    HW2 5608   2.937   2.591   0.793
 1864SOL     OW 5609   3.617   2.469   0.231
 1864SOL    HW1 5610   3.605   2.456   0.132
 1864SOL    HW2 5611   3.587   2.388   0.280
 1865SOL     OW 5612   2.630   3.006   1.023
 1865SOL    HW1 5613   2.552   3.023   1.083
 1865SOL    HW2 5614   2.664   3.093   0.987
 1866SOL     OW 5615   2.712   2.660   1.823
 1866SOL    HW1 5616   2.708   2.736   1.888
 1866SOL    HW2 5617   2.734   2.696   1.732
 1867SOL     OW 5618   2.547   2.874   0.665
 1867SOL    HW1 5619   2.616   2.858   0.735
 1867SOL    HW2 5620   2.474   2.931   0.703
 1868SOL     OW 5621   2.548   3.023   1.803
 1868SOL    HW1 5622   2.608   3.102   1.817
 1868SOL    HW2 5623   2.462   3.054   1.762
 1869SOL     OW 5624   2.197   3.297   1.061
 1869SOL    HW1 5625   2.119   3.266   1.008
 1869SOL    HW2 5626   2.255   3.355   1.004
 1870SOL     OW 5627   3.322   3.367   1.339
 1870SOL    HW1 5628   3.346   3.461   1.365
 1870SOL    HW2 5629   3.306   3.313   1.421
 1871SOL     OW 5630   2.300   2.254   1.499
 1871SOL    HW1 5631   2.382   2.198   1.508
 1871SOL    HW2 5632   2.219   2.196   1.503
 1872SOL     OW 5633   3.465   2.309   0.737
 1872SOL    HW1 5634   3.391   2.355   0.687
 1872SOL    HW2 5635   3.516   2.377   0.790
 1873SOL     OW 5636   2.093   3.575   0.483
 1873SOL    HW1 5637   2.127   3.652   0.537
 1873SOL    HW2 5638   2.137   3.575   0.393
 1874SOL     OW 5639   2.989   3.203   1.690
 1874SOL    HW1 5640   3.036   3.203   1.778
 1874SOL    HW2 5641   2.941   3.116   1.679
 1875SOL     OW 5642   2.092   3.296   0.538
 1875SOL    HW1 5643   2.066   3.392   0.538
 1875SOL    HW2 5644   2.021   3.242   0.583
 1876SOL     OW 5645   2.102   2.953   0.886
 1876SOL    HW1 5646   2.116   2.869   0.938
 1876SOL    HW2 5647   2.047   3.017   0.941
 1877SOL     OW 5648   2.482   3.648   1.439
 1877SOL    HW1 5649   2.390   3.631   1.474
 1877SOL    HW2 5650   2.510   3.740   1.465
 1878SOL     OW 5651   2.468   2.826   0.123
 1878SOL    HW1 5652   2.475   2.910   0.069
 1878SOL    HW2 5653   2.514   2.839   0.211
 1879SOL     OW 5654   3.456   1.976   1.480
 1879SOL    HW1 5655   3.438   2.043   1.408
 1879SOL    HW2 5656   3.453   2.022   1.569
 1880SOL     OW 5657   1.984   2.505   0.563
 1880SOL    HW1 5658   1.939   2.417   0.580
 1880SOL    HW2 5659   1.983   2.559   0.647
 1881SOL     OW 5660   3.704   3.629   0.359
 1881SOL    HW1 5661   3.758   3.600   0.439
 1881SOL    HW2 5662   3.734   3.719   0.330
 1882SOL     OW 5663   3.551   2.784   0.612
 1882SOL    HW1 5664   3.646   2.755   0.620
 1882SOL    HW2 5665   3.543   2.849   0.537
 1883SOL     OW 5666   3.503   2.970   0.432
 1883SOL    HW1 5667   3.589   2.972   0.380
 1883SOL    HW2 5668   3.517   3.017   0.520
 1884SOL     OW 5669   1.975   2.599   1.597
 1884SOL    HW1 5670   2.063   2.586   1.642
 1884SOL    HW2 5671   1.962   2.696   1.575
 1885SOL     OW 5672   2.475   3.227   0.726
 1885SOL    HW1 5673   2.426   3.140   0.735
 1885SOL    HW2 5674   2.452   3.270   0.639
 1886SOL     OW 5675   3.155   3.090   1.423
 1886SOL    HW1 5676   3.192   3.017   1.365
 1886SOL    HW2 5677   3.207   3.095   1.508
 1887SOL     OW 5678   2.671   1.866   0.502
 1887SOL    HW1 5679   2.711   1.957   0.493
 1887SOL    HW2 5680   2.571   1.874   0.508
 1888SOL     OW 5681   2.059   2.838   1.264
 1888SOL    HW1 5682   2.148   2.793   1.250
 1888SOL    HW2 5683   1.986   2.773   1.245
 1889SOL     OW 5684   3.387   2.861   0.190
 1889SOL    HW1 5685   3.324   2.785   0.203
 1889SOL    HW2 5686   3.435   2.879   0.276
 1890SOL     OW 5687   3.049   3.654   1.616
 1890SOL    HW1 5688   3.073   3.714   1.540
 1890SOL    HW2 5689   3.056   3.559   1.586
 1891SOL     OW 5690   2.179   2.113   1.801
 1891SOL    HW1 5691   2.250   2.184   1.807
 1891SOL    HW2 5692   2.091   2.152   1.829
 1892SOL     OW 5693   3.328   3.279   0.953
 1892SOL    HW1 5694   3.269   3.285   1.033
 1892SOL    HW2 5695   3.313   3.191   0.907
 1893SOL     OW 5696   3.529   3.576   0.572
 1893SOL    HW1 5697   3.488   3.553   0.484
 1893SOL    HW2 5698   3.511   3.502   0.637
 1894SOL     OW 5699   2.460   2.591   0.270
 1894SOL    HW1 5700   2.484   2.660   0.202
 1894SOL    HW2 5701   2.382   2.624   0.324
 1895SOL     OW 5702   3.143   2.207   0.944
 1895SOL    HW1 5703   3.057   2.157   0.931
 1895SOL    HW2 5704   3.205   2.153   1.000
 1896SOL     OW 5705   3.438   3.524   0.307
 1896SOL    HW1 5706   3.527   3.570   0.310
 1896SOL    HW2 5707   3.417   3.500   0.212
 1897SOL     OW 5708   2.669   2.467   1.465
 1897SOL    HW1 5709   2.622   2.464   1.554
 1897SOL    HW2 5710   2.618   2.412   1.399
 1898SOL     OW 5711   3.256   2.331   1.674
 1898SOL    HW1 5712   3.236   2.374   1.762
 1898SOL    HW2 5713   3.334   2.269   1.683
 1899SOL     OW 5714   2.835   2.752   1.572
 1899SOL    HW1 5715   2.881   2.668   1.543
 1899SOL    HW2 5716   2.779   2.786   1.497
 1900SOL     OW 5717   2.853   2.272   1.242
 1900SOL    HW1 5718   2.776   2.306   1.296
 1900SOL    HW2 5719   2.819   2.221   1.163
 1901SOL     OW 5720   2.903   2.563   0.429
 1901SOL    HW1 5721   2.929   2.559   0.525
 1901SOL    HW2 5722   2.818   2.512   0.415
 1902SOL     OW 5723   1.938   2.673   0.789
 1902SOL    HW1 5724   2.037   2.661   0.798
 1902SOL    HW2 5725   1.914   2.768   0.810
 1903SOL     OW 5726   1.992   3.683   1.571
 1903SOL    HW1 5727   1.982   3.668   1.670
 1903SOL    HW2 5728   1.906   3.719   1.535
 1904SOL     OW 5729   2.727   2.210   0.195
 1904SOL    HW1 5730   2.786   2.273   0.146
 1904SOL    HW2 5731   2.746   2.116   0.166
 1905SOL     OW 5732   3.581   2.447   1.831
 1905SOL    HW1 5733   3.555   2.536   1.795
 1905SOL    HW2 5734   3.579   2.379   1.758
 1906SOL     OW 5735   3.224   3.006   0.545
 1906SOL    HW1 5736   3.307   2.977   0.497
 1906SOL    HW2 5737   3.175   3.073   0.489
 1907SOL     OW 5738   2.412   2.058   0.885
 1907SOL    HW1 5739   2.407   2.053   0.985
 1907SOL    HW2 5740   2.414   2.154   0.856
 1908SOL     OW 5741   2.870   3.318   0.477
 1908SOL    HW1 5742   2.824   3.390   0.425
 1908SOL    HW2 5743   2.866   3.338   0.575
 1909SOL     OW 5744   2.213   3.663   0.853
 1909SOL    HW1 5745   2.263   3.577   0.859
 1909SOL    HW2 5746   2.278   3.740   0.850
 1910SOL     OW 5747   3.657   2.928   0.873
 1910SOL    HW1 5748   3.595   2.913   0.797
 1910SOL    HW2 5749   3.605   2.939   0.958
 1911SOL     OW 5750   3.089   3.412   1.506
 1911SOL    HW1 5751   3.095   3.335   1.570
 1911SOL    HW2 5752   3.037   3.386   1.426
 1912SOL     OW 5753   2.183   2.805   0.242
 1912SOL    HW1 5754   2.265   2.844   0.200
 1912SOL    HW2 5755   2.156   2.723   0.193
 1913SOL     OW 5756   3.320   2.597   0.728
 1913SOL    HW1 5757   3.315   2.532   0.803
 1913SOL    HW2 5758   3.400   2.656   0.741
 1914SOL     OW 5759   2.323   3.128   1.727
 1914SOL    HW1 5760   2.273   3.129   1.641
 1914SOL    HW2 5761   2.260   3.110   1.803
 1915SOL     OW 5762   2.973   3.638   0.237
 1915SOL    HW1 5763   2.913   3.576   0.287
 1915SOL    HW2 5764   3.004   3.594   0.152
 1916SOL     OW 5765   2.064   2.147   1.498
 1916SOL    HW1 5766   1.984   2.207   1.485
 1916SOL    HW2 5767   2.054   2.098   1.584
 1917SOL     OW 5768   3.494   3.239   0.081
 1917SOL    HW1 5769   3.462   3.333   0.071
 1917SOL    HW2 5770   3.418   3.176   0.069
 1918SOL     OW 5771   2.326   3.605   0.323
 1918SOL    HW1 5772   2.359   3.644   0.409
 1918SOL    HW2 5773   2.402   3.598   0.258
 1919SOL     OW 5774   3.262   1.969   0.426
 1919SOL    HW1 5775   3.238   1.932   0.336
 1919SOL    HW2 5776   3.361   1.985   0.430
 1920SOL     OW 5777   2.111   3.647   1.241
 1920SOL    HW1 5778   2.168   3.582   1.291
 1920SOL    HW2 5779   2.095   3.614   1.148
 1921SOL     OW 5780   2.802   3.560   0.904
 1921SOL    HW1 5781   2.882   3.503   0.925
 1921SOL    HW2 5782   2.753   3.520   0.827
 1922SOL     OW 5783   2.244   2.562   0.480
 1922SOL    HW1 5784   2.289   2.472   0.477
 1922SOL    HW2 5785   2.150   2.551   0.513
 1923SOL     OW 5786   3.409   2.084   1.729
 1923SOL    HW1 5787   3.404   2.121   1.821
 1923SOL    HW2 5788   3.337   2.015   1.717
 1924SOL     OW 5789   2.643   2.126   1.749
 1924SOL    HW1 5790   2.710   2.065   1.792
 1924SOL    HW2 5791   2.570   2.145   1.814
 1925SOL     OW 5792   2.750   3.376   1.195
 1925SOL    HW1 5793   2.727   3.351   1.101
 1925SOL    HW2 5794   2.811   3.307   1.234
 1926SOL     OW 5795   3.213   2.452   1.433
 1926SOL    HW1 5796   3.241   2.409   1.518
 1926SOL    HW2 5797   3.238   2.548   1.434
 1927SOL     OW 5798   2.665   3.264   0.924
 1927SOL    HW1 5799   2.755   3.278   0.882
 1927SOL    HW2 5800   2.594   3.266   0.853
 1928SOL     OW 5801   2.784   2.365   0.899
 1928SOL    HW1 5802   2.759   2.356   0.803
 1928SOL    HW2 5803   2.832   2.283   0.930
 1929SOL     OW 5804   2.401   1.926   0.512
 1929SOL    HW1 5805   2.320   1.927   0.570
 1929SOL    HW2 5806   2.404   2.009   0.457
 1930SOL     OW 5807   3.296   3.050   0.041
 1930SOL    HW1 5808   3.328   2.974   0.098
 1930SOL    HW2 5809   3.204   3.077   0.071
 1931SOL     OW 5810   2.159   1.897   0.171
 1931SOL    HW1 5811   2.208   1.981   0.150
 1931SOL    HW2 5812   2.221   1.832   0.216
 1932SOL     OW 5813   2.797   2.098   0.480
 1932SOL    HW1 5814   2.749   2.139   0.402
 1932SOL    HW2 5815   2.896   2.096   0.461
 1933SOL     OW 5816   2.938   2.545   1.464
 1933SOL    HW1 5817   2.858   2.484   1.467
 1933SOL    HW2 5818   3.019   2.492   1.440
 1934SOL     OW 5819   3.089   3.432   0.793
 1934SOL    HW1 5820   3.110   3.506   0.728
 1934SOL    HW2 5821   3.157   3.432   0.866
 1935SOL     OW 5822   2.321   3.014   0.741
 1935SOL    HW1 5823   2.250   2.987   0.806
 1935SOL    HW2 5824   2.295   2.986   0.648
 1936SOL     OW 5825   3.133   3.659   0.591
 1936SOL    HW1 5826   3.177   3.723   0.527
 1936SOL    HW2 5827   3.083   3.711   0.661
 1937SOL     OW 5828   2.894   2.411   0.016
 1937SOL    HW1 5829   2.853   2.493  -0.023
 1937SOL    HW2 5830   2.958   2.437   0.089
 1938SOL     OW 5831   1.940   2.418   1.386
 1938SOL    HW1 5832   2.032   2.417   1.345
 1938SOL    HW2 5833   1.934   2.492   1.453
 1939SOL     OW 5834   2.423   2.084   1.147
 1939SOL    HW1 5835   2.461   2.000   1.184
 1939SOL    HW2 5836   2.335   2.103   1.191
 1940SOL     OW 5837   2.728   2.316   0.642
 1940SOL    HW1 5838   2.696   2.388   0.580
 1940SOL    HW2 5839   2.752   2.235   0.589
 1941SOL     OW 5840   2.879   1.901   0.753
 1941SOL    HW1 5841   2.807   1.906   0.684
 1941SOL    HW2 5842   2.855   1.832   0.822
 1942SOL     OW 5843   3.291   3.035   0.867
 1942SOL    HW1 5844   3.236   2.951   0.860
 1942SOL    HW2 5845   3.317   3.064   0.775
 1943SOL     OW 5846   3.328   2.452   0.992
 1943SOL    HW1 5847   3.298   2.357   0.999
 1943SOL    HW2 5848   3.401   2.468   1.058
 1944SOL     OW 5849   3.719   2.695   0.377
 1944SOL    HW1 5850   3.761   2.631   0.441
 1944SOL    HW2 5851   3.681   2.644   0.299
 1945SOL     OW 5852   2.350   3.247   0.174
 1945SOL    HW1 5853   2.263   3.232   0.221
 1945SOL    HW2 5854   2.333   3.273   0.079
 1946SOL     OW 5855   3.526   3.142   0.657
 1946SOL    HW1 5856   3.625   3.150   0.671
 1946SOL    HW2 5857   3.481   3.226   0.688
 1947SOL     OW 5858   3.252   2.437   0.078
 1947SOL    HW1 5859   3.198   2.416   0.159
 1947SOL    HW2 5860   3.343   2.396   0.087
 1948SOL     OW 5861   2.389   2.118   0.328
 1948SOL    HW1 5862   2.416   2.059   0.253
 1948SOL    HW2 5863   2.389   2.213   0.297
 1949SOL     OW 5864   3.616   3.085   1.588
 1949SOL    HW1 5865   3.707   3.046   1.575
 1949SOL    HW2 5866   3.624   3.181   1.612
 1950SOL     OW 5867   2.926   3.209   1.340
 1950SOL    HW1 5868   2.846   3.186   1.395
 1950SOL    HW2 5869   3.009   3.183   1.389
 1951SOL     OW 5870   3.454   3.491   1.625
 1951SOL    HW1 5871   3.481   3.525   1.535
 1951SOL    HW2 5872   3.533   3.453   1.671
 1952SOL     OW 5873   2.973   3.057   1.100
 1952SOL    HW1 5874   2.933   3.101   1.181
 1952SOL    HW2 5875   2.932   3.094   1.017
 1953SOL     OW 5876   3.500   2.961   1.079
 1953SOL    HW1 5877   3.505   3.042   1.138
 1953SOL    HW2 5878   3.414   2.963   1.028
 1954SOL     OW 5879   2.777   1.951   1.402
 1954SOL    HW1 5880   2.802   1.931   1.307
 1954SOL    HW2 5881   2.849   2.007   1.444
 1955SOL     OW 5882   2.842   2.978   1.719
 1955SOL    HW1 5883   2.743   2.984   1.729
 1955SOL    HW2 5884   2.865   2.898   1.663
 1956SOL     OW 5885   2.567   2.912   0.368
 1956SOL    HW1 5886   2.553   2.919   0.467
 1956SOL    HW2 5887   2.651   2.861   0.350
 1957SOL     OW 5888   2.272   2.675   1.251
 1957SOL    HW1 5889   2.358   2.687   1.301
 1957SOL    HW2 5890   2.230   2.588   1.278
 1958SOL     OW 5891   3.136   2.248   1.262
 1958SOL    HW1 5892   3.157   2.322   1.326
 1958SOL    HW2 5893   3.047   2.265   1.219
 1959SOL     OW 5894   1.926   3.426   1.331
 1959SOL    HW1 5895   1.880   3.508   1.297
 1959SOL    HW2 5896   2.024   3.445   1.340
 1960SOL     OW 5897   2.229   2.962   0.501
 1960SOL    HW1 5898   2.222   3.045   0.445
 1960SOL    HW2 5899   2.233   2.882   0.441
 1961SOL     OW 5900   2.428   2.399   0.865
 1961SOL    HW1 5901   2.440   2.465   0.791
 1961SOL    HW2 5902   2.474   2.433   0.948
 1962SOL     OW 5903   3.114   3.210   0.388
 1962SOL    HW1 5904   3.164   3.287   0.428
 1962SOL    HW2 5905   3.019   3.212   0.420
 1963SOL     OW 5906   3.134   3.307   1.142
 1963SOL    HW1 5907   3.181   3.320   1.229
 1963SOL    HW2 5908   3.068   3.233   1.151
 1964SOL     OW 5909   3.444   2.501   0.472
 1964SOL    HW1 5910   3.413   2.562   0.545
 1964SOL    HW2 5911   3.494   2.553   0.403
 1965SOL     OW 5912   2.216   3.372   1.329
 1965SOL    HW1 5913   2.195   3.328   1.242
 1965SOL    HW2 5914   2.313   3.398   1.332
 1966SOL     OW 5915   2.264   2.613   1.598
 1966SOL    HW1 5916   2.332   2.668   1.551
 1966SOL    HW2 5917   2.304   2.525   1.625
 1967SOL     OW 5918   3.449   2.641   1.670
 1967SOL    HW1 5919   3.357   2.679   1.665
 1967SOL    HW2 5920   3.509   2.688   1.605
 1968SOL     OW 5921   2.875   1.967   1.770
 1968SOL    HW1 5922   2.881   2.052   1.718
 1968SOL    HW2 5923   2.907   1.891   1.713
 1969SOL     OW 5924   2.366   1.912   1.740
 1969SOL    HW1 5925   2.324   1.855   1.670
 1969SOL    HW2 5926   2.300   1.981   1.772
 1970SOL     OW 5927   2.435   2.732   1.029
 1970SOL    HW1 5928   2.479   2.821   1.020
 1970SOL    HW2 5929   2.372   2.732   1.106
 1971SOL     OW 5930   3.222   2.724   1.045
 1971SOL    HW1 5931   3.147   2.724   0.979
 1971SOL    HW2 5932   3.259   2.632   1.054
 1972SOL     OW 5933   3.071   2.387   0.275
 1972SOL    HW1 5934   3.084   2.303   0.329
 1972SOL    HW2 5935   3.042   2.461   0.335
 1973SOL     OW 5936   2.169   2.075   1.231
 1973SOL    HW1 5937   2.146   2.112   1.321
 1973SOL    HW2 5938   2.139   1.980   1.225
 1974SOL     OW 5939   1.899   3.172   1.282
 1974SOL    HW1 5940   1.952   3.123   1.350
 1974SOL    HW2 5941   1.921   3.270   1.287
 1975SOL     OW 5942   2.594   2.496   1.064
 1975SOL    HW1 5943   2.653   2.470   0.988
 1975SOL    HW2 5944   2.566   2.592   1.053
 1976SOL     OW 5945   3.590   2.797   1.854
 1976SOL    HW1 5946   3.544   2.790   1.765
 1976SOL    HW2 5947   3.528   2.841   1.920
 1977SOL     OW 5948   2.169   1.925   0.618
 1977SOL    HW1 5949   2.158   2.019   0.651
 1977SOL    HW2 5950   2.164   1.862   0.695
 1978SOL     OW 5951   3.484   2.229   0.374
 1978SOL    HW1 5952   3.486   2.153   0.438
 1978SOL    HW2 5953   3.436   2.306   0.414
 1979SOL     OW 5954   2.885   2.628   0.966
 1979SOL    HW1 5955   2.900   2.649   1.062
 1979SOL    HW2 5956   2.855   2.533   0.957
 1980SOL     OW 5957   2.842   3.435   1.700
 1980SOL    HW1 5958   2.822   3.479   1.612
 1980SOL    HW2 5959   2.881   3.344   1.684
 1981SOL     OW 5960   3.721   3.380   1.605
 1981SOL    HW1 5961   3.735   3.407   1.510
 1981SOL    HW2 5962   3.804   3.402   1.658
 1982SOL     OW 5963   2.212   2.760   1.804
 1982SOL    HW1 5964   2.288   2.804   1.852
 1982SOL    HW2 5965   2.247   2.713   1.722
 1983SOL     OW 5966   3.402   2.136   0.125
 1983SOL    HW1 5967   3.341   2.061   0.148
 1983SOL    HW2 5968   3.424   2.188   0.208
 1984SOL     OW 5969   3.165   2.700   0.042
 1984SOL    HW1 5970   3.199   2.607   0.057
 1984SOL    HW2 5971   3.183   2.727  -0.053
 1985SOL     OW 5972   2.930   3.195   0.849
 1985SOL    HW1 5973   2.937   3.111   0.794
 1985SOL    HW2 5974   2.992   3.264   0.813
 1986SOL     OW 5975   2.181   2.672   0.949
 1986SOL    HW1 5976   2.274   2.708   0.954
 1986SOL    HW2 5977   2.175   2.587   1.001
 1987SOL     OW 5978   2.201   2.371   1.006
 1987SOL    HW1 5979   2.149   2.288   0.989
 1987SOL    HW2 5980   2.278   2.376   0.942
 1988SOL     OW 5981   3.000   2.242   1.678
 1988SOL    HW1 5982   2.955   2.305   1.742
 1988SOL    HW2 5983   3.093   2.273   1.661
 1989SOL     OW 5984   3.022   2.069   1.477
 1989SOL    HW1 5985   3.022   2.133   1.554
 1989SOL    HW2 5986   3.050   2.117   1.394
 1990SOL     OW 5987   1.870   3.188   0.200
 1990SOL    HW1 5988   1.777   3.209   0.169
 1990SOL    HW2 5989   1.880   3.089   0.213
 1991SOL     OW 5990   1.950   3.663   0.927
 1991SOL    HW1 5991   1.908   3.577   0.900
 1991SOL    HW2 5992   2.044   3.666   0.893
 1992SOL     OW 5993   2.366   3.430   0.910
 1992SOL    HW1 5994   2.432   3.504   0.919
 1992SOL    HW2 5995   2.410   3.351   0.868
 1993SOL     OW 5996   2.864   2.658   1.238
 1993SOL    HW1 5997   2.905   2.626   1.324
 1993SOL    HW2 5998   2.768   2.631   1.235
 1994SOL     OW 5999   1.902   2.406   1.114
 1994SOL    HW1 6000   1.987   2.373   1.073
 1994SOL    HW2 6001   1.915   2.421   1.212
 1995SOL     OW 6002   2.051   2.382   1.722
 1995SOL    HW1 6003   2.110   2.342   1.652
 1995SOL    HW2 6004   1.993   2.453   1.681
 1996SOL     OW 6005   3.231   2.812   1.660
 1996SOL    HW1 6006   3.270   2.901   1.680
 1996SOL    HW2 6007   3.241   2.792   1.563
 1997SOL     OW 6008   2.677   2.434   0.325
 1997SOL    HW1 6009   2.684   2.345   0.279
 1997SOL    HW2 6010   2.583   2.468   0.317
 1998SOL     OW 6011   3.519   2.466   1.206
 1998SOL    HW1 6012   3.481   2.397   1.268
 1998SOL    HW2 6013   3.601   2.430   1.162
 1999SOL     OW 6014   2.114   3.426   1.744
 1999SOL    HW1 6015   2.084   3.483   1.820
 1999SOL    HW2 6016   2.107   3.329   1.770
 2000SOL     OW 6017   2.533   2.326   1.269
 2000SOL    HW1 6018   2.499   2.237   1.239
 2000SOL    HW2 6019   2.559   2.380   1.189
 2001SOL     OW 6020   2.792   3.540   1.465
 2001SOL    HW1 6021   2.768   3.522   1.370
 2001SOL    HW2 6022   2.822   3.634   1.475
 2002SOL     OW 6023   2.335   2.362   0.191
 2002SOL    HW1 6024   2.396   2.442   0.195
 2002SOL    HW2 6025   2.240   2.393   0.198
 2003SOL     OW 6026   2.021   2.999   1.466
 2003SOL    HW1 6027   2.043   2.938   1.542
 2003SOL    HW2 6028   2.031   2.950   1.380
 2004SOL     OW 6029   3.209   2.921   1.234
 2004SOL    HW1 6030   3.233   2.858   1.160
 2004SOL    HW2 6031   3.119   2.961   1.216
 2005SOL     OW 6032   3.164   2.717   0.309
 2005SOL    HW1 6033   3.078   2.686   0.351
 2005SOL    HW2 6034   3.160   2.703   0.210
 2006SOL     OW 6035   3.621   3.609   1.154
 2006SOL    HW1 6036   3.682   3.639   1.081
 2006SOL    HW2 6037   3.583   3.520   1.132
 2007SOL     OW 6038   3.114   3.593   1.128
 2007SOL    HW1 6039   3.198   3.598   1.074
 2007SOL    HW2 6040   3.091   3.497   1.146
 2008SOL     OW 6041   1.945   3.120   1.022
 2008SOL    HW1 6042   1.940   3.119   1.122
 2008SOL    HW2 6043   1.862   3.079   0.984
 2009SOL     OW 6044   2.550   3.524   1.716
 2009SOL    HW1 6045   2.494   3.605   1.725
 2009SOL    HW2 6046   2.602   3.528   1.630
 2010SOL     OW 6047   2.765   1.948   0.133
 2010SOL    HW1 6048   2.816   1.949   0.047
 2010SOL    HW2 6049   2.821   1.906   0.204
 2011SOL     OW 6050   3.588   1.997   0.523
 2011SOL    HW1 6051   3.661   1.980   0.456
 2011SOL    HW2 6052   3.557   1.910   0.561
 2012SOL     OW 6053   3.250   3.435   0.477
 2012SOL    HW1 6054   3.317   3.447   0.403
 2012SOL    HW2 6055   3.210   3.524   0.500
 2013SOL     OW 6056   1.992   3.656   1.851
 2013SOL    HW1 6057   1.951   3.582   1.904
 2013SOL    HW2 6058   2.056   3.707   1.909
 2014SOL     OW 6059   3.142   2.789   0.672
 2014SOL    HW1 6060   3.202   2.708   0.674
 2014SOL    HW2 6061   3.182   2.858   0.612
 2015SOL     OW 6062   2.692   3.135   1.422
 2015SOL    HW1 6063   2.687   3.168   1.517
 2015SOL    HW2 6064   2.606   3.154   1.376
 2016SOL     OW 6065   2.534   3.478   0.154
 2016SOL    HW1 6066   2.543   3.488   0.055
 2016SOL    HW2 6067   2.494   3.389   0.175
 2017SOL     OW 6068   3.512   3.582   1.394
 2017SOL    HW1 6069   3.565   3.592   1.310
 2017SOL    HW2 6070   3.485   3.672   1.428
 2018SOL     OW 6071   3.703   2.037   0.963
 2018SOL    HW1 6072   3.742   1.952   0.927
 2018SOL    HW2 6073   3.605   2.039   0.944
 2019SOL     OW 6074   2.125   2.188   0.720
 2019SOL    HW1 6075   2.046   2.239   0.686
 2019SOL    HW2 6076   2.116   2.173   0.818
 2020SOL     OW 6077   3.056   3.474   0.031
 2020SOL    HW1 6078   3.062   3.381   0.068
 2020SOL    HW2 6079   2.997   3.474  -0.049
 2021SOL     OW 6080   2.684   2.864   1.372
 2021SOL    HW1 6081   2.724   2.863   1.280
 2021SOL    HW2 6082   2.694   2.956   1.412
 2022SOL     OW 6083   2.778   2.772   0.291
 2022SOL    HW1 6084   2.841   2.810   0.223
 2022SOL    HW2 6085   2.818   2.689   0.330
 2023SOL     OW 6086   3.366   3.469   0.044
 2023SOL    HW1 6087   3.274   3.506   0.051
 2023SOL    HW2 6088   3.404   3.489  -0.046
 2024SOL     OW 6089   2.234   3.150   1.490
 2024SOL    HW1 6090   2.221   3.243   1.456
 2024SOL    HW2 6091   2.150   3.098   1.477
 2025SOL     OW 6092   3.476   3.154   1.289
 2025SOL    HW1 6093   3.536   3.157   1.369
 2025SOL    HW2 6094   3.401   3.218   1.302
 2026SOL     OW 6095   2.901   2.960   0.696
 2026SOL    HW1 6096   2.831   2.913   0.750
 2026SOL    HW2 6097   2.960   2.892   0.653
 2027SOL     OW 6098   2.876   2.098   0.971
 2027SOL    HW1 6099   2.868   2.062   0.878
 2027SOL    HW2 6100   2.874   2.022   1.036
 2028SOL     OW 6101   2.452   3.349   0.491
 2028SOL    HW1 6102   2.494   3.291   0.421
 2028SOL    HW2 6103   2.408   3.428   0.447
 2029SOL     OW 6104   3.571   2.247   1.381
 2029SOL    HW1 6105   3.644   2.316   1.385
 2029SOL    HW2 6106   3.599   2.172   1.322
 2030SOL     OW 6107   2.117   3.210   0.290
 2030SOL    HW1 6108   2.021   3.211   0.263
 2030SOL    HW2 6109   2.129   3.263   0.374
 2031SOL     OW 6110   1.967   2.875   1.726
 2031SOL    HW1 6111   1.890   2.842   1.780
 2031SOL    HW2 6112   2.052   2.845   1.768
 2032SOL     OW 6113   2.534   2.065   1.489
 2032SOL    HW1 6114   2.624   2.049   1.449
 2032SOL    HW2 6115   2.542   2.070   1.588
 2033SOL     OW 6116   3.302   2.718   1.398
 2033SOL    HW1 6117   3.245   2.770   1.335
 2033SOL    HW2 6118   3.398   2.730   1.374
 2034SOL     OW 6119   1.934   2.028   0.318
 2034SOL    HW1 6120   1.917   2.111   0.264
 2034SOL    HW2 6121   2.024   1.991   0.296
 2035SOL     OW 6122   3.045   3.197   0.119
 2035SOL    HW1 6123   2.946   3.186   0.121
 2035SOL    HW2 6124   3.079   3.212   0.212
 2036SOL     OW 6125   2.475   2.704   1.431
 2036SOL    HW1 6126   2.531   2.785   1.414
 2036SOL    HW2 6127   2.534   2.624   1.434
 2037SOL     OW 6128   3.355   3.629   0.959
 2037SOL    HW1 6129   3.388   3.693   0.890
 2037SOL    HW2 6130   3.421   3.623   1.034
 2038SOL     OW 6131   2.578   2.427   1.708
 2038SOL    HW1 6132   2.597   2.492   1.782
 2038SOL    HW2 6133   2.638   2.347   1.717
 2039SOL     OW 6134   3.312   3.082   1.633
 2039SOL    HW1 6135   3.303   3.072   1.732
 2039SOL    HW2 6136   3.408   3.075   1.607
 2040SOL     OW 6137   2.252   3.603   1.560
 2040SOL    HW1 6138   2.161   3.644   1.558
 2040SOL    HW2 6139   2.245   3.509   1.592
 2041SOL     OW 6140   3.536   2.745   1.254
 2041SOL    HW1 6141   3.509   2.656   1.217
 2041SOL    HW2 6142   3.537   2.813   1.181
 2042SOL     OW 6143   3.087   2.187   0.449
 2042SOL    HW1 6144   3.152   2.113   0.438
 2042SOL    HW2 6145   3.107   2.237   0.533
 2043SOL     OW 6146   2.456   2.607   0.652
 2043SOL    HW1 6147   2.506   2.692   0.633
 2043SOL    HW2 6148   2.368   2.609   0.604
 2044SOL     OW 6149   3.639   2.204   1.642
 2044SOL    HW1 6150   3.622   2.235   1.548
 2044SOL    HW2 6151   3.555   2.167   1.680
 2045SOL     OW 6152   3.592   2.796   1.517
 2045SOL    HW1 6153   3.630   2.887   1.532
 2045SOL    HW2 6154   3.584   2.779   1.418
 2046SOL     OW 6155   2.721   3.236   0.016
 2046SOL    HW1 6156   2.675   3.251   0.104
 2046SOL    HW2 6157   2.765   3.321  -0.014
 2047SOL     OW 6158   2.523   3.652   0.953
 2047SOL    HW1 6159   2.477   3.740   0.940
 2047SOL    HW2 6160   2.622   3.664   0.946
 2048SOL     OW 6161   2.721   2.818   0.861
 2048SOL    HW1 6162   2.775   2.749   0.909
 2048SOL    HW2 6163   2.689   2.887   0.927
 2049SOL     OW 6164   2.945   2.846   0.087
 2049SOL    HW1 6165   2.922   2.899   0.005
 2049SOL    HW2 6166   3.026   2.790   0.068
 2050SOL     OW 6167   3.723   3.431   0.851
 2050SOL    HW1 6168   3.652   3.419   0.781
 2050SOL    HW2 6169   3.724   3.352   0.911
 2051SOL     OW 6170   2.083   3.176   1.844
 2051SOL    HW1 6171   2.018   3.103   1.823
 2051SOL    HW2 6172   2.087   3.190   1.942
 2052SOL     OW 6173   1.941   3.102   0.653
 2052SOL    HW1 6174   1.940   3.055   0.741
 2052SOL    HW2 6175   2.023   3.074   0.602
 2053SOL     OW 6176   2.534   3.253   1.624
 2053SOL    HW1 6177   2.456   3.203   1.662
 2053SOL    HW2 6178   2.531   3.348   1.655
 2054SOL     OW 6179   3.686   2.054   1.227
 2054SOL    HW1 6180   3.682   1.964   1.271
 2054SOL    HW2 6181   3.689   2.043   1.128
 2055SOL     OW 6182   2.290   2.286   0.520
 2055SOL    HW1 6183   2.320   2.214   0.458
 2055SOL    HW2 6184   2.251   2.246   0.603
 2056SOL     OW 6185   3.567   3.349   1.104
 2056SOL    HW1 6186   3.474   3.324   1.077
 2056SOL    HW2 6187   3.593   3.299   1.186
 2057SOL     OW 6188   2.179   2.409   1.280
 2057SOL    HW1 6189   2.217   2.350   1.352
 2057SOL    HW2 6190   2.219   2.383   1.192
 2058SOL     OW 6191   2.674   3.448   0.687
 2058SOL    HW1 6192   2.706   3.458   0.593
 2058SOL    HW2 6193   2.595   3.386   0.689
 2059SOL     OW 6194   3.286   2.076   1.112
 2059SOL    HW1 6195   3.338   2.011   1.167
 2059SOL    HW2 6196   3.237   2.139   1.173
 2060SOL     OW 6197   2.863   1.896   1.154
 2060SOL    HW1 6198   2.800   1.824   1.123
 2060SOL    HW2 6199   2.956   1.860   1.154
 2061SOL     OW 6200   2.632   3.192   0.301
 2061SOL    HW1 6201   2.586   3.105   0.318
 2061SOL    HW2 6202   2.723   3.189   0.342
 2062SOL     OW 6203   2.480   3.429   1.284
 2062SOL    HW1 6204   2.475   3.511   1.341
 2062SOL    HW2 6205   2.569   3.426   1.239
 2063SOL     OW 6206   3.214   1.914   0.168
 2063SOL    HW1 6207   3.249   1.873   0.084
 2063SOL    HW2 6208   3.124   1.876   0.188
 2064SOL     OW 6209   3.162   2.315   0.691
 2064SOL    HW1 6210   3.103   2.395   0.695
 2064SOL    HW2 6211   3.177   2.280   0.784
 2065SOL     OW 6212   3.455   2.083   0.882
 2065SOL    HW1 6213   3.371   2.082   0.936
 2065SOL    HW2 6214   3.457   2.166   0.826
 2066SOL     OW 6215   1.901   2.939   0.300
 2066SOL    HW1 6216   2.000   2.928   0.291
 2066SOL    HW2 6217   1.861   2.853   0.332
 2067SOL     OW 6218   2.737   3.508   0.337
 2067SOL    HW1 6219   2.660   3.473   0.283
 2067SOL    HW2 6220   2.705   3.579   0.399
 2068SOL     OW 6221   2.092   2.490   1.975
 2068SOL    HW1 6222   1.999   2.488   2.012
 2068SOL    HW2 6223   2.093   2.451   1.883
 2069SOL     OW 6224   2.087   2.137   2.858
 2069SOL    HW1 6225   2.122   2.120   2.950
 2069SOL    HW2 6226   1.999   2.092   2.846
 2070SOL     OW 6227   1.881   2.230   2.509
 2070SOL    HW1 6228   1.799   2.273   2.548
 2070SOL    HW2 6229   1.853   2.157   2.446
 2071SOL     OW 6230   2.431   3.137   3.027
 2071SOL    HW1 6231   2.338   3.130   2.990
 2071SOL    HW2 6232   2.442   3.226   3.071
 2072SOL     OW 6233   3.417   3.373   2.565
 2072SOL    HW1 6234   3.360   3.357   2.646
 2072SOL    HW2 6235   3.358   3.383   2.485
 2073SOL     OW 6236   2.997   2.565   2.579
 2073SOL    HW1 6237   3.054   2.643   2.554
 2073SOL    HW2 6238   2.937   2.591   2.655
 2074SOL     OW 6239   3.617   2.469   2.093
 2074SOL    HW1 6240   3.605   2.456   1.994
 2074SOL    HW2 6241   3.587   2.388   2.142
 2075SOL     OW 6242   2.630   3.006   2.885
 2075SOL    HW1 6243   2.552   3.023   2.945
 2075SOL    HW2 6244   2.664   3.093   2.849
 2076SOL     OW 6245   2.712   2.660   3.685
 2076SOL    HW1 6246   2.708   2.736   3.750
 2076SOL    HW2 6247   2.734   2.696   3.594
 2077SOL     OW 6248   2.547   2.874   2.527
 2077SOL    HW1 6249   2.616   2.858   2.597
 2077SOL    HW2 6250   2.474   2.931   2.565
 2078SOL     OW 6251   2.548   3.023   3.665
 2078SOL    HW1 6252   2.608   3.102   3.679
 2078SOL    HW2 6253   2.462   3.054   3.624
 2079SOL     OW 6254   2.197   3.297   2.923
 2079SOL    HW1 6255   2.119   3.266   2.870
 2079SOL    HW2 6256   2.255   3.355   2.866
 2080SOL     OW 6257   3.322   3.367   3.201
 2080SOL    HW1 6258   3.346   3.461   3.227
 2080SOL    HW2 6259   3.306   3.313   3.283
 2081SOL     OW 6260   2.300   2.254   3.361
 2081SOL    HW1 6261   2.382   2.198   3.370
 2081SOL    HW2 6262   2.219   2.196   3.365
 2082SOL     OW 6263   3.465   2.309   2.599
 2082SOL    HW1 6264   3.391   2.355   2.549
 2082SOL    HW2 6265   3.516   2.377   2.652
 2083SOL     OW 6266   2.093   3.575   2.345
 2083SOL    HW1 6267   2.127   3.652   2.399
 2083SOL    HW2 6268   2.137   3.575   2.255
 2084SOL     OW 6269   2.989   3.203   3.552
 2084SOL    HW1 6270   3.036   3.203   3.640
 2084SOL    HW2 6271   2.941   3.116   3.541
 2085SOL     OW 6272   2.092   3.296   2.400
 2085SOL    HW1 6273   2.066   3.392   2.400
 2085SOL    HW2 6274   2.021   3.242   2.445
 2086SOL     OW 6275   2.102   2.953   2.748
 2086SOL    HW1 6276   2.116   2.869   2.800
 2086SOL    HW2 6277   2.047   3.017   2.803
 2087SOL     OW 6278   2.482   3.648   3.301
 2087SOL    HW1 6279   2.390   3.631   3.336
 2087SOL    HW2 6280   2.510   3.740   3.327
 2088SOL     OW 6281   2.468   2.826   1.985
 2088SOL    HW1 6282   2.475   2.910   1.931
 2088SOL    HW2 6283   2.514   2.839   2.073
 2089SOL     OW 6284   3.456   1.976   3.342
 2089SOL    HW1 6285   3.438   2.043   3.270
 2089SOL    HW2 6286   3.453   2.022   3.431
 2090SOL     OW 6287   3.704   3.629   2.221
 2090SOL    HW1 6288   3.758   3.600   2.301
 2090SOL    HW2 6289   3.734   3.719   2.192
 2091SOL     OW 6290   1.889   3.458   1.979
 2091SOL    HW1 6291   1.870   3.362   2.000
 2091SOL    HW2 6292   1.856   3.516   2.054
 2092SOL     OW 6293   3.551   2.784   2.474
 2092SOL    HW1 6294   3.646   2.755   2.482
 2092SOL    HW2 6295   3.543   2.849   2.399
 2093SOL     OW 6296   3.503   2.970   2.294
 2093SOL    HW1 6297   3.589   2.972   2.242
 2093SOL    HW2 6298   3.517   3.017   2.382
 2094SOL     OW 6299   1.975   2.599   3.459
 2094SOL    HW1 6300   2.063   2.586   3.504
 2094SOL    HW2 6301   1.962   2.696   3.437
 2095SOL     OW 6302   2.475   3.227   2.588
 2095SOL    HW1 6303   2.426   3.140   2.597
 2095SOL    HW2 6304   2.452   3.270   2.501
 2096SOL     OW 6305   3.155   3.090   3.285
 2096SOL    HW1 6306   3.192   3.017   3.227
 2096SOL    HW2 6307   3.207   3.095   3.370
 2097SOL     OW 6308   2.671   1.866   2.364
 2097SOL    HW1 6309   2.711   1.957   2.355
 2097SOL    HW2 6310   2.571   1.874   2.370
 2098SOL     OW 6311   2.059   2.838   3.126
 2098SOL    HW1 6312   2.148   2.793   3.112
 2098SOL    HW2 6313   1.986   2.773   3.107
 2099SOL     OW 6314   3.387   2.861   2.052
 2099SOL    HW1 6315   3.324   2.785   2.065
 2099SOL    HW2 6316   3.435   2.879   2.138
 2100SOL     OW 6317   3.049   3.654   3.478
 2100SOL    HW1 6318   3.073   3.714   3.402
 2100SOL    HW2 6319   3.056   3.559   3.448
 2101SOL     OW 6320   2.179   2.113   3.663
 2101SOL    HW1 6321   2.250   2.184   3.669
 2101SOL    HW2 6322   2.091   2.152   3.691
 2102SOL     OW 6323   3.328   3.279   2.815
 2102SOL    HW1 6324   3.269   3.285   2.895
 2102SOL    HW2 6325   3.313   3.191   2.769
 2103SOL     OW 6326   3.529   3.576   2.434
 2103SOL    HW1 6327   3.488   3.553   2.346
 2103SOL    HW2 6328   3.511   3.502   2.499
 2104SOL     OW 6329   3.143   2.207   2.806
 2104SOL    HW1 6330   3.057   2.157   2.793
 2104SOL    HW2 6331   3.205   2.153   2.862
 2105SOL     OW 6332   3.438   3.524   2.169
 2105SOL    HW1 6333   3.527   3.570   2.172
 2105SOL    HW2 6334   3.417   3.500   2.074
 2106SOL     OW 6335   2.669   2.467   3.327
 2106SOL    HW1 6336   2.622   2.464   3.416
 2106SOL    HW2 6337   2.618   2.412   3.261
 2107SOL     OW 6338   3.256   2.331   3.536
 2107SOL    HW1 6339   3.236   2.374   3.624
 2107SOL    HW2 6340   3.334   2.269   3.545
 2108SOL     OW 6341   2.835   2.752   3.434
 2108SOL    HW1 6342   2.881   2.668   3.405
 2108SOL    HW2 6343   2.779   2.786   3.359
 2109SOL     OW 6344   2.853   2.272   3.104
 2109SOL    HW1 6345   2.776   2.306   3.158
 2109SOL    HW2 6346   2.819   2.221   3.025
 2110SOL     OW 6347   2.903   2.563   2.291
 2110SOL    HW1 6348   2.929   2.559   2.387
 2110SOL    HW2 6349   2.818   2.512   2.277
 2111SOL     OW 6350   1.938   2.673   2.651
 2111SOL    HW1 6351   2.037   2.661   2.660
 2111SOL    HW2 6352   1.914   2.768   2.672
 2112SOL     OW 6353   1.992   3.683   3.433
 2112SOL    HW1 6354   1.982   3.668   3.532
 2112SOL    HW2 6355   1.906   3.719   3.397
 2113SOL     OW 6356   2.727   2.210   2.057
 2113SOL    HW1 6357   2.786   2.273   2.008
 2113SOL    HW2 6358   2.746   2.116   2.028
 2114SOL     OW 6359   3.581   2.447   3.693
 2114SOL    HW1 6360   3.555   2.536   3.657
 2114SOL    HW2 6361   3.579   2.379   3.620
 2115SOL     OW 6362   3.224   3.006   2.407
 2115SOL    HW1 6363   3.307   2.977   2.359
 2115SOL    HW2 6364   3.175   3.073   2.351
 2116SOL     OW 6365   2.412   2.058   2.747
 2116SOL    HW1 6366   2.407   2.053   2.847
 2116SOL    HW2 6367   2.414   2.154   2.718
 2117SOL     OW 6368   2.870   3.318   2.339
 2117SOL    HW1 6369   2.824   3.390   2.287
 2117SOL    HW2 6370   2.866   3.338   2.437
 2118SOL     OW 6371   2.213   3.663   2.715
 2118SOL    HW1 6372   2.263   3.577   2.721
 2118SOL    HW2 6373   2.278   3.740   2.712
 2119SOL     OW 6374   3.657   2.928   2.735
 2119SOL    HW1 6375   3.595   2.913   2.659
 2119SOL    HW2 6376   3.605   2.939   2.820
 2120SOL     OW 6377   3.089   3.412   3.368
 2120SOL    HW1 6378   3.095   3.335   3.432
 2120SOL    HW2 6379   3.037   3.386   3.288
 2121SOL     OW 6380   2.183   2.805   2.104
 2121SOL    HW1 6381   2.265   2.844   2.062
 2121SOL    HW2 6382   2.156   2.723   2.055
 2122SOL     OW 6383   3.320   2.597   2.590
 2122SOL    HW1 6384   3.315   2.532   2.665
 2122SOL    HW2 6385   3.400   2.656   2.603
 2123SOL     OW 6386   2.323   3.128   3.589
 2123SOL    HW1 6387   2.273   3.129   3.503
 2123SOL    HW2 6388   2.260   3.110   3.665
 2124SOL     OW 6389   2.973   3.638   2.099
 2124SOL    HW1 6390   2.913   3.576   2.149
 2124SOL    HW2 6391   3.004   3.594   2.014
 2125SOL     OW 6392   2.064   2.147   3.360
 2125SOL    HW1 6393   1.984   2.207   3.347
 2125SOL    HW2 6394   2.054   2.098   3.446
 2126SOL     OW 6395   3.494   3.239   1.943
 2126SOL    HW1 6396   3.462   3.333   1.933
 2126SOL    HW2 6397   3.418   3.176   1.931
 2127SOL     OW 6398   2.326   3.605   2.185
 2127SOL    HW1 6399   2.359   3.644   2.271
 2127SOL    HW2 6400   2.402   3.598   2.120
 2128SOL     OW 6401   3.262   1.969   2.288
 2128SOL    HW1 6402   3.238   1.932   2.198
 2128SOL    HW2 6403   3.361   1.985   2.292
 2129SOL     OW 6404   2.111   3.647   3.103
 2129SOL    HW1 6405   2.168   3.582   3.153
 2129SOL    HW2 6406   2.095   3.614   3.010
 2130SOL     OW 6407   2.802   3.560   2.766
 2130SOL    HW1 6408   2.882   3.503   2.787
 2130SOL    HW2 6409   2.753   3.520   2.689
 2131SOL     OW 6410   3.409   2.084   3.591
 2131SOL    HW1 6411   3.404   2.121   3.683
 2131SOL    HW2 6412   3.337   2.015   3.579
 2132SOL     OW 6413   2.476   1.984   1.979
 2132SOL    HW1 6414   2.574   1.962   1.986
 2132SOL    HW2 6415   2.445   1.967   1.886
 2133SOL     OW 6416   2.643   2.126   3.611
 2133SOL    HW1 6417   2.710   2.065   3.654
 2133SOL    HW2 6418   2.570   2.145   3.676
 2134SOL     OW 6419   2.750   3.376   3.057
 2134SOL    HW1 6420   2.727   3.351   2.963
 2134SOL    HW2 6421   2.811   3.307   3.096
 2135SOL     OW 6422   3.213   2.452   3.295
 2135SOL    HW1 6423   3.241   2.409   3.380
 2135SOL    HW2 6424   3.238   2.548   3.296
 2136SOL     OW 6425   2.665   3.264   2.786
 2136SOL    HW1 6426   2.755   3.278   2.744
 2136SOL    HW2 6427   2.594   3.266   2.715
 2137SOL     OW 6428   2.784   2.365   2.761
 2137SOL    HW1 6429   2.759   2.356   2.665
 2137SOL    HW2 6430   2.832   2.283   2.792
 2138SOL     OW 6431   3.296   3.050   1.903
 2138SOL    HW1 6432   3.328   2.974   1.960
 2138SOL    HW2 6433   3.204   3.077   1.933
 2139SOL     OW 6434   2.159   1.897   2.033
 2139SOL    HW1 6435   2.208   1.981   2.012
 2139SOL    HW2 6436   2.221   1.832   2.078
 2140SOL     OW 6437   2.797   2.098   2.342
 2140SOL    HW1 6438   2.749   2.139   2.264
 2140SOL    HW2 6439   2.896   2.096   2.323
 2141SOL     OW 6440   2.938   2.545   3.326
 2141SOL    HW1 6441   2.858   2.484   3.329
 2141SOL    HW2 6442   3.019   2.492   3.302
 2142SOL     OW 6443   3.089   3.432   2.655
 2142SOL    HW1 6444   3.110   3.506   2.590
 2142SOL    HW2 6445   3.157   3.432   2.728
 2143SOL     OW 6446   2.321   3.014   2.603
 2143SOL    HW1 6447   2.250   2.987   2.668
 2143SOL    HW2 6448   2.295   2.986   2.510
 2144SOL     OW 6449   3.133   3.659   2.453
 2144SOL    HW1 6450   3.177   3.723   2.389
 2144SOL    HW2 6451   3.083   3.711   2.523
 2145SOL     OW 6452   2.894   2.411   1.878
 2145SOL    HW1 6453   2.853   2.493   1.839
 2145SOL    HW2 6454   2.958   2.437   1.951
 2146SOL     OW 6455   1.940   2.418   3.248
 2146SOL    HW1 6456   2.032   2.417   3.207
 2146SOL    HW2 6457   1.934   2.492   3.315
 2147SOL     OW 6458   2.423   2.084   3.009
 2147SOL    HW1 6459   2.461   2.000   3.046
 2147SOL    HW2 6460   2.335   2.103   3.053
 2148SOL     OW 6461   2.728   2.316   2.504
 2148SOL    HW1 6462   2.696   2.388   2.442
 2148SOL    HW2 6463   2.752   2.235   2.451
 2149SOL     OW 6464   2.879   1.901   2.615
 2149SOL    HW1 6465   2.807   1.906   2.546
 2149SOL    HW2 6466   2.855   1.832   2.684
 2150SOL     OW 6467   3.291   3.035   2.729
 2150SOL    HW1 6468   3.236   2.951   2.722
 2150SOL    HW2 6469   3.317   3.064   2.637
 2151SOL     OW 6470   3.328   2.452   2.854
 2151SOL    HW1 6471   3.298   2.357   2.861
 2151SOL    HW2 6472   3.401   2.468   2.920
 2152SOL     OW 6473   3.719   2.695   2.239
 2152SOL    HW1 6474   3.761   2.631   2.303
 2152SOL    HW2 6475   3.681   2.644   2.161
 2153SOL     OW 6476   2.350   3.247   2.036
 2153SOL    HW1 6477   2.263   3.232   2.083
 2153SOL    HW2 6478   2.333   3.273   1.941
 2154SOL     OW 6479   3.526   3.142   2.519
 2154SOL    HW1 6480   3.625   3.150   2.533
 2154SOL    HW2 6481   3.481   3.226   2.550
 2155SOL     OW 6482   3.252   2.437   1.940
 2155SOL    HW1 6483   3.198   2.416   2.021
 2155SOL    HW2 6484   3.343   2.396   1.949
 2156SOL     OW 6485   3.616   3.085   3.450
 2156SOL    HW1 6486   3.707   3.046   3.437
 2156SOL    HW2 6487   3.624   3.181   3.474
 2157SOL     OW 6488   2.926   3.209   3.202
 2157SOL    HW1 6489   2.846   3.186   3.257
 2157SOL    HW2 6490   3.009   3.183   3.251
 2158SOL     OW 6491   3.454   3.491   3.487
 2158SOL    HW1 6492   3.481   3.525   3.397
 2158SOL    HW2 6493   3.533   3.453   3.533
 2159SOL     OW 6494   2.973   3.057   2.962
 2159SOL    HW1 6495   2.933   3.101   3.043
 2159SOL    HW2 6496   2.932   3.094   2.879
 2160SOL     OW 6497   3.500   2.961   2.941
 2160SOL    HW1 6498   3.505   3.042   3.000
 2160SOL    HW2 6499   3.414   2.963   2.890
 2161SOL     OW 6500   2.777   1.951   3.264
 2161SOL    HW1 6501   2.802   1.931   3.169
 2161SOL    HW2 6502   2.849   2.007   3.306
 2162SOL     OW 6503   2.842   2.978   3.581
 2162SOL    HW1 6504   2.743   2.984   3.591
 2162SOL    HW2 6505   2.865   2.898   3.525
 2163SOL     OW 6506   2.567   2.912   2.230
 2163SOL    HW1 6507   2.553   2.919   2.329
 2163SOL    HW2 6508   2.651   2.861   2.212
 2164SOL     OW 6509   2.272   2.675   3.113
 2164SOL    HW1 6510   2.358   2.687   3.163
 2164SOL    HW2 6511   2.230   2.588   3.140
 2165SOL     OW 6512   3.136   2.248   3.124
 2165SOL    HW1 6513   3.157   2.322   3.188
 2165SOL    HW2 6514   3.047   2.265   3.081
 2166SOL     OW 6515   1.926   3.426   3.193
 2166SOL    HW1 6516   1.880   3.508   3.159
 2166SOL    HW2 6517   2.024   3.445   3.202
 2167SOL     OW 6518   2.229   2.962   2.363
 2167SOL    HW1 6519   2.222   3.045   2.307
 2167SOL    HW2 6520   2.233   2.882   2.303
 2168SOL     OW 6521   3.114   3.210   2.250
 2168SOL    HW1 6522   3.164   3.287   2.290
 2168SOL    HW2 6523   3.019   3.212   2.282
 2169SOL     OW 6524   3.134   3.307   3.004
 2169SOL    HW1 6525   3.181   3.320   3.091
 2169SOL    HW2 6526   3.068   3.233   3.013
 2170SOL     OW 6527   3.444   2.501   2.334
 2170SOL    HW1 6528   3.413   2.562   2.407
 2170SOL    HW2 6529   3.494   2.553   2.265
 2171SOL     OW 6530   2.216   3.372   3.191
 2171SOL    HW1 6531   2.195   3.328   3.104
 2171SOL    HW2 6532   2.313   3.398   3.194
 2172SOL     OW 6533   2.264   2.613   3.460
 2172SOL    HW1 6534   2.332   2.668   3.413
 2172SOL    HW2 6535   2.304   2.525   3.487
 2173SOL     OW 6536   3.449   2.641   3.532
 2173SOL    HW1 6537   3.357   2.679   3.527
 2173SOL    HW2 6538   3.509   2.688   3.467
 2174SOL     OW 6539   2.875   1.967   3.632
 2174SOL    HW1 6540   2.881   2.052   3.580
 2174SOL    HW2 6541   2.907   1.891   3.575
 2175SOL     OW 6542   2.366   1.912   3.602
 2175SOL    HW1 6543   2.324   1.855   3.532
 2175SOL    HW2 6544   2.300   1.981   3.634
 2176SOL     OW 6545   2.435   2.732   2.891
 2176SOL    HW1 6546   2.479   2.821   2.882
 2176SOL    HW2 6547   2.372   2.732   2.968
 2177SOL     OW 6548   3.222   2.724   2.907
 2177SOL    HW1 6549   3.147   2.724   2.841
 2177SOL    HW2 6550   3.259   2.632   2.916
 2178SOL     OW 6551   3.071   2.387   2.137
 2178SOL    HW1 6552   3.084   2.303   2.191
 2178SOL    HW2 6553   3.042   2.461   2.197
 2179SOL     OW 6554   2.169   2.075   3.093
 2179SOL    HW1 6555   2.146   2.112   3.183
 2179SOL    HW2 6556   2.139   1.980   3.087
 2180SOL     OW 6557   1.899   3.172   3.144
 2180SOL    HW1 6558   1.952   3.123   3.212
 2180SOL    HW2 6559   1.921   3.270   3.149
 2181SOL     OW 6560   2.594   2.496   2.926
 2181SOL    HW1 6561   2.653   2.470   2.850
 2181SOL    HW2 6562   2.566   2.592   2.915
 2182SOL     OW 6563   3.590   2.797   3.716
 2182SOL    HW1 6564   3.544   2.790   3.627
 2182SOL    HW2 6565   3.528   2.841   3.782
 2183SOL     OW 6566   2.169   1.925   2.480
 2183SOL    HW1 6567   2.158   2.019   2.513
 2183SOL    HW2 6568   2.164   1.862   2.557
 2184SOL     OW 6569   3.484   2.229   2.236
 2184SOL    HW1 6570   3.486   2.153   2.300
 2184SOL    HW2 6571   3.436   2.306   2.276
 2185SOL     OW 6572   2.885   2.628   2.828
 2185SOL    HW1 6573   2.900   2.649   2.924
 2185SOL    HW2 6574   2.855   2.533   2.819
 2186SOL     OW 6575   2.842   3.435   3.562
 2186SOL    HW1 6576   2.822   3.479   3.474
 2186SOL    HW2 6577   2.881   3.344   3.546
 2187SOL     OW 6578   3.721   3.380   3.467
 2187SOL    HW1 6579   3.735   3.407   3.372
 2187SOL    HW2 6580   3.804   3.402   3.520
 2188SOL     OW 6581   2.212   2.760   3.666
 2188SOL    HW1 6582   2.288   2.804   3.714
 2188SOL    HW2 6583   2.247   2.713   3.584
 2189SOL     OW 6584   3.402   2.136   1.987
 2189SOL    HW1 6585   3.341   2.061   2.010
 2189SOL    HW2 6586   3.424   2.188   2.070
 2190SOL     OW 6587   3.165   2.700   1.904
 2190SOL    HW1 6588   3.199   2.607   1.919
 2190SOL    HW2 6589   3.183   2.727   1.809
 2191SOL     OW 6590   2.930   3.195   2.711
 2191SOL    HW1 6591   2.937   3.111   2.656
 2191SOL    HW2 6592   2.992   3.264   2.675
 2192SOL     OW 6593   2.181   2.672   2.811
 2192SOL    HW1 6594   2.274   2.708   2.816
 2192SOL    HW2 6595   2.175   2.587   2.863
 2193SOL     OW 6596   2.201   2.371   2.868
 2193SOL    HW1 6597   2.149   2.288   2.851
 2193SOL    HW2 6598   2.278   2.376   2.804
 2194SOL     OW 6599   3.000   2.242   3.540
 2194SOL    HW1 6600   2.955   2.305   3.604
 2194SOL    HW2 6601   3.093   2.273   3.523
 2195SOL     OW 6602   3.022   2.069   3.339
 2195SOL    HW1 6603   3.022   2.133   3.416
 2195SOL    HW2 6604   3.050   2.117   3.256
 2196SOL     OW 6605   1.870   3.188   2.062
 2196SOL    HW1 6606   1.777   3.209   2.031
 2196SOL    HW2 6607   1.880   3.089   2.075
 2197SOL     OW 6608   1.950   3.663   2.789
 2197SOL    HW1 6609   1.908   3.577   2.762
 2197SOL    HW2 6610   2.044   3.666   2.755
 2198SOL     OW 6611   2.366   3.430   2.772
 2198SOL    HW1 6612   2.432   3.504   2.781
 2198SOL    HW2 6613   2.410   3.351   2.730
 2199SOL     OW 6614   2.864   2.658   3.100
 2199SOL    HW1 6615   2.905   2.626   3.186
 2199SOL    HW2 6616   2.768   2.631   3.097
 2200SOL     OW 6617   1.902   2.406   2.976
 2200SOL    HW1 6618   1.987   2.373   2.935
 2200SOL    HW2 6619   1.915   2.421   3.074
 2201SOL     OW 6620   2.051   2.382   3.584
 2201SOL    HW1 6621   2.110   2.342   3.514
 2201SOL    HW2 6622   1.993   2.453   3.543
 2202SOL     OW 6623   3.231   2.812   3.522
 2202SOL    HW1 6624   3.270   2.901   3.542
 2202SOL    HW2 6625   3.241   2.792   3.425
 2203SOL     OW 6626   3.519   2.466   3.068
 2203SOL    HW1 6627   3.481   2.397   3.130
 2203SOL    HW2 6628   3.601   2.430   3.024
 2204SOL     OW 6629   2.114   3.426   3.606
 2204SOL    HW1 6630   2.084   3.483   3.682
 2204SOL    HW2 6631   2.107   3.329   3.632
 2205SOL     OW 6632   2.533   2.326   3.131
 2205SOL    HW1 6633   2.499   2.237   3.101
 2205SOL    HW2 6634   2.559   2.380   3.051
 2206SOL     OW 6635   2.792   3.540   3.327
 2206SOL    HW1 6636   2.768   3.522   3.232
 2206SOL    HW2 6637   2.822   3.634   3.337
 2207SOL     OW 6638   2.021   2.999   3.328
 2207SOL    HW1 6639   2.043   2.938   3.404
 2207SOL    HW2 6640   2.031   2.950   3.242
 2208SOL     OW 6641   3.209   2.921   3.096
 2208SOL    HW1 6642   3.233   2.858   3.022
 2208SOL    HW2 6643   3.119   2.961   3.078
 2209SOL     OW 6644   3.164   2.717   2.171
 2209SOL    HW1 6645   3.078   2.686   2.213
 2209SOL    HW2 6646   3.160   2.703   2.072
 2210SOL     OW 6647   3.621   3.609   3.016
 2210SOL    HW1 6648   3.682   3.639   2.943
 2210SOL    HW2 6649   3.583   3.520   2.994
 2211SOL     OW 6650   3.114   3.593   2.990
 2211SOL    HW1 6651   3.198   3.598   2.936
 2211SOL    HW2 6652   3.091   3.497   3.008
 2212SOL     OW 6653   1.945   3.120   2.884
 2212SOL    HW1 6654   1.940   3.119   2.984
 2212SOL    HW2 6655   1.862   3.079   2.846
 2213SOL     OW 6656   2.550   3.524   3.578
 2213SOL    HW1 6657   2.494   3.605   3.587
 2213SOL    HW2 6658   2.602   3.528   3.492
 2214SOL     OW 6659   3.588   1.997   2.385
 2214SOL    HW1 6660   3.661   1.980   2.318
 2214SOL    HW2 6661   3.557   1.910   2.423
 2215SOL     OW 6662   3.250   3.435   2.339
 2215SOL    HW1 6663   3.317   3.447   2.265
 2215SOL    HW2 6664   3.210   3.524   2.362
 2216SOL     OW 6665   1.992   3.656   3.713
 2216SOL    HW1 6666   1.951   3.582   3.766
 2216SOL    HW2 6667   2.056   3.707   3.771
 2217SOL     OW 6668   3.142   2.789   2.534
 2217SOL    HW1 6669   3.202   2.708   2.536
 2217SOL    HW2 6670   3.182   2.858   2.474
 2218SOL     OW 6671   2.692   3.135   3.284
 2218SOL    HW1 6672   2.687   3.168   3.379
 2218SOL    HW2 6673   2.606   3.154   3.238
 2219SOL     OW 6674   2.534   3.478   2.016
 2219SOL    HW1 6675   2.543   3.488   1.917
 2219SOL    HW2 6676   2.494   3.389   2.037
 2220SOL     OW 6677   3.512   3.582   3.256
 2220SOL    HW1 6678   3.565   3.592   3.172
 2220SOL    HW2 6679   3.485   3.672   3.290
 2221SOL     OW 6680   3.703   2.037   2.825
 2221SOL    HW1 6681   3.742   1.952   2.789
 2221SOL    HW2 6682   3.605   2.039   2.806
 2222SOL     OW 6683   3.056   3.474   1.893
 2222SOL    HW1 6684   3.062   3.381   1.930
 2222SOL    HW2 6685   2.997   3.474   1.813
 2223SOL     OW 6686   2.684   2.864   3.234
 2223SOL    HW1 6687   2.724   2.863   3.142
 2223SOL    HW2 6688   2.694   2.956   3.274
 2224SOL     OW 6689   2.778   2.772   2.153
 2224SOL    HW1 6690   2.841   2.810   2.085
 2224SOL    HW2 6691   2.818   2.689   2.192
 2225SOL     OW 6692   3.366   3.469   1.906
 2225SOL    HW1 6693   3.274   3.506   1.913
 2225SOL    HW2 6694   3.404   3.489   1.816
 2226SOL     OW 6695   2.234   3.150   3.352
 2226SOL    HW1 6696   2.221   3.243   3.318
 2226SOL    HW2 6697   2.150   3.098   3.339
 2227SOL     OW 6698   3.476   3.154   3.151
 2227SOL    HW1 6699   3.536   3.157   3.231
 2227SOL    HW2 6700   3.401   3.218   3.164
 2228SOL     OW 6701   2.901   2.960   2.558
 2228SOL    HW1 6702   2.831   2.913   2.612
 2228SOL    HW2 6703   2.960   2.892   2.515
 2229SOL     OW 6704   2.876   2.098   2.833
 2229SOL    HW1 6705   2.868   2.062   2.740
 2229SOL    HW2 6706   2.874   2.022   2.898
 2230SOL     OW 6707   2.452   3.349   2.353
 2230SOL    HW1 6708   2.494   3.291   2.283
 2230SOL    HW2 6709   2.408   3.428   2.309
 2231SOL     OW 6710   3.571   2.247   3.243
 2231SOL    HW1 6711   3.644   2.316   3.247
 2231SOL    HW2 6712   3.599   2.172   3.184
 2232SOL     OW 6713   2.117   3.210   2.152
 2232SOL    HW1 6714   2.021   3.211   2.125
 2232SOL    HW2 6715   2.129   3.263   2.236
 2233SOL     OW 6716   1.967   2.875   3.588
 2233SOL    HW1 6717   1.890   2.842   3.642
 2233SOL    HW2 6718   2.052   2.845   3.630
 2234SOL     OW 6719   2.534   2.065   3.351
 2234SOL    HW1 6720   2.624   2.049   3.311
 2234SOL    HW2 6721   2.542   2.070   3.450
 2235SOL     OW 6722   1.937   2.207   1.895
 2235SOL    HW1 6723   1.845   2.179   1.866
 2235SOL    HW2 6724   1.968   2.284   1.839
 2236SOL     OW 6725   3.302   2.718   3.260
 2236SOL    HW1 6726   3.245   2.770   3.197
 2236SOL    HW2 6727   3.398   2.730   3.236
 2237SOL     OW 6728   1.934   2.028   2.180
 2237SOL    HW1 6729   1.917   2.111   2.126
 2237SOL    HW2 6730   2.024   1.991   2.158
 2238SOL     OW 6731   3.045   3.197   1.981
 2238SOL    HW1 6732   2.946   3.186   1.983
 2238SOL    HW2 6733   3.079   3.212   2.074
 2239SOL     OW 6734   2.475   2.704   3.293
 2239SOL    HW1 6735   2.531   2.785   3.276
 2239SOL    HW2 6736   2.534   2.624   3.296
 2240SOL     OW 6737   3.355   3.629   2.821
 2240SOL    HW1 6738   3.388   3.693   2.752
 2240SOL    HW2 6739   3.421   3.623   2.896
 2241SOL     OW 6740   2.578   2.427   3.570
 2241SOL    HW1 6741   2.597   2.492   3.644
 2241SOL    HW2 6742   2.638   2.347   3.579
 2242SOL     OW 6743   3.312   3.082   3.495
 2242SOL    HW1 6744   3.303   3.072   3.594
 2242SOL    HW2 6745   3.408   3.075   3.469
 2243SOL     OW 6746   2.252   3.603   3.422
 2243SOL    HW1 6747   2.161   3.644   3.420
 2243SOL    HW2 6748   2.245   3.509   3.454
 2244SOL     OW 6749   3.536   2.745   3.116
 2244SOL    HW1 6750   3.509   2.656   3.079
 2244SOL    HW2 6751   3.537   2.813   3.043
 2245SOL     OW 6752   3.087   2.187   2.311
 2245SOL    HW1 6753   3.152   2.113   2.300
 2245SOL    HW2 6754   3.107   2.237   2.395
 2246SOL     OW 6755   3.639   2.204   3.504
 2246SOL    HW1 6756   3.622   2.235   3.410
 2246SOL    HW2 6757   3.555   2.167   3.542
 2247SOL     OW 6758   3.592   2.796   3.379
 2247SOL    HW1 6759   3.630   2.887   3.394
 2247SOL    HW2 6760   3.584   2.779   3.280
 2248SOL     OW 6761   2.721   3.236   1.878
 2248SOL    HW1 6762   2.675   3.251   1.966
 2248SOL    HW2 6763   2.765   3.321   1.848
 2249SOL     OW 6764   2.523   3.652   2.815
 2249SOL    HW1 6765   2.477   3.740   2.802
 2249SOL    HW2 6766   2.622   3.664   2.808
 2250SOL     OW 6767   2.721   2.818   2.723
 2250SOL    HW1 6768   2.775   2.749   2.771
 2250SOL    HW2 6769   2.689   2.887   2.789
 2251SOL     OW 6770   2.945   2.846   1.949
 2251SOL    HW1 6771   2.922   2.899   1.867
 2251SOL    HW2 6772   3.026   2.790   1.930
 2252SOL     OW 6773   3.723   3.431   2.713
 2252SOL    HW1 6774   3.652   3.419   2.643
 2252SOL    HW2 6775   3.724   3.352   2.773
 2253SOL     OW 6776   2.083   3.176   3.706
 2253SOL    HW1 6777   2.018   3.103   3.685
 2253SOL    HW2 6778   2.087   3.190   3.804
 2254SOL     OW 6779   1.941   3.102   2.515
 2254SOL    HW1 6780   1.940   3.055   2.603
 2254SOL    HW2 6781   2.023   3.074   2.464
 2255SOL     OW 6782   2.534   3.253   3.486
 2255SOL    HW1 6783   2.456   3.203   3.524
 2255SOL    HW2 6784   2.531   3.348   3.517
 2256SOL     OW 6785   3.686   2.054   3.089
 2256SOL    HW1 6786   3.682   1.964   3.133
 2256SOL    HW2 6787   3.689   2.043   2.990
 2257SOL     OW 6788   3.567   3.349   2.966
 2257SOL    HW1 6789   3.474   3.324   2.939
 2257SOL    HW2 6790   3.593   3.299   3.048
 2258SOL     OW 6791   2.179   2.409   3.142
 2258SOL    HW1 6792   2.217   2.350   3.214
 2258SOL    HW2 6793   2.219   2.383   3.054
 2259SOL     OW 6794   2.674   3.448   2.549
 2259SOL    HW1 6795   2.706   3.458   2.455
 2259SOL    HW2 6796   2.595   3.386   2.551
 2260SOL     OW 6797   3.286   2.076   2.974
 2260SOL    HW1 6798   3.338   2.011   3.029
 2260SOL    HW2 6799   3.237   2.139   3.035
 2261SOL     OW 6800   2.863   1.896   3.016
 2261SOL    HW1 6801   2.800   1.824   2.985
 2261SOL    HW2 6802   2.956   1.860   3.016
 2262SOL     OW 6803   2.632   3.192   2.163
 2262SOL    HW1 6804   2.586   3.105   2.180
 2262SOL    HW2 6805   2.723   3.189   2.204
 2263SOL     OW 6806   2.480   3.429   3.146
 2263SOL    HW1 6807   2.475   3.511   3.203
 2263SOL    HW2 6808   2.569   3.426   3.101
 2264SOL     OW 6809   3.214   1.914   2.030
 2264SOL    HW1 6810   3.249   1.873   1.946
 2264SOL    HW2 6811   3.124   1.876   2.050
 2265SOL     OW 6812   3.162   2.315   2.553
 2265SOL    HW1 6813   3.103   2.395   2.557
 2265SOL    HW2 6814   3.177   2.280   2.646
 2266SOL     OW 6815   3.455   2.083   2.744
 2266SOL    HW1 6816   3.371   2.082   2.798
 2266SOL    HW2 6817   3.457   2.166   2.688
 2267SOL     OW 6818   1.901   2.939   2.162
 2267SOL    HW1 6819   2.000   2.928   2.153
 2267SOL    HW2 6820   1.861   2.853   2.194
 2268SOL     OW 6821   2.737   3.508   2.199
 2268SOL    HW1 6822   2.660   3.473   2.145
 2268SOL    HW2 6823   2.705   3.579   2.261
 2269SOL     OW 6824   2.092   2.490   3.837
 2269SOL    HW1 6825   1.999   2.488   3.874
 2269SOL    HW2 6826   2.093   2.451   3.745
 2270SOL     OW 6827   2.087   2.137   4.720
 2270SOL    HW1 6828   2.122   2.120   4.812
 2270SOL    HW2 6829   1.999   2.092   4.708
 2271SOL     OW 6830   1.881   2.230   4.371
 2271SOL    HW1 6831   1.799   2.273   4.410
 2271SOL    HW2 6832   1.853   2.157   4.308
 2272SOL     OW 6833   3.417   3.373   4.427
 2272SOL    HW1 6834   3.360   3.357   4.508
 2272SOL    HW2 6835   3.358   3.383   4.347
 2273SOL     OW 6836   2.997   2.565   4.441
 2273SOL    HW1 6837   3.054   2.643   4.416
 2273SOL    HW2 6838   2.937   2.591   4.517
 2274SOL     OW 6839   3.617   2.469   3.955
 2274SOL    HW1 6840   3.605   2.456   3.856
 2274SOL    HW2 6841   3.587   2.388   4.004
 2275SOL     OW 6842   2.547   2.874   4.389
 2275SOL    HW1 6843   2.616   2.858   4.459
 2275SOL    HW2 6844   2.474   2.931   4.427
 2276SOL     OW 6845   3.465   2.309   4.461
 2276SOL    HW1 6846   3.391   2.355   4.411
 2276SOL    HW2 6847   3.516   2.377   4.514
 2277SOL     OW 6848   2.093   3.575   4.207
 2277SOL    HW1 6849   2.127   3.652   4.261
 2277SOL    HW2 6850   2.137   3.575   4.117
 2278SOL     OW 6851   2.092   3.296   4.262
 2278SOL    HW1 6852   2.066   3.392   4.262
 2278SOL    HW2 6853   2.021   3.242   4.307
 2279SOL     OW 6854   2.102   2.953   4.610
 2279SOL    HW1 6855   2.116   2.869   4.662
 2279SOL    HW2 6856   2.047   3.017   4.665
 2280SOL     OW 6857   2.468   2.826   3.847
 2280SOL    HW1 6858   2.475   2.910   3.793
 2280SOL    HW2 6859   2.514   2.839   3.935
 2281SOL     OW 6860   1.984   2.505   4.287
 2281SOL    HW1 6861   1.939   2.417   4.304
 2281SOL    HW2 6862   1.983   2.559   4.371
 2282SOL     OW 6863   3.704   3.629   4.083
 2282SOL    HW1 6864   3.758   3.600   4.163
 2282SOL    HW2 6865   3.734   3.719   4.054
 2283SOL     OW 6866   1.889   3.458   3.841
 2283SOL    HW1 6867   1.870   3.362   3.862
 2283SOL    HW2 6868   1.856   3.516   3.916
 2284SOL     OW 6869   3.551   2.784   4.336
 2284SOL    HW1 6870   3.646   2.755   4.344
 2284SOL    HW2 6871   3.543   2.849   4.261
 2285SOL     OW 6872   3.503   2.970   4.156
 2285SOL    HW1 6873   3.589   2.972   4.104
 2285SOL    HW2 6874   3.517   3.017   4.244
 2286SOL     OW 6875   2.475   3.227   4.450
 2286SOL    HW1 6876   2.426   3.140   4.459
 2286SOL    HW2 6877   2.452   3.270   4.363
 2287SOL     OW 6878   2.671   1.866   4.226
 2287SOL    HW1 6879   2.711   1.957   4.217
 2287SOL    HW2 6880   2.571   1.874   4.232
 2288SOL     OW 6881   3.387   2.861   3.914
 2288SOL    HW1 6882   3.324   2.785   3.927
 2288SOL    HW2 6883   3.435   2.879   4.000
 2289SOL     OW 6884   3.328   3.279   4.677
 2289SOL    HW1 6885   3.269   3.285   4.757
 2289SOL    HW2 6886   3.313   3.191   4.631
 2290SOL     OW 6887   3.529   3.576   4.296
 2290SOL    HW1 6888   3.488   3.553   4.208
 2290SOL    HW2 6889   3.511   3.502   4.361
 2291SOL     OW 6890   2.460   2.591   3.994
 2291SOL    HW1 6891   2.484   2.660   3.926
 2291SOL    HW2 6892   2.382   2.624   4.048
 2292SOL     OW 6893   3.143   2.207   4.668
 2292SOL    HW1 6894   3.057   2.157   4.655
 2292SOL    HW2 6895   3.205   2.153   4.724
 2293SOL     OW 6896   3.438   3.524   4.031
 2293SOL    HW1 6897   3.527   3.570   4.034
 2293SOL    HW2 6898   3.417   3.500   3.936
 2294SOL     OW 6899   2.903   2.563   4.153
 2294SOL    HW1 6900   2.929   2.559   4.249
 2294SOL    HW2 6901   2.818   2.512   4.139
 2295SOL     OW 6902   1.938   2.673   4.513
 2295SOL    HW1 6903   2.037   2.661   4.522
 2295SOL    HW2 6904   1.914   2.768   4.534
 2296SOL     OW 6905   2.727   2.210   3.919
 2296SOL    HW1 6906   2.786   2.273   3.870
 2296SOL    HW2 6907   2.746   2.116   3.890
 2297SOL     OW 6908   3.224   3.006   4.269
 2297SOL    HW1 6909   3.307   2.977   4.221
 2297SOL    HW2 6910   3.175   3.073   4.213
 2298SOL     OW 6911   2.412   2.058   4.609
 2298SOL    HW1 6912   2.407   2.053   4.709
 2298SOL    HW2 6913   2.414   2.154   4.580
 2299SOL     OW 6914   2.870   3.318   4.201
 2299SOL    HW1 6915   2.824   3.390   4.149
 2299SOL    HW2 6916   2.866   3.338   4.299
 2300SOL     OW 6917   2.213   3.663   4.577
 2300SOL    HW1 6918   2.263   3.577   4.583
 2300SOL    HW2 6919   2.278   3.740   4.574
 2301SOL     OW 6920   3.657   2.928   4.597
 2301SOL    HW1 6921   3.595   2.913   4.521
 2301SOL    HW2 6922   3.605   2.939   4.682
 2302SOL     OW 6923   2.183   2.805   3.966
 2302SOL    HW1 6924   2.265   2.844   3.924
 2302SOL    HW2 6925   2.156   2.723   3.917
 2303SOL     OW 6926   3.320   2.597   4.452
 2303SOL    HW1 6927   3.315   2.532   4.527
 2303SOL    HW2 6928   3.400   2.656   4.465
 2304SOL     OW 6929   2.973   3.638   3.961
 2304SOL    HW1 6930   2.913   3.576   4.011
 2304SOL    HW2 6931   3.004   3.594   3.876
 2305SOL     OW 6932   3.494   3.239   3.805
 2305SOL    HW1 6933   3.462   3.333   3.795
 2305SOL    HW2 6934   3.418   3.176   3.793
 2306SOL     OW 6935   2.326   3.605   4.047
 2306SOL    HW1 6936   2.359   3.644   4.133
 2306SOL    HW2 6937   2.402   3.598   3.982
 2307SOL     OW 6938   3.262   1.969   4.150
 2307SOL    HW1 6939   3.238   1.932   4.060
 2307SOL    HW2 6940   3.361   1.985   4.154
 2308SOL     OW 6941   2.244   2.562   4.204
 2308SOL    HW1 6942   2.289   2.472   4.201
 2308SOL    HW2 6943   2.150   2.551   4.237
 2309SOL     OW 6944   2.476   1.984   3.841
 2309SOL    HW1 6945   2.574   1.962   3.848
 2309SOL    HW2 6946   2.445   1.967   3.748
 2310SOL     OW 6947   2.401   1.926   4.236
 2310SOL    HW1 6948   2.320   1.927   4.294
 2310SOL    HW2 6949   2.404   2.009   4.181
 2311SOL     OW 6950   3.296   3.050   3.765
 2311SOL    HW1 6951   3.328   2.974   3.822
 2311SOL    HW2 6952   3.204   3.077   3.795
 2312SOL     OW 6953   2.159   1.897   3.895
 2312SOL    HW1 6954   2.208   1.981   3.874
 2312SOL    HW2 6955   2.221   1.832   3.940
 2313SOL     OW 6956   2.797   2.098   4.204
 2313SOL    HW1 6957   2.749   2.139   4.126
 2313SOL    HW2 6958   2.896   2.096   4.185
 2314SOL     OW 6959   3.089   3.432   4.517
 2314SOL    HW1 6960   3.110   3.506   4.452
 2314SOL    HW2 6961   3.157   3.432   4.590
 2315SOL     OW 6962   2.321   3.014   4.465
 2315SOL    HW1 6963   2.250   2.987   4.530
 2315SOL    HW2 6964   2.295   2.986   4.372
 2316SOL     OW 6965   3.133   3.659   4.315
 2316SOL    HW1 6966   3.177   3.723   4.251
 2316SOL    HW2 6967   3.083   3.711   4.385
 2317SOL     OW 6968   2.894   2.411   3.740
 2317SOL    HW1 6969   2.853   2.493   3.701
 2317SOL    HW2 6970   2.958   2.437   3.813
 2318SOL     OW 6971   2.728   2.316   4.366
 2318SOL    HW1 6972   2.696   2.388   4.304
 2318SOL    HW2 6973   2.752   2.235   4.313
 2319SOL     OW 6974   2.879   1.901   4.477
 2319SOL    HW1 6975   2.807   1.906   4.408
 2319SOL    HW2 6976   2.855   1.832   4.546
 2320SOL     OW 6977   3.719   2.695   4.101
 2320SOL    HW1 6978   3.761   2.631   4.165
 2320SOL    HW2 6979   3.681   2.644   4.023
 2321SOL     OW 6980   2.350   3.247   3.898
 2321SOL    HW1 6981   2.263   3.232   3.945
 2321SOL    HW2 6982   2.333   3.273   3.803
 2322SOL     OW 6983   3.526   3.142   4.381
 2322SOL    HW1 6984   3.625   3.150   4.395
 2322SOL    HW2 6985   3.481   3.226   4.412
 2323SOL     OW 6986   3.252   2.437   3.802
 2323SOL    HW1 6987   3.198   2.416   3.883
 2323SOL    HW2 6988   3.343   2.396   3.811
 2324SOL     OW 6989   2.389   2.118   4.052
 2324SOL    HW1 6990   2.416   2.059   3.977
 2324SOL    HW2 6991   2.389   2.213   4.021
 2325SOL     OW 6992   2.567   2.912   4.092
 2325SOL    HW1 6993   2.553   2.919   4.191
 2325SOL    HW2 6994   2.651   2.861   4.074
 2326SOL     OW 6995   2.229   2.962   4.225
 2326SOL    HW1 6996   2.222   3.045   4.169
 2326SOL    HW2 6997   2.233   2.882   4.165
 2327SOL     OW 6998   2.428   2.399   4.589
 2327SOL    HW1 6999   2.440   2.465   4.515
 2327SOL    HW2 7000   2.474   2.433   4.672
 2328SOL     OW 7001   3.114   3.210   4.112
 2328SOL    HW1 7002   3.164   3.287   4.152
 2328SOL    HW2 7003   3.019   3.212   4.144
 2329SOL     OW 7004   3.444   2.501   4.196
 2329SOL    HW1 7005   3.413   2.562   4.269
 2329SOL    HW2 7006   3.494   2.553   4.127
 2330SOL     OW 7007   3.071   2.387   3.999
 2330SOL    HW1 7008   3.084   2.303   4.053
 2330SOL    HW2 7009   3.042   2.461   4.059
 2331SOL     OW 7010   2.594   2.496   4.788
 2331SOL    HW1 7011   2.653   2.470   4.712
 2331SOL    HW2 7012   2.566   2.592   4.777
 2332SOL     OW 7013   2.169   1.925   4.342
 2332SOL    HW1 7014   2.158   2.019   4.375
 2332SOL    HW2 7015   2.164   1.862   4.419
 2333SOL     OW 7016   3.484   2.229   4.098
 2333SOL    HW1 7017   3.486   2.153   4.162
 2333SOL    HW2 7018   3.436   2.306   4.138
 2334SOL     OW 7019   3.402   2.136   3.849
 2334SOL    HW1 7020   3.341   2.061   3.872
 2334SOL    HW2 7021   3.424   2.188   3.932
 2335SOL     OW 7022   3.165   2.700   3.766
 2335SOL    HW1 7023   3.199   2.607   3.781
 2335SOL    HW2 7024   3.183   2.727   3.671
 2336SOL     OW 7025   2.930   3.195   4.573
 2336SOL    HW1 7026   2.937   3.111   4.518
 2336SOL    HW2 7027   2.992   3.264   4.537
 2337SOL     OW 7028   1.870   3.188   3.924
 2337SOL    HW1 7029   1.777   3.209   3.893
 2337SOL    HW2 7030   1.880   3.089   3.937
 2338SOL     OW 7031   1.950   3.663   4.651
 2338SOL    HW1 7032   1.908   3.577   4.624
 2338SOL    HW2 7033   2.044   3.666   4.617
 2339SOL     OW 7034   2.366   3.430   4.634
 2339SOL    HW1 7035   2.432   3.504   4.643
 2339SOL    HW2 7036   2.410   3.351   4.592
 2340SOL     OW 7037   2.677   2.434   4.049
 2340SOL    HW1 7038   2.684   2.345   4.003
 2340SOL    HW2 7039   2.583   2.468   4.041
 2341SOL     OW 7040   2.335   2.362   3.915
 2341SOL    HW1 7041   2.396   2.442   3.919
 2341SOL    HW2 7042   2.240   2.393   3.922
 2342SOL     OW 7043   3.164   2.717   4.033
 2342SOL    HW1 7044   3.078   2.686   4.075
 2342SOL    HW2 7045   3.160   2.703   3.934
 2343SOL     OW 7046   3.621   3.609   4.878
 2343SOL    HW1 7047   3.682   3.639   4.805
 2343SOL    HW2 7048   3.583   3.520   4.856
 2344SOL     OW 7049   3.588   1.997   4.247
 2344SOL    HW1 7050   3.661   1.980   4.180
 2344SOL    HW2 7051   3.557   1.910   4.285
 2345SOL     OW 7052   3.250   3.435   4.201
 2345SOL    HW1 7053   3.317   3.447   4.127
 2345SOL    HW2 7054   3.210   3.524   4.224
 2346SOL     OW 7055   3.142   2.789   4.396
 2346SOL    HW1 7056   3.202   2.708   4.398
 2346SOL    HW2 7057   3.182   2.858   4.336
 2347SOL     OW 7058   2.534   3.478   3.878
 2347SOL    HW1 7059   2.543   3.488   3.779
 2347SOL    HW2 7060   2.494   3.389   3.899
 2348SOL     OW 7061   3.703   2.037   4.687
 2348SOL    HW1 7062   3.742   1.952   4.651
 2348SOL    HW2 7063   3.605   2.039   4.668
 2349SOL     OW 7064   2.125   2.188   4.444
 2349SOL    HW1 7065   2.046   2.239   4.410
 2349SOL    HW2 7066   2.116   2.173   4.542
 2350SOL     OW 7067   3.056   3.474   3.755
 2350SOL    HW1 7068   3.062   3.381   3.792
 2350SOL    HW2 7069   2.997   3.474   3.675
 2351SOL     OW 7070   2.778   2.772   4.015
 2351SOL    HW1 7071   2.841   2.810   3.947
 2351SOL    HW2 7072   2.818   2.689   4.054
 2352SOL     OW 7073   3.366   3.469   3.768
 2352SOL    HW1 7074   3.274   3.506   3.775
 2352SOL    HW2 7075   3.404   3.489   3.678
 2353SOL     OW 7076   2.901   2.960   4.420
 2353SOL    HW1 7077   2.831   2.913   4.474
 2353SOL    HW2 7078   2.960   2.892   4.377
 2354SOL     OW 7079   2.452   3.349   4.215
 2354SOL    HW1 7080   2.494   3.291   4.145
 2354SOL    HW2 7081   2.408   3.428   4.171
 2355SOL     OW 7082   2.117   3.210   4.014
 2355SOL    HW1 7083   2.021   3.211   3.987
 2355SOL    HW2 7084   2.129   3.263   4.098
 2356SOL     OW 7085   1.937   2.207   3.757
 2356SOL    HW1 7086   1.845   2.179   3.728
 2356SOL    HW2 7087   1.968   2.284   3.701
 2357SOL     OW 7088   1.934   2.028   4.042
 2357SOL    HW1 7089   1.917   2.111   3.988
 2357SOL    HW2 7090   2.024   1.991   4.020
 2358SOL     OW 7091   3.045   3.197   3.843
 2358SOL    HW1 7092   2.946   3.186   3.845
 2358SOL    HW2 7093   3.079   3.212   3.936
 2359SOL     OW 7094   3.087   2.187   4.173
 2359SOL    HW1 7095   3.152   2.113   4.162
 2359SOL    HW2 7096   3.107   2.237   4.257
 2360SOL     OW 7097   2.456   2.607   4.376
 2360SOL    HW1 7098   2.506   2.692   4.357
 2360SOL    HW2 7099   2.368   2.609   4.328
 2361SOL     OW 7100   2.721   3.236   3.740
 2361SOL    HW1 7101   2.675   3.251   3.828
 2361SOL    HW2 7102   2.765   3.321   3.710
 2362SOL     OW 7103   2.523   3.652   4.677
 2362SOL    HW1 7104   2.477   3.740   4.664
 2362SOL    HW2 7105   2.622   3.664   4.670
 2363SOL     OW 7106   2.721   2.818   4.585
 2363SOL    HW1 7107   2.775   2.749   4.633
 2363SOL    HW2 7108   2.689   2.887   4.651
 2364SOL     OW 7109   2.945   2.846   3.811
 2364SOL    HW1 7110   2.922   2.899   3.729
 2364SOL    HW2 7111   3.026   2.790   3.792
 2365SOL     OW 7112   3.723   3.431   4.575
 2365SOL    HW1 7113   3.652   3.419   4.505
 2365SOL    HW2 7114   3.724   3.352   4.635
 2366SOL     OW 7115   1.941   3.102   4.377
 2366SOL    HW1 7116   1.940   3.055   4.465
 2366SOL    HW2 7117   2.023   3.074   4.326
 2367SOL     OW 7118   2.290   2.286   4.244
 2367SOL    HW1 7119   2.320   2.214   4.182
 2367SOL    HW2 7120   2.251   2.246   4.327
 2368SOL     OW 7121   2.674   3.448   4.411
 2368SOL    HW1 7122   2.706   3.458   4.317
 2368SOL    HW2 7123   2.595   3.386   4.413
 2369SOL     OW 7124   2.632   3.192   4.025
 2369SOL    HW1 7125   2.586   3.105   4.042
 2369SOL    HW2 7126   2.723   3.189   4.066
 2370SOL     OW 7127   3.214   1.914   3.892
 2370SOL    HW1 7128   3.249   1.873   3.808
 2370SOL    HW2 7129   3.124   1.876   3.912
 2371SOL     OW 7130   3.162   2.315   4.415
 2371SOL    HW1 7131   3.103   2.395   4.419
 2371SOL    HW2 7132   3.177   2.280   4.508
 2372SOL     OW 7133   3.455   2.083   4.606
 2372SOL    HW1 7134   3.371   2.082   4.660
 2372SOL    HW2 7135   3.457   2.166   4.550
 2373SOL     OW 7136   1.901   2.939   4.024
 2373SOL    HW1 7137   2.000   2.928   4.015
 2373SOL    HW2 7138   1.861   2.853   4.056
 2374SOL     OW 7139   2.737   3.508   4.061
 2374SOL    HW1 7140   2.660   3.473   4.007
 2374SOL    HW2 7141   2.705   3.579   4.123
 2375SOL     OW 7142   2.092   4.352   0.113
 2375SOL    HW1 7143   1.999   4.350   0.150
 2375SOL    HW2 7144   2.093   4.313   0.021
 2376SOL     OW 7145   2.087   3.999   0.996
 2376SOL    HW1 7146   2.122   3.982   1.088
 2376SOL    HW2 7147   1.999   3.954   0.984
 2377SOL     OW 7148   1.881   4.092   0.647
 2377SOL    HW1 7149   1.799   4.135   0.686
 2377SOL    HW2 7150   1.853   4.019   0.584
 2378SOL     OW 7151   2.997   4.427   0.717
 2378SOL    HW1 7152   3.054   4.505   0.692
 2378SOL    HW2 7153   2.937   4.453   0.793
 2379SOL     OW 7154   3.617   4.331   0.231
 2379SOL    HW1 7155   3.605   4.318   0.132
 2379SOL    HW2 7156   3.587   4.250   0.280
 2380SOL     OW 7157   2.712   4.522   1.823
 2380SOL    HW1 7158   2.708   4.598   1.888
 2380SOL    HW2 7159   2.734   4.558   1.732
 2381SOL     OW 7160   2.547   4.736   0.665
 2381SOL    HW1 7161   2.616   4.720   0.735
 2381SOL    HW2 7162   2.474   4.793   0.703
 2382SOL     OW 7163   2.300   4.116   1.499
 2382SOL    HW1 7164   2.382   4.060   1.508
 2382SOL    HW2 7165   2.219   4.058   1.503
 2383SOL     OW 7166   3.465   4.171   0.737
 2383SOL    HW1 7167   3.391   4.217   0.687
 2383SOL    HW2 7168   3.516   4.239   0.790
 2384SOL     OW 7169   3.456   3.838   1.480
 2384SOL    HW1 7170   3.438   3.905   1.408
 2384SOL    HW2 7171   3.453   3.884   1.569
 2385SOL     OW 7172   1.984   4.367   0.563
 2385SOL    HW1 7173   1.939   4.279   0.580
 2385SOL    HW2 7174   1.983   4.421   0.647
 2386SOL     OW 7175   1.975   4.461   1.597
 2386SOL    HW1 7176   2.063   4.448   1.642
 2386SOL    HW2 7177   1.962   4.558   1.575
 2387SOL     OW 7178   2.671   3.728   0.502
 2387SOL    HW1 7179   2.711   3.819   0.493
 2387SOL    HW2 7180   2.571   3.736   0.508
 2388SOL     OW 7181   2.179   3.975   1.801
 2388SOL    HW1 7182   2.250   4.046   1.807
 2388SOL    HW2 7183   2.091   4.014   1.829
 2389SOL     OW 7184   2.460   4.453   0.270
 2389SOL    HW1 7185   2.484   4.522   0.202
 2389SOL    HW2 7186   2.382   4.486   0.324
 2390SOL     OW 7187   3.143   4.069   0.944
 2390SOL    HW1 7188   3.057   4.019   0.931
 2390SOL    HW2 7189   3.205   4.015   1.000
 2391SOL     OW 7190   2.669   4.329   1.465
 2391SOL    HW1 7191   2.622   4.326   1.554
 2391SOL    HW2 7192   2.618   4.274   1.399
 2392SOL     OW 7193   3.256   4.193   1.674
 2392SOL    HW1 7194   3.236   4.236   1.762
 2392SOL    HW2 7195   3.334   4.131   1.683
 2393SOL     OW 7196   2.835   4.614   1.572
 2393SOL    HW1 7197   2.881   4.530   1.543
 2393SOL    HW2 7198   2.779   4.648   1.497
 2394SOL     OW 7199   2.853   4.134   1.242
 2394SOL    HW1 7200   2.776   4.168   1.296
 2394SOL    HW2 7201   2.819   4.083   1.163
 2395SOL     OW 7202   2.903   4.425   0.429
 2395SOL    HW1 7203   2.929   4.421   0.525
 2395SOL    HW2 7204   2.818   4.374   0.415
 2396SOL     OW 7205   1.938   4.535   0.789
 2396SOL    HW1 7206   2.037   4.523   0.798
 2396SOL    HW2 7207   1.914   4.630   0.810
 2397SOL     OW 7208   2.727   4.072   0.195
 2397SOL    HW1 7209   2.786   4.135   0.146
 2397SOL    HW2 7210   2.746   3.978   0.166
 2398SOL     OW 7211   3.581   4.309   1.831
 2398SOL    HW1 7212   3.555   4.398   1.795
 2398SOL    HW2 7213   3.579   4.241   1.758
 2399SOL     OW 7214   2.412   3.920   0.885
 2399SOL    HW1 7215   2.407   3.915   0.985
 2399SOL    HW2 7216   2.414   4.016   0.856
 2400SOL     OW 7217   3.320   4.459   0.728
 2400SOL    HW1 7218   3.315   4.394   0.803
 2400SOL    HW2 7219   3.400   4.518   0.741
 2401SOL     OW 7220   2.064   4.009   1.498
 2401SOL    HW1 7221   1.984   4.069   1.485
 2401SOL    HW2 7222   2.054   3.960   1.584
 2402SOL     OW 7223   3.262   3.831   0.426
 2402SOL    HW1 7224   3.238   3.794   0.336
 2402SOL    HW2 7225   3.361   3.847   0.430
 2403SOL     OW 7226   2.244   4.424   0.480
 2403SOL    HW1 7227   2.289   4.334   0.477
 2403SOL    HW2 7228   2.150   4.413   0.513
 2404SOL     OW 7229   3.409   3.946   1.729
 2404SOL    HW1 7230   3.404   3.983   1.821
 2404SOL    HW2 7231   3.337   3.877   1.717
 2405SOL     OW 7232   2.643   3.988   1.749
 2405SOL    HW1 7233   2.710   3.927   1.792
 2405SOL    HW2 7234   2.570   4.007   1.814
 2406SOL     OW 7235   3.213   4.314   1.433
 2406SOL    HW1 7236   3.241   4.271   1.518
 2406SOL    HW2 7237   3.238   4.410   1.434
 2407SOL     OW 7238   2.784   4.227   0.899
 2407SOL    HW1 7239   2.759   4.218   0.803
 2407SOL    HW2 7240   2.832   4.145   0.930
 2408SOL     OW 7241   2.401   3.788   0.512
 2408SOL    HW1 7242   2.320   3.789   0.570
 2408SOL    HW2 7243   2.404   3.871   0.457
 2409SOL     OW 7244   2.159   3.759   0.171
 2409SOL    HW1 7245   2.208   3.843   0.150
 2409SOL    HW2 7246   2.221   3.694   0.216
 2410SOL     OW 7247   2.797   3.960   0.480
 2410SOL    HW1 7248   2.749   4.001   0.402
 2410SOL    HW2 7249   2.896   3.958   0.461
 2411SOL     OW 7250   2.938   4.407   1.464
 2411SOL    HW1 7251   2.858   4.346   1.467
 2411SOL    HW2 7252   3.019   4.354   1.440
 2412SOL     OW 7253   2.894   4.273   0.016
 2412SOL    HW1 7254   2.853   4.355  -0.023
 2412SOL    HW2 7255   2.958   4.299   0.089
 2413SOL     OW 7256   1.940   4.280   1.386
 2413SOL    HW1 7257   2.032   4.279   1.345
 2413SOL    HW2 7258   1.934   4.354   1.453
 2414SOL     OW 7259   2.423   3.946   1.147
 2414SOL    HW1 7260   2.461   3.862   1.184
 2414SOL    HW2 7261   2.335   3.965   1.191
 2415SOL     OW 7262   2.728   4.178   0.642
 2415SOL    HW1 7263   2.696   4.250   0.580
 2415SOL    HW2 7264   2.752   4.097   0.589
 2416SOL     OW 7265   2.879   3.763   0.753
 2416SOL    HW1 7266   2.807   3.768   0.684
 2416SOL    HW2 7267   2.855   3.694   0.822
 2417SOL     OW 7268   3.328   4.314   0.992
 2417SOL    HW1 7269   3.298   4.219   0.999
 2417SOL    HW2 7270   3.401   4.330   1.058
 2418SOL     OW 7271   3.719   4.557   0.377
 2418SOL    HW1 7272   3.761   4.493   0.441
 2418SOL    HW2 7273   3.681   4.506   0.299
 2419SOL     OW 7274   3.252   4.299   0.078
 2419SOL    HW1 7275   3.198   4.278   0.159
 2419SOL    HW2 7276   3.343   4.258   0.087
 2420SOL     OW 7277   2.389   3.980   0.328
 2420SOL    HW1 7278   2.416   3.921   0.253
 2420SOL    HW2 7279   2.389   4.075   0.297
 2421SOL     OW 7280   2.777   3.813   1.402
 2421SOL    HW1 7281   2.802   3.793   1.307
 2421SOL    HW2 7282   2.849   3.869   1.444
 2422SOL     OW 7283   2.272   4.537   1.251
 2422SOL    HW1 7284   2.358   4.549   1.301
 2422SOL    HW2 7285   2.230   4.450   1.278
 2423SOL     OW 7286   3.136   4.110   1.262
 2423SOL    HW1 7287   3.157   4.184   1.326
 2423SOL    HW2 7288   3.047   4.127   1.219
 2424SOL     OW 7289   2.428   4.261   0.865
 2424SOL    HW1 7290   2.440   4.327   0.791
 2424SOL    HW2 7291   2.474   4.295   0.948
 2425SOL     OW 7292   3.444   4.363   0.472
 2425SOL    HW1 7293   3.413   4.424   0.545
 2425SOL    HW2 7294   3.494   4.415   0.403
 2426SOL     OW 7295   2.264   4.475   1.598
 2426SOL    HW1 7296   2.332   4.530   1.551
 2426SOL    HW2 7297   2.304   4.387   1.625
 2427SOL     OW 7298   3.449   4.503   1.670
 2427SOL    HW1 7299   3.357   4.541   1.665
 2427SOL    HW2 7300   3.509   4.550   1.605
 2428SOL     OW 7301   2.875   3.829   1.770
 2428SOL    HW1 7302   2.881   3.914   1.718
 2428SOL    HW2 7303   2.907   3.753   1.713
 2429SOL     OW 7304   2.366   3.774   1.740
 2429SOL    HW1 7305   2.324   3.717   1.670
 2429SOL    HW2 7306   2.300   3.843   1.772
 2430SOL     OW 7307   2.435   4.594   1.029
 2430SOL    HW1 7308   2.479   4.683   1.020
 2430SOL    HW2 7309   2.372   4.594   1.106
 2431SOL     OW 7310   3.222   4.586   1.045
 2431SOL    HW1 7311   3.147   4.586   0.979
 2431SOL    HW2 7312   3.259   4.494   1.054
 2432SOL     OW 7313   3.071   4.249   0.275
 2432SOL    HW1 7314   3.084   4.165   0.329
 2432SOL    HW2 7315   3.042   4.323   0.335
 2433SOL     OW 7316   2.169   3.937   1.231
 2433SOL    HW1 7317   2.146   3.974   1.321
 2433SOL    HW2 7318   2.139   3.842   1.225
 2434SOL     OW 7319   2.594   4.358   1.064
 2434SOL    HW1 7320   2.653   4.332   0.988
 2434SOL    HW2 7321   2.566   4.454   1.053
 2435SOL     OW 7322   3.590   4.659   1.854
 2435SOL    HW1 7323   3.544   4.652   1.765
 2435SOL    HW2 7324   3.528   4.703   1.920
 2436SOL     OW 7325   2.169   3.787   0.618
 2436SOL    HW1 7326   2.158   3.881   0.651
 2436SOL    HW2 7327   2.164   3.724   0.695
 2437SOL     OW 7328   3.484   4.091   0.374
 2437SOL    HW1 7329   3.486   4.015   0.438
 2437SOL    HW2 7330   3.436   4.168   0.414
 2438SOL     OW 7331   2.885   4.490   0.966
 2438SOL    HW1 7332   2.900   4.511   1.062
 2438SOL    HW2 7333   2.855   4.395   0.957
 2439SOL     OW 7334   2.212   4.622   1.804
 2439SOL    HW1 7335   2.288   4.666   1.852
 2439SOL    HW2 7336   2.247   4.575   1.722
 2440SOL     OW 7337   3.402   3.998   0.125
 2440SOL    HW1 7338   3.341   3.923   0.148
 2440SOL    HW2 7339   3.424   4.050   0.208
 2441SOL     OW 7340   3.165   4.562   0.042
 2441SOL    HW1 7341   3.199   4.469   0.057
 2441SOL    HW2 7342   3.183   4.589  -0.053
 2442SOL     OW 7343   2.181   4.534   0.949
 2442SOL    HW1 7344   2.274   4.570   0.954
 2442SOL    HW2 7345   2.175   4.449   1.001
 2443SOL     OW 7346   2.201   4.233   1.006
 2443SOL    HW1 7347   2.149   4.150   0.989
 2443SOL    HW2 7348   2.278   4.238   0.942
 2444SOL     OW 7349   3.000   4.104   1.678
 2444SOL    HW1 7350   2.955   4.167   1.742
 2444SOL    HW2 7351   3.093   4.135   1.661
 2445SOL     OW 7352   3.022   3.931   1.477
 2445SOL    HW1 7353   3.022   3.995   1.554
 2445SOL    HW2 7354   3.050   3.979   1.394
 2446SOL     OW 7355   2.864   4.520   1.238
 2446SOL    HW1 7356   2.905   4.488   1.324
 2446SOL    HW2 7357   2.768   4.493   1.235
 2447SOL     OW 7358   1.902   4.268   1.114
 2447SOL    HW1 7359   1.987   4.235   1.073
 2447SOL    HW2 7360   1.915   4.283   1.212
 2448SOL     OW 7361   2.051   4.244   1.722
 2448SOL    HW1 7362   2.110   4.204   1.652
 2448SOL    HW2 7363   1.993   4.315   1.681
 2449SOL     OW 7364   2.677   4.296   0.325
 2449SOL    HW1 7365   2.684   4.207   0.279
 2449SOL    HW2 7366   2.583   4.330   0.317
 2450SOL     OW 7367   3.519   4.328   1.206
 2450SOL    HW1 7368   3.481   4.259   1.268
 2450SOL    HW2 7369   3.601   4.292   1.162
 2451SOL     OW 7370   2.533   4.188   1.269
 2451SOL    HW1 7371   2.499   4.099   1.239
 2451SOL    HW2 7372   2.559   4.242   1.189
 2452SOL     OW 7373   2.335   4.224   0.191
 2452SOL    HW1 7374   2.396   4.304   0.195
 2452SOL    HW2 7375   2.240   4.255   0.198
 2453SOL     OW 7376   3.209   4.783   1.234
 2453SOL    HW1 7377   3.233   4.720   1.160
 2453SOL    HW2 7378   3.119   4.823   1.216
 2454SOL     OW 7379   3.164   4.579   0.309
 2454SOL    HW1 7380   3.078   4.548   0.351
 2454SOL    HW2 7381   3.160   4.565   0.210
 2455SOL     OW 7382   2.765   3.810   0.133
 2455SOL    HW1 7383   2.816   3.811   0.047
 2455SOL    HW2 7384   2.821   3.768   0.204
 2456SOL     OW 7385   3.588   3.859   0.523
 2456SOL    HW1 7386   3.661   3.842   0.456
 2456SOL    HW2 7387   3.557   3.772   0.561
 2457SOL     OW 7388   3.142   4.651   0.672
 2457SOL    HW1 7389   3.202   4.570   0.674
 2457SOL    HW2 7390   3.182   4.720   0.612
 2458SOL     OW 7391   3.703   3.899   0.963
 2458SOL    HW1 7392   3.742   3.814   0.927
 2458SOL    HW2 7393   3.605   3.901   0.944
 2459SOL     OW 7394   2.125   4.050   0.720
 2459SOL    HW1 7395   2.046   4.101   0.686
 2459SOL    HW2 7396   2.116   4.035   0.818
 2460SOL     OW 7397   2.876   3.960   0.971
 2460SOL    HW1 7398   2.868   3.924   0.878
 2460SOL    HW2 7399   2.874   3.884   1.036
 2461SOL     OW 7400   3.571   4.109   1.381
 2461SOL    HW1 7401   3.644   4.178   1.385
 2461SOL    HW2 7402   3.599   4.034   1.322
 2462SOL     OW 7403   1.967   4.737   1.726
 2462SOL    HW1 7404   1.890   4.704   1.780
 2462SOL    HW2 7405   2.052   4.707   1.768
 2463SOL     OW 7406   2.534   3.927   1.489
 2463SOL    HW1 7407   2.624   3.911   1.449
 2463SOL    HW2 7408   2.542   3.932   1.588
 2464SOL     OW 7409   3.302   4.580   1.398
 2464SOL    HW1 7410   3.245   4.632   1.335
 2464SOL    HW2 7411   3.398   4.592   1.374
 2465SOL     OW 7412   1.934   3.890   0.318
 2465SOL    HW1 7413   1.917   3.973   0.264
 2465SOL    HW2 7414   2.024   3.853   0.296
 2466SOL     OW 7415   2.475   4.566   1.431
 2466SOL    HW1 7416   2.531   4.647   1.414
 2466SOL    HW2 7417   2.534   4.486   1.434
 2467SOL     OW 7418   2.578   4.289   1.708
 2467SOL    HW1 7419   2.597   4.354   1.782
 2467SOL    HW2 7420   2.638   4.209   1.717
 2468SOL     OW 7421   3.536   4.607   1.254
 2468SOL    HW1 7422   3.509   4.518   1.217
 2468SOL    HW2 7423   3.537   4.675   1.181
 2469SOL     OW 7424   3.087   4.049   0.449
 2469SOL    HW1 7425   3.152   3.975   0.438
 2469SOL    HW2 7426   3.107   4.099   0.533
 2470SOL     OW 7427   2.456   4.469   0.652
 2470SOL    HW1 7428   2.506   4.554   0.633
 2470SOL    HW2 7429   2.368   4.471   0.604
 2471SOL     OW 7430   3.639   4.066   1.642
 2471SOL    HW1 7431   3.622   4.097   1.548
 2471SOL    HW2 7432   3.555   4.029   1.680
 2472SOL     OW 7433   3.592   4.658   1.517
 2472SOL    HW1 7434   3.630   4.749   1.532
 2472SOL    HW2 7435   3.584   4.641   1.418
 2473SOL     OW 7436   3.686   3.916   1.227
 2473SOL    HW1 7437   3.682   3.826   1.271
 2473SOL    HW2 7438   3.689   3.905   1.128
 2474SOL     OW 7439   2.290   4.148   0.520
 2474SOL    HW1 7440   2.320   4.076   0.458
 2474SOL    HW2 7441   2.251   4.108   0.603
 2475SOL     OW 7442   2.179   4.271   1.280
 2475SOL    HW1 7443   2.217   4.212   1.352
 2475SOL    HW2 7444   2.219   4.245   1.192
 2476SOL     OW 7445   3.286   3.938   1.112
 2476SOL    HW1 7446   3.338   3.873   1.167
 2476SOL    HW2 7447   3.237   4.001   1.173
 2477SOL     OW 7448   2.863   3.758   1.154
 2477SOL    HW1 7449   2.800   3.686   1.123
 2477SOL    HW2 7450   2.956   3.722   1.154
 2478SOL     OW 7451   3.214   3.776   0.168
 2478SOL    HW1 7452   3.249   3.735   0.084
 2478SOL    HW2 7453   3.124   3.738   0.188
 2479SOL     OW 7454   3.162   4.177   0.691
 2479SOL    HW1 7455   3.103   4.257   0.695
 2479SOL    HW2 7456   3.177   4.142   0.784
 2480SOL     OW 7457   3.455   3.945   0.882
 2480SOL    HW1 7458   3.371   3.944   0.936
 2480SOL    HW2 7459   3.457   4.028   0.826
 2481SOL     OW 7460   2.092   4.352   1.975
 2481SOL    HW1 7461   1.999   4.350   2.012
 2481SOL    HW2 7462   2.093   4.313   1.883
 2482SOL     OW 7463   2.087   3.999   2.858
 2482SOL    HW1 7464   2.122   3.982   2.950
 2482SOL    HW2 7465   1.999   3.954   2.846
 2483SOL     OW 7466   1.881   4.092   2.509
 2483SOL    HW1 7467   1.799   4.135   2.548
 2483SOL    HW2 7468   1.853   4.019   2.446
 2484SOL     OW 7469   2.997   4.427   2.579
 2484SOL    HW1 7470   3.054   4.505   2.554
 2484SOL    HW2 7471   2.937   4.453   2.655
 2485SOL     OW 7472   3.617   4.331   2.093
 2485SOL    HW1 7473   3.605   4.318   1.994
 2485SOL    HW2 7474   3.587   4.250   2.142
 2486SOL     OW 7475   2.712   4.522   3.685
 2486SOL    HW1 7476   2.708   4.598   3.750
 2486SOL    HW2 7477   2.734   4.558   3.594
 2487SOL     OW 7478   2.547   4.736   2.527
 2487SOL    HW1 7479   2.616   4.720   2.597
 2487SOL    HW2 7480   2.474   4.793   2.565
 2488SOL     OW 7481   2.300   4.116   3.361
 2488SOL    HW1 7482   2.382   4.060   3.370
 2488SOL    HW2 7483   2.219   4.058   3.365
 2489SOL     OW 7484   3.465   4.171   2.599
 2489SOL    HW1 7485   3.391   4.217   2.549
 2489SOL    HW2 7486   3.516   4.239   2.652
 2490SOL     OW 7487   3.456   3.838   3.342
 2490SOL    HW1 7488   3.438   3.905   3.270
 2490SOL    HW2 7489   3.453   3.884   3.431
 2491SOL     OW 7490   1.984   4.367   2.425
 2491SOL    HW1 7491   1.939   4.279   2.442
 2491SOL    HW2 7492   1.983   4.421   2.509
 2492SOL     OW 7493   1.975   4.461   3.459
 2492SOL    HW1 7494   2.063   4.448   3.504
 2492SOL    HW2 7495   1.962   4.558   3.437
 2493SOL     OW 7496   2.671   3.728   2.364
 2493SOL    HW1 7497   2.711   3.819   2.355
 2493SOL    HW2 7498   2.571   3.736   2.370
 2494SOL     OW 7499   2.179   3.975   3.663
 2494SOL    HW1 7500   2.250   4.046   3.669
 2494SOL    HW2 7501   2.091   4.014   3.691
 2495SOL     OW 7502   2.460   4.453   2.132
 2495SOL    HW1 7503   2.484   4.522   2.064
 2495SOL    HW2 7504   2.382   4.486   2.186
 2496SOL     OW 7505   3.143   4.069   2.806
 2496SOL    HW1 7506   3.057   4.019   2.793
 2496SOL    HW2 7507   3.205   4.015   2.862
 2497SOL     OW 7508   2.669   4.329   3.327
 2497SOL    HW1 7509   2.622   4.326   3.416
 2497SOL    HW2 7510   2.618   4.274   3.261
 2498SOL     OW 7511   3.256   4.193   3.536
 2498SOL    HW1 7512   3.236   4.236   3.624
 2498SOL    HW2 7513   3.334   4.131   3.545
 2499SOL     OW 7514   2.835   4.614   3.434
 2499SOL    HW1 7515   2.881   4.530   3.405
 2499SOL    HW2 7516   2.779   4.648   3.359
 2500SOL     OW 7517   2.853   4.134   3.104
 2500SOL    HW1 7518   2.776   4.168   3.158
 2500SOL    HW2 7519   2.819   4.083   3.025
 2501SOL     OW 7520   2.903   4.425   2.291
 2501SOL    HW1 7521   2.929   4.421   2.387
 2501SOL    HW2 7522   2.818   4.374   2.277
 2502SOL     OW 7523   1.938   4.535   2.651
 2502SOL    HW1 7524   2.037   4.523   2.660
 2502SOL    HW2 7525   1.914   4.630   2.672
 2503SOL     OW 7526   2.727   4.072   2.057
 2503SOL    HW1 7527   2.786   4.135   2.008
 2503SOL    HW2 7528   2.746   3.978   2.028
 2504SOL     OW 7529   3.581   4.309   3.693
 2504SOL    HW1 7530   3.555   4.398   3.657
 2504SOL    HW2 7531   3.579   4.241   3.620
 2505SOL     OW 7532   2.412   3.920   2.747
 2505SOL    HW1 7533   2.407   3.915   2.847
 2505SOL    HW2 7534   2.414   4.016   2.718
 2506SOL     OW 7535   3.320   4.459   2.590
 2506SOL    HW1 7536   3.315   4.394   2.665
 2506SOL    HW2 7537   3.400   4.518   2.603
 2507SOL     OW 7538   2.064   4.009   3.360
 2507SOL    HW1 7539   1.984   4.069   3.347
 2507SOL    HW2 7540   2.054   3.960   3.446
 2508SOL     OW 7541   3.262   3.831   2.288
 2508SOL    HW1 7542   3.238   3.794   2.198
 2508SOL    HW2 7543   3.361   3.847   2.292
 2509SOL     OW 7544   2.244   4.424   2.342
 2509SOL    HW1 7545   2.289   4.334   2.339
 2509SOL    HW2 7546   2.150   4.413   2.375
 2510SOL     OW 7547   3.409   3.946   3.591
 2510SOL    HW1 7548   3.404   3.983   3.683
 2510SOL    HW2 7549   3.337   3.877   3.579
 2511SOL     OW 7550   2.476   3.846   1.979
 2511SOL    HW1 7551   2.574   3.824   1.986
 2511SOL    HW2 7552   2.445   3.829   1.886
 2512SOL     OW 7553   2.643   3.988   3.611
 2512SOL    HW1 7554   2.710   3.927   3.654
 2512SOL    HW2 7555   2.570   4.007   3.676
 2513SOL     OW 7556   3.213   4.314   3.295
 2513SOL    HW1 7557   3.241   4.271   3.380
 2513SOL    HW2 7558   3.238   4.410   3.296
 2514SOL     OW 7559   2.784   4.227   2.761
 2514SOL    HW1 7560   2.759   4.218   2.665
 2514SOL    HW2 7561   2.832   4.145   2.792
 2515SOL     OW 7562   2.401   3.788   2.374
 2515SOL    HW1 7563   2.320   3.789   2.432
 2515SOL    HW2 7564   2.404   3.871   2.319
 2516SOL     OW 7565   2.159   3.759   2.033
 2516SOL    HW1 7566   2.208   3.843   2.012
 2516SOL    HW2 7567   2.221   3.694   2.078
 2517SOL     OW 7568   2.797   3.960   2.342
 2517SOL    HW1 7569   2.749   4.001   2.264
 2517SOL    HW2 7570   2.896   3.958   2.323
 2518SOL     OW 7571   2.938   4.407   3.326
 2518SOL    HW1 7572   2.858   4.346   3.329
 2518SOL    HW2 7573   3.019   4.354   3.302
 2519SOL     OW 7574   2.894   4.273   1.878
 2519SOL    HW1 7575   2.853   4.355   1.839
 2519SOL    HW2 7576   2.958   4.299   1.951
 2520SOL     OW 7577   1.940   4.280   3.248
 2520SOL    HW1 7578   2.032   4.279   3.207
 2520SOL    HW2 7579   1.934   4.354   3.315
 2521SOL     OW 7580   2.423   3.946   3.009
 2521SOL    HW1 7581   2.461   3.862   3.046
 2521SOL    HW2 7582   2.335   3.965   3.053
 2522SOL     OW 7583   2.728   4.178   2.504
 2522SOL    HW1 7584   2.696   4.250   2.442
 2522SOL    HW2 7585   2.752   4.097   2.451
 2523SOL     OW 7586   2.879   3.763   2.615
 2523SOL    HW1 7587   2.807   3.768   2.546
 2523SOL    HW2 7588   2.855   3.694   2.684
 2524SOL     OW 7589   3.328   4.314   2.854
 2524SOL    HW1 7590   3.298   4.219   2.861
 2524SOL    HW2 7591   3.401   4.330   2.920
 2525SOL     OW 7592   3.719   4.557   2.239
 2525SOL    HW1 7593   3.761   4.493   2.303
 2525SOL    HW2 7594   3.681   4.506   2.161
 2526SOL     OW 7595   3.252   4.299   1.940
 2526SOL    HW1 7596   3.198   4.278   2.021
 2526SOL    HW2 7597   3.343   4.258   1.949
 2527SOL     OW 7598   2.389   3.980   2.190
 2527SOL    HW1 7599   2.416   3.921   2.115
 2527SOL    HW2 7600   2.389   4.075   2.159
 2528SOL     OW 7601   2.777   3.813   3.264
 2528SOL    HW1 7602   2.802   3.793   3.169
 2528SOL    HW2 7603   2.849   3.869   3.306
 2529SOL     OW 7604   2.272   4.537   3.113
 2529SOL    HW1 7605   2.358   4.549   3.163
 2529SOL    HW2 7606   2.230   4.450   3.140
 2530SOL     OW 7607   3.136   4.110   3.124
 2530SOL    HW1 7608   3.157   4.184   3.188
 2530SOL    HW2 7609   3.047   4.127   3.081
 2531SOL     OW 7610   2.428   4.261   2.727
 2531SOL    HW1 7611   2.440   4.327   2.653
 2531SOL    HW2 7612   2.474   4.295   2.810
 2532SOL     OW 7613   3.444   4.363   2.334
 2532SOL    HW1 7614   3.413   4.424   2.407
 2532SOL    HW2 7615   3.494   4.415   2.265
 2533SOL     OW 7616   2.264   4.475   3.460
 2533SOL    HW1 7617   2.332   4.530   3.413
 2533SOL    HW2 7618   2.304   4.387   3.487
 2534SOL     OW 7619   3.449   4.503   3.532
 2534SOL    HW1 7620   3.357   4.541   3.527
 2534SOL    HW2 7621   3.509   4.550   3.467
 2535SOL     OW 7622   2.875   3.829   3.632
 2535SOL    HW1 7623   2.881   3.914   3.580
 2535SOL    HW2 7624   2.907   3.753   3.575
 2536SOL     OW 7625   2.366   3.774   3.602
 2536SOL    HW1 7626   2.324   3.717   3.532
 2536SOL    HW2 7627   2.300   3.843   3.634
 2537SOL     OW 7628   2.435   4.594   2.891
 2537SOL    HW1 7629   2.479   4.683   2.882
 2537SOL    HW2 7630   2.372   4.594   2.968
 2538SOL     OW 7631   3.222   4.586   2.907
 2538SOL    HW1 7632   3.147   4.586   2.841
 2538SOL    HW2 7633   3.259   4.494   2.916
 2539SOL     OW 7634   3.071   4.249   2.137
 2539SOL    HW1 7635   3.084   4.165   2.191
 2539SOL    HW2 7636   3.042   4.323   2.197
 2540SOL     OW 7637   2.169   3.937   3.093
 2540SOL    HW1 7638   2.146   3.974   3.183
 2540SOL    HW2 7639   2.139   3.842   3.087
 2541SOL     OW 7640   2.594   4.358   2.926
 2541SOL    HW1 7641   2.653   4.332   2.850
 2541SOL    HW2 7642   2.566   4.454   2.915
 2542SOL     OW 7643   3.590   4.659   3.716
 2542SOL    HW1 7644   3.544   4.652   3.627
 2542SOL    HW2 7645   3.528   4.703   3.782
 2543SOL     OW 7646   2.169   3.787   2.480
 2543SOL    HW1 7647   2.158   3.881   2.513
 2543SOL    HW2 7648   2.164   3.724   2.557
 2544SOL     OW 7649   3.484   4.091   2.236
 2544SOL    HW1 7650   3.486   4.015   2.300
 2544SOL    HW2 7651   3.436   4.168   2.276
 2545SOL     OW 7652   2.885   4.490   2.828
 2545SOL    HW1 7653   2.900   4.511   2.924
 2545SOL    HW2 7654   2.855   4.395   2.819
 2546SOL     OW 7655   2.212   4.622   3.666
 2546SOL    HW1 7656   2.288   4.666   3.714
 2546SOL    HW2 7657   2.247   4.575   3.584
 2547SOL     OW 7658   3.402   3.998   1.987
 2547SOL    HW1 7659   3.341   3.923   2.010
 2547SOL    HW2 7660   3.424   4.050   2.070
 2548SOL     OW 7661   3.165   4.562   1.904
 2548SOL    HW1 7662   3.199   4.469   1.919
 2548SOL    HW2 7663   3.183   4.589   1.809
 2549SOL     OW 7664   2.181   4.534   2.811
 2549SOL    HW1 7665   2.274   4.570   2.816
 2549SOL    HW2 7666   2.175   4.449   2.863
 2550SOL     OW 7667   2.201   4.233   2.868
 2550SOL    HW1 7668   2.149   4.150   2.851
 2550SOL    HW2 7669   2.278   4.238   2.804
 2551SOL     OW 7670   3.000   4.104   3.540
 2551SOL    HW1 7671   2.955   4.167   3.604
 2551SOL    HW2 7672   3.093   4.135   3.523
 2552SOL     OW 7673   3.022   3.931   3.339
 2552SOL    HW1 7674   3.022   3.995   3.416
 2552SOL    HW2 7675   3.050   3.979   3.256
 2553SOL     OW 7676   2.864   4.520   3.100
 2553SOL    HW1 7677   2.905   4.488   3.186
 2553SOL    HW2 7678   2.768   4.493   3.097
 2554SOL     OW 7679   1.902   4.268   2.976
 2554SOL    HW1 7680   1.987   4.235   2.935
 2554SOL    HW2 7681   1.915   4.283   3.074
 2555SOL     OW 7682   2.051   4.244   3.584
 2555SOL    HW1 7683   2.110   4.204   3.514
 2555SOL    HW2 7684   1.993   4.315   3.543
 2556SOL     OW 7685   2.677   4.296   2.187
 2556SOL    HW1 7686   2.684   4.207   2.141
 2556SOL    HW2 7687   2.583   4.330   2.179
 2557SOL     OW 7688   3.519   4.328   3.068
 2557SOL    HW1 7689   3.481   4.259   3.130
 2557SOL    HW2 7690   3.601   4.292   3.024
 2558SOL     OW 7691   2.533   4.188   3.131
 2558SOL    HW1 7692   2.499   4.099   3.101
 2558SOL    HW2 7693   2.559   4.242   3.051
 2559SOL     OW 7694   2.335   4.224   2.053
 2559SOL    HW1 7695   2.396   4.304   2.057
 2559SOL    HW2 7696   2.240   4.255   2.060
 2560SOL     OW 7697   3.209   4.783   3.096
 2560SOL    HW1 7698   3.233   4.720   3.022
 2560SOL    HW2 7699   3.119   4.823   3.078
 2561SOL     OW 7700   3.164   4.579   2.171
 2561SOL    HW1 7701   3.078   4.548   2.213
 2561SOL    HW2 7702   3.160   4.565   2.072
 2562SOL     OW 7703   3.588   3.859   2.385
 2562SOL    HW1 7704   3.661   3.842   2.318
 2562SOL    HW2 7705   3.557   3.772   2.423
 2563SOL     OW 7706   3.142   4.651   2.534
 2563SOL    HW1 7707   3.202   4.570   2.536
 2563SOL    HW2 7708   3.182   4.720   2.474
 2564SOL     OW 7709   3.703   3.899   2.825
 2564SOL    HW1 7710   3.742   3.814   2.789
 2564SOL    HW2 7711   3.605   3.901   2.806
 2565SOL     OW 7712   2.125   4.050   2.582
 2565SOL    HW1 7713   2.046   4.101   2.548
 2565SOL    HW2 7714   2.116   4.035   2.680
 2566SOL     OW 7715   2.778   4.634   2.153
 2566SOL    HW1 7716   2.841   4.672   2.085
 2566SOL    HW2 7717   2.818   4.551   2.192
 2567SOL     OW 7718   2.876   3.960   2.833
 2567SOL    HW1 7719   2.868   3.924   2.740
 2567SOL    HW2 7720   2.874   3.884   2.898
 2568SOL     OW 7721   3.571   4.109   3.243
 2568SOL    HW1 7722   3.644   4.178   3.247
 2568SOL    HW2 7723   3.599   4.034   3.184
 2569SOL     OW 7724   1.967   4.737   3.588
 2569SOL    HW1 7725   1.890   4.704   3.642
 2569SOL    HW2 7726   2.052   4.707   3.630
 2570SOL     OW 7727   2.534   3.927   3.351
 2570SOL    HW1 7728   2.624   3.911   3.311
 2570SOL    HW2 7729   2.542   3.932   3.450
 2571SOL     OW 7730   1.937   4.069   1.895
 2571SOL    HW1 7731   1.845   4.041   1.866
 2571SOL    HW2 7732   1.968   4.146   1.839
 2572SOL     OW 7733   3.302   4.580   3.260
 2572SOL    HW1 7734   3.245   4.632   3.197
 2572SOL    HW2 7735   3.398   4.592   3.236
 2573SOL     OW 7736   1.934   3.890   2.180
 2573SOL    HW1 7737   1.917   3.973   2.126
 2573SOL    HW2 7738   2.024   3.853   2.158
 2574SOL     OW 7739   2.475   4.566   3.293
 2574SOL    HW1 7740   2.531   4.647   3.276
 2574SOL    HW2 7741   2.534   4.486   3.296
 2575SOL     OW 7742   2.578   4.289   3.570
 2575SOL    HW1 7743   2.597   4.354   3.644
 2575SOL    HW2 7744   2.638   4.209   3.579
 2576SOL     OW 7745   3.536   4.607   3.116
 2576SOL    HW1 7746   3.509   4.518   3.079
 2576SOL    HW2 7747   3.537   4.675   3.043
 2577SOL     OW 7748   3.087   4.049   2.311
 2577SOL    HW1 7749   3.152   3.975   2.300
 2577SOL    HW2 7750   3.107   4.099   2.395
 2578SOL     OW 7751   2.456   4.469   2.514
 2578SOL    HW1 7752   2.506   4.554   2.495
 2578SOL    HW2 7753   2.368   4.471   2.466
 2579SOL     OW 7754   3.639   4.066   3.504
 2579SOL    HW1 7755   3.622   4.097   3.410
 2579SOL    HW2 7756   3.555   4.029   3.542
 2580SOL     OW 7757   3.592   4.658   3.379
 2580SOL    HW1 7758   3.630   4.749   3.394
 2580SOL    HW2 7759   3.584   4.641   3.280
 2581SOL     OW 7760   3.686   3.916   3.089
 2581SOL    HW1 7761   3.682   3.826   3.133
 2581SOL    HW2 7762   3.689   3.905   2.990
 2582SOL     OW 7763   2.290   4.148   2.382
 2582SOL    HW1 7764   2.320   4.076   2.320
 2582SOL    HW2 7765   2.251   4.108   2.465
 2583SOL     OW 7766   2.179   4.271   3.142
 2583SOL    HW1 7767   2.217   4.212   3.214
 2583SOL    HW2 7768   2.219   4.245   3.054
 2584SOL     OW 7769   3.286   3.938   2.974
 2584SOL    HW1 7770   3.338   3.873   3.029
 2584SOL    HW2 7771   3.237   4.001   3.035
 2585SOL     OW 7772   2.863   3.758   3.016
 2585SOL    HW1 7773   2.800   3.686   2.985
 2585SOL    HW2 7774   2.956   3.722   3.016
 2586SOL     OW 7775   3.214   3.776   2.030
 2586SOL    HW1 7776   3.249   3.735   1.946
 2586SOL    HW2 7777   3.124   3.738   2.050
 2587SOL     OW 7778   3.162   4.177   2.553
 2587SOL    HW1 7779   3.103   4.257   2.557
 2587SOL    HW2 7780   3.177   4.142   2.646
 2588SOL     OW 7781   3.455   3.945   2.744
 2588SOL    HW1 7782   3.371   3.944   2.798
 2588SOL    HW2 7783   3.457   4.028   2.688
 2589SOL     OW 7784   2.092   4.352   3.837
 2589SOL    HW1 7785   1.999   4.350   3.874
 2589SOL    HW2 7786   2.093   4.313   3.745
 2590SOL     OW 7787   2.087   3.999   4.720
 2590SOL    HW1 7788   2.122   3.982   4.812
 2590SOL    HW2 7789   1.999   3.954   4.708
 2591SOL     OW 7790   1.881   4.092   4.371
 2591SOL    HW1 7791   1.799   4.135   4.410
 2591SOL    HW2 7792   1.853   4.019   4.308
 2592SOL     OW 7793   2.997   4.427   4.441
 2592SOL    HW1 7794   3.054   4.505   4.416
 2592SOL    HW2 7795   2.937   4.453   4.517
 2593SOL     OW 7796   3.617   4.331   3.955
 2593SOL    HW1 7797   3.605   4.318   3.856
 2593SOL    HW2 7798   3.587   4.250   4.004
 2594SOL     OW 7799   2.547   4.736   4.389
 2594SOL    HW1 7800   2.616   4.720   4.459
 2594SOL    HW2 7801   2.474   4.793   4.427
 2595SOL     OW 7802   3.465   4.171   4.461
 2595SOL    HW1 7803   3.391   4.217   4.411
 2595SOL    HW2 7804   3.516   4.239   4.514
 2596SOL     OW 7805   1.984   4.367   4.287
 2596SOL    HW1 7806   1.939   4.279   4.304
 2596SOL    HW2 7807   1.983   4.421   4.371
 2597SOL     OW 7808   2.671   3.728   4.226
 2597SOL    HW1 7809   2.711   3.819   4.217
 2597SOL    HW2 7810   2.571   3.736   4.232
 2598SOL     OW 7811   2.460   4.453   3.994
 2598SOL    HW1 7812   2.484   4.522   3.926
 2598SOL    HW2 7813   2.382   4.486   4.048
 2599SOL     OW 7814   3.143   4.069   4.668
 2599SOL    HW1 7815   3.057   4.019   4.655
 2599SOL    HW2 7816   3.205   4.015   4.724
 2600SOL     OW 7817   2.903   4.425   4.153
 2600SOL    HW1 7818   2.929   4.421   4.249
 2600SOL    HW2 7819   2.818   4.374   4.139
 2601SOL     OW 7820   1.938   4.535   4.513
 2601SOL    HW1 7821   2.037   4.523   4.522
 2601SOL    HW2 7822   1.914   4.630   4.534
 2602SOL     OW 7823   2.727   4.072   3.919
 2602SOL    HW1 7824   2.786   4.135   3.870
 2602SOL    HW2 7825   2.746   3.978   3.890
 2603SOL     OW 7826   2.412   3.920   4.609
 2603SOL    HW1 7827   2.407   3.915   4.709
 2603SOL    HW2 7828   2.414   4.016   4.580
 2604SOL     OW 7829   3.320   4.459   4.452
 2604SOL    HW1 7830   3.315   4.394   4.527
 2604SOL    HW2 7831   3.400   4.518   4.465
 2605SOL     OW 7832   3.262   3.831   4.150
 2605SOL    HW1 7833   3.238   3.794   4.060
 2605SOL    HW2 7834   3.361   3.847   4.154
 2606SOL     OW 7835   2.244   4.424   4.204
 2606SOL    HW1 7836   2.289   4.334   4.201
 2606SOL    HW2 7837   2.150   4.413   4.237
 2607SOL     OW 7838   2.476   3.846   3.841
 2607SOL    HW1 7839   2.574   3.824   3.848
 2607SOL    HW2 7840   2.445   3.829   3.748
 2608SOL     OW 7841   2.401   3.788   4.236
 2608SOL    HW1 7842   2.320   3.789   4.294
 2608SOL    HW2 7843   2.404   3.871   4.181
 2609SOL     OW 7844   2.159   3.759   3.895
 2609SOL    HW1 7845   2.208   3.843   3.874
 2609SOL    HW2 7846   2.221   3.694   3.940
 2610SOL     OW 7847   2.797   3.960   4.204
 2610SOL    HW1 7848   2.749   4.001   4.126
 2610SOL    HW2 7849   2.896   3.958   4.185
 2611SOL     OW 7850   2.894   4.273   3.740
 2611SOL    HW1 7851   2.853   4.355   3.701
 2611SOL    HW2 7852   2.958   4.299   3.813
 2612SOL     OW 7853   2.728   4.178   4.366
 2612SOL    HW1 7854   2.696   4.250   4.304
 2612SOL    HW2 7855   2.752   4.097   4.313
 2613SOL     OW 7856   2.879   3.763   4.477
 2613SOL    HW1 7857   2.807   3.768   4.408
 2613SOL    HW2 7858   2.855   3.694   4.546
 2614SOL     OW 7859   3.719   4.557   4.101
 2614SOL    HW1 7860   3.761   4.493   4.165
 2614SOL    HW2 7861   3.681   4.506   4.023
 2615SOL     OW 7862   3.252   4.299   3.802
 2615SOL    HW1 7863   3.198   4.278   3.883
 2615SOL    HW2 7864   3.343   4.258   3.811
 2616SOL     OW 7865   2.389   3.980   4.052
 2616SOL    HW1 7866   2.416   3.921   3.977
 2616SOL    HW2 7867   2.389   4.075   4.021
 2617SOL     OW 7868   2.973   4.919   4.824
 2617SOL    HW1 7869   2.933   4.963   4.905
 2617SOL    HW2 7870   2.932   4.956   4.741
 2618SOL     OW 7871   2.428   4.261   4.589
 2618SOL    HW1 7872   2.440   4.327   4.515
 2618SOL    HW2 7873   2.474   4.295   4.672
 2619SOL     OW 7874   3.444   4.363   4.196
 2619SOL    HW1 7875   3.413   4.424   4.269
 2619SOL    HW2 7876   3.494   4.415   4.127
 2620SOL     OW 7877   3.071   4.249   3.999
 2620SOL    HW1 7878   3.084   4.165   4.053
 2620SOL    HW2 7879   3.042   4.323   4.059
 2621SOL     OW 7880   2.594   4.358   4.788
 2621SOL    HW1 7881   2.653   4.332   4.712
 2621SOL    HW2 7882   2.566   4.454   4.777
 2622SOL     OW 7883   2.169   3.787   4.342
 2622SOL    HW1 7884   2.158   3.881   4.375
 2622SOL    HW2 7885   2.164   3.724   4.419
 2623SOL     OW 7886   3.484   4.091   4.098
 2623SOL    HW1 7887   3.486   4.015   4.162
 2623SOL    HW2 7888   3.436   4.168   4.138
 2624SOL     OW 7889   3.402   3.998   3.849
 2624SOL    HW1 7890   3.341   3.923   3.872
 2624SOL    HW2 7891   3.424   4.050   3.932
 2625SOL     OW 7892   3.165   4.562   3.766
 2625SOL    HW1 7893   3.199   4.469   3.781
 2625SOL    HW2 7894   3.183   4.589   3.671
 2626SOL     OW 7895   2.677   4.296   4.049
 2626SOL    HW1 7896   2.684   4.207   4.003
 2626SOL    HW2 7897   2.583   4.330   4.041
 2627SOL     OW 7898   2.335   4.224   3.915
 2627SOL    HW1 7899   2.396   4.304   3.919
 2627SOL    HW2 7900   2.240   4.255   3.922
 2628SOL     OW 7901   3.164   4.579   4.033
 2628SOL    HW1 7902   3.078   4.548   4.075
 2628SOL    HW2 7903   3.160   4.565   3.934
 2629SOL     OW 7904   3.588   3.859   4.247
 2629SOL    HW1 7905   3.661   3.842   4.180
 2629SOL    HW2 7906   3.557   3.772   4.285
 2630SOL     OW 7907   3.142   4.651   4.396
 2630SOL    HW1 7908   3.202   4.570   4.398
 2630SOL    HW2 7909   3.182   4.720   4.336
 2631SOL     OW 7910   3.703   3.899   4.687
 2631SOL    HW1 7911   3.742   3.814   4.651
 2631SOL    HW2 7912   3.605   3.901   4.668
 2632SOL     OW 7913   2.125   4.050   4.444
 2632SOL    HW1 7914   2.046   4.101   4.410
 2632SOL    HW2 7915   2.116   4.035   4.542
 2633SOL     OW 7916   2.778   4.634   4.015
 2633SOL    HW1 7917   2.841   4.672   3.947
 2633SOL    HW2 7918   2.818   4.551   4.054
 2634SOL     OW 7919   1.937   4.069   3.757
 2634SOL    HW1 7920   1.845   4.041   3.728
 2634SOL    HW2 7921   1.968   4.146   3.701
 2635SOL     OW 7922   1.934   3.890   4.042
 2635SOL    HW1 7923   1.917   3.973   3.988
 2635SOL    HW2 7924   2.024   3.853   4.020
 2636SOL     OW 7925   3.536   4.607   4.978
 2636SOL    HW1 7926   3.509   4.518   4.941
 2636SOL    HW2 7927   3.537   4.675   4.905
 2637SOL     OW 7928   3.087   4.049   4.173
 2637SOL    HW1 7929   3.152   3.975   4.162
 2637SOL    HW2 7930   3.107   4.099   4.257
 2638SOL     OW 7931   2.456   4.469   4.376
 2638SOL    HW1 7932   2.506   4.554   4.357
 2638SOL    HW2 7933   2.368   4.471   4.328
 2639SOL     OW 7934   2.290   4.148   4.244
 2639SOL    HW1 7935   2.320   4.076   4.182
 2639SOL    HW2 7936   2.251   4.108   4.327
 2640SOL     OW 7937   3.214   3.776   3.892
 2640SOL    HW1 7938   3.249   3.735   3.808
 2640SOL    HW2 7939   3.124   3.738   3.912
 2641SOL     OW 7940   3.162   4.177   4.415
 2641SOL    HW1 7941   3.103   4.257   4.419
 2641SOL    HW2 7942   3.177   4.142   4.508
 2642SOL     OW 7943   3.455   3.945   4.606
 2642SOL    HW1 7944   3.371   3.944   4.660
 2642SOL    HW2 7945   3.457   4.028   4.550
 2643SOL     OW 7946   3.954   0.628   0.113
 2643SOL    HW1 7947   3.861   0.626   0.150
 2643SOL    HW2 7948   3.955   0.589   0.021
 2644SOL     OW 7949   3.949   0.275   0.996
 2644SOL    HW1 7950   3.984   0.258   1.088
 2644SOL    HW2 7951   3.861   0.230   0.984
 2645SOL     OW 7952   3.743   0.368   0.647
 2645SOL    HW1 7953   3.661   0.411   0.686
 2645SOL    HW2 7954   3.715   0.295   0.584
 2646SOL     OW 7955   4.293   1.275   1.165
 2646SOL    HW1 7956   4.200   1.268   1.128
 2646SOL    HW2 7957   4.304   1.364   1.209
 2647SOL     OW 7958   4.492   1.144   1.023
 2647SOL    HW1 7959   4.414   1.161   1.083
 2647SOL    HW2 7960   4.526   1.231   0.987
 2648SOL     OW 7961   4.574   0.798   1.823
 2648SOL    HW1 7962   4.570   0.874   1.888
 2648SOL    HW2 7963   4.596   0.834   1.732
 2649SOL     OW 7964   4.409   1.012   0.665
 2649SOL    HW1 7965   4.478   0.996   0.735
 2649SOL    HW2 7966   4.336   1.069   0.703
 2650SOL     OW 7967   4.410   1.161   1.803
 2650SOL    HW1 7968   4.470   1.240   1.817
 2650SOL    HW2 7969   4.324   1.192   1.762
 2651SOL     OW 7970   4.059   1.435   1.061
 2651SOL    HW1 7971   3.981   1.404   1.008
 2651SOL    HW2 7972   4.117   1.493   1.004
 2652SOL     OW 7973   4.162   0.392   1.499
 2652SOL    HW1 7974   4.244   0.336   1.508
 2652SOL    HW2 7975   4.081   0.334   1.503
 2653SOL     OW 7976   3.955   1.713   0.483
 2653SOL    HW1 7977   3.989   1.790   0.537
 2653SOL    HW2 7978   3.999   1.713   0.393
 2654SOL     OW 7979   3.954   1.434   0.538
 2654SOL    HW1 7980   3.928   1.530   0.538
 2654SOL    HW2 7981   3.883   1.380   0.583
 2655SOL     OW 7982   3.964   1.091   0.886
 2655SOL    HW1 7983   3.978   1.007   0.938
 2655SOL    HW2 7984   3.909   1.155   0.941
 2656SOL     OW 7985   4.344   1.786   1.439
 2656SOL    HW1 7986   4.252   1.769   1.474
 2656SOL    HW2 7987   4.372   1.878   1.465
 2657SOL     OW 7988   4.330   0.964   0.123
 2657SOL    HW1 7989   4.337   1.048   0.069
 2657SOL    HW2 7990   4.376   0.977   0.211
 2658SOL     OW 7991   3.846   0.643   0.563
 2658SOL    HW1 7992   3.801   0.555   0.580
 2658SOL    HW2 7993   3.845   0.697   0.647
 2659SOL     OW 7994   3.837   0.737   1.597
 2659SOL    HW1 7995   3.925   0.724   1.642
 2659SOL    HW2 7996   3.824   0.834   1.575
 2660SOL     OW 7997   4.337   1.365   0.726
 2660SOL    HW1 7998   4.288   1.278   0.735
 2660SOL    HW2 7999   4.314   1.408   0.639
 2661SOL     OW 8000   4.533   0.004   0.502
 2661SOL    HW1 8001   4.573   0.095   0.493
 2661SOL    HW2 8002   4.433   0.012   0.508
 2662SOL     OW 8003   3.921   0.976   1.264
 2662SOL    HW1 8004   4.010   0.931   1.250
 2662SOL    HW2 8005   3.848   0.911   1.245
 2663SOL     OW 8006   4.041   0.251   1.801
 2663SOL    HW1 8007   4.112   0.322   1.807
 2663SOL    HW2 8008   3.953   0.290   1.829
 2664SOL     OW 8009   4.322   0.729   0.270
 2664SOL    HW1 8010   4.346   0.798   0.202
 2664SOL    HW2 8011   4.244   0.762   0.324
 2665SOL     OW 8012   4.531   0.605   1.465
 2665SOL    HW1 8013   4.484   0.602   1.554
 2665SOL    HW2 8014   4.480   0.550   1.399
 2666SOL     OW 8015   3.800   0.811   0.789
 2666SOL    HW1 8016   3.899   0.799   0.798
 2666SOL    HW2 8017   3.776   0.906   0.810
 2667SOL     OW 8018   3.854   1.821   1.571
 2667SOL    HW1 8019   3.844   1.806   1.670
 2667SOL    HW2 8020   3.768   1.857   1.535
 2668SOL     OW 8021   4.589   0.348   0.195
 2668SOL    HW1 8022   4.648   0.411   0.146
 2668SOL    HW2 8023   4.608   0.254   0.166
 2669SOL     OW 8024   4.274   0.196   0.885
 2669SOL    HW1 8025   4.269   0.191   0.985
 2669SOL    HW2 8026   4.276   0.292   0.856
 2670SOL     OW 8027   4.732   1.456   0.477
 2670SOL    HW1 8028   4.686   1.528   0.425
 2670SOL    HW2 8029   4.728   1.476   0.575
 2671SOL     OW 8030   4.075   1.801   0.853
 2671SOL    HW1 8031   4.125   1.715   0.859
 2671SOL    HW2 8032   4.140   1.878   0.850
 2672SOL     OW 8033   4.045   0.943   0.242
 2672SOL    HW1 8034   4.127   0.982   0.200
 2672SOL    HW2 8035   4.018   0.861   0.193
 2673SOL     OW 8036   4.185   1.266   1.727
 2673SOL    HW1 8037   4.135   1.267   1.641
 2673SOL    HW2 8038   4.122   1.248   1.803
 2674SOL     OW 8039   4.835   1.776   0.237
 2674SOL    HW1 8040   4.775   1.714   0.287
 2674SOL    HW2 8041   4.866   1.732   0.152
 2675SOL     OW 8042   3.926   0.285   1.498
 2675SOL    HW1 8043   3.846   0.345   1.485
 2675SOL    HW2 8044   3.916   0.236   1.584
 2676SOL     OW 8045   4.188   1.743   0.323
 2676SOL    HW1 8046   4.221   1.782   0.409
 2676SOL    HW2 8047   4.264   1.736   0.258
 2677SOL     OW 8048   3.973   1.785   1.241
 2677SOL    HW1 8049   4.030   1.720   1.291
 2677SOL    HW2 8050   3.957   1.752   1.148
 2678SOL     OW 8051   4.106   0.700   0.480
 2678SOL    HW1 8052   4.151   0.610   0.477
 2678SOL    HW2 8053   4.012   0.689   0.513
 2679SOL     OW 8054   4.338   0.122   0.117
 2679SOL    HW1 8055   4.436   0.100   0.124
 2679SOL    HW2 8056   4.307   0.105   0.024
 2680SOL     OW 8057   4.505   0.264   1.749
 2680SOL    HW1 8058   4.572   0.203   1.792
 2680SOL    HW2 8059   4.432   0.283   1.814
 2681SOL     OW 8060   4.527   1.402   0.924
 2681SOL    HW1 8061   4.617   1.416   0.882
 2681SOL    HW2 8062   4.456   1.404   0.853
 2682SOL     OW 8063   4.646   0.503   0.899
 2682SOL    HW1 8064   4.621   0.494   0.803
 2682SOL    HW2 8065   4.694   0.421   0.930
 2683SOL     OW 8066   4.263   0.064   0.512
 2683SOL    HW1 8067   4.182   0.065   0.570
 2683SOL    HW2 8068   4.266   0.147   0.457
 2684SOL     OW 8069   4.021   0.035   0.171
 2684SOL    HW1 8070   4.070   0.119   0.150
 2684SOL    HW2 8071   4.083  -0.030   0.216
 2685SOL     OW 8072   4.183   1.152   0.741
 2685SOL    HW1 8073   4.112   1.125   0.806
 2685SOL    HW2 8074   4.157   1.124   0.648
 2686SOL     OW 8075   3.802   0.556   1.386
 2686SOL    HW1 8076   3.894   0.555   1.345
 2686SOL    HW2 8077   3.796   0.630   1.453
 2687SOL     OW 8078   4.285   0.222   1.147
 2687SOL    HW1 8079   4.323   0.138   1.184
 2687SOL    HW2 8080   4.197   0.241   1.191
 2688SOL     OW 8081   4.212   1.385   0.174
 2688SOL    HW1 8082   4.125   1.370   0.221
 2688SOL    HW2 8083   4.195   1.411   0.079
 2689SOL     OW 8084   4.251   0.256   0.328
 2689SOL    HW1 8085   4.278   0.197   0.253
 2689SOL    HW2 8086   4.251   0.351   0.297
 2690SOL     OW 8087   4.639   0.089   1.402
 2690SOL    HW1 8088   4.664   0.069   1.307
 2690SOL    HW2 8089   4.711   0.145   1.444
 2691SOL     OW 8090   4.429   1.050   0.368
 2691SOL    HW1 8091   4.415   1.057   0.467
 2691SOL    HW2 8092   4.513   0.999   0.350
 2692SOL     OW 8093   4.134   0.813   1.251
 2692SOL    HW1 8094   4.220   0.825   1.301
 2692SOL    HW2 8095   4.092   0.726   1.278
 2693SOL     OW 8096   3.788   1.564   1.331
 2693SOL    HW1 8097   3.742   1.646   1.297
 2693SOL    HW2 8098   3.886   1.583   1.340
 2694SOL     OW 8099   4.091   1.100   0.501
 2694SOL    HW1 8100   4.084   1.183   0.445
 2694SOL    HW2 8101   4.095   1.020   0.441
 2695SOL     OW 8102   4.290   0.537   0.865
 2695SOL    HW1 8103   4.302   0.603   0.791
 2695SOL    HW2 8104   4.336   0.571   0.948
 2696SOL     OW 8105   4.078   1.510   1.329
 2696SOL    HW1 8106   4.057   1.466   1.242
 2696SOL    HW2 8107   4.175   1.536   1.332
 2697SOL     OW 8108   4.126   0.751   1.598
 2697SOL    HW1 8109   4.194   0.806   1.551
 2697SOL    HW2 8110   4.166   0.663   1.625
 2698SOL     OW 8111   4.228   0.050   1.740
 2698SOL    HW1 8112   4.186  -0.007   1.670
 2698SOL    HW2 8113   4.162   0.119   1.772
 2699SOL     OW 8114   4.297   0.870   1.029
 2699SOL    HW1 8115   4.341   0.959   1.020
 2699SOL    HW2 8116   4.234   0.870   1.106
 2700SOL     OW 8117   4.933   0.525   0.275
 2700SOL    HW1 8118   4.946   0.441   0.329
 2700SOL    HW2 8119   4.904   0.599   0.335
 2701SOL     OW 8120   4.031   0.213   1.231
 2701SOL    HW1 8121   4.008   0.250   1.321
 2701SOL    HW2 8122   4.001   0.118   1.225
 2702SOL     OW 8123   3.761   1.310   1.282
 2702SOL    HW1 8124   3.814   1.261   1.350
 2702SOL    HW2 8125   3.783   1.408   1.287
 2703SOL     OW 8126   4.456   0.634   1.064
 2703SOL    HW1 8127   4.515   0.608   0.988
 2703SOL    HW2 8128   4.428   0.730   1.053
 2704SOL     OW 8129   4.031   0.063   0.618
 2704SOL    HW1 8130   4.020   0.157   0.651
 2704SOL    HW2 8131   4.026   0.000   0.695
 2705SOL     OW 8132   4.747   0.766   0.966
 2705SOL    HW1 8133   4.762   0.787   1.062
 2705SOL    HW2 8134   4.717   0.671   0.957
 2706SOL     OW 8135   4.704   1.573   1.700
 2706SOL    HW1 8136   4.684   1.617   1.612
 2706SOL    HW2 8137   4.743   1.482   1.684
 2707SOL     OW 8138   4.074   0.898   1.804
 2707SOL    HW1 8139   4.150   0.942   1.852
 2707SOL    HW2 8140   4.109   0.851   1.722
 2708SOL     OW 8141   4.043   0.810   0.949
 2708SOL    HW1 8142   4.136   0.846   0.954
 2708SOL    HW2 8143   4.037   0.725   1.001
 2709SOL     OW 8144   4.063   0.509   1.006
 2709SOL    HW1 8145   4.011   0.426   0.989
 2709SOL    HW2 8146   4.140   0.514   0.942
 2710SOL     OW 8147   3.732   1.326   0.200
 2710SOL    HW1 8148   3.639   1.347   0.169
 2710SOL    HW2 8149   3.742   1.227   0.213
 2711SOL     OW 8150   3.812   1.801   0.927
 2711SOL    HW1 8151   3.770   1.715   0.900
 2711SOL    HW2 8152   3.906   1.804   0.893
 2712SOL     OW 8153   4.228   1.568   0.910
 2712SOL    HW1 8154   4.294   1.642   0.919
 2712SOL    HW2 8155   4.272   1.489   0.868
 2713SOL     OW 8156   3.764   0.544   1.114
 2713SOL    HW1 8157   3.849   0.511   1.073
 2713SOL    HW2 8158   3.777   0.559   1.212
 2714SOL     OW 8159   3.913   0.520   1.722
 2714SOL    HW1 8160   3.972   0.480   1.652
 2714SOL    HW2 8161   3.855   0.591   1.681
 2715SOL     OW 8162   4.539   0.572   0.325
 2715SOL    HW1 8163   4.546   0.483   0.279
 2715SOL    HW2 8164   4.445   0.606   0.317
 2716SOL     OW 8165   3.976   1.564   1.744
 2716SOL    HW1 8166   3.946   1.621   1.820
 2716SOL    HW2 8167   3.969   1.467   1.770
 2717SOL     OW 8168   4.395   0.464   1.269
 2717SOL    HW1 8169   4.361   0.375   1.239
 2717SOL    HW2 8170   4.421   0.518   1.189
 2718SOL     OW 8171   4.197   0.500   0.191
 2718SOL    HW1 8172   4.258   0.580   0.195
 2718SOL    HW2 8173   4.102   0.531   0.198
 2719SOL     OW 8174   3.883   1.137   1.466
 2719SOL    HW1 8175   3.905   1.076   1.542
 2719SOL    HW2 8176   3.893   1.088   1.380
 2720SOL     OW 8177   3.807   1.258   1.022
 2720SOL    HW1 8178   3.802   1.257   1.122
 2720SOL    HW2 8179   3.724   1.217   0.984
 2721SOL     OW 8180   4.412   1.662   1.716
 2721SOL    HW1 8181   4.356   1.743   1.725
 2721SOL    HW2 8182   4.464   1.666   1.630
 2722SOL     OW 8183   4.627   0.086   0.133
 2722SOL    HW1 8184   4.678   0.087   0.047
 2722SOL    HW2 8185   4.683   0.044   0.204
 2723SOL     OW 8186   3.854   1.794   1.851
 2723SOL    HW1 8187   3.813   1.720   1.904
 2723SOL    HW2 8188   3.918   1.845   1.909
 2724SOL     OW 8189   4.554   1.273   1.422
 2724SOL    HW1 8190   4.549   1.306   1.517
 2724SOL    HW2 8191   4.468   1.292   1.376
 2725SOL     OW 8192   4.396   1.616   0.154
 2725SOL    HW1 8193   4.405   1.626   0.055
 2725SOL    HW2 8194   4.356   1.527   0.175
 2726SOL     OW 8195   3.987   0.326   0.720
 2726SOL    HW1 8196   3.908   0.377   0.686
 2726SOL    HW2 8197   3.978   0.311   0.818
 2727SOL     OW 8198   4.918   1.612   0.031
 2727SOL    HW1 8199   4.924   1.519   0.068
 2727SOL    HW2 8200   4.859   1.612  -0.049
 2728SOL     OW 8201   4.546   1.002   1.372
 2728SOL    HW1 8202   4.586   1.001   1.280
 2728SOL    HW2 8203   4.556   1.094   1.412
 2729SOL     OW 8204   4.096   1.288   1.490
 2729SOL    HW1 8205   4.083   1.381   1.456
 2729SOL    HW2 8206   4.012   1.236   1.477
 2730SOL     OW 8207   4.314   1.487   0.491
 2730SOL    HW1 8208   4.356   1.429   0.421
 2730SOL    HW2 8209   4.270   1.566   0.447
 2731SOL     OW 8210   3.979   1.348   0.290
 2731SOL    HW1 8211   3.883   1.349   0.263
 2731SOL    HW2 8212   3.991   1.401   0.374
 2732SOL     OW 8213   3.829   1.013   1.726
 2732SOL    HW1 8214   3.752   0.980   1.780
 2732SOL    HW2 8215   3.914   0.983   1.768
 2733SOL     OW 8216   4.396   0.203   1.489
 2733SOL    HW1 8217   4.486   0.187   1.449
 2733SOL    HW2 8218   4.404   0.208   1.588
 2734SOL     OW 8219   4.337   0.842   1.431
 2734SOL    HW1 8220   4.393   0.923   1.414
 2734SOL    HW2 8221   4.396   0.762   1.434
 2735SOL     OW 8222   4.440   0.565   1.708
 2735SOL    HW1 8223   4.459   0.630   1.782
 2735SOL    HW2 8224   4.500   0.485   1.717
 2736SOL     OW 8225   4.114   1.741   1.560
 2736SOL    HW1 8226   4.023   1.782   1.558
 2736SOL    HW2 8227   4.107   1.647   1.592
 2737SOL     OW 8228   4.318   0.745   0.652
 2737SOL    HW1 8229   4.368   0.830   0.633
 2737SOL    HW2 8230   4.230   0.747   0.604
 2738SOL     OW 8231   4.385   1.790   0.953
 2738SOL    HW1 8232   4.339   1.878   0.940
 2738SOL    HW2 8233   4.484   1.802   0.946
 2739SOL     OW 8234   4.583   0.956   0.861
 2739SOL    HW1 8235   4.637   0.887   0.909
 2739SOL    HW2 8236   4.551   1.025   0.927
 2740SOL     OW 8237   3.945   1.314   1.844
 2740SOL    HW1 8238   3.880   1.241   1.823
 2740SOL    HW2 8239   3.949   1.328   1.942
 2741SOL     OW 8240   3.803   1.240   0.653
 2741SOL    HW1 8241   3.802   1.193   0.741
 2741SOL    HW2 8242   3.885   1.212   0.602
 2742SOL     OW 8243   4.396   1.391   1.624
 2742SOL    HW1 8244   4.318   1.341   1.662
 2742SOL    HW2 8245   4.393   1.486   1.655
 2743SOL     OW 8246   4.152   0.424   0.520
 2743SOL    HW1 8247   4.182   0.352   0.458
 2743SOL    HW2 8248   4.113   0.384   0.603
 2744SOL     OW 8249   4.041   0.547   1.280
 2744SOL    HW1 8250   4.079   0.488   1.352
 2744SOL    HW2 8251   4.081   0.521   1.192
 2745SOL     OW 8252   4.536   1.586   0.687
 2745SOL    HW1 8253   4.568   1.596   0.593
 2745SOL    HW2 8254   4.457   1.524   0.689
 2746SOL     OW 8255   4.725   0.034   1.154
 2746SOL    HW1 8256   4.662  -0.038   1.123
 2746SOL    HW2 8257   4.818  -0.002   1.154
 2747SOL     OW 8258   4.494   1.330   0.301
 2747SOL    HW1 8259   4.448   1.243   0.318
 2747SOL    HW2 8260   4.585   1.327   0.342
 2748SOL     OW 8261   4.342   1.567   1.284
 2748SOL    HW1 8262   4.337   1.649   1.341
 2748SOL    HW2 8263   4.431   1.564   1.239
 2749SOL     OW 8264   3.763   1.077   0.300
 2749SOL    HW1 8265   3.862   1.066   0.291
 2749SOL    HW2 8266   3.723   0.991   0.332
 2750SOL     OW 8267   4.599   1.646   0.337
 2750SOL    HW1 8268   4.522   1.611   0.283
 2750SOL    HW2 8269   4.567   1.717   0.399
 2751SOL     OW 8270   3.954   0.628   1.975
 2751SOL    HW1 8271   3.861   0.626   2.012
 2751SOL    HW2 8272   3.955   0.589   1.883
 2752SOL     OW 8273   3.949   0.275   2.858
 2752SOL    HW1 8274   3.984   0.258   2.950
 2752SOL    HW2 8275   3.861   0.230   2.846
 2753SOL     OW 8276   3.743   0.368   2.509
 2753SOL    HW1 8277   3.661   0.411   2.548
 2753SOL    HW2 8278   3.715   0.295   2.446
 2754SOL     OW 8279   4.293   1.275   3.027
 2754SOL    HW1 8280   4.200   1.268   2.990
 2754SOL    HW2 8281   4.304   1.364   3.071
 2755SOL     OW 8282   4.492   1.144   2.885
 2755SOL    HW1 8283   4.414   1.161   2.945
 2755SOL    HW2 8284   4.526   1.231   2.849
 2756SOL     OW 8285   4.574   0.798   3.685
 2756SOL    HW1 8286   4.570   0.874   3.750
 2756SOL    HW2 8287   4.596   0.834   3.594
 2757SOL     OW 8288   4.409   1.012   2.527
 2757SOL    HW1 8289   4.478   0.996   2.597
 2757SOL    HW2 8290   4.336   1.069   2.565
 2758SOL     OW 8291   4.410   1.161   3.665
 2758SOL    HW1 8292   4.470   1.240   3.679
 2758SOL    HW2 8293   4.324   1.192   3.624
 2759SOL     OW 8294   4.059   1.435   2.923
 2759SOL    HW1 8295   3.981   1.404   2.870
 2759SOL    HW2 8296   4.117   1.493   2.866
 2760SOL     OW 8297   4.162   0.392   3.361
 2760SOL    HW1 8298   4.244   0.336   3.370
 2760SOL    HW2 8299   4.081   0.334   3.365
 2761SOL     OW 8300   3.955   1.713   2.345
 2761SOL    HW1 8301   3.989   1.790   2.399
 2761SOL    HW2 8302   3.999   1.713   2.255
 2762SOL     OW 8303   3.954   1.434   2.400
 2762SOL    HW1 8304   3.928   1.530   2.400
 2762SOL    HW2 8305   3.883   1.380   2.445
 2763SOL     OW 8306   3.964   1.091   2.748
 2763SOL    HW1 8307   3.978   1.007   2.800
 2763SOL    HW2 8308   3.909   1.155   2.803
 2764SOL     OW 8309   4.344   1.786   3.301
 2764SOL    HW1 8310   4.252   1.769   3.336
 2764SOL    HW2 8311   4.372   1.878   3.327
 2765SOL     OW 8312   4.330   0.964   1.985
 2765SOL    HW1 8313   4.337   1.048   1.931
 2765SOL    HW2 8314   4.376   0.977   2.073
 2766SOL     OW 8315   3.846   0.643   2.425
 2766SOL    HW1 8316   3.801   0.555   2.442
 2766SOL    HW2 8317   3.845   0.697   2.509
 2767SOL     OW 8318   3.751   1.596   1.979
 2767SOL    HW1 8319   3.732   1.500   2.000
 2767SOL    HW2 8320   3.718   1.654   2.054
 2768SOL     OW 8321   3.837   0.737   3.459
 2768SOL    HW1 8322   3.925   0.724   3.504
 2768SOL    HW2 8323   3.824   0.834   3.437
 2769SOL     OW 8324   4.337   1.365   2.588
 2769SOL    HW1 8325   4.288   1.278   2.597
 2769SOL    HW2 8326   4.314   1.408   2.501
 2770SOL     OW 8327   4.533   0.004   2.364
 2770SOL    HW1 8328   4.573   0.095   2.355
 2770SOL    HW2 8329   4.433   0.012   2.370
 2771SOL     OW 8330   3.921   0.976   3.126
 2771SOL    HW1 8331   4.010   0.931   3.112
 2771SOL    HW2 8332   3.848   0.911   3.107
 2772SOL     OW 8333   4.041   0.251   3.663
 2772SOL    HW1 8334   4.112   0.322   3.669
 2772SOL    HW2 8335   3.953   0.290   3.691
 2773SOL     OW 8336   4.322   0.729   2.132
 2773SOL    HW1 8337   4.346   0.798   2.064
 2773SOL    HW2 8338   4.244   0.762   2.186
 2774SOL     OW 8339   4.531   0.605   3.327
 2774SOL    HW1 8340   4.484   0.602   3.416
 2774SOL    HW2 8341   4.480   0.550   3.261
 2775SOL     OW 8342   3.800   0.811   2.651
 2775SOL    HW1 8343   3.899   0.799   2.660
 2775SOL    HW2 8344   3.776   0.906   2.672
 2776SOL     OW 8345   3.854   1.821   3.433
 2776SOL    HW1 8346   3.844   1.806   3.532
 2776SOL    HW2 8347   3.768   1.857   3.397
 2777SOL     OW 8348   4.589   0.348   2.057
 2777SOL    HW1 8349   4.648   0.411   2.008
 2777SOL    HW2 8350   4.608   0.254   2.028
 2778SOL     OW 8351   4.274   0.196   2.747
 2778SOL    HW1 8352   4.269   0.191   2.847
 2778SOL    HW2 8353   4.276   0.292   2.718
 2779SOL     OW 8354   4.732   1.456   2.339
 2779SOL    HW1 8355   4.686   1.528   2.287
 2779SOL    HW2 8356   4.728   1.476   2.437
 2780SOL     OW 8357   4.075   1.801   2.715
 2780SOL    HW1 8358   4.125   1.715   2.721
 2780SOL    HW2 8359   4.140   1.878   2.712
 2781SOL     OW 8360   4.045   0.943   2.104
 2781SOL    HW1 8361   4.127   0.982   2.062
 2781SOL    HW2 8362   4.018   0.861   2.055
 2782SOL     OW 8363   4.185   1.266   3.589
 2782SOL    HW1 8364   4.135   1.267   3.503
 2782SOL    HW2 8365   4.122   1.248   3.665
 2783SOL     OW 8366   4.835   1.776   2.099
 2783SOL    HW1 8367   4.775   1.714   2.149
 2783SOL    HW2 8368   4.866   1.732   2.014
 2784SOL     OW 8369   3.926   0.285   3.360
 2784SOL    HW1 8370   3.846   0.345   3.347
 2784SOL    HW2 8371   3.916   0.236   3.446
 2785SOL     OW 8372   4.188   1.743   2.185
 2785SOL    HW1 8373   4.221   1.782   2.271
 2785SOL    HW2 8374   4.264   1.736   2.120
 2786SOL     OW 8375   3.973   1.785   3.103
 2786SOL    HW1 8376   4.030   1.720   3.153
 2786SOL    HW2 8377   3.957   1.752   3.010
 2787SOL     OW 8378   4.106   0.700   2.342
 2787SOL    HW1 8379   4.151   0.610   2.339
 2787SOL    HW2 8380   4.012   0.689   2.375
 2788SOL     OW 8381   4.338   0.122   1.979
 2788SOL    HW1 8382   4.436   0.100   1.986
 2788SOL    HW2 8383   4.307   0.105   1.886
 2789SOL     OW 8384   4.505   0.264   3.611
 2789SOL    HW1 8385   4.572   0.203   3.654
 2789SOL    HW2 8386   4.432   0.283   3.676
 2790SOL     OW 8387   4.527   1.402   2.786
 2790SOL    HW1 8388   4.617   1.416   2.744
 2790SOL    HW2 8389   4.456   1.404   2.715
 2791SOL     OW 8390   4.646   0.503   2.761
 2791SOL    HW1 8391   4.621   0.494   2.665
 2791SOL    HW2 8392   4.694   0.421   2.792
 2792SOL     OW 8393   4.263   0.064   2.374
 2792SOL    HW1 8394   4.182   0.065   2.432
 2792SOL    HW2 8395   4.266   0.147   2.319
 2793SOL     OW 8396   4.021   0.035   2.033
 2793SOL    HW1 8397   4.070   0.119   2.012
 2793SOL    HW2 8398   4.083  -0.030   2.078
 2794SOL     OW 8399   4.183   1.152   2.603
 2794SOL    HW1 8400   4.112   1.125   2.668
 2794SOL    HW2 8401   4.157   1.124   2.510
 2795SOL     OW 8402   3.802   0.556   3.248
 2795SOL    HW1 8403   3.894   0.555   3.207
 2795SOL    HW2 8404   3.796   0.630   3.315
 2796SOL     OW 8405   4.285   0.222   3.009
 2796SOL    HW1 8406   4.323   0.138   3.046
 2796SOL    HW2 8407   4.197   0.241   3.053
 2797SOL     OW 8408   4.212   1.385   2.036
 2797SOL    HW1 8409   4.125   1.370   2.083
 2797SOL    HW2 8410   4.195   1.411   1.941
 2798SOL     OW 8411   4.251   0.256   2.190
 2798SOL    HW1 8412   4.278   0.197   2.115
 2798SOL    HW2 8413   4.251   0.351   2.159
 2799SOL     OW 8414   4.639   0.089   3.264
 2799SOL    HW1 8415   4.664   0.069   3.169
 2799SOL    HW2 8416   4.711   0.145   3.306
 2800SOL     OW 8417   4.429   1.050   2.230
 2800SOL    HW1 8418   4.415   1.057   2.329
 2800SOL    HW2 8419   4.513   0.999   2.212
 2801SOL     OW 8420   4.134   0.813   3.113
 2801SOL    HW1 8421   4.220   0.825   3.163
 2801SOL    HW2 8422   4.092   0.726   3.140
 2802SOL     OW 8423   3.788   1.564   3.193
 2802SOL    HW1 8424   3.742   1.646   3.159
 2802SOL    HW2 8425   3.886   1.583   3.202
 2803SOL     OW 8426   4.091   1.100   2.363
 2803SOL    HW1 8427   4.084   1.183   2.307
 2803SOL    HW2 8428   4.095   1.020   2.303
 2804SOL     OW 8429   4.290   0.537   2.727
 2804SOL    HW1 8430   4.302   0.603   2.653
 2804SOL    HW2 8431   4.336   0.571   2.810
 2805SOL     OW 8432   4.078   1.510   3.191
 2805SOL    HW1 8433   4.057   1.466   3.104
 2805SOL    HW2 8434   4.175   1.536   3.194
 2806SOL     OW 8435   4.126   0.751   3.460
 2806SOL    HW1 8436   4.194   0.806   3.413
 2806SOL    HW2 8437   4.166   0.663   3.487
 2807SOL     OW 8438   4.228   0.050   3.602
 2807SOL    HW1 8439   4.186  -0.007   3.532
 2807SOL    HW2 8440   4.162   0.119   3.634
 2808SOL     OW 8441   4.297   0.870   2.891
 2808SOL    HW1 8442   4.341   0.959   2.882
 2808SOL    HW2 8443   4.234   0.870   2.968
 2809SOL     OW 8444   4.933   0.525   2.137
 2809SOL    HW1 8445   4.946   0.441   2.191
 2809SOL    HW2 8446   4.904   0.599   2.197
 2810SOL     OW 8447   4.031   0.213   3.093
 2810SOL    HW1 8448   4.008   0.250   3.183
 2810SOL    HW2 8449   4.001   0.118   3.087
 2811SOL     OW 8450   3.761   1.310   3.144
 2811SOL    HW1 8451   3.814   1.261   3.212
 2811SOL    HW2 8452   3.783   1.408   3.149
 2812SOL     OW 8453   4.456   0.634   2.926
 2812SOL    HW1 8454   4.515   0.608   2.850
 2812SOL    HW2 8455   4.428   0.730   2.915
 2813SOL     OW 8456   4.031   0.063   2.480
 2813SOL    HW1 8457   4.020   0.157   2.513
 2813SOL    HW2 8458   4.026   0.000   2.557
 2814SOL     OW 8459   4.747   0.766   2.828
 2814SOL    HW1 8460   4.762   0.787   2.924
 2814SOL    HW2 8461   4.717   0.671   2.819
 2815SOL     OW 8462   4.704   1.573   3.562
 2815SOL    HW1 8463   4.684   1.617   3.474
 2815SOL    HW2 8464   4.743   1.482   3.546
 2816SOL     OW 8465   4.074   0.898   3.666
 2816SOL    HW1 8466   4.150   0.942   3.714
 2816SOL    HW2 8467   4.109   0.851   3.584
 2817SOL     OW 8468   4.043   0.810   2.811
 2817SOL    HW1 8469   4.136   0.846   2.816
 2817SOL    HW2 8470   4.037   0.725   2.863
 2818SOL     OW 8471   4.063   0.509   2.868
 2818SOL    HW1 8472   4.011   0.426   2.851
 2818SOL    HW2 8473   4.140   0.514   2.804
 2819SOL     OW 8474   3.732   1.326   2.062
 2819SOL    HW1 8475   3.639   1.347   2.031
 2819SOL    HW2 8476   3.742   1.227   2.075
 2820SOL     OW 8477   3.812   1.801   2.789
 2820SOL    HW1 8478   3.770   1.715   2.762
 2820SOL    HW2 8479   3.906   1.804   2.755
 2821SOL     OW 8480   4.228   1.568   2.772
 2821SOL    HW1 8481   4.294   1.642   2.781
 2821SOL    HW2 8482   4.272   1.489   2.730
 2822SOL     OW 8483   3.764   0.544   2.976
 2822SOL    HW1 8484   3.849   0.511   2.935
 2822SOL    HW2 8485   3.777   0.559   3.074
 2823SOL     OW 8486   3.913   0.520   3.584
 2823SOL    HW1 8487   3.972   0.480   3.514
 2823SOL    HW2 8488   3.855   0.591   3.543
 2824SOL     OW 8489   4.539   0.572   2.187
 2824SOL    HW1 8490   4.546   0.483   2.141
 2824SOL    HW2 8491   4.445   0.606   2.179
 2825SOL     OW 8492   3.976   1.564   3.606
 2825SOL    HW1 8493   3.946   1.621   3.682
 2825SOL    HW2 8494   3.969   1.467   3.632
 2826SOL     OW 8495   4.395   0.464   3.131
 2826SOL    HW1 8496   4.361   0.375   3.101
 2826SOL    HW2 8497   4.421   0.518   3.051
 2827SOL     OW 8498   4.197   0.500   2.053
 2827SOL    HW1 8499   4.258   0.580   2.057
 2827SOL    HW2 8500   4.102   0.531   2.060
 2828SOL     OW 8501   3.883   1.137   3.328
 2828SOL    HW1 8502   3.905   1.076   3.404
 2828SOL    HW2 8503   3.893   1.088   3.242
 2829SOL     OW 8504   3.807   1.258   2.884
 2829SOL    HW1 8505   3.802   1.257   2.984
 2829SOL    HW2 8506   3.724   1.217   2.846
 2830SOL     OW 8507   4.412   1.662   3.578
 2830SOL    HW1 8508   4.356   1.743   3.587
 2830SOL    HW2 8509   4.464   1.666   3.492
 2831SOL     OW 8510   4.627   0.086   1.995
 2831SOL    HW1 8511   4.678   0.087   1.909
 2831SOL    HW2 8512   4.683   0.044   2.066
 2832SOL     OW 8513   3.854   1.794   3.713
 2832SOL    HW1 8514   3.813   1.720   3.766
 2832SOL    HW2 8515   3.918   1.845   3.771
 2833SOL     OW 8516   4.554   1.273   3.284
 2833SOL    HW1 8517   4.549   1.306   3.379
 2833SOL    HW2 8518   4.468   1.292   3.238
 2834SOL     OW 8519   4.396   1.616   2.016
 2834SOL    HW1 8520   4.405   1.626   1.917
 2834SOL    HW2 8521   4.356   1.527   2.037
 2835SOL     OW 8522   3.987   0.326   2.582
 2835SOL    HW1 8523   3.908   0.377   2.548
 2835SOL    HW2 8524   3.978   0.311   2.680
 2836SOL     OW 8525   4.546   1.002   3.234
 2836SOL    HW1 8526   4.586   1.001   3.142
 2836SOL    HW2 8527   4.556   1.094   3.274
 2837SOL     OW 8528   4.096   1.288   3.352
 2837SOL    HW1 8529   4.083   1.381   3.318
 2837SOL    HW2 8530   4.012   1.236   3.339
 2838SOL     OW 8531   4.314   1.487   2.353
 2838SOL    HW1 8532   4.356   1.429   2.283
 2838SOL    HW2 8533   4.270   1.566   2.309
 2839SOL     OW 8534   3.979   1.348   2.152
 2839SOL    HW1 8535   3.883   1.349   2.125
 2839SOL    HW2 8536   3.991   1.401   2.236
 2840SOL     OW 8537   3.829   1.013   3.588
 2840SOL    HW1 8538   3.752   0.980   3.642
 2840SOL    HW2 8539   3.914   0.983   3.630
 2841SOL     OW 8540   4.396   0.203   3.351
 2841SOL    HW1 8541   4.486   0.187   3.311
 2841SOL    HW2 8542   4.404   0.208   3.450
 2842SOL     OW 8543   3.799   0.345   1.895
 2842SOL    HW1 8544   3.707   0.317   1.866
 2842SOL    HW2 8545   3.830   0.422   1.839
 2843SOL     OW 8546   3.796   0.166   2.180
 2843SOL    HW1 8547   3.779   0.249   2.126
 2843SOL    HW2 8548   3.886   0.129   2.158
 2844SOL     OW 8549   4.337   0.842   3.293
 2844SOL    HW1 8550   4.393   0.923   3.276
 2844SOL    HW2 8551   4.396   0.762   3.296
 2845SOL     OW 8552   4.440   0.565   3.570
 2845SOL    HW1 8553   4.459   0.630   3.644
 2845SOL    HW2 8554   4.500   0.485   3.579
 2846SOL     OW 8555   4.114   1.741   3.422
 2846SOL    HW1 8556   4.023   1.782   3.420
 2846SOL    HW2 8557   4.107   1.647   3.454
 2847SOL     OW 8558   4.318   0.745   2.514
 2847SOL    HW1 8559   4.368   0.830   2.495
 2847SOL    HW2 8560   4.230   0.747   2.466
 2848SOL     OW 8561   4.385   1.790   2.815
 2848SOL    HW1 8562   4.339   1.878   2.802
 2848SOL    HW2 8563   4.484   1.802   2.808
 2849SOL     OW 8564   4.583   0.956   2.723
 2849SOL    HW1 8565   4.637   0.887   2.771
 2849SOL    HW2 8566   4.551   1.025   2.789
 2850SOL     OW 8567   3.945   1.314   3.706
 2850SOL    HW1 8568   3.880   1.241   3.685
 2850SOL    HW2 8569   3.949   1.328   3.804
 2851SOL     OW 8570   3.803   1.240   2.515
 2851SOL    HW1 8571   3.802   1.193   2.603
 2851SOL    HW2 8572   3.885   1.212   2.464
 2852SOL     OW 8573   4.396   1.391   3.486
 2852SOL    HW1 8574   4.318   1.341   3.524
 2852SOL    HW2 8575   4.393   1.486   3.517
 2853SOL     OW 8576   4.152   0.424   2.382
 2853SOL    HW1 8577   4.182   0.352   2.320
 2853SOL    HW2 8578   4.113   0.384   2.465
 2854SOL     OW 8579   4.041   0.547   3.142
 2854SOL    HW1 8580   4.079   0.488   3.214
 2854SOL    HW2 8581   4.081   0.521   3.054
 2855SOL     OW 8582   4.536   1.586   2.549
 2855SOL    HW1 8583   4.568   1.596   2.455
 2855SOL    HW2 8584   4.457   1.524   2.551
 2856SOL     OW 8585   4.725   0.034   3.016
 2856SOL    HW1 8586   4.662  -0.038   2.985
 2856SOL    HW2 8587   4.818  -0.002   3.016
 2857SOL     OW 8588   4.494   1.330   2.163
 2857SOL    HW1 8589   4.448   1.243   2.180
 2857SOL    HW2 8590   4.585   1.327   2.204
 2858SOL     OW 8591   4.342   1.567   3.146
 2858SOL    HW1 8592   4.337   1.649   3.203
 2858SOL    HW2 8593   4.431   1.564   3.101
 2859SOL     OW 8594   3.763   1.077   2.162
 2859SOL    HW1 8595   3.862   1.066   2.153
 2859SOL    HW2 8596   3.723   0.991   2.194
 2860SOL     OW 8597   4.599   1.646   2.199
 2860SOL    HW1 8598   4.522   1.611   2.145
 2860SOL    HW2 8599   4.567   1.717   2.261
 2861SOL     OW 8600   3.954   0.628   3.837
 2861SOL    HW1 8601   3.861   0.626   3.874
 2861SOL    HW2 8602   3.955   0.589   3.745
 2862SOL     OW 8603   3.949   0.275   4.720
 2862SOL    HW1 8604   3.984   0.258   4.812
 2862SOL    HW2 8605   3.861   0.230   4.708
 2863SOL     OW 8606   3.743   0.368   4.371
 2863SOL    HW1 8607   3.661   0.411   4.410
 2863SOL    HW2 8608   3.715   0.295   4.308
 2864SOL     OW 8609   4.492   1.144   4.747
 2864SOL    HW1 8610   4.414   1.161   4.807
 2864SOL    HW2 8611   4.526   1.231   4.711
 2865SOL     OW 8612   4.409   1.012   4.389
 2865SOL    HW1 8613   4.478   0.996   4.459
 2865SOL    HW2 8614   4.336   1.069   4.427
 2866SOL     OW 8615   3.955   1.713   4.207
 2866SOL    HW1 8616   3.989   1.790   4.261
 2866SOL    HW2 8617   3.999   1.713   4.117
 2867SOL     OW 8618   3.954   1.434   4.262
 2867SOL    HW1 8619   3.928   1.530   4.262
 2867SOL    HW2 8620   3.883   1.380   4.307
 2868SOL     OW 8621   3.964   1.091   4.610
 2868SOL    HW1 8622   3.978   1.007   4.662
 2868SOL    HW2 8623   3.909   1.155   4.665
 2869SOL     OW 8624   4.330   0.964   3.847
 2869SOL    HW1 8625   4.337   1.048   3.793
 2869SOL    HW2 8626   4.376   0.977   3.935
 2870SOL     OW 8627   3.846   0.643   4.287
 2870SOL    HW1 8628   3.801   0.555   4.304
 2870SOL    HW2 8629   3.845   0.697   4.371
 2871SOL     OW 8630   3.751   1.596   3.841
 2871SOL    HW1 8631   3.732   1.500   3.862
 2871SOL    HW2 8632   3.718   1.654   3.916
 2872SOL     OW 8633   4.337   1.365   4.450
 2872SOL    HW1 8634   4.288   1.278   4.459
 2872SOL    HW2 8635   4.314   1.408   4.363
 2873SOL     OW 8636   4.533   0.004   4.226
 2873SOL    HW1 8637   4.573   0.095   4.217
 2873SOL    HW2 8638   4.433   0.012   4.232
 2874SOL     OW 8639   4.322   0.729   3.994
 2874SOL    HW1 8640   4.346   0.798   3.926
 2874SOL    HW2 8641   4.244   0.762   4.048
 2875SOL     OW 8642   3.800   0.811   4.513
 2875SOL    HW1 8643   3.899   0.799   4.522
 2875SOL    HW2 8644   3.776   0.906   4.534
 2876SOL     OW 8645   4.589   0.348   3.919
 2876SOL    HW1 8646   4.648   0.411   3.870
 2876SOL    HW2 8647   4.608   0.254   3.890
 2877SOL     OW 8648   4.732   1.456   4.201
 2877SOL    HW1 8649   4.686   1.528   4.149
 2877SOL    HW2 8650   4.728   1.476   4.299
 2878SOL     OW 8651   4.075   1.801   4.577
 2878SOL    HW1 8652   4.125   1.715   4.583
 2878SOL    HW2 8653   4.140   1.878   4.574
 2879SOL     OW 8654   4.045   0.943   3.966
 2879SOL    HW1 8655   4.127   0.982   3.924
 2879SOL    HW2 8656   4.018   0.861   3.917
 2880SOL     OW 8657   4.835   1.776   3.961
 2880SOL    HW1 8658   4.775   1.714   4.011
 2880SOL    HW2 8659   4.866   1.732   3.876
 2881SOL     OW 8660   4.188   1.743   4.047
 2881SOL    HW1 8661   4.221   1.782   4.133
 2881SOL    HW2 8662   4.264   1.736   3.982
 2882SOL     OW 8663   4.106   0.700   4.204
 2882SOL    HW1 8664   4.151   0.610   4.201
 2882SOL    HW2 8665   4.012   0.689   4.237
 2883SOL     OW 8666   4.338   0.122   3.841
 2883SOL    HW1 8667   4.436   0.100   3.848
 2883SOL    HW2 8668   4.307   0.105   3.748
 2884SOL     OW 8669   4.527   1.402   4.648
 2884SOL    HW1 8670   4.617   1.416   4.606
 2884SOL    HW2 8671   4.456   1.404   4.577
 2885SOL     OW 8672   4.263   0.064   4.236
 2885SOL    HW1 8673   4.182   0.065   4.294
 2885SOL    HW2 8674   4.266   0.147   4.181
 2886SOL     OW 8675   4.021   0.035   3.895
 2886SOL    HW1 8676   4.070   0.119   3.874
 2886SOL    HW2 8677   4.083  -0.030   3.940
 2887SOL     OW 8678   4.183   1.152   4.465
 2887SOL    HW1 8679   4.112   1.125   4.530
 2887SOL    HW2 8680   4.157   1.124   4.372
 2888SOL     OW 8681   4.212   1.385   3.898
 2888SOL    HW1 8682   4.125   1.370   3.945
 2888SOL    HW2 8683   4.195   1.411   3.803
 2889SOL     OW 8684   4.251   0.256   4.052
 2889SOL    HW1 8685   4.278   0.197   3.977
 2889SOL    HW2 8686   4.251   0.351   4.021
 2890SOL     OW 8687   4.429   1.050   4.092
 2890SOL    HW1 8688   4.415   1.057   4.191
 2890SOL    HW2 8689   4.513   0.999   4.074
 2891SOL     OW 8690   4.091   1.100   4.225
 2891SOL    HW1 8691   4.084   1.183   4.169
 2891SOL    HW2 8692   4.095   1.020   4.165
 2892SOL     OW 8693   4.290   0.537   4.589
 2892SOL    HW1 8694   4.302   0.603   4.515
 2892SOL    HW2 8695   4.336   0.571   4.672
 2893SOL     OW 8696   4.933   0.525   3.999
 2893SOL    HW1 8697   4.946   0.441   4.053
 2893SOL    HW2 8698   4.904   0.599   4.059
 2894SOL     OW 8699   4.456   0.634   4.788
 2894SOL    HW1 8700   4.515   0.608   4.712
 2894SOL    HW2 8701   4.428   0.730   4.777
 2895SOL     OW 8702   4.031   0.063   4.342
 2895SOL    HW1 8703   4.020   0.157   4.375
 2895SOL    HW2 8704   4.026   0.000   4.419
 2896SOL     OW 8705   4.747   0.766   4.690
 2896SOL    HW1 8706   4.762   0.787   4.786
 2896SOL    HW2 8707   4.717   0.671   4.681
 2897SOL     OW 8708   3.732   1.326   3.924
 2897SOL    HW1 8709   3.639   1.347   3.893
 2897SOL    HW2 8710   3.742   1.227   3.937
 2898SOL     OW 8711   3.812   1.801   4.651
 2898SOL    HW1 8712   3.770   1.715   4.624
 2898SOL    HW2 8713   3.906   1.804   4.617
 2899SOL     OW 8714   4.228   1.568   4.634
 2899SOL    HW1 8715   4.294   1.642   4.643
 2899SOL    HW2 8716   4.272   1.489   4.592
 2900SOL     OW 8717   4.539   0.572   4.049
 2900SOL    HW1 8718   4.546   0.483   4.003
 2900SOL    HW2 8719   4.445   0.606   4.041
 2901SOL     OW 8720   4.197   0.500   3.915
 2901SOL    HW1 8721   4.258   0.580   3.919
 2901SOL    HW2 8722   4.102   0.531   3.922
 2902SOL     OW 8723   4.627   0.086   3.857
 2902SOL    HW1 8724   4.678   0.087   3.771
 2902SOL    HW2 8725   4.683   0.044   3.928
 2903SOL     OW 8726   4.396   1.616   3.878
 2903SOL    HW1 8727   4.405   1.626   3.779
 2903SOL    HW2 8728   4.356   1.527   3.899
 2904SOL     OW 8729   3.987   0.326   4.444
 2904SOL    HW1 8730   3.908   0.377   4.410
 2904SOL    HW2 8731   3.978   0.311   4.542
 2905SOL     OW 8732   4.314   1.487   4.215
 2905SOL    HW1 8733   4.356   1.429   4.145
 2905SOL    HW2 8734   4.270   1.566   4.171
 2906SOL     OW 8735   3.979   1.348   4.014
 2906SOL    HW1 8736   3.883   1.349   3.987
 2906SOL    HW2 8737   3.991   1.401   4.098
 2907SOL     OW 8738   3.799   0.345   3.757
 2907SOL    HW1 8739   3.707   0.317   3.728
 2907SOL    HW2 8740   3.830   0.422   3.701
 2908SOL     OW 8741   3.796   0.166   4.042
 2908SOL    HW1 8742   3.779   0.249   3.988
 2908SOL    HW2 8743   3.886   0.129   4.020
 2909SOL     OW 8744   4.318   0.745   4.376
 2909SOL    HW1 8745   4.368   0.830   4.357
 2909SOL    HW2 8746   4.230   0.747   4.328
 2910SOL     OW 8747   4.385   1.790   4.677
 2910SOL    HW1 8748   4.339   1.878   4.664
 2910SOL    HW2 8749   4.484   1.802   4.670
 2911SOL     OW 8750   4.583   0.956   4.585
 2911SOL    HW1 8751   4.637   0.887   4.633
 2911SOL    HW2 8752   4.551   1.025   4.651
 2912SOL     OW 8753   3.803   1.240   4.377
 2912SOL    HW1 8754   3.802   1.193   4.465
 2912SOL    HW2 8755   3.885   1.212   4.326
 2913SOL     OW 8756   4.152   0.424   4.244
 2913SOL    HW1 8757   4.182   0.352   4.182
 2913SOL    HW2 8758   4.113   0.384   4.327
 2914SOL     OW 8759   4.536   1.586   4.411
 2914SOL    HW1 8760   4.568   1.596   4.317
 2914SOL    HW2 8761   4.457   1.524   4.413
 2915SOL     OW 8762   4.494   1.330   4.025
 2915SOL    HW1 8763   4.448   1.243   4.042
 2915SOL    HW2 8764   4.585   1.327   4.066
 2916SOL     OW 8765   3.763   1.077   4.024
 2916SOL    HW1 8766   3.862   1.066   4.015
 2916SOL    HW2 8767   3.723   0.991   4.056
 2917SOL     OW 8768   4.599   1.646   4.061
 2917SOL    HW1 8769   4.522   1.611   4.007
 2917SOL    HW2 8770   4.567   1.717   4.123
 2918SOL     OW 8771   3.954   2.490   0.113
 2918SOL    HW1 8772   3.861   2.488   0.150
 2918SOL    HW2 8773   3.955   2.451   0.021
 2919SOL     OW 8774   3.949   2.137   0.996
 2919SOL    HW1 8775   3.984   2.120   1.088
 2919SOL    HW2 8776   3.861   2.092   0.984
 2920SOL     OW 8777   3.743   2.230   0.647
 2920SOL    HW1 8778   3.661   2.273   0.686
 2920SOL    HW2 8779   3.715   2.157   0.584
 2921SOL     OW 8780   4.293   3.137   1.165
 2921SOL    HW1 8781   4.200   3.130   1.128
 2921SOL    HW2 8782   4.304   3.226   1.209
 2922SOL     OW 8783   4.492   3.006   1.023
 2922SOL    HW1 8784   4.414   3.023   1.083
 2922SOL    HW2 8785   4.526   3.093   0.987
 2923SOL     OW 8786   4.574   2.660   1.823
 2923SOL    HW1 8787   4.570   2.736   1.888
 2923SOL    HW2 8788   4.596   2.696   1.732
 2924SOL     OW 8789   4.409   2.874   0.665
 2924SOL    HW1 8790   4.478   2.858   0.735
 2924SOL    HW2 8791   4.336   2.931   0.703
 2925SOL     OW 8792   4.410   3.023   1.803
 2925SOL    HW1 8793   4.470   3.102   1.817
 2925SOL    HW2 8794   4.324   3.054   1.762
 2926SOL     OW 8795   4.059   3.297   1.061
 2926SOL    HW1 8796   3.981   3.266   1.008
 2926SOL    HW2 8797   4.117   3.355   1.004
 2927SOL     OW 8798   4.162   2.254   1.499
 2927SOL    HW1 8799   4.244   2.198   1.508
 2927SOL    HW2 8800   4.081   2.196   1.503
 2928SOL     OW 8801   3.955   3.575   0.483
 2928SOL    HW1 8802   3.989   3.652   0.537
 2928SOL    HW2 8803   3.999   3.575   0.393
 2929SOL     OW 8804   3.954   3.296   0.538
 2929SOL    HW1 8805   3.928   3.392   0.538
 2929SOL    HW2 8806   3.883   3.242   0.583
 2930SOL     OW 8807   3.964   2.953   0.886
 2930SOL    HW1 8808   3.978   2.869   0.938
 2930SOL    HW2 8809   3.909   3.017   0.941
 2931SOL     OW 8810   4.344   3.648   1.439
 2931SOL    HW1 8811   4.252   3.631   1.474
 2931SOL    HW2 8812   4.372   3.740   1.465
 2932SOL     OW 8813   4.330   2.826   0.123
 2932SOL    HW1 8814   4.337   2.910   0.069
 2932SOL    HW2 8815   4.376   2.839   0.211
 2933SOL     OW 8816   3.846   2.505   0.563
 2933SOL    HW1 8817   3.801   2.417   0.580
 2933SOL    HW2 8818   3.845   2.559   0.647
 2934SOL     OW 8819   3.837   2.599   1.597
 2934SOL    HW1 8820   3.925   2.586   1.642
 2934SOL    HW2 8821   3.824   2.696   1.575
 2935SOL     OW 8822   4.337   3.227   0.726
 2935SOL    HW1 8823   4.288   3.140   0.735
 2935SOL    HW2 8824   4.314   3.270   0.639
 2936SOL     OW 8825   4.533   1.866   0.502
 2936SOL    HW1 8826   4.573   1.957   0.493
 2936SOL    HW2 8827   4.433   1.874   0.508
 2937SOL     OW 8828   3.921   2.838   1.264
 2937SOL    HW1 8829   4.010   2.793   1.250
 2937SOL    HW2 8830   3.848   2.773   1.245
 2938SOL     OW 8831   4.041   2.113   1.801
 2938SOL    HW1 8832   4.112   2.184   1.807
 2938SOL    HW2 8833   3.953   2.152   1.829
 2939SOL     OW 8834   4.322   2.591   0.270
 2939SOL    HW1 8835   4.346   2.660   0.202
 2939SOL    HW2 8836   4.244   2.624   0.324
 2940SOL     OW 8837   4.531   2.467   1.465
 2940SOL    HW1 8838   4.484   2.464   1.554
 2940SOL    HW2 8839   4.480   2.412   1.399
 2941SOL     OW 8840   3.800   2.673   0.789
 2941SOL    HW1 8841   3.899   2.661   0.798
 2941SOL    HW2 8842   3.776   2.768   0.810
 2942SOL     OW 8843   3.854   3.683   1.571
 2942SOL    HW1 8844   3.844   3.668   1.670
 2942SOL    HW2 8845   3.768   3.719   1.535
 2943SOL     OW 8846   4.589   2.210   0.195
 2943SOL    HW1 8847   4.648   2.273   0.146
 2943SOL    HW2 8848   4.608   2.116   0.166
 2944SOL     OW 8849   4.274   2.058   0.885
 2944SOL    HW1 8850   4.269   2.053   0.985
 2944SOL    HW2 8851   4.276   2.154   0.856
 2945SOL     OW 8852   4.732   3.318   0.477
 2945SOL    HW1 8853   4.686   3.390   0.425
 2945SOL    HW2 8854   4.728   3.338   0.575
 2946SOL     OW 8855   4.075   3.663   0.853
 2946SOL    HW1 8856   4.125   3.577   0.859
 2946SOL    HW2 8857   4.140   3.740   0.850
 2947SOL     OW 8858   4.045   2.805   0.242
 2947SOL    HW1 8859   4.127   2.844   0.200
 2947SOL    HW2 8860   4.018   2.723   0.193
 2948SOL     OW 8861   4.185   3.128   1.727
 2948SOL    HW1 8862   4.135   3.129   1.641
 2948SOL    HW2 8863   4.122   3.110   1.803
 2949SOL     OW 8864   4.835   3.638   0.237
 2949SOL    HW1 8865   4.775   3.576   0.287
 2949SOL    HW2 8866   4.866   3.594   0.152
 2950SOL     OW 8867   3.926   2.147   1.498
 2950SOL    HW1 8868   3.846   2.207   1.485
 2950SOL    HW2 8869   3.916   2.098   1.584
 2951SOL     OW 8870   4.188   3.605   0.323
 2951SOL    HW1 8871   4.221   3.644   0.409
 2951SOL    HW2 8872   4.264   3.598   0.258
 2952SOL     OW 8873   3.973   3.647   1.241
 2952SOL    HW1 8874   4.030   3.582   1.291
 2952SOL    HW2 8875   3.957   3.614   1.148
 2953SOL     OW 8876   4.106   2.562   0.480
 2953SOL    HW1 8877   4.151   2.472   0.477
 2953SOL    HW2 8878   4.012   2.551   0.513
 2954SOL     OW 8879   4.505   2.126   1.749
 2954SOL    HW1 8880   4.572   2.065   1.792
 2954SOL    HW2 8881   4.432   2.145   1.814
 2955SOL     OW 8882   4.527   3.264   0.924
 2955SOL    HW1 8883   4.617   3.278   0.882
 2955SOL    HW2 8884   4.456   3.266   0.853
 2956SOL     OW 8885   4.646   2.365   0.899
 2956SOL    HW1 8886   4.621   2.356   0.803
 2956SOL    HW2 8887   4.694   2.283   0.930
 2957SOL     OW 8888   4.263   1.926   0.512
 2957SOL    HW1 8889   4.182   1.927   0.570
 2957SOL    HW2 8890   4.266   2.009   0.457
 2958SOL     OW 8891   4.021   1.897   0.171
 2958SOL    HW1 8892   4.070   1.981   0.150
 2958SOL    HW2 8893   4.083   1.832   0.216
 2959SOL     OW 8894   4.183   3.014   0.741
 2959SOL    HW1 8895   4.112   2.987   0.806
 2959SOL    HW2 8896   4.157   2.986   0.648
 2960SOL     OW 8897   3.802   2.418   1.386
 2960SOL    HW1 8898   3.894   2.417   1.345
 2960SOL    HW2 8899   3.796   2.492   1.453
 2961SOL     OW 8900   4.285   2.084   1.147
 2961SOL    HW1 8901   4.323   2.000   1.184
 2961SOL    HW2 8902   4.197   2.103   1.191
 2962SOL     OW 8903   4.212   3.247   0.174
 2962SOL    HW1 8904   4.125   3.232   0.221
 2962SOL    HW2 8905   4.195   3.273   0.079
 2963SOL     OW 8906   4.251   2.118   0.328
 2963SOL    HW1 8907   4.278   2.059   0.253
 2963SOL    HW2 8908   4.251   2.213   0.297
 2964SOL     OW 8909   4.639   1.951   1.402
 2964SOL    HW1 8910   4.664   1.931   1.307
 2964SOL    HW2 8911   4.711   2.007   1.444
 2965SOL     OW 8912   4.429   2.912   0.368
 2965SOL    HW1 8913   4.415   2.919   0.467
 2965SOL    HW2 8914   4.513   2.861   0.350
 2966SOL     OW 8915   4.134   2.675   1.251
 2966SOL    HW1 8916   4.220   2.687   1.301
 2966SOL    HW2 8917   4.092   2.588   1.278
 2967SOL     OW 8918   3.788   3.426   1.331
 2967SOL    HW1 8919   3.742   3.508   1.297
 2967SOL    HW2 8920   3.886   3.445   1.340
 2968SOL     OW 8921   4.091   2.962   0.501
 2968SOL    HW1 8922   4.084   3.045   0.445
 2968SOL    HW2 8923   4.095   2.882   0.441
 2969SOL     OW 8924   4.290   2.399   0.865
 2969SOL    HW1 8925   4.302   2.465   0.791
 2969SOL    HW2 8926   4.336   2.433   0.948
 2970SOL     OW 8927   4.078   3.372   1.329
 2970SOL    HW1 8928   4.057   3.328   1.242
 2970SOL    HW2 8929   4.175   3.398   1.332
 2971SOL     OW 8930   4.126   2.613   1.598
 2971SOL    HW1 8931   4.194   2.668   1.551
 2971SOL    HW2 8932   4.166   2.525   1.625
 2972SOL     OW 8933   4.228   1.912   1.740
 2972SOL    HW1 8934   4.186   1.855   1.670
 2972SOL    HW2 8935   4.162   1.981   1.772
 2973SOL     OW 8936   4.297   2.732   1.029
 2973SOL    HW1 8937   4.341   2.821   1.020
 2973SOL    HW2 8938   4.234   2.732   1.106
 2974SOL     OW 8939   4.933   2.387   0.275
 2974SOL    HW1 8940   4.946   2.303   0.329
 2974SOL    HW2 8941   4.904   2.461   0.335
 2975SOL     OW 8942   4.031   2.075   1.231
 2975SOL    HW1 8943   4.008   2.112   1.321
 2975SOL    HW2 8944   4.001   1.980   1.225
 2976SOL     OW 8945   3.761   3.172   1.282
 2976SOL    HW1 8946   3.814   3.123   1.350
 2976SOL    HW2 8947   3.783   3.270   1.287
 2977SOL     OW 8948   4.456   2.496   1.064
 2977SOL    HW1 8949   4.515   2.470   0.988
 2977SOL    HW2 8950   4.428   2.592   1.053
 2978SOL     OW 8951   4.031   1.925   0.618
 2978SOL    HW1 8952   4.020   2.019   0.651
 2978SOL    HW2 8953   4.026   1.862   0.695
 2979SOL     OW 8954   4.747   2.628   0.966
 2979SOL    HW1 8955   4.762   2.649   1.062
 2979SOL    HW2 8956   4.717   2.533   0.957
 2980SOL     OW 8957   4.704   3.435   1.700
 2980SOL    HW1 8958   4.684   3.479   1.612
 2980SOL    HW2 8959   4.743   3.344   1.684
 2981SOL     OW 8960   4.074   2.760   1.804
 2981SOL    HW1 8961   4.150   2.804   1.852
 2981SOL    HW2 8962   4.109   2.713   1.722
 2982SOL     OW 8963   4.043   2.672   0.949
 2982SOL    HW1 8964   4.136   2.708   0.954
 2982SOL    HW2 8965   4.037   2.587   1.001
 2983SOL     OW 8966   4.063   2.371   1.006
 2983SOL    HW1 8967   4.011   2.288   0.989
 2983SOL    HW2 8968   4.140   2.376   0.942
 2984SOL     OW 8969   3.732   3.188   0.200
 2984SOL    HW1 8970   3.639   3.209   0.169
 2984SOL    HW2 8971   3.742   3.089   0.213
 2985SOL     OW 8972   3.812   3.663   0.927
 2985SOL    HW1 8973   3.770   3.577   0.900
 2985SOL    HW2 8974   3.906   3.666   0.893
 2986SOL     OW 8975   4.228   3.430   0.910
 2986SOL    HW1 8976   4.294   3.504   0.919
 2986SOL    HW2 8977   4.272   3.351   0.868
 2987SOL     OW 8978   3.764   2.406   1.114
 2987SOL    HW1 8979   3.849   2.373   1.073
 2987SOL    HW2 8980   3.777   2.421   1.212
 2988SOL     OW 8981   3.913   2.382   1.722
 2988SOL    HW1 8982   3.972   2.342   1.652
 2988SOL    HW2 8983   3.855   2.453   1.681
 2989SOL     OW 8984   4.539   2.434   0.325
 2989SOL    HW1 8985   4.546   2.345   0.279
 2989SOL    HW2 8986   4.445   2.468   0.317
 2990SOL     OW 8987   3.976   3.426   1.744
 2990SOL    HW1 8988   3.946   3.483   1.820
 2990SOL    HW2 8989   3.969   3.329   1.770
 2991SOL     OW 8990   4.395   2.326   1.269
 2991SOL    HW1 8991   4.361   2.237   1.239
 2991SOL    HW2 8992   4.421   2.380   1.189
 2992SOL     OW 8993   4.197   2.362   0.191
 2992SOL    HW1 8994   4.258   2.442   0.195
 2992SOL    HW2 8995   4.102   2.393   0.198
 2993SOL     OW 8996   3.883   2.999   1.466
 2993SOL    HW1 8997   3.905   2.938   1.542
 2993SOL    HW2 8998   3.893   2.950   1.380
 2994SOL     OW 8999   3.807   3.120   1.022
 2994SOL    HW1 9000   3.802   3.119   1.122
 2994SOL    HW2 9001   3.724   3.079   0.984
 2995SOL     OW 9002   4.412   3.524   1.716
 2995SOL    HW1 9003   4.356   3.605   1.725
 2995SOL    HW2 9004   4.464   3.528   1.630
 2996SOL     OW 9005   4.627   1.948   0.133
 2996SOL    HW1 9006   4.678   1.949   0.047
 2996SOL    HW2 9007   4.683   1.906   0.204
 2997SOL     OW 9008   3.854   3.656   1.851
 2997SOL    HW1 9009   3.813   3.582   1.904
 2997SOL    HW2 9010   3.918   3.707   1.909
 2998SOL     OW 9011   4.554   3.135   1.422
 2998SOL    HW1 9012   4.549   3.168   1.517
 2998SOL    HW2 9013   4.468   3.154   1.376
 2999SOL     OW 9014   4.396   3.478   0.154
 2999SOL    HW1 9015   4.405   3.488   0.055
 2999SOL    HW2 9016   4.356   3.389   0.175
 3000SOL     OW 9017   3.987   2.188   0.720
 3000SOL    HW1 9018   3.908   2.239   0.686
 3000SOL    HW2 9019   3.978   2.173   0.818
 3001SOL     OW 9020   4.918   3.474   0.031
 3001SOL    HW1 9021   4.924   3.381   0.068
 3001SOL    HW2 9022   4.859   3.474  -0.049
 3002SOL     OW 9023   4.546   2.864   1.372
 3002SOL    HW1 9024   4.586   2.863   1.280
 3002SOL    HW2 9025   4.556   2.956   1.412
 3003SOL     OW 9026   4.096   3.150   1.490
 3003SOL    HW1 9027   4.083   3.243   1.456
 3003SOL    HW2 9028   4.012   3.098   1.477
 3004SOL     OW 9029   4.314   3.349   0.491
 3004SOL    HW1 9030   4.356   3.291   0.421
 3004SOL    HW2 9031   4.270   3.428   0.447
 3005SOL     OW 9032   3.979   3.210   0.290
 3005SOL    HW1 9033   3.883   3.211   0.263
 3005SOL    HW2 9034   3.991   3.263   0.374
 3006SOL     OW 9035   3.829   2.875   1.726
 3006SOL    HW1 9036   3.752   2.842   1.780
 3006SOL    HW2 9037   3.914   2.845   1.768
 3007SOL     OW 9038   4.396   2.065   1.489
 3007SOL    HW1 9039   4.486   2.049   1.449
 3007SOL    HW2 9040   4.404   2.070   1.588
 3008SOL     OW 9041   3.796   2.028   0.318
 3008SOL    HW1 9042   3.779   2.111   0.264
 3008SOL    HW2 9043   3.886   1.991   0.296
 3009SOL     OW 9044   4.337   2.704   1.431
 3009SOL    HW1 9045   4.393   2.785   1.414
 3009SOL    HW2 9046   4.396   2.624   1.434
 3010SOL     OW 9047   4.440   2.427   1.708
 3010SOL    HW1 9048   4.459   2.492   1.782
 3010SOL    HW2 9049   4.500   2.347   1.717
 3011SOL     OW 9050   4.114   3.603   1.560
 3011SOL    HW1 9051   4.023   3.644   1.558
 3011SOL    HW2 9052   4.107   3.509   1.592
 3012SOL     OW 9053   4.318   2.607   0.652
 3012SOL    HW1 9054   4.368   2.692   0.633
 3012SOL    HW2 9055   4.230   2.609   0.604
 3013SOL     OW 9056   4.385   3.652   0.953
 3013SOL    HW1 9057   4.339   3.740   0.940
 3013SOL    HW2 9058   4.484   3.664   0.946
 3014SOL     OW 9059   4.583   2.818   0.861
 3014SOL    HW1 9060   4.637   2.749   0.909
 3014SOL    HW2 9061   4.551   2.887   0.927
 3015SOL     OW 9062   3.945   3.176   1.844
 3015SOL    HW1 9063   3.880   3.103   1.823
 3015SOL    HW2 9064   3.949   3.190   1.942
 3016SOL     OW 9065   3.803   3.102   0.653
 3016SOL    HW1 9066   3.802   3.055   0.741
 3016SOL    HW2 9067   3.885   3.074   0.602
 3017SOL     OW 9068   4.396   3.253   1.624
 3017SOL    HW1 9069   4.318   3.203   1.662
 3017SOL    HW2 9070   4.393   3.348   1.655
 3018SOL     OW 9071   4.152   2.286   0.520
 3018SOL    HW1 9072   4.182   2.214   0.458
 3018SOL    HW2 9073   4.113   2.246   0.603
 3019SOL     OW 9074   4.041   2.409   1.280
 3019SOL    HW1 9075   4.079   2.350   1.352
 3019SOL    HW2 9076   4.081   2.383   1.192
 3020SOL     OW 9077   4.536   3.448   0.687
 3020SOL    HW1 9078   4.568   3.458   0.593
 3020SOL    HW2 9079   4.457   3.386   0.689
 3021SOL     OW 9080   4.725   1.896   1.154
 3021SOL    HW1 9081   4.662   1.824   1.123
 3021SOL    HW2 9082   4.818   1.860   1.154
 3022SOL     OW 9083   4.494   3.192   0.301
 3022SOL    HW1 9084   4.448   3.105   0.318
 3022SOL    HW2 9085   4.585   3.189   0.342
 3023SOL     OW 9086   4.342   3.429   1.284
 3023SOL    HW1 9087   4.337   3.511   1.341
 3023SOL    HW2 9088   4.431   3.426   1.239
 3024SOL     OW 9089   3.763   2.939   0.300
 3024SOL    HW1 9090   3.862   2.928   0.291
 3024SOL    HW2 9091   3.723   2.853   0.332
 3025SOL     OW 9092   4.599   3.508   0.337
 3025SOL    HW1 9093   4.522   3.473   0.283
 3025SOL    HW2 9094   4.567   3.579   0.399
 3026SOL     OW 9095   3.954   2.490   1.975
 3026SOL    HW1 9096   3.861   2.488   2.012
 3026SOL    HW2 9097   3.955   2.451   1.883
 3027SOL     OW 9098   3.949   2.137   2.858
 3027SOL    HW1 9099   3.984   2.120   2.950
 3027SOL    HW2 9100   3.861   2.092   2.846
 3028SOL     OW 9101   3.743   2.230   2.509
 3028SOL    HW1 9102   3.661   2.273   2.548
 3028SOL    HW2 9103   3.715   2.157   2.446
 3029SOL     OW 9104   4.293   3.137   3.027
 3029SOL    HW1 9105   4.200   3.130   2.990
 3029SOL    HW2 9106   4.304   3.226   3.071
 3030SOL     OW 9107   4.492   3.006   2.885
 3030SOL    HW1 9108   4.414   3.023   2.945
 3030SOL    HW2 9109   4.526   3.093   2.849
 3031SOL     OW 9110   4.574   2.660   3.685
 3031SOL    HW1 9111   4.570   2.736   3.750
 3031SOL    HW2 9112   4.596   2.696   3.594
 3032SOL     OW 9113   4.409   2.874   2.527
 3032SOL    HW1 9114   4.478   2.858   2.597
 3032SOL    HW2 9115   4.336   2.931   2.565
 3033SOL     OW 9116   4.410   3.023   3.665
 3033SOL    HW1 9117   4.470   3.102   3.679
 3033SOL    HW2 9118   4.324   3.054   3.624
 3034SOL     OW 9119   4.059   3.297   2.923
 3034SOL    HW1 9120   3.981   3.266   2.870
 3034SOL    HW2 9121   4.117   3.355   2.866
 3035SOL     OW 9122   4.162   2.254   3.361
 3035SOL    HW1 9123   4.244   2.198   3.370
 3035SOL    HW2 9124   4.081   2.196   3.365
 3036SOL     OW 9125   3.955   3.575   2.345
 3036SOL    HW1 9126   3.989   3.652   2.399
 3036SOL    HW2 9127   3.999   3.575   2.255
 3037SOL     OW 9128   3.954   3.296   2.400
 3037SOL    HW1 9129   3.928   3.392   2.400
 3037SOL    HW2 9130   3.883   3.242   2.445
 3038SOL     OW 9131   3.964   2.953   2.748
 3038SOL    HW1 9132   3.978   2.869   2.800
 3038SOL    HW2 9133   3.909   3.017   2.803
 3039SOL     OW 9134   4.344   3.648   3.301
 3039SOL    HW1 9135   4.252   3.631   3.336
 3039SOL    HW2 9136   4.372   3.740   3.327
 3040SOL     OW 9137   4.330   2.826   1.985
 3040SOL    HW1 9138   4.337   2.910   1.931
 3040SOL    HW2 9139   4.376   2.839   2.073
 3041SOL     OW 9140   3.846   2.505   2.425
 3041SOL    HW1 9141   3.801   2.417   2.442
 3041SOL    HW2 9142   3.845   2.559   2.509
 3042SOL     OW 9143   3.751   3.458   1.979
 3042SOL    HW1 9144   3.732   3.362   2.000
 3042SOL    HW2 9145   3.718   3.516   2.054
 3043SOL     OW 9146   3.837   2.599   3.459
 3043SOL    HW1 9147   3.925   2.586   3.504
 3043SOL    HW2 9148   3.824   2.696   3.437
 3044SOL     OW 9149   4.337   3.227   2.588
 3044SOL    HW1 9150   4.288   3.140   2.597
 3044SOL    HW2 9151   4.314   3.270   2.501
 3045SOL     OW 9152   4.533   1.866   2.364
 3045SOL    HW1 9153   4.573   1.957   2.355
 3045SOL    HW2 9154   4.433   1.874   2.370
 3046SOL     OW 9155   3.921   2.838   3.126
 3046SOL    HW1 9156   4.010   2.793   3.112
 3046SOL    HW2 9157   3.848   2.773   3.107
 3047SOL     OW 9158   4.041   2.113   3.663
 3047SOL    HW1 9159   4.112   2.184   3.669
 3047SOL    HW2 9160   3.953   2.152   3.691
 3048SOL     OW 9161   4.322   2.591   2.132
 3048SOL    HW1 9162   4.346   2.660   2.064
 3048SOL    HW2 9163   4.244   2.624   2.186
 3049SOL     OW 9164   4.531   2.467   3.327
 3049SOL    HW1 9165   4.484   2.464   3.416
 3049SOL    HW2 9166   4.480   2.412   3.261
 3050SOL     OW 9167   3.800   2.673   2.651
 3050SOL    HW1 9168   3.899   2.661   2.660
 3050SOL    HW2 9169   3.776   2.768   2.672
 3051SOL     OW 9170   3.854   3.683   3.433
 3051SOL    HW1 9171   3.844   3.668   3.532
 3051SOL    HW2 9172   3.768   3.719   3.397
 3052SOL     OW 9173   4.589   2.210   2.057
 3052SOL    HW1 9174   4.648   2.273   2.008
 3052SOL    HW2 9175   4.608   2.116   2.028
 3053SOL     OW 9176   4.274   2.058   2.747
 3053SOL    HW1 9177   4.269   2.053   2.847
 3053SOL    HW2 9178   4.276   2.154   2.718
 3054SOL     OW 9179   4.732   3.318   2.339
 3054SOL    HW1 9180   4.686   3.390   2.287
 3054SOL    HW2 9181   4.728   3.338   2.437
 3055SOL     OW 9182   4.075   3.663   2.715
 3055SOL    HW1 9183   4.125   3.577   2.721
 3055SOL    HW2 9184   4.140   3.740   2.712
 3056SOL     OW 9185   4.045   2.805   2.104
 3056SOL    HW1 9186   4.127   2.844   2.062
 3056SOL    HW2 9187   4.018   2.723   2.055
 3057SOL     OW 9188   4.185   3.128   3.589
 3057SOL    HW1 9189   4.135   3.129   3.503
 3057SOL    HW2 9190   4.122   3.110   3.665
 3058SOL     OW 9191   4.835   3.638   2.099
 3058SOL    HW1 9192   4.775   3.576   2.149
 3058SOL    HW2 9193   4.866   3.594   2.014
 3059SOL     OW 9194   3.926   2.147   3.360
 3059SOL    HW1 9195   3.846   2.207   3.347
 3059SOL    HW2 9196   3.916   2.098   3.446
 3060SOL     OW 9197   4.188   3.605   2.185
 3060SOL    HW1 9198   4.221   3.644   2.271
 3060SOL    HW2 9199   4.264   3.598   2.120
 3061SOL     OW 9200   3.973   3.647   3.103
 3061SOL    HW1 9201   4.030   3.582   3.153
 3061SOL    HW2 9202   3.957   3.614   3.010
 3062SOL     OW 9203   4.106   2.562   2.342
 3062SOL    HW1 9204   4.151   2.472   2.339
 3062SOL    HW2 9205   4.012   2.551   2.375
 3063SOL     OW 9206   4.338   1.984   1.979
 3063SOL    HW1 9207   4.436   1.962   1.986
 3063SOL    HW2 9208   4.307   1.967   1.886
 3064SOL     OW 9209   4.505   2.126   3.611
 3064SOL    HW1 9210   4.572   2.065   3.654
 3064SOL    HW2 9211   4.432   2.145   3.676
 3065SOL     OW 9212   4.527   3.264   2.786
 3065SOL    HW1 9213   4.617   3.278   2.744
 3065SOL    HW2 9214   4.456   3.266   2.715
 3066SOL     OW 9215   4.646   2.365   2.761
 3066SOL    HW1 9216   4.621   2.356   2.665
 3066SOL    HW2 9217   4.694   2.283   2.792
 3067SOL     OW 9218   4.263   1.926   2.374
 3067SOL    HW1 9219   4.182   1.927   2.432
 3067SOL    HW2 9220   4.266   2.009   2.319
 3068SOL     OW 9221   4.021   1.897   2.033
 3068SOL    HW1 9222   4.070   1.981   2.012
 3068SOL    HW2 9223   4.083   1.832   2.078
 3069SOL     OW 9224   4.183   3.014   2.603
 3069SOL    HW1 9225   4.112   2.987   2.668
 3069SOL    HW2 9226   4.157   2.986   2.510
 3070SOL     OW 9227   3.802   2.418   3.248
 3070SOL    HW1 9228   3.894   2.417   3.207
 3070SOL    HW2 9229   3.796   2.492   3.315
 3071SOL     OW 9230   4.285   2.084   3.009
 3071SOL    HW1 9231   4.323   2.000   3.046
 3071SOL    HW2 9232   4.197   2.103   3.053
 3072SOL     OW 9233   4.212   3.247   2.036
 3072SOL    HW1 9234   4.125   3.232   2.083
 3072SOL    HW2 9235   4.195   3.273   1.941
 3073SOL     OW 9236   4.251   2.118   2.190
 3073SOL    HW1 9237   4.278   2.059   2.115
 3073SOL    HW2 9238   4.251   2.213   2.159
 3074SOL     OW 9239   4.639   1.951   3.264
 3074SOL    HW1 9240   4.664   1.931   3.169
 3074SOL    HW2 9241   4.711   2.007   3.306
 3075SOL     OW 9242   4.429   2.912   2.230
 3075SOL    HW1 9243   4.415   2.919   2.329
 3075SOL    HW2 9244   4.513   2.861   2.212
 3076SOL     OW 9245   4.134   2.675   3.113
 3076SOL    HW1 9246   4.220   2.687   3.163
 3076SOL    HW2 9247   4.092   2.588   3.140
 3077SOL     OW 9248   3.788   3.426   3.193
 3077SOL    HW1 9249   3.742   3.508   3.159
 3077SOL    HW2 9250   3.886   3.445   3.202
 3078SOL     OW 9251   4.091   2.962   2.363
 3078SOL    HW1 9252   4.084   3.045   2.307
 3078SOL    HW2 9253   4.095   2.882   2.303
 3079SOL     OW 9254   4.290   2.399   2.727
 3079SOL    HW1 9255   4.302   2.465   2.653
 3079SOL    HW2 9256   4.336   2.433   2.810
 3080SOL     OW 9257   4.078   3.372   3.191
 3080SOL    HW1 9258   4.057   3.328   3.104
 3080SOL    HW2 9259   4.175   3.398   3.194
 3081SOL     OW 9260   4.126   2.613   3.460
 3081SOL    HW1 9261   4.194   2.668   3.413
 3081SOL    HW2 9262   4.166   2.525   3.487
 3082SOL     OW 9263   4.228   1.912   3.602
 3082SOL    HW1 9264   4.186   1.855   3.532
 3082SOL    HW2 9265   4.162   1.981   3.634
 3083SOL     OW 9266   4.297   2.732   2.891
 3083SOL    HW1 9267   4.341   2.821   2.882
 3083SOL    HW2 9268   4.234   2.732   2.968
 3084SOL     OW 9269   4.933   2.387   2.137
 3084SOL    HW1 9270   4.946   2.303   2.191
 3084SOL    HW2 9271   4.904   2.461   2.197
 3085SOL     OW 9272   4.031   2.075   3.093
 3085SOL    HW1 9273   4.008   2.112   3.183
 3085SOL    HW2 9274   4.001   1.980   3.087
 3086SOL     OW 9275   3.761   3.172   3.144
 3086SOL    HW1 9276   3.814   3.123   3.212
 3086SOL    HW2 9277   3.783   3.270   3.149
 3087SOL     OW 9278   4.456   2.496   2.926
 3087SOL    HW1 9279   4.515   2.470   2.850
 3087SOL    HW2 9280   4.428   2.592   2.915
 3088SOL     OW 9281   4.031   1.925   2.480
 3088SOL    HW1 9282   4.020   2.019   2.513
 3088SOL    HW2 9283   4.026   1.862   2.557
 3089SOL     OW 9284   4.747   2.628   2.828
 3089SOL    HW1 9285   4.762   2.649   2.924
 3089SOL    HW2 9286   4.717   2.533   2.819
 3090SOL     OW 9287   4.704   3.435   3.562
 3090SOL    HW1 9288   4.684   3.479   3.474
 3090SOL    HW2 9289   4.743   3.344   3.546
 3091SOL     OW 9290   4.074   2.760   3.666
 3091SOL    HW1 9291   4.150   2.804   3.714
 3091SOL    HW2 9292   4.109   2.713   3.584
 3092SOL     OW 9293   4.043   2.672   2.811
 3092SOL    HW1 9294   4.136   2.708   2.816
 3092SOL    HW2 9295   4.037   2.587   2.863
 3093SOL     OW 9296   4.063   2.371   2.868
 3093SOL    HW1 9297   4.011   2.288   2.851
 3093SOL    HW2 9298   4.140   2.376   2.804
 3094SOL     OW 9299   3.732   3.188   2.062
 3094SOL    HW1 9300   3.639   3.209   2.031
 3094SOL    HW2 9301   3.742   3.089   2.075
 3095SOL     OW 9302   3.812   3.663   2.789
 3095SOL    HW1 9303   3.770   3.577   2.762
 3095SOL    HW2 9304   3.906   3.666   2.755
 3096SOL     OW 9305   4.228   3.430   2.772
 3096SOL    HW1 9306   4.294   3.504   2.781
 3096SOL    HW2 9307   4.272   3.351   2.730
 3097SOL     OW 9308   3.764   2.406   2.976
 3097SOL    HW1 9309   3.849   2.373   2.935
 3097SOL    HW2 9310   3.777   2.421   3.074
 3098SOL     OW 9311   3.913   2.382   3.584
 3098SOL    HW1 9312   3.972   2.342   3.514
 3098SOL    HW2 9313   3.855   2.453   3.543
 3099SOL     OW 9314   4.539   2.434   2.187
 3099SOL    HW1 9315   4.546   2.345   2.141
 3099SOL    HW2 9316   4.445   2.468   2.179
 3100SOL     OW 9317   3.976   3.426   3.606
 3100SOL    HW1 9318   3.946   3.483   3.682
 3100SOL    HW2 9319   3.969   3.329   3.632
 3101SOL     OW 9320   4.395   2.326   3.131
 3101SOL    HW1 9321   4.361   2.237   3.101
 3101SOL    HW2 9322   4.421   2.380   3.051
 3102SOL     OW 9323   4.197   2.362   2.053
 3102SOL    HW1 9324   4.258   2.442   2.057
 3102SOL    HW2 9325   4.102   2.393   2.060
 3103SOL     OW 9326   3.883   2.999   3.328
 3103SOL    HW1 9327   3.905   2.938   3.404
 3103SOL    HW2 9328   3.893   2.950   3.242
 3104SOL     OW 9329   3.807   3.120   2.884
 3104SOL    HW1 9330   3.802   3.119   2.984
 3104SOL    HW2 9331   3.724   3.079   2.846
 3105SOL     OW 9332   4.412   3.524   3.578
 3105SOL    HW1 9333   4.356   3.605   3.587
 3105SOL    HW2 9334   4.464   3.528   3.492
 3106SOL     OW 9335   4.627   1.948   1.995
 3106SOL    HW1 9336   4.678   1.949   1.909
 3106SOL    HW2 9337   4.683   1.906   2.066
 3107SOL     OW 9338   3.854   3.656   3.713
 3107SOL    HW1 9339   3.813   3.582   3.766
 3107SOL    HW2 9340   3.918   3.707   3.771
 3108SOL     OW 9341   4.554   3.135   3.284
 3108SOL    HW1 9342   4.549   3.168   3.379
 3108SOL    HW2 9343   4.468   3.154   3.238
 3109SOL     OW 9344   4.396   3.478   2.016
 3109SOL    HW1 9345   4.405   3.488   1.917
 3109SOL    HW2 9346   4.356   3.389   2.037
 3110SOL     OW 9347   3.987   2.188   2.582
 3110SOL    HW1 9348   3.908   2.239   2.548
 3110SOL    HW2 9349   3.978   2.173   2.680
 3111SOL     OW 9350   4.546   2.864   3.234
 3111SOL    HW1 9351   4.586   2.863   3.142
 3111SOL    HW2 9352   4.556   2.956   3.274
 3112SOL     OW 9353   4.096   3.150   3.352
 3112SOL    HW1 9354   4.083   3.243   3.318
 3112SOL    HW2 9355   4.012   3.098   3.339
 3113SOL     OW 9356   4.314   3.349   2.353
 3113SOL    HW1 9357   4.356   3.291   2.283
 3113SOL    HW2 9358   4.270   3.428   2.309
 3114SOL     OW 9359   3.979   3.210   2.152
 3114SOL    HW1 9360   3.883   3.211   2.125
 3114SOL    HW2 9361   3.991   3.263   2.236
 3115SOL     OW 9362   3.829   2.875   3.588
 3115SOL    HW1 9363   3.752   2.842   3.642
 3115SOL    HW2 9364   3.914   2.845   3.630
 3116SOL     OW 9365   4.396   2.065   3.351
 3116SOL    HW1 9366   4.486   2.049   3.311
 3116SOL    HW2 9367   4.404   2.070   3.450
 3117SOL     OW 9368   3.799   2.207   1.895
 3117SOL    HW1 9369   3.707   2.179   1.866
 3117SOL    HW2 9370   3.830   2.284   1.839
 3118SOL     OW 9371   3.796   2.028   2.180
 3118SOL    HW1 9372   3.779   2.111   2.126
 3118SOL    HW2 9373   3.886   1.991   2.158
 3119SOL     OW 9374   4.337   2.704   3.293
 3119SOL    HW1 9375   4.393   2.785   3.276
 3119SOL    HW2 9376   4.396   2.624   3.296
 3120SOL     OW 9377   4.440   2.427   3.570
 3120SOL    HW1 9378   4.459   2.492   3.644
 3120SOL    HW2 9379   4.500   2.347   3.579
 3121SOL     OW 9380   4.114   3.603   3.422
 3121SOL    HW1 9381   4.023   3.644   3.420
 3121SOL    HW2 9382   4.107   3.509   3.454
 3122SOL     OW 9383   4.318   2.607   2.514
 3122SOL    HW1 9384   4.368   2.692   2.495
 3122SOL    HW2 9385   4.230   2.609   2.466
 3123SOL     OW 9386   4.385   3.652   2.815
 3123SOL    HW1 9387   4.339   3.740   2.802
 3123SOL    HW2 9388   4.484   3.664   2.808
 3124SOL     OW 9389   4.583   2.818   2.723
 3124SOL    HW1 9390   4.637   2.749   2.771
 3124SOL    HW2 9391   4.551   2.887   2.789
 3125SOL     OW 9392   3.945   3.176   3.706
 3125SOL    HW1 9393   3.880   3.103   3.685
 3125SOL    HW2 9394   3.949   3.190   3.804
 3126SOL     OW 9395   3.803   3.102   2.515
 3126SOL    HW1 9396   3.802   3.055   2.603
 3126SOL    HW2 9397   3.885   3.074   2.464
 3127SOL     OW 9398   4.396   3.253   3.486
 3127SOL    HW1 9399   4.318   3.203   3.524
 3127SOL    HW2 9400   4.393   3.348   3.517
 3128SOL     OW 9401   4.152   2.286   2.382
 3128SOL    HW1 9402   4.182   2.214   2.320
 3128SOL    HW2 9403   4.113   2.246   2.465
 3129SOL     OW 9404   4.041   2.409   3.142
 3129SOL    HW1 9405   4.079   2.350   3.214
 3129SOL    HW2 9406   4.081   2.383   3.054
 3130SOL     OW 9407   4.536   3.448   2.549
 3130SOL    HW1 9408   4.568   3.458   2.455
 3130SOL    HW2 9409   4.457   3.386   2.551
 3131SOL     OW 9410   4.725   1.896   3.016
 3131SOL    HW1 9411   4.662   1.824   2.985
 3131SOL    HW2 9412   4.818   1.860   3.016
 3132SOL     OW 9413   4.494   3.192   2.163
 3132SOL    HW1 9414   4.448   3.105   2.180
 3132SOL    HW2 9415   4.585   3.189   2.204
 3133SOL     OW 9416   4.342   3.429   3.146
 3133SOL    HW1 9417   4.337   3.511   3.203
 3133SOL    HW2 9418   4.431   3.426   3.101
 3134SOL     OW 9419   3.763   2.939   2.162
 3134SOL    HW1 9420   3.862   2.928   2.153
 3134SOL    HW2 9421   3.723   2.853   2.194
 3135SOL     OW 9422   4.599   3.508   2.199
 3135SOL    HW1 9423   4.522   3.473   2.145
 3135SOL    HW2 9424   4.567   3.579   2.261
 3136SOL     OW 9425   3.954   2.490   3.837
 3136SOL    HW1 9426   3.861   2.488   3.874
 3136SOL    HW2 9427   3.955   2.451   3.745
 3137SOL     OW 9428   3.949   2.137   4.720
 3137SOL    HW1 9429   3.984   2.120   4.812
 3137SOL    HW2 9430   3.861   2.092   4.708
 3138SOL     OW 9431   3.743   2.230   4.371
 3138SOL    HW1 9432   3.661   2.273   4.410
 3138SOL    HW2 9433   3.715   2.157   4.308
 3139SOL     OW 9434   4.492   3.006   4.747
 3139SOL    HW1 9435   4.414   3.023   4.807
 3139SOL    HW2 9436   4.526   3.093   4.711
 3140SOL     OW 9437   4.409   2.874   4.389
 3140SOL    HW1 9438   4.478   2.858   4.459
 3140SOL    HW2 9439   4.336   2.931   4.427
 3141SOL     OW 9440   3.955   3.575   4.207
 3141SOL    HW1 9441   3.989   3.652   4.261
 3141SOL    HW2 9442   3.999   3.575   4.117
 3142SOL     OW 9443   3.954   3.296   4.262
 3142SOL    HW1 9444   3.928   3.392   4.262
 3142SOL    HW2 9445   3.883   3.242   4.307
 3143SOL     OW 9446   3.964   2.953   4.610
 3143SOL    HW1 9447   3.978   2.869   4.662
 3143SOL    HW2 9448   3.909   3.017   4.665
 3144SOL     OW 9449   4.330   2.826   3.847
 3144SOL    HW1 9450   4.337   2.910   3.793
 3144SOL    HW2 9451   4.376   2.839   3.935
 3145SOL     OW 9452   3.846   2.505   4.287
 3145SOL    HW1 9453   3.801   2.417   4.304
 3145SOL    HW2 9454   3.845   2.559   4.371
 3146SOL     OW 9455   3.751   3.458   3.841
 3146SOL    HW1 9456   3.732   3.362   3.862
 3146SOL    HW2 9457   3.718   3.516   3.916
 3147SOL     OW 9458   4.337   3.227   4.450
 3147SOL    HW1 9459   4.288   3.140   4.459
 3147SOL    HW2 9460   4.314   3.270   4.363
 3148SOL     OW 9461   4.533   1.866   4.226
 3148SOL    HW1 9462   4.573   1.957   4.217
 3148SOL    HW2 9463   4.433   1.874   4.232
 3149SOL     OW 9464   4.322   2.591   3.994
 3149SOL    HW1 9465   4.346   2.660   3.926
 3149SOL    HW2 9466   4.244   2.624   4.048
 3150SOL     OW 9467   3.800   2.673   4.513
 3150SOL    HW1 9468   3.899   2.661   4.522
 3150SOL    HW2 9469   3.776   2.768   4.534
 3151SOL     OW 9470   4.589   2.210   3.919
 3151SOL    HW1 9471   4.648   2.273   3.870
 3151SOL    HW2 9472   4.608   2.116   3.890
 3152SOL     OW 9473   4.274   2.058   4.609
 3152SOL    HW1 9474   4.269   2.053   4.709
 3152SOL    HW2 9475   4.276   2.154   4.580
 3153SOL     OW 9476   4.732   3.318   4.201
 3153SOL    HW1 9477   4.686   3.390   4.149
 3153SOL    HW2 9478   4.728   3.338   4.299
 3154SOL     OW 9479   4.075   3.663   4.577
 3154SOL    HW1 9480   4.125   3.577   4.583
 3154SOL    HW2 9481   4.140   3.740   4.574
 3155SOL     OW 9482   4.045   2.805   3.966
 3155SOL    HW1 9483   4.127   2.844   3.924
 3155SOL    HW2 9484   4.018   2.723   3.917
 3156SOL     OW 9485   4.835   3.638   3.961
 3156SOL    HW1 9486   4.775   3.576   4.011
 3156SOL    HW2 9487   4.866   3.594   3.876
 3157SOL     OW 9488   4.188   3.605   4.047
 3157SOL    HW1 9489   4.221   3.644   4.133
 3157SOL    HW2 9490   4.264   3.598   3.982
 3158SOL     OW 9491   4.106   2.562   4.204
 3158SOL    HW1 9492   4.151   2.472   4.201
 3158SOL    HW2 9493   4.012   2.551   4.237
 3159SOL     OW 9494   4.338   1.984   3.841
 3159SOL    HW1 9495   4.436   1.962   3.848
 3159SOL    HW2 9496   4.307   1.967   3.748
 3160SOL     OW 9497   4.527   3.264   4.648
 3160SOL    HW1 9498   4.617   3.278   4.606
 3160SOL    HW2 9499   4.456   3.266   4.577
 3161SOL     OW 9500   4.263   1.926   4.236
 3161SOL    HW1 9501   4.182   1.927   4.294
 3161SOL    HW2 9502   4.266   2.009   4.181
 3162SOL     OW 9503   4.021   1.897   3.895
 3162SOL    HW1 9504   4.070   1.981   3.874
 3162SOL    HW2 9505   4.083   1.832   3.940
 3163SOL     OW 9506   4.183   3.014   4.465
 3163SOL    HW1 9507   4.112   2.987   4.530
 3163SOL    HW2 9508   4.157   2.986   4.372
 3164SOL     OW 9509   4.212   3.247   3.898
 3164SOL    HW1 9510   4.125   3.232   3.945
 3164SOL    HW2 9511   4.195   3.273   3.803
 3165SOL     OW 9512   4.251   2.118   4.052
 3165SOL    HW1 9513   4.278   2.059   3.977
 3165SOL    HW2 9514   4.251   2.213   4.021
 3166SOL     OW 9515   4.429   2.912   4.092
 3166SOL    HW1 9516   4.415   2.919   4.191
 3166SOL    HW2 9517   4.513   2.861   4.074
 3167SOL     OW 9518   4.091   2.962   4.225
 3167SOL    HW1 9519   4.084   3.045   4.169
 3167SOL    HW2 9520   4.095   2.882   4.165
 3168SOL     OW 9521   4.290   2.399   4.589
 3168SOL    HW1 9522   4.302   2.465   4.515
 3168SOL    HW2 9523   4.336   2.433   4.672
 3169SOL     OW 9524   4.933   2.387   3.999
 3169SOL    HW1 9525   4.946   2.303   4.053
 3169SOL    HW2 9526   4.904   2.461   4.059
 3170SOL     OW 9527   4.456   2.496   4.788
 3170SOL    HW1 9528   4.515   2.470   4.712
 3170SOL    HW2 9529   4.428   2.592   4.777
 3171SOL     OW 9530   4.031   1.925   4.342
 3171SOL    HW1 9531   4.020   2.019   4.375
 3171SOL    HW2 9532   4.026   1.862   4.419
 3172SOL     OW 9533   4.747   2.628   4.690
 3172SOL    HW1 9534   4.762   2.649   4.786
 3172SOL    HW2 9535   4.717   2.533   4.681
 3173SOL     OW 9536   3.732   3.188   3.924
 3173SOL    HW1 9537   3.639   3.209   3.893
 3173SOL    HW2 9538   3.742   3.089   3.937
 3174SOL     OW 9539   3.812   3.663   4.651
 3174SOL    HW1 9540   3.770   3.577   4.624
 3174SOL    HW2 9541   3.906   3.666   4.617
 3175SOL     OW 9542   4.228   3.430   4.634
 3175SOL    HW1 9543   4.294   3.504   4.643
 3175SOL    HW2 9544   4.272   3.351   4.592
 3176SOL     OW 9545   4.539   2.434   4.049
 3176SOL    HW1 9546   4.546   2.345   4.003
 3176SOL    HW2 9547   4.445   2.468   4.041
 3177SOL     OW 9548   4.197   2.362   3.915
 3177SOL    HW1 9549   4.258   2.442   3.919
 3177SOL    HW2 9550   4.102   2.393   3.922
 3178SOL     OW 9551   4.627   1.948   3.857
 3178SOL    HW1 9552   4.678   1.949   3.771
 3178SOL    HW2 9553   4.683   1.906   3.928
 3179SOL     OW 9554   4.396   3.478   3.878
 3179SOL    HW1 9555   4.405   3.488   3.779
 3179SOL    HW2 9556   4.356   3.389   3.899
 3180SOL     OW 9557   3.987   2.188   4.444
 3180SOL    HW1 9558   3.908   2.239   4.410
 3180SOL    HW2 9559   3.978   2.173   4.542
 3181SOL     OW 9560   4.314   3.349   4.215
 3181SOL    HW1 9561   4.356   3.291   4.145
 3181SOL    HW2 9562   4.270   3.428   4.171
 3182SOL     OW 9563   3.979   3.210   4.014
 3182SOL    HW1 9564   3.883   3.211   3.987
 3182SOL    HW2 9565   3.991   3.263   4.098
 3183SOL     OW 9566   3.799   2.207   3.757
 3183SOL    HW1 9567   3.707   2.179   3.728
 3183SOL    HW2 9568   3.830   2.284   3.701
 3184SOL     OW 9569   3.796   2.028   4.042
 3184SOL    HW1 9570   3.779   2.111   3.988
 3184SOL    HW2 9571   3.886   1.991   4.020
 3185SOL     OW 9572   4.318   2.607   4.376
 3185SOL    HW1 9573   4.368   2.692   4.357
 3185SOL    HW2 9574   4.230   2.609   4.328
 3186SOL     OW 9575   4.385   3.652   4.677
 3186SOL    HW1 9576   4.339   3.740   4.664
 3186SOL    HW2 9577   4.484   3.664   4.670
 3187SOL     OW 9578   4.583   2.818   4.585
 3187SOL    HW1 9579   4.637   2.749   4.633
 3187SOL    HW2 9580   4.551   2.887   4.651
 3188SOL     OW 9581   3.803   3.102   4.377
 3188SOL    HW1 9582   3.802   3.055   4.465
 3188SOL    HW2 9583   3.885   3.074   4.326
 3189SOL     OW 9584   4.152   2.286   4.244
 3189SOL    HW1 9585   4.182   2.214   4.182
 3189SOL    HW2 9586   4.113   2.246   4.327
 3190SOL     OW 9587   4.536   3.448   4.411
 3190SOL    HW1 9588   4.568   3.458   4.317
 3190SOL    HW2 9589   4.457   3.386   4.413
 3191SOL     OW 9590   4.494   3.192   4.025
 3191SOL    HW1 9591   4.448   3.105   4.042
 3191SOL    HW2 9592   4.585   3.189   4.066
 3192SOL     OW 9593   3.763   2.939   4.024
 3192SOL    HW1 9594   3.862   2.928   4.015
 3192SOL    HW2 9595   3.723   2.853   4.056
 3193SOL     OW 9596   4.599   3.508   4.061
 3193SOL    HW1 9597   4.522   3.473   4.007
 3193SOL    HW2 9598   4.567   3.579   4.123
 3194SOL     OW 9599   3.954   4.352   0.113
 3194SOL    HW1 9600   3.861   4.350   0.150
 3194SOL    HW2 9601   3.955   4.313   0.021
 3195SOL     OW 9602   3.949   3.999   0.996
 3195SOL    HW1 9603   3.984   3.982   1.088
 3195SOL    HW2 9604   3.861   3.954   0.984
 3196SOL     OW 9605   3.743   4.092   0.647
 3196SOL    HW1 9606   3.661   4.135   0.686
 3196SOL    HW2 9607   3.715   4.019   0.584
 3197SOL     OW 9608   4.574   4.522   1.823
 3197SOL    HW1 9609   4.570   4.598   1.888
 3197SOL    HW2 9610   4.596   4.558   1.732
 3198SOL     OW 9611   4.409   4.736   0.665
 3198SOL    HW1 9612   4.478   4.720   0.735
 3198SOL    HW2 9613   4.336   4.793   0.703
 3199SOL     OW 9614   4.162   4.116   1.499
 3199SOL    HW1 9615   4.244   4.060   1.508
 3199SOL    HW2 9616   4.081   4.058   1.503
 3200SOL     OW 9617   3.846   4.367   0.563
 3200SOL    HW1 9618   3.801   4.279   0.580
 3200SOL    HW2 9619   3.845   4.421   0.647
 3201SOL     OW 9620   3.837   4.461   1.597
 3201SOL    HW1 9621   3.925   4.448   1.642
 3201SOL    HW2 9622   3.824   4.558   1.575
 3202SOL     OW 9623   4.533   3.728   0.502
 3202SOL    HW1 9624   4.573   3.819   0.493
 3202SOL    HW2 9625   4.433   3.736   0.508
 3203SOL     OW 9626   4.041   3.975   1.801
 3203SOL    HW1 9627   4.112   4.046   1.807
 3203SOL    HW2 9628   3.953   4.014   1.829
 3204SOL     OW 9629   4.322   4.453   0.270
 3204SOL    HW1 9630   4.346   4.522   0.202
 3204SOL    HW2 9631   4.244   4.486   0.324
 3205SOL     OW 9632   4.531   4.329   1.465
 3205SOL    HW1 9633   4.484   4.326   1.554
 3205SOL    HW2 9634   4.480   4.274   1.399
 3206SOL     OW 9635   3.800   4.535   0.789
 3206SOL    HW1 9636   3.899   4.523   0.798
 3206SOL    HW2 9637   3.776   4.630   0.810
 3207SOL     OW 9638   4.589   4.072   0.195
 3207SOL    HW1 9639   4.648   4.135   0.146
 3207SOL    HW2 9640   4.608   3.978   0.166
 3208SOL     OW 9641   4.274   3.920   0.885
 3208SOL    HW1 9642   4.269   3.915   0.985
 3208SOL    HW2 9643   4.276   4.016   0.856
 3209SOL     OW 9644   3.926   4.009   1.498
 3209SOL    HW1 9645   3.846   4.069   1.485
 3209SOL    HW2 9646   3.916   3.960   1.584
 3210SOL     OW 9647   4.106   4.424   0.480
 3210SOL    HW1 9648   4.151   4.334   0.477
 3210SOL    HW2 9649   4.012   4.413   0.513
 3211SOL     OW 9650   4.505   3.988   1.749
 3211SOL    HW1 9651   4.572   3.927   1.792
 3211SOL    HW2 9652   4.432   4.007   1.814
 3212SOL     OW 9653   4.646   4.227   0.899
 3212SOL    HW1 9654   4.621   4.218   0.803
 3212SOL    HW2 9655   4.694   4.145   0.930
 3213SOL     OW 9656   4.263   3.788   0.512
 3213SOL    HW1 9657   4.182   3.789   0.570
 3213SOL    HW2 9658   4.266   3.871   0.457
 3214SOL     OW 9659   4.021   3.759   0.171
 3214SOL    HW1 9660   4.070   3.843   0.150
 3214SOL    HW2 9661   4.083   3.694   0.216
 3215SOL     OW 9662   3.802   4.280   1.386
 3215SOL    HW1 9663   3.894   4.279   1.345
 3215SOL    HW2 9664   3.796   4.354   1.453
 3216SOL     OW 9665   4.285   3.946   1.147
 3216SOL    HW1 9666   4.323   3.862   1.184
 3216SOL    HW2 9667   4.197   3.965   1.191
 3217SOL     OW 9668   4.251   3.980   0.328
 3217SOL    HW1 9669   4.278   3.921   0.253
 3217SOL    HW2 9670   4.251   4.075   0.297
 3218SOL     OW 9671   4.639   3.813   1.402
 3218SOL    HW1 9672   4.664   3.793   1.307
 3218SOL    HW2 9673   4.711   3.869   1.444
 3219SOL     OW 9674   4.134   4.537   1.251
 3219SOL    HW1 9675   4.220   4.549   1.301
 3219SOL    HW2 9676   4.092   4.450   1.278
 3220SOL     OW 9677   4.290   4.261   0.865
 3220SOL    HW1 9678   4.302   4.327   0.791
 3220SOL    HW2 9679   4.336   4.295   0.948
 3221SOL     OW 9680   4.126   4.475   1.598
 3221SOL    HW1 9681   4.194   4.530   1.551
 3221SOL    HW2 9682   4.166   4.387   1.625
 3222SOL     OW 9683   4.228   3.774   1.740
 3222SOL    HW1 9684   4.186   3.717   1.670
 3222SOL    HW2 9685   4.162   3.843   1.772
 3223SOL     OW 9686   4.297   4.594   1.029
 3223SOL    HW1 9687   4.341   4.683   1.020
 3223SOL    HW2 9688   4.234   4.594   1.106
 3224SOL     OW 9689   4.933   4.249   0.275
 3224SOL    HW1 9690   4.946   4.165   0.329
 3224SOL    HW2 9691   4.904   4.323   0.335
 3225SOL     OW 9692   4.031   3.937   1.231
 3225SOL    HW1 9693   4.008   3.974   1.321
 3225SOL    HW2 9694   4.001   3.842   1.225
 3226SOL     OW 9695   4.456   4.358   1.064
 3226SOL    HW1 9696   4.515   4.332   0.988
 3226SOL    HW2 9697   4.428   4.454   1.053
 3227SOL     OW 9698   4.031   3.787   0.618
 3227SOL    HW1 9699   4.020   3.881   0.651
 3227SOL    HW2 9700   4.026   3.724   0.695
 3228SOL     OW 9701   4.747   4.490   0.966
 3228SOL    HW1 9702   4.762   4.511   1.062
 3228SOL    HW2 9703   4.717   4.395   0.957
 3229SOL     OW 9704   4.074   4.622   1.804
 3229SOL    HW1 9705   4.150   4.666   1.852
 3229SOL    HW2 9706   4.109   4.575   1.722
 3230SOL     OW 9707   4.043   4.534   0.949
 3230SOL    HW1 9708   4.136   4.570   0.954
 3230SOL    HW2 9709   4.037   4.449   1.001
 3231SOL     OW 9710   4.063   4.233   1.006
 3231SOL    HW1 9711   4.011   4.150   0.989
 3231SOL    HW2 9712   4.140   4.238   0.942
 3232SOL     OW 9713   4.726   4.520   1.238
 3232SOL    HW1 9714   4.767   4.488   1.324
 3232SOL    HW2 9715   4.630   4.493   1.235
 3233SOL     OW 9716   3.764   4.268   1.114
 3233SOL    HW1 9717   3.849   4.235   1.073
 3233SOL    HW2 9718   3.777   4.283   1.212
 3234SOL     OW 9719   3.913   4.244   1.722
 3234SOL    HW1 9720   3.972   4.204   1.652
 3234SOL    HW2 9721   3.855   4.315   1.681
 3235SOL     OW 9722   4.539   4.296   0.325
 3235SOL    HW1 9723   4.546   4.207   0.279
 3235SOL    HW2 9724   4.445   4.330   0.317
 3236SOL     OW 9725   4.395   4.188   1.269
 3236SOL    HW1 9726   4.361   4.099   1.239
 3236SOL    HW2 9727   4.421   4.242   1.189
 3237SOL     OW 9728   4.197   4.224   0.191
 3237SOL    HW1 9729   4.258   4.304   0.195
 3237SOL    HW2 9730   4.102   4.255   0.198
 3238SOL     OW 9731   4.627   3.810   0.133
 3238SOL    HW1 9732   4.678   3.811   0.047
 3238SOL    HW2 9733   4.683   3.768   0.204
 3239SOL     OW 9734   3.987   4.050   0.720
 3239SOL    HW1 9735   3.908   4.101   0.686
 3239SOL    HW2 9736   3.978   4.035   0.818
 3240SOL     OW 9737   4.763   4.822   0.696
 3240SOL    HW1 9738   4.693   4.775   0.750
 3240SOL    HW2 9739   4.822   4.754   0.653
 3241SOL     OW 9740   3.829   4.737   1.726
 3241SOL    HW1 9741   3.752   4.704   1.780
 3241SOL    HW2 9742   3.914   4.707   1.768
 3242SOL     OW 9743   4.396   3.927   1.489
 3242SOL    HW1 9744   4.486   3.911   1.449
 3242SOL    HW2 9745   4.404   3.932   1.588
 3243SOL     OW 9746   3.796   3.890   0.318
 3243SOL    HW1 9747   3.779   3.973   0.264
 3243SOL    HW2 9748   3.886   3.853   0.296
 3244SOL     OW 9749   4.337   4.566   1.431
 3244SOL    HW1 9750   4.393   4.647   1.414
 3244SOL    HW2 9751   4.396   4.486   1.434
 3245SOL     OW 9752   4.440   4.289   1.708
 3245SOL    HW1 9753   4.459   4.354   1.782
 3245SOL    HW2 9754   4.500   4.209   1.717
 3246SOL     OW 9755   4.318   4.469   0.652
 3246SOL    HW1 9756   4.368   4.554   0.633
 3246SOL    HW2 9757   4.230   4.471   0.604
 3247SOL     OW 9758   4.583   4.680   0.861
 3247SOL    HW1 9759   4.637   4.611   0.909
 3247SOL    HW2 9760   4.551   4.749   0.927
 3248SOL     OW 9761   4.152   4.148   0.520
 3248SOL    HW1 9762   4.182   4.076   0.458
 3248SOL    HW2 9763   4.113   4.108   0.603
 3249SOL     OW 9764   4.041   4.271   1.280
 3249SOL    HW1 9765   4.079   4.212   1.352
 3249SOL    HW2 9766   4.081   4.245   1.192
 3250SOL     OW 9767   4.725   3.758   1.154
 3250SOL    HW1 9768   4.662   3.686   1.123
 3250SOL    HW2 9769   4.818   3.722   1.154
 3251SOL     OW 9770   3.954   4.352   1.975
 3251SOL    HW1 9771   3.861   4.350   2.012
 3251SOL    HW2 9772   3.955   4.313   1.883
 3252SOL     OW 9773   3.949   3.999   2.858
 3252SOL    HW1 9774   3.984   3.982   2.950
 3252SOL    HW2 9775   3.861   3.954   2.846
 3253SOL     OW 9776   3.743   4.092   2.509
 3253SOL    HW1 9777   3.661   4.135   2.548
 3253SOL    HW2 9778   3.715   4.019   2.446
 3254SOL     OW 9779   4.574   4.522   3.685
 3254SOL    HW1 9780   4.570   4.598   3.750
 3254SOL    HW2 9781   4.596   4.558   3.594
 3255SOL     OW 9782   4.409   4.736   2.527
 3255SOL    HW1 9783   4.478   4.720   2.597
 3255SOL    HW2 9784   4.336   4.793   2.565
 3256SOL     OW 9785   4.162   4.116   3.361
 3256SOL    HW1 9786   4.244   4.060   3.370
 3256SOL    HW2 9787   4.081   4.058   3.365
 3257SOL     OW 9788   3.846   4.367   2.425
 3257SOL    HW1 9789   3.801   4.279   2.442
 3257SOL    HW2 9790   3.845   4.421   2.509
 3258SOL     OW 9791   3.837   4.461   3.459
 3258SOL    HW1 9792   3.925   4.448   3.504
 3258SOL    HW2 9793   3.824   4.558   3.437
 3259SOL     OW 9794   4.533   3.728   2.364
 3259SOL    HW1 9795   4.573   3.819   2.355
 3259SOL    HW2 9796   4.433   3.736   2.370
 3260SOL     OW 9797   4.041   3.975   3.663
 3260SOL    HW1 9798   4.112   4.046   3.669
 3260SOL    HW2 9799   3.953   4.014   3.691
 3261SOL     OW 9800   4.322   4.453   2.132
 3261SOL    HW1 9801   4.346   4.522   2.064
 3261SOL    HW2 9802   4.244   4.486   2.186
 3262SOL     OW 9803   4.531   4.329   3.327
 3262SOL    HW1 9804   4.484   4.326   3.416
 3262SOL    HW2 9805   4.480   4.274   3.261
 3263SOL     OW 9806   3.800   4.535   2.651
 3263SOL    HW1 9807   3.899   4.523   2.660
 3263SOL    HW2 9808   3.776   4.630   2.672
 3264SOL     OW 9809   4.589   4.072   2.057
 3264SOL    HW1 9810   4.648   4.135   2.008
 3264SOL    HW2 9811   4.608   3.978   2.028
 3265SOL     OW 9812   4.274   3.920   2.747
 3265SOL    HW1 9813   4.269   3.915   2.847
 3265SOL    HW2 9814   4.276   4.016   2.718
 3266SOL     OW 9815   3.926   4.009   3.360
 3266SOL    HW1 9816   3.846   4.069   3.347
 3266SOL    HW2 9817   3.916   3.960   3.446
 3267SOL     OW 9818   4.106   4.424   2.342
 3267SOL    HW1 9819   4.151   4.334   2.339
 3267SOL    HW2 9820   4.012   4.413   2.375
 3268SOL     OW 9821   4.338   3.846   1.979
 3268SOL    HW1 9822   4.436   3.824   1.986
 3268SOL    HW2 9823   4.307   3.829   1.886
 3269SOL     OW 9824   4.505   3.988   3.611
 3269SOL    HW1 9825   4.572   3.927   3.654
 3269SOL    HW2 9826   4.432   4.007   3.676
 3270SOL     OW 9827   4.646   4.227   2.761
 3270SOL    HW1 9828   4.621   4.218   2.665
 3270SOL    HW2 9829   4.694   4.145   2.792
 3271SOL     OW 9830   4.263   3.788   2.374
 3271SOL    HW1 9831   4.182   3.789   2.432
 3271SOL    HW2 9832   4.266   3.871   2.319
 3272SOL     OW 9833   4.021   3.759   2.033
 3272SOL    HW1 9834   4.070   3.843   2.012
 3272SOL    HW2 9835   4.083   3.694   2.078
 3273SOL     OW 9836   3.802   4.280   3.248
 3273SOL    HW1 9837   3.894   4.279   3.207
 3273SOL    HW2 9838   3.796   4.354   3.315
 3274SOL     OW 9839   4.285   3.946   3.009
 3274SOL    HW1 9840   4.323   3.862   3.046
 3274SOL    HW2 9841   4.197   3.965   3.053
 3275SOL     OW 9842   4.251   3.980   2.190
 3275SOL    HW1 9843   4.278   3.921   2.115
 3275SOL    HW2 9844   4.251   4.075   2.159
 3276SOL     OW 9845   4.639   3.813   3.264
 3276SOL    HW1 9846   4.664   3.793   3.169
 3276SOL    HW2 9847   4.711   3.869   3.306
 3277SOL     OW 9848   4.134   4.537   3.113
 3277SOL    HW1 9849   4.220   4.549   3.163
 3277SOL    HW2 9850   4.092   4.450   3.140
 3278SOL     OW 9851   4.290   4.261   2.727
 3278SOL    HW1 9852   4.302   4.327   2.653
 3278SOL    HW2 9853   4.336   4.295   2.810
 3279SOL     OW 9854   4.126   4.475   3.460
 3279SOL    HW1 9855   4.194   4.530   3.413
 3279SOL    HW2 9856   4.166   4.387   3.487
 3280SOL     OW 9857   4.228   3.774   3.602
 3280SOL    HW1 9858   4.186   3.717   3.532
 3280SOL    HW2 9859   4.162   3.843   3.634
 3281SOL     OW 9860   4.297   4.594   2.891
 3281SOL    HW1 9861   4.341   4.683   2.882
 3281SOL    HW2 9862   4.234   4.594   2.968
 3282SOL     OW 9863   4.933   4.249   2.137
 3282SOL    HW1 9864   4.946   4.165   2.191
 3282SOL    HW2 9865   4.904   4.323   2.197
 3283SOL     OW 9866   4.031   3.937   3.093
 3283SOL    HW1 9867   4.008   3.974   3.183
 3283SOL    HW2 9868   4.001   3.842   3.087
 3284SOL     OW 9869   4.456   4.358   2.926
 3284SOL    HW1 9870   4.515   4.332   2.850
 3284SOL    HW2 9871   4.428   4.454   2.915
 3285SOL     OW 9872   4.031   3.787   2.480
 3285SOL    HW1 9873   4.020   3.881   2.513
 3285SOL    HW2 9874   4.026   3.724   2.557
 3286SOL     OW 9875   4.747   4.490   2.828
 3286SOL    HW1 9876   4.762   4.511   2.924
 3286SOL    HW2 9877   4.717   4.395   2.819
 3287SOL     OW 9878   4.074   4.622   3.666
 3287SOL    HW1 9879   4.150   4.666   3.714
 3287SOL    HW2 9880   4.109   4.575   3.584
 3288SOL     OW 9881   4.043   4.534   2.811
 3288SOL    HW1 9882   4.136   4.570   2.816
 3288SOL    HW2 9883   4.037   4.449   2.863
 3289SOL     OW 9884   4.063   4.233   2.868
 3289SOL    HW1 9885   4.011   4.150   2.851
 3289SOL    HW2 9886   4.140   4.238   2.804
 3290SOL     OW 9887   4.726   4.520   3.100
 3290SOL    HW1 9888   4.767   4.488   3.186
 3290SOL    HW2 9889   4.630   4.493   3.097
 3291SOL     OW 9890   3.764   4.268   2.976
 3291SOL    HW1 9891   3.849   4.235   2.935
 3291SOL    HW2 9892   3.777   4.283   3.074
 3292SOL     OW 9893   3.913   4.244   3.584
 3292SOL    HW1 9894   3.972   4.204   3.514
 3292SOL    HW2 9895   3.855   4.315   3.543
 3293SOL     OW 9896   4.539   4.296   2.187
 3293SOL    HW1 9897   4.546   4.207   2.141
 3293SOL    HW2 9898   4.445   4.330   2.179
 3294SOL     OW 9899   4.395   4.188   3.131
 3294SOL    HW1 9900   4.361   4.099   3.101
 3294SOL    HW2 9901   4.421   4.242   3.051
 3295SOL     OW 9902   4.197   4.224   2.053
 3295SOL    HW1 9903   4.258   4.304   2.057
 3295SOL    HW2 9904   4.102   4.255   2.060
 3296SOL     OW 9905   4.627   3.810   1.995
 3296SOL    HW1 9906   4.678   3.811   1.909
 3296SOL    HW2 9907   4.683   3.768   2.066
 3297SOL     OW 9908   3.987   4.050   2.582
 3297SOL    HW1 9909   3.908   4.101   2.548
 3297SOL    HW2 9910   3.978   4.035   2.680
 3298SOL     OW 9911   4.763   4.822   2.558
 3298SOL    HW1 9912   4.693   4.775   2.612
 3298SOL    HW2 9913   4.822   4.754   2.515
 3299SOL     OW 9914   3.829   4.737   3.588
 3299SOL    HW1 9915   3.752   4.704   3.642
 3299SOL    HW2 9916   3.914   4.707   3.630
 3300SOL     OW 9917   4.396   3.927   3.351
 3300SOL    HW1 9918   4.486   3.911   3.311
 3300SOL    HW2 9919   4.404   3.932   3.450
 3301SOL     OW 9920   3.799   4.069   1.895
 3301SOL    HW1 9921   3.707   4.041   1.866
 3301SOL    HW2 9922   3.830   4.146   1.839
 3302SOL     OW 9923   3.796   3.890   2.180
 3302SOL    HW1 9924   3.779   3.973   2.126
 3302SOL    HW2 9925   3.886   3.853   2.158
 3303SOL     OW 9926   4.337   4.566   3.293
 3303SOL    HW1 9927   4.393   4.647   3.276
 3303SOL    HW2 9928   4.396   4.486   3.296
 3304SOL     OW 9929   4.440   4.289   3.570
 3304SOL    HW1 9930   4.459   4.354   3.644
 3304SOL    HW2 9931   4.500   4.209   3.579
 3305SOL     OW 9932   4.318   4.469   2.514
 3305SOL    HW1 9933   4.368   4.554   2.495
 3305SOL    HW2 9934   4.230   4.471   2.466
 3306SOL     OW 9935   4.583   4.680   2.723
 3306SOL    HW1 9936   4.637   4.611   2.771
 3306SOL    HW2 9937   4.551   4.749   2.789
 3307SOL     OW 9938   4.152   4.148   2.382
 3307SOL    HW1 9939   4.182   4.076   2.320
 3307SOL    HW2 9940   4.113   4.108   2.465
 3308SOL     OW 9941   4.041   4.271   3.142
 3308SOL    HW1 9942   4.079   4.212   3.214
 3308SOL    HW2 9943   4.081   4.245   3.054
 3309SOL     OW 9944   4.725   3.758   3.016
 3309SOL    HW1 9945   4.662   3.686   2.985
 3309SOL    HW2 9946   4.818   3.722   3.016
 3310SOL     OW 9947   3.954   4.352   3.837
 3310SOL    HW1 9948   3.861   4.350   3.874
 3310SOL    HW2 9949   3.955   4.313   3.745
 3311SOL     OW 9950   3.949   3.999   4.720
 3311SOL    HW1 9951   3.984   3.982   4.812
 3311SOL    HW2 9952   3.861   3.954   4.708
 3312SOL     OW 9953   3.743   4.092   4.371
 3312SOL    HW1 9954   3.661   4.135   4.410
 3312SOL    HW2 9955   3.715   4.019   4.308
 3313SOL     OW 9956   4.409   4.736   4.389
 3313SOL    HW1 9957   4.478   4.720   4.459
 3313SOL    HW2 9958   4.336   4.793   4.427
 3314SOL     OW 9959   3.846   4.367   4.287
 3314SOL    HW1 9960   3.801   4.279   4.304
 3314SOL    HW2 9961   3.845   4.421   4.371
 3315SOL     OW 9962   4.533   3.728   4.226
 3315SOL    HW1 9963   4.573   3.819   4.217
 3315SOL    HW2 9964   4.433   3.736   4.232
 3316SOL     OW 9965   4.322   4.453   3.994
 3316SOL    HW1 9966   4.346   4.522   3.926
 3316SOL    HW2 9967   4.244   4.486   4.048
 3317SOL     OW 9968   3.800   4.535   4.513
 3317SOL    HW1 9969   3.899   4.523   4.522
 3317SOL    HW2 9970   3.776   4.630   4.534
 3318SOL     OW 9971   4.589   4.072   3.919
 3318SOL    HW1 9972   4.648   4.135   3.870
 3318SOL    HW2 9973   4.608   3.978   3.890
 3319SOL     OW 9974   4.274   3.920   4.609
 3319SOL    HW1 9975   4.269   3.915   4.709
 3319SOL    HW2 9976   4.276   4.016   4.580
 3320SOL     OW 9977   4.106   4.424   4.204
 3320SOL    HW1 9978   4.151   4.334   4.201
 3320SOL    HW2 9979   4.012   4.413   4.237
 3321SOL     OW 9980   4.338   3.846   3.841
 3321SOL    HW1 9981   4.436   3.824   3.848
 3321SOL    HW2 9982   4.307   3.829   3.748
 3322SOL     OW 9983   4.263   3.788   4.236
 3322SOL    HW1 9984   4.182   3.789   4.294
 3322SOL    HW2 9985   4.266   3.871   4.181
 3323SOL     OW 9986   4.021   3.759   3.895
 3323SOL    HW1 9987   4.070   3.843   3.874
 3323SOL    HW2 9988   4.083   3.694   3.940
 3324SOL     OW 9989   4.251   3.980   4.052
 3324SOL    HW1 9990   4.278   3.921   3.977
 3324SOL    HW2 9991   4.251   4.075   4.021
 3325SOL     OW 9992   4.290   4.261   4.589
 3325SOL    HW1 9993   4.302   4.327   4.515
 3325SOL    HW2 9994   4.336   4.295   4.672
 3326SOL     OW 9995   4.933   4.249   3.999
 3326SOL    HW1 9996   4.946   4.165   4.053
 3326SOL    HW2 9997   4.904   4.323   4.059
 3327SOL     OW 9998   4.456   4.358   4.788
 3327SOL    HW1 9999   4.515   4.332   4.712
 3327SOL    HW210000   4.428   4.454   4.777
 3328SOL     OW10001   4.031   3.787   4.342
 3328SOL    HW110002   4.020   3.881   4.375
 3328SOL    HW210003   4.026   3.724   4.419
 3329SOL     OW10004   4.747   4.490   4.690
 3329SOL    HW110005   4.762   4.511   4.786
 3329SOL    HW210006   4.717   4.395   4.681
 3330SOL     OW10007   4.539   4.296   4.049
 3330SOL    HW110008   4.546   4.207   4.003
 3330SOL    HW210009   4.445   4.330   4.041
 3331SOL     OW10010   4.197   4.224   3.915
 3331SOL    HW110011   4.258   4.304   3.919
 3331SOL    HW210012   4.102   4.255   3.922
 3332SOL     OW10013   4.627   3.810   3.857
 3332SOL    HW110014   4.678   3.811   3.771
 3332SOL    HW210015   4.683   3.768   3.928
 3333SOL     OW10016   3.987   4.050   4.444
 3333SOL    HW110017   3.908   4.101   4.410
 3333SOL    HW210018   3.978   4.035   4.542
 3334SOL     OW10019   4.763   4.822   4.420
 3334SOL    HW110020   4.693   4.775   4.474
 3334SOL    HW210021   4.822   4.754   4.377
 3335SOL     OW10022   3.799   4.069   3.757
 3335SOL    HW110023   3.707   4.041   3.728
 3335SOL    HW210024   3.830   4.146   3.701
 3336SOL     OW10025   3.796   3.890   4.042
 3336SOL    HW110026   3.779   3.973   3.988
 3336SOL    HW210027   3.886   3.853   4.020
 3337SOL     OW10028   4.318   4.469   4.376
 3337SOL    HW110029   4.368   4.554   4.357
 3337SOL    HW210030   4.230   4.471   4.328
 3338SOL     OW10031   4.583   4.680   4.585
 3338SOL    HW110032   4.637   4.611   4.633
 3338SOL    HW210033   4.551   4.749   4.651
 3339SOL     OW10034   4.152   4.148   4.244
 3339SOL    HW110035   4.182   4.076   4.182
 3339SOL    HW210036   4.113   4.108   4.327
   4.69010   4.69010   4.69010
