; mobley_9201263_GMX_OPLS.top created by acpype (v: 2023.10.27) on Wed May 20 23:41:33 2026

; Include forcefield parameters
#include "ffoplsaa.itp"

; Include mobley_9201263_GMX.itp topology
#include "mobley_9201263_GMX.itp"

; Ligand position restraints
#ifdef POSRES_LIG
#include "posre_mobley_9201263.itp"
#endif

[ system ]
 mobley_9201263

[ molecules ]
; Compound        nmols
 mobley_9201263   1     
