methyl_methanesulfonate
    12
   0.8890000  -0.5210000   0.3640000   4.3140000   1.3850000   0.5950000
   3.9560000  -1.1140000  -0.0960000   3.4010000  -0.4040000   2.2730000
   1.9820000   0.3850000   0.3490000   3.4450000  -0.1410000   0.8490000
   1.2600000  -1.5380000   0.5130000   0.3460000  -0.4540000  -0.5820000
   0.2200000  -0.2560000   1.1860000   4.9250000   1.5850000   1.4760000
   4.9430000   1.2800000  -0.2910000   3.5800000   2.1790000   0.4510000
