; mobley_9201263_GMX_OPLS.itp created by acpype (v: 2023.10.27) on Wed May 20 23:41:33 2026

; For OPLS atomtypes manual fine tuning
; AC_at:OPLS_at:OPLScode: Possible_Alternatives (see ffoplsaa.atp and ffoplsaanb.itp)
; c3:CT:opls_135: ['136', '137', '149', '157', '158', '206', '209', '210', '223B', '224B', '245', '246', '274', '283', '284', '285', '292', '292B', '293B', '296', '307', '308', '505']
; o:O:opls_236: ['272']
; os:x:opls_x: []
; s6:x:opls_x: []
; h1:HC:opls_140: []

[ moleculetype ]
;name            nrexcl
 mobley_9201263   3

[ atoms ]
;   nr  type  resi  res  atom  cgnr     charge      mass       ; qtot   bond_type
     1 opls_135     1   MOL    C1    1     0.157700     12.01100 ; qtot  0.158  CT  
     2 opls_135     1   MOL    C2    2    -0.392300     12.01100 ; qtot -0.235  CT  
     3 opls_236     1   MOL    O1    3    -0.664800     15.99940 ; qtot -0.899  O   
     4 opls_236     1   MOL    O2    4    -0.664800     15.99940 ; qtot -1.564  O   
     5 opls_x     1   MOL    O3    5    -0.571500      0.00000 ; qtot -2.136  x   
     6 opls_x     1   MOL    S1    6     1.593501      0.00000 ; qtot -0.542  x   
     7 opls_140     1   MOL    H1    7     0.047033      1.00800 ; qtot -0.495  HC  
     8 opls_140     1   MOL    H2    8     0.047033      1.00800 ; qtot -0.448  HC  
     9 opls_140     1   MOL    H3    9     0.047033      1.00800 ; qtot -0.401  HC  
    10 opls_140     1   MOL    H4   10     0.133700      1.00800 ; qtot -0.267  HC  
    11 opls_140     1   MOL    H5   11     0.133700      1.00800 ; qtot -0.134  HC  
    12 opls_140     1   MOL    H6   12     0.133700      1.00800 ; qtot -0.000  HC  

[ bonds ]
;   ai     aj funct   r             k
     1      5   1 ;    1.4273e-01    2.3620e+05 ;     C1 - O3         CT - x     
     1      7   1 ;    1.0969e-01    2.8804e+05 ;     C1 - H1         CT - HC    
     1      8   1 ;    1.0969e-01    2.8804e+05 ;     C1 - H2         CT - HC    
     1      9   1 ;    1.0969e-01    2.8804e+05 ;     C1 - H3         CT - HC    
     2      6   1 ;    1.8127e-01    1.6609e+05 ;     C2 - S1         CT - x     
     2     10   1 ;    1.0969e-01    2.8804e+05 ;     C2 - H4         CT - HC    
     2     11   1 ;    1.0969e-01    2.8804e+05 ;     C2 - H5         CT - HC    
     2     12   1 ;    1.0969e-01    2.8804e+05 ;     C2 - H6         CT - HC    
     3      6   1 ;    1.4657e-01    5.1421e+05 ;     O1 - S1          O - x     
     4      6   1 ;    1.4657e-01    5.1421e+05 ;     O2 - S1          O - x     
     5      6   1 ;    1.6433e-01    3.0107e+05 ;     O3 - S1          x - x     

[ pairs ]
;   ai     aj    funct
     1      2      1 ;     C1 - C2    
     1      3      1 ;     C1 - O1    
     1      4      1 ;     C1 - O2    
     3     10      1 ;     O1 - H4    
     3     11      1 ;     O1 - H5    
     3     12      1 ;     O1 - H6    
     4     10      1 ;     O2 - H4    
     4     11      1 ;     O2 - H5    
     4     12      1 ;     O2 - H6    
     5     10      1 ;     O3 - H4    
     5     11      1 ;     O3 - H5    
     5     12      1 ;     O3 - H6    
     7      6      1 ;     H1 - S1    
     8      6      1 ;     H2 - S1    
     9      6      1 ;     H3 - S1    

[ angles ]
;   ai     aj     ak    funct   theta         cth
     1      5      6      1 ;    1.1573e+02    7.8299e+02 ;     C1 - O3   - S1       CT -    x - x   
     2      6      3      1 ;    1.0851e+02    9.9797e+02 ;     C2 - S1   - O1       CT -    x - O   
     2      6      4      1 ;    1.0851e+02    9.9797e+02 ;     C2 - S1   - O2       CT -    x - O   
     2      6      5      1 ;    9.6450e+01    1.0220e+03 ;     C2 - S1   - O3       CT -    x - x   
     3      6      4      1 ;    1.2021e+02    1.3263e+03 ;     O1 - S1   - O2        O -    x - O   
     3      6      5      1 ;    1.0858e+02    1.3073e+03 ;     O1 - S1   - O3        O -    x - x   
     4      6      5      1 ;    1.0858e+02    1.3073e+03 ;     O2 - S1   - O3        O -    x - x   
     5      1      7      1 ;    1.1034e+02    4.7028e+02 ;     O3 - C1   - H1        x -   CT - HC  
     5      1      8      1 ;    1.1034e+02    4.7028e+02 ;     O3 - C1   - H2        x -   CT - HC  
     5      1      9      1 ;    1.1034e+02    4.7028e+02 ;     O3 - C1   - H3        x -   CT - HC  
     6      2     10      1 ;    1.0707e+02    3.6066e+02 ;     S1 - C2   - H4        x -   CT - HC  
     6      2     11      1 ;    1.0707e+02    3.6066e+02 ;     S1 - C2   - H5        x -   CT - HC  
     6      2     12      1 ;    1.0707e+02    3.6066e+02 ;     S1 - C2   - H6        x -   CT - HC  
     7      1      8      1 ;    1.0855e+02    2.9824e+02 ;     H1 - C1   - H2       HC -   CT - HC  
     7      1      9      1 ;    1.0855e+02    2.9824e+02 ;     H1 - C1   - H3       HC -   CT - HC  
     8      1      9      1 ;    1.0855e+02    2.9824e+02 ;     H2 - C1   - H3       HC -   CT - HC  
    10      2     11      1 ;    1.0855e+02    2.9824e+02 ;     H4 - C2   - H5       HC -   CT - HC  
    10      2     12      1 ;    1.0855e+02    2.9824e+02 ;     H4 - C2   - H6       HC -   CT - HC  
    11      2     12      1 ;    1.0855e+02    2.9824e+02 ;     H5 - C2   - H6       HC -   CT - HC  

[ dihedrals ] ; propers
; for gromacs 4.5 or higher, using funct 9
;    i      j      k      l   func   phase     kd      pn
     1      5      6      2      9 ;     0.00   4.60240   3 ;     C1-    O3-    S1-    C2
     1      5      6      2      9 ;   180.00   1.88280   2 ;     C1-    O3-    S1-    C2
     1      5      6      2      9 ;   180.00   8.36800   1 ;     C1-    O3-    S1-    C2
     1      5      6      3      9 ;   180.00   5.02080   2 ;     C1-    O3-    S1-    O1
     1      5      6      4      9 ;   180.00   5.02080   2 ;     C1-    O3-    S1-    O2
     3      6      2     10      9 ;     0.00   0.60436   3 ;     O1-    S1-    C2-    H4
     3      6      2     11      9 ;     0.00   0.60436   3 ;     O1-    S1-    C2-    H5
     3      6      2     12      9 ;     0.00   0.60436   3 ;     O1-    S1-    C2-    H6
     4      6      2     10      9 ;     0.00   0.60436   3 ;     O2-    S1-    C2-    H4
     4      6      2     11      9 ;     0.00   0.60436   3 ;     O2-    S1-    C2-    H5
     4      6      2     12      9 ;     0.00   0.60436   3 ;     O2-    S1-    C2-    H6
     5      6      2     10      9 ;     0.00   0.60436   3 ;     O3-    S1-    C2-    H4
     5      6      2     11      9 ;     0.00   0.60436   3 ;     O3-    S1-    C2-    H5
     5      6      2     12      9 ;     0.00   0.60436   3 ;     O3-    S1-    C2-    H6
     7      1      5      6      9 ;     0.00   1.60387   3 ;     H1-    C1-    O3-    S1
     8      1      5      6      9 ;     0.00   1.60387   3 ;     H2-    C1-    O3-    S1
     9      1      5      6      9 ;     0.00   1.60387   3 ;     H3-    C1-    O3-    S1
