mobley_9201263_GMX.gro created by acpype (v: 2023.10.27) on Wed May 20 23:41:33 2026
 12
    1  MOL   C1    1   0.089  -0.052   0.036
    1  MOL   C2    2   0.431   0.139   0.059
    1  MOL   O1    3   0.396  -0.111  -0.010
    1  MOL   O2    4   0.340  -0.040   0.227
    1  MOL   O3    5   0.198   0.039   0.035
    1  MOL   S1    6   0.345  -0.014   0.085
    1  MOL   H1    7   0.126  -0.154   0.051
    1  MOL   H2    8   0.035  -0.045  -0.058
    1  MOL   H3    9   0.022  -0.026   0.119
    1  MOL   H4   10   0.492   0.159   0.148
    1  MOL   H5   11   0.494   0.128  -0.029
    1  MOL   H6   12   0.358   0.218   0.045
    9.44600     7.43400     5.71000
