; mobley_9201263_GMX.top created by acpype (v: 2023.10.27) on Wed May 20 23:41:33 2026

[ defaults ]
; nbfunc        comb-rule       gen-pairs       fudgeLJ fudgeQQ
1               2               yes             0.5     0.8333333333

; Include mobley_9201263_GMX.itp topology
#include "mobley_9201263_GMX.itp"

; Ligand position restraints
#ifdef POSRES_LIG
#include "posre_mobley_9201263.itp"
#endif

[ system ]
mobley_9201263 in water

[ molecules ]
; Compound        nmols
 mobley_9201263   1     
SOL              3062
