%VERSION  VERSION_STAMP = V0001.000  DATE = 05/20/26  23:41:34                  
%FLAG TITLE                                                                     
%FORMAT(20a4)                                                                   
methyl_methanesulfonate                                                         
%FLAG POINTERS                                                                  
%FORMAT(10I8)                                                                   
      12       5       6       5      12       7      12       5       0       0
      47       1       5       7       5       5       8       6       5       0
       0       0       0       0       0       0       0       0      12       0
       0
%FLAG ATOM_NAME                                                                 
%FORMAT(20a4)                                                                   
C1  C2  O1  O2  O3  S1  H1  H2  H3  H4  H5  H6  
%FLAG CHARGE                                                                    
%FORMAT(5E16.8)                                                                 
  2.87365671E+00 -7.14860829E+00 -1.21141850E+01 -1.21141850E+01 -1.04140445E+01
  2.90190128E+01  8.57049436E-01  8.57049436E-01  8.57049436E-01  2.43632151E+00
  2.43632151E+00  2.43632151E+00
%FLAG ATOMIC_NUMBER                                                             
%FORMAT(10I8)                                                                   
       6       6       8       8       8      16       1       1       1       1
       1       1
%FLAG MASS                                                                      
%FORMAT(5E16.8)                                                                 
  1.20100000E+01  1.20100000E+01  1.60000000E+01  1.60000000E+01  1.60000000E+01
  3.20600000E+01  1.00800000E+00  1.00800000E+00  1.00800000E+00  1.00800000E+00
  1.00800000E+00  1.00800000E+00
%FLAG ATOM_TYPE_INDEX                                                           
%FORMAT(10I8)                                                                   
       1       1       2       2       3       4       5       5       5       5
       5       5
%FLAG NUMBER_EXCLUDED_ATOMS                                                     
%FORMAT(10I8)                                                                   
       8       7       6       5       7       6       2       1       1       2
       1       1
%FLAG NONBONDED_PARM_INDEX                                                      
%FORMAT(10I8)                                                                   
       1       2       4       7      11       2       3       5       8      12
       4       5       6       9      13       7       8       9      10      14
      11      12      13      14      15
%FLAG RESIDUE_LABEL                                                             
%FORMAT(20a4)                                                                   
MOL 
%FLAG RESIDUE_POINTER                                                           
%FORMAT(10I8)                                                                   
       1
%FLAG BOND_FORCE_CONSTANT                                                       
%FORMAT(5E16.8)                                                                 
  2.82270000E+02  3.44220000E+02  1.98480000E+02  6.14490000E+02  3.59790000E+02
%FLAG BOND_EQUIL_VALUE                                                          
%FORMAT(5E16.8)                                                                 
  1.42730000E+00  1.09690000E+00  1.81270000E+00  1.46570000E+00  1.64330000E+00
%FLAG ANGLE_FORCE_CONSTANT                                                      
%FORMAT(5E16.8)                                                                 
  9.35700000E+01  1.19260000E+02  1.22130000E+02  1.58500000E+02  1.56230000E+02
  5.62000000E+01  4.31000000E+01  3.56400000E+01
%FLAG ANGLE_EQUIL_VALUE                                                         
%FORMAT(5E16.8)                                                                 
  2.01987041E+00  1.89385758E+00  1.68337079E+00  2.09806119E+00  1.89507931E+00
  1.92579712E+00  1.86872483E+00  1.89455572E+00
%FLAG DIHEDRAL_FORCE_CONSTANT                                                   
%FORMAT(5E16.8)                                                                 
  2.00000000E+00  4.50000000E-01  1.10000000E+00  1.20000000E+00  1.44444444E-01
  3.83333333E-01
%FLAG DIHEDRAL_PERIODICITY                                                      
%FORMAT(5E16.8)                                                                 
  1.00000000E+00  2.00000000E+00  3.00000000E+00  2.00000000E+00  3.00000000E+00
  3.00000000E+00
%FLAG DIHEDRAL_PHASE                                                            
%FORMAT(5E16.8)                                                                 
  3.14159400E+00  3.14159400E+00  0.00000000E+00  3.14159400E+00  0.00000000E+00
  0.00000000E+00
%FLAG SCEE_SCALE_FACTOR                                                         
%FORMAT(5E16.8)                                                                 
  1.20000000E+00  1.20000000E+00  1.20000000E+00  1.20000000E+00  1.20000000E+00
  1.20000000E+00
%FLAG SCNB_SCALE_FACTOR                                                         
%FORMAT(5E16.8)                                                                 
  2.00000000E+00  2.00000000E+00  2.00000000E+00  2.00000000E+00  2.00000000E+00
  2.00000000E+00
%FLAG SOLTY                                                                     
%FORMAT(5E16.8)                                                                 
  0.00000000E+00  0.00000000E+00  0.00000000E+00  0.00000000E+00  0.00000000E+00
%FLAG LENNARD_JONES_ACOEF                                                       
%FORMAT(5E16.8)                                                                 
  1.02073671E+06  6.30925504E+05  3.76435470E+05  5.42502534E+05  3.27367585E+05
  2.83662575E+05  2.34552991E+06  1.53564503E+06  1.29636058E+06  4.90327872E+06
  6.97998263E+04  3.86646725E+04  3.44374471E+04  1.91441225E+05  3.39005767E+03
%FLAG LENNARD_JONES_BCOEF                                                       
%FORMAT(5E16.8)                                                                 
  6.63431737E+02  5.62969425E+02  4.69350655E+02  4.38146883E+02  3.67361018E+02
  2.87011518E+02  8.73669684E+02  7.63007119E+02  5.88395242E+02  1.09738109E+03
  1.14981426E+02  9.23664132E+01  7.31636661E+01  1.65426719E+02  1.67944276E+01
%FLAG BONDS_INC_HYDROGEN                                                        
%FORMAT(10I8)                                                                   
       0      18       2       0      21       2       0      24       2       3
      27       2       3      30       2       3      33       2
%FLAG BONDS_WITHOUT_HYDROGEN                                                    
%FORMAT(10I8)                                                                   
       0      12       1       3      15       3       6      15       4       9
      15       4      12      15       5
%FLAG ANGLES_INC_HYDROGEN                                                       
%FORMAT(10I8)                                                                   
      12       0      18       6      12       0      21       6      12       0
      24       6      15       3      27       7      15       3      30       7
      15       3      33       7      18       0      21       8      18       0
      24       8      21       0      24       8      27       3      30       8
      27       3      33       8      30       3      33       8
%FLAG ANGLES_WITHOUT_HYDROGEN                                                   
%FORMAT(10I8)                                                                   
       0      12      15       1       3      15       6       2       3      15
       9       2       3      15      12       3       6      15       9       4
       6      15      12       5       9      15      12       5
%FLAG DIHEDRALS_INC_HYDROGEN                                                    
%FORMAT(10I8)                                                                   
       6      15       3      27       5       6      15       3      30       5
       6      15       3      33       5       9      15       3      27       5
       9      15       3      30       5       9      15       3      33       5
      12      15       3      27       5      12      15       3      30       5
      12      15       3      33       5      18       0      12      15       6
      21       0      12      15       6      24       0      12      15       6
%FLAG DIHEDRALS_WITHOUT_HYDROGEN                                                
%FORMAT(10I8)                                                                   
       0      12      15       3       1       0      12     -15       3       2
       0      12     -15       3       3       0      12      15       6       4
       0      12      15       9       4
%FLAG EXCLUDED_ATOMS_LIST                                                       
%FORMAT(10I8)                                                                   
       2       3       4       5       6       7       8       9       3       4
       5       6      10      11      12       4       5       6      10      11
      12       5       6      10      11      12       6       7       8       9
      10      11      12       7       8       9      10      11      12       8
       9       9       0      11      12      12       0
%FLAG HBOND_ACOEF                                                               
%FORMAT(5E16.8)                                                                 

%FLAG HBOND_BCOEF                                                               
%FORMAT(5E16.8)                                                                 

%FLAG HBCUT                                                                     
%FORMAT(5E16.8)                                                                 

%FLAG AMBER_ATOM_TYPE                                                           
%FORMAT(20a4)                                                                   
c3  c3  o   o   os  s6  h1  h1  h1  h1  h1  h1  
%FLAG TREE_CHAIN_CLASSIFICATION                                                 
%FORMAT(20a4)                                                                   
BLA BLA BLA BLA BLA BLA BLA BLA BLA BLA BLA BLA 
%FLAG JOIN_ARRAY                                                                
%FORMAT(10I8)                                                                   
       0       0       0       0       0       0       0       0       0       0
       0       0
%FLAG IROTAT                                                                    
%FORMAT(10I8)                                                                   
       0       0       0       0       0       0       0       0       0       0
       0       0
%FLAG RADIUS_SET                                                                
%FORMAT(1a80)                                                                   
modified Bondi radii (mbondi)                                                   
%FLAG RADII                                                                     
%FORMAT(5E16.8)                                                                 
  1.70000000E+00  1.70000000E+00  1.50000000E+00  1.50000000E+00  1.50000000E+00
  1.80000000E+00  1.30000000E+00  1.30000000E+00  1.30000000E+00  1.30000000E+00
  1.30000000E+00  1.30000000E+00
%FLAG SCREEN                                                                    
%FORMAT(5E16.8)                                                                 
  7.20000000E-01  7.20000000E-01  8.50000000E-01  8.50000000E-01  8.50000000E-01
  9.60000000E-01  8.50000000E-01  8.50000000E-01  8.50000000E-01  8.50000000E-01
  8.50000000E-01  8.50000000E-01
%FLAG IPOL                                                                      
%FORMAT(1I8)                                                                    
       0
