mobley_6522117_GMX.gro created by acpype (v: 2023.10.27) on Wed May 20 23:58:04 2026
 34
    1  MOL   C1    1  -0.011   0.013   0.234
    1  MOL   C2    2  -0.128   0.012   0.310
    1  MOL   C3    3  -0.255  -0.056   0.116
    1  MOL   C4    4  -0.014  -0.021   0.097
    1  MOL   C5    5  -0.249  -0.022   0.251
    1  MOL   C6    6  -0.138  -0.056   0.039
    1  MOL   C7    7   0.172   0.092  -0.021
    1  MOL   C8    8   0.111  -0.020   0.021
    1  MOL   C9    9   0.309  -0.569  -0.022
    1  MOL  C10   10   0.249  -0.128  -0.486
    1  MOL  C11   11   0.346  -0.423  -0.010
    1  MOL  C12   12   0.320  -0.160  -0.356
    1  MOL   O1   13   0.413  -0.132  -0.065
    1  MOL   O2   14   0.158  -0.148  -0.005
    1  MOL   O3   15   0.274  -0.350  -0.107
    1  MOL   O4   16   0.228  -0.144  -0.249
    1  MOL   P1   17   0.280  -0.189  -0.103
    1  MOL  CL1   18  -0.393  -0.022   0.345
    1  MOL  CL2   19  -0.151  -0.100  -0.128
    1  MOL  CL3   20   0.114   0.252   0.007
    1  MOL   H1   21   0.084   0.039   0.281
    1  MOL   H2   22  -0.123   0.039   0.415
    1  MOL   H3   23  -0.350  -0.083   0.070
    1  MOL   H4   24   0.264   0.094  -0.077
    1  MOL   H5   25   0.201  -0.583  -0.007
    1  MOL   H6   26   0.332  -0.607  -0.122
    1  MOL   H7   27   0.363  -0.629   0.052
    1  MOL   H8   28   0.163  -0.195  -0.500
    1  MOL   H9   29   0.211  -0.026  -0.484
    1  MOL  H10   30   0.317  -0.140  -0.571
    1  MOL  H11   31   0.453  -0.410  -0.027
    1  MOL  H12   32   0.321  -0.386   0.091
    1  MOL  H13   33   0.405  -0.092  -0.341
    1  MOL  H14   34   0.357  -0.263  -0.358
   16.91400    17.61400    19.72400
