%VERSION  VERSION_STAMP = V0001.000  DATE = 05/20/26  23:58:51                  
%FLAG TITLE                                                                     
%FORMAT(20a4)                                                                   
CUP08019_AM1BCC_v1_0                                                            
%FLAG POINTERS                                                                  
%FORMAT(10I8)                                                                   
      34      10      14      20      30      27      45      40       0       0
     160       1      20      27      40      14      20      16      12       0
       0       0       0       0       0       0       0       0      34       0
       0
%FLAG ATOM_NAME                                                                 
%FORMAT(20a4)                                                                   
C1  C2  C3  C4  C5  C6  C7  C8  C9  C10 C11 C12 O1  O2  O3  O4  P1  Cl1 Cl2 Cl3 
H1  H2  H3  H4  H5  H6  H7  H8  H9  H10 H11 H12 H13 H14 
%FLAG CHARGE                                                                    
%FORMAT(5E16.8)                                                                 
 -1.29378330E+00 -2.40534360E+00 -2.35067670E+00 -1.43591724E+00  6.99736320E-01
  9.73070820E-01 -1.32293898E+00  2.71330047E+00 -1.75116303E+00 -1.75116303E+00
  2.87730117E+00  2.87730117E+00 -1.47108628E+01 -8.88337125E+00 -1.00805764E+01
 -1.00805764E+01  2.92923472E+01 -1.48329522E+00 -1.30107222E+00 -1.28284992E+00
  2.84267880E+00  2.80623420E+00  2.98845720E+00  3.13423560E+00  9.14759460E-01
  9.14759460E-01  9.14759460E-01  9.14759460E-01  9.14759460E-01  9.14759460E-01
  8.64648135E-01  8.64648135E-01  8.64648135E-01  8.64648135E-01
%FLAG ATOMIC_NUMBER                                                             
%FORMAT(10I8)                                                                   
       6       6       6       6       6       6       6       6       6       6
       6       6       8       8       8       8      15      17      17      17
       1       1       1       1       1       1       1       1       1       1
       1       1       1       1
%FLAG MASS                                                                      
%FORMAT(5E16.8)                                                                 
  1.20100000E+01  1.20100000E+01  1.20100000E+01  1.20100000E+01  1.20100000E+01
  1.20100000E+01  1.20100000E+01  1.20100000E+01  1.20100000E+01  1.20100000E+01
  1.20100000E+01  1.20100000E+01  1.60000000E+01  1.60000000E+01  1.60000000E+01
  1.60000000E+01  3.09700000E+01  3.54500000E+01  3.54500000E+01  3.54500000E+01
  1.00800000E+00  1.00800000E+00  1.00800000E+00  1.00800000E+00  1.00800000E+00
  1.00800000E+00  1.00800000E+00  1.00800000E+00  1.00800000E+00  1.00800000E+00
  1.00800000E+00  1.00800000E+00  1.00800000E+00  1.00800000E+00
%FLAG ATOM_TYPE_INDEX                                                           
%FORMAT(10I8)                                                                   
       1       1       1       1       1       1       1       1       2       2
       2       2       3       4       4       4       5       6       6       6
       7       7       7       8       9       9       9       9       9       9
      10      10      10      10
%FLAG NUMBER_EXCLUDED_ATOMS                                                     
%FORMAT(10I8)                                                                   
      12       9       8      12       6       7       5       9       8       8
      10      10       4       5       7       6       4       2       1       1
       1       1       1       1       4       3       2       4       3       2
       1       1       1       1
%FLAG NONBONDED_PARM_INDEX                                                      
%FORMAT(10I8)                                                                   
       1       2       4       7      11      16      22      29      37      46
       2       3       5       8      12      17      23      30      38      47
       4       5       6       9      13      18      24      31      39      48
       7       8       9      10      14      19      25      32      40      49
      11      12      13      14      15      20      26      33      41      50
      16      17      18      19      20      21      27      34      42      51
      22      23      24      25      26      27      28      35      43      52
      29      30      31      32      33      34      35      36      44      53
      37      38      39      40      41      42      43      44      45      54
      46      47      48      49      50      51      52      53      54      55
%FLAG RESIDUE_LABEL                                                             
%FORMAT(20a4)                                                                   
MOL 
%FLAG RESIDUE_POINTER                                                           
%FORMAT(10I8)                                                                   
       1
%FLAG BOND_FORCE_CONSTANT                                                       
%FORMAT(5E16.8)                                                                 
  3.54250000E+02  3.60690000E+02  2.71850000E+02  1.87980000E+02  4.24300000E+02
  1.96040000E+02  3.59910000E+02  3.39490000E+02  2.28890000E+02  3.45250000E+02
  2.82270000E+02  3.44220000E+02  5.73030000E+02  3.87590000E+02
%FLAG BOND_EQUIL_VALUE                                                          
%FORMAT(5E16.8)                                                                 
  1.39860000E+00  1.08600000E+00  1.48000000E+00  1.75720000E+00  1.34570000E+00
  1.74150000E+00  1.08650000E+00  1.37210000E+00  1.53540000E+00  1.09620000E+00
  1.42730000E+00  1.09690000E+00  1.48850000E+00  1.61820000E+00
%FLAG ANGLE_FORCE_CONSTANT                                                      
%FORMAT(5E16.8)                                                                 
  6.36700000E+01  4.49000000E+01  6.15800000E+01  6.40600000E+01  6.19900000E+01
  7.74500000E+01  7.92400000E+01  6.39700000E+01  4.58100000E+01  5.65400000E+01
  7.74400000E+01  4.32800000E+01  4.32700000E+01  5.66400000E+01  1.00300000E+02
  1.02920000E+02  5.62000000E+01  4.36700000E+01  3.58000000E+01  3.56400000E+01
%FLAG ANGLE_EQUIL_VALUE                                                         
%FORMAT(5E16.8)                                                                 
  2.09474507E+00  2.09230160E+00  2.10818411E+00  2.08357495E+00  2.14640683E+00
  2.02580453E+00  2.14256711E+00  2.15216642E+00  2.13610939E+00  2.14972296E+00
  1.87832415E+00  1.91270715E+00  1.91427794E+00  2.08916001E+00  2.01480895E+00
  1.77534968E+00  1.92579712E+00  1.98025142E+00  1.88024401E+00  1.89455572E+00
%FLAG DIHEDRAL_FORCE_CONSTANT                                                   
%FORMAT(5E16.8)                                                                 
  3.62500000E+00  5.85000000E-01  7.00000000E-01  6.65000000E+00  1.75000000E+00
  8.00000000E-01  3.95000000E+00  3.83000000E-01  8.00000000E-01  5.50000000E-01
  3.52000000E+00  2.50000000E-01  0.00000000E+00  0.00000000E+00  1.55555556E-01
  1.10000000E+00
%FLAG DIHEDRAL_PERIODICITY                                                      
%FORMAT(5E16.8)                                                                 
  2.00000000E+00  2.00000000E+00  2.00000000E+00  2.00000000E+00  2.00000000E+00
  2.00000000E+00  1.00000000E+00  3.00000000E+00  2.00000000E+00  3.00000000E+00
  2.00000000E+00  1.00000000E+00  3.00000000E+00  1.00000000E+00  3.00000000E+00
  2.00000000E+00
%FLAG DIHEDRAL_PHASE                                                            
%FORMAT(5E16.8)                                                                 
  3.14159400E+00  3.14159400E+00  3.14159400E+00  3.14159400E+00  3.14159400E+00
  0.00000000E+00  3.14159400E+00  0.00000000E+00  0.00000000E+00  0.00000000E+00
  0.00000000E+00  0.00000000E+00  0.00000000E+00  0.00000000E+00  0.00000000E+00
  3.14159400E+00
%FLAG SCEE_SCALE_FACTOR                                                         
%FORMAT(5E16.8)                                                                 
  1.20000000E+00  1.20000000E+00  1.20000000E+00  1.20000000E+00  1.20000000E+00
  1.20000000E+00  1.20000000E+00  1.20000000E+00  1.20000000E+00  1.20000000E+00
  1.20000000E+00  1.20000000E+00  1.20000000E+00  1.20000000E+00  1.20000000E+00
  0.00000000E+00
%FLAG SCNB_SCALE_FACTOR                                                         
%FORMAT(5E16.8)                                                                 
  2.00000000E+00  2.00000000E+00  2.00000000E+00  2.00000000E+00  2.00000000E+00
  2.00000000E+00  2.00000000E+00  2.00000000E+00  2.00000000E+00  2.00000000E+00
  2.00000000E+00  2.00000000E+00  2.00000000E+00  2.00000000E+00  2.00000000E+00
  0.00000000E+00
%FLAG SOLTY                                                                     
%FORMAT(5E16.8)                                                                 
  0.00000000E+00  0.00000000E+00  0.00000000E+00  0.00000000E+00  0.00000000E+00
  0.00000000E+00  0.00000000E+00  0.00000000E+00  0.00000000E+00  0.00000000E+00
  0.00000000E+00  0.00000000E+00
%FLAG LENNARD_JONES_ACOEF                                                       
%FORMAT(5E16.8)                                                                 
  6.96551276E+05  8.43969952E+05  1.02073671E+06  5.17507491E+05  6.30925504E+05
  3.76435470E+05  4.46121722E+05  5.42502534E+05  3.27367585E+05  2.83662575E+05
  2.06784094E+06  2.48558450E+06  1.57866258E+06  1.34566835E+06  5.92702883E+06
  1.49062160E+06  1.80018612E+06  1.11993097E+06  9.60982218E+05  4.36180978E+06
  3.17107030E+06  7.52549148E+04  9.27554496E+04  5.27277400E+04  4.65732396E+04
  2.40822878E+05  1.66104821E+05  6.90855956E+03  6.27751680E+04  7.75673747E+04
  4.36069364E+04  3.86549715E+04  2.03097588E+05  1.39186903E+05  5.62610481E+03
  4.56536476E+03  8.12662403E+04  1.00235148E+05  5.68021765E+04  5.02224902E+04
  2.60860942E+05  1.79601155E+05  7.41026906E+03  6.02863188E+03  7.94617769E+03
  5.63013422E+04  6.97998263E+04  3.86646725E+04  3.44374471E+04  1.84820254E+05
  1.25585106E+05  4.88692384E+03  3.94664935E+03  5.22955465E+03  3.39005767E+03
%FLAG LENNARD_JONES_BCOEF                                                       
%FORMAT(5E16.8)                                                                 
  5.24668528E+02  5.90251928E+02  6.63431737E+02  4.98871431E+02  5.62969425E+02
  4.69350655E+02  3.88758656E+02  4.38146883E+02  3.67361018E+02  2.87011518E+02
  1.11602383E+03  1.25053147E+03  1.07567582E+03  8.33544600E+02  2.33259779E+03
  9.81118883E+02  1.10195051E+03  9.38113535E+02  7.29357620E+02  2.07194264E+03
  1.82923847E+03  1.09570372E+02  1.24325688E+02  1.01173582E+02  7.98066064E+01
  2.41980856E+02  2.08087638E+02  2.10929191E+01  1.00073628E+02  1.13692208E+02
  9.20079458E+01  7.27065100E+01  2.22220704E+02  1.90482178E+02  1.90347353E+01
  1.71467049E+01  1.21392023E+02  1.37787728E+02  1.11953944E+02  8.83545880E+01
  2.68501076E+02  2.30684859E+02  2.32899892E+01  2.10068861E+01  2.57122925E+01
  1.01040256E+02  1.14981426E+02  9.23664132E+01  7.31636661E+01  2.26004082E+02
  1.92900608E+02  1.89134207E+01  1.69967767E+01  2.08590256E+01  1.67944276E+01
%FLAG BONDS_INC_HYDROGEN                                                        
%FORMAT(10I8)                                                                   
       0      60       2       3      63       2       6      66       2      18
      69       7      24      72      10      24      75      10      24      78
      10      27      81      10      27      84      10      27      87      10
      30      90      12      30      93      12      33      96      12      33
      99      12
%FLAG BONDS_WITHOUT_HYDROGEN                                                    
%FORMAT(10I8)                                                                   
       0       3       1       0       9       1       3      12       1       6
      12       1       6      15       1       9      15       1       9      21
       3      12      51       4      15      54       4      18      21       5
      18      57       6      21      39       8      24      30       9      27
      33       9      30      42      11      33      45      11      36      48
      13      39      48      14      42      48      14      45      48      14
%FLAG ANGLES_INC_HYDROGEN                                                       
%FORMAT(10I8)                                                                   
       0       3      63       2       3       0      60       2       9       0
      60       2      12       3      63       2      12       6      66       2
      15       6      66       2      21      18      69       9      24      30
      90      12      24      30      93      12      27      33      96      12
      27      33      99      12      30      24      72      13      30      24
      75      13      30      24      78      13      33      27      81      13
      33      27      84      13      33      27      87      13      42      30
      90      17      42      30      93      17      45      33      96      17
      45      33      99      17      57      18      69      18      72      24
      75      19      72      24      78      19      75      24      78      19
      81      27      84      19      81      27      87      19      84      27
      87      19      90      30      93      20      96      33      99      20
%FLAG ANGLES_WITHOUT_HYDROGEN                                                   
%FORMAT(10I8)                                                                   
       0       3      12       1       0       9      15       1       0       9
      21       3       3       0       9       1       3      12       6       1
       3      12      51       4       6      12      51       4       6      15
       9       1       6      15      54       4       9      15      54       4
       9      21      18       5       9      21      39       6      12       6
      15       1      15       9      21       3      18      21      39       7
      21      18      57       8      21      39      48      10      24      30
      42      11      27      33      45      11      30      42      48      14
      33      45      48      14      36      48      39      15      36      48
      42      15      36      48      45      15      39      48      42      16
      39      48      45      16      42      48      45      16
%FLAG DIHEDRALS_INC_HYDROGEN                                                    
%FORMAT(10I8)                                                                   
       3      12       6      66       1       6      12       3      63       1
       9       0       3      63       1       9      15       6      66       1
       9      21      18      69       4      60       0       3      12       1
      60       0       9      15       1      60       0       9      21       1
      39      21      18      69       4      42      30      24      72      12
      42      30     -24      72      13      42      30      24      75      12
      42      30     -24      75      13      42      30      24      78      12
      42      30     -24      78      13      45      33      27      81      12
      45      33     -27      81      13      45      33      27      84      12
      45      33     -27      84      13      45      33      27      87      12
      45      33     -27      87      13      48      42      30      90      14
      48      42      30      93      14      48      45      33      96      14
      48      45      33      99      14      51      12       3      63       1
      51      12       6      66       1      54      15       6      66       1
      60       0       3      63       1      72      24      30      90      15
      72      24      30      93      15      75      24      30      90      15
      75      24      30      93      15      78      24      30      90      15
      78      24      30      93      15      81      27      33      96      15
      81      27      33      99      15      84      27      33      96      15
      84      27      33      99      15      87      27      33      96      15
      87      27      33      99      15      60       0      -9      -3      16
       0      12      -3     -63      16      12      15      -6     -66      16
      21      57     -18     -69      16
%FLAG DIHEDRALS_WITHOUT_HYDROGEN                                                
%FORMAT(10I8)                                                                   
       0       3      12       6       1       0       3      12      51       1
       0       9     -15       6       1       0       9      15      54       1
       0       9      21      18       2       0       9      21      39       3
       3       0       9      15       1       3       0       9      21       1
       3      12      -6      15       1       6      15       9      21       1
       9       0       3      12       1       9      15      -6      12       1
       9      21      18      57       4       9      21      39      48       5
      12       6      15      54       1      15       6      12      51       1
      15       9      21      18       2      15       9      21      39       3
      18      21      39      48       5      21       9      15      54       1
      21      39      48      36       6      21      39      48      42       6
      21      39      48      45       6      24      30      42      48       7
      24      30     -42      48       8      27      33      45      48       7
      27      33     -45      48       8      30      42      48      36       9
      30      42     -48      36      10      30      42      48      39      11
      30      42      48      45      11      33      45      48      36       9
      33      45     -48      36      10      33      45      48      39      11
      33      45      48      42      11      39      21      18      57       4
       0      15      -9     -21      16       3       6     -12     -51      16
       6       9     -15     -54      16      18       9     -21     -39      16
%FLAG EXCLUDED_ATOMS_LIST                                                       
%FORMAT(10I8)                                                                   
       2       3       4       5       6       7       8      14      18      19
      21      22       3       4       5       6       8      18      21      22
      23       4       5       6       8      18      19      22      23       5
       6       7       8      14      17      19      20      21      22      23
      24       6      18      19      21      22      23       7       8      14
      18      19      21      23       8      14      17      20      24      13
      14      15      16      17      19      20      21      24      11      15
      17      25      26      27      31      32      12      16      17      28
      29      30      33      34      13      14      15      16      17      25
      26      27      31      32      13      14      15      16      17      28
      29      30      33      34      14      15      16      17      15      16
      17      20      24      16      17      25      26      27      31      32
      17      28      29      30      33      34      31      32      33      34
      22      23      23      24      22       0       0       0      26      27
      31      32      27      31      32      31      32      29      30      33
      34      30      33      34      33      34      32       0      34       0
%FLAG HBOND_ACOEF                                                               
%FORMAT(5E16.8)                                                                 

%FLAG HBOND_BCOEF                                                               
%FORMAT(5E16.8)                                                                 

%FLAG HBCUT                                                                     
%FORMAT(5E16.8)                                                                 

%FLAG AMBER_ATOM_TYPE                                                           
%FORMAT(20a4)                                                                   
ca  ca  ca  ca  ca  ca  c2  ce  c3  c3  c3  c3  o   os  os  os  p5  cl  cl  cl  
ha  ha  ha  h4  hc  hc  hc  hc  hc  hc  h1  h1  h1  h1  
%FLAG TREE_CHAIN_CLASSIFICATION                                                 
%FORMAT(20a4)                                                                   
BLA BLA BLA BLA BLA BLA BLA BLA BLA BLA BLA BLA BLA BLA BLA BLA BLA BLA BLA BLA 
BLA BLA BLA BLA BLA BLA BLA BLA BLA BLA BLA BLA BLA BLA 
%FLAG JOIN_ARRAY                                                                
%FORMAT(10I8)                                                                   
       0       0       0       0       0       0       0       0       0       0
       0       0       0       0       0       0       0       0       0       0
       0       0       0       0       0       0       0       0       0       0
       0       0       0       0
%FLAG IROTAT                                                                    
%FORMAT(10I8)                                                                   
       0       0       0       0       0       0       0       0       0       0
       0       0       0       0       0       0       0       0       0       0
       0       0       0       0       0       0       0       0       0       0
       0       0       0       0
%FLAG RADIUS_SET                                                                
%FORMAT(1a80)                                                                   
modified Bondi radii (mbondi)                                                   
%FLAG RADII                                                                     
%FORMAT(5E16.8)                                                                 
  1.70000000E+00  1.70000000E+00  1.70000000E+00  1.70000000E+00  1.70000000E+00
  1.70000000E+00  1.70000000E+00  1.70000000E+00  1.70000000E+00  1.70000000E+00
  1.70000000E+00  1.70000000E+00  1.50000000E+00  1.50000000E+00  1.50000000E+00
  1.50000000E+00  1.85000000E+00  1.70000000E+00  1.70000000E+00  1.70000000E+00
  1.30000000E+00  1.30000000E+00  1.30000000E+00  1.30000000E+00  1.30000000E+00
  1.30000000E+00  1.30000000E+00  1.30000000E+00  1.30000000E+00  1.30000000E+00
  1.30000000E+00  1.30000000E+00  1.30000000E+00  1.30000000E+00
%FLAG SCREEN                                                                    
%FORMAT(5E16.8)                                                                 
  7.20000000E-01  7.20000000E-01  7.20000000E-01  7.20000000E-01  7.20000000E-01
  7.20000000E-01  7.20000000E-01  7.20000000E-01  7.20000000E-01  7.20000000E-01
  7.20000000E-01  7.20000000E-01  8.50000000E-01  8.50000000E-01  8.50000000E-01
  8.50000000E-01  8.60000000E-01  8.00000000E-01  8.00000000E-01  8.00000000E-01
  8.50000000E-01  8.50000000E-01  8.50000000E-01  8.50000000E-01  8.50000000E-01
  8.50000000E-01  8.50000000E-01  8.50000000E-01  8.50000000E-01  8.50000000E-01
  8.50000000E-01  8.50000000E-01  8.50000000E-01  8.50000000E-01
%FLAG IPOL                                                                      
%FORMAT(1I8)                                                                    
       0
