; mobley_6522117_GMX.itp created by acpype (v: 2023.10.27) on Wed May 20 23:58:04 2026

[ atomtypes ]
;name   bond_type     mass     charge   ptype   sigma         epsilon       Amb
 ca       ca          0.00000  0.00000   A     3.31521e-01   4.13379e-01 ; 1.86  0.0988
 c2       c2          0.00000  0.00000   A     3.31521e-01   4.13379e-01 ; 1.86  0.0988
 ce       ce          0.00000  0.00000   A     3.31521e-01   4.13379e-01 ; 1.86  0.0988
 c3       c3          0.00000  0.00000   A     3.39771e-01   4.51035e-01 ; 1.91  0.1078
 o        o           0.00000  0.00000   A     3.04812e-01   6.12119e-01 ; 1.71  0.1463
 os       os          0.00000  0.00000   A     3.15610e-01   3.03758e-01 ; 1.77  0.0726
 p5       p5          0.00000  0.00000   A     3.69402e-01   9.60228e-01 ; 2.07  0.2295
 cl       cl          0.00000  0.00000   A     3.46595e-01   1.10374e+00 ; 1.95  0.2638
 ha       ha          0.00000  0.00000   A     2.62548e-01   6.73624e-02 ; 1.47  0.0161
 h4       h4          0.00000  0.00000   A     2.53639e-01   6.73624e-02 ; 1.42  0.0161
 hc       hc          0.00000  0.00000   A     2.60018e-01   8.70272e-02 ; 1.46  0.0208
 h1       h1          0.00000  0.00000   A     2.42200e-01   8.70272e-02 ; 1.36  0.0208

[ moleculetype ]
;name            nrexcl
 mobley_6522117   3

[ atoms ]
;   nr  type  resi  res  atom  cgnr     charge      mass       ; qtot   bond_type
     1   ca     1   MOL    C1    1    -0.071000     12.01000 ; qtot -0.071
     2   ca     1   MOL    C2    2    -0.132000     12.01000 ; qtot -0.203
     3   ca     1   MOL    C3    3    -0.129000     12.01000 ; qtot -0.332
     4   ca     1   MOL    C4    4    -0.078800     12.01000 ; qtot -0.411
     5   ca     1   MOL    C5    5     0.038400     12.01000 ; qtot -0.372
     6   ca     1   MOL    C6    6     0.053400     12.01000 ; qtot -0.319
     7   c2     1   MOL    C7    7    -0.072600     12.01000 ; qtot -0.392
     8   ce     1   MOL    C8    8     0.148900     12.01000 ; qtot -0.243
     9   c3     1   MOL    C9    9    -0.096100     12.01000 ; qtot -0.339
    10   c3     1   MOL   C10   10    -0.096100     12.01000 ; qtot -0.435
    11   c3     1   MOL   C11   11     0.157900     12.01000 ; qtot -0.277
    12   c3     1   MOL   C12   12     0.157900     12.01000 ; qtot -0.119
    13    o     1   MOL    O1   13    -0.807300     16.00000 ; qtot -0.926
    14   os     1   MOL    O2   14    -0.487500     16.00000 ; qtot -1.414
    15   os     1   MOL    O3   15    -0.553200     16.00000 ; qtot -1.967
    16   os     1   MOL    O4   16    -0.553200     16.00000 ; qtot -2.520
    17   p5     1   MOL    P1   17     1.606500     30.97000 ; qtot -0.914
    18   cl     1   MOL   CL1   18    -0.081400     35.45000 ; qtot -0.995
    19   cl     1   MOL   CL2   19    -0.071400     35.45000 ; qtot -1.067
    20   cl     1   MOL   CL3   20    -0.070400     35.45000 ; qtot -1.137
    21   ha     1   MOL    H1   21     0.156000      1.00800 ; qtot -0.981
    22   ha     1   MOL    H2   22     0.154000      1.00800 ; qtot -0.827
    23   ha     1   MOL    H3   23     0.164000      1.00800 ; qtot -0.663
    24   h4     1   MOL    H4   24     0.172000      1.00800 ; qtot -0.491
    25   hc     1   MOL    H5   25     0.050200      1.00800 ; qtot -0.441
    26   hc     1   MOL    H6   26     0.050200      1.00800 ; qtot -0.391
    27   hc     1   MOL    H7   27     0.050200      1.00800 ; qtot -0.340
    28   hc     1   MOL    H8   28     0.050200      1.00800 ; qtot -0.290
    29   hc     1   MOL    H9   29     0.050200      1.00800 ; qtot -0.240
    30   hc     1   MOL   H10   30     0.050200      1.00800 ; qtot -0.190
    31   h1     1   MOL   H11   31     0.047450      1.00800 ; qtot -0.142
    32   h1     1   MOL   H12   32     0.047450      1.00800 ; qtot -0.095
    33   h1     1   MOL   H13   33     0.047450      1.00800 ; qtot -0.047
    34   h1     1   MOL   H14   34     0.047450      1.00800 ; qtot -0.000

[ bonds ]
;   ai     aj funct   r             k
     1      2   1    1.3986e-01    2.9644e+05 ;     C1 - C2    
     1      4   1    1.3986e-01    2.9644e+05 ;     C1 - C4    
     1     21   1    1.0860e-01    3.0183e+05 ;     C1 - H1    
     2      5   1    1.3986e-01    2.9644e+05 ;     C2 - C5    
     2     22   1    1.0860e-01    3.0183e+05 ;     C2 - H2    
     3      5   1    1.3986e-01    2.9644e+05 ;     C3 - C5    
     3      6   1    1.3986e-01    2.9644e+05 ;     C3 - C6    
     3     23   1    1.0860e-01    3.0183e+05 ;     C3 - H3    
     4      6   1    1.3986e-01    2.9644e+05 ;     C4 - C6    
     4      8   1    1.4800e-01    2.2748e+05 ;     C4 - C8    
     5     18   1    1.7572e-01    1.5730e+05 ;     C5 - CL1   
     6     19   1    1.7572e-01    1.5730e+05 ;     C6 - CL2   
     7      8   1    1.3457e-01    3.5505e+05 ;     C7 - C8    
     7     20   1    1.7415e-01    1.6405e+05 ;     C7 - CL3   
     7     24   1    1.0865e-01    3.0117e+05 ;     C7 - H4    
     8     14   1    1.3721e-01    2.8409e+05 ;     C8 - O2    
     9     11   1    1.5354e-01    1.9154e+05 ;     C9 - C11   
     9     25   1    1.0962e-01    2.8891e+05 ;     C9 - H5    
     9     26   1    1.0962e-01    2.8891e+05 ;     C9 - H6    
     9     27   1    1.0962e-01    2.8891e+05 ;     C9 - H7    
    10     12   1    1.5354e-01    1.9154e+05 ;    C10 - C12   
    10     28   1    1.0962e-01    2.8891e+05 ;    C10 - H8    
    10     29   1    1.0962e-01    2.8891e+05 ;    C10 - H9    
    10     30   1    1.0962e-01    2.8891e+05 ;    C10 - H10   
    11     15   1    1.4273e-01    2.3620e+05 ;    C11 - O3    
    11     31   1    1.0969e-01    2.8804e+05 ;    C11 - H11   
    11     32   1    1.0969e-01    2.8804e+05 ;    C11 - H12   
    12     16   1    1.4273e-01    2.3620e+05 ;    C12 - O4    
    12     33   1    1.0969e-01    2.8804e+05 ;    C12 - H13   
    12     34   1    1.0969e-01    2.8804e+05 ;    C12 - H14   
    13     17   1    1.4885e-01    4.7951e+05 ;     O1 - P1    
    14     17   1    1.6182e-01    3.2434e+05 ;     O2 - P1    
    15     17   1    1.6182e-01    3.2434e+05 ;     O3 - P1    
    16     17   1    1.6182e-01    3.2434e+05 ;     O4 - P1    

[ pairs ]
;   ai     aj    funct
     1      3      1 ;     C1 - C3    
     1      7      1 ;     C1 - C7    
     1     14      1 ;     C1 - O2    
     1     18      1 ;     C1 - CL1   
     1     19      1 ;     C1 - CL2   
     2      6      1 ;     C2 - C6    
     2      8      1 ;     C2 - C8    
     2     23      1 ;     C2 - H3    
     3      8      1 ;     C3 - C8    
     3     22      1 ;     C3 - H2    
     4      5      1 ;     C4 - C5    
     4     17      1 ;     C4 - P1    
     4     20      1 ;     C4 - CL3   
     4     22      1 ;     C4 - H2    
     4     23      1 ;     C4 - H3    
     4     24      1 ;     C4 - H4    
     5     19      1 ;     C5 - CL2   
     6      7      1 ;     C6 - C7    
     6     14      1 ;     C6 - O2    
     6     18      1 ;     C6 - CL1   
     7     17      1 ;     C7 - P1    
     8     13      1 ;     C8 - O1    
     8     15      1 ;     C8 - O3    
     8     16      1 ;     C8 - O4    
     8     19      1 ;     C8 - CL2   
     9     17      1 ;     C9 - P1    
    10     17      1 ;    C10 - P1    
    11     13      1 ;    C11 - O1    
    11     14      1 ;    C11 - O2    
    11     16      1 ;    C11 - O4    
    12     13      1 ;    C12 - O1    
    12     14      1 ;    C12 - O2    
    12     15      1 ;    C12 - O3    
    14     20      1 ;     O2 - CL3   
    14     24      1 ;     O2 - H4    
    15     25      1 ;     O3 - H5    
    15     26      1 ;     O3 - H6    
    15     27      1 ;     O3 - H7    
    16     28      1 ;     O4 - H8    
    16     29      1 ;     O4 - H9    
    16     30      1 ;     O4 - H10   
    17     31      1 ;     P1 - H11   
    17     32      1 ;     P1 - H12   
    17     33      1 ;     P1 - H13   
    17     34      1 ;     P1 - H14   
    18     22      1 ;    CL1 - H2    
    18     23      1 ;    CL1 - H3    
    19     23      1 ;    CL2 - H3    
    21      5      1 ;     H1 - C5    
    21      6      1 ;     H1 - C6    
    21      8      1 ;     H1 - C8    
    21     22      1 ;     H1 - H2    
    25     31      1 ;     H5 - H11   
    25     32      1 ;     H5 - H12   
    26     31      1 ;     H6 - H11   
    26     32      1 ;     H6 - H12   
    27     31      1 ;     H7 - H11   
    27     32      1 ;     H7 - H12   
    28     33      1 ;     H8 - H13   
    28     34      1 ;     H8 - H14   
    29     33      1 ;     H9 - H13   
    29     34      1 ;     H9 - H14   
    30     33      1 ;    H10 - H13   
    30     34      1 ;    H10 - H14   

[ angles ]
;   ai     aj     ak    funct   theta         cth
     1      2      5      1    1.2002e+02    5.3279e+02 ;     C1 - C2     - C5    
     1      2     22      1    1.1988e+02    3.7572e+02 ;     C1 - C2     - H2    
     1      4      6      1    1.2002e+02    5.3279e+02 ;     C1 - C4     - C6    
     1      4      8      1    1.2079e+02    5.1530e+02 ;     C1 - C4     - C8    
     2      1      4      1    1.2002e+02    5.3279e+02 ;     C2 - C1     - C4    
     2      1     21      1    1.1988e+02    3.7572e+02 ;     C2 - C1     - H1    
     2      5      3      1    1.2002e+02    5.3279e+02 ;     C2 - C5     - C3    
     2      5     18      1    1.1938e+02    5.3605e+02 ;     C2 - C5     - CL1   
     3      5     18      1    1.1938e+02    5.3605e+02 ;     C3 - C5     - CL1   
     3      6      4      1    1.2002e+02    5.3279e+02 ;     C3 - C6     - C4    
     3      6     19      1    1.1938e+02    5.3605e+02 ;     C3 - C6     - CL2   
     4      1     21      1    1.1988e+02    3.7572e+02 ;     C4 - C1     - H1    
     4      6     19      1    1.1938e+02    5.3605e+02 ;     C4 - C6     - CL2   
     4      8      7      1    1.2298e+02    5.1873e+02 ;     C4 - C8     - C7    
     4      8     14      1    1.1607e+02    6.4810e+02 ;     C4 - C8     - O2    
     5      2     22      1    1.1988e+02    3.7572e+02 ;     C5 - C2     - H2    
     5      3      6      1    1.2002e+02    5.3279e+02 ;     C5 - C3     - C6    
     5      3     23      1    1.1988e+02    3.7572e+02 ;     C5 - C3     - H3    
     6      3     23      1    1.1988e+02    3.7572e+02 ;     C6 - C3     - H3    
     6      4      8      1    1.2079e+02    5.1530e+02 ;     C6 - C4     - C8    
     7      8     14      1    1.2276e+02    6.6308e+02 ;     C7 - C8     - O2    
     8      7     20      1    1.2331e+02    5.3530e+02 ;     C8 - C7     - CL3   
     8      7     24      1    1.2239e+02    3.8334e+02 ;     C8 - C7     - H4    
     8     14     17      1    1.2317e+02    4.7313e+02 ;     C8 - O2     - P1    
     9     11     15      1    1.0762e+02    6.4802e+02 ;     C9 - C11    - O3    
     9     11     31      1    1.0959e+02    3.6217e+02 ;     C9 - C11    - H11   
     9     11     32      1    1.0959e+02    3.6217e+02 ;     C9 - C11    - H12   
    10     12     16      1    1.0762e+02    6.4802e+02 ;    C10 - C12    - O4    
    10     12     33      1    1.0959e+02    3.6217e+02 ;    C10 - C12    - H13   
    10     12     34      1    1.0959e+02    3.6217e+02 ;    C10 - C12    - H14   
    11      9     25      1    1.0968e+02    3.6208e+02 ;    C11 - C9     - H5    
    11      9     26      1    1.0968e+02    3.6208e+02 ;    C11 - C9     - H6    
    11      9     27      1    1.0968e+02    3.6208e+02 ;    C11 - C9     - H7    
    11     15     17      1    1.1970e+02    4.7396e+02 ;    C11 - O3     - P1    
    12     10     28      1    1.0968e+02    3.6208e+02 ;    C12 - C10    - H8    
    12     10     29      1    1.0968e+02    3.6208e+02 ;    C12 - C10    - H9    
    12     10     30      1    1.0968e+02    3.6208e+02 ;    C12 - C10    - H10   
    12     16     17      1    1.1970e+02    4.7396e+02 ;    C12 - O4     - P1    
    13     17     14      1    1.1544e+02    8.3931e+02 ;     O1 - P1     - O2    
    13     17     15      1    1.1544e+02    8.3931e+02 ;     O1 - P1     - O3    
    13     17     16      1    1.1544e+02    8.3931e+02 ;     O1 - P1     - O4    
    14     17     15      1    1.0172e+02    8.6123e+02 ;     O2 - P1     - O3    
    14     17     16      1    1.0172e+02    8.6123e+02 ;     O2 - P1     - O4    
    15     11     31      1    1.1034e+02    4.7028e+02 ;     O3 - C11    - H11   
    15     11     32      1    1.1034e+02    4.7028e+02 ;     O3 - C11    - H12   
    15     17     16      1    1.0172e+02    8.6123e+02 ;     O3 - P1     - O4    
    16     12     33      1    1.1034e+02    4.7028e+02 ;     O4 - C12    - H13   
    16     12     34      1    1.1034e+02    4.7028e+02 ;     O4 - C12    - H14   
    20      7     24      1    1.1346e+02    3.6543e+02 ;    CL3 - C7     - H4    
    25      9     26      1    1.0773e+02    2.9957e+02 ;     H5 - C9     - H6    
    25      9     27      1    1.0773e+02    2.9957e+02 ;     H5 - C9     - H7    
    26      9     27      1    1.0773e+02    2.9957e+02 ;     H6 - C9     - H7    
    28     10     29      1    1.0773e+02    2.9957e+02 ;     H8 - C10    - H9    
    28     10     30      1    1.0773e+02    2.9957e+02 ;     H8 - C10    - H10   
    29     10     30      1    1.0773e+02    2.9957e+02 ;     H9 - C10    - H10   
    31     11     32      1    1.0855e+02    2.9824e+02 ;    H11 - C11    - H12   
    33     12     34      1    1.0855e+02    2.9824e+02 ;    H13 - C12    - H14   

[ dihedrals ] ; propers
; for gromacs 4.5 or higher, using funct 9
;    i      j      k      l   func   phase     kd      pn
     1      2      5      3      9   180.00  15.16700   2 ;     C1-    C2-    C5-    C3
     1      2      5     18      9   180.00  15.16700   2 ;     C1-    C2-    C5-   CL1
     1      4      6      3      9   180.00  15.16700   2 ;     C1-    C4-    C6-    C3
     1      4      6     19      9   180.00  15.16700   2 ;     C1-    C4-    C6-   CL2
     1      4      8      7      9   180.00   2.44764   2 ;     C1-    C4-    C8-    C7
     1      4      8     14      9   180.00   2.92880   2 ;     C1-    C4-    C8-    O2
     2      1      4      6      9   180.00  15.16700   2 ;     C2-    C1-    C4-    C6
     2      1      4      8      9   180.00  15.16700   2 ;     C2-    C1-    C4-    C8
     2      5      3      6      9   180.00  15.16700   2 ;     C2-    C5-    C3-    C6
     2      5      3     23      9   180.00  15.16700   2 ;     C2-    C5-    C3-    H3
     3      5      2     22      9   180.00  15.16700   2 ;     C3-    C5-    C2-    H2
     3      6      4      8      9   180.00  15.16700   2 ;     C3-    C6-    C4-    C8
     4      1      2      5      9   180.00  15.16700   2 ;     C4-    C1-    C2-    C5
     4      1      2     22      9   180.00  15.16700   2 ;     C4-    C1-    C2-    H2
     4      6      3      5      9   180.00  15.16700   2 ;     C4-    C6-    C3-    C5
     4      6      3     23      9   180.00  15.16700   2 ;     C4-    C6-    C3-    H3
     4      8      7     20      9   180.00  27.82360   2 ;     C4-    C8-    C7-   CL3
     4      8      7     24      9   180.00  27.82360   2 ;     C4-    C8-    C7-    H4
     4      8     14     17      9   180.00   7.32200   2 ;     C4-    C8-    O2-    P1
     5      3      6     19      9   180.00  15.16700   2 ;     C5-    C3-    C6-   CL2
     6      3      5     18      9   180.00  15.16700   2 ;     C6-    C3-    C5-   CL1
     6      4      8      7      9   180.00   2.44764   2 ;     C6-    C4-    C8-    C7
     6      4      8     14      9   180.00   2.92880   2 ;     C6-    C4-    C8-    O2
     7      8     14     17      9   180.00   7.32200   2 ;     C7-    C8-    O2-    P1
     8      4      6     19      9   180.00  15.16700   2 ;     C8-    C4-    C6-   CL2
     8     14     17     13      9     0.00   3.34720   2 ;     C8-    O2-    P1-    O1
     8     14     17     15      9     0.00   3.34720   2 ;     C8-    O2-    P1-    O3
     8     14     17     16      9     0.00   3.34720   2 ;     C8-    O2-    P1-    O4
     9     11     15     17      9     0.00   1.60247   3 ;     C9-   C11-    O3-    P1
     9     11     15     17      9   180.00  16.52680   1 ;     C9-   C11-    O3-    P1
    10     12     16     17      9     0.00   1.60247   3 ;    C10-   C12-    O4-    P1
    10     12     16     17      9   180.00  16.52680   1 ;    C10-   C12-    O4-    P1
    11     15     17     13      9     0.00   2.30120   3 ;    C11-    O3-    P1-    O1
    11     15     17     13      9     0.00   3.34720   2 ;    C11-    O3-    P1-    O1
    11     15     17     14      9     0.00  14.72768   2 ;    C11-    O3-    P1-    O2
    11     15     17     16      9     0.00  14.72768   2 ;    C11-    O3-    P1-    O4
    12     16     17     13      9     0.00   2.30120   3 ;    C12-    O4-    P1-    O1
    12     16     17     13      9     0.00   3.34720   2 ;    C12-    O4-    P1-    O1
    12     16     17     14      9     0.00  14.72768   2 ;    C12-    O4-    P1-    O2
    12     16     17     15      9     0.00  14.72768   2 ;    C12-    O4-    P1-    O3
    14      8      7     20      9   180.00  27.82360   2 ;     O2-    C8-    C7-   CL3
    14      8      7     24      9   180.00  27.82360   2 ;     O2-    C8-    C7-    H4
    15     11      9     25      9     0.00   0.00000   0 ;     O3-   C11-    C9-    H5
    15     11      9     25      9     0.00   1.04600   1 ;     O3-   C11-    C9-    H5
    15     11      9     26      9     0.00   0.00000   0 ;     O3-   C11-    C9-    H6
    15     11      9     26      9     0.00   1.04600   1 ;     O3-   C11-    C9-    H6
    15     11      9     27      9     0.00   0.00000   0 ;     O3-   C11-    C9-    H7
    15     11      9     27      9     0.00   1.04600   1 ;     O3-   C11-    C9-    H7
    16     12     10     28      9     0.00   0.00000   0 ;     O4-   C12-   C10-    H8
    16     12     10     28      9     0.00   1.04600   1 ;     O4-   C12-   C10-    H8
    16     12     10     29      9     0.00   0.00000   0 ;     O4-   C12-   C10-    H9
    16     12     10     29      9     0.00   1.04600   1 ;     O4-   C12-   C10-    H9
    16     12     10     30      9     0.00   0.00000   0 ;     O4-   C12-   C10-   H10
    16     12     10     30      9     0.00   1.04600   1 ;     O4-   C12-   C10-   H10
    17     15     11     31      9     0.00   0.00000   0 ;     P1-    O3-   C11-   H11
    17     15     11     32      9     0.00   0.00000   0 ;     P1-    O3-   C11-   H12
    17     16     12     33      9     0.00   0.00000   0 ;     P1-    O4-   C12-   H13
    17     16     12     34      9     0.00   0.00000   0 ;     P1-    O4-   C12-   H14
    18      5      2     22      9   180.00  15.16700   2 ;    CL1-    C5-    C2-    H2
    18      5      3     23      9   180.00  15.16700   2 ;    CL1-    C5-    C3-    H3
    19      6      3     23      9   180.00  15.16700   2 ;    CL2-    C6-    C3-    H3
    21      1      2      5      9   180.00  15.16700   2 ;     H1-    C1-    C2-    C5
    21      1      2     22      9   180.00  15.16700   2 ;     H1-    C1-    C2-    H2
    21      1      4      6      9   180.00  15.16700   2 ;     H1-    C1-    C4-    C6
    21      1      4      8      9   180.00  15.16700   2 ;     H1-    C1-    C4-    C8
    25      9     11     31      9     0.00   0.65084   3 ;     H5-    C9-   C11-   H11
    25      9     11     32      9     0.00   0.65084   3 ;     H5-    C9-   C11-   H12
    26      9     11     31      9     0.00   0.65084   3 ;     H6-    C9-   C11-   H11
    26      9     11     32      9     0.00   0.65084   3 ;     H6-    C9-   C11-   H12
    27      9     11     31      9     0.00   0.65084   3 ;     H7-    C9-   C11-   H11
    27      9     11     32      9     0.00   0.65084   3 ;     H7-    C9-   C11-   H12
    28     10     12     33      9     0.00   0.65084   3 ;     H8-   C10-   C12-   H13
    28     10     12     34      9     0.00   0.65084   3 ;     H8-   C10-   C12-   H14
    29     10     12     33      9     0.00   0.65084   3 ;     H9-   C10-   C12-   H13
    29     10     12     34      9     0.00   0.65084   3 ;     H9-   C10-   C12-   H14
    30     10     12     33      9     0.00   0.65084   3 ;    H10-   C10-   C12-   H13
    30     10     12     34      9     0.00   0.65084   3 ;    H10-   C10-   C12-   H14

[ dihedrals ] ; impropers
; treated as propers in GROMACS to use correct AMBER analytical function
;    i      j      k      l   func   phase     kd      pn
     1      5      2     22      4   180.00   4.60240   2 ;     C1-    C5-    C2-    H2
     1      6      4      8      4   180.00   4.60240   2 ;     C1-    C6-    C4-    C8
     2      3      5     18      4   180.00   4.60240   2 ;     C2-    C3-    C5-   CL1
     3      4      6     19      4   180.00   4.60240   2 ;     C3-    C4-    C6-   CL2
     5      6      3     23      4   180.00   4.60240   2 ;     C5-    C6-    C3-    H3
     7      4      8     14      4   180.00   4.60240   2 ;     C7-    C4-    C8-    O2
     8     20      7     24      4   180.00   4.60240   2 ;     C8-   CL3-    C7-    H4
    21      1      4      2      4   180.00   4.60240   2 ;     H1-    C1-    C4-    C2
