; mobley_6522117_GMX_OPLS.top created by acpype (v: 2023.10.27) on Wed May 20 23:58:04 2026

; Include forcefield parameters
#include "ffoplsaa.itp"

; Include mobley_6522117_GMX.itp topology
#include "mobley_6522117_GMX.itp"

; Ligand position restraints
#ifdef POSRES_LIG
#include "posre_mobley_6522117.itp"
#endif

[ system ]
 mobley_6522117

[ molecules ]
; Compound        nmols
 mobley_6522117   1     
