; mobley_6522117_GMX.top created by acpype (v: 2023.10.27) on Wed May 20 23:58:04 2026

[ defaults ]
; nbfunc        comb-rule       gen-pairs       fudgeLJ fudgeQQ
1               2               yes             0.5     0.8333333333

; Include mobley_6522117_GMX.itp topology
#include "mobley_6522117_GMX.itp"

; Ligand position restraints
#ifdef POSRES_LIG
#include "posre_mobley_6522117.itp"
#endif

[ system ]
mobley_6522117 in water

[ molecules ]
; Compound        nmols
 mobley_6522117   1     
SOL              4493
