; mobley_6522117_GMX_OPLS.itp created by acpype (v: 2023.10.27) on Wed May 20 23:58:04 2026

; For OPLS atomtypes manual fine tuning
; AC_at:OPLS_at:OPLScode: Possible_Alternatives (see ffoplsaa.atp and ffoplsaanb.itp)
; ca:CA:opls_145: ['166', '501', '502']
; c2:CR:opls_509: ['510']
; ce:x:opls_x: []
; c3:CT:opls_135: ['136', '137', '149', '157', '158', '206', '209', '210', '223B', '224B', '245', '246', '274', '283', '284', '285', '292', '292B', '293B', '296', '307', '308', '505']
; o:O:opls_236: ['272']
; os:x:opls_x: []
; p5:x:opls_x: []
; cl:x:opls_x: []
; ha:HA:opls_146: []
; h4:HA:opls_146: []
; hc:HC:opls_140: []
; h1:HC:opls_140: []

[ moleculetype ]
;name            nrexcl
 mobley_6522117   3

[ atoms ]
;   nr  type  resi  res  atom  cgnr     charge      mass       ; qtot   bond_type
     1 opls_145     1   MOL    C1    1    -0.071000     12.01100 ; qtot -0.071  CA  
     2 opls_145     1   MOL    C2    2    -0.132000     12.01100 ; qtot -0.203  CA  
     3 opls_145     1   MOL    C3    3    -0.129000     12.01100 ; qtot -0.332  CA  
     4 opls_145     1   MOL    C4    4    -0.078800     12.01100 ; qtot -0.411  CA  
     5 opls_145     1   MOL    C5    5     0.038400     12.01100 ; qtot -0.372  CA  
     6 opls_145     1   MOL    C6    6     0.053400     12.01100 ; qtot -0.319  CA  
     7 opls_509     1   MOL    C7    7    -0.072600     12.01100 ; qtot -0.392  CR  
     8 opls_x     1   MOL    C8    8     0.148900      0.00000 ; qtot -0.243  x   
     9 opls_135     1   MOL    C9    9    -0.096100     12.01100 ; qtot -0.339  CT  
    10 opls_135     1   MOL   C10   10    -0.096100     12.01100 ; qtot -0.435  CT  
    11 opls_135     1   MOL   C11   11     0.157900     12.01100 ; qtot -0.277  CT  
    12 opls_135     1   MOL   C12   12     0.157900     12.01100 ; qtot -0.119  CT  
    13 opls_236     1   MOL    O1   13    -0.807300     15.99940 ; qtot -0.926  O   
    14 opls_x     1   MOL    O2   14    -0.487500      0.00000 ; qtot -1.414  x   
    15 opls_x     1   MOL    O3   15    -0.553200      0.00000 ; qtot -1.967  x   
    16 opls_x     1   MOL    O4   16    -0.553200      0.00000 ; qtot -2.520  x   
    17 opls_x     1   MOL    P1   17     1.606500      0.00000 ; qtot -0.914  x   
    18 opls_x     1   MOL   CL1   18    -0.081400      0.00000 ; qtot -0.995  x   
    19 opls_x     1   MOL   CL2   19    -0.071400      0.00000 ; qtot -1.067  x   
    20 opls_x     1   MOL   CL3   20    -0.070400      0.00000 ; qtot -1.137  x   
    21 opls_146     1   MOL    H1   21     0.156000      1.00800 ; qtot -0.981  HA  
    22 opls_146     1   MOL    H2   22     0.154000      1.00800 ; qtot -0.827  HA  
    23 opls_146     1   MOL    H3   23     0.164000      1.00800 ; qtot -0.663  HA  
    24 opls_146     1   MOL    H4   24     0.172000      1.00800 ; qtot -0.491  HA  
    25 opls_140     1   MOL    H5   25     0.050200      1.00800 ; qtot -0.441  HC  
    26 opls_140     1   MOL    H6   26     0.050200      1.00800 ; qtot -0.391  HC  
    27 opls_140     1   MOL    H7   27     0.050200      1.00800 ; qtot -0.340  HC  
    28 opls_140     1   MOL    H8   28     0.050200      1.00800 ; qtot -0.290  HC  
    29 opls_140     1   MOL    H9   29     0.050200      1.00800 ; qtot -0.240  HC  
    30 opls_140     1   MOL   H10   30     0.050200      1.00800 ; qtot -0.190  HC  
    31 opls_140     1   MOL   H11   31     0.047450      1.00800 ; qtot -0.142  HC  
    32 opls_140     1   MOL   H12   32     0.047450      1.00800 ; qtot -0.095  HC  
    33 opls_140     1   MOL   H13   33     0.047450      1.00800 ; qtot -0.047  HC  
    34 opls_140     1   MOL   H14   34     0.047450      1.00800 ; qtot -0.000  HC  

[ bonds ]
;   ai     aj funct   r             k
     1      2   1 ;    1.3986e-01    2.9644e+05 ;     C1 - C2         CA - CA    
     1      4   1 ;    1.3986e-01    2.9644e+05 ;     C1 - C4         CA - CA    
     1     21   1 ;    1.0860e-01    3.0183e+05 ;     C1 - H1         CA - HA    
     2      5   1 ;    1.3986e-01    2.9644e+05 ;     C2 - C5         CA - CA    
     2     22   1 ;    1.0860e-01    3.0183e+05 ;     C2 - H2         CA - HA    
     3      5   1 ;    1.3986e-01    2.9644e+05 ;     C3 - C5         CA - CA    
     3      6   1 ;    1.3986e-01    2.9644e+05 ;     C3 - C6         CA - CA    
     3     23   1 ;    1.0860e-01    3.0183e+05 ;     C3 - H3         CA - HA    
     4      6   1 ;    1.3986e-01    2.9644e+05 ;     C4 - C6         CA - CA    
     4      8   1 ;    1.4800e-01    2.2748e+05 ;     C4 - C8         CA - x     
     5     18   1 ;    1.7572e-01    1.5730e+05 ;     C5 - CL1        CA - x     
     6     19   1 ;    1.7572e-01    1.5730e+05 ;     C6 - CL2        CA - x     
     7      8   1 ;    1.3457e-01    3.5505e+05 ;     C7 - C8         CR - x     
     7     20   1 ;    1.7415e-01    1.6405e+05 ;     C7 - CL3        CR - x     
     7     24   1 ;    1.0865e-01    3.0117e+05 ;     C7 - H4         CR - HA    
     8     14   1 ;    1.3721e-01    2.8409e+05 ;     C8 - O2          x - x     
     9     11   1 ;    1.5354e-01    1.9154e+05 ;     C9 - C11        CT - CT    
     9     25   1 ;    1.0962e-01    2.8891e+05 ;     C9 - H5         CT - HC    
     9     26   1 ;    1.0962e-01    2.8891e+05 ;     C9 - H6         CT - HC    
     9     27   1 ;    1.0962e-01    2.8891e+05 ;     C9 - H7         CT - HC    
    10     12   1 ;    1.5354e-01    1.9154e+05 ;    C10 - C12        CT - CT    
    10     28   1 ;    1.0962e-01    2.8891e+05 ;    C10 - H8         CT - HC    
    10     29   1 ;    1.0962e-01    2.8891e+05 ;    C10 - H9         CT - HC    
    10     30   1 ;    1.0962e-01    2.8891e+05 ;    C10 - H10        CT - HC    
    11     15   1 ;    1.4273e-01    2.3620e+05 ;    C11 - O3         CT - x     
    11     31   1 ;    1.0969e-01    2.8804e+05 ;    C11 - H11        CT - HC    
    11     32   1 ;    1.0969e-01    2.8804e+05 ;    C11 - H12        CT - HC    
    12     16   1 ;    1.4273e-01    2.3620e+05 ;    C12 - O4         CT - x     
    12     33   1 ;    1.0969e-01    2.8804e+05 ;    C12 - H13        CT - HC    
    12     34   1 ;    1.0969e-01    2.8804e+05 ;    C12 - H14        CT - HC    
    13     17   1 ;    1.4885e-01    4.7951e+05 ;     O1 - P1          O - x     
    14     17   1 ;    1.6182e-01    3.2434e+05 ;     O2 - P1          x - x     
    15     17   1 ;    1.6182e-01    3.2434e+05 ;     O3 - P1          x - x     
    16     17   1 ;    1.6182e-01    3.2434e+05 ;     O4 - P1          x - x     

[ pairs ]
;   ai     aj    funct
     1      3      1 ;     C1 - C3    
     1      7      1 ;     C1 - C7    
     1     14      1 ;     C1 - O2    
     1     18      1 ;     C1 - CL1   
     1     19      1 ;     C1 - CL2   
     2      6      1 ;     C2 - C6    
     2      8      1 ;     C2 - C8    
     2     23      1 ;     C2 - H3    
     3      8      1 ;     C3 - C8    
     3     22      1 ;     C3 - H2    
     4      5      1 ;     C4 - C5    
     4     17      1 ;     C4 - P1    
     4     20      1 ;     C4 - CL3   
     4     22      1 ;     C4 - H2    
     4     23      1 ;     C4 - H3    
     4     24      1 ;     C4 - H4    
     5     19      1 ;     C5 - CL2   
     6      7      1 ;     C6 - C7    
     6     14      1 ;     C6 - O2    
     6     18      1 ;     C6 - CL1   
     7     17      1 ;     C7 - P1    
     8     13      1 ;     C8 - O1    
     8     15      1 ;     C8 - O3    
     8     16      1 ;     C8 - O4    
     8     19      1 ;     C8 - CL2   
     9     17      1 ;     C9 - P1    
    10     17      1 ;    C10 - P1    
    11     13      1 ;    C11 - O1    
    11     14      1 ;    C11 - O2    
    11     16      1 ;    C11 - O4    
    12     13      1 ;    C12 - O1    
    12     14      1 ;    C12 - O2    
    12     15      1 ;    C12 - O3    
    14     20      1 ;     O2 - CL3   
    14     24      1 ;     O2 - H4    
    15     25      1 ;     O3 - H5    
    15     26      1 ;     O3 - H6    
    15     27      1 ;     O3 - H7    
    16     28      1 ;     O4 - H8    
    16     29      1 ;     O4 - H9    
    16     30      1 ;     O4 - H10   
    17     31      1 ;     P1 - H11   
    17     32      1 ;     P1 - H12   
    17     33      1 ;     P1 - H13   
    17     34      1 ;     P1 - H14   
    18     22      1 ;    CL1 - H2    
    18     23      1 ;    CL1 - H3    
    19     23      1 ;    CL2 - H3    
    21      5      1 ;     H1 - C5    
    21      6      1 ;     H1 - C6    
    21      8      1 ;     H1 - C8    
    21     22      1 ;     H1 - H2    
    25     31      1 ;     H5 - H11   
    25     32      1 ;     H5 - H12   
    26     31      1 ;     H6 - H11   
    26     32      1 ;     H6 - H12   
    27     31      1 ;     H7 - H11   
    27     32      1 ;     H7 - H12   
    28     33      1 ;     H8 - H13   
    28     34      1 ;     H8 - H14   
    29     33      1 ;     H9 - H13   
    29     34      1 ;     H9 - H14   
    30     33      1 ;    H10 - H13   
    30     34      1 ;    H10 - H14   

[ angles ]
;   ai     aj     ak    funct   theta         cth
     1      2      5      1 ;    1.2002e+02    5.3279e+02 ;     C1 - C2   - C5       CA -   CA - CA  
     1      2     22      1 ;    1.1988e+02    3.7572e+02 ;     C1 - C2   - H2       CA -   CA - HA  
     1      4      6      1 ;    1.2002e+02    5.3279e+02 ;     C1 - C4   - C6       CA -   CA - CA  
     1      4      8      1 ;    1.2079e+02    5.1530e+02 ;     C1 - C4   - C8       CA -   CA - x   
     2      1      4      1 ;    1.2002e+02    5.3279e+02 ;     C2 - C1   - C4       CA -   CA - CA  
     2      1     21      1 ;    1.1988e+02    3.7572e+02 ;     C2 - C1   - H1       CA -   CA - HA  
     2      5      3      1 ;    1.2002e+02    5.3279e+02 ;     C2 - C5   - C3       CA -   CA - CA  
     2      5     18      1 ;    1.1938e+02    5.3605e+02 ;     C2 - C5   - CL1      CA -   CA - x   
     3      5     18      1 ;    1.1938e+02    5.3605e+02 ;     C3 - C5   - CL1      CA -   CA - x   
     3      6      4      1 ;    1.2002e+02    5.3279e+02 ;     C3 - C6   - C4       CA -   CA - CA  
     3      6     19      1 ;    1.1938e+02    5.3605e+02 ;     C3 - C6   - CL2      CA -   CA - x   
     4      1     21      1 ;    1.1988e+02    3.7572e+02 ;     C4 - C1   - H1       CA -   CA - HA  
     4      6     19      1 ;    1.1938e+02    5.3605e+02 ;     C4 - C6   - CL2      CA -   CA - x   
     4      8      7      1 ;    1.2298e+02    5.1873e+02 ;     C4 - C8   - C7       CA -    x - CR  
     4      8     14      1 ;    1.1607e+02    6.4810e+02 ;     C4 - C8   - O2       CA -    x - x   
     5      2     22      1 ;    1.1988e+02    3.7572e+02 ;     C5 - C2   - H2       CA -   CA - HA  
     5      3      6      1 ;    1.2002e+02    5.3279e+02 ;     C5 - C3   - C6       CA -   CA - CA  
     5      3     23      1 ;    1.1988e+02    3.7572e+02 ;     C5 - C3   - H3       CA -   CA - HA  
     6      3     23      1 ;    1.1988e+02    3.7572e+02 ;     C6 - C3   - H3       CA -   CA - HA  
     6      4      8      1 ;    1.2079e+02    5.1530e+02 ;     C6 - C4   - C8       CA -   CA - x   
     7      8     14      1 ;    1.2276e+02    6.6308e+02 ;     C7 - C8   - O2       CR -    x - x   
     8      7     20      1 ;    1.2331e+02    5.3530e+02 ;     C8 - C7   - CL3       x -   CR - x   
     8      7     24      1 ;    1.2239e+02    3.8334e+02 ;     C8 - C7   - H4        x -   CR - HA  
     8     14     17      1 ;    1.2317e+02    4.7313e+02 ;     C8 - O2   - P1        x -    x - x   
     9     11     15      1 ;    1.0762e+02    6.4802e+02 ;     C9 - C11  - O3       CT -   CT - x   
     9     11     31      1 ;    1.0959e+02    3.6217e+02 ;     C9 - C11  - H11      CT -   CT - HC  
     9     11     32      1 ;    1.0959e+02    3.6217e+02 ;     C9 - C11  - H12      CT -   CT - HC  
    10     12     16      1 ;    1.0762e+02    6.4802e+02 ;    C10 - C12  - O4       CT -   CT - x   
    10     12     33      1 ;    1.0959e+02    3.6217e+02 ;    C10 - C12  - H13      CT -   CT - HC  
    10     12     34      1 ;    1.0959e+02    3.6217e+02 ;    C10 - C12  - H14      CT -   CT - HC  
    11      9     25      1 ;    1.0968e+02    3.6208e+02 ;    C11 - C9   - H5       CT -   CT - HC  
    11      9     26      1 ;    1.0968e+02    3.6208e+02 ;    C11 - C9   - H6       CT -   CT - HC  
    11      9     27      1 ;    1.0968e+02    3.6208e+02 ;    C11 - C9   - H7       CT -   CT - HC  
    11     15     17      1 ;    1.1970e+02    4.7396e+02 ;    C11 - O3   - P1       CT -    x - x   
    12     10     28      1 ;    1.0968e+02    3.6208e+02 ;    C12 - C10  - H8       CT -   CT - HC  
    12     10     29      1 ;    1.0968e+02    3.6208e+02 ;    C12 - C10  - H9       CT -   CT - HC  
    12     10     30      1 ;    1.0968e+02    3.6208e+02 ;    C12 - C10  - H10      CT -   CT - HC  
    12     16     17      1 ;    1.1970e+02    4.7396e+02 ;    C12 - O4   - P1       CT -    x - x   
    13     17     14      1 ;    1.1544e+02    8.3931e+02 ;     O1 - P1   - O2        O -    x - x   
    13     17     15      1 ;    1.1544e+02    8.3931e+02 ;     O1 - P1   - O3        O -    x - x   
    13     17     16      1 ;    1.1544e+02    8.3931e+02 ;     O1 - P1   - O4        O -    x - x   
    14     17     15      1 ;    1.0172e+02    8.6123e+02 ;     O2 - P1   - O3        x -    x - x   
    14     17     16      1 ;    1.0172e+02    8.6123e+02 ;     O2 - P1   - O4        x -    x - x   
    15     11     31      1 ;    1.1034e+02    4.7028e+02 ;     O3 - C11  - H11       x -   CT - HC  
    15     11     32      1 ;    1.1034e+02    4.7028e+02 ;     O3 - C11  - H12       x -   CT - HC  
    15     17     16      1 ;    1.0172e+02    8.6123e+02 ;     O3 - P1   - O4        x -    x - x   
    16     12     33      1 ;    1.1034e+02    4.7028e+02 ;     O4 - C12  - H13       x -   CT - HC  
    16     12     34      1 ;    1.1034e+02    4.7028e+02 ;     O4 - C12  - H14       x -   CT - HC  
    20      7     24      1 ;    1.1346e+02    3.6543e+02 ;    CL3 - C7   - H4        x -   CR - HA  
    25      9     26      1 ;    1.0773e+02    2.9957e+02 ;     H5 - C9   - H6       HC -   CT - HC  
    25      9     27      1 ;    1.0773e+02    2.9957e+02 ;     H5 - C9   - H7       HC -   CT - HC  
    26      9     27      1 ;    1.0773e+02    2.9957e+02 ;     H6 - C9   - H7       HC -   CT - HC  
    28     10     29      1 ;    1.0773e+02    2.9957e+02 ;     H8 - C10  - H9       HC -   CT - HC  
    28     10     30      1 ;    1.0773e+02    2.9957e+02 ;     H8 - C10  - H10      HC -   CT - HC  
    29     10     30      1 ;    1.0773e+02    2.9957e+02 ;     H9 - C10  - H10      HC -   CT - HC  
    31     11     32      1 ;    1.0855e+02    2.9824e+02 ;    H11 - C11  - H12      HC -   CT - HC  
    33     12     34      1 ;    1.0855e+02    2.9824e+02 ;    H13 - C12  - H14      HC -   CT - HC  

[ dihedrals ] ; propers
; for gromacs 4.5 or higher, using funct 9
;    i      j      k      l   func   phase     kd      pn
     1      2      5      3      9 ;   180.00  15.16700   2 ;     C1-    C2-    C5-    C3
     1      2      5     18      9 ;   180.00  15.16700   2 ;     C1-    C2-    C5-   CL1
     1      4      6      3      9 ;   180.00  15.16700   2 ;     C1-    C4-    C6-    C3
     1      4      6     19      9 ;   180.00  15.16700   2 ;     C1-    C4-    C6-   CL2
     1      4      8      7      9 ;   180.00   2.44764   2 ;     C1-    C4-    C8-    C7
     1      4      8     14      9 ;   180.00   2.92880   2 ;     C1-    C4-    C8-    O2
     2      1      4      6      9 ;   180.00  15.16700   2 ;     C2-    C1-    C4-    C6
     2      1      4      8      9 ;   180.00  15.16700   2 ;     C2-    C1-    C4-    C8
     2      5      3      6      9 ;   180.00  15.16700   2 ;     C2-    C5-    C3-    C6
     2      5      3     23      9 ;   180.00  15.16700   2 ;     C2-    C5-    C3-    H3
     3      5      2     22      9 ;   180.00  15.16700   2 ;     C3-    C5-    C2-    H2
     3      6      4      8      9 ;   180.00  15.16700   2 ;     C3-    C6-    C4-    C8
     4      1      2      5      9 ;   180.00  15.16700   2 ;     C4-    C1-    C2-    C5
     4      1      2     22      9 ;   180.00  15.16700   2 ;     C4-    C1-    C2-    H2
     4      6      3      5      9 ;   180.00  15.16700   2 ;     C4-    C6-    C3-    C5
     4      6      3     23      9 ;   180.00  15.16700   2 ;     C4-    C6-    C3-    H3
     4      8      7     20      9 ;   180.00  27.82360   2 ;     C4-    C8-    C7-   CL3
     4      8      7     24      9 ;   180.00  27.82360   2 ;     C4-    C8-    C7-    H4
     4      8     14     17      9 ;   180.00   7.32200   2 ;     C4-    C8-    O2-    P1
     5      3      6     19      9 ;   180.00  15.16700   2 ;     C5-    C3-    C6-   CL2
     6      3      5     18      9 ;   180.00  15.16700   2 ;     C6-    C3-    C5-   CL1
     6      4      8      7      9 ;   180.00   2.44764   2 ;     C6-    C4-    C8-    C7
     6      4      8     14      9 ;   180.00   2.92880   2 ;     C6-    C4-    C8-    O2
     7      8     14     17      9 ;   180.00   7.32200   2 ;     C7-    C8-    O2-    P1
     8      4      6     19      9 ;   180.00  15.16700   2 ;     C8-    C4-    C6-   CL2
     8     14     17     13      9 ;     0.00   3.34720   2 ;     C8-    O2-    P1-    O1
     8     14     17     15      9 ;     0.00   3.34720   2 ;     C8-    O2-    P1-    O3
     8     14     17     16      9 ;     0.00   3.34720   2 ;     C8-    O2-    P1-    O4
     9     11     15     17      9 ;     0.00   1.60247   3 ;     C9-   C11-    O3-    P1
     9     11     15     17      9 ;   180.00  16.52680   1 ;     C9-   C11-    O3-    P1
    10     12     16     17      9 ;     0.00   1.60247   3 ;    C10-   C12-    O4-    P1
    10     12     16     17      9 ;   180.00  16.52680   1 ;    C10-   C12-    O4-    P1
    11     15     17     13      9 ;     0.00   2.30120   3 ;    C11-    O3-    P1-    O1
    11     15     17     13      9 ;     0.00   3.34720   2 ;    C11-    O3-    P1-    O1
    11     15     17     14      9 ;     0.00  14.72768   2 ;    C11-    O3-    P1-    O2
    11     15     17     16      9 ;     0.00  14.72768   2 ;    C11-    O3-    P1-    O4
    12     16     17     13      9 ;     0.00   2.30120   3 ;    C12-    O4-    P1-    O1
    12     16     17     13      9 ;     0.00   3.34720   2 ;    C12-    O4-    P1-    O1
    12     16     17     14      9 ;     0.00  14.72768   2 ;    C12-    O4-    P1-    O2
    12     16     17     15      9 ;     0.00  14.72768   2 ;    C12-    O4-    P1-    O3
    14      8      7     20      9 ;   180.00  27.82360   2 ;     O2-    C8-    C7-   CL3
    14      8      7     24      9 ;   180.00  27.82360   2 ;     O2-    C8-    C7-    H4
    15     11      9     25      9 ;     0.00   0.00000   0 ;     O3-   C11-    C9-    H5
    15     11      9     25      9 ;     0.00   1.04600   1 ;     O3-   C11-    C9-    H5
    15     11      9     26      9 ;     0.00   0.00000   0 ;     O3-   C11-    C9-    H6
    15     11      9     26      9 ;     0.00   1.04600   1 ;     O3-   C11-    C9-    H6
    15     11      9     27      9 ;     0.00   0.00000   0 ;     O3-   C11-    C9-    H7
    15     11      9     27      9 ;     0.00   1.04600   1 ;     O3-   C11-    C9-    H7
    16     12     10     28      9 ;     0.00   0.00000   0 ;     O4-   C12-   C10-    H8
    16     12     10     28      9 ;     0.00   1.04600   1 ;     O4-   C12-   C10-    H8
    16     12     10     29      9 ;     0.00   0.00000   0 ;     O4-   C12-   C10-    H9
    16     12     10     29      9 ;     0.00   1.04600   1 ;     O4-   C12-   C10-    H9
    16     12     10     30      9 ;     0.00   0.00000   0 ;     O4-   C12-   C10-   H10
    16     12     10     30      9 ;     0.00   1.04600   1 ;     O4-   C12-   C10-   H10
    17     15     11     31      9 ;     0.00   0.00000   0 ;     P1-    O3-   C11-   H11
    17     15     11     32      9 ;     0.00   0.00000   0 ;     P1-    O3-   C11-   H12
    17     16     12     33      9 ;     0.00   0.00000   0 ;     P1-    O4-   C12-   H13
    17     16     12     34      9 ;     0.00   0.00000   0 ;     P1-    O4-   C12-   H14
    18      5      2     22      9 ;   180.00  15.16700   2 ;    CL1-    C5-    C2-    H2
    18      5      3     23      9 ;   180.00  15.16700   2 ;    CL1-    C5-    C3-    H3
    19      6      3     23      9 ;   180.00  15.16700   2 ;    CL2-    C6-    C3-    H3
    21      1      2      5      9 ;   180.00  15.16700   2 ;     H1-    C1-    C2-    C5
    21      1      2     22      9 ;   180.00  15.16700   2 ;     H1-    C1-    C2-    H2
    21      1      4      6      9 ;   180.00  15.16700   2 ;     H1-    C1-    C4-    C6
    21      1      4      8      9 ;   180.00  15.16700   2 ;     H1-    C1-    C4-    C8
    25      9     11     31      9 ;     0.00   0.65084   3 ;     H5-    C9-   C11-   H11
    25      9     11     32      9 ;     0.00   0.65084   3 ;     H5-    C9-   C11-   H12
    26      9     11     31      9 ;     0.00   0.65084   3 ;     H6-    C9-   C11-   H11
    26      9     11     32      9 ;     0.00   0.65084   3 ;     H6-    C9-   C11-   H12
    27      9     11     31      9 ;     0.00   0.65084   3 ;     H7-    C9-   C11-   H11
    27      9     11     32      9 ;     0.00   0.65084   3 ;     H7-    C9-   C11-   H12
    28     10     12     33      9 ;     0.00   0.65084   3 ;     H8-   C10-   C12-   H13
    28     10     12     34      9 ;     0.00   0.65084   3 ;     H8-   C10-   C12-   H14
    29     10     12     33      9 ;     0.00   0.65084   3 ;     H9-   C10-   C12-   H13
    29     10     12     34      9 ;     0.00   0.65084   3 ;     H9-   C10-   C12-   H14
    30     10     12     33      9 ;     0.00   0.65084   3 ;    H10-   C10-   C12-   H13
    30     10     12     34      9 ;     0.00   0.65084   3 ;    H10-   C10-   C12-   H14

[ dihedrals ] ; impropers
; treated as propers in GROMACS to use correct AMBER analytical function
;    i      j      k      l   func   phase     kd      pn
     1      5      2     22      4 ;   180.00   4.60240   2 ;     C1-    C5-    C2-    H2
     1      6      4      8      4 ;   180.00   4.60240   2 ;     C1-    C6-    C4-    C8
     2      3      5     18      4 ;   180.00   4.60240   2 ;     C2-    C3-    C5-   CL1
     3      4      6     19      4 ;   180.00   4.60240   2 ;     C3-    C4-    C6-   CL2
     5      6      3     23      4 ;   180.00   4.60240   2 ;     C5-    C6-    C3-    H3
     7      4      8     14      4 ;   180.00   4.60240   2 ;     C7-    C4-    C8-    O2
     8     20      7     24      4 ;   180.00   4.60240   2 ;     C8-   CL3-    C7-    H4
    21      1      4      2      4 ;   180.00   4.60240   2 ;     H1-    C1-    C4-    C2
