CUP08019_AM1BCC_v1_0
    34
  -0.1060000   0.1260000   2.3360000  -1.2750000   0.1240000   3.1000000
  -2.5460000  -0.5620000   1.1590000  -0.1430000  -0.2110000   0.9730000
  -2.4880000  -0.2180000   2.5070000  -1.3760000  -0.5600000   0.3940000
   1.7190000   0.9210000  -0.2060000   1.1130000  -0.2030000   0.2050000
   3.0870000  -5.6900000  -0.2170000   2.4920000  -1.2840000  -4.8570000
   3.4570000  -4.2260000  -0.0960000   3.2010000  -1.6040000  -3.5580000
   4.1320000  -1.3210000  -0.6500000   1.5810000  -1.4750000  -0.0520000
   2.7350000  -3.4950000  -1.0730000   2.2830000  -1.4440000  -2.4910000
   2.7960000  -1.8850000  -1.0260000  -3.9270000  -0.2210000   3.4510000
  -1.5070000  -1.0010000  -1.2750000   1.1440000   2.5160000   0.0650000
   0.8370000   0.3940000   2.8110000  -1.2310000   0.3910000   4.1530000
  -3.4960000  -0.8290000   0.7050000   2.6430000   0.9430000  -0.7680000
   2.0110000  -5.8290000  -0.0660000   3.3190000  -6.0650000  -1.2190000
   3.6270000  -6.2910000   0.5200000   1.6320000  -1.9470000  -5.0000000
   2.1050000  -0.2600000  -4.8440000   3.1680000  -1.3950000  -5.7090000
   4.5300000  -4.0970000  -0.2670000   3.2100000  -3.8610000   0.9060000
   4.0460000  -0.9240000  -3.4120000   3.5720000  -2.6340000  -3.5750000
