mobley_6358463_GMX.gro created by acpype (v: 2023.10.27) on Wed May 20 23:51:10 2026
   18
    1MOL     C1    1   2.261   2.322   2.074
    1MOL     C2    2   2.154   2.382   2.141
    1MOL     C3    3   2.366   2.266   2.146
    1MOL     C4    4   2.152   2.385   2.281
    1MOL     C5    5   2.364   2.269   2.286
    1MOL     C6    6   2.257   2.328   2.353
    1MOL     C7    7   2.477   2.207   2.361
    1MOL     C8    8   2.253   2.333   2.502
    1MOL     F1    9   2.573   2.154   2.280
    1MOL     F2   10   2.544   2.296   2.441
    1MOL     F3   11   2.437   2.106   2.443
    1MOL     F4   12   2.142   2.395   2.552
    1MOL     F5   13   2.254   2.209   2.561
    1MOL     F6   14   2.359   2.400   2.555
    1MOL     H1   15   2.262   2.320   1.966
    1MOL     H2   16   2.072   2.426   2.085
    1MOL     H3   17   2.448   2.219   2.093
    1MOL     H4   18   2.068   2.432   2.332
   4.60533   4.60533   4.60533
