; mobley_3210206_GMX.itp created by acpype (v: 2023.10.27) on Wed May 20 23:44:51 2026

[ atomtypes ]
;name   bond_type     mass     charge   ptype   sigma         epsilon       Amb
 c3       c3          0.00000  0.00000   A     3.39771e-01   4.51035e-01 ; 1.91  0.1078
 no       no          0.00000  0.00000   A     3.36510e-01   3.58987e-01 ; 1.89  0.0858
 o        o           0.00000  0.00000   A     3.04812e-01   6.12119e-01 ; 1.71  0.1463
 os       os          0.00000  0.00000   A     3.15610e-01   3.03758e-01 ; 1.77  0.0726
 hc       hc          0.00000  0.00000   A     2.60018e-01   8.70272e-02 ; 1.46  0.0208
 h1       h1          0.00000  0.00000   A     2.42200e-01   8.70272e-02 ; 1.36  0.0208

[ moleculetype ]
;name            nrexcl
 mobley_3210206   3

[ atoms ]
;   nr  type  resi  res  atom  cgnr     charge      mass       ; qtot   bond_type
     1   c3     1   MOL    C1    1    -0.128100     12.01000 ; qtot -0.128
     2   c3     1   MOL    C2    2     0.126400     12.01000 ; qtot -0.002
     3   c3     1   MOL    C3    3     0.145100     12.01000 ; qtot 0.143
     4   no     1   MOL    N1    4     0.382200     14.01000 ; qtot 0.526
     5   no     1   MOL    N2    5     0.382201     14.01000 ; qtot 0.908
     6    o     1   MOL    O1    6    -0.171000     16.00000 ; qtot 0.737
     7    o     1   MOL    O2    7    -0.171000     16.00000 ; qtot 0.566
     8    o     1   MOL    O3    8    -0.174500     16.00000 ; qtot 0.391
     9    o     1   MOL    O4    9    -0.174500     16.00000 ; qtot 0.217
    10   os     1   MOL    O5   10    -0.357000     16.00000 ; qtot -0.140
    11   os     1   MOL    O6   11    -0.358000     16.00000 ; qtot -0.498
    12   hc     1   MOL    H1   12     0.066033      1.00800 ; qtot -0.432
    13   hc     1   MOL    H2   13     0.066033      1.00800 ; qtot -0.366
    14   hc     1   MOL    H3   14     0.066033      1.00800 ; qtot -0.300
    15   h1     1   MOL    H4   15     0.094200      1.00800 ; qtot -0.206
    16   h1     1   MOL    H5   16     0.094200      1.00800 ; qtot -0.112
    17   h1     1   MOL    H6   17     0.111700      1.00800 ; qtot 0.000

[ bonds ]
;   ai     aj funct   r             k
     1      3   1    1.5354e-01    1.9154e+05 ;     C1 - C3    
     1     12   1    1.0962e-01    2.8891e+05 ;     C1 - H1    
     1     13   1    1.0962e-01    2.8891e+05 ;     C1 - H2    
     1     14   1    1.0962e-01    2.8891e+05 ;     C1 - H3    
     2      3   1    1.5354e-01    1.9154e+05 ;     C2 - C3    
     2     10   1    1.4273e-01    2.3620e+05 ;     C2 - O5    
     2     15   1    1.0969e-01    2.8804e+05 ;     C2 - H4    
     2     16   1    1.0969e-01    2.8804e+05 ;     C2 - H5    
     3     11   1    1.4273e-01    2.3620e+05 ;     C3 - O6    
     3     17   1    1.0969e-01    2.8804e+05 ;     C3 - H6    
     4      6   1    1.2311e-01    3.0270e+05 ;     N1 - O1    
     4      7   1    1.2311e-01    3.0270e+05 ;     N1 - O2    
     4     10   1    1.4202e-01    1.5509e+05 ;     N1 - O5    
     5      8   1    1.2311e-01    3.0270e+05 ;     N2 - O3    
     5      9   1    1.2311e-01    3.0270e+05 ;     N2 - O4    
     5     11   1    1.4202e-01    1.5509e+05 ;     N2 - O6    

[ pairs ]
;   ai     aj    funct
     1      5      1 ;     C1 - N2    
     1     10      1 ;     C1 - O5    
     1     15      1 ;     C1 - H4    
     1     16      1 ;     C1 - H5    
     2      5      1 ;     C2 - N2    
     2      6      1 ;     C2 - O1    
     2      7      1 ;     C2 - O2    
     3      4      1 ;     C3 - N1    
     3      8      1 ;     C3 - O3    
     3      9      1 ;     C3 - O4    
     4     15      1 ;     N1 - H4    
     4     16      1 ;     N1 - H5    
     5     17      1 ;     N2 - H6    
    10     11      1 ;     O5 - O6    
    10     17      1 ;     O5 - H6    
    11     15      1 ;     O6 - H4    
    11     16      1 ;     O6 - H5    
    12      2      1 ;     H1 - C2    
    12     11      1 ;     H1 - O6    
    12     17      1 ;     H1 - H6    
    13      2      1 ;     H2 - C2    
    13     11      1 ;     H2 - O6    
    13     17      1 ;     H2 - H6    
    14      2      1 ;     H3 - C2    
    14     11      1 ;     H3 - O6    
    14     17      1 ;     H3 - H6    
    15     17      1 ;     H4 - H6    
    16     17      1 ;     H5 - H6    

[ angles ]
;   ai     aj     ak    funct   theta         cth
     1      3      2      1    1.1263e+02    5.0099e+02 ;     C1 - C3     - C2    
     1      3     11      1    1.0762e+02    6.4802e+02 ;     C1 - C3     - O6    
     1      3     17      1    1.0959e+02    3.6217e+02 ;     C1 - C3     - H6    
     2      3     11      1    1.0762e+02    6.4802e+02 ;     C2 - C3     - O6    
     2      3     17      1    1.0959e+02    3.6217e+02 ;     C2 - C3     - H6    
     2     10      4      1    1.1387e+02    7.8567e+02 ;     C2 - O5     - N1    
     3      1     12      1    1.0968e+02    3.6208e+02 ;     C3 - C1     - H1    
     3      1     13      1    1.0968e+02    3.6208e+02 ;     C3 - C1     - H2    
     3      1     14      1    1.0968e+02    3.6208e+02 ;     C3 - C1     - H3    
     3      2     10      1    1.0762e+02    6.4802e+02 ;     C3 - C2     - O5    
     3      2     15      1    1.0959e+02    3.6217e+02 ;     C3 - C2     - H4    
     3      2     16      1    1.0959e+02    3.6217e+02 ;     C3 - C2     - H5    
     3     11      5      1    1.1387e+02    7.8567e+02 ;     C3 - O6     - N2    
     6      4      7      1    1.2505e+02    1.0964e+03 ;     O1 - N1     - O2    
     6      4     10      1    1.1480e+02    1.0519e+03 ;     O1 - N1     - O5    
     7      4     10      1    1.1480e+02    1.0519e+03 ;     O2 - N1     - O5    
     8      5      9      1    1.2505e+02    1.0964e+03 ;     O3 - N2     - O4    
     8      5     11      1    1.1480e+02    1.0519e+03 ;     O3 - N2     - O6    
     9      5     11      1    1.1480e+02    1.0519e+03 ;     O4 - N2     - O6    
    10      2     15      1    1.1034e+02    4.7028e+02 ;     O5 - C2     - H4    
    10      2     16      1    1.1034e+02    4.7028e+02 ;     O5 - C2     - H5    
    11      3     17      1    1.1034e+02    4.7028e+02 ;     O6 - C3     - H6    
    12      1     13      1    1.0773e+02    2.9957e+02 ;     H1 - C1     - H2    
    12      1     14      1    1.0773e+02    2.9957e+02 ;     H1 - C1     - H3    
    13      1     14      1    1.0773e+02    2.9957e+02 ;     H2 - C1     - H3    
    15      2     16      1    1.0855e+02    2.9824e+02 ;     H4 - C2     - H5    

[ dihedrals ] ; propers
; for gromacs 4.5 or higher, using funct 9
;    i      j      k      l   func   phase     kd      pn
     1      3      2     10      9     0.00   0.65084   3 ;     C1-    C3-    C2-    O5
     1      3      2     15      9     0.00   0.65084   3 ;     C1-    C3-    C2-    H4
     1      3      2     16      9     0.00   0.65084   3 ;     C1-    C3-    C2-    H5
     1      3     11      5      9     0.00   1.60387   3 ;     C1-    C3-    O6-    N2
     2      3     11      5      9     0.00   1.60387   3 ;     C2-    C3-    O6-    N2
     2     10      4      6      9   180.00  10.60644   2 ;     C2-    O5-    N1-    O1
     2     10      4      7      9   180.00  10.60644   2 ;     C2-    O5-    N1-    O2
     3      2     10      4      9     0.00   1.60387   3 ;     C3-    C2-    O5-    N1
     3     11      5      8      9   180.00  10.60644   2 ;     C3-    O6-    N2-    O3
     3     11      5      9      9   180.00  10.60644   2 ;     C3-    O6-    N2-    O4
     4     10      2     15      9     0.00   1.60387   3 ;     N1-    O5-    C2-    H4
     4     10      2     16      9     0.00   1.60387   3 ;     N1-    O5-    C2-    H5
     5     11      3     17      9     0.00   1.60387   3 ;     N2-    O6-    C3-    H6
    10      2      3     11      9     0.00   0.75312   1 ;     O5-    C2-    C3-    O6
    10      2      3     11      9     0.00   2.09200   3 ;     O5-    C2-    C3-    O6
    10      2      3     11      9     0.00   3.76560   2 ;     O5-    C2-    C3-    O6
    10      2      3     17      9     0.00   0.00000   0 ;     O5-    C2-    C3-    H6
    10      2      3     17      9     0.00   1.04600   1 ;     O5-    C2-    C3-    H6
    11      3      2     15      9     0.00   0.00000   0 ;     O6-    C3-    C2-    H4
    11      3      2     15      9     0.00   1.04600   1 ;     O6-    C3-    C2-    H4
    11      3      2     16      9     0.00   0.00000   0 ;     O6-    C3-    C2-    H5
    11      3      2     16      9     0.00   1.04600   1 ;     O6-    C3-    C2-    H5
    12      1      3      2      9     0.00   0.54392   3 ;     H1-    C1-    C3-    C2
    12      1      3     11      9     0.00   0.00000   0 ;     H1-    C1-    C3-    O6
    12      1      3     11      9     0.00   1.04600   1 ;     H1-    C1-    C3-    O6
    12      1      3     17      9     0.00   0.65084   3 ;     H1-    C1-    C3-    H6
    13      1      3      2      9     0.00   0.54392   3 ;     H2-    C1-    C3-    C2
    13      1      3     11      9     0.00   0.00000   0 ;     H2-    C1-    C3-    O6
    13      1      3     11      9     0.00   1.04600   1 ;     H2-    C1-    C3-    O6
    13      1      3     17      9     0.00   0.65084   3 ;     H2-    C1-    C3-    H6
    14      1      3      2      9     0.00   0.54392   3 ;     H3-    C1-    C3-    C2
    14      1      3     11      9     0.00   0.00000   0 ;     H3-    C1-    C3-    O6
    14      1      3     11      9     0.00   1.04600   1 ;     H3-    C1-    C3-    O6
    14      1      3     17      9     0.00   0.65084   3 ;     H3-    C1-    C3-    H6
    15      2      3     17      9     0.00   0.65084   3 ;     H4-    C2-    C3-    H6
    16      2      3     17      9     0.00   0.65084   3 ;     H5-    C2-    C3-    H6

[ dihedrals ] ; impropers
; treated as propers in GROMACS to use correct AMBER analytical function
;    i      j      k      l   func   phase     kd      pn
     6      7      4     10      4   180.00   4.60240   2 ;     O1-    O2-    N1-    O5
     8      9      5     11      4   180.00   4.60240   2 ;     O3-    O4-    N2-    O6
