mobley_3210206_GMX.gro created by acpype (v: 2023.10.27) on Wed May 20 23:44:51 2026
 17
    1  MOL   C1    1  -0.041   0.087   0.058
    1  MOL   C2    2  -0.090   0.162   0.293
    1  MOL   C3    3  -0.018   0.057   0.206
    1  MOL   N1    4  -0.115   0.231   0.517
    1  MOL   N2    5   0.011  -0.180   0.217
    1  MOL   O1    6  -0.083   0.213   0.635
    1  MOL   O2    7  -0.189   0.316   0.468
    1  MOL   O3    8  -0.040  -0.287   0.249
    1  MOL   O4    9   0.123  -0.156   0.170
    1  MOL   O5   10  -0.053   0.140   0.429
    1  MOL   O6   11  -0.076  -0.070   0.238
    1  MOL   H1   12  -0.148   0.083   0.034
    1  MOL   H2   13  -0.003   0.186   0.032
    1  MOL   H3   14   0.008   0.013  -0.005
    1  MOL   H4   15  -0.059   0.262   0.262
    1  MOL   H5   16  -0.198   0.150   0.282
    1  MOL   H6   17   0.089   0.061   0.231
    6.41800    12.06400    12.79800
