CUP08002_AM1BCC_v1_0
    17
  -0.4100000   0.8710000   0.5830000  -0.8980000   1.6180000   2.9260000
  -0.1800000   0.5710000   2.0620000  -1.1460000   2.3140000   5.1730000
   0.1120000  -1.7990000   2.1710000  -0.8320000   2.1280000   6.3460000
  -1.8900000   3.1600000   4.6750000  -0.4000000  -2.8720000   2.4860000
   1.2250000  -1.5620000   1.7020000  -0.5270000   1.3980000   4.2880000
  -0.7550000  -0.7000000   2.3850000  -1.4780000   0.8310000   0.3380000
  -0.0270000   1.8610000   0.3160000   0.0840000   0.1300000  -0.0530000
  -0.5880000   2.6240000   2.6160000  -1.9840000   1.5020000   2.8180000
   0.8870000   0.6130000   2.3140000
