; mobley_3210206_GMX_OPLS.top created by acpype (v: 2023.10.27) on Wed May 20 23:44:51 2026

; Include forcefield parameters
#include "ffoplsaa.itp"

; Include mobley_3210206_GMX.itp topology
#include "mobley_3210206_GMX.itp"

; Ligand position restraints
#ifdef POSRES_LIG
#include "posre_mobley_3210206.itp"
#endif

[ system ]
 mobley_3210206

[ molecules ]
; Compound        nmols
 mobley_3210206   1     
