; mobley_8739734_GMX_OPLS.top created by acpype (v: 2023.10.27) on Wed May 20 23:43:14 2026

; Include forcefield parameters
#include "ffoplsaa.itp"

; Include mobley_8739734_GMX.itp topology
#include "mobley_8739734_GMX.itp"

; Ligand position restraints
#ifdef POSRES_LIG
#include "posre_mobley_8739734.itp"
#endif

[ system ]
 mobley_8739734

[ molecules ]
; Compound        nmols
 mobley_8739734   1     
