3_methylbutan_2_one
    16
  -0.0460000   2.1350000  -0.1210000   0.1910000   0.8580000   0.6460000
   1.7490000   3.8110000   0.3320000  -0.6400000   4.5640000   0.1510000
   0.2940000   3.4410000   0.5920000  -0.4680000   2.1060000  -1.2770000
   1.2620000   0.7110000   0.8030000  -0.2030000   0.0110000   0.0770000
  -0.3300000   0.9020000   1.6050000   1.9430000   3.9300000  -0.7400000
   2.0090000   4.7500000   0.8320000   2.4270000   3.0360000   0.7040000
  -1.6870000   4.2870000   0.3140000  -0.5200000   4.7910000  -0.9140000
  -0.4400000   5.4800000   0.7170000   0.1430000   3.2810000   1.6670000
