; mobley_4375719_GMX_OPLS.top created by acpype (v: 2023.10.27) on Wed May 20 23:48:28 2026

; Include forcefield parameters
#include "ffoplsaa.itp"

; Include mobley_4375719_GMX.itp topology
#include "mobley_4375719_GMX.itp"

; Ligand position restraints
#ifdef POSRES_LIG
#include "posre_mobley_4375719.itp"
#endif

[ system ]
 mobley_4375719

[ molecules ]
; Compound        nmols
 mobley_4375719   1     
