mobley_4375719_GMX.gro created by acpype (v: 2023.10.27) on Wed May 20 23:48:28 2026
 29
    1  MOL   C1    1   0.058  -0.192  -0.131
    1  MOL   C2    2   0.657  -0.513   0.619
    1  MOL   C3    3   0.086  -0.188   0.018
    1  MOL   C4    4   0.538  -0.426   0.582
    1  MOL   C5    5   0.204  -0.276   0.061
    1  MOL   C6    6   0.508  -0.433   0.433
    1  MOL   C7    7   0.233  -0.269   0.211
    1  MOL   C8    8   0.386  -0.348   0.397
    1  MOL   C9    9   0.354  -0.357   0.247
    1  MOL   H1   10   0.043  -0.295  -0.166
    1  MOL   H2   11  -0.033  -0.135  -0.153
    1  MOL   H3   12   0.139  -0.147  -0.188
    1  MOL   H4   13   0.677  -0.507   0.726
    1  MOL   H5   14   0.747  -0.480   0.566
    1  MOL   H6   15   0.639  -0.618   0.594
    1  MOL   H7   16   0.104  -0.084   0.049
    1  MOL   H8   17  -0.004  -0.222   0.072
    1  MOL   H9   18   0.558  -0.323   0.612
    1  MOL  H10   19   0.450  -0.460   0.639
    1  MOL  H11   20   0.180  -0.380   0.033
    1  MOL  H12   21   0.293  -0.247   0.004
    1  MOL  H13   22   0.595  -0.397   0.376
    1  MOL  H14   23   0.491  -0.537   0.403
    1  MOL  H15   24   0.145  -0.303   0.267
    1  MOL  H16   25   0.254  -0.166   0.241
    1  MOL  H17   26   0.404  -0.243   0.424
    1  MOL  H18   27   0.299  -0.382   0.455
    1  MOL  H19   28   0.333  -0.461   0.220
    1  MOL  H20   29   0.441  -0.325   0.189
   15.61000    10.67400    18.29600
