; mobley_4375719_GMX_OPLS.itp created by acpype (v: 2023.10.27) on Wed May 20 23:48:28 2026

; For OPLS atomtypes manual fine tuning
; AC_at:OPLS_at:OPLScode: Possible_Alternatives (see ffoplsaa.atp and ffoplsaanb.itp)
; c3:CT:opls_135: ['136', '137', '149', '157', '158', '206', '209', '210', '223B', '224B', '245', '246', '274', '283', '284', '285', '292', '292B', '293B', '296', '307', '308', '505']
; hc:HC:opls_140: []

[ moleculetype ]
;name            nrexcl
 mobley_4375719   3

[ atoms ]
;   nr  type  resi  res  atom  cgnr     charge      mass       ; qtot   bond_type
     1 opls_135     1   MOL    C1    1    -0.095600     12.01100 ; qtot -0.096  CT  
     2 opls_135     1   MOL    C2    2    -0.095600     12.01100 ; qtot -0.191  CT  
     3 opls_135     1   MOL    C3    3    -0.080400     12.01100 ; qtot -0.272  CT  
     4 opls_135     1   MOL    C4    4    -0.080400     12.01100 ; qtot -0.352  CT  
     5 opls_135     1   MOL    C5    5    -0.079400     12.01100 ; qtot -0.431  CT  
     6 opls_135     1   MOL    C6    6    -0.079400     12.01100 ; qtot -0.511  CT  
     7 opls_135     1   MOL    C7    7    -0.079400     12.01100 ; qtot -0.590  CT  
     8 opls_135     1   MOL    C8    8    -0.079400     12.01100 ; qtot -0.670  CT  
     9 opls_135     1   MOL    C9    9    -0.078400     12.01100 ; qtot -0.748  CT  
    10 opls_140     1   MOL    H1   10     0.032700      1.00800 ; qtot -0.715  HC  
    11 opls_140     1   MOL    H2   11     0.032700      1.00800 ; qtot -0.683  HC  
    12 opls_140     1   MOL    H3   12     0.032700      1.00800 ; qtot -0.650  HC  
    13 opls_140     1   MOL    H4   13     0.032700      1.00800 ; qtot -0.617  HC  
    14 opls_140     1   MOL    H5   14     0.032700      1.00800 ; qtot -0.585  HC  
    15 opls_140     1   MOL    H6   15     0.032700      1.00800 ; qtot -0.552  HC  
    16 opls_140     1   MOL    H7   16     0.038700      1.00800 ; qtot -0.513  HC  
    17 opls_140     1   MOL    H8   17     0.038700      1.00800 ; qtot -0.474  HC  
    18 opls_140     1   MOL    H9   18     0.038700      1.00800 ; qtot -0.436  HC  
    19 opls_140     1   MOL   H10   19     0.038700      1.00800 ; qtot -0.397  HC  
    20 opls_140     1   MOL   H11   20     0.039700      1.00800 ; qtot -0.357  HC  
    21 opls_140     1   MOL   H12   21     0.039700      1.00800 ; qtot -0.318  HC  
    22 opls_140     1   MOL   H13   22     0.039700      1.00800 ; qtot -0.278  HC  
    23 opls_140     1   MOL   H14   23     0.039700      1.00800 ; qtot -0.238  HC  
    24 opls_140     1   MOL   H15   24     0.039700      1.00800 ; qtot -0.199  HC  
    25 opls_140     1   MOL   H16   25     0.039700      1.00800 ; qtot -0.159  HC  
    26 opls_140     1   MOL   H17   26     0.039700      1.00800 ; qtot -0.119  HC  
    27 opls_140     1   MOL   H18   27     0.039700      1.00800 ; qtot -0.079  HC  
    28 opls_140     1   MOL   H19   28     0.039700      1.00800 ; qtot -0.040  HC  
    29 opls_140     1   MOL   H20   29     0.039700      1.00800 ; qtot -0.000  HC  

[ bonds ]
;   ai     aj funct   r             k
     1      3   1 ;    1.5354e-01    1.9154e+05 ;     C1 - C3         CT - CT    
     1     10   1 ;    1.0962e-01    2.8891e+05 ;     C1 - H1         CT - HC    
     1     11   1 ;    1.0962e-01    2.8891e+05 ;     C1 - H2         CT - HC    
     1     12   1 ;    1.0962e-01    2.8891e+05 ;     C1 - H3         CT - HC    
     2      4   1 ;    1.5354e-01    1.9154e+05 ;     C2 - C4         CT - CT    
     2     13   1 ;    1.0962e-01    2.8891e+05 ;     C2 - H4         CT - HC    
     2     14   1 ;    1.0962e-01    2.8891e+05 ;     C2 - H5         CT - HC    
     2     15   1 ;    1.0962e-01    2.8891e+05 ;     C2 - H6         CT - HC    
     3      5   1 ;    1.5354e-01    1.9154e+05 ;     C3 - C5         CT - CT    
     3     16   1 ;    1.0962e-01    2.8891e+05 ;     C3 - H7         CT - HC    
     3     17   1 ;    1.0962e-01    2.8891e+05 ;     C3 - H8         CT - HC    
     4      6   1 ;    1.5354e-01    1.9154e+05 ;     C4 - C6         CT - CT    
     4     18   1 ;    1.0962e-01    2.8891e+05 ;     C4 - H9         CT - HC    
     4     19   1 ;    1.0962e-01    2.8891e+05 ;     C4 - H10        CT - HC    
     5      7   1 ;    1.5354e-01    1.9154e+05 ;     C5 - C7         CT - CT    
     5     20   1 ;    1.0962e-01    2.8891e+05 ;     C5 - H11        CT - HC    
     5     21   1 ;    1.0962e-01    2.8891e+05 ;     C5 - H12        CT - HC    
     6      8   1 ;    1.5354e-01    1.9154e+05 ;     C6 - C8         CT - CT    
     6     22   1 ;    1.0962e-01    2.8891e+05 ;     C6 - H13        CT - HC    
     6     23   1 ;    1.0962e-01    2.8891e+05 ;     C6 - H14        CT - HC    
     7      9   1 ;    1.5354e-01    1.9154e+05 ;     C7 - C9         CT - CT    
     7     24   1 ;    1.0962e-01    2.8891e+05 ;     C7 - H15        CT - HC    
     7     25   1 ;    1.0962e-01    2.8891e+05 ;     C7 - H16        CT - HC    
     8      9   1 ;    1.5354e-01    1.9154e+05 ;     C8 - C9         CT - CT    
     8     26   1 ;    1.0962e-01    2.8891e+05 ;     C8 - H17        CT - HC    
     8     27   1 ;    1.0962e-01    2.8891e+05 ;     C8 - H18        CT - HC    
     9     28   1 ;    1.0962e-01    2.8891e+05 ;     C9 - H19        CT - HC    
     9     29   1 ;    1.0962e-01    2.8891e+05 ;     C9 - H20        CT - HC    

[ pairs ]
;   ai     aj    funct
     1      7      1 ;     C1 - C7    
     1     20      1 ;     C1 - H11   
     1     21      1 ;     C1 - H12   
     2      8      1 ;     C2 - C8    
     2     22      1 ;     C2 - H13   
     2     23      1 ;     C2 - H14   
     3      9      1 ;     C3 - C9    
     3     24      1 ;     C3 - H15   
     3     25      1 ;     C3 - H16   
     4      9      1 ;     C4 - C9    
     4     26      1 ;     C4 - H17   
     4     27      1 ;     C4 - H18   
     5      8      1 ;     C5 - C8    
     5     28      1 ;     C5 - H19   
     5     29      1 ;     C5 - H20   
     6      7      1 ;     C6 - C7    
     6     13      1 ;     C6 - H4    
     6     14      1 ;     C6 - H5    
     6     15      1 ;     C6 - H6    
     6     28      1 ;     C6 - H19   
     6     29      1 ;     C6 - H20   
     7     16      1 ;     C7 - H7    
     7     17      1 ;     C7 - H8    
     7     26      1 ;     C7 - H17   
     7     27      1 ;     C7 - H18   
     8     18      1 ;     C8 - H9    
     8     19      1 ;     C8 - H10   
     8     24      1 ;     C8 - H15   
     8     25      1 ;     C8 - H16   
     9     20      1 ;     C9 - H11   
     9     21      1 ;     C9 - H12   
     9     22      1 ;     C9 - H13   
     9     23      1 ;     C9 - H14   
    10      5      1 ;     H1 - C5    
    10     16      1 ;     H1 - H7    
    10     17      1 ;     H1 - H8    
    11      5      1 ;     H2 - C5    
    11     16      1 ;     H2 - H7    
    11     17      1 ;     H2 - H8    
    12      5      1 ;     H3 - C5    
    12     16      1 ;     H3 - H7    
    12     17      1 ;     H3 - H8    
    13     18      1 ;     H4 - H9    
    13     19      1 ;     H4 - H10   
    14     18      1 ;     H5 - H9    
    14     19      1 ;     H5 - H10   
    15     18      1 ;     H6 - H9    
    15     19      1 ;     H6 - H10   
    16     20      1 ;     H7 - H11   
    16     21      1 ;     H7 - H12   
    17     20      1 ;     H8 - H11   
    17     21      1 ;     H8 - H12   
    18     22      1 ;     H9 - H13   
    18     23      1 ;     H9 - H14   
    19     22      1 ;    H10 - H13   
    19     23      1 ;    H10 - H14   
    20     24      1 ;    H11 - H15   
    20     25      1 ;    H11 - H16   
    21     24      1 ;    H12 - H15   
    21     25      1 ;    H12 - H16   
    22     26      1 ;    H13 - H17   
    22     27      1 ;    H13 - H18   
    23     26      1 ;    H14 - H17   
    23     27      1 ;    H14 - H18   
    24     28      1 ;    H15 - H19   
    24     29      1 ;    H15 - H20   
    25     28      1 ;    H16 - H19   
    25     29      1 ;    H16 - H20   
    26     28      1 ;    H17 - H19   
    26     29      1 ;    H17 - H20   
    27     28      1 ;    H18 - H19   
    27     29      1 ;    H18 - H20   

[ angles ]
;   ai     aj     ak    funct   theta         cth
     1      3      5      1 ;    1.1263e+02    5.0099e+02 ;     C1 - C3   - C5       CT -   CT - CT  
     1      3     16      1 ;    1.0968e+02    3.6208e+02 ;     C1 - C3   - H7       CT -   CT - HC  
     1      3     17      1 ;    1.0968e+02    3.6208e+02 ;     C1 - C3   - H8       CT -   CT - HC  
     2      4      6      1 ;    1.1263e+02    5.0099e+02 ;     C2 - C4   - C6       CT -   CT - CT  
     2      4     18      1 ;    1.0968e+02    3.6208e+02 ;     C2 - C4   - H9       CT -   CT - HC  
     2      4     19      1 ;    1.0968e+02    3.6208e+02 ;     C2 - C4   - H10      CT -   CT - HC  
     3      1     10      1 ;    1.0968e+02    3.6208e+02 ;     C3 - C1   - H1       CT -   CT - HC  
     3      1     11      1 ;    1.0968e+02    3.6208e+02 ;     C3 - C1   - H2       CT -   CT - HC  
     3      1     12      1 ;    1.0968e+02    3.6208e+02 ;     C3 - C1   - H3       CT -   CT - HC  
     3      5      7      1 ;    1.1263e+02    5.0099e+02 ;     C3 - C5   - C7       CT -   CT - CT  
     3      5     20      1 ;    1.0968e+02    3.6208e+02 ;     C3 - C5   - H11      CT -   CT - HC  
     3      5     21      1 ;    1.0968e+02    3.6208e+02 ;     C3 - C5   - H12      CT -   CT - HC  
     4      2     13      1 ;    1.0968e+02    3.6208e+02 ;     C4 - C2   - H4       CT -   CT - HC  
     4      2     14      1 ;    1.0968e+02    3.6208e+02 ;     C4 - C2   - H5       CT -   CT - HC  
     4      2     15      1 ;    1.0968e+02    3.6208e+02 ;     C4 - C2   - H6       CT -   CT - HC  
     4      6      8      1 ;    1.1263e+02    5.0099e+02 ;     C4 - C6   - C8       CT -   CT - CT  
     4      6     22      1 ;    1.0968e+02    3.6208e+02 ;     C4 - C6   - H13      CT -   CT - HC  
     4      6     23      1 ;    1.0968e+02    3.6208e+02 ;     C4 - C6   - H14      CT -   CT - HC  
     5      3     16      1 ;    1.0968e+02    3.6208e+02 ;     C5 - C3   - H7       CT -   CT - HC  
     5      3     17      1 ;    1.0968e+02    3.6208e+02 ;     C5 - C3   - H8       CT -   CT - HC  
     5      7      9      1 ;    1.1263e+02    5.0099e+02 ;     C5 - C7   - C9       CT -   CT - CT  
     5      7     24      1 ;    1.0968e+02    3.6208e+02 ;     C5 - C7   - H15      CT -   CT - HC  
     5      7     25      1 ;    1.0968e+02    3.6208e+02 ;     C5 - C7   - H16      CT -   CT - HC  
     6      4     18      1 ;    1.0968e+02    3.6208e+02 ;     C6 - C4   - H9       CT -   CT - HC  
     6      4     19      1 ;    1.0968e+02    3.6208e+02 ;     C6 - C4   - H10      CT -   CT - HC  
     6      8      9      1 ;    1.1263e+02    5.0099e+02 ;     C6 - C8   - C9       CT -   CT - CT  
     6      8     26      1 ;    1.0968e+02    3.6208e+02 ;     C6 - C8   - H17      CT -   CT - HC  
     6      8     27      1 ;    1.0968e+02    3.6208e+02 ;     C6 - C8   - H18      CT -   CT - HC  
     7      5     20      1 ;    1.0968e+02    3.6208e+02 ;     C7 - C5   - H11      CT -   CT - HC  
     7      5     21      1 ;    1.0968e+02    3.6208e+02 ;     C7 - C5   - H12      CT -   CT - HC  
     7      9      8      1 ;    1.1263e+02    5.0099e+02 ;     C7 - C9   - C8       CT -   CT - CT  
     7      9     28      1 ;    1.0968e+02    3.6208e+02 ;     C7 - C9   - H19      CT -   CT - HC  
     7      9     29      1 ;    1.0968e+02    3.6208e+02 ;     C7 - C9   - H20      CT -   CT - HC  
     8      6     22      1 ;    1.0968e+02    3.6208e+02 ;     C8 - C6   - H13      CT -   CT - HC  
     8      6     23      1 ;    1.0968e+02    3.6208e+02 ;     C8 - C6   - H14      CT -   CT - HC  
     8      9     28      1 ;    1.0968e+02    3.6208e+02 ;     C8 - C9   - H19      CT -   CT - HC  
     8      9     29      1 ;    1.0968e+02    3.6208e+02 ;     C8 - C9   - H20      CT -   CT - HC  
     9      7     24      1 ;    1.0968e+02    3.6208e+02 ;     C9 - C7   - H15      CT -   CT - HC  
     9      7     25      1 ;    1.0968e+02    3.6208e+02 ;     C9 - C7   - H16      CT -   CT - HC  
     9      8     26      1 ;    1.0968e+02    3.6208e+02 ;     C9 - C8   - H17      CT -   CT - HC  
     9      8     27      1 ;    1.0968e+02    3.6208e+02 ;     C9 - C8   - H18      CT -   CT - HC  
    10      1     11      1 ;    1.0773e+02    2.9957e+02 ;     H1 - C1   - H2       HC -   CT - HC  
    10      1     12      1 ;    1.0773e+02    2.9957e+02 ;     H1 - C1   - H3       HC -   CT - HC  
    11      1     12      1 ;    1.0773e+02    2.9957e+02 ;     H2 - C1   - H3       HC -   CT - HC  
    13      2     14      1 ;    1.0773e+02    2.9957e+02 ;     H4 - C2   - H5       HC -   CT - HC  
    13      2     15      1 ;    1.0773e+02    2.9957e+02 ;     H4 - C2   - H6       HC -   CT - HC  
    14      2     15      1 ;    1.0773e+02    2.9957e+02 ;     H5 - C2   - H6       HC -   CT - HC  
    16      3     17      1 ;    1.0773e+02    2.9957e+02 ;     H7 - C3   - H8       HC -   CT - HC  
    18      4     19      1 ;    1.0773e+02    2.9957e+02 ;     H9 - C4   - H10      HC -   CT - HC  
    20      5     21      1 ;    1.0773e+02    2.9957e+02 ;    H11 - C5   - H12      HC -   CT - HC  
    22      6     23      1 ;    1.0773e+02    2.9957e+02 ;    H13 - C6   - H14      HC -   CT - HC  
    24      7     25      1 ;    1.0773e+02    2.9957e+02 ;    H15 - C7   - H16      HC -   CT - HC  
    26      8     27      1 ;    1.0773e+02    2.9957e+02 ;    H17 - C8   - H18      HC -   CT - HC  
    28      9     29      1 ;    1.0773e+02    2.9957e+02 ;    H19 - C9   - H20      HC -   CT - HC  

[ dihedrals ] ; propers
; for gromacs 4.5 or higher, using funct 9
;    i      j      k      l   func   phase     kd      pn
     1      3      5      7      9 ;     0.00   2.17568   3 ;     C1-    C3-    C5-    C7
     1      3      5     20      9 ;     0.00   0.54392   3 ;     C1-    C3-    C5-   H11
     1      3      5     21      9 ;     0.00   0.54392   3 ;     C1-    C3-    C5-   H12
     2      4      6      8      9 ;     0.00   2.17568   3 ;     C2-    C4-    C6-    C8
     2      4      6     22      9 ;     0.00   0.54392   3 ;     C2-    C4-    C6-   H13
     2      4      6     23      9 ;     0.00   0.54392   3 ;     C2-    C4-    C6-   H14
     3      5      7      9      9 ;     0.00   2.17568   3 ;     C3-    C5-    C7-    C9
     3      5      7     24      9 ;     0.00   0.54392   3 ;     C3-    C5-    C7-   H15
     3      5      7     25      9 ;     0.00   0.54392   3 ;     C3-    C5-    C7-   H16
     4      6      8      9      9 ;     0.00   2.17568   3 ;     C4-    C6-    C8-    C9
     4      6      8     26      9 ;     0.00   0.54392   3 ;     C4-    C6-    C8-   H17
     4      6      8     27      9 ;     0.00   0.54392   3 ;     C4-    C6-    C8-   H18
     5      7      9      8      9 ;     0.00   2.17568   3 ;     C5-    C7-    C9-    C8
     5      7      9     28      9 ;     0.00   0.54392   3 ;     C5-    C7-    C9-   H19
     5      7      9     29      9 ;     0.00   0.54392   3 ;     C5-    C7-    C9-   H20
     6      4      2     13      9 ;     0.00   0.54392   3 ;     C6-    C4-    C2-    H4
     6      4      2     14      9 ;     0.00   0.54392   3 ;     C6-    C4-    C2-    H5
     6      4      2     15      9 ;     0.00   0.54392   3 ;     C6-    C4-    C2-    H6
     6      8      9      7      9 ;     0.00   2.17568   3 ;     C6-    C8-    C9-    C7
     6      8      9     28      9 ;     0.00   0.54392   3 ;     C6-    C8-    C9-   H19
     6      8      9     29      9 ;     0.00   0.54392   3 ;     C6-    C8-    C9-   H20
     7      5      3     16      9 ;     0.00   0.54392   3 ;     C7-    C5-    C3-    H7
     7      5      3     17      9 ;     0.00   0.54392   3 ;     C7-    C5-    C3-    H8
     7      9      8     26      9 ;     0.00   0.54392   3 ;     C7-    C9-    C8-   H17
     7      9      8     27      9 ;     0.00   0.54392   3 ;     C7-    C9-    C8-   H18
     8      6      4     18      9 ;     0.00   0.54392   3 ;     C8-    C6-    C4-    H9
     8      6      4     19      9 ;     0.00   0.54392   3 ;     C8-    C6-    C4-   H10
     8      9      7     24      9 ;     0.00   0.54392   3 ;     C8-    C9-    C7-   H15
     8      9      7     25      9 ;     0.00   0.54392   3 ;     C8-    C9-    C7-   H16
     9      7      5     20      9 ;     0.00   0.54392   3 ;     C9-    C7-    C5-   H11
     9      7      5     21      9 ;     0.00   0.54392   3 ;     C9-    C7-    C5-   H12
     9      8      6     22      9 ;     0.00   0.54392   3 ;     C9-    C8-    C6-   H13
     9      8      6     23      9 ;     0.00   0.54392   3 ;     C9-    C8-    C6-   H14
    10      1      3      5      9 ;     0.00   0.54392   3 ;     H1-    C1-    C3-    C5
    10      1      3     16      9 ;     0.00   0.50208   3 ;     H1-    C1-    C3-    H7
    10      1      3     17      9 ;     0.00   0.50208   3 ;     H1-    C1-    C3-    H8
    11      1      3      5      9 ;     0.00   0.54392   3 ;     H2-    C1-    C3-    C5
    11      1      3     16      9 ;     0.00   0.50208   3 ;     H2-    C1-    C3-    H7
    11      1      3     17      9 ;     0.00   0.50208   3 ;     H2-    C1-    C3-    H8
    12      1      3      5      9 ;     0.00   0.54392   3 ;     H3-    C1-    C3-    C5
    12      1      3     16      9 ;     0.00   0.50208   3 ;     H3-    C1-    C3-    H7
    12      1      3     17      9 ;     0.00   0.50208   3 ;     H3-    C1-    C3-    H8
    13      2      4     18      9 ;     0.00   0.50208   3 ;     H4-    C2-    C4-    H9
    13      2      4     19      9 ;     0.00   0.50208   3 ;     H4-    C2-    C4-   H10
    14      2      4     18      9 ;     0.00   0.50208   3 ;     H5-    C2-    C4-    H9
    14      2      4     19      9 ;     0.00   0.50208   3 ;     H5-    C2-    C4-   H10
    15      2      4     18      9 ;     0.00   0.50208   3 ;     H6-    C2-    C4-    H9
    15      2      4     19      9 ;     0.00   0.50208   3 ;     H6-    C2-    C4-   H10
    16      3      5     20      9 ;     0.00   0.50208   3 ;     H7-    C3-    C5-   H11
    16      3      5     21      9 ;     0.00   0.50208   3 ;     H7-    C3-    C5-   H12
    17      3      5     20      9 ;     0.00   0.50208   3 ;     H8-    C3-    C5-   H11
    17      3      5     21      9 ;     0.00   0.50208   3 ;     H8-    C3-    C5-   H12
    18      4      6     22      9 ;     0.00   0.50208   3 ;     H9-    C4-    C6-   H13
    18      4      6     23      9 ;     0.00   0.50208   3 ;     H9-    C4-    C6-   H14
    19      4      6     22      9 ;     0.00   0.50208   3 ;    H10-    C4-    C6-   H13
    19      4      6     23      9 ;     0.00   0.50208   3 ;    H10-    C4-    C6-   H14
    20      5      7     24      9 ;     0.00   0.50208   3 ;    H11-    C5-    C7-   H15
    20      5      7     25      9 ;     0.00   0.50208   3 ;    H11-    C5-    C7-   H16
    21      5      7     24      9 ;     0.00   0.50208   3 ;    H12-    C5-    C7-   H15
    21      5      7     25      9 ;     0.00   0.50208   3 ;    H12-    C5-    C7-   H16
    22      6      8     26      9 ;     0.00   0.50208   3 ;    H13-    C6-    C8-   H17
    22      6      8     27      9 ;     0.00   0.50208   3 ;    H13-    C6-    C8-   H18
    23      6      8     26      9 ;     0.00   0.50208   3 ;    H14-    C6-    C8-   H17
    23      6      8     27      9 ;     0.00   0.50208   3 ;    H14-    C6-    C8-   H18
    24      7      9     28      9 ;     0.00   0.50208   3 ;    H15-    C7-    C9-   H19
    24      7      9     29      9 ;     0.00   0.50208   3 ;    H15-    C7-    C9-   H20
    25      7      9     28      9 ;     0.00   0.50208   3 ;    H16-    C7-    C9-   H19
    25      7      9     29      9 ;     0.00   0.50208   3 ;    H16-    C7-    C9-   H20
    26      8      9     28      9 ;     0.00   0.50208   3 ;    H17-    C8-    C9-   H19
    26      8      9     29      9 ;     0.00   0.50208   3 ;    H17-    C8-    C9-   H20
    27      8      9     28      9 ;     0.00   0.50208   3 ;    H18-    C8-    C9-   H19
    27      8      9     29      9 ;     0.00   0.50208   3 ;    H18-    C8-    C9-   H20
