%VERSION  VERSION_STAMP = V0001.000  DATE = 05/20/26  23:48:30                  
%FLAG TITLE                                                                     
%FORMAT(20a4)                                                                   
n_nonane                                                                        
%FLAG POINTERS                                                                  
%FORMAT(10I8)                                                                   
      29       2      20       8      47       7      66       6       0       0
     155       1       8       7       6       2       3       3       2       0
       0       0       0       0       0       0       0       0      29       0
       0
%FLAG ATOM_NAME                                                                 
%FORMAT(20a4)                                                                   
C1  C2  C3  C4  C5  C6  C7  C8  C9  H1  H2  H3  H4  H5  H6  H7  H8  H9  H10 H11 
H12 H13 H14 H15 H16 H17 H18 H19 H20 
%FLAG CHARGE                                                                    
%FORMAT(5E16.8)                                                                 
 -1.67827383E+00 -1.67827383E+00 -1.46507292E+00 -1.46507292E+00 -1.44685062E+00
 -1.44685062E+00 -1.44685062E+00 -1.44685062E+00 -1.42862832E+00  5.95869210E-01
  5.95869210E-01  5.95869210E-01  5.95869210E-01  5.95869210E-01  5.95869210E-01
  7.05203010E-01  7.05203010E-01  7.05203010E-01  7.05203010E-01  7.23425310E-01
  7.23425310E-01  7.23425310E-01  7.23425310E-01  7.23425310E-01  7.23425310E-01
  7.23425310E-01  7.23425310E-01  7.23425310E-01  7.23425310E-01
%FLAG ATOMIC_NUMBER                                                             
%FORMAT(10I8)                                                                   
       6       6       6       6       6       6       6       6       6       1
       1       1       1       1       1       1       1       1       1       1
       1       1       1       1       1       1       1       1       1
%FLAG MASS                                                                      
%FORMAT(5E16.8)                                                                 
  1.20100000E+01  1.20100000E+01  1.20100000E+01  1.20100000E+01  1.20100000E+01
  1.20100000E+01  1.20100000E+01  1.20100000E+01  1.20100000E+01  1.00800000E+00
  1.00800000E+00  1.00800000E+00  1.00800000E+00  1.00800000E+00  1.00800000E+00
  1.00800000E+00  1.00800000E+00  1.00800000E+00  1.00800000E+00  1.00800000E+00
  1.00800000E+00  1.00800000E+00  1.00800000E+00  1.00800000E+00  1.00800000E+00
  1.00800000E+00  1.00800000E+00  1.00800000E+00  1.00800000E+00
%FLAG ATOM_TYPE_INDEX                                                           
%FORMAT(10I8)                                                                   
       1       1       1       1       1       1       1       1       1       2
       2       2       2       2       2       2       2       2       2       2
       2       2       2       2       2       2       2       2       2
%FLAG NUMBER_EXCLUDED_ATOMS                                                     
%FORMAT(10I8)                                                                   
      10      10      12      12      14      14      12      11      10       4
       3       2       4       3       2       3       2       3       2       3
       2       3       2       3       2       3       2       1       1
%FLAG NONBONDED_PARM_INDEX                                                      
%FORMAT(10I8)                                                                   
       1       2       2       3
%FLAG RESIDUE_LABEL                                                             
%FORMAT(20a4)                                                                   
MOL 
%FLAG RESIDUE_POINTER                                                           
%FORMAT(10I8)                                                                   
       1
%FLAG BOND_FORCE_CONSTANT                                                       
%FORMAT(5E16.8)                                                                 
  2.28890000E+02  3.45250000E+02
%FLAG BOND_EQUIL_VALUE                                                          
%FORMAT(5E16.8)                                                                 
  1.53540000E+00  1.09620000E+00
%FLAG ANGLE_FORCE_CONSTANT                                                      
%FORMAT(5E16.8)                                                                 
  5.98700000E+01  4.32700000E+01  3.58000000E+01
%FLAG ANGLE_EQUIL_VALUE                                                         
%FORMAT(5E16.8)                                                                 
  1.96576518E+00  1.91427794E+00  1.88024401E+00
%FLAG DIHEDRAL_FORCE_CONSTANT                                                   
%FORMAT(5E16.8)                                                                 
  5.20000000E-01  1.30000000E-01  1.20000000E-01
%FLAG DIHEDRAL_PERIODICITY                                                      
%FORMAT(5E16.8)                                                                 
  3.00000000E+00  3.00000000E+00  3.00000000E+00
%FLAG DIHEDRAL_PHASE                                                            
%FORMAT(5E16.8)                                                                 
  0.00000000E+00  0.00000000E+00  0.00000000E+00
%FLAG SCEE_SCALE_FACTOR                                                         
%FORMAT(5E16.8)                                                                 
  1.20000000E+00  1.20000000E+00  1.20000000E+00
%FLAG SCNB_SCALE_FACTOR                                                         
%FORMAT(5E16.8)                                                                 
  2.00000000E+00  2.00000000E+00  2.00000000E+00
%FLAG SOLTY                                                                     
%FORMAT(5E16.8)                                                                 
  0.00000000E+00  0.00000000E+00
%FLAG LENNARD_JONES_ACOEF                                                       
%FORMAT(5E16.8)                                                                 
  1.02073671E+06  1.00235148E+05  7.94617769E+03
%FLAG LENNARD_JONES_BCOEF                                                       
%FORMAT(5E16.8)                                                                 
  6.63431737E+02  1.37787728E+02  2.57122925E+01
%FLAG BONDS_INC_HYDROGEN                                                        
%FORMAT(10I8)                                                                   
       0      27       2       0      30       2       0      33       2       3
      36       2       3      39       2       3      42       2       6      45
       2       6      48       2       9      51       2       9      54       2
      12      57       2      12      60       2      15      63       2      15
      66       2      18      69       2      18      72       2      21      75
       2      21      78       2      24      81       2      24      84       2
%FLAG BONDS_WITHOUT_HYDROGEN                                                    
%FORMAT(10I8)                                                                   
       0       6       1       3       9       1       6      12       1       9
      15       1      12      18       1      15      21       1      18      24
       1      21      24       1
%FLAG ANGLES_INC_HYDROGEN                                                       
%FORMAT(10I8)                                                                   
       0       6      45       2       0       6      48       2       3       9
      51       2       3       9      54       2       6       0      27       2
       6       0      30       2       6       0      33       2       6      12
      57       2       6      12      60       2       9       3      36       2
       9       3      39       2       9       3      42       2       9      15
      63       2       9      15      66       2      12       6      45       2
      12       6      48       2      12      18      69       2      12      18
      72       2      15       9      51       2      15       9      54       2
      15      21      75       2      15      21      78       2      18      12
      57       2      18      12      60       2      18      24      81       2
      18      24      84       2      21      15      63       2      21      15
      66       2      21      24      81       2      21      24      84       2
      24      18      69       2      24      18      72       2      24      21
      75       2      24      21      78       2      27       0      30       3
      27       0      33       3      30       0      33       3      36       3
      39       3      36       3      42       3      39       3      42       3
      45       6      48       3      51       9      54       3      57      12
      60       3      63      15      66       3      69      18      72       3
      75      21      78       3      81      24      84       3
%FLAG ANGLES_WITHOUT_HYDROGEN                                                   
%FORMAT(10I8)                                                                   
       0       6      12       1       3       9      15       1       6      12
      18       1       9      15      21       1      12      18      24       1
      15      21      24       1      18      24      21       1
%FLAG DIHEDRALS_INC_HYDROGEN                                                    
%FORMAT(10I8)                                                                   
       0       6      12      57       2       0       6      12      60       2
       3       9      15      63       2       3       9      15      66       2
       6      12      18      69       2       6      12      18      72       2
       9      15      21      75       2       9      15      21      78       2
      27       0       6      12       2      30       0       6      12       2
      33       0       6      12       2      12      18      24      81       2
      12      18      24      84       2      15       9       3      36       2
      15       9       3      39       2      15       9       3      42       2
      15      21      24      81       2      15      21      24      84       2
      18      12       6      45       2      18      12       6      48       2
      18      24      21      75       2      18      24      21      78       2
      21      15       9      51       2      21      15       9      54       2
      21      24      18      69       2      21      24      18      72       2
      24      18      12      57       2      24      18      12      60       2
      24      21      15      63       2      24      21      15      66       2
      27       0       6      45       3      27       0       6      48       3
      30       0       6      45       3      30       0       6      48       3
      33       0       6      45       3      33       0       6      48       3
      36       3       9      51       3      36       3       9      54       3
      39       3       9      51       3      39       3       9      54       3
      42       3       9      51       3      42       3       9      54       3
      45       6      12      57       3      45       6      12      60       3
      48       6      12      57       3      48       6      12      60       3
      51       9      15      63       3      51       9      15      66       3
      54       9      15      63       3      54       9      15      66       3
      57      12      18      69       3      57      12      18      72       3
      60      12      18      69       3      60      12      18      72       3
      63      15      21      75       3      63      15      21      78       3
      66      15      21      75       3      66      15      21      78       3
      69      18      24      81       3      69      18      24      84       3
      72      18      24      81       3      72      18      24      84       3
      75      21      24      81       3      75      21      24      84       3
      78      21      24      81       3      78      21      24      84       3
%FLAG DIHEDRALS_WITHOUT_HYDROGEN                                                
%FORMAT(10I8)                                                                   
       0       6      12      18       1       3       9      15      21       1
       6      12      18      24       1       9      15      21      24       1
      12      18      24      21       1      15      21      24      18       1
%FLAG EXCLUDED_ATOMS_LIST                                                       
%FORMAT(10I8)                                                                   
       3       5       7      10      11      12      16      17      20      21
       4       6       8      13      14      15      18      19      22      23
       5       7       9      10      11      12      16      17      20      21
      24      25       6       8       9      13      14      15      18      19
      22      23      26      27       7       8       9      10      11      12
      16      17      20      21      24      25      28      29       7       8
       9      13      14      15      18      19      22      23      26      27
      28      29       8       9      16      17      20      21      24      25
      26      27      28      29       9      18      19      22      23      24
      25      26      27      28      29      20      21      22      23      24
      25      26      27      28      29      11      12      16      17      12
      16      17      16      17      14      15      18      19      15      18
      19      18      19      17      20      21      20      21      19      22
      23      22      23      21      24      25      24      25      23      26
      27      26      27      25      28      29      28      29      27      28
      29      28      29      29       0
%FLAG HBOND_ACOEF                                                               
%FORMAT(5E16.8)                                                                 

%FLAG HBOND_BCOEF                                                               
%FORMAT(5E16.8)                                                                 

%FLAG HBCUT                                                                     
%FORMAT(5E16.8)                                                                 

%FLAG AMBER_ATOM_TYPE                                                           
%FORMAT(20a4)                                                                   
c3  c3  c3  c3  c3  c3  c3  c3  c3  hc  hc  hc  hc  hc  hc  hc  hc  hc  hc  hc  
hc  hc  hc  hc  hc  hc  hc  hc  hc  
%FLAG TREE_CHAIN_CLASSIFICATION                                                 
%FORMAT(20a4)                                                                   
BLA BLA BLA BLA BLA BLA BLA BLA BLA BLA BLA BLA BLA BLA BLA BLA BLA BLA BLA BLA 
BLA BLA BLA BLA BLA BLA BLA BLA BLA 
%FLAG JOIN_ARRAY                                                                
%FORMAT(10I8)                                                                   
       0       0       0       0       0       0       0       0       0       0
       0       0       0       0       0       0       0       0       0       0
       0       0       0       0       0       0       0       0       0
%FLAG IROTAT                                                                    
%FORMAT(10I8)                                                                   
       0       0       0       0       0       0       0       0       0       0
       0       0       0       0       0       0       0       0       0       0
       0       0       0       0       0       0       0       0       0
%FLAG RADIUS_SET                                                                
%FORMAT(1a80)                                                                   
modified Bondi radii (mbondi)                                                   
%FLAG RADII                                                                     
%FORMAT(5E16.8)                                                                 
  1.70000000E+00  1.70000000E+00  1.70000000E+00  1.70000000E+00  1.70000000E+00
  1.70000000E+00  1.70000000E+00  1.70000000E+00  1.70000000E+00  1.30000000E+00
  1.30000000E+00  1.30000000E+00  1.30000000E+00  1.30000000E+00  1.30000000E+00
  1.30000000E+00  1.30000000E+00  1.30000000E+00  1.30000000E+00  1.30000000E+00
  1.30000000E+00  1.30000000E+00  1.30000000E+00  1.30000000E+00  1.30000000E+00
  1.30000000E+00  1.30000000E+00  1.30000000E+00  1.30000000E+00
%FLAG SCREEN                                                                    
%FORMAT(5E16.8)                                                                 
  7.20000000E-01  7.20000000E-01  7.20000000E-01  7.20000000E-01  7.20000000E-01
  7.20000000E-01  7.20000000E-01  7.20000000E-01  7.20000000E-01  8.50000000E-01
  8.50000000E-01  8.50000000E-01  8.50000000E-01  8.50000000E-01  8.50000000E-01
  8.50000000E-01  8.50000000E-01  8.50000000E-01  8.50000000E-01  8.50000000E-01
  8.50000000E-01  8.50000000E-01  8.50000000E-01  8.50000000E-01  8.50000000E-01
  8.50000000E-01  8.50000000E-01  8.50000000E-01  8.50000000E-01
%FLAG IPOL                                                                      
%FORMAT(1I8)                                                                    
       0
