n_nonane
    29
   0.5780000  -1.9170000  -1.3100000   6.5710000  -5.1290000   6.1890000
   0.8600000  -1.8770000   0.1840000   5.3770000  -4.2630000   5.8230000
   2.0370000  -2.7580000   0.6080000   5.0790000  -4.3250000   4.3250000
   2.3340000  -2.6940000   2.1080000   3.8560000  -3.4790000   3.9660000
   3.5370000  -3.5670000   2.4730000   0.4340000  -2.9460000  -1.6550000
  -0.3330000  -1.3540000  -1.5350000   1.3940000  -1.4690000  -1.8840000
   6.7680000  -5.0680000   7.2640000   7.4720000  -4.8000000   5.6610000
   6.3880000  -6.1780000   5.9360000   1.0380000  -0.8410000   0.4940000
  -0.0370000  -2.2170000   0.7170000   5.5800000  -3.2280000   6.1200000
   4.5010000  -4.5980000   6.3910000   1.8050000  -3.7950000   0.3330000
   2.9320000  -2.4730000   0.0420000   5.9500000  -3.9690000   3.7620000
   4.9050000  -5.3660000   4.0270000   1.4540000  -3.0280000   2.6720000
   2.5380000  -1.6600000   2.4060000   4.0390000  -2.4330000   4.2420000
   2.9900000  -3.8200000   4.5470000   3.3300000  -4.6100000   2.2030000
   4.4100000  -3.2490000   1.8910000
