mobley_6812653_GMX.gro created by acpype (v: 2023.10.27) on Wed May 20 23:43:21 2026
   20
    1MOL     C1    1   2.524   2.501   2.683
    1MOL     C2    2   2.285   2.308   2.127
    1MOL     C3    3   2.514   2.504   2.531
    1MOL     C4    4   2.295   2.306   2.278
    1MOL     C5    5   2.410   2.403   2.481
    1MOL     C6    6   2.402   2.403   2.328
    1MOL     H1    7   2.429   2.527   2.730
    1MOL     H2    8   2.599   2.574   2.717
    1MOL     H3    9   2.554   2.402   2.719
    1MOL     H4   10   2.257   2.408   2.091
    1MOL     H5   11   2.379   2.280   2.080
    1MOL     H6   12   2.208   2.238   2.093
    1MOL     H7   13   2.612   2.480   2.488
    1MOL     H8   14   2.487   2.605   2.499
    1MOL     H9   15   2.319   2.204   2.311
    1MOL    H10   16   2.198   2.332   2.322
    1MOL    H11   17   2.311   2.428   2.523
    1MOL    H12   18   2.435   2.303   2.517
    1MOL    H13   19   2.499   2.376   2.287
    1MOL    H14   20   2.378   2.505   2.293
   4.80942   4.80942   4.80942
