mobley_6812653_GMX.gro created by acpype (v: 2023.10.27) on Wed May 20 23:43:21 2026
 2399
    1MOL     C1    1   2.524   2.501   2.683
    1MOL     C2    2   2.285   2.308   2.127
    1MOL     C3    3   2.514   2.504   2.531
    1MOL     C4    4   2.295   2.306   2.278
    1MOL     C5    5   2.410   2.403   2.481
    1MOL     C6    6   2.402   2.403   2.328
    1MOL     H1    7   2.429   2.527   2.730
    1MOL     H2    8   2.599   2.574   2.717
    1MOL     H3    9   2.554   2.402   2.719
    1MOL     H4   10   2.257   2.408   2.091
    1MOL     H5   11   2.379   2.280   2.080
    1MOL     H6   12   2.208   2.238   2.093
    1MOL     H7   13   2.612   2.480   2.488
    1MOL     H8   14   2.487   2.605   2.499
    1MOL     H9   15   2.319   2.204   2.311
    1MOL    H10   16   2.198   2.332   2.322
    1MOL    H11   17   2.311   2.428   2.523
    1MOL    H12   18   2.435   2.303   2.517
    1MOL    H13   19   2.499   2.376   2.287
    1MOL    H14   20   2.378   2.505   2.293
   14SOL     OW   21   1.460   1.505   1.339
   14SOL    HW1   22   1.484   1.599   1.365
   14SOL    HW2   23   1.444   1.451   1.421
   35SOL     OW   24   1.187   1.792   1.616
   35SOL    HW1   25   1.211   1.852   1.540
   35SOL    HW2   26   1.194   1.697   1.586
   56SOL     OW   27   1.227   1.550   1.506
   56SOL    HW1   28   1.233   1.473   1.570
   56SOL    HW2   29   1.175   1.524   1.426
   95SOL     OW   30   1.754   1.223   1.588
   95SOL    HW1   31   1.845   1.184   1.575
   95SOL    HW2   32   1.762   1.319   1.612
   97SOL     OW   33   1.592   1.629   1.625
   97SOL    HW1   34   1.619   1.663   1.535
   97SOL    HW2   35   1.671   1.591   1.671
  122SOL     OW   36   1.728   0.935   1.854
  122SOL    HW1   37   1.682   0.928   1.765
  122SOL    HW2   38   1.666   0.979   1.920
  126SOL     OW   39   0.980   1.573   1.700
  126SOL    HW1   40   0.960   1.617   1.612
  126SOL    HW2   41   1.019   1.482   1.684
  127SOL     OW   42   1.859   1.518   1.605
  127SOL    HW1   43   1.873   1.545   1.510
  127SOL    HW2   44   1.942   1.540   1.658
  152SOL     OW   45   1.759   1.747   1.154
  152SOL    HW1   46   1.820   1.777   1.081
  152SOL    HW2   47   1.721   1.658   1.132
  163SOL     OW   48   1.650   1.720   1.394
  163SOL    HW1   49   1.703   1.730   1.310
  163SOL    HW2   50   1.623   1.810   1.428
  171SOL     OW   51   1.614   1.292   1.289
  171SOL    HW1   52   1.674   1.295   1.369
  171SOL    HW2   53   1.539   1.356   1.302
  186SOL     OW   54   1.450   1.220   1.633
  186SOL    HW1   55   1.441   1.210   1.732
  186SOL    HW2   56   1.546   1.213   1.607
  203SOL     OW   57   1.705   1.487   1.104
  203SOL    HW1   58   1.612   1.462   1.077
  203SOL    HW2   59   1.731   1.437   1.186
  219SOL     OW   60   1.555   1.511   2.565
  219SOL    HW1   61   1.498   1.495   2.646
  219SOL    HW2   62   1.496   1.521   2.485
  227SOL     OW   63   1.460   1.505   3.201
  227SOL    HW1   64   1.484   1.599   3.227
  227SOL    HW2   65   1.444   1.451   3.283
  238SOL     OW   66   1.842   1.767   2.221
  238SOL    HW1   67   1.896   1.738   2.301
  238SOL    HW2   68   1.872   1.857   2.192
  240SOL     OW   69   1.689   0.922   2.474
  240SOL    HW1   70   1.784   0.893   2.482
  240SOL    HW2   71   1.681   0.987   2.399
  241SOL     OW   72   1.641   1.108   2.294
  241SOL    HW1   73   1.727   1.110   2.242
  241SOL    HW2   74   1.655   1.155   2.382
  247SOL     OW   75   1.525   0.999   2.052
  247SOL    HW1   76   1.462   0.923   2.065
  247SOL    HW2   77   1.573   1.017   2.138
  248SOL     OW   78   1.187   1.792   3.478
  248SOL    HW1   79   1.211   1.852   3.402
  248SOL    HW2   80   1.194   1.697   3.448
  250SOL     OW   81   1.466   1.417   2.815
  250SOL    HW1   82   1.407   1.423   2.895
  250SOL    HW2   83   1.451   1.329   2.769
  251SOL     OW   84   1.667   1.714   2.434
  251SOL    HW1   85   1.626   1.691   2.346
  251SOL    HW2   86   1.649   1.640   2.499
  254SOL     OW   87   1.576   1.662   2.169
  254SOL    HW1   88   1.665   1.708   2.172
  254SOL    HW2   89   1.555   1.638   2.074
  264SOL     OW   90   1.362   1.144   2.407
  264SOL    HW1   91   1.445   1.115   2.359
  264SOL    HW2   92   1.313   1.211   2.351
  266SOL     OW   93   1.008   1.456   2.339
  266SOL    HW1   94   0.962   1.528   2.287
  266SOL    HW2   95   1.004   1.476   2.437
  268SOL     OW   96   1.795   1.066   2.735
  268SOL    HW1   97   1.733   1.051   2.659
  268SOL    HW2   98   1.743   1.077   2.820
  269SOL     OW   99   1.227   1.550   3.368
  269SOL    HW1  100   1.233   1.473   3.432
  269SOL    HW2  101   1.175   1.524   3.288
  273SOL     OW  102   1.111   1.776   2.099
  273SOL    HW1  103   1.051   1.714   2.149
  273SOL    HW2  104   1.142   1.732   2.014
  275SOL     OW  105   1.632   1.377   1.943
  275SOL    HW1  106   1.600   1.471   1.933
  275SOL    HW2  107   1.556   1.314   1.931
  279SOL     OW  108   0.940   1.698   2.766
  279SOL    HW1  109   1.020   1.641   2.787
  279SOL    HW2  110   0.891   1.658   2.689
  289SOL     OW  111   1.434   1.188   1.903
  289SOL    HW1  112   1.466   1.112   1.960
  289SOL    HW2  113   1.342   1.215   1.933
  293SOL     OW  114   1.227   1.570   2.655
  293SOL    HW1  115   1.248   1.644   2.590
  293SOL    HW2  116   1.295   1.570   2.728
  295SOL     OW  117   1.271   1.797   2.453
  295SOL    HW1  118   1.315   1.861   2.389
  295SOL    HW2  119   1.221   1.849   2.523
  301SOL     OW  120   1.429   1.173   2.729
  301SOL    HW1  121   1.374   1.089   2.722
  301SOL    HW2  122   1.455   1.202   2.637
  303SOL     OW  123   1.857   0.833   2.239
  303SOL    HW1  124   1.899   0.769   2.303
  303SOL    HW2  125   1.819   0.782   2.161
  305SOL     OW  126   1.664   1.280   2.519
  305SOL    HW1  127   1.763   1.288   2.533
  305SOL    HW2  128   1.619   1.364   2.550
  308SOL     OW  129   1.754   1.223   3.450
  308SOL    HW1  130   1.845   1.184   3.437
  308SOL    HW2  131   1.762   1.319   3.474
  310SOL     OW  132   1.592   1.629   3.487
  310SOL    HW1  133   1.619   1.663   3.397
  310SOL    HW2  134   1.671   1.591   3.533
  312SOL     OW  135   1.638   1.099   2.941
  312SOL    HW1  136   1.643   1.180   3.000
  312SOL    HW2  137   1.552   1.101   2.890
  321SOL     OW  138   1.252   1.348   2.250
  321SOL    HW1  139   1.302   1.425   2.290
  321SOL    HW2  140   1.157   1.350   2.282
  322SOL     OW  141   1.272   1.445   3.004
  322SOL    HW1  142   1.319   1.458   3.091
  322SOL    HW2  143   1.206   1.371   3.013
  340SOL     OW  144   1.859   1.518   3.467
  340SOL    HW1  145   1.873   1.545   3.372
  340SOL    HW2  146   1.942   1.540   3.520
  344SOL     OW  147   1.068   1.333   2.711
  344SOL    HW1  148   1.075   1.249   2.656
  344SOL    HW2  149   1.130   1.402   2.675
  365SOL     OW  150   1.759   1.747   3.016
  365SOL    HW1  151   1.820   1.777   2.943
  365SOL    HW2  152   1.721   1.658   2.994
  366SOL     OW  153   1.252   1.731   2.990
  366SOL    HW1  154   1.336   1.736   2.936
  366SOL    HW2  155   1.229   1.635   3.008
  370SOL     OW  156   1.388   1.573   2.339
  370SOL    HW1  157   1.455   1.585   2.265
  370SOL    HW2  158   1.348   1.662   2.362
  375SOL     OW  159   1.650   1.720   3.256
  375SOL    HW1  160   1.703   1.730   3.172
  375SOL    HW2  161   1.623   1.810   3.290
  378SOL     OW  162   1.194   1.612   1.893
  378SOL    HW1  163   1.200   1.519   1.930
  378SOL    HW2  164   1.135   1.612   1.813
  381SOL     OW  165   1.504   1.607   1.906
  381SOL    HW1  166   1.412   1.644   1.913
  381SOL    HW2  167   1.542   1.627   1.816
  383SOL     OW  168   1.614   1.292   3.151
  383SOL    HW1  169   1.674   1.295   3.231
  383SOL    HW2  170   1.539   1.356   3.164
  394SOL     OW  171   1.183   1.335   1.981
  394SOL    HW1  172   1.084   1.324   1.983
  394SOL    HW2  173   1.217   1.350   2.074
  396SOL     OW  174   1.493   1.767   2.821
  396SOL    HW1  175   1.526   1.831   2.752
  396SOL    HW2  176   1.559   1.761   2.896
  409SOL     OW  177   1.861   1.569   2.713
  409SOL    HW1  178   1.790   1.557   2.643
  409SOL    HW2  179   1.862   1.490   2.773
  415SOL     OW  180   1.705   1.487   2.966
  415SOL    HW1  181   1.612   1.462   2.939
  415SOL    HW2  182   1.731   1.437   3.048
  417SOL     OW  183   0.812   1.586   2.549
  417SOL    HW1  184   0.844   1.596   2.455
  417SOL    HW2  185   0.733   1.524   2.551
  426SOL     OW  186   0.875   1.646   2.199
  426SOL    HW1  187   0.798   1.611   2.145
  426SOL    HW2  188   0.843   1.717   2.261
  558SOL     OW  189   0.850   2.660   1.823
  558SOL    HW1  190   0.846   2.736   1.888
  558SOL    HW2  191   0.872   2.696   1.732
  562SOL     OW  192   1.460   3.367   1.339
  562SOL    HW1  193   1.484   3.461   1.365
  562SOL    HW2  194   1.444   3.313   1.421
  566SOL     OW  195   1.127   3.203   1.690
  566SOL    HW1  196   1.174   3.203   1.778
  566SOL    HW2  197   1.079   3.116   1.679
  571SOL     OW  198   1.594   1.976   1.480
  571SOL    HW1  199   1.576   2.043   1.408
  571SOL    HW2  200   1.591   2.022   1.569
  579SOL     OW  201   1.293   3.090   1.423
  579SOL    HW1  202   1.330   3.017   1.365
  579SOL    HW2  203   1.345   3.095   1.508
  591SOL     OW  204   1.394   2.331   1.674
  591SOL    HW1  205   1.374   2.374   1.762
  591SOL    HW2  206   1.472   2.269   1.683
  592SOL     OW  207   0.973   2.752   1.572
  592SOL    HW1  208   1.019   2.668   1.543
  592SOL    HW2  209   0.917   2.786   1.497
  598SOL     OW  210   1.719   2.447   1.831
  598SOL    HW1  211   1.693   2.536   1.795
  598SOL    HW2  212   1.717   2.379   1.758
  603SOL     OW  213   1.795   2.928   0.873
  603SOL    HW1  214   1.733   2.913   0.797
  603SOL    HW2  215   1.743   2.939   0.958
  604SOL     OW  216   1.227   3.412   1.506
  604SOL    HW1  217   1.233   3.335   1.570
  604SOL    HW2  218   1.175   3.386   1.426
  616SOL     OW  219   1.547   2.084   1.729
  616SOL    HW1  220   1.542   2.121   1.821
  616SOL    HW2  221   1.475   2.015   1.717
  618SOL     OW  222   0.781   2.126   1.749
  618SOL    HW1  223   0.848   2.065   1.792
  618SOL    HW2  224   0.708   2.145   1.814
  620SOL     OW  225   1.351   2.452   1.433
  620SOL    HW1  226   1.379   2.409   1.518
  620SOL    HW2  227   1.376   2.548   1.434
  626SOL     OW  228   1.076   2.545   1.464
  626SOL    HW1  229   0.996   2.484   1.467
  626SOL    HW2  230   1.157   2.492   1.440
  636SOL     OW  231   1.466   2.452   0.992
  636SOL    HW1  232   1.436   2.357   0.999
  636SOL    HW2  233   1.539   2.468   1.058
  642SOL     OW  234   1.754   3.085   1.588
  642SOL    HW1  235   1.845   3.046   1.575
  642SOL    HW2  236   1.762   3.181   1.612
  644SOL     OW  237   1.592   3.491   1.625
  644SOL    HW1  238   1.619   3.525   1.535
  644SOL    HW2  239   1.671   3.453   1.671
  646SOL     OW  240   1.638   2.961   1.079
  646SOL    HW1  241   1.643   3.042   1.138
  646SOL    HW2  242   1.552   2.963   1.028
  648SOL     OW  243   0.980   2.978   1.719
  648SOL    HW1  244   0.881   2.984   1.729
  648SOL    HW2  245   1.003   2.898   1.663
  651SOL     OW  246   1.274   2.248   1.262
  651SOL    HW1  247   1.295   2.322   1.326
  651SOL    HW2  248   1.185   2.265   1.219
  660SOL     OW  249   1.587   2.641   1.670
  660SOL    HW1  250   1.495   2.679   1.665
  660SOL    HW2  251   1.647   2.688   1.605
  661SOL     OW  252   1.013   1.967   1.770
  661SOL    HW1  253   1.019   2.052   1.718
  661SOL    HW2  254   1.045   1.891   1.713
  664SOL     OW  255   1.360   2.724   1.045
  664SOL    HW1  256   1.285   2.724   0.979
  664SOL    HW2  257   1.397   2.632   1.054
  669SOL     OW  258   1.728   2.797   1.854
  669SOL    HW1  259   1.682   2.790   1.765
  669SOL    HW2  260   1.666   2.841   1.920
  674SOL     OW  261   1.859   3.380   1.605
  674SOL    HW1  262   1.873   3.407   1.510
  674SOL    HW2  263   1.942   3.402   1.658
  681SOL     OW  264   1.138   2.242   1.678
  681SOL    HW1  265   1.093   2.305   1.742
  681SOL    HW2  266   1.231   2.273   1.661
  682SOL     OW  267   1.160   2.069   1.477
  682SOL    HW1  268   1.160   2.133   1.554
  682SOL    HW2  269   1.188   2.117   1.394
  689SOL     OW  270   1.369   2.812   1.660
  689SOL    HW1  271   1.408   2.901   1.680
  689SOL    HW2  272   1.379   2.792   1.563
  691SOL     OW  273   1.657   2.466   1.206
  691SOL    HW1  274   1.619   2.397   1.268
  691SOL    HW2  275   1.739   2.430   1.162
  697SOL     OW  276   1.347   2.921   1.234
  697SOL    HW1  277   1.371   2.858   1.160
  697SOL    HW2  278   1.257   2.961   1.216
  710SOL     OW  279   1.650   3.582   1.394
  710SOL    HW1  280   1.703   3.592   1.310
  710SOL    HW2  281   1.623   3.672   1.428
  711SOL     OW  282   1.841   2.037   0.963
  711SOL    HW1  283   1.880   1.952   0.927
  711SOL    HW2  284   1.743   2.039   0.944
  718SOL     OW  285   1.614   3.154   1.289
  718SOL    HW1  286   1.674   3.157   1.369
  718SOL    HW2  287   1.539   3.218   1.302
  722SOL     OW  288   1.709   2.247   1.381
  722SOL    HW1  289   1.782   2.316   1.385
  722SOL    HW2  290   1.737   2.172   1.322
  727SOL     OW  291   1.440   2.718   1.398
  727SOL    HW1  292   1.383   2.770   1.335
  727SOL    HW2  293   1.536   2.730   1.374
  733SOL     OW  294   1.450   3.082   1.633
  733SOL    HW1  295   1.441   3.072   1.732
  733SOL    HW2  296   1.546   3.075   1.607
  735SOL     OW  297   1.674   2.745   1.254
  735SOL    HW1  298   1.647   2.656   1.217
  735SOL    HW2  299   1.675   2.813   1.181
  738SOL     OW  300   1.777   2.204   1.642
  738SOL    HW1  301   1.760   2.235   1.548
  738SOL    HW2  302   1.693   2.167   1.680
  739SOL     OW  303   1.730   2.796   1.517
  739SOL    HW1  304   1.768   2.887   1.532
  739SOL    HW2  305   1.722   2.779   1.418
  748SOL     OW  306   1.824   2.054   1.227
  748SOL    HW1  307   1.820   1.964   1.271
  748SOL    HW2  308   1.827   2.043   1.128
  750SOL     OW  309   1.705   3.349   1.104
  750SOL    HW1  310   1.612   3.324   1.077
  750SOL    HW2  311   1.731   3.299   1.186
  753SOL     OW  312   1.424   2.076   1.112
  753SOL    HW1  313   1.476   2.011   1.167
  753SOL    HW2  314   1.375   2.139   1.173
  759SOL     OW  315   1.593   2.083   0.882
  759SOL    HW1  316   1.509   2.082   0.936
  759SOL    HW2  317   1.595   2.166   0.826
  766SOL     OW  318   1.555   3.373   2.565
  766SOL    HW1  319   1.498   3.357   2.646
  766SOL    HW2  320   1.496   3.383   2.485
  767SOL     OW  321   1.135   2.565   2.579
  767SOL    HW1  322   1.192   2.643   2.554
  767SOL    HW2  323   1.075   2.591   2.655
  768SOL     OW  324   1.755   2.469   2.093
  768SOL    HW1  325   1.743   2.456   1.994
  768SOL    HW2  326   1.725   2.388   2.142
  771SOL     OW  327   0.685   2.874   2.527
  771SOL    HW1  328   0.754   2.858   2.597
  771SOL    HW2  329   0.612   2.931   2.565
  774SOL     OW  330   1.460   3.367   3.201
  774SOL    HW1  331   1.484   3.461   3.227
  774SOL    HW2  332   1.444   3.313   3.283
  776SOL     OW  333   1.603   2.309   2.599
  776SOL    HW1  334   1.529   2.355   2.549
  776SOL    HW2  335   1.654   2.377   2.652
  783SOL     OW  336   1.594   1.976   3.342
  783SOL    HW1  337   1.576   2.043   3.270
  783SOL    HW2  338   1.591   2.022   3.431
  785SOL     OW  339   1.842   3.629   2.221
  785SOL    HW1  340   1.896   3.600   2.301
  785SOL    HW2  341   1.872   3.719   2.192
  787SOL     OW  342   1.689   2.784   2.474
  787SOL    HW1  343   1.784   2.755   2.482
  787SOL    HW2  344   1.681   2.849   2.399
  788SOL     OW  345   1.641   2.970   2.294
  788SOL    HW1  346   1.727   2.972   2.242
  788SOL    HW2  347   1.655   3.017   2.382
  791SOL     OW  348   1.293   3.090   3.285
  791SOL    HW1  349   1.330   3.017   3.227
  791SOL    HW2  350   1.345   3.095   3.370
  792SOL     OW  351   0.809   1.866   2.364
  792SOL    HW1  352   0.849   1.957   2.355
  792SOL    HW2  353   0.709   1.874   2.370
  794SOL     OW  354   1.525   2.861   2.052
  794SOL    HW1  355   1.462   2.785   2.065
  794SOL    HW2  356   1.573   2.879   2.138
  797SOL     OW  357   1.466   3.279   2.815
  797SOL    HW1  358   1.407   3.285   2.895
  797SOL    HW2  359   1.451   3.191   2.769
  798SOL     OW  360   1.667   3.576   2.434
  798SOL    HW1  361   1.626   3.553   2.346
  798SOL    HW2  362   1.649   3.502   2.499
  800SOL     OW  363   1.281   2.207   2.806
  800SOL    HW1  364   1.195   2.157   2.793
  800SOL    HW2  365   1.343   2.153   2.862
  801SOL     OW  366   1.576   3.524   2.169
  801SOL    HW1  367   1.665   3.570   2.172
  801SOL    HW2  368   1.555   3.500   2.074
  803SOL     OW  369   1.394   2.331   3.536
  803SOL    HW1  370   1.374   2.374   3.624
  803SOL    HW2  371   1.472   2.269   3.545
  804SOL     OW  372   0.973   2.752   3.434
  804SOL    HW1  373   1.019   2.668   3.405
  804SOL    HW2  374   0.917   2.786   3.359
  805SOL     OW  375   0.991   2.272   3.104
  805SOL    HW1  376   0.914   2.306   3.158
  805SOL    HW2  377   0.957   2.221   3.025
  806SOL     OW  378   1.041   2.563   2.291
  806SOL    HW1  379   1.067   2.559   2.387
  806SOL    HW2  380   0.956   2.512   2.277
  809SOL     OW  381   0.865   2.210   2.057
  809SOL    HW1  382   0.924   2.273   2.008
  809SOL    HW2  383   0.884   2.116   2.028
  810SOL     OW  384   1.719   2.447   3.693
  810SOL    HW1  385   1.693   2.536   3.657
  810SOL    HW2  386   1.717   2.379   3.620
  811SOL     OW  387   1.362   3.006   2.407
  811SOL    HW1  388   1.445   2.977   2.359
  811SOL    HW2  389   1.313   3.073   2.351
  813SOL     OW  390   1.008   3.318   2.339
  813SOL    HW1  391   0.962   3.390   2.287
  813SOL    HW2  392   1.004   3.338   2.437
  815SOL     OW  393   1.795   2.928   2.735
  815SOL    HW1  394   1.733   2.913   2.659
  815SOL    HW2  395   1.743   2.939   2.820
  818SOL     OW  396   1.458   2.597   2.590
  818SOL    HW1  397   1.453   2.532   2.665
  818SOL    HW2  398   1.538   2.656   2.603
  822SOL     OW  399   1.632   3.239   1.943
  822SOL    HW1  400   1.600   3.333   1.933
  822SOL    HW2  401   1.556   3.176   1.931
  824SOL     OW  402   1.400   1.969   2.288
  824SOL    HW1  403   1.376   1.932   2.198
  824SOL    HW2  404   1.499   1.985   2.292
  828SOL     OW  405   1.547   2.084   3.591
  828SOL    HW1  406   1.542   2.121   3.683
  828SOL    HW2  407   1.475   2.015   3.579
  832SOL     OW  408   1.351   2.452   3.295
  832SOL    HW1  409   1.379   2.409   3.380
  832SOL    HW2  410   1.376   2.548   3.296
  834SOL     OW  411   0.922   2.365   2.761
  834SOL    HW1  412   0.897   2.356   2.665
  834SOL    HW2  413   0.970   2.283   2.792
  836SOL     OW  414   1.434   3.050   1.903
  836SOL    HW1  415   1.466   2.974   1.960
  836SOL    HW2  416   1.342   3.077   1.933
  838SOL     OW  417   0.935   2.098   2.342
  838SOL    HW1  418   0.887   2.139   2.264
  838SOL    HW2  419   1.034   2.096   2.323
  839SOL     OW  420   1.076   2.545   3.326
  839SOL    HW1  421   0.996   2.484   3.329
  839SOL    HW2  422   1.157   2.492   3.302
  840SOL     OW  423   1.227   3.432   2.655
  840SOL    HW1  424   1.248   3.506   2.590
  840SOL    HW2  425   1.295   3.432   2.728
  842SOL     OW  426   1.271   3.659   2.453
  842SOL    HW1  427   1.315   3.723   2.389
  842SOL    HW2  428   1.221   3.711   2.523
  843SOL     OW  429   1.032   2.411   1.878
  843SOL    HW1  430   0.991   2.493   1.839
  843SOL    HW2  431   1.096   2.437   1.951
  846SOL     OW  432   0.866   2.316   2.504
  846SOL    HW1  433   0.834   2.388   2.442
  846SOL    HW2  434   0.890   2.235   2.451
  847SOL     OW  435   1.017   1.901   2.615
  847SOL    HW1  436   0.945   1.906   2.546
  847SOL    HW2  437   0.993   1.832   2.684
  848SOL     OW  438   1.429   3.035   2.729
  848SOL    HW1  439   1.374   2.951   2.722
  848SOL    HW2  440   1.455   3.064   2.637
  849SOL     OW  441   1.466   2.452   2.854
  849SOL    HW1  442   1.436   2.357   2.861
  849SOL    HW2  443   1.539   2.468   2.920
  850SOL     OW  444   1.857   2.695   2.239
  850SOL    HW1  445   1.899   2.631   2.303
  850SOL    HW2  446   1.819   2.644   2.161
  852SOL     OW  447   1.664   3.142   2.519
  852SOL    HW1  448   1.763   3.150   2.533
  852SOL    HW2  449   1.619   3.226   2.550
  853SOL     OW  450   1.390   2.437   1.940
  853SOL    HW1  451   1.336   2.416   2.021
  853SOL    HW2  452   1.481   2.396   1.949
  855SOL     OW  453   1.754   3.085   3.450
  855SOL    HW1  454   1.845   3.046   3.437
  855SOL    HW2  455   1.762   3.181   3.474
  856SOL     OW  456   1.064   3.209   3.202
  856SOL    HW1  457   0.984   3.186   3.257
  856SOL    HW2  458   1.147   3.183   3.251
  857SOL     OW  459   1.592   3.491   3.487
  857SOL    HW1  460   1.619   3.525   3.397
  857SOL    HW2  461   1.671   3.453   3.533
  858SOL     OW  462   1.111   3.057   2.962
  858SOL    HW1  463   1.071   3.101   3.043
  858SOL    HW2  464   1.070   3.094   2.879
  859SOL     OW  465   1.638   2.961   2.941
  859SOL    HW1  466   1.643   3.042   3.000
  859SOL    HW2  467   1.552   2.963   2.890
  860SOL     OW  468   0.915   1.951   3.264
  860SOL    HW1  469   0.940   1.931   3.169
  860SOL    HW2  470   0.987   2.007   3.306
  862SOL     OW  471   0.705   2.912   2.230
  862SOL    HW1  472   0.691   2.919   2.329
  862SOL    HW2  473   0.789   2.861   2.212
  864SOL     OW  474   1.274   2.248   3.124
  864SOL    HW1  475   1.295   2.322   3.188
  864SOL    HW2  476   1.185   2.265   3.081
  868SOL     OW  477   1.252   3.210   2.250
  868SOL    HW1  478   1.302   3.287   2.290
  868SOL    HW2  479   1.157   3.212   2.282
  869SOL     OW  480   1.272   3.307   3.004
  869SOL    HW1  481   1.319   3.320   3.091
  869SOL    HW2  482   1.206   3.233   3.013
  870SOL     OW  483   1.582   2.501   2.334
  870SOL    HW1  484   1.551   2.562   2.407
  870SOL    HW2  485   1.632   2.553   2.265
  873SOL     OW  486   1.587   2.641   3.532
  873SOL    HW1  487   1.495   2.679   3.527
  873SOL    HW2  488   1.647   2.688   3.467
  877SOL     OW  489   1.360   2.724   2.907
  877SOL    HW1  490   1.285   2.724   2.841
  877SOL    HW2  491   1.397   2.632   2.916
  878SOL     OW  492   1.209   2.387   2.137
  878SOL    HW1  493   1.222   2.303   2.191
  878SOL    HW2  494   1.180   2.461   2.197
  881SOL     OW  495   0.732   2.496   2.926
  881SOL    HW1  496   0.791   2.470   2.850
  881SOL    HW2  497   0.704   2.592   2.915
  882SOL     OW  498   1.728   2.797   3.716
  882SOL    HW1  499   1.682   2.790   3.627
  882SOL    HW2  500   1.666   2.841   3.782
  884SOL     OW  501   1.622   2.229   2.236
  884SOL    HW1  502   1.624   2.153   2.300
  884SOL    HW2  503   1.574   2.306   2.276
  885SOL     OW  504   1.023   2.628   2.828
  885SOL    HW1  505   1.038   2.649   2.924
  885SOL    HW2  506   0.993   2.533   2.819
  887SOL     OW  507   1.859   3.380   3.467
  887SOL    HW1  508   1.873   3.407   3.372
  887SOL    HW2  509   1.942   3.402   3.520
  889SOL     OW  510   1.540   2.136   1.987
  889SOL    HW1  511   1.479   2.061   2.010
  889SOL    HW2  512   1.562   2.188   2.070
  890SOL     OW  513   1.303   2.700   1.904
  890SOL    HW1  514   1.337   2.607   1.919
  890SOL    HW2  515   1.321   2.727   1.809
  891SOL     OW  516   1.068   3.195   2.711
  891SOL    HW1  517   1.075   3.111   2.656
  891SOL    HW2  518   1.130   3.264   2.675
  894SOL     OW  519   1.138   2.242   3.540
  894SOL    HW1  520   1.093   2.305   3.604
  894SOL    HW2  521   1.231   2.273   3.523
  895SOL     OW  522   1.160   2.069   3.339
  895SOL    HW1  523   1.160   2.133   3.416
  895SOL    HW2  524   1.188   2.117   3.256
  899SOL     OW  525   1.002   2.658   3.100
  899SOL    HW1  526   1.043   2.626   3.186
  899SOL    HW2  527   0.906   2.631   3.097
  902SOL     OW  528   1.369   2.812   3.522
  902SOL    HW1  529   1.408   2.901   3.542
  902SOL    HW2  530   1.379   2.792   3.425
  903SOL     OW  531   0.815   2.434   2.187
  903SOL    HW1  532   0.822   2.345   2.141
  903SOL    HW2  533   0.721   2.468   2.179
  904SOL     OW  534   1.657   2.466   3.068
  904SOL    HW1  535   1.619   2.397   3.130
  904SOL    HW2  536   1.739   2.430   3.024
  910SOL     OW  537   1.347   2.921   3.096
  910SOL    HW1  538   1.371   2.858   3.022
  910SOL    HW2  539   1.257   2.961   3.078
  911SOL     OW  540   1.302   2.717   2.171
  911SOL    HW1  541   1.216   2.686   2.213
  911SOL    HW2  542   1.298   2.703   2.072
  912SOL     OW  543   1.759   3.609   3.016
  912SOL    HW1  544   1.820   3.639   2.943
  912SOL    HW2  545   1.721   3.520   2.994
  913SOL     OW  546   1.252   3.593   2.990
  913SOL    HW1  547   1.336   3.598   2.936
  913SOL    HW2  548   1.229   3.497   3.008
  916SOL     OW  549   1.726   1.997   2.385
  916SOL    HW1  550   1.799   1.980   2.318
  916SOL    HW2  551   1.695   1.910   2.423
  917SOL     OW  552   1.388   3.435   2.339
  917SOL    HW1  553   1.455   3.447   2.265
  917SOL    HW2  554   1.348   3.524   2.362
  919SOL     OW  555   1.280   2.789   2.534
  919SOL    HW1  556   1.340   2.708   2.536
  919SOL    HW2  557   1.320   2.858   2.474
  922SOL     OW  558   1.650   3.582   3.256
  922SOL    HW1  559   1.703   3.592   3.172
  922SOL    HW2  560   1.623   3.672   3.290
  923SOL     OW  561   1.841   2.037   2.825
  923SOL    HW1  562   1.880   1.952   2.789
  923SOL    HW2  563   1.743   2.039   2.806
  925SOL     OW  564   1.194   3.474   1.893
  925SOL    HW1  565   1.200   3.381   1.930
  925SOL    HW2  566   1.135   3.474   1.813
  927SOL     OW  567   0.916   2.772   2.153
  927SOL    HW1  568   0.979   2.810   2.085
  927SOL    HW2  569   0.956   2.689   2.192
  928SOL     OW  570   1.504   3.469   1.906
  928SOL    HW1  571   1.412   3.506   1.913
  928SOL    HW2  572   1.542   3.489   1.816
  930SOL     OW  573   1.614   3.154   3.151
  930SOL    HW1  574   1.674   3.157   3.231
  930SOL    HW2  575   1.539   3.218   3.164
  931SOL     OW  576   1.039   2.960   2.558
  931SOL    HW1  577   0.969   2.913   2.612
  931SOL    HW2  578   1.098   2.892   2.515
  932SOL     OW  579   1.014   2.098   2.833
  932SOL    HW1  580   1.006   2.062   2.740
  932SOL    HW2  581   1.012   2.022   2.898
  934SOL     OW  582   1.709   2.247   3.243
  934SOL    HW1  583   1.782   2.316   3.247
  934SOL    HW2  584   1.737   2.172   3.184
  939SOL     OW  585   1.440   2.718   3.260
  939SOL    HW1  586   1.383   2.770   3.197
  939SOL    HW2  587   1.536   2.730   3.236
  941SOL     OW  588   1.183   3.197   1.981
  941SOL    HW1  589   1.084   3.186   1.983
  941SOL    HW2  590   1.217   3.212   2.074
  943SOL     OW  591   1.493   3.629   2.821
  943SOL    HW1  592   1.526   3.693   2.752
  943SOL    HW2  593   1.559   3.623   2.896
  945SOL     OW  594   1.450   3.082   3.495
  945SOL    HW1  595   1.441   3.072   3.594
  945SOL    HW2  596   1.546   3.075   3.469
  947SOL     OW  597   1.674   2.745   3.116
  947SOL    HW1  598   1.647   2.656   3.079
  947SOL    HW2  599   1.675   2.813   3.043
  948SOL     OW  600   1.225   2.187   2.311
  948SOL    HW1  601   1.290   2.113   2.300
  948SOL    HW2  602   1.245   2.237   2.395
  950SOL     OW  603   1.777   2.204   3.504
  950SOL    HW1  604   1.760   2.235   3.410
  950SOL    HW2  605   1.693   2.167   3.542
  951SOL     OW  606   1.730   2.796   3.379
  951SOL    HW1  607   1.768   2.887   3.394
  951SOL    HW2  608   1.722   2.779   3.280
  954SOL     OW  609   0.859   2.818   2.723
  954SOL    HW1  610   0.913   2.749   2.771
  954SOL    HW2  611   0.827   2.887   2.789
  955SOL     OW  612   1.083   2.846   1.949
  955SOL    HW1  613   1.060   2.899   1.867
  955SOL    HW2  614   1.164   2.790   1.930
  956SOL     OW  615   1.861   3.431   2.713
  956SOL    HW1  616   1.790   3.419   2.643
  956SOL    HW2  617   1.862   3.352   2.773
  960SOL     OW  618   1.824   2.054   3.089
  960SOL    HW1  619   1.820   1.964   3.133
  960SOL    HW2  620   1.827   2.043   2.990
  962SOL     OW  621   1.705   3.349   2.966
  962SOL    HW1  622   1.612   3.324   2.939
  962SOL    HW2  623   1.731   3.299   3.048
  965SOL     OW  624   1.424   2.076   2.974
  965SOL    HW1  625   1.476   2.011   3.029
  965SOL    HW2  626   1.375   2.139   3.035
  966SOL     OW  627   1.001   1.896   3.016
  966SOL    HW1  628   0.938   1.824   2.985
  966SOL    HW2  629   1.094   1.860   3.016
  969SOL     OW  630   1.352   1.914   2.030
  969SOL    HW1  631   1.387   1.873   1.946
  969SOL    HW2  632   1.262   1.876   2.050
  970SOL     OW  633   1.300   2.315   2.553
  970SOL    HW1  634   1.241   2.395   2.557
  970SOL    HW2  635   1.315   2.280   2.646
  971SOL     OW  636   1.593   2.083   2.744
  971SOL    HW1  637   1.509   2.082   2.798
  971SOL    HW2  638   1.595   2.166   2.688
  979SOL     OW  639   1.755   2.469   3.955
  979SOL    HW1  640   1.743   2.456   3.856
  979SOL    HW2  641   1.725   2.388   4.004
 1022SOL     OW  642   1.434   3.050   3.765
 1022SOL    HW1  643   1.466   2.974   3.822
 1022SOL    HW2  644   1.342   3.077   3.795
 1036SOL     OW  645   1.390   2.437   3.802
 1036SOL    HW1  646   1.336   2.416   3.883
 1036SOL    HW2  647   1.481   2.396   3.811
 1050SOL     OW  648   1.540   2.136   3.849
 1050SOL    HW1  649   1.479   2.061   3.872
 1050SOL    HW2  650   1.562   2.188   3.932
 1051SOL     OW  651   1.303   2.700   3.766
 1051SOL    HW1  652   1.337   2.607   3.781
 1051SOL    HW2  653   1.321   2.727   3.671
 1255SOL     OW  654   1.400   3.831   2.288
 1255SOL    HW1  655   1.376   3.794   2.198
 1255SOL    HW2  656   1.499   3.847   2.292
 1314SOL     OW  657   1.726   3.859   2.385
 1314SOL    HW1  658   1.799   3.842   2.318
 1314SOL    HW2  659   1.695   3.772   2.423
 1316SOL     OW  660   1.841   3.899   2.825
 1316SOL    HW1  661   1.880   3.814   2.789
 1316SOL    HW2  662   1.743   3.901   2.806
 1337SOL     OW  663   1.824   3.916   3.089
 1337SOL    HW1  664   1.820   3.826   3.133
 1337SOL    HW2  665   1.827   3.905   2.990
 1342SOL     OW  666   1.352   3.776   2.030
 1342SOL    HW1  667   1.387   3.735   1.946
 1342SOL    HW2  668   1.262   3.738   2.050
 1344SOL     OW  669   1.593   3.945   2.744
 1344SOL    HW1  670   1.509   3.944   2.798
 1344SOL    HW2  671   1.595   4.028   2.688
 1423SOL     OW  672   2.431   1.275   1.165
 1423SOL    HW1  673   2.338   1.268   1.128
 1423SOL    HW2  674   2.442   1.364   1.209
 1428SOL     OW  675   2.712   0.798   1.823
 1428SOL    HW1  676   2.708   0.874   1.888
 1428SOL    HW2  677   2.734   0.834   1.732
 1430SOL     OW  678   2.548   1.161   1.803
 1430SOL    HW1  679   2.608   1.240   1.817
 1430SOL    HW2  680   2.462   1.192   1.762
 1431SOL     OW  681   2.197   1.435   1.061
 1431SOL    HW1  682   2.119   1.404   1.008
 1431SOL    HW2  683   2.255   1.493   1.004
 1432SOL     OW  684   3.322   1.505   1.339
 1432SOL    HW1  685   3.346   1.599   1.365
 1432SOL    HW2  686   3.306   1.451   1.421
 1436SOL     OW  687   2.989   1.341   1.690
 1436SOL    HW1  688   3.036   1.341   1.778
 1436SOL    HW2  689   2.941   1.254   1.679
 1439SOL     OW  690   2.482   1.786   1.439
 1439SOL    HW1  691   2.390   1.769   1.474
 1439SOL    HW2  692   2.510   1.878   1.465
 1449SOL     OW  693   3.155   1.228   1.423
 1449SOL    HW1  694   3.192   1.155   1.365
 1449SOL    HW2  695   3.207   1.233   1.508
 1453SOL     OW  696   3.049   1.792   1.616
 1453SOL    HW1  697   3.073   1.852   1.540
 1453SOL    HW2  698   3.056   1.697   1.586
 1462SOL     OW  699   2.835   0.890   1.572
 1462SOL    HW1  700   2.881   0.806   1.543
 1462SOL    HW2  701   2.779   0.924   1.497
 1466SOL     OW  702   1.992   1.821   1.571
 1466SOL    HW1  703   1.982   1.806   1.670
 1466SOL    HW2  704   1.906   1.857   1.535
 1472SOL     OW  705   2.213   1.801   0.853
 1472SOL    HW1  706   2.263   1.715   0.859
 1472SOL    HW2  707   2.278   1.878   0.850
 1474SOL     OW  708   3.089   1.550   1.506
 1474SOL    HW1  709   3.095   1.473   1.570
 1474SOL    HW2  710   3.037   1.524   1.426
 1477SOL     OW  711   2.323   1.266   1.727
 1477SOL    HW1  712   2.273   1.267   1.641
 1477SOL    HW2  713   2.260   1.248   1.803
 1483SOL     OW  714   2.111   1.785   1.241
 1483SOL    HW1  715   2.168   1.720   1.291
 1483SOL    HW2  716   2.095   1.752   1.148
 1484SOL     OW  717   2.802   1.698   0.904
 1484SOL    HW1  718   2.882   1.641   0.925
 1484SOL    HW2  719   2.753   1.658   0.827
 1489SOL     OW  720   2.750   1.514   1.195
 1489SOL    HW1  721   2.727   1.489   1.101
 1489SOL    HW2  722   2.811   1.445   1.234
 1514SOL     OW  723   2.926   1.347   1.340
 1514SOL    HW1  724   2.846   1.324   1.395
 1514SOL    HW2  725   3.009   1.321   1.389
 1515SOL     OW  726   3.454   1.629   1.625
 1515SOL    HW1  727   3.481   1.663   1.535
 1515SOL    HW2  728   3.533   1.591   1.671
 1519SOL     OW  729   2.842   1.116   1.719
 1519SOL    HW1  730   2.743   1.122   1.729
 1519SOL    HW2  731   2.865   1.036   1.663
 1523SOL     OW  732   1.926   1.564   1.331
 1523SOL    HW1  733   1.880   1.646   1.297
 1523SOL    HW2  734   2.024   1.583   1.340
 1527SOL     OW  735   3.134   1.445   1.142
 1527SOL    HW1  736   3.181   1.458   1.229
 1527SOL    HW2  737   3.068   1.371   1.151
 1529SOL     OW  738   2.216   1.510   1.329
 1529SOL    HW1  739   2.195   1.466   1.242
 1529SOL    HW2  740   2.313   1.536   1.332
 1538SOL     OW  741   1.899   1.310   1.282
 1538SOL    HW1  742   1.952   1.261   1.350
 1538SOL    HW2  743   1.921   1.408   1.287
 1544SOL     OW  744   2.842   1.573   1.700
 1544SOL    HW1  745   2.822   1.617   1.612
 1544SOL    HW2  746   2.881   1.482   1.684
 1545SOL     OW  747   3.721   1.518   1.605
 1545SOL    HW1  748   3.735   1.545   1.510
 1545SOL    HW2  749   3.804   1.540   1.658
 1546SOL     OW  750   2.212   0.898   1.804
 1546SOL    HW1  751   2.288   0.942   1.852
 1546SOL    HW2  752   2.247   0.851   1.722
 1555SOL     OW  753   1.950   1.801   0.927
 1555SOL    HW1  754   1.908   1.715   0.900
 1555SOL    HW2  755   2.044   1.804   0.893
 1556SOL     OW  756   2.366   1.568   0.910
 1556SOL    HW1  757   2.432   1.642   0.919
 1556SOL    HW2  758   2.410   1.489   0.868
 1563SOL     OW  759   2.114   1.564   1.744
 1563SOL    HW1  760   2.084   1.621   1.820
 1563SOL    HW2  761   2.107   1.467   1.770
 1565SOL     OW  762   2.792   1.678   1.465
 1565SOL    HW1  763   2.768   1.660   1.370
 1565SOL    HW2  764   2.822   1.772   1.475
 1567SOL     OW  765   2.021   1.137   1.466
 1567SOL    HW1  766   2.043   1.076   1.542
 1567SOL    HW2  767   2.031   1.088   1.380
 1571SOL     OW  768   3.114   1.731   1.128
 1571SOL    HW1  769   3.198   1.736   1.074
 1571SOL    HW2  770   3.091   1.635   1.146
 1573SOL     OW  771   2.550   1.662   1.716
 1573SOL    HW1  772   2.494   1.743   1.725
 1573SOL    HW2  773   2.602   1.666   1.630
 1577SOL     OW  774   1.992   1.794   1.851
 1577SOL    HW1  775   1.951   1.720   1.904
 1577SOL    HW2  776   2.056   1.845   1.909
 1579SOL     OW  777   2.692   1.273   1.422
 1579SOL    HW1  778   2.687   1.306   1.517
 1579SOL    HW2  779   2.606   1.292   1.376
 1581SOL     OW  780   3.512   1.720   1.394
 1581SOL    HW1  781   3.565   1.730   1.310
 1581SOL    HW2  782   3.485   1.810   1.428
 1585SOL     OW  783   2.684   1.002   1.372
 1585SOL    HW1  784   2.724   1.001   1.280
 1585SOL    HW2  785   2.694   1.094   1.412
 1588SOL     OW  786   2.234   1.288   1.490
 1588SOL    HW1  787   2.221   1.381   1.456
 1588SOL    HW2  788   2.150   1.236   1.477
 1595SOL     OW  789   1.967   1.013   1.726
 1595SOL    HW1  790   1.890   0.980   1.780
 1595SOL    HW2  791   2.052   0.983   1.768
 1604SOL     OW  792   3.312   1.220   1.633
 1604SOL    HW1  793   3.303   1.210   1.732
 1604SOL    HW2  794   3.408   1.213   1.607
 1605SOL     OW  795   2.252   1.741   1.560
 1605SOL    HW1  796   2.161   1.782   1.558
 1605SOL    HW2  797   2.245   1.647   1.592
 1612SOL     OW  798   2.523   1.790   0.953
 1612SOL    HW1  799   2.477   1.878   0.940
 1612SOL    HW2  800   2.622   1.802   0.946
 1616SOL     OW  801   2.083   1.314   1.844
 1616SOL    HW1  802   2.018   1.241   1.823
 1616SOL    HW2  803   2.087   1.328   1.942
 1618SOL     OW  804   2.534   1.391   1.624
 1618SOL    HW1  805   2.456   1.341   1.662
 1618SOL    HW2  806   2.531   1.486   1.655
 1627SOL     OW  807   2.480   1.567   1.284
 1627SOL    HW1  808   2.475   1.649   1.341
 1627SOL    HW2  809   2.569   1.564   1.239
 1636SOL     OW  810   2.431   1.275   3.027
 1636SOL    HW1  811   2.338   1.268   2.990
 1636SOL    HW2  812   2.442   1.364   3.071
 1637SOL     OW  813   3.417   1.511   2.565
 1637SOL    HW1  814   3.360   1.495   2.646
 1637SOL    HW2  815   3.358   1.521   2.485
 1640SOL     OW  816   2.630   1.144   2.885
 1640SOL    HW1  817   2.552   1.161   2.945
 1640SOL    HW2  818   2.664   1.231   2.849
 1642SOL     OW  819   2.547   1.012   2.527
 1642SOL    HW1  820   2.616   0.996   2.597
 1642SOL    HW2  821   2.474   1.069   2.565
 1643SOL     OW  822   2.548   1.161   3.665
 1643SOL    HW1  823   2.608   1.240   3.679
 1643SOL    HW2  824   2.462   1.192   3.624
 1644SOL     OW  825   2.197   1.435   2.923
 1644SOL    HW1  826   2.119   1.404   2.870
 1644SOL    HW2  827   2.255   1.493   2.866
 1645SOL     OW  828   3.322   1.505   3.201
 1645SOL    HW1  829   3.346   1.599   3.227
 1645SOL    HW2  830   3.306   1.451   3.283
 1648SOL     OW  831   2.093   1.713   2.345
 1648SOL    HW1  832   2.127   1.790   2.399
 1648SOL    HW2  833   2.137   1.713   2.255
 1649SOL     OW  834   2.989   1.341   3.552
 1649SOL    HW1  835   3.036   1.341   3.640
 1649SOL    HW2  836   2.941   1.254   3.541
 1650SOL     OW  837   2.092   1.434   2.400
 1650SOL    HW1  838   2.066   1.530   2.400
 1650SOL    HW2  839   2.021   1.380   2.445
 1651SOL     OW  840   2.102   1.091   2.748
 1651SOL    HW1  841   2.116   1.007   2.800
 1651SOL    HW2  842   2.047   1.155   2.803
 1652SOL     OW  843   2.482   1.786   3.301
 1652SOL    HW1  844   2.390   1.769   3.336
 1652SOL    HW2  845   2.510   1.878   3.327
 1653SOL     OW  846   2.468   0.964   1.985
 1653SOL    HW1  847   2.475   1.048   1.931
 1653SOL    HW2  848   2.514   0.977   2.073
 1656SOL     OW  849   3.704   1.767   2.221
 1656SOL    HW1  850   3.758   1.738   2.301
 1656SOL    HW2  851   3.734   1.857   2.192
 1657SOL     OW  852   1.889   1.596   1.979
 1657SOL    HW1  853   1.870   1.500   2.000
 1657SOL    HW2  854   1.856   1.654   2.054
 1659SOL     OW  855   3.503   1.108   2.294
 1659SOL    HW1  856   3.589   1.110   2.242
 1659SOL    HW2  857   3.517   1.155   2.382
 1661SOL     OW  858   2.475   1.365   2.588
 1661SOL    HW1  859   2.426   1.278   2.597
 1661SOL    HW2  860   2.452   1.408   2.501
 1662SOL     OW  861   3.155   1.228   3.285
 1662SOL    HW1  862   3.192   1.155   3.227
 1662SOL    HW2  863   3.207   1.233   3.370
 1664SOL     OW  864   2.059   0.976   3.126
 1664SOL    HW1  865   2.148   0.931   3.112
 1664SOL    HW2  866   1.986   0.911   3.107
 1665SOL     OW  867   3.387   0.999   2.052
 1665SOL    HW1  868   3.324   0.923   2.065
 1665SOL    HW2  869   3.435   1.017   2.138
 1666SOL     OW  870   3.049   1.792   3.478
 1666SOL    HW1  871   3.073   1.852   3.402
 1666SOL    HW2  872   3.056   1.697   3.448
 1668SOL     OW  873   3.328   1.417   2.815
 1668SOL    HW1  874   3.269   1.423   2.895
 1668SOL    HW2  875   3.313   1.329   2.769
 1669SOL     OW  876   3.529   1.714   2.434
 1669SOL    HW1  877   3.488   1.691   2.346
 1669SOL    HW2  878   3.511   1.640   2.499
 1670SOL     OW  879   2.460   0.729   2.132
 1670SOL    HW1  880   2.484   0.798   2.064
 1670SOL    HW2  881   2.382   0.762   2.186
 1672SOL     OW  882   3.438   1.662   2.169
 1672SOL    HW1  883   3.527   1.708   2.172
 1672SOL    HW2  884   3.417   1.638   2.074
 1677SOL     OW  885   2.903   0.701   2.291
 1677SOL    HW1  886   2.929   0.697   2.387
 1677SOL    HW2  887   2.818   0.650   2.277
 1678SOL     OW  888   1.938   0.811   2.651
 1678SOL    HW1  889   2.037   0.799   2.660
 1678SOL    HW2  890   1.914   0.906   2.672
 1679SOL     OW  891   1.992   1.821   3.433
 1679SOL    HW1  892   1.982   1.806   3.532
 1679SOL    HW2  893   1.906   1.857   3.397
 1682SOL     OW  894   3.224   1.144   2.407
 1682SOL    HW1  895   3.307   1.115   2.359
 1682SOL    HW2  896   3.175   1.211   2.351
 1684SOL     OW  897   2.870   1.456   2.339
 1684SOL    HW1  898   2.824   1.528   2.287
 1684SOL    HW2  899   2.866   1.476   2.437
 1685SOL     OW  900   2.213   1.801   2.715
 1685SOL    HW1  901   2.263   1.715   2.721
 1685SOL    HW2  902   2.278   1.878   2.712
 1687SOL     OW  903   3.089   1.550   3.368
 1687SOL    HW1  904   3.095   1.473   3.432
 1687SOL    HW2  905   3.037   1.524   3.288
 1688SOL     OW  906   2.183   0.943   2.104
 1688SOL    HW1  907   2.265   0.982   2.062
 1688SOL    HW2  908   2.156   0.861   2.055
 1690SOL     OW  909   2.323   1.266   3.589
 1690SOL    HW1  910   2.273   1.267   3.503
 1690SOL    HW2  911   2.260   1.248   3.665
 1691SOL     OW  912   2.973   1.776   2.099
 1691SOL    HW1  913   2.913   1.714   2.149
 1691SOL    HW2  914   3.004   1.732   2.014
 1693SOL     OW  915   3.494   1.377   1.943
 1693SOL    HW1  916   3.462   1.471   1.933
 1693SOL    HW2  917   3.418   1.314   1.931
 1694SOL     OW  918   2.326   1.743   2.185
 1694SOL    HW1  919   2.359   1.782   2.271
 1694SOL    HW2  920   2.402   1.736   2.120
 1696SOL     OW  921   2.111   1.785   3.103
 1696SOL    HW1  922   2.168   1.720   3.153
 1696SOL    HW2  923   2.095   1.752   3.010
 1697SOL     OW  924   2.802   1.698   2.766
 1697SOL    HW1  925   2.882   1.641   2.787
 1697SOL    HW2  926   2.753   1.658   2.689
 1698SOL     OW  927   2.244   0.700   2.342
 1698SOL    HW1  928   2.289   0.610   2.339
 1698SOL    HW2  929   2.150   0.689   2.375
 1702SOL     OW  930   2.750   1.514   3.057
 1702SOL    HW1  931   2.727   1.489   2.963
 1702SOL    HW2  932   2.811   1.445   3.096
 1704SOL     OW  933   2.665   1.402   2.786
 1704SOL    HW1  934   2.755   1.416   2.744
 1704SOL    HW2  935   2.594   1.404   2.715
 1707SOL     OW  936   3.296   1.188   1.903
 1707SOL    HW1  937   3.328   1.112   1.960
 1707SOL    HW2  938   3.204   1.215   1.933
 1711SOL     OW  939   3.089   1.570   2.655
 1711SOL    HW1  940   3.110   1.644   2.590
 1711SOL    HW2  941   3.157   1.570   2.728
 1712SOL     OW  942   2.321   1.152   2.603
 1712SOL    HW1  943   2.250   1.125   2.668
 1712SOL    HW2  944   2.295   1.124   2.510
 1713SOL     OW  945   3.133   1.797   2.453
 1713SOL    HW1  946   3.177   1.861   2.389
 1713SOL    HW2  947   3.083   1.849   2.523
 1719SOL     OW  948   3.291   1.173   2.729
 1719SOL    HW1  949   3.236   1.089   2.722
 1719SOL    HW2  950   3.317   1.202   2.637
 1722SOL     OW  951   2.350   1.385   2.036
 1722SOL    HW1  952   2.263   1.370   2.083
 1722SOL    HW2  953   2.333   1.411   1.941
 1723SOL     OW  954   3.526   1.280   2.519
 1723SOL    HW1  955   3.625   1.288   2.533
 1723SOL    HW2  956   3.481   1.364   2.550
 1727SOL     OW  957   2.926   1.347   3.202
 1727SOL    HW1  958   2.846   1.324   3.257
 1727SOL    HW2  959   3.009   1.321   3.251
 1728SOL     OW  960   3.454   1.629   3.487
 1728SOL    HW1  961   3.481   1.663   3.397
 1728SOL    HW2  962   3.533   1.591   3.533
 1729SOL     OW  963   2.973   1.195   2.962
 1729SOL    HW1  964   2.933   1.239   3.043
 1729SOL    HW2  965   2.932   1.232   2.879
 1730SOL     OW  966   3.500   1.099   2.941
 1730SOL    HW1  967   3.505   1.180   3.000
 1730SOL    HW2  968   3.414   1.101   2.890
 1732SOL     OW  969   2.842   1.116   3.581
 1732SOL    HW1  970   2.743   1.122   3.591
 1732SOL    HW2  971   2.865   1.036   3.525
 1733SOL     OW  972   2.567   1.050   2.230
 1733SOL    HW1  973   2.553   1.057   2.329
 1733SOL    HW2  974   2.651   0.999   2.212
 1734SOL     OW  975   2.272   0.813   3.113
 1734SOL    HW1  976   2.358   0.825   3.163
 1734SOL    HW2  977   2.230   0.726   3.140
 1736SOL     OW  978   1.926   1.564   3.193
 1736SOL    HW1  979   1.880   1.646   3.159
 1736SOL    HW2  980   2.024   1.583   3.202
 1737SOL     OW  981   2.229   1.100   2.363
 1737SOL    HW1  982   2.222   1.183   2.307
 1737SOL    HW2  983   2.233   1.020   2.303
 1739SOL     OW  984   3.114   1.348   2.250
 1739SOL    HW1  985   3.164   1.425   2.290
 1739SOL    HW2  986   3.019   1.350   2.282
 1740SOL     OW  987   3.134   1.445   3.004
 1740SOL    HW1  988   3.181   1.458   3.091
 1740SOL    HW2  989   3.068   1.371   3.013
 1742SOL     OW  990   2.216   1.510   3.191
 1742SOL    HW1  991   2.195   1.466   3.104
 1742SOL    HW2  992   2.313   1.536   3.194
 1747SOL     OW  993   2.435   0.870   2.891
 1747SOL    HW1  994   2.479   0.959   2.882
 1747SOL    HW2  995   2.372   0.870   2.968
 1751SOL     OW  996   1.899   1.310   3.144
 1751SOL    HW1  997   1.952   1.261   3.212
 1751SOL    HW2  998   1.921   1.408   3.149
 1756SOL     OW  999   2.885   0.766   2.828
 1756SOL    HW1 1000   2.900   0.787   2.924
 1756SOL    HW2 1001   2.855   0.671   2.819
 1757SOL     OW 1002   2.842   1.573   3.562
 1757SOL    HW1 1003   2.822   1.617   3.474
 1757SOL    HW2 1004   2.881   1.482   3.546
 1762SOL     OW 1005   2.930   1.333   2.711
 1762SOL    HW1 1006   2.937   1.249   2.656
 1762SOL    HW2 1007   2.992   1.402   2.675
 1763SOL     OW 1008   2.181   0.810   2.811
 1763SOL    HW1 1009   2.274   0.846   2.816
 1763SOL    HW2 1010   2.175   0.725   2.863
 1767SOL     OW 1011   1.870   1.326   2.062
 1767SOL    HW1 1012   1.777   1.347   2.031
 1767SOL    HW2 1013   1.880   1.227   2.075
 1768SOL     OW 1014   1.950   1.801   2.789
 1768SOL    HW1 1015   1.908   1.715   2.762
 1768SOL    HW2 1016   2.044   1.804   2.755
 1769SOL     OW 1017   2.366   1.568   2.772
 1769SOL    HW1 1018   2.432   1.642   2.781
 1769SOL    HW2 1019   2.410   1.489   2.730
 1776SOL     OW 1020   2.114   1.564   3.606
 1776SOL    HW1 1021   2.084   1.621   3.682
 1776SOL    HW2 1022   2.107   1.467   3.632
 1778SOL     OW 1023   2.792   1.678   3.327
 1778SOL    HW1 1024   2.768   1.660   3.232
 1778SOL    HW2 1025   2.822   1.772   3.337
 1780SOL     OW 1026   2.021   1.137   3.328
 1780SOL    HW1 1027   2.043   1.076   3.404
 1780SOL    HW2 1028   2.031   1.088   3.242
 1781SOL     OW 1029   3.209   1.059   3.096
 1781SOL    HW1 1030   3.233   0.996   3.022
 1781SOL    HW2 1031   3.119   1.099   3.078
 1782SOL     OW 1032   3.164   0.855   2.171
 1782SOL    HW1 1033   3.078   0.824   2.213
 1782SOL    HW2 1034   3.160   0.841   2.072
 1783SOL     OW 1035   3.621   1.747   3.016
 1783SOL    HW1 1036   3.682   1.777   2.943
 1783SOL    HW2 1037   3.583   1.658   2.994
 1784SOL     OW 1038   3.114   1.731   2.990
 1784SOL    HW1 1039   3.198   1.736   2.936
 1784SOL    HW2 1040   3.091   1.635   3.008
 1785SOL     OW 1041   1.945   1.258   2.884
 1785SOL    HW1 1042   1.940   1.257   2.984
 1785SOL    HW2 1043   1.862   1.217   2.846
 1786SOL     OW 1044   2.550   1.662   3.578
 1786SOL    HW1 1045   2.494   1.743   3.587
 1786SOL    HW2 1046   2.602   1.666   3.492
 1788SOL     OW 1047   3.250   1.573   2.339
 1788SOL    HW1 1048   3.317   1.585   2.265
 1788SOL    HW2 1049   3.210   1.662   2.362
 1789SOL     OW 1050   1.992   1.794   3.713
 1789SOL    HW1 1051   1.951   1.720   3.766
 1789SOL    HW2 1052   2.056   1.845   3.771
 1790SOL     OW 1053   3.142   0.927   2.534
 1790SOL    HW1 1054   3.202   0.846   2.536
 1790SOL    HW2 1055   3.182   0.996   2.474
 1791SOL     OW 1056   2.692   1.273   3.284
 1791SOL    HW1 1057   2.687   1.306   3.379
 1791SOL    HW2 1058   2.606   1.292   3.238
 1792SOL     OW 1059   2.534   1.616   2.016
 1792SOL    HW1 1060   2.543   1.626   1.917
 1792SOL    HW2 1061   2.494   1.527   2.037
 1793SOL     OW 1062   3.512   1.720   3.256
 1793SOL    HW1 1063   3.565   1.730   3.172
 1793SOL    HW2 1064   3.485   1.810   3.290
 1796SOL     OW 1065   3.056   1.612   1.893
 1796SOL    HW1 1066   3.062   1.519   1.930
 1796SOL    HW2 1067   2.997   1.612   1.813
 1797SOL     OW 1068   2.684   1.002   3.234
 1797SOL    HW1 1069   2.724   1.001   3.142
 1797SOL    HW2 1070   2.694   1.094   3.274
 1798SOL     OW 1071   2.778   0.910   2.153
 1798SOL    HW1 1072   2.841   0.948   2.085
 1798SOL    HW2 1073   2.818   0.827   2.192
 1799SOL     OW 1074   3.366   1.607   1.906
 1799SOL    HW1 1075   3.274   1.644   1.913
 1799SOL    HW2 1076   3.404   1.627   1.816
 1800SOL     OW 1077   2.234   1.288   3.352
 1800SOL    HW1 1078   2.221   1.381   3.318
 1800SOL    HW2 1079   2.150   1.236   3.339
 1801SOL     OW 1080   3.476   1.292   3.151
 1801SOL    HW1 1081   3.536   1.295   3.231
 1801SOL    HW2 1082   3.401   1.356   3.164
 1802SOL     OW 1083   2.901   1.098   2.558
 1802SOL    HW1 1084   2.831   1.051   2.612
 1802SOL    HW2 1085   2.960   1.030   2.515
 1804SOL     OW 1086   2.452   1.487   2.353
 1804SOL    HW1 1087   2.494   1.429   2.283
 1804SOL    HW2 1088   2.408   1.566   2.309
 1806SOL     OW 1089   2.117   1.348   2.152
 1806SOL    HW1 1090   2.021   1.349   2.125
 1806SOL    HW2 1091   2.129   1.401   2.236
 1812SOL     OW 1092   3.045   1.335   1.981
 1812SOL    HW1 1093   2.946   1.324   1.983
 1812SOL    HW2 1094   3.079   1.350   2.074
 1813SOL     OW 1095   2.475   0.842   3.293
 1813SOL    HW1 1096   2.531   0.923   3.276
 1813SOL    HW2 1097   2.534   0.762   3.296
 1814SOL     OW 1098   3.355   1.767   2.821
 1814SOL    HW1 1099   3.388   1.831   2.752
 1814SOL    HW2 1100   3.421   1.761   2.896
 1817SOL     OW 1101   2.252   1.741   3.422
 1817SOL    HW1 1102   2.161   1.782   3.420
 1817SOL    HW2 1103   2.245   1.647   3.454
 1820SOL     OW 1104   2.456   0.745   2.514
 1820SOL    HW1 1105   2.506   0.830   2.495
 1820SOL    HW2 1106   2.368   0.747   2.466
 1823SOL     OW 1107   2.721   1.374   1.878
 1823SOL    HW1 1108   2.675   1.389   1.966
 1823SOL    HW2 1109   2.765   1.459   1.848
 1824SOL     OW 1110   2.523   1.790   2.815
 1824SOL    HW1 1111   2.477   1.878   2.802
 1824SOL    HW2 1112   2.622   1.802   2.808
 1825SOL     OW 1113   2.721   0.956   2.723
 1825SOL    HW1 1114   2.775   0.887   2.771
 1825SOL    HW2 1115   2.689   1.025   2.789
 1826SOL     OW 1116   2.945   0.984   1.949
 1826SOL    HW1 1117   2.922   1.037   1.867
 1826SOL    HW2 1118   3.026   0.928   1.930
 1827SOL     OW 1119   3.723   1.569   2.713
 1827SOL    HW1 1120   3.652   1.557   2.643
 1827SOL    HW2 1121   3.724   1.490   2.773
 1828SOL     OW 1122   2.083   1.314   3.706
 1828SOL    HW1 1123   2.018   1.241   3.685
 1828SOL    HW2 1124   2.087   1.328   3.804
 1829SOL     OW 1125   1.941   1.240   2.515
 1829SOL    HW1 1126   1.940   1.193   2.603
 1829SOL    HW2 1127   2.023   1.212   2.464
 1830SOL     OW 1128   2.534   1.391   3.486
 1830SOL    HW1 1129   2.456   1.341   3.524
 1830SOL    HW2 1130   2.531   1.486   3.517
 1833SOL     OW 1131   3.567   1.487   2.966
 1833SOL    HW1 1132   3.474   1.462   2.939
 1833SOL    HW2 1133   3.593   1.437   3.048
 1835SOL     OW 1134   2.674   1.586   2.549
 1835SOL    HW1 1135   2.706   1.596   2.455
 1835SOL    HW2 1136   2.595   1.524   2.551
 1838SOL     OW 1137   2.632   1.330   2.163
 1838SOL    HW1 1138   2.586   1.243   2.180
 1838SOL    HW2 1139   2.723   1.327   2.204
 1839SOL     OW 1140   2.480   1.567   3.146
 1839SOL    HW1 1141   2.475   1.649   3.203
 1839SOL    HW2 1142   2.569   1.564   3.101
 1843SOL     OW 1143   1.901   1.077   2.162
 1843SOL    HW1 1144   2.000   1.066   2.153
 1843SOL    HW2 1145   1.861   0.991   2.194
 1844SOL     OW 1146   2.737   1.646   2.199
 1844SOL    HW1 1147   2.660   1.611   2.145
 1844SOL    HW2 1148   2.705   1.717   2.261
 1861SOL     OW 1149   1.889   1.596   3.841
 1861SOL    HW1 1150   1.870   1.500   3.862
 1861SOL    HW2 1151   1.856   1.654   3.916
 1882SOL     OW 1152   2.973   1.776   3.961
 1882SOL    HW1 1153   2.913   1.714   4.011
 1882SOL    HW2 1154   3.004   1.732   3.876
 1884SOL     OW 1155   2.326   1.743   4.047
 1884SOL    HW1 1156   2.359   1.782   4.133
 1884SOL    HW2 1157   2.402   1.736   3.982
 1938SOL     OW 1158   2.534   1.616   3.878
 1938SOL    HW1 1159   2.543   1.626   3.779
 1938SOL    HW2 1160   2.494   1.527   3.899
 1941SOL     OW 1161   3.056   1.612   3.755
 1941SOL    HW1 1162   3.062   1.519   3.792
 1941SOL    HW2 1163   2.997   1.612   3.675
 1953SOL     OW 1164   2.721   1.374   3.740
 1953SOL    HW1 1165   2.675   1.389   3.828
 1953SOL    HW2 1166   2.765   1.459   3.710
 1969SOL     OW 1167   2.087   2.137   0.996
 1969SOL    HW1 1168   2.122   2.120   1.088
 1969SOL    HW2 1169   1.999   2.092   0.984
 1971SOL     OW 1170   2.431   3.137   1.165
 1971SOL    HW1 1171   2.338   3.130   1.128
 1971SOL    HW2 1172   2.442   3.226   1.209
 1973SOL     OW 1173   2.997   2.565   0.717
 1973SOL    HW1 1174   3.054   2.643   0.692
 1973SOL    HW2 1175   2.937   2.591   0.793
 1975SOL     OW 1176   2.630   3.006   1.023
 1975SOL    HW1 1177   2.552   3.023   1.083
 1975SOL    HW2 1178   2.664   3.093   0.987
 1976SOL     OW 1179   2.712   2.660   1.823
 1976SOL    HW1 1180   2.708   2.736   1.888
 1976SOL    HW2 1181   2.734   2.696   1.732
 1978SOL     OW 1182   2.548   3.023   1.803
 1978SOL    HW1 1183   2.608   3.102   1.817
 1978SOL    HW2 1184   2.462   3.054   1.762
 1979SOL     OW 1185   2.197   3.297   1.061
 1979SOL    HW1 1186   2.119   3.266   1.008
 1979SOL    HW2 1187   2.255   3.355   1.004
 1980SOL     OW 1188   3.322   3.367   1.339
 1980SOL    HW1 1189   3.346   3.461   1.365
 1980SOL    HW2 1190   3.306   3.313   1.421
 1981SOL     OW 1191   2.300   2.254   1.499
 1981SOL    HW1 1192   2.382   2.198   1.508
 1981SOL    HW2 1193   2.219   2.196   1.503
 1984SOL     OW 1194   2.989   3.203   1.690
 1984SOL    HW1 1195   3.036   3.203   1.778
 1984SOL    HW2 1196   2.941   3.116   1.679
 1986SOL     OW 1197   2.102   2.953   0.886
 1986SOL    HW1 1198   2.116   2.869   0.938
 1986SOL    HW2 1199   2.047   3.017   0.941
 1987SOL     OW 1200   2.482   3.648   1.439
 1987SOL    HW1 1201   2.390   3.631   1.474
 1987SOL    HW2 1202   2.510   3.740   1.465
 1989SOL     OW 1203   3.456   1.976   1.480
 1989SOL    HW1 1204   3.438   2.043   1.408
 1989SOL    HW2 1205   3.453   2.022   1.569
 1995SOL     OW 1206   1.975   2.599   1.597
 1995SOL    HW1 1207   2.063   2.586   1.642
 1995SOL    HW2 1208   1.962   2.696   1.575
 1997SOL     OW 1209   3.155   3.090   1.423
 1997SOL    HW1 1210   3.192   3.017   1.365
 1997SOL    HW2 1211   3.207   3.095   1.508
 1999SOL     OW 1212   2.059   2.838   1.264
 1999SOL    HW1 1213   2.148   2.793   1.250
 1999SOL    HW2 1214   1.986   2.773   1.245
 2001SOL     OW 1215   3.049   3.654   1.616
 2001SOL    HW1 1216   3.073   3.714   1.540
 2001SOL    HW2 1217   3.056   3.559   1.586
 2002SOL     OW 1218   2.179   2.113   1.801
 2002SOL    HW1 1219   2.250   2.184   1.807
 2002SOL    HW2 1220   2.091   2.152   1.829
 2006SOL     OW 1221   3.143   2.207   0.944
 2006SOL    HW1 1222   3.057   2.157   0.931
 2006SOL    HW2 1223   3.205   2.153   1.000
 2008SOL     OW 1224   2.669   2.467   1.465
 2008SOL    HW1 1225   2.622   2.464   1.554
 2008SOL    HW2 1226   2.618   2.412   1.399
 2009SOL     OW 1227   3.256   2.331   1.674
 2009SOL    HW1 1228   3.236   2.374   1.762
 2009SOL    HW2 1229   3.334   2.269   1.683
 2010SOL     OW 1230   2.835   2.752   1.572
 2010SOL    HW1 1231   2.881   2.668   1.543
 2010SOL    HW2 1232   2.779   2.786   1.497
 2011SOL     OW 1233   2.853   2.272   1.242
 2011SOL    HW1 1234   2.776   2.306   1.296
 2011SOL    HW2 1235   2.819   2.221   1.163
 2013SOL     OW 1236   1.938   2.673   0.789
 2013SOL    HW1 1237   2.037   2.661   0.798
 2013SOL    HW2 1238   1.914   2.768   0.810
 2014SOL     OW 1239   1.992   3.683   1.571
 2014SOL    HW1 1240   1.982   3.668   1.670
 2014SOL    HW2 1241   1.906   3.719   1.535
 2016SOL     OW 1242   3.581   2.447   1.831
 2016SOL    HW1 1243   3.555   2.536   1.795
 2016SOL    HW2 1244   3.579   2.379   1.758
 2018SOL     OW 1245   2.412   2.058   0.885
 2018SOL    HW1 1246   2.407   2.053   0.985
 2018SOL    HW2 1247   2.414   2.154   0.856
 2022SOL     OW 1248   3.089   3.412   1.506
 2022SOL    HW1 1249   3.095   3.335   1.570
 2022SOL    HW2 1250   3.037   3.386   1.426
 2025SOL     OW 1251   2.323   3.128   1.727
 2025SOL    HW1 1252   2.273   3.129   1.641
 2025SOL    HW2 1253   2.260   3.110   1.803
 2027SOL     OW 1254   2.064   2.147   1.498
 2027SOL    HW1 1255   1.984   2.207   1.485
 2027SOL    HW2 1256   2.054   2.098   1.584
 2031SOL     OW 1257   2.111   3.647   1.241
 2031SOL    HW1 1258   2.168   3.582   1.291
 2031SOL    HW2 1259   2.095   3.614   1.148
 2034SOL     OW 1260   3.409   2.084   1.729
 2034SOL    HW1 1261   3.404   2.121   1.821
 2034SOL    HW2 1262   3.337   2.015   1.717
 2036SOL     OW 1263   2.643   2.126   1.749
 2036SOL    HW1 1264   2.710   2.065   1.792
 2036SOL    HW2 1265   2.570   2.145   1.814
 2037SOL     OW 1266   2.750   3.376   1.195
 2037SOL    HW1 1267   2.727   3.351   1.101
 2037SOL    HW2 1268   2.811   3.307   1.234
 2038SOL     OW 1269   3.213   2.452   1.433
 2038SOL    HW1 1270   3.241   2.409   1.518
 2038SOL    HW2 1271   3.238   2.548   1.434
 2039SOL     OW 1272   2.665   3.264   0.924
 2039SOL    HW1 1273   2.755   3.278   0.882
 2039SOL    HW2 1274   2.594   3.266   0.853
 2040SOL     OW 1275   2.784   2.365   0.899
 2040SOL    HW1 1276   2.759   2.356   0.803
 2040SOL    HW2 1277   2.832   2.283   0.930
 2044SOL     OW 1278   2.938   2.545   1.464
 2044SOL    HW1 1279   2.858   2.484   1.467
 2044SOL    HW2 1280   3.019   2.492   1.440
 2046SOL     OW 1281   2.321   3.014   0.741
 2046SOL    HW1 1282   2.250   2.987   0.806
 2046SOL    HW2 1283   2.295   2.986   0.648
 2049SOL     OW 1284   1.940   2.418   1.386
 2049SOL    HW1 1285   2.032   2.417   1.345
 2049SOL    HW2 1286   1.934   2.492   1.453
 2050SOL     OW 1287   2.423   2.084   1.147
 2050SOL    HW1 1288   2.461   2.000   1.184
 2050SOL    HW2 1289   2.335   2.103   1.191
 2051SOL     OW 1290   2.728   2.316   0.642
 2051SOL    HW1 1291   2.696   2.388   0.580
 2051SOL    HW2 1292   2.752   2.235   0.589
 2052SOL     OW 1293   2.879   1.901   0.753
 2052SOL    HW1 1294   2.807   1.906   0.684
 2052SOL    HW2 1295   2.855   1.832   0.822
 2054SOL     OW 1296   3.328   2.452   0.992
 2054SOL    HW1 1297   3.298   2.357   0.999
 2054SOL    HW2 1298   3.401   2.468   1.058
 2060SOL     OW 1299   3.616   3.085   1.588
 2060SOL    HW1 1300   3.707   3.046   1.575
 2060SOL    HW2 1301   3.624   3.181   1.612
 2061SOL     OW 1302   2.926   3.209   1.340
 2061SOL    HW1 1303   2.846   3.186   1.395
 2061SOL    HW2 1304   3.009   3.183   1.389
 2062SOL     OW 1305   3.454   3.491   1.625
 2062SOL    HW1 1306   3.481   3.525   1.535
 2062SOL    HW2 1307   3.533   3.453   1.671
 2063SOL     OW 1308   2.973   3.057   1.100
 2063SOL    HW1 1309   2.933   3.101   1.181
 2063SOL    HW2 1310   2.932   3.094   1.017
 2065SOL     OW 1311   2.777   1.951   1.402
 2065SOL    HW1 1312   2.802   1.931   1.307
 2065SOL    HW2 1313   2.849   2.007   1.444
 2066SOL     OW 1314   2.842   2.978   1.719
 2066SOL    HW1 1315   2.743   2.984   1.729
 2066SOL    HW2 1316   2.865   2.898   1.663
 2068SOL     OW 1317   2.272   2.675   1.251
 2068SOL    HW1 1318   2.358   2.687   1.301
 2068SOL    HW2 1319   2.230   2.588   1.278
 2069SOL     OW 1320   3.136   2.248   1.262
 2069SOL    HW1 1321   3.157   2.322   1.326
 2069SOL    HW2 1322   3.047   2.265   1.219
 2070SOL     OW 1323   1.926   3.426   1.331
 2070SOL    HW1 1324   1.880   3.508   1.297
 2070SOL    HW2 1325   2.024   3.445   1.340
 2072SOL     OW 1326   2.428   2.399   0.865
 2072SOL    HW1 1327   2.440   2.465   0.791
 2072SOL    HW2 1328   2.474   2.433   0.948
 2074SOL     OW 1329   3.134   3.307   1.142
 2074SOL    HW1 1330   3.181   3.320   1.229
 2074SOL    HW2 1331   3.068   3.233   1.151
 2076SOL     OW 1332   2.216   3.372   1.329
 2076SOL    HW1 1333   2.195   3.328   1.242
 2076SOL    HW2 1334   2.313   3.398   1.332
 2077SOL     OW 1335   2.264   2.613   1.598
 2077SOL    HW1 1336   2.332   2.668   1.551
 2077SOL    HW2 1337   2.304   2.525   1.625
 2078SOL     OW 1338   3.449   2.641   1.670
 2078SOL    HW1 1339   3.357   2.679   1.665
 2078SOL    HW2 1340   3.509   2.688   1.605
 2079SOL     OW 1341   2.875   1.967   1.770
 2079SOL    HW1 1342   2.881   2.052   1.718
 2079SOL    HW2 1343   2.907   1.891   1.713
 2080SOL     OW 1344   2.366   1.912   1.740
 2080SOL    HW1 1345   2.324   1.855   1.670
 2080SOL    HW2 1346   2.300   1.981   1.772
 2081SOL     OW 1347   2.435   2.732   1.029
 2081SOL    HW1 1348   2.479   2.821   1.020
 2081SOL    HW2 1349   2.372   2.732   1.106
 2082SOL     OW 1350   3.222   2.724   1.045
 2082SOL    HW1 1351   3.147   2.724   0.979
 2082SOL    HW2 1352   3.259   2.632   1.054
 2084SOL     OW 1353   2.169   2.075   1.231
 2084SOL    HW1 1354   2.146   2.112   1.321
 2084SOL    HW2 1355   2.139   1.980   1.225
 2085SOL     OW 1356   1.899   3.172   1.282
 2085SOL    HW1 1357   1.952   3.123   1.350
 2085SOL    HW2 1358   1.921   3.270   1.287
 2086SOL     OW 1359   2.594   2.496   1.064
 2086SOL    HW1 1360   2.653   2.470   0.988
 2086SOL    HW2 1361   2.566   2.592   1.053
 2087SOL     OW 1362   3.590   2.797   1.854
 2087SOL    HW1 1363   3.544   2.790   1.765
 2087SOL    HW2 1364   3.528   2.841   1.920
 2090SOL     OW 1365   2.885   2.628   0.966
 2090SOL    HW1 1366   2.900   2.649   1.062
 2090SOL    HW2 1367   2.855   2.533   0.957
 2091SOL     OW 1368   2.842   3.435   1.700
 2091SOL    HW1 1369   2.822   3.479   1.612
 2091SOL    HW2 1370   2.881   3.344   1.684
 2093SOL     OW 1371   2.212   2.760   1.804
 2093SOL    HW1 1372   2.288   2.804   1.852
 2093SOL    HW2 1373   2.247   2.713   1.722
 2097SOL     OW 1374   2.181   2.672   0.949
 2097SOL    HW1 1375   2.274   2.708   0.954
 2097SOL    HW2 1376   2.175   2.587   1.001
 2098SOL     OW 1377   2.201   2.371   1.006
 2098SOL    HW1 1378   2.149   2.288   0.989
 2098SOL    HW2 1379   2.278   2.376   0.942
 2099SOL     OW 1380   3.000   2.242   1.678
 2099SOL    HW1 1381   2.955   2.305   1.742
 2099SOL    HW2 1382   3.093   2.273   1.661
 2100SOL     OW 1383   3.022   2.069   1.477
 2100SOL    HW1 1384   3.022   2.133   1.554
 2100SOL    HW2 1385   3.050   2.117   1.394
 2104SOL     OW 1386   2.864   2.658   1.238
 2104SOL    HW1 1387   2.905   2.626   1.324
 2104SOL    HW2 1388   2.768   2.631   1.235
 2105SOL     OW 1389   1.902   2.406   1.114
 2105SOL    HW1 1390   1.987   2.373   1.073
 2105SOL    HW2 1391   1.915   2.421   1.212
 2106SOL     OW 1392   2.051   2.382   1.722
 2106SOL    HW1 1393   2.110   2.342   1.652
 2106SOL    HW2 1394   1.993   2.453   1.681
 2107SOL     OW 1395   3.231   2.812   1.660
 2107SOL    HW1 1396   3.270   2.901   1.680
 2107SOL    HW2 1397   3.241   2.792   1.563
 2109SOL     OW 1398   3.519   2.466   1.206
 2109SOL    HW1 1399   3.481   2.397   1.268
 2109SOL    HW2 1400   3.601   2.430   1.162
 2110SOL     OW 1401   2.114   3.426   1.744
 2110SOL    HW1 1402   2.084   3.483   1.820
 2110SOL    HW2 1403   2.107   3.329   1.770
 2111SOL     OW 1404   2.533   2.326   1.269
 2111SOL    HW1 1405   2.499   2.237   1.239
 2111SOL    HW2 1406   2.559   2.380   1.189
 2112SOL     OW 1407   2.792   3.540   1.465
 2112SOL    HW1 1408   2.768   3.522   1.370
 2112SOL    HW2 1409   2.822   3.634   1.475
 2114SOL     OW 1410   2.021   2.999   1.466
 2114SOL    HW1 1411   2.043   2.938   1.542
 2114SOL    HW2 1412   2.031   2.950   1.380
 2115SOL     OW 1413   3.209   2.921   1.234
 2115SOL    HW1 1414   3.233   2.858   1.160
 2115SOL    HW2 1415   3.119   2.961   1.216
 2119SOL     OW 1416   1.945   3.120   1.022
 2119SOL    HW1 1417   1.940   3.119   1.122
 2119SOL    HW2 1418   1.862   3.079   0.984
 2120SOL     OW 1419   2.550   3.524   1.716
 2120SOL    HW1 1420   2.494   3.605   1.725
 2120SOL    HW2 1421   2.602   3.528   1.630
 2124SOL     OW 1422   1.992   3.656   1.851
 2124SOL    HW1 1423   1.951   3.582   1.904
 2124SOL    HW2 1424   2.056   3.707   1.909
 2126SOL     OW 1425   2.692   3.135   1.422
 2126SOL    HW1 1426   2.687   3.168   1.517
 2126SOL    HW2 1427   2.606   3.154   1.376
 2130SOL     OW 1428   2.125   2.188   0.720
 2130SOL    HW1 1429   2.046   2.239   0.686
 2130SOL    HW2 1430   2.116   2.173   0.818
 2132SOL     OW 1431   2.684   2.864   1.372
 2132SOL    HW1 1432   2.724   2.863   1.280
 2132SOL    HW2 1433   2.694   2.956   1.412
 2135SOL     OW 1434   2.234   3.150   1.490
 2135SOL    HW1 1435   2.221   3.243   1.456
 2135SOL    HW2 1436   2.150   3.098   1.477
 2136SOL     OW 1437   3.476   3.154   1.289
 2136SOL    HW1 1438   3.536   3.157   1.369
 2136SOL    HW2 1439   3.401   3.218   1.302
 2138SOL     OW 1440   2.876   2.098   0.971
 2138SOL    HW1 1441   2.868   2.062   0.878
 2138SOL    HW2 1442   2.874   2.022   1.036
 2140SOL     OW 1443   3.571   2.247   1.381
 2140SOL    HW1 1444   3.644   2.316   1.385
 2140SOL    HW2 1445   3.599   2.172   1.322
 2142SOL     OW 1446   1.967   2.875   1.726
 2142SOL    HW1 1447   1.890   2.842   1.780
 2142SOL    HW2 1448   2.052   2.845   1.768
 2143SOL     OW 1449   2.534   2.065   1.489
 2143SOL    HW1 1450   2.624   2.049   1.449
 2143SOL    HW2 1451   2.542   2.070   1.588
 2145SOL     OW 1452   3.302   2.718   1.398
 2145SOL    HW1 1453   3.245   2.770   1.335
 2145SOL    HW2 1454   3.398   2.730   1.374
 2148SOL     OW 1455   2.475   2.704   1.431
 2148SOL    HW1 1456   2.531   2.785   1.414
 2148SOL    HW2 1457   2.534   2.624   1.434
 2150SOL     OW 1458   2.578   2.427   1.708
 2150SOL    HW1 1459   2.597   2.492   1.782
 2150SOL    HW2 1460   2.638   2.347   1.717
 2151SOL     OW 1461   3.312   3.082   1.633
 2151SOL    HW1 1462   3.303   3.072   1.732
 2151SOL    HW2 1463   3.408   3.075   1.607
 2152SOL     OW 1464   2.252   3.603   1.560
 2152SOL    HW1 1465   2.161   3.644   1.558
 2152SOL    HW2 1466   2.245   3.509   1.592
 2153SOL     OW 1467   3.536   2.745   1.254
 2153SOL    HW1 1468   3.509   2.656   1.217
 2153SOL    HW2 1469   3.537   2.813   1.181
 2155SOL     OW 1470   2.456   2.607   0.652
 2155SOL    HW1 1471   2.506   2.692   0.633
 2155SOL    HW2 1472   2.368   2.609   0.604
 2156SOL     OW 1473   3.639   2.204   1.642
 2156SOL    HW1 1474   3.622   2.235   1.548
 2156SOL    HW2 1475   3.555   2.167   1.680
 2157SOL     OW 1476   3.592   2.796   1.517
 2157SOL    HW1 1477   3.630   2.887   1.532
 2157SOL    HW2 1478   3.584   2.779   1.418
 2160SOL     OW 1479   2.721   2.818   0.861
 2160SOL    HW1 1480   2.775   2.749   0.909
 2160SOL    HW2 1481   2.689   2.887   0.927
 2163SOL     OW 1482   2.083   3.176   1.844
 2163SOL    HW1 1483   2.018   3.103   1.823
 2163SOL    HW2 1484   2.087   3.190   1.942
 2165SOL     OW 1485   2.534   3.253   1.624
 2165SOL    HW1 1486   2.456   3.203   1.662
 2165SOL    HW2 1487   2.531   3.348   1.655
 2166SOL     OW 1488   3.686   2.054   1.227
 2166SOL    HW1 1489   3.682   1.964   1.271
 2166SOL    HW2 1490   3.689   2.043   1.128
 2169SOL     OW 1491   2.179   2.409   1.280
 2169SOL    HW1 1492   2.217   2.350   1.352
 2169SOL    HW2 1493   2.219   2.383   1.192
 2171SOL     OW 1494   3.286   2.076   1.112
 2171SOL    HW1 1495   3.338   2.011   1.167
 2171SOL    HW2 1496   3.237   2.139   1.173
 2172SOL     OW 1497   2.863   1.896   1.154
 2172SOL    HW1 1498   2.800   1.824   1.123
 2172SOL    HW2 1499   2.956   1.860   1.154
 2174SOL     OW 1500   2.480   3.429   1.284
 2174SOL    HW1 1501   2.475   3.511   1.341
 2174SOL    HW2 1502   2.569   3.426   1.239
 2180SOL     OW 1503   2.092   2.490   1.975
 2180SOL    HW1 1504   1.999   2.488   2.012
 2180SOL    HW2 1505   2.093   2.451   1.883
 2181SOL     OW 1506   2.087   2.137   2.858
 2181SOL    HW1 1507   2.122   2.120   2.950
 2181SOL    HW2 1508   1.999   2.092   2.846
 2182SOL     OW 1509   1.881   2.230   2.509
 2182SOL    HW1 1510   1.799   2.273   2.548
 2182SOL    HW2 1511   1.853   2.157   2.446
 2183SOL     OW 1512   2.431   3.137   3.027
 2183SOL    HW1 1513   2.338   3.130   2.990
 2183SOL    HW2 1514   2.442   3.226   3.071
 2184SOL     OW 1515   3.417   3.373   2.565
 2184SOL    HW1 1516   3.360   3.357   2.646
 2184SOL    HW2 1517   3.358   3.383   2.485
 2185SOL     OW 1518   2.997   2.565   2.579
 2185SOL    HW1 1519   3.054   2.643   2.554
 2185SOL    HW2 1520   2.937   2.591   2.655
 2186SOL     OW 1521   3.617   2.469   2.093
 2186SOL    HW1 1522   3.605   2.456   1.994
 2186SOL    HW2 1523   3.587   2.388   2.142
 2187SOL     OW 1524   2.630   3.006   2.885
 2187SOL    HW1 1525   2.552   3.023   2.945
 2187SOL    HW2 1526   2.664   3.093   2.849
 2188SOL     OW 1527   2.712   2.660   3.685
 2188SOL    HW1 1528   2.708   2.736   3.750
 2188SOL    HW2 1529   2.734   2.696   3.594
 2189SOL     OW 1530   2.547   2.874   2.527
 2189SOL    HW1 1531   2.616   2.858   2.597
 2189SOL    HW2 1532   2.474   2.931   2.565
 2190SOL     OW 1533   2.548   3.023   3.665
 2190SOL    HW1 1534   2.608   3.102   3.679
 2190SOL    HW2 1535   2.462   3.054   3.624
 2191SOL     OW 1536   2.197   3.297   2.923
 2191SOL    HW1 1537   2.119   3.266   2.870
 2191SOL    HW2 1538   2.255   3.355   2.866
 2192SOL     OW 1539   3.322   3.367   3.201
 2192SOL    HW1 1540   3.346   3.461   3.227
 2192SOL    HW2 1541   3.306   3.313   3.283
 2193SOL     OW 1542   2.300   2.254   3.361
 2193SOL    HW1 1543   2.382   2.198   3.370
 2193SOL    HW2 1544   2.219   2.196   3.365
 2194SOL     OW 1545   3.465   2.309   2.599
 2194SOL    HW1 1546   3.391   2.355   2.549
 2194SOL    HW2 1547   3.516   2.377   2.652
 2195SOL     OW 1548   2.093   3.575   2.345
 2195SOL    HW1 1549   2.127   3.652   2.399
 2195SOL    HW2 1550   2.137   3.575   2.255
 2196SOL     OW 1551   2.989   3.203   3.552
 2196SOL    HW1 1552   3.036   3.203   3.640
 2196SOL    HW2 1553   2.941   3.116   3.541
 2197SOL     OW 1554   2.092   3.296   2.400
 2197SOL    HW1 1555   2.066   3.392   2.400
 2197SOL    HW2 1556   2.021   3.242   2.445
 2198SOL     OW 1557   2.102   2.953   2.748
 2198SOL    HW1 1558   2.116   2.869   2.800
 2198SOL    HW2 1559   2.047   3.017   2.803
 2199SOL     OW 1560   2.482   3.648   3.301
 2199SOL    HW1 1561   2.390   3.631   3.336
 2199SOL    HW2 1562   2.510   3.740   3.327
 2200SOL     OW 1563   2.468   2.826   1.985
 2200SOL    HW1 1564   2.475   2.910   1.931
 2200SOL    HW2 1565   2.514   2.839   2.073
 2201SOL     OW 1566   3.456   1.976   3.342
 2201SOL    HW1 1567   3.438   2.043   3.270
 2201SOL    HW2 1568   3.453   2.022   3.431
 2202SOL     OW 1569   1.984   2.505   2.425
 2202SOL    HW1 1570   1.939   2.417   2.442
 2202SOL    HW2 1571   1.983   2.559   2.509
 2203SOL     OW 1572   3.704   3.629   2.221
 2203SOL    HW1 1573   3.758   3.600   2.301
 2203SOL    HW2 1574   3.734   3.719   2.192
 2204SOL     OW 1575   1.889   3.458   1.979
 2204SOL    HW1 1576   1.870   3.362   2.000
 2204SOL    HW2 1577   1.856   3.516   2.054
 2205SOL     OW 1578   3.551   2.784   2.474
 2205SOL    HW1 1579   3.646   2.755   2.482
 2205SOL    HW2 1580   3.543   2.849   2.399
 2206SOL     OW 1581   3.503   2.970   2.294
 2206SOL    HW1 1582   3.589   2.972   2.242
 2206SOL    HW2 1583   3.517   3.017   2.382
 2207SOL     OW 1584   1.975   2.599   3.459
 2207SOL    HW1 1585   2.063   2.586   3.504
 2207SOL    HW2 1586   1.962   2.696   3.437
 2208SOL     OW 1587   2.475   3.227   2.588
 2208SOL    HW1 1588   2.426   3.140   2.597
 2208SOL    HW2 1589   2.452   3.270   2.501
 2209SOL     OW 1590   3.155   3.090   3.285
 2209SOL    HW1 1591   3.192   3.017   3.227
 2209SOL    HW2 1592   3.207   3.095   3.370
 2210SOL     OW 1593   2.671   1.866   2.364
 2210SOL    HW1 1594   2.711   1.957   2.355
 2210SOL    HW2 1595   2.571   1.874   2.370
 2211SOL     OW 1596   2.059   2.838   3.126
 2211SOL    HW1 1597   2.148   2.793   3.112
 2211SOL    HW2 1598   1.986   2.773   3.107
 2212SOL     OW 1599   3.387   2.861   2.052
 2212SOL    HW1 1600   3.324   2.785   2.065
 2212SOL    HW2 1601   3.435   2.879   2.138
 2213SOL     OW 1602   3.049   3.654   3.478
 2213SOL    HW1 1603   3.073   3.714   3.402
 2213SOL    HW2 1604   3.056   3.559   3.448
 2214SOL     OW 1605   2.179   2.113   3.663
 2214SOL    HW1 1606   2.250   2.184   3.669
 2214SOL    HW2 1607   2.091   2.152   3.691
 2215SOL     OW 1608   3.328   3.279   2.815
 2215SOL    HW1 1609   3.269   3.285   2.895
 2215SOL    HW2 1610   3.313   3.191   2.769
 2216SOL     OW 1611   3.529   3.576   2.434
 2216SOL    HW1 1612   3.488   3.553   2.346
 2216SOL    HW2 1613   3.511   3.502   2.499
 2217SOL     OW 1614   2.460   2.591   2.132
 2217SOL    HW1 1615   2.484   2.660   2.064
 2217SOL    HW2 1616   2.382   2.624   2.186
 2218SOL     OW 1617   3.143   2.207   2.806
 2218SOL    HW1 1618   3.057   2.157   2.793
 2218SOL    HW2 1619   3.205   2.153   2.862
 2219SOL     OW 1620   3.438   3.524   2.169
 2219SOL    HW1 1621   3.527   3.570   2.172
 2219SOL    HW2 1622   3.417   3.500   2.074
 2220SOL     OW 1623   2.669   2.467   3.327
 2220SOL    HW1 1624   2.622   2.464   3.416
 2220SOL    HW2 1625   2.618   2.412   3.261
 2221SOL     OW 1626   3.256   2.331   3.536
 2221SOL    HW1 1627   3.236   2.374   3.624
 2221SOL    HW2 1628   3.334   2.269   3.545
 2222SOL     OW 1629   2.835   2.752   3.434
 2222SOL    HW1 1630   2.881   2.668   3.405
 2222SOL    HW2 1631   2.779   2.786   3.359
 2223SOL     OW 1632   2.853   2.272   3.104
 2223SOL    HW1 1633   2.776   2.306   3.158
 2223SOL    HW2 1634   2.819   2.221   3.025
 2224SOL     OW 1635   2.903   2.563   2.291
 2224SOL    HW1 1636   2.929   2.559   2.387
 2224SOL    HW2 1637   2.818   2.512   2.277
 2225SOL     OW 1638   1.938   2.673   2.651
 2225SOL    HW1 1639   2.037   2.661   2.660
 2225SOL    HW2 1640   1.914   2.768   2.672
 2226SOL     OW 1641   1.992   3.683   3.433
 2226SOL    HW1 1642   1.982   3.668   3.532
 2226SOL    HW2 1643   1.906   3.719   3.397
 2227SOL     OW 1644   2.727   2.210   2.057
 2227SOL    HW1 1645   2.786   2.273   2.008
 2227SOL    HW2 1646   2.746   2.116   2.028
 2228SOL     OW 1647   3.581   2.447   3.693
 2228SOL    HW1 1648   3.555   2.536   3.657
 2228SOL    HW2 1649   3.579   2.379   3.620
 2229SOL     OW 1650   3.224   3.006   2.407
 2229SOL    HW1 1651   3.307   2.977   2.359
 2229SOL    HW2 1652   3.175   3.073   2.351
 2230SOL     OW 1653   2.412   2.058   2.747
 2230SOL    HW1 1654   2.407   2.053   2.847
 2230SOL    HW2 1655   2.414   2.154   2.718
 2231SOL     OW 1656   2.870   3.318   2.339
 2231SOL    HW1 1657   2.824   3.390   2.287
 2231SOL    HW2 1658   2.866   3.338   2.437
 2232SOL     OW 1659   2.213   3.663   2.715
 2232SOL    HW1 1660   2.263   3.577   2.721
 2232SOL    HW2 1661   2.278   3.740   2.712
 2233SOL     OW 1662   3.657   2.928   2.735
 2233SOL    HW1 1663   3.595   2.913   2.659
 2233SOL    HW2 1664   3.605   2.939   2.820
 2234SOL     OW 1665   3.089   3.412   3.368
 2234SOL    HW1 1666   3.095   3.335   3.432
 2234SOL    HW2 1667   3.037   3.386   3.288
 2235SOL     OW 1668   2.183   2.805   2.104
 2235SOL    HW1 1669   2.265   2.844   2.062
 2235SOL    HW2 1670   2.156   2.723   2.055
 2236SOL     OW 1671   3.320   2.597   2.590
 2236SOL    HW1 1672   3.315   2.532   2.665
 2236SOL    HW2 1673   3.400   2.656   2.603
 2237SOL     OW 1674   2.323   3.128   3.589
 2237SOL    HW1 1675   2.273   3.129   3.503
 2237SOL    HW2 1676   2.260   3.110   3.665
 2238SOL     OW 1677   2.973   3.638   2.099
 2238SOL    HW1 1678   2.913   3.576   2.149
 2238SOL    HW2 1679   3.004   3.594   2.014
 2239SOL     OW 1680   2.064   2.147   3.360
 2239SOL    HW1 1681   1.984   2.207   3.347
 2239SOL    HW2 1682   2.054   2.098   3.446
 2240SOL     OW 1683   3.494   3.239   1.943
 2240SOL    HW1 1684   3.462   3.333   1.933
 2240SOL    HW2 1685   3.418   3.176   1.931
 2241SOL     OW 1686   2.326   3.605   2.185
 2241SOL    HW1 1687   2.359   3.644   2.271
 2241SOL    HW2 1688   2.402   3.598   2.120
 2242SOL     OW 1689   3.262   1.969   2.288
 2242SOL    HW1 1690   3.238   1.932   2.198
 2242SOL    HW2 1691   3.361   1.985   2.292
 2243SOL     OW 1692   2.111   3.647   3.103
 2243SOL    HW1 1693   2.168   3.582   3.153
 2243SOL    HW2 1694   2.095   3.614   3.010
 2244SOL     OW 1695   2.802   3.560   2.766
 2244SOL    HW1 1696   2.882   3.503   2.787
 2244SOL    HW2 1697   2.753   3.520   2.689
 2245SOL     OW 1698   3.409   2.084   3.591
 2245SOL    HW1 1699   3.404   2.121   3.683
 2245SOL    HW2 1700   3.337   2.015   3.579
 2246SOL     OW 1701   2.476   1.984   1.979
 2246SOL    HW1 1702   2.574   1.962   1.986
 2246SOL    HW2 1703   2.445   1.967   1.886
 2247SOL     OW 1704   2.643   2.126   3.611
 2247SOL    HW1 1705   2.710   2.065   3.654
 2247SOL    HW2 1706   2.570   2.145   3.676
 2248SOL     OW 1707   2.750   3.376   3.057
 2248SOL    HW1 1708   2.727   3.351   2.963
 2248SOL    HW2 1709   2.811   3.307   3.096
 2249SOL     OW 1710   3.213   2.452   3.295
 2249SOL    HW1 1711   3.241   2.409   3.380
 2249SOL    HW2 1712   3.238   2.548   3.296
 2250SOL     OW 1713   2.665   3.264   2.786
 2250SOL    HW1 1714   2.755   3.278   2.744
 2250SOL    HW2 1715   2.594   3.266   2.715
 2251SOL     OW 1716   2.784   2.365   2.761
 2251SOL    HW1 1717   2.759   2.356   2.665
 2251SOL    HW2 1718   2.832   2.283   2.792
 2252SOL     OW 1719   2.401   1.926   2.374
 2252SOL    HW1 1720   2.320   1.927   2.432
 2252SOL    HW2 1721   2.404   2.009   2.319
 2253SOL     OW 1722   3.296   3.050   1.903
 2253SOL    HW1 1723   3.328   2.974   1.960
 2253SOL    HW2 1724   3.204   3.077   1.933
 2254SOL     OW 1725   2.159   1.897   2.033
 2254SOL    HW1 1726   2.208   1.981   2.012
 2254SOL    HW2 1727   2.221   1.832   2.078
 2255SOL     OW 1728   2.797   2.098   2.342
 2255SOL    HW1 1729   2.749   2.139   2.264
 2255SOL    HW2 1730   2.896   2.096   2.323
 2256SOL     OW 1731   2.938   2.545   3.326
 2256SOL    HW1 1732   2.858   2.484   3.329
 2256SOL    HW2 1733   3.019   2.492   3.302
 2257SOL     OW 1734   3.089   3.432   2.655
 2257SOL    HW1 1735   3.110   3.506   2.590
 2257SOL    HW2 1736   3.157   3.432   2.728
 2258SOL     OW 1737   2.321   3.014   2.603
 2258SOL    HW1 1738   2.250   2.987   2.668
 2258SOL    HW2 1739   2.295   2.986   2.510
 2259SOL     OW 1740   3.133   3.659   2.453
 2259SOL    HW1 1741   3.177   3.723   2.389
 2259SOL    HW2 1742   3.083   3.711   2.523
 2260SOL     OW 1743   2.894   2.411   1.878
 2260SOL    HW1 1744   2.853   2.493   1.839
 2260SOL    HW2 1745   2.958   2.437   1.951
 2261SOL     OW 1746   1.940   2.418   3.248
 2261SOL    HW1 1747   2.032   2.417   3.207
 2261SOL    HW2 1748   1.934   2.492   3.315
 2262SOL     OW 1749   2.423   2.084   3.009
 2262SOL    HW1 1750   2.461   2.000   3.046
 2262SOL    HW2 1751   2.335   2.103   3.053
 2263SOL     OW 1752   2.879   1.901   2.615
 2263SOL    HW1 1753   2.807   1.906   2.546
 2263SOL    HW2 1754   2.855   1.832   2.684
 2264SOL     OW 1755   3.291   3.035   2.729
 2264SOL    HW1 1756   3.236   2.951   2.722
 2264SOL    HW2 1757   3.317   3.064   2.637
 2265SOL     OW 1758   3.328   2.452   2.854
 2265SOL    HW1 1759   3.298   2.357   2.861
 2265SOL    HW2 1760   3.401   2.468   2.920
 2266SOL     OW 1761   3.719   2.695   2.239
 2266SOL    HW1 1762   3.761   2.631   2.303
 2266SOL    HW2 1763   3.681   2.644   2.161
 2267SOL     OW 1764   2.350   3.247   2.036
 2267SOL    HW1 1765   2.263   3.232   2.083
 2267SOL    HW2 1766   2.333   3.273   1.941
 2268SOL     OW 1767   3.526   3.142   2.519
 2268SOL    HW1 1768   3.625   3.150   2.533
 2268SOL    HW2 1769   3.481   3.226   2.550
 2269SOL     OW 1770   3.252   2.437   1.940
 2269SOL    HW1 1771   3.198   2.416   2.021
 2269SOL    HW2 1772   3.343   2.396   1.949
 2270SOL     OW 1773   3.616   3.085   3.450
 2270SOL    HW1 1774   3.707   3.046   3.437
 2270SOL    HW2 1775   3.624   3.181   3.474
 2271SOL     OW 1776   2.926   3.209   3.202
 2271SOL    HW1 1777   2.846   3.186   3.257
 2271SOL    HW2 1778   3.009   3.183   3.251
 2273SOL     OW 1779   2.973   3.057   2.962
 2273SOL    HW1 1780   2.933   3.101   3.043
 2273SOL    HW2 1781   2.932   3.094   2.879
 2274SOL     OW 1782   3.500   2.961   2.941
 2274SOL    HW1 1783   3.505   3.042   3.000
 2274SOL    HW2 1784   3.414   2.963   2.890
 2275SOL     OW 1785   2.777   1.951   3.264
 2275SOL    HW1 1786   2.802   1.931   3.169
 2275SOL    HW2 1787   2.849   2.007   3.306
 2276SOL     OW 1788   2.842   2.978   3.581
 2276SOL    HW1 1789   2.743   2.984   3.591
 2276SOL    HW2 1790   2.865   2.898   3.525
 2277SOL     OW 1791   2.567   2.912   2.230
 2277SOL    HW1 1792   2.553   2.919   2.329
 2277SOL    HW2 1793   2.651   2.861   2.212
 2278SOL     OW 1794   2.272   2.675   3.113
 2278SOL    HW1 1795   2.358   2.687   3.163
 2278SOL    HW2 1796   2.230   2.588   3.140
 2279SOL     OW 1797   3.136   2.248   3.124
 2279SOL    HW1 1798   3.157   2.322   3.188
 2279SOL    HW2 1799   3.047   2.265   3.081
 2280SOL     OW 1800   1.926   3.426   3.193
 2280SOL    HW1 1801   1.880   3.508   3.159
 2280SOL    HW2 1802   2.024   3.445   3.202
 2281SOL     OW 1803   2.229   2.962   2.363
 2281SOL    HW1 1804   2.222   3.045   2.307
 2281SOL    HW2 1805   2.233   2.882   2.303
 2282SOL     OW 1806   3.114   3.210   2.250
 2282SOL    HW1 1807   3.164   3.287   2.290
 2282SOL    HW2 1808   3.019   3.212   2.282
 2283SOL     OW 1809   3.134   3.307   3.004
 2283SOL    HW1 1810   3.181   3.320   3.091
 2283SOL    HW2 1811   3.068   3.233   3.013
 2284SOL     OW 1812   3.444   2.501   2.334
 2284SOL    HW1 1813   3.413   2.562   2.407
 2284SOL    HW2 1814   3.494   2.553   2.265
 2285SOL     OW 1815   2.216   3.372   3.191
 2285SOL    HW1 1816   2.195   3.328   3.104
 2285SOL    HW2 1817   2.313   3.398   3.194
 2286SOL     OW 1818   2.264   2.613   3.460
 2286SOL    HW1 1819   2.332   2.668   3.413
 2286SOL    HW2 1820   2.304   2.525   3.487
 2287SOL     OW 1821   3.449   2.641   3.532
 2287SOL    HW1 1822   3.357   2.679   3.527
 2287SOL    HW2 1823   3.509   2.688   3.467
 2288SOL     OW 1824   2.875   1.967   3.632
 2288SOL    HW1 1825   2.881   2.052   3.580
 2288SOL    HW2 1826   2.907   1.891   3.575
 2289SOL     OW 1827   2.366   1.912   3.602
 2289SOL    HW1 1828   2.324   1.855   3.532
 2289SOL    HW2 1829   2.300   1.981   3.634
 2290SOL     OW 1830   2.435   2.732   2.891
 2290SOL    HW1 1831   2.479   2.821   2.882
 2290SOL    HW2 1832   2.372   2.732   2.968
 2291SOL     OW 1833   3.222   2.724   2.907
 2291SOL    HW1 1834   3.147   2.724   2.841
 2291SOL    HW2 1835   3.259   2.632   2.916
 2292SOL     OW 1836   3.071   2.387   2.137
 2292SOL    HW1 1837   3.084   2.303   2.191
 2292SOL    HW2 1838   3.042   2.461   2.197
 2293SOL     OW 1839   2.169   2.075   3.093
 2293SOL    HW1 1840   2.146   2.112   3.183
 2293SOL    HW2 1841   2.139   1.980   3.087
 2294SOL     OW 1842   1.899   3.172   3.144
 2294SOL    HW1 1843   1.952   3.123   3.212
 2294SOL    HW2 1844   1.921   3.270   3.149
 2295SOL     OW 1845   2.594   2.496   2.926
 2295SOL    HW1 1846   2.653   2.470   2.850
 2295SOL    HW2 1847   2.566   2.592   2.915
 2297SOL     OW 1848   2.169   1.925   2.480
 2297SOL    HW1 1849   2.158   2.019   2.513
 2297SOL    HW2 1850   2.164   1.862   2.557
 2298SOL     OW 1851   3.484   2.229   2.236
 2298SOL    HW1 1852   3.486   2.153   2.300
 2298SOL    HW2 1853   3.436   2.306   2.276
 2299SOL     OW 1854   2.885   2.628   2.828
 2299SOL    HW1 1855   2.900   2.649   2.924
 2299SOL    HW2 1856   2.855   2.533   2.819
 2300SOL     OW 1857   2.842   3.435   3.562
 2300SOL    HW1 1858   2.822   3.479   3.474
 2300SOL    HW2 1859   2.881   3.344   3.546
 2302SOL     OW 1860   2.212   2.760   3.666
 2302SOL    HW1 1861   2.288   2.804   3.714
 2302SOL    HW2 1862   2.247   2.713   3.584
 2303SOL     OW 1863   3.402   2.136   1.987
 2303SOL    HW1 1864   3.341   2.061   2.010
 2303SOL    HW2 1865   3.424   2.188   2.070
 2304SOL     OW 1866   3.165   2.700   1.904
 2304SOL    HW1 1867   3.199   2.607   1.919
 2304SOL    HW2 1868   3.183   2.727   1.809
 2305SOL     OW 1869   2.930   3.195   2.711
 2305SOL    HW1 1870   2.937   3.111   2.656
 2305SOL    HW2 1871   2.992   3.264   2.675
 2306SOL     OW 1872   2.181   2.672   2.811
 2306SOL    HW1 1873   2.274   2.708   2.816
 2306SOL    HW2 1874   2.175   2.587   2.863
 2307SOL     OW 1875   2.201   2.371   2.868
 2307SOL    HW1 1876   2.149   2.288   2.851
 2307SOL    HW2 1877   2.278   2.376   2.804
 2308SOL     OW 1878   3.000   2.242   3.540
 2308SOL    HW1 1879   2.955   2.305   3.604
 2308SOL    HW2 1880   3.093   2.273   3.523
 2309SOL     OW 1881   3.022   2.069   3.339
 2309SOL    HW1 1882   3.022   2.133   3.416
 2309SOL    HW2 1883   3.050   2.117   3.256
 2310SOL     OW 1884   1.870   3.188   2.062
 2310SOL    HW1 1885   1.777   3.209   2.031
 2310SOL    HW2 1886   1.880   3.089   2.075
 2311SOL     OW 1887   1.950   3.663   2.789
 2311SOL    HW1 1888   1.908   3.577   2.762
 2311SOL    HW2 1889   2.044   3.666   2.755
 2312SOL     OW 1890   2.366   3.430   2.772
 2312SOL    HW1 1891   2.432   3.504   2.781
 2312SOL    HW2 1892   2.410   3.351   2.730
 2313SOL     OW 1893   2.864   2.658   3.100
 2313SOL    HW1 1894   2.905   2.626   3.186
 2313SOL    HW2 1895   2.768   2.631   3.097
 2314SOL     OW 1896   1.902   2.406   2.976
 2314SOL    HW1 1897   1.987   2.373   2.935
 2314SOL    HW2 1898   1.915   2.421   3.074
 2315SOL     OW 1899   2.051   2.382   3.584
 2315SOL    HW1 1900   2.110   2.342   3.514
 2315SOL    HW2 1901   1.993   2.453   3.543
 2316SOL     OW 1902   3.231   2.812   3.522
 2316SOL    HW1 1903   3.270   2.901   3.542
 2316SOL    HW2 1904   3.241   2.792   3.425
 2317SOL     OW 1905   2.677   2.434   2.187
 2317SOL    HW1 1906   2.684   2.345   2.141
 2317SOL    HW2 1907   2.583   2.468   2.179
 2318SOL     OW 1908   3.519   2.466   3.068
 2318SOL    HW1 1909   3.481   2.397   3.130
 2318SOL    HW2 1910   3.601   2.430   3.024
 2319SOL     OW 1911   2.114   3.426   3.606
 2319SOL    HW1 1912   2.084   3.483   3.682
 2319SOL    HW2 1913   2.107   3.329   3.632
 2320SOL     OW 1914   2.533   2.326   3.131
 2320SOL    HW1 1915   2.499   2.237   3.101
 2320SOL    HW2 1916   2.559   2.380   3.051
 2321SOL     OW 1917   2.792   3.540   3.327
 2321SOL    HW1 1918   2.768   3.522   3.232
 2321SOL    HW2 1919   2.822   3.634   3.337
 2322SOL     OW 1920   2.021   2.999   3.328
 2322SOL    HW1 1921   2.043   2.938   3.404
 2322SOL    HW2 1922   2.031   2.950   3.242
 2323SOL     OW 1923   3.209   2.921   3.096
 2323SOL    HW1 1924   3.233   2.858   3.022
 2323SOL    HW2 1925   3.119   2.961   3.078
 2324SOL     OW 1926   3.164   2.717   2.171
 2324SOL    HW1 1927   3.078   2.686   2.213
 2324SOL    HW2 1928   3.160   2.703   2.072
 2326SOL     OW 1929   3.114   3.593   2.990
 2326SOL    HW1 1930   3.198   3.598   2.936
 2326SOL    HW2 1931   3.091   3.497   3.008
 2327SOL     OW 1932   1.945   3.120   2.884
 2327SOL    HW1 1933   1.940   3.119   2.984
 2327SOL    HW2 1934   1.862   3.079   2.846
 2328SOL     OW 1935   2.550   3.524   3.578
 2328SOL    HW1 1936   2.494   3.605   3.587
 2328SOL    HW2 1937   2.602   3.528   3.492
 2329SOL     OW 1938   3.588   1.997   2.385
 2329SOL    HW1 1939   3.661   1.980   2.318
 2329SOL    HW2 1940   3.557   1.910   2.423
 2330SOL     OW 1941   3.250   3.435   2.339
 2330SOL    HW1 1942   3.317   3.447   2.265
 2330SOL    HW2 1943   3.210   3.524   2.362
 2332SOL     OW 1944   3.142   2.789   2.534
 2332SOL    HW1 1945   3.202   2.708   2.536
 2332SOL    HW2 1946   3.182   2.858   2.474
 2333SOL     OW 1947   2.692   3.135   3.284
 2333SOL    HW1 1948   2.687   3.168   3.379
 2333SOL    HW2 1949   2.606   3.154   3.238
 2334SOL     OW 1950   2.534   3.478   2.016
 2334SOL    HW1 1951   2.543   3.488   1.917
 2334SOL    HW2 1952   2.494   3.389   2.037
 2336SOL     OW 1953   3.703   2.037   2.825
 2336SOL    HW1 1954   3.742   1.952   2.789
 2336SOL    HW2 1955   3.605   2.039   2.806
 2337SOL     OW 1956   2.125   2.188   2.582
 2337SOL    HW1 1957   2.046   2.239   2.548
 2337SOL    HW2 1958   2.116   2.173   2.680
 2338SOL     OW 1959   3.056   3.474   1.893
 2338SOL    HW1 1960   3.062   3.381   1.930
 2338SOL    HW2 1961   2.997   3.474   1.813
 2339SOL     OW 1962   2.684   2.864   3.234
 2339SOL    HW1 1963   2.724   2.863   3.142
 2339SOL    HW2 1964   2.694   2.956   3.274
 2340SOL     OW 1965   2.778   2.772   2.153
 2340SOL    HW1 1966   2.841   2.810   2.085
 2340SOL    HW2 1967   2.818   2.689   2.192
 2341SOL     OW 1968   3.366   3.469   1.906
 2341SOL    HW1 1969   3.274   3.506   1.913
 2341SOL    HW2 1970   3.404   3.489   1.816
 2342SOL     OW 1971   2.234   3.150   3.352
 2342SOL    HW1 1972   2.221   3.243   3.318
 2342SOL    HW2 1973   2.150   3.098   3.339
 2343SOL     OW 1974   3.476   3.154   3.151
 2343SOL    HW1 1975   3.536   3.157   3.231
 2343SOL    HW2 1976   3.401   3.218   3.164
 2344SOL     OW 1977   2.901   2.960   2.558
 2344SOL    HW1 1978   2.831   2.913   2.612
 2344SOL    HW2 1979   2.960   2.892   2.515
 2345SOL     OW 1980   2.876   2.098   2.833
 2345SOL    HW1 1981   2.868   2.062   2.740
 2345SOL    HW2 1982   2.874   2.022   2.898
 2346SOL     OW 1983   2.452   3.349   2.353
 2346SOL    HW1 1984   2.494   3.291   2.283
 2346SOL    HW2 1985   2.408   3.428   2.309
 2347SOL     OW 1986   3.571   2.247   3.243
 2347SOL    HW1 1987   3.644   2.316   3.247
 2347SOL    HW2 1988   3.599   2.172   3.184
 2348SOL     OW 1989   2.117   3.210   2.152
 2348SOL    HW1 1990   2.021   3.211   2.125
 2348SOL    HW2 1991   2.129   3.263   2.236
 2349SOL     OW 1992   1.967   2.875   3.588
 2349SOL    HW1 1993   1.890   2.842   3.642
 2349SOL    HW2 1994   2.052   2.845   3.630
 2350SOL     OW 1995   2.534   2.065   3.351
 2350SOL    HW1 1996   2.624   2.049   3.311
 2350SOL    HW2 1997   2.542   2.070   3.450
 2351SOL     OW 1998   1.937   2.207   1.895
 2351SOL    HW1 1999   1.845   2.179   1.866
 2351SOL    HW2 2000   1.968   2.284   1.839
 2352SOL     OW 2001   3.302   2.718   3.260
 2352SOL    HW1 2002   3.245   2.770   3.197
 2352SOL    HW2 2003   3.398   2.730   3.236
 2353SOL     OW 2004   1.934   2.028   2.180
 2353SOL    HW1 2005   1.917   2.111   2.126
 2353SOL    HW2 2006   2.024   1.991   2.158
 2354SOL     OW 2007   3.045   3.197   1.981
 2354SOL    HW1 2008   2.946   3.186   1.983
 2354SOL    HW2 2009   3.079   3.212   2.074
 2355SOL     OW 2010   2.475   2.704   3.293
 2355SOL    HW1 2011   2.531   2.785   3.276
 2355SOL    HW2 2012   2.534   2.624   3.296
 2356SOL     OW 2013   3.355   3.629   2.821
 2356SOL    HW1 2014   3.388   3.693   2.752
 2356SOL    HW2 2015   3.421   3.623   2.896
 2357SOL     OW 2016   2.578   2.427   3.570
 2357SOL    HW1 2017   2.597   2.492   3.644
 2357SOL    HW2 2018   2.638   2.347   3.579
 2358SOL     OW 2019   3.312   3.082   3.495
 2358SOL    HW1 2020   3.303   3.072   3.594
 2358SOL    HW2 2021   3.408   3.075   3.469
 2359SOL     OW 2022   2.252   3.603   3.422
 2359SOL    HW1 2023   2.161   3.644   3.420
 2359SOL    HW2 2024   2.245   3.509   3.454
 2360SOL     OW 2025   3.536   2.745   3.116
 2360SOL    HW1 2026   3.509   2.656   3.079
 2360SOL    HW2 2027   3.537   2.813   3.043
 2361SOL     OW 2028   3.087   2.187   2.311
 2361SOL    HW1 2029   3.152   2.113   2.300
 2361SOL    HW2 2030   3.107   2.237   2.395
 2362SOL     OW 2031   3.639   2.204   3.504
 2362SOL    HW1 2032   3.622   2.235   3.410
 2362SOL    HW2 2033   3.555   2.167   3.542
 2363SOL     OW 2034   3.592   2.796   3.379
 2363SOL    HW1 2035   3.630   2.887   3.394
 2363SOL    HW2 2036   3.584   2.779   3.280
 2364SOL     OW 2037   2.721   3.236   1.878
 2364SOL    HW1 2038   2.675   3.251   1.966
 2364SOL    HW2 2039   2.765   3.321   1.848
 2365SOL     OW 2040   2.523   3.652   2.815
 2365SOL    HW1 2041   2.477   3.740   2.802
 2365SOL    HW2 2042   2.622   3.664   2.808
 2366SOL     OW 2043   2.721   2.818   2.723
 2366SOL    HW1 2044   2.775   2.749   2.771
 2366SOL    HW2 2045   2.689   2.887   2.789
 2367SOL     OW 2046   2.945   2.846   1.949
 2367SOL    HW1 2047   2.922   2.899   1.867
 2367SOL    HW2 2048   3.026   2.790   1.930
 2368SOL     OW 2049   3.723   3.431   2.713
 2368SOL    HW1 2050   3.652   3.419   2.643
 2368SOL    HW2 2051   3.724   3.352   2.773
 2369SOL     OW 2052   2.083   3.176   3.706
 2369SOL    HW1 2053   2.018   3.103   3.685
 2369SOL    HW2 2054   2.087   3.190   3.804
 2370SOL     OW 2055   1.941   3.102   2.515
 2370SOL    HW1 2056   1.940   3.055   2.603
 2370SOL    HW2 2057   2.023   3.074   2.464
 2371SOL     OW 2058   2.534   3.253   3.486
 2371SOL    HW1 2059   2.456   3.203   3.524
 2371SOL    HW2 2060   2.531   3.348   3.517
 2372SOL     OW 2061   3.686   2.054   3.089
 2372SOL    HW1 2062   3.682   1.964   3.133
 2372SOL    HW2 2063   3.689   2.043   2.990
 2373SOL     OW 2064   3.567   3.349   2.966
 2373SOL    HW1 2065   3.474   3.324   2.939
 2373SOL    HW2 2066   3.593   3.299   3.048
 2374SOL     OW 2067   2.179   2.409   3.142
 2374SOL    HW1 2068   2.217   2.350   3.214
 2374SOL    HW2 2069   2.219   2.383   3.054
 2375SOL     OW 2070   2.674   3.448   2.549
 2375SOL    HW1 2071   2.706   3.458   2.455
 2375SOL    HW2 2072   2.595   3.386   2.551
 2376SOL     OW 2073   3.286   2.076   2.974
 2376SOL    HW1 2074   3.338   2.011   3.029
 2376SOL    HW2 2075   3.237   2.139   3.035
 2377SOL     OW 2076   2.863   1.896   3.016
 2377SOL    HW1 2077   2.800   1.824   2.985
 2377SOL    HW2 2078   2.956   1.860   3.016
 2378SOL     OW 2079   2.632   3.192   2.163
 2378SOL    HW1 2080   2.586   3.105   2.180
 2378SOL    HW2 2081   2.723   3.189   2.204
 2379SOL     OW 2082   2.480   3.429   3.146
 2379SOL    HW1 2083   2.475   3.511   3.203
 2379SOL    HW2 2084   2.569   3.426   3.101
 2380SOL     OW 2085   3.214   1.914   2.030
 2380SOL    HW1 2086   3.249   1.873   1.946
 2380SOL    HW2 2087   3.124   1.876   2.050
 2381SOL     OW 2088   3.162   2.315   2.553
 2381SOL    HW1 2089   3.103   2.395   2.557
 2381SOL    HW2 2090   3.177   2.280   2.646
 2382SOL     OW 2091   3.455   2.083   2.744
 2382SOL    HW1 2092   3.371   2.082   2.798
 2382SOL    HW2 2093   3.457   2.166   2.688
 2383SOL     OW 2094   1.901   2.939   2.162
 2383SOL    HW1 2095   2.000   2.928   2.153
 2383SOL    HW2 2096   1.861   2.853   2.194
 2384SOL     OW 2097   2.737   3.508   2.199
 2384SOL    HW1 2098   2.660   3.473   2.145
 2384SOL    HW2 2099   2.705   3.579   2.261
 2385SOL     OW 2100   2.092   2.490   3.837
 2385SOL    HW1 2101   1.999   2.488   3.874
 2385SOL    HW2 2102   2.093   2.451   3.745
 2398SOL     OW 2103   2.468   2.826   3.847
 2398SOL    HW1 2104   2.475   2.910   3.793
 2398SOL    HW2 2105   2.514   2.839   3.935
 2409SOL     OW 2106   2.460   2.591   3.994
 2409SOL    HW1 2107   2.484   2.660   3.926
 2409SOL    HW2 2108   2.382   2.624   4.048
 2414SOL     OW 2109   2.727   2.210   3.919
 2414SOL    HW1 2110   2.786   2.273   3.870
 2414SOL    HW2 2111   2.746   2.116   3.890
 2420SOL     OW 2112   2.183   2.805   3.966
 2420SOL    HW1 2113   2.265   2.844   3.924
 2420SOL    HW2 2114   2.156   2.723   3.917
 2429SOL     OW 2115   2.476   1.984   3.841
 2429SOL    HW1 2116   2.574   1.962   3.848
 2429SOL    HW2 2117   2.445   1.967   3.748
 2433SOL     OW 2118   3.296   3.050   3.765
 2433SOL    HW1 2119   3.328   2.974   3.822
 2433SOL    HW2 2120   3.204   3.077   3.795
 2434SOL     OW 2121   2.159   1.897   3.895
 2434SOL    HW1 2122   2.208   1.981   3.874
 2434SOL    HW2 2123   2.221   1.832   3.940
 2439SOL     OW 2124   2.894   2.411   3.740
 2439SOL    HW1 2125   2.853   2.493   3.701
 2439SOL    HW2 2126   2.958   2.437   3.813
 2445SOL     OW 2127   2.350   3.247   3.898
 2445SOL    HW1 2128   2.263   3.232   3.945
 2445SOL    HW2 2129   2.333   3.273   3.803
 2447SOL     OW 2130   3.252   2.437   3.802
 2447SOL    HW1 2131   3.198   2.416   3.883
 2447SOL    HW2 2132   3.343   2.396   3.811
 2448SOL     OW 2133   2.389   2.118   4.052
 2448SOL    HW1 2134   2.416   2.059   3.977
 2448SOL    HW2 2135   2.389   2.213   4.021
 2450SOL     OW 2136   2.567   2.912   4.092
 2450SOL    HW1 2137   2.553   2.919   4.191
 2450SOL    HW2 2138   2.651   2.861   4.074
 2456SOL     OW 2139   3.071   2.387   3.999
 2456SOL    HW1 2140   3.084   2.303   4.053
 2456SOL    HW2 2141   3.042   2.461   4.059
 2461SOL     OW 2142   3.402   2.136   3.849
 2461SOL    HW1 2143   3.341   2.061   3.872
 2461SOL    HW2 2144   3.424   2.188   3.932
 2462SOL     OW 2145   3.165   2.700   3.766
 2462SOL    HW1 2146   3.199   2.607   3.781
 2462SOL    HW2 2147   3.183   2.727   3.671
 2466SOL     OW 2148   1.870   3.188   3.924
 2466SOL    HW1 2149   1.777   3.209   3.893
 2466SOL    HW2 2150   1.880   3.089   3.937
 2470SOL     OW 2151   2.677   2.434   4.049
 2470SOL    HW1 2152   2.684   2.345   4.003
 2470SOL    HW2 2153   2.583   2.468   4.041
 2472SOL     OW 2154   2.335   2.362   3.915
 2472SOL    HW1 2155   2.396   2.442   3.919
 2472SOL    HW2 2156   2.240   2.393   3.922
 2483SOL     OW 2157   2.778   2.772   4.015
 2483SOL    HW1 2158   2.841   2.810   3.947
 2483SOL    HW2 2159   2.818   2.689   4.054
 2488SOL     OW 2160   1.937   2.207   3.757
 2488SOL    HW1 2161   1.845   2.179   3.728
 2488SOL    HW2 2162   1.968   2.284   3.701
 2489SOL     OW 2163   1.934   2.028   4.042
 2489SOL    HW1 2164   1.917   2.111   3.988
 2489SOL    HW2 2165   2.024   1.991   4.020
 2490SOL     OW 2166   3.045   3.197   3.843
 2490SOL    HW1 2167   2.946   3.186   3.845
 2490SOL    HW2 2168   3.079   3.212   3.936
 2494SOL     OW 2169   2.721   3.236   3.740
 2494SOL    HW1 2170   2.675   3.251   3.828
 2494SOL    HW2 2171   2.765   3.321   3.710
 2497SOL     OW 2172   2.945   2.846   3.811
 2497SOL    HW1 2173   2.922   2.899   3.729
 2497SOL    HW2 2174   3.026   2.790   3.792
 2504SOL     OW 2175   3.214   1.914   3.892
 2504SOL    HW1 2176   3.249   1.873   3.808
 2504SOL    HW2 2177   3.124   1.876   3.912
 2507SOL     OW 2178   1.901   2.939   4.024
 2507SOL    HW1 2179   2.000   2.928   4.015
 2507SOL    HW2 2180   1.861   2.853   4.056
 2528SOL     OW 2181   2.179   3.975   1.801
 2528SOL    HW1 2182   2.250   4.046   1.807
 2528SOL    HW2 2183   2.091   4.014   1.829
 2546SOL     OW 2184   2.643   3.988   1.749
 2546SOL    HW1 2185   2.710   3.927   1.792
 2546SOL    HW2 2186   2.570   4.007   1.814
 2563SOL     OW 2187   2.777   3.813   1.402
 2563SOL    HW1 2188   2.802   3.793   1.307
 2563SOL    HW2 2189   2.849   3.869   1.444
 2570SOL     OW 2190   2.875   3.829   1.770
 2570SOL    HW1 2191   2.881   3.914   1.718
 2570SOL    HW2 2192   2.907   3.753   1.713
 2571SOL     OW 2193   2.366   3.774   1.740
 2571SOL    HW1 2194   2.324   3.717   1.670
 2571SOL    HW2 2195   2.300   3.843   1.772
 2608SOL     OW 2196   2.534   3.927   1.489
 2608SOL    HW1 2197   2.624   3.911   1.449
 2608SOL    HW2 2198   2.542   3.932   1.588
 2633SOL     OW 2199   2.087   3.999   2.858
 2633SOL    HW1 2200   2.122   3.982   2.950
 2633SOL    HW2 2201   1.999   3.954   2.846
 2634SOL     OW 2202   1.881   4.092   2.509
 2634SOL    HW1 2203   1.799   4.135   2.548
 2634SOL    HW2 2204   1.853   4.019   2.446
 2648SOL     OW 2205   2.671   3.728   2.364
 2648SOL    HW1 2206   2.711   3.819   2.355
 2648SOL    HW2 2207   2.571   3.736   2.370
 2660SOL     OW 2208   2.727   4.072   2.057
 2660SOL    HW1 2209   2.786   4.135   2.008
 2660SOL    HW2 2210   2.746   3.978   2.028
 2662SOL     OW 2211   2.412   3.920   2.747
 2662SOL    HW1 2212   2.407   3.915   2.847
 2662SOL    HW2 2213   2.414   4.016   2.718
 2665SOL     OW 2214   3.262   3.831   2.288
 2665SOL    HW1 2215   3.238   3.794   2.198
 2665SOL    HW2 2216   3.361   3.847   2.292
 2668SOL     OW 2217   2.476   3.846   1.979
 2668SOL    HW1 2218   2.574   3.824   1.986
 2668SOL    HW2 2219   2.445   3.829   1.886
 2672SOL     OW 2220   2.401   3.788   2.374
 2672SOL    HW1 2221   2.320   3.789   2.432
 2672SOL    HW2 2222   2.404   3.871   2.319
 2673SOL     OW 2223   2.159   3.759   2.033
 2673SOL    HW1 2224   2.208   3.843   2.012
 2673SOL    HW2 2225   2.221   3.694   2.078
 2674SOL     OW 2226   2.797   3.960   2.342
 2674SOL    HW1 2227   2.749   4.001   2.264
 2674SOL    HW2 2228   2.896   3.958   2.323
 2678SOL     OW 2229   2.423   3.946   3.009
 2678SOL    HW1 2230   2.461   3.862   3.046
 2678SOL    HW2 2231   2.335   3.965   3.053
 2680SOL     OW 2232   2.879   3.763   2.615
 2680SOL    HW1 2233   2.807   3.768   2.546
 2680SOL    HW2 2234   2.855   3.694   2.684
 2685SOL     OW 2235   2.389   3.980   2.190
 2685SOL    HW1 2236   2.416   3.921   2.115
 2685SOL    HW2 2237   2.389   4.075   2.159
 2687SOL     OW 2238   2.777   3.813   3.264
 2687SOL    HW1 2239   2.802   3.793   3.169
 2687SOL    HW2 2240   2.849   3.869   3.306
 2699SOL     OW 2241   2.169   3.937   3.093
 2699SOL    HW1 2242   2.146   3.974   3.183
 2699SOL    HW2 2243   2.139   3.842   3.087
 2702SOL     OW 2244   2.169   3.787   2.480
 2702SOL    HW1 2245   2.158   3.881   2.513
 2702SOL    HW2 2246   2.164   3.724   2.557
 2726SOL     OW 2247   2.125   4.050   2.582
 2726SOL    HW1 2248   2.046   4.101   2.548
 2726SOL    HW2 2249   2.116   4.035   2.680
 2728SOL     OW 2250   2.876   3.960   2.833
 2728SOL    HW1 2251   2.868   3.924   2.740
 2728SOL    HW2 2252   2.874   3.884   2.898
 2731SOL     OW 2253   2.534   3.927   3.351
 2731SOL    HW1 2254   2.624   3.911   3.311
 2731SOL    HW2 2255   2.542   3.932   3.450
 2734SOL     OW 2256   1.934   3.890   2.180
 2734SOL    HW1 2257   1.917   3.973   2.126
 2734SOL    HW2 2258   2.024   3.853   2.158
 2739SOL     OW 2259   3.087   4.049   2.311
 2739SOL    HW1 2260   3.152   3.975   2.300
 2739SOL    HW2 2261   3.107   4.099   2.395
 2747SOL     OW 2262   2.290   4.148   2.382
 2747SOL    HW1 2263   2.320   4.076   2.320
 2747SOL    HW2 2264   2.251   4.108   2.465
 2750SOL     OW 2265   2.863   3.758   3.016
 2750SOL    HW1 2266   2.800   3.686   2.985
 2750SOL    HW2 2267   2.956   3.722   3.016
 2751SOL     OW 2268   3.214   3.776   2.030
 2751SOL    HW1 2269   3.249   3.735   1.946
 2751SOL    HW2 2270   3.124   3.738   2.050
 2856SOL     OW 2271   3.854   1.821   1.571
 2856SOL    HW1 2272   3.844   1.806   1.670
 2856SOL    HW2 2273   3.768   1.857   1.535
 2922SOL     OW 2274   3.854   1.794   1.851
 2922SOL    HW1 2275   3.813   1.720   1.904
 2922SOL    HW2 2276   3.918   1.845   1.909
 2968SOL     OW 2277   3.955   1.713   2.345
 2968SOL    HW1 2278   3.989   1.790   2.399
 2968SOL    HW2 2279   3.999   1.713   2.255
 2974SOL     OW 2280   3.751   1.596   1.979
 2974SOL    HW1 2281   3.732   1.500   2.000
 2974SOL    HW2 2282   3.718   1.654   2.054
 3035SOL     OW 2283   3.732   1.326   2.062
 3035SOL    HW1 2284   3.639   1.347   2.031
 3035SOL    HW2 2285   3.742   1.227   2.075
 3036SOL     OW 2286   3.812   1.801   2.789
 3036SOL    HW1 2287   3.770   1.715   2.762
 3036SOL    HW2 2288   3.906   1.804   2.755
 3175SOL     OW 2289   3.837   2.599   1.597
 3175SOL    HW1 2290   3.925   2.586   1.642
 3175SOL    HW2 2291   3.824   2.696   1.575
 3179SOL     OW 2292   4.041   2.113   1.801
 3179SOL    HW1 2293   4.112   2.184   1.807
 3179SOL    HW2 2294   3.953   2.152   1.829
 3192SOL     OW 2295   3.926   2.147   1.498
 3192SOL    HW1 2296   3.846   2.207   1.485
 3192SOL    HW2 2297   3.916   2.098   1.584
 3207SOL     OW 2298   3.802   2.418   1.386
 3207SOL    HW1 2299   3.894   2.417   1.345
 3207SOL    HW2 2300   3.796   2.492   1.453
 3240SOL     OW 2301   3.913   2.382   1.722
 3240SOL    HW1 2302   3.972   2.342   1.652
 3240SOL    HW2 2303   3.855   2.453   1.681
 3262SOL     OW 2304   3.829   2.875   1.726
 3262SOL    HW1 2305   3.752   2.842   1.780
 3262SOL    HW2 2306   3.914   2.845   1.768
 3286SOL     OW 2307   3.954   2.490   1.975
 3286SOL    HW1 2308   3.861   2.488   2.012
 3286SOL    HW2 2309   3.955   2.451   1.883
 3287SOL     OW 2310   3.949   2.137   2.858
 3287SOL    HW1 2311   3.984   2.120   2.950
 3287SOL    HW2 2312   3.861   2.092   2.846
 3288SOL     OW 2313   3.743   2.230   2.509
 3288SOL    HW1 2314   3.661   2.273   2.548
 3288SOL    HW2 2315   3.715   2.157   2.446
 3297SOL     OW 2316   3.954   3.296   2.400
 3297SOL    HW1 2317   3.928   3.392   2.400
 3297SOL    HW2 2318   3.883   3.242   2.445
 3298SOL     OW 2319   3.964   2.953   2.748
 3298SOL    HW1 2320   3.978   2.869   2.800
 3298SOL    HW2 2321   3.909   3.017   2.803
 3301SOL     OW 2322   3.846   2.505   2.425
 3301SOL    HW1 2323   3.801   2.417   2.442
 3301SOL    HW2 2324   3.845   2.559   2.509
 3302SOL     OW 2325   3.751   3.458   1.979
 3302SOL    HW1 2326   3.732   3.362   2.000
 3302SOL    HW2 2327   3.718   3.516   2.054
 3303SOL     OW 2328   3.837   2.599   3.459
 3303SOL    HW1 2329   3.925   2.586   3.504
 3303SOL    HW2 2330   3.824   2.696   3.437
 3306SOL     OW 2331   3.921   2.838   3.126
 3306SOL    HW1 2332   4.010   2.793   3.112
 3306SOL    HW2 2333   3.848   2.773   3.107
 3312SOL     OW 2334   3.800   2.673   2.651
 3312SOL    HW1 2335   3.899   2.661   2.660
 3312SOL    HW2 2336   3.776   2.768   2.672
 3318SOL     OW 2337   4.045   2.805   2.104
 3318SOL    HW1 2338   4.127   2.844   2.062
 3318SOL    HW2 2339   4.018   2.723   2.055
 3323SOL     OW 2340   4.106   2.562   2.342
 3323SOL    HW1 2341   4.151   2.472   2.339
 3323SOL    HW2 2342   4.012   2.551   2.375
 3330SOL     OW 2343   4.021   1.897   2.033
 3330SOL    HW1 2344   4.070   1.981   2.012
 3330SOL    HW2 2345   4.083   1.832   2.078
 3335SOL     OW 2346   3.802   2.418   3.248
 3335SOL    HW1 2347   3.894   2.417   3.207
 3335SOL    HW2 2348   3.796   2.492   3.315
 3346SOL     OW 2349   4.091   2.962   2.363
 3346SOL    HW1 2350   4.084   3.045   2.307
 3346SOL    HW2 2351   4.095   2.882   2.303
 3354SOL     OW 2352   4.031   2.075   3.093
 3354SOL    HW1 2353   4.008   2.112   3.183
 3354SOL    HW2 2354   4.001   1.980   3.087
 3355SOL     OW 2355   3.761   3.172   3.144
 3355SOL    HW1 2356   3.814   3.123   3.212
 3355SOL    HW2 2357   3.783   3.270   3.149
 3357SOL     OW 2358   4.031   1.925   2.480
 3357SOL    HW1 2359   4.020   2.019   2.513
 3357SOL    HW2 2360   4.026   1.862   2.557
 3361SOL     OW 2361   4.043   2.672   2.811
 3361SOL    HW1 2362   4.136   2.708   2.816
 3361SOL    HW2 2363   4.037   2.587   2.863
 3362SOL     OW 2364   4.063   2.371   2.868
 3362SOL    HW1 2365   4.011   2.288   2.851
 3362SOL    HW2 2366   4.140   2.376   2.804
 3363SOL     OW 2367   3.732   3.188   2.062
 3363SOL    HW1 2368   3.639   3.209   2.031
 3363SOL    HW2 2369   3.742   3.089   2.075
 3367SOL     OW 2370   3.764   2.406   2.976
 3367SOL    HW1 2371   3.849   2.373   2.935
 3367SOL    HW2 2372   3.777   2.421   3.074
 3375SOL     OW 2373   3.807   3.120   2.884
 3375SOL    HW1 2374   3.802   3.119   2.984
 3375SOL    HW2 2375   3.724   3.079   2.846
 3381SOL     OW 2376   3.987   2.188   2.582
 3381SOL    HW1 2377   3.908   2.239   2.548
 3381SOL    HW2 2378   3.978   2.173   2.680
 3388SOL     OW 2379   3.979   3.210   2.152
 3388SOL    HW1 2380   3.883   3.211   2.125
 3388SOL    HW2 2381   3.991   3.263   2.236
 3391SOL     OW 2382   3.799   2.207   1.895
 3391SOL    HW1 2383   3.707   2.179   1.866
 3391SOL    HW2 2384   3.830   2.284   1.839
 3392SOL     OW 2385   3.796   2.028   2.180
 3392SOL    HW1 2386   3.779   2.111   2.126
 3392SOL    HW2 2387   3.886   1.991   2.158
 3402SOL     OW 2388   3.803   3.102   2.515
 3402SOL    HW1 2389   3.802   3.055   2.603
 3402SOL    HW2 2390   3.885   3.074   2.464
 3404SOL     OW 2391   4.152   2.286   2.382
 3404SOL    HW1 2392   4.182   2.214   2.320
 3404SOL    HW2 2393   4.113   2.246   2.465
 3405SOL     OW 2394   4.041   2.409   3.142
 3405SOL    HW1 2395   4.079   2.350   3.214
 3405SOL    HW2 2396   4.081   2.383   3.054
 3410SOL     OW 2397   3.763   2.939   2.162
 3410SOL    HW1 2398   3.862   2.928   2.153
 3410SOL    HW2 2399   3.723   2.853   2.194
   4.80942   4.80942   4.80942
