mobley_6743808_GMX.gro created by acpype (v: 2023.10.27) on Wed May 20 23:43:51 2026
   19
    1MOL     C1    1   2.186   2.404   2.318
    1MOL     C2    2   2.187   2.416   2.458
    1MOL     C3    3   2.400   2.303   2.466
    1MOL     C4    4   2.293   2.343   2.253
    1MOL     C5    5   2.400   2.292   2.327
    1MOL     C6    6   2.293   2.365   2.531
    1MOL     C7    7   2.290   2.332   2.104
    1MOL     C8    8   2.515   2.225   2.260
    1MOL     O1    9   2.294   2.376   2.667
    1MOL     H1   10   2.102   2.444   2.262
    1MOL     H2   11   2.103   2.464   2.508
    1MOL     H3   12   2.483   2.264   2.524
    1MOL     H4   13   2.308   2.228   2.073
    1MOL     H5   14   2.194   2.364   2.064
    1MOL     H6   15   2.367   2.396   2.059
    1MOL     H7   16   2.591   2.198   2.333
    1MOL     H8   17   2.483   2.135   2.207
    1MOL     H9   18   2.561   2.291   2.185
    1MOL    H10   19   2.226   2.441   2.694
   4.66161   4.66161   4.66161
