mobley_6743808_GMX.gro created by acpype (v: 2023.10.27) on Wed May 20 23:43:51 2026
 2401
    1MOL     C1    1   2.186   2.404   2.318
    1MOL     C2    2   2.187   2.416   2.458
    1MOL     C3    3   2.400   2.303   2.466
    1MOL     C4    4   2.293   2.343   2.253
    1MOL     C5    5   2.400   2.292   2.327
    1MOL     C6    6   2.293   2.365   2.531
    1MOL     C7    7   2.290   2.332   2.104
    1MOL     C8    8   2.515   2.225   2.260
    1MOL     O1    9   2.294   2.376   2.667
    1MOL     H1   10   2.102   2.444   2.262
    1MOL     H2   11   2.103   2.464   2.508
    1MOL     H3   12   2.483   2.264   2.524
    1MOL     H4   13   2.308   2.228   2.073
    1MOL     H5   14   2.194   2.364   2.064
    1MOL     H6   15   2.367   2.396   2.059
    1MOL     H7   16   2.591   2.198   2.333
    1MOL     H8   17   2.483   2.135   2.207
    1MOL     H9   18   2.561   2.291   2.185
    1MOL    H10   19   2.226   2.441   2.694
   14SOL     OW   20   1.460   1.505   1.339
   14SOL    HW1   21   1.484   1.599   1.365
   14SOL    HW2   22   1.444   1.451   1.421
   18SOL     OW   23   1.127   1.341   1.690
   18SOL    HW1   24   1.174   1.341   1.778
   18SOL    HW2   25   1.079   1.254   1.679
   31SOL     OW   26   1.293   1.228   1.423
   31SOL    HW1   27   1.330   1.155   1.365
   31SOL    HW2   28   1.345   1.233   1.508
   35SOL     OW   29   1.187   1.792   1.616
   35SOL    HW1   30   1.211   1.852   1.540
   35SOL    HW2   31   1.194   1.697   1.586
   56SOL     OW   32   1.227   1.550   1.506
   56SOL    HW1   33   1.233   1.473   1.570
   56SOL    HW2   34   1.175   1.524   1.426
   95SOL     OW   35   1.754   1.223   1.588
   95SOL    HW1   36   1.845   1.184   1.575
   95SOL    HW2   37   1.762   1.319   1.612
   97SOL     OW   38   1.592   1.629   1.625
   97SOL    HW1   39   1.619   1.663   1.535
   97SOL    HW2   40   1.671   1.591   1.671
  122SOL     OW   41   1.728   0.935   1.854
  122SOL    HW1   42   1.682   0.928   1.765
  122SOL    HW2   43   1.666   0.979   1.920
  126SOL     OW   44   0.980   1.573   1.700
  126SOL    HW1   45   0.960   1.617   1.612
  126SOL    HW2   46   1.019   1.482   1.684
  127SOL     OW   47   1.859   1.518   1.605
  127SOL    HW1   48   1.873   1.545   1.510
  127SOL    HW2   49   1.942   1.540   1.658
  147SOL     OW   50   0.930   1.678   1.465
  147SOL    HW1   51   0.906   1.660   1.370
  147SOL    HW2   52   0.960   1.772   1.475
  152SOL     OW   53   1.759   1.747   1.154
  152SOL    HW1   54   1.820   1.777   1.081
  152SOL    HW2   55   1.721   1.658   1.132
  153SOL     OW   56   1.252   1.731   1.128
  153SOL    HW1   57   1.336   1.736   1.074
  153SOL    HW2   58   1.229   1.635   1.146
  163SOL     OW   59   1.650   1.720   1.394
  163SOL    HW1   60   1.703   1.730   1.310
  163SOL    HW2   61   1.623   1.810   1.428
  171SOL     OW   62   1.614   1.292   1.289
  171SOL    HW1   63   1.674   1.295   1.369
  171SOL    HW2   64   1.539   1.356   1.302
  184SOL     OW   65   1.493   1.767   0.959
  184SOL    HW1   66   1.526   1.831   0.890
  184SOL    HW2   67   1.559   1.761   1.034
  186SOL     OW   68   1.450   1.220   1.633
  186SOL    HW1   69   1.441   1.210   1.732
  186SOL    HW2   70   1.546   1.213   1.607
  192SOL     OW   71   1.730   0.934   1.517
  192SOL    HW1   72   1.768   1.025   1.532
  192SOL    HW2   73   1.722   0.917   1.418
  197SOL     OW   74   1.861   1.569   0.851
  197SOL    HW1   75   1.790   1.557   0.781
  197SOL    HW2   76   1.862   1.490   0.911
  203SOL     OW   77   1.705   1.487   1.104
  203SOL    HW1   78   1.612   1.462   1.077
  203SOL    HW2   79   1.731   1.437   1.186
  219SOL     OW   80   1.555   1.511   2.565
  219SOL    HW1   81   1.498   1.495   2.646
  219SOL    HW2   82   1.496   1.521   2.485
  227SOL     OW   83   1.460   1.505   3.201
  227SOL    HW1   84   1.484   1.599   3.227
  227SOL    HW2   85   1.444   1.451   3.283
  238SOL     OW   86   1.842   1.767   2.221
  238SOL    HW1   87   1.896   1.738   2.301
  238SOL    HW2   88   1.872   1.857   2.192
  240SOL     OW   89   1.689   0.922   2.474
  240SOL    HW1   90   1.784   0.893   2.482
  240SOL    HW2   91   1.681   0.987   2.399
  241SOL     OW   92   1.641   1.108   2.294
  241SOL    HW1   93   1.727   1.110   2.242
  241SOL    HW2   94   1.655   1.155   2.382
  244SOL     OW   95   1.293   1.228   3.285
  244SOL    HW1   96   1.330   1.155   3.227
  244SOL    HW2   97   1.345   1.233   3.370
  247SOL     OW   98   1.525   0.999   2.052
  247SOL    HW1   99   1.462   0.923   2.065
  247SOL    HW2  100   1.573   1.017   2.138
  248SOL     OW  101   1.187   1.792   3.478
  248SOL    HW1  102   1.211   1.852   3.402
  248SOL    HW2  103   1.194   1.697   3.448
  250SOL     OW  104   1.466   1.417   2.815
  250SOL    HW1  105   1.407   1.423   2.895
  250SOL    HW2  106   1.451   1.329   2.769
  251SOL     OW  107   1.667   1.714   2.434
  251SOL    HW1  108   1.626   1.691   2.346
  251SOL    HW2  109   1.649   1.640   2.499
  254SOL     OW  110   1.576   1.662   2.169
  254SOL    HW1  111   1.665   1.708   2.172
  254SOL    HW2  112   1.555   1.638   2.074
  264SOL     OW  113   1.362   1.144   2.407
  264SOL    HW1  114   1.445   1.115   2.359
  264SOL    HW2  115   1.313   1.211   2.351
  266SOL     OW  116   1.008   1.456   2.339
  266SOL    HW1  117   0.962   1.528   2.287
  266SOL    HW2  118   1.004   1.476   2.437
  268SOL     OW  119   1.795   1.066   2.735
  268SOL    HW1  120   1.733   1.051   2.659
  268SOL    HW2  121   1.743   1.077   2.820
  269SOL     OW  122   1.227   1.550   3.368
  269SOL    HW1  123   1.233   1.473   3.432
  269SOL    HW2  124   1.175   1.524   3.288
  273SOL     OW  125   1.111   1.776   2.099
  273SOL    HW1  126   1.051   1.714   2.149
  273SOL    HW2  127   1.142   1.732   2.014
  275SOL     OW  128   1.632   1.377   1.943
  275SOL    HW1  129   1.600   1.471   1.933
  275SOL    HW2  130   1.556   1.314   1.931
  279SOL     OW  131   0.940   1.698   2.766
  279SOL    HW1  132   1.020   1.641   2.787
  279SOL    HW2  133   0.891   1.658   2.689
  289SOL     OW  134   1.434   1.188   1.903
  289SOL    HW1  135   1.466   1.112   1.960
  289SOL    HW2  136   1.342   1.215   1.933
  293SOL     OW  137   1.227   1.570   2.655
  293SOL    HW1  138   1.248   1.644   2.590
  293SOL    HW2  139   1.295   1.570   2.728
  295SOL     OW  140   1.271   1.797   2.453
  295SOL    HW1  141   1.315   1.861   2.389
  295SOL    HW2  142   1.221   1.849   2.523
  301SOL     OW  143   1.429   1.173   2.729
  301SOL    HW1  144   1.374   1.089   2.722
  301SOL    HW2  145   1.455   1.202   2.637
  303SOL     OW  146   1.857   0.833   2.239
  303SOL    HW1  147   1.899   0.769   2.303
  303SOL    HW2  148   1.819   0.782   2.161
  305SOL     OW  149   1.664   1.280   2.519
  305SOL    HW1  150   1.763   1.288   2.533
  305SOL    HW2  151   1.619   1.364   2.550
  308SOL     OW  152   1.754   1.223   3.450
  308SOL    HW1  153   1.845   1.184   3.437
  308SOL    HW2  154   1.762   1.319   3.474
  310SOL     OW  155   1.592   1.629   3.487
  310SOL    HW1  156   1.619   1.663   3.397
  310SOL    HW2  157   1.671   1.591   3.533
  311SOL     OW  158   1.111   1.195   2.962
  311SOL    HW1  159   1.071   1.239   3.043
  311SOL    HW2  160   1.070   1.232   2.879
  312SOL     OW  161   1.638   1.099   2.941
  312SOL    HW1  162   1.643   1.180   3.000
  312SOL    HW2  163   1.552   1.101   2.890
  321SOL     OW  164   1.252   1.348   2.250
  321SOL    HW1  165   1.302   1.425   2.290
  321SOL    HW2  166   1.157   1.350   2.282
  322SOL     OW  167   1.272   1.445   3.004
  322SOL    HW1  168   1.319   1.458   3.091
  322SOL    HW2  169   1.206   1.371   3.013
  340SOL     OW  170   1.859   1.518   3.467
  340SOL    HW1  171   1.873   1.545   3.372
  340SOL    HW2  172   1.942   1.540   3.520
  344SOL     OW  173   1.068   1.333   2.711
  344SOL    HW1  174   1.075   1.249   2.656
  344SOL    HW2  175   1.130   1.402   2.675
  363SOL     OW  176   1.347   1.059   3.096
  363SOL    HW1  177   1.371   0.996   3.022
  363SOL    HW2  178   1.257   1.099   3.078
  365SOL     OW  179   1.759   1.747   3.016
  365SOL    HW1  180   1.820   1.777   2.943
  365SOL    HW2  181   1.721   1.658   2.994
  366SOL     OW  182   1.252   1.731   2.990
  366SOL    HW1  183   1.336   1.736   2.936
  366SOL    HW2  184   1.229   1.635   3.008
  370SOL     OW  185   1.388   1.573   2.339
  370SOL    HW1  186   1.455   1.585   2.265
  370SOL    HW2  187   1.348   1.662   2.362
  372SOL     OW  188   1.280   0.927   2.534
  372SOL    HW1  189   1.340   0.846   2.536
  372SOL    HW2  190   1.320   0.996   2.474
  375SOL     OW  191   1.650   1.720   3.256
  375SOL    HW1  192   1.703   1.730   3.172
  375SOL    HW2  193   1.623   1.810   3.290
  378SOL     OW  194   1.194   1.612   1.893
  378SOL    HW1  195   1.200   1.519   1.930
  378SOL    HW2  196   1.135   1.612   1.813
  381SOL     OW  197   1.504   1.607   1.906
  381SOL    HW1  198   1.412   1.644   1.913
  381SOL    HW2  199   1.542   1.627   1.816
  383SOL     OW  200   1.614   1.292   3.151
  383SOL    HW1  201   1.674   1.295   3.231
  383SOL    HW2  202   1.539   1.356   3.164
  384SOL     OW  203   1.039   1.098   2.558
  384SOL    HW1  204   0.969   1.051   2.612
  384SOL    HW2  205   1.098   1.030   2.515
  394SOL     OW  206   1.183   1.335   1.981
  394SOL    HW1  207   1.084   1.324   1.983
  394SOL    HW2  208   1.217   1.350   2.074
  396SOL     OW  209   1.493   1.767   2.821
  396SOL    HW1  210   1.526   1.831   2.752
  396SOL    HW2  211   1.559   1.761   2.896
  400SOL     OW  212   1.674   0.883   3.116
  400SOL    HW1  213   1.647   0.794   3.079
  400SOL    HW2  214   1.675   0.951   3.043
  409SOL     OW  215   1.861   1.569   2.713
  409SOL    HW1  216   1.790   1.557   2.643
  409SOL    HW2  217   1.862   1.490   2.773
  415SOL     OW  218   1.705   1.487   2.966
  415SOL    HW1  219   1.612   1.462   2.939
  415SOL    HW2  220   1.731   1.437   3.048
  417SOL     OW  221   0.812   1.586   2.549
  417SOL    HW1  222   0.844   1.596   2.455
  417SOL    HW2  223   0.733   1.524   2.551
  426SOL     OW  224   0.875   1.646   2.199
  426SOL    HW1  225   0.798   1.611   2.145
  426SOL    HW2  226   0.843   1.717   2.261
  535SOL     OW  227   0.850   2.660   1.823
  535SOL    HW1  228   0.846   2.736   1.888
  535SOL    HW2  229   0.872   2.696   1.732
  539SOL     OW  230   1.460   3.367   1.339
  539SOL    HW1  231   1.484   3.461   1.365
  539SOL    HW2  232   1.444   3.313   1.421
  541SOL     OW  233   1.603   2.309   0.737
  541SOL    HW1  234   1.529   2.355   0.687
  541SOL    HW2  235   1.654   2.377   0.790
  543SOL     OW  236   1.127   3.203   1.690
  543SOL    HW1  237   1.174   3.203   1.778
  543SOL    HW2  238   1.079   3.116   1.679
  548SOL     OW  239   1.594   1.976   1.480
  548SOL    HW1  240   1.576   2.043   1.408
  548SOL    HW2  241   1.591   2.022   1.569
  556SOL     OW  242   1.293   3.090   1.423
  556SOL    HW1  243   1.330   3.017   1.365
  556SOL    HW2  244   1.345   3.095   1.508
  565SOL     OW  245   1.281   2.207   0.944
  565SOL    HW1  246   1.195   2.157   0.931
  565SOL    HW2  247   1.343   2.153   1.000
  567SOL     OW  248   0.807   2.467   1.465
  567SOL    HW1  249   0.760   2.464   1.554
  567SOL    HW2  250   0.756   2.412   1.399
  568SOL     OW  251   1.394   2.331   1.674
  568SOL    HW1  252   1.374   2.374   1.762
  568SOL    HW2  253   1.472   2.269   1.683
  569SOL     OW  254   0.973   2.752   1.572
  569SOL    HW1  255   1.019   2.668   1.543
  569SOL    HW2  256   0.917   2.786   1.497
  570SOL     OW  257   0.991   2.272   1.242
  570SOL    HW1  258   0.914   2.306   1.296
  570SOL    HW2  259   0.957   2.221   1.163
  575SOL     OW  260   1.719   2.447   1.831
  575SOL    HW1  261   1.693   2.536   1.795
  575SOL    HW2  262   1.717   2.379   1.758
  580SOL     OW  263   1.795   2.928   0.873
  580SOL    HW1  264   1.733   2.913   0.797
  580SOL    HW2  265   1.743   2.939   0.958
  581SOL     OW  266   1.227   3.412   1.506
  581SOL    HW1  267   1.233   3.335   1.570
  581SOL    HW2  268   1.175   3.386   1.426
  593SOL     OW  269   1.547   2.084   1.729
  593SOL    HW1  270   1.542   2.121   1.821
  593SOL    HW2  271   1.475   2.015   1.717
  594SOL     OW  272   0.781   2.126   1.749
  594SOL    HW1  273   0.848   2.065   1.792
  594SOL    HW2  274   0.708   2.145   1.814
  596SOL     OW  275   1.351   2.452   1.433
  596SOL    HW1  276   1.379   2.409   1.518
  596SOL    HW2  277   1.376   2.548   1.434
  603SOL     OW  278   1.076   2.545   1.464
  603SOL    HW1  279   0.996   2.484   1.467
  603SOL    HW2  280   1.157   2.492   1.440
  613SOL     OW  281   1.466   2.452   0.992
  613SOL    HW1  282   1.436   2.357   0.999
  613SOL    HW2  283   1.539   2.468   1.058
  619SOL     OW  284   1.754   3.085   1.588
  619SOL    HW1  285   1.845   3.046   1.575
  619SOL    HW2  286   1.762   3.181   1.612
  621SOL     OW  287   1.592   3.491   1.625
  621SOL    HW1  288   1.619   3.525   1.535
  621SOL    HW2  289   1.671   3.453   1.671
  623SOL     OW  290   1.638   2.961   1.079
  623SOL    HW1  291   1.643   3.042   1.138
  623SOL    HW2  292   1.552   2.963   1.028
  624SOL     OW  293   0.915   1.951   1.402
  624SOL    HW1  294   0.940   1.931   1.307
  624SOL    HW2  295   0.987   2.007   1.444
  625SOL     OW  296   0.980   2.978   1.719
  625SOL    HW1  297   0.881   2.984   1.729
  625SOL    HW2  298   1.003   2.898   1.663
  628SOL     OW  299   1.274   2.248   1.262
  628SOL    HW1  300   1.295   2.322   1.326
  628SOL    HW2  301   1.185   2.265   1.219
  637SOL     OW  302   1.587   2.641   1.670
  637SOL    HW1  303   1.495   2.679   1.665
  637SOL    HW2  304   1.647   2.688   1.605
  638SOL     OW  305   1.013   1.967   1.770
  638SOL    HW1  306   1.019   2.052   1.718
  638SOL    HW2  307   1.045   1.891   1.713
  641SOL     OW  308   1.360   2.724   1.045
  641SOL    HW1  309   1.285   2.724   0.979
  641SOL    HW2  310   1.397   2.632   1.054
  646SOL     OW  311   1.728   2.797   1.854
  646SOL    HW1  312   1.682   2.790   1.765
  646SOL    HW2  313   1.666   2.841   1.920
  651SOL     OW  314   1.859   3.380   1.605
  651SOL    HW1  315   1.873   3.407   1.510
  651SOL    HW2  316   1.942   3.402   1.658
  658SOL     OW  317   1.138   2.242   1.678
  658SOL    HW1  318   1.093   2.305   1.742
  658SOL    HW2  319   1.231   2.273   1.661
  659SOL     OW  320   1.160   2.069   1.477
  659SOL    HW1  321   1.160   2.133   1.554
  659SOL    HW2  322   1.188   2.117   1.394
  663SOL     OW  323   1.002   2.658   1.238
  663SOL    HW1  324   1.043   2.626   1.324
  663SOL    HW2  325   0.906   2.631   1.235
  666SOL     OW  326   1.369   2.812   1.660
  666SOL    HW1  327   1.408   2.901   1.680
  666SOL    HW2  328   1.379   2.792   1.563
  668SOL     OW  329   1.657   2.466   1.206
  668SOL    HW1  330   1.619   2.397   1.268
  668SOL    HW2  331   1.739   2.430   1.162
  674SOL     OW  332   1.347   2.921   1.234
  674SOL    HW1  333   1.371   2.858   1.160
  674SOL    HW2  334   1.257   2.961   1.216
  687SOL     OW  335   1.650   3.582   1.394
  687SOL    HW1  336   1.703   3.592   1.310
  687SOL    HW2  337   1.623   3.672   1.428
  688SOL     OW  338   1.841   2.037   0.963
  688SOL    HW1  339   1.880   1.952   0.927
  688SOL    HW2  340   1.743   2.039   0.944
  695SOL     OW  341   1.614   3.154   1.289
  695SOL    HW1  342   1.674   3.157   1.369
  695SOL    HW2  343   1.539   3.218   1.302
  699SOL     OW  344   1.709   2.247   1.381
  699SOL    HW1  345   1.782   2.316   1.385
  699SOL    HW2  346   1.737   2.172   1.322
  704SOL     OW  347   1.440   2.718   1.398
  704SOL    HW1  348   1.383   2.770   1.335
  704SOL    HW2  349   1.536   2.730   1.374
  709SOL     OW  350   0.716   2.427   1.708
  709SOL    HW1  351   0.735   2.492   1.782
  709SOL    HW2  352   0.776   2.347   1.717
  710SOL     OW  353   1.450   3.082   1.633
  710SOL    HW1  354   1.441   3.072   1.732
  710SOL    HW2  355   1.546   3.075   1.607
  712SOL     OW  356   1.674   2.745   1.254
  712SOL    HW1  357   1.647   2.656   1.217
  712SOL    HW2  358   1.675   2.813   1.181
  715SOL     OW  359   1.777   2.204   1.642
  715SOL    HW1  360   1.760   2.235   1.548
  715SOL    HW2  361   1.693   2.167   1.680
  716SOL     OW  362   1.730   2.796   1.517
  716SOL    HW1  363   1.768   2.887   1.532
  716SOL    HW2  364   1.722   2.779   1.418
  725SOL     OW  365   1.824   2.054   1.227
  725SOL    HW1  366   1.820   1.964   1.271
  725SOL    HW2  367   1.827   2.043   1.128
  727SOL     OW  368   1.705   3.349   1.104
  727SOL    HW1  369   1.612   3.324   1.077
  727SOL    HW2  370   1.731   3.299   1.186
  730SOL     OW  371   1.424   2.076   1.112
  730SOL    HW1  372   1.476   2.011   1.167
  730SOL    HW2  373   1.375   2.139   1.173
  736SOL     OW  374   1.593   2.083   0.882
  736SOL    HW1  375   1.509   2.082   0.936
  736SOL    HW2  376   1.595   2.166   0.826
  743SOL     OW  377   1.555   3.373   2.565
  743SOL    HW1  378   1.498   3.357   2.646
  743SOL    HW2  379   1.496   3.383   2.485
  744SOL     OW  380   1.135   2.565   2.579
  744SOL    HW1  381   1.192   2.643   2.554
  744SOL    HW2  382   1.075   2.591   2.655
  745SOL     OW  383   1.755   2.469   2.093
  745SOL    HW1  384   1.743   2.456   1.994
  745SOL    HW2  385   1.725   2.388   2.142
  746SOL     OW  386   0.768   3.006   2.885
  746SOL    HW1  387   0.690   3.023   2.945
  746SOL    HW2  388   0.802   3.093   2.849
  748SOL     OW  389   0.685   2.874   2.527
  748SOL    HW1  390   0.754   2.858   2.597
  748SOL    HW2  391   0.612   2.931   2.565
  751SOL     OW  392   1.460   3.367   3.201
  751SOL    HW1  393   1.484   3.461   3.227
  751SOL    HW2  394   1.444   3.313   3.283
  753SOL     OW  395   1.603   2.309   2.599
  753SOL    HW1  396   1.529   2.355   2.549
  753SOL    HW2  397   1.654   2.377   2.652
  760SOL     OW  398   1.594   1.976   3.342
  760SOL    HW1  399   1.576   2.043   3.270
  760SOL    HW2  400   1.591   2.022   3.431
  762SOL     OW  401   1.842   3.629   2.221
  762SOL    HW1  402   1.896   3.600   2.301
  762SOL    HW2  403   1.872   3.719   2.192
  764SOL     OW  404   1.689   2.784   2.474
  764SOL    HW1  405   1.784   2.755   2.482
  764SOL    HW2  406   1.681   2.849   2.399
  765SOL     OW  407   1.641   2.970   2.294
  765SOL    HW1  408   1.727   2.972   2.242
  765SOL    HW2  409   1.655   3.017   2.382
  768SOL     OW  410   1.293   3.090   3.285
  768SOL    HW1  411   1.330   3.017   3.227
  768SOL    HW2  412   1.345   3.095   3.370
  769SOL     OW  413   0.809   1.866   2.364
  769SOL    HW1  414   0.849   1.957   2.355
  769SOL    HW2  415   0.709   1.874   2.370
  771SOL     OW  416   1.525   2.861   2.052
  771SOL    HW1  417   1.462   2.785   2.065
  771SOL    HW2  418   1.573   2.879   2.138
  774SOL     OW  419   1.466   3.279   2.815
  774SOL    HW1  420   1.407   3.285   2.895
  774SOL    HW2  421   1.451   3.191   2.769
  775SOL     OW  422   1.667   3.576   2.434
  775SOL    HW1  423   1.626   3.553   2.346
  775SOL    HW2  424   1.649   3.502   2.499
  776SOL     OW  425   0.598   2.591   2.132
  776SOL    HW1  426   0.622   2.660   2.064
  776SOL    HW2  427   0.520   2.624   2.186
  777SOL     OW  428   1.281   2.207   2.806
  777SOL    HW1  429   1.195   2.157   2.793
  777SOL    HW2  430   1.343   2.153   2.862
  778SOL     OW  431   1.576   3.524   2.169
  778SOL    HW1  432   1.665   3.570   2.172
  778SOL    HW2  433   1.555   3.500   2.074
  780SOL     OW  434   1.394   2.331   3.536
  780SOL    HW1  435   1.374   2.374   3.624
  780SOL    HW2  436   1.472   2.269   3.545
  781SOL     OW  437   0.973   2.752   3.434
  781SOL    HW1  438   1.019   2.668   3.405
  781SOL    HW2  439   0.917   2.786   3.359
  782SOL     OW  440   0.991   2.272   3.104
  782SOL    HW1  441   0.914   2.306   3.158
  782SOL    HW2  442   0.957   2.221   3.025
  783SOL     OW  443   1.041   2.563   2.291
  783SOL    HW1  444   1.067   2.559   2.387
  783SOL    HW2  445   0.956   2.512   2.277
  786SOL     OW  446   0.865   2.210   2.057
  786SOL    HW1  447   0.924   2.273   2.008
  786SOL    HW2  448   0.884   2.116   2.028
  787SOL     OW  449   1.719   2.447   3.693
  787SOL    HW1  450   1.693   2.536   3.657
  787SOL    HW2  451   1.717   2.379   3.620
  788SOL     OW  452   1.362   3.006   2.407
  788SOL    HW1  453   1.445   2.977   2.359
  788SOL    HW2  454   1.313   3.073   2.351
  790SOL     OW  455   1.008   3.318   2.339
  790SOL    HW1  456   0.962   3.390   2.287
  790SOL    HW2  457   1.004   3.338   2.437
  792SOL     OW  458   1.795   2.928   2.735
  792SOL    HW1  459   1.733   2.913   2.659
  792SOL    HW2  460   1.743   2.939   2.820
  795SOL     OW  461   1.458   2.597   2.590
  795SOL    HW1  462   1.453   2.532   2.665
  795SOL    HW2  463   1.538   2.656   2.603
  799SOL     OW  464   1.632   3.239   1.943
  799SOL    HW1  465   1.600   3.333   1.933
  799SOL    HW2  466   1.556   3.176   1.931
  801SOL     OW  467   1.400   1.969   2.288
  801SOL    HW1  468   1.376   1.932   2.198
  801SOL    HW2  469   1.499   1.985   2.292
  805SOL     OW  470   1.547   2.084   3.591
  805SOL    HW1  471   1.542   2.121   3.683
  805SOL    HW2  472   1.475   2.015   3.579
  806SOL     OW  473   0.614   1.984   1.979
  806SOL    HW1  474   0.712   1.962   1.986
  806SOL    HW2  475   0.583   1.967   1.886
  809SOL     OW  476   1.351   2.452   3.295
  809SOL    HW1  477   1.379   2.409   3.380
  809SOL    HW2  478   1.376   2.548   3.296
  811SOL     OW  479   0.922   2.365   2.761
  811SOL    HW1  480   0.897   2.356   2.665
  811SOL    HW2  481   0.970   2.283   2.792
  813SOL     OW  482   1.434   3.050   1.903
  813SOL    HW1  483   1.466   2.974   1.960
  813SOL    HW2  484   1.342   3.077   1.933
  815SOL     OW  485   0.935   2.098   2.342
  815SOL    HW1  486   0.887   2.139   2.264
  815SOL    HW2  487   1.034   2.096   2.323
  816SOL     OW  488   1.076   2.545   3.326
  816SOL    HW1  489   0.996   2.484   3.329
  816SOL    HW2  490   1.157   2.492   3.302
  817SOL     OW  491   1.227   3.432   2.655
  817SOL    HW1  492   1.248   3.506   2.590
  817SOL    HW2  493   1.295   3.432   2.728
  819SOL     OW  494   1.271   3.659   2.453
  819SOL    HW1  495   1.315   3.723   2.389
  819SOL    HW2  496   1.221   3.711   2.523
  820SOL     OW  497   1.032   2.411   1.878
  820SOL    HW1  498   0.991   2.493   1.839
  820SOL    HW2  499   1.096   2.437   1.951
  823SOL     OW  500   0.866   2.316   2.504
  823SOL    HW1  501   0.834   2.388   2.442
  823SOL    HW2  502   0.890   2.235   2.451
  824SOL     OW  503   1.017   1.901   2.615
  824SOL    HW1  504   0.945   1.906   2.546
  824SOL    HW2  505   0.993   1.832   2.684
  825SOL     OW  506   1.429   3.035   2.729
  825SOL    HW1  507   1.374   2.951   2.722
  825SOL    HW2  508   1.455   3.064   2.637
  826SOL     OW  509   1.466   2.452   2.854
  826SOL    HW1  510   1.436   2.357   2.861
  826SOL    HW2  511   1.539   2.468   2.920
  827SOL     OW  512   1.857   2.695   2.239
  827SOL    HW1  513   1.899   2.631   2.303
  827SOL    HW2  514   1.819   2.644   2.161
  829SOL     OW  515   1.664   3.142   2.519
  829SOL    HW1  516   1.763   3.150   2.533
  829SOL    HW2  517   1.619   3.226   2.550
  830SOL     OW  518   1.390   2.437   1.940
  830SOL    HW1  519   1.336   2.416   2.021
  830SOL    HW2  520   1.481   2.396   1.949
  832SOL     OW  521   1.754   3.085   3.450
  832SOL    HW1  522   1.845   3.046   3.437
  832SOL    HW2  523   1.762   3.181   3.474
  833SOL     OW  524   1.064   3.209   3.202
  833SOL    HW1  525   0.984   3.186   3.257
  833SOL    HW2  526   1.147   3.183   3.251
  834SOL     OW  527   1.592   3.491   3.487
  834SOL    HW1  528   1.619   3.525   3.397
  834SOL    HW2  529   1.671   3.453   3.533
  835SOL     OW  530   1.111   3.057   2.962
  835SOL    HW1  531   1.071   3.101   3.043
  835SOL    HW2  532   1.070   3.094   2.879
  836SOL     OW  533   1.638   2.961   2.941
  836SOL    HW1  534   1.643   3.042   3.000
  836SOL    HW2  535   1.552   2.963   2.890
  837SOL     OW  536   0.915   1.951   3.264
  837SOL    HW1  537   0.940   1.931   3.169
  837SOL    HW2  538   0.987   2.007   3.306
  839SOL     OW  539   0.705   2.912   2.230
  839SOL    HW1  540   0.691   2.919   2.329
  839SOL    HW2  541   0.789   2.861   2.212
  841SOL     OW  542   1.274   2.248   3.124
  841SOL    HW1  543   1.295   2.322   3.188
  841SOL    HW2  544   1.185   2.265   3.081
  845SOL     OW  545   1.252   3.210   2.250
  845SOL    HW1  546   1.302   3.287   2.290
  845SOL    HW2  547   1.157   3.212   2.282
  846SOL     OW  548   1.272   3.307   3.004
  846SOL    HW1  549   1.319   3.320   3.091
  846SOL    HW2  550   1.206   3.233   3.013
  847SOL     OW  551   1.582   2.501   2.334
  847SOL    HW1  552   1.551   2.562   2.407
  847SOL    HW2  553   1.632   2.553   2.265
  850SOL     OW  554   1.587   2.641   3.532
  850SOL    HW1  555   1.495   2.679   3.527
  850SOL    HW2  556   1.647   2.688   3.467
  854SOL     OW  557   1.360   2.724   2.907
  854SOL    HW1  558   1.285   2.724   2.841
  854SOL    HW2  559   1.397   2.632   2.916
  855SOL     OW  560   1.209   2.387   2.137
  855SOL    HW1  561   1.222   2.303   2.191
  855SOL    HW2  562   1.180   2.461   2.197
  858SOL     OW  563   0.732   2.496   2.926
  858SOL    HW1  564   0.791   2.470   2.850
  858SOL    HW2  565   0.704   2.592   2.915
  859SOL     OW  566   1.728   2.797   3.716
  859SOL    HW1  567   1.682   2.790   3.627
  859SOL    HW2  568   1.666   2.841   3.782
  861SOL     OW  569   1.622   2.229   2.236
  861SOL    HW1  570   1.624   2.153   2.300
  861SOL    HW2  571   1.574   2.306   2.276
  862SOL     OW  572   1.023   2.628   2.828
  862SOL    HW1  573   1.038   2.649   2.924
  862SOL    HW2  574   0.993   2.533   2.819
  864SOL     OW  575   1.859   3.380   3.467
  864SOL    HW1  576   1.873   3.407   3.372
  864SOL    HW2  577   1.942   3.402   3.520
  866SOL     OW  578   1.540   2.136   1.987
  866SOL    HW1  579   1.479   2.061   2.010
  866SOL    HW2  580   1.562   2.188   2.070
  867SOL     OW  581   1.303   2.700   1.904
  867SOL    HW1  582   1.337   2.607   1.919
  867SOL    HW2  583   1.321   2.727   1.809
  868SOL     OW  584   1.068   3.195   2.711
  868SOL    HW1  585   1.075   3.111   2.656
  868SOL    HW2  586   1.130   3.264   2.675
  871SOL     OW  587   1.138   2.242   3.540
  871SOL    HW1  588   1.093   2.305   3.604
  871SOL    HW2  589   1.231   2.273   3.523
  872SOL     OW  590   1.160   2.069   3.339
  872SOL    HW1  591   1.160   2.133   3.416
  872SOL    HW2  592   1.188   2.117   3.256
  876SOL     OW  593   1.002   2.658   3.100
  876SOL    HW1  594   1.043   2.626   3.186
  876SOL    HW2  595   0.906   2.631   3.097
  879SOL     OW  596   1.369   2.812   3.522
  879SOL    HW1  597   1.408   2.901   3.542
  879SOL    HW2  598   1.379   2.792   3.425
  880SOL     OW  599   0.815   2.434   2.187
  880SOL    HW1  600   0.822   2.345   2.141
  880SOL    HW2  601   0.721   2.468   2.179
  881SOL     OW  602   1.657   2.466   3.068
  881SOL    HW1  603   1.619   2.397   3.130
  881SOL    HW2  604   1.739   2.430   3.024
  887SOL     OW  605   1.347   2.921   3.096
  887SOL    HW1  606   1.371   2.858   3.022
  887SOL    HW2  607   1.257   2.961   3.078
  888SOL     OW  608   1.302   2.717   2.171
  888SOL    HW1  609   1.216   2.686   2.213
  888SOL    HW2  610   1.298   2.703   2.072
  889SOL     OW  611   1.759   3.609   3.016
  889SOL    HW1  612   1.820   3.639   2.943
  889SOL    HW2  613   1.721   3.520   2.994
  890SOL     OW  614   1.252   3.593   2.990
  890SOL    HW1  615   1.336   3.598   2.936
  890SOL    HW2  616   1.229   3.497   3.008
  893SOL     OW  617   1.726   1.997   2.385
  893SOL    HW1  618   1.799   1.980   2.318
  893SOL    HW2  619   1.695   1.910   2.423
  894SOL     OW  620   1.388   3.435   2.339
  894SOL    HW1  621   1.455   3.447   2.265
  894SOL    HW2  622   1.348   3.524   2.362
  896SOL     OW  623   1.280   2.789   2.534
  896SOL    HW1  624   1.340   2.708   2.536
  896SOL    HW2  625   1.320   2.858   2.474
  899SOL     OW  626   1.650   3.582   3.256
  899SOL    HW1  627   1.703   3.592   3.172
  899SOL    HW2  628   1.623   3.672   3.290
  900SOL     OW  629   1.841   2.037   2.825
  900SOL    HW1  630   1.880   1.952   2.789
  900SOL    HW2  631   1.743   2.039   2.806
  902SOL     OW  632   1.194   3.474   1.893
  902SOL    HW1  633   1.200   3.381   1.930
  902SOL    HW2  634   1.135   3.474   1.813
  904SOL     OW  635   0.916   2.772   2.153
  904SOL    HW1  636   0.979   2.810   2.085
  904SOL    HW2  637   0.956   2.689   2.192
  905SOL     OW  638   1.504   3.469   1.906
  905SOL    HW1  639   1.412   3.506   1.913
  905SOL    HW2  640   1.542   3.489   1.816
  907SOL     OW  641   1.614   3.154   3.151
  907SOL    HW1  642   1.674   3.157   3.231
  907SOL    HW2  643   1.539   3.218   3.164
  908SOL     OW  644   1.039   2.960   2.558
  908SOL    HW1  645   0.969   2.913   2.612
  908SOL    HW2  646   1.098   2.892   2.515
  909SOL     OW  647   1.014   2.098   2.833
  909SOL    HW1  648   1.006   2.062   2.740
  909SOL    HW2  649   1.012   2.022   2.898
  911SOL     OW  650   1.709   2.247   3.243
  911SOL    HW1  651   1.782   2.316   3.247
  911SOL    HW2  652   1.737   2.172   3.184
  916SOL     OW  653   1.440   2.718   3.260
  916SOL    HW1  654   1.383   2.770   3.197
  916SOL    HW2  655   1.536   2.730   3.236
  918SOL     OW  656   1.183   3.197   1.981
  918SOL    HW1  657   1.084   3.186   1.983
  918SOL    HW2  658   1.217   3.212   2.074
  920SOL     OW  659   1.493   3.629   2.821
  920SOL    HW1  660   1.526   3.693   2.752
  920SOL    HW2  661   1.559   3.623   2.896
  922SOL     OW  662   1.450   3.082   3.495
  922SOL    HW1  663   1.441   3.072   3.594
  922SOL    HW2  664   1.546   3.075   3.469
  924SOL     OW  665   1.674   2.745   3.116
  924SOL    HW1  666   1.647   2.656   3.079
  924SOL    HW2  667   1.675   2.813   3.043
  925SOL     OW  668   1.225   2.187   2.311
  925SOL    HW1  669   1.290   2.113   2.300
  925SOL    HW2  670   1.245   2.237   2.395
  926SOL     OW  671   0.594   2.607   2.514
  926SOL    HW1  672   0.644   2.692   2.495
  926SOL    HW2  673   0.506   2.609   2.466
  927SOL     OW  674   1.777   2.204   3.504
  927SOL    HW1  675   1.760   2.235   3.410
  927SOL    HW2  676   1.693   2.167   3.542
  928SOL     OW  677   1.730   2.796   3.379
  928SOL    HW1  678   1.768   2.887   3.394
  928SOL    HW2  679   1.722   2.779   3.280
  929SOL     OW  680   0.859   3.236   1.878
  929SOL    HW1  681   0.813   3.251   1.966
  929SOL    HW2  682   0.903   3.321   1.848
  931SOL     OW  683   0.859   2.818   2.723
  931SOL    HW1  684   0.913   2.749   2.771
  931SOL    HW2  685   0.827   2.887   2.789
  932SOL     OW  686   1.083   2.846   1.949
  932SOL    HW1  687   1.060   2.899   1.867
  932SOL    HW2  688   1.164   2.790   1.930
  933SOL     OW  689   1.861   3.431   2.713
  933SOL    HW1  690   1.790   3.419   2.643
  933SOL    HW2  691   1.862   3.352   2.773
  937SOL     OW  692   1.824   2.054   3.089
  937SOL    HW1  693   1.820   1.964   3.133
  937SOL    HW2  694   1.827   2.043   2.990
  939SOL     OW  695   1.705   3.349   2.966
  939SOL    HW1  696   1.612   3.324   2.939
  939SOL    HW2  697   1.731   3.299   3.048
  942SOL     OW  698   1.424   2.076   2.974
  942SOL    HW1  699   1.476   2.011   3.029
  942SOL    HW2  700   1.375   2.139   3.035
  943SOL     OW  701   1.001   1.896   3.016
  943SOL    HW1  702   0.938   1.824   2.985
  943SOL    HW2  703   1.094   1.860   3.016
  944SOL     OW  704   0.770   3.192   2.163
  944SOL    HW1  705   0.724   3.105   2.180
  944SOL    HW2  706   0.861   3.189   2.204
  946SOL     OW  707   1.352   1.914   2.030
  946SOL    HW1  708   1.387   1.873   1.946
  946SOL    HW2  709   1.262   1.876   2.050
  947SOL     OW  710   1.300   2.315   2.553
  947SOL    HW1  711   1.241   2.395   2.557
  947SOL    HW2  712   1.315   2.280   2.646
  948SOL     OW  713   1.593   2.083   2.744
  948SOL    HW1  714   1.509   2.082   2.798
  948SOL    HW2  715   1.595   2.166   2.688
  955SOL     OW  716   1.755   2.469   3.955
  955SOL    HW1  717   1.743   2.456   3.856
  955SOL    HW2  718   1.725   2.388   4.004
 1003SOL     OW  719   1.390   2.437   3.802
 1003SOL    HW1  720   1.336   2.416   3.883
 1003SOL    HW2  721   1.481   2.396   3.811
 1014SOL     OW  722   1.540   2.136   3.849
 1014SOL    HW1  723   1.479   2.061   3.872
 1014SOL    HW2  724   1.562   2.188   3.932
 1180SOL     OW  725   1.400   3.831   2.288
 1180SOL    HW1  726   1.376   3.794   2.198
 1180SOL    HW2  727   1.499   3.847   2.292
 1230SOL     OW  728   1.726   3.859   2.385
 1230SOL    HW1  729   1.799   3.842   2.318
 1230SOL    HW2  730   1.695   3.772   2.423
 1232SOL     OW  731   1.841   3.899   2.825
 1232SOL    HW1  732   1.880   3.814   2.789
 1232SOL    HW2  733   1.743   3.901   2.806
 1254SOL     OW  734   1.352   3.776   2.030
 1254SOL    HW1  735   1.387   3.735   1.946
 1254SOL    HW2  736   1.262   3.738   2.050
 1313SOL     OW  737   2.431   1.275   1.165
 1313SOL    HW1  738   2.338   1.268   1.128
 1313SOL    HW2  739   2.442   1.364   1.209
 1317SOL     OW  740   2.630   1.144   1.023
 1317SOL    HW1  741   2.552   1.161   1.083
 1317SOL    HW2  742   2.664   1.231   0.987
 1318SOL     OW  743   2.712   0.798   1.823
 1318SOL    HW1  744   2.708   0.874   1.888
 1318SOL    HW2  745   2.734   0.834   1.732
 1320SOL     OW  746   2.548   1.161   1.803
 1320SOL    HW1  747   2.608   1.240   1.817
 1320SOL    HW2  748   2.462   1.192   1.762
 1321SOL     OW  749   2.197   1.435   1.061
 1321SOL    HW1  750   2.119   1.404   1.008
 1321SOL    HW2  751   2.255   1.493   1.004
 1322SOL     OW  752   3.322   1.505   1.339
 1322SOL    HW1  753   3.346   1.599   1.365
 1322SOL    HW2  754   3.306   1.451   1.421
 1326SOL     OW  755   2.989   1.341   1.690
 1326SOL    HW1  756   3.036   1.341   1.778
 1326SOL    HW2  757   2.941   1.254   1.679
 1329SOL     OW  758   2.482   1.786   1.439
 1329SOL    HW1  759   2.390   1.769   1.474
 1329SOL    HW2  760   2.510   1.878   1.465
 1337SOL     OW  761   1.975   0.737   1.597
 1337SOL    HW1  762   2.063   0.724   1.642
 1337SOL    HW2  763   1.962   0.834   1.575
 1339SOL     OW  764   3.155   1.228   1.423
 1339SOL    HW1  765   3.192   1.155   1.365
 1339SOL    HW2  766   3.207   1.233   1.508
 1341SOL     OW  767   2.059   0.976   1.264
 1341SOL    HW1  768   2.148   0.931   1.250
 1341SOL    HW2  769   1.986   0.911   1.245
 1343SOL     OW  770   3.049   1.792   1.616
 1343SOL    HW1  771   3.073   1.852   1.540
 1343SOL    HW2  772   3.056   1.697   1.586
 1352SOL     OW  773   2.835   0.890   1.572
 1352SOL    HW1  774   2.881   0.806   1.543
 1352SOL    HW2  775   2.779   0.924   1.497
 1356SOL     OW  776   1.992   1.821   1.571
 1356SOL    HW1  777   1.982   1.806   1.670
 1356SOL    HW2  778   1.906   1.857   1.535
 1362SOL     OW  779   2.213   1.801   0.853
 1362SOL    HW1  780   2.263   1.715   0.859
 1362SOL    HW2  781   2.278   1.878   0.850
 1364SOL     OW  782   3.089   1.550   1.506
 1364SOL    HW1  783   3.095   1.473   1.570
 1364SOL    HW2  784   3.037   1.524   1.426
 1367SOL     OW  785   2.323   1.266   1.727
 1367SOL    HW1  786   2.273   1.267   1.641
 1367SOL    HW2  787   2.260   1.248   1.803
 1373SOL     OW  788   2.111   1.785   1.241
 1373SOL    HW1  789   2.168   1.720   1.291
 1373SOL    HW2  790   2.095   1.752   1.148
 1374SOL     OW  791   2.802   1.698   0.904
 1374SOL    HW1  792   2.882   1.641   0.925
 1374SOL    HW2  793   2.753   1.658   0.827
 1379SOL     OW  794   2.750   1.514   1.195
 1379SOL    HW1  795   2.727   1.489   1.101
 1379SOL    HW2  796   2.811   1.445   1.234
 1381SOL     OW  797   2.665   1.402   0.924
 1381SOL    HW1  798   2.755   1.416   0.882
 1381SOL    HW2  799   2.594   1.404   0.853
 1404SOL     OW  800   2.926   1.347   1.340
 1404SOL    HW1  801   2.846   1.324   1.395
 1404SOL    HW2  802   3.009   1.321   1.389
 1405SOL     OW  803   3.454   1.629   1.625
 1405SOL    HW1  804   3.481   1.663   1.535
 1405SOL    HW2  805   3.533   1.591   1.671
 1406SOL     OW  806   2.973   1.195   1.100
 1406SOL    HW1  807   2.933   1.239   1.181
 1406SOL    HW2  808   2.932   1.232   1.017
 1409SOL     OW  809   2.842   1.116   1.719
 1409SOL    HW1  810   2.743   1.122   1.729
 1409SOL    HW2  811   2.865   1.036   1.663
 1413SOL     OW  812   1.926   1.564   1.331
 1413SOL    HW1  813   1.880   1.646   1.297
 1413SOL    HW2  814   2.024   1.583   1.340
 1417SOL     OW  815   3.134   1.445   1.142
 1417SOL    HW1  816   3.181   1.458   1.229
 1417SOL    HW2  817   3.068   1.371   1.151
 1419SOL     OW  818   2.216   1.510   1.329
 1419SOL    HW1  819   2.195   1.466   1.242
 1419SOL    HW2  820   2.313   1.536   1.332
 1420SOL     OW  821   2.264   0.751   1.598
 1420SOL    HW1  822   2.332   0.806   1.551
 1420SOL    HW2  823   2.304   0.663   1.625
 1428SOL     OW  824   1.899   1.310   1.282
 1428SOL    HW1  825   1.952   1.261   1.350
 1428SOL    HW2  826   1.921   1.408   1.287
 1434SOL     OW  827   2.842   1.573   1.700
 1434SOL    HW1  828   2.822   1.617   1.612
 1434SOL    HW2  829   2.881   1.482   1.684
 1435SOL     OW  830   3.721   1.518   1.605
 1435SOL    HW1  831   3.735   1.545   1.510
 1435SOL    HW2  832   3.804   1.540   1.658
 1436SOL     OW  833   2.212   0.898   1.804
 1436SOL    HW1  834   2.288   0.942   1.852
 1436SOL    HW2  835   2.247   0.851   1.722
 1445SOL     OW  836   1.950   1.801   0.927
 1445SOL    HW1  837   1.908   1.715   0.900
 1445SOL    HW2  838   2.044   1.804   0.893
 1446SOL     OW  839   2.366   1.568   0.910
 1446SOL    HW1  840   2.432   1.642   0.919
 1446SOL    HW2  841   2.410   1.489   0.868
 1450SOL     OW  842   3.231   0.950   1.660
 1450SOL    HW1  843   3.270   1.039   1.680
 1450SOL    HW2  844   3.241   0.930   1.563
 1453SOL     OW  845   2.114   1.564   1.744
 1453SOL    HW1  846   2.084   1.621   1.820
 1453SOL    HW2  847   2.107   1.467   1.770
 1455SOL     OW  848   2.792   1.678   1.465
 1455SOL    HW1  849   2.768   1.660   1.370
 1455SOL    HW2  850   2.822   1.772   1.475
 1457SOL     OW  851   2.021   1.137   1.466
 1457SOL    HW1  852   2.043   1.076   1.542
 1457SOL    HW2  853   2.031   1.088   1.380
 1461SOL     OW  854   3.114   1.731   1.128
 1461SOL    HW1  855   3.198   1.736   1.074
 1461SOL    HW2  856   3.091   1.635   1.146
 1462SOL     OW  857   1.945   1.258   1.022
 1462SOL    HW1  858   1.940   1.257   1.122
 1462SOL    HW2  859   1.862   1.217   0.984
 1463SOL     OW  860   2.550   1.662   1.716
 1463SOL    HW1  861   2.494   1.743   1.725
 1463SOL    HW2  862   2.602   1.666   1.630
 1467SOL     OW  863   1.992   1.794   1.851
 1467SOL    HW1  864   1.951   1.720   1.904
 1467SOL    HW2  865   2.056   1.845   1.909
 1469SOL     OW  866   2.692   1.273   1.422
 1469SOL    HW1  867   2.687   1.306   1.517
 1469SOL    HW2  868   2.606   1.292   1.376
 1471SOL     OW  869   3.512   1.720   1.394
 1471SOL    HW1  870   3.565   1.730   1.310
 1471SOL    HW2  871   3.485   1.810   1.428
 1475SOL     OW  872   2.684   1.002   1.372
 1475SOL    HW1  873   2.724   1.001   1.280
 1475SOL    HW2  874   2.694   1.094   1.412
 1478SOL     OW  875   2.234   1.288   1.490
 1478SOL    HW1  876   2.221   1.381   1.456
 1478SOL    HW2  877   2.150   1.236   1.477
 1485SOL     OW  878   1.967   1.013   1.726
 1485SOL    HW1  879   1.890   0.980   1.780
 1485SOL    HW2  880   2.052   0.983   1.768
 1490SOL     OW  881   2.475   0.842   1.431
 1490SOL    HW1  882   2.531   0.923   1.414
 1490SOL    HW2  883   2.534   0.762   1.434
 1493SOL     OW  884   3.312   1.220   1.633
 1493SOL    HW1  885   3.303   1.210   1.732
 1493SOL    HW2  886   3.408   1.213   1.607
 1494SOL     OW  887   2.252   1.741   1.560
 1494SOL    HW1  888   2.161   1.782   1.558
 1494SOL    HW2  889   2.245   1.647   1.592
 1501SOL     OW  890   2.523   1.790   0.953
 1501SOL    HW1  891   2.477   1.878   0.940
 1501SOL    HW2  892   2.622   1.802   0.946
 1505SOL     OW  893   2.083   1.314   1.844
 1505SOL    HW1  894   2.018   1.241   1.823
 1505SOL    HW2  895   2.087   1.328   1.942
 1507SOL     OW  896   2.534   1.391   1.624
 1507SOL    HW1  897   2.456   1.341   1.662
 1507SOL    HW2  898   2.531   1.486   1.655
 1516SOL     OW  899   2.480   1.567   1.284
 1516SOL    HW1  900   2.475   1.649   1.341
 1516SOL    HW2  901   2.569   1.564   1.239
 1522SOL     OW  902   2.092   0.628   1.975
 1522SOL    HW1  903   1.999   0.626   2.012
 1522SOL    HW2  904   2.093   0.589   1.883
 1525SOL     OW  905   2.431   1.275   3.027
 1525SOL    HW1  906   2.338   1.268   2.990
 1525SOL    HW2  907   2.442   1.364   3.071
 1526SOL     OW  908   3.417   1.511   2.565
 1526SOL    HW1  909   3.360   1.495   2.646
 1526SOL    HW2  910   3.358   1.521   2.485
 1527SOL     OW  911   2.997   0.703   2.579
 1527SOL    HW1  912   3.054   0.781   2.554
 1527SOL    HW2  913   2.937   0.729   2.655
 1529SOL     OW  914   2.630   1.144   2.885
 1529SOL    HW1  915   2.552   1.161   2.945
 1529SOL    HW2  916   2.664   1.231   2.849
 1531SOL     OW  917   2.547   1.012   2.527
 1531SOL    HW1  918   2.616   0.996   2.597
 1531SOL    HW2  919   2.474   1.069   2.565
 1532SOL     OW  920   2.548   1.161   3.665
 1532SOL    HW1  921   2.608   1.240   3.679
 1532SOL    HW2  922   2.462   1.192   3.624
 1533SOL     OW  923   2.197   1.435   2.923
 1533SOL    HW1  924   2.119   1.404   2.870
 1533SOL    HW2  925   2.255   1.493   2.866
 1534SOL     OW  926   3.322   1.505   3.201
 1534SOL    HW1  927   3.346   1.599   3.227
 1534SOL    HW2  928   3.306   1.451   3.283
 1537SOL     OW  929   2.093   1.713   2.345
 1537SOL    HW1  930   2.127   1.790   2.399
 1537SOL    HW2  931   2.137   1.713   2.255
 1538SOL     OW  932   2.989   1.341   3.552
 1538SOL    HW1  933   3.036   1.341   3.640
 1538SOL    HW2  934   2.941   1.254   3.541
 1539SOL     OW  935   2.092   1.434   2.400
 1539SOL    HW1  936   2.066   1.530   2.400
 1539SOL    HW2  937   2.021   1.380   2.445
 1540SOL     OW  938   2.102   1.091   2.748
 1540SOL    HW1  939   2.116   1.007   2.800
 1540SOL    HW2  940   2.047   1.155   2.803
 1541SOL     OW  941   2.482   1.786   3.301
 1541SOL    HW1  942   2.390   1.769   3.336
 1541SOL    HW2  943   2.510   1.878   3.327
 1542SOL     OW  944   2.468   0.964   1.985
 1542SOL    HW1  945   2.475   1.048   1.931
 1542SOL    HW2  946   2.514   0.977   2.073
 1544SOL     OW  947   1.984   0.643   2.425
 1544SOL    HW1  948   1.939   0.555   2.442
 1544SOL    HW2  949   1.983   0.697   2.509
 1545SOL     OW  950   3.704   1.767   2.221
 1545SOL    HW1  951   3.758   1.738   2.301
 1545SOL    HW2  952   3.734   1.857   2.192
 1546SOL     OW  953   1.889   1.596   1.979
 1546SOL    HW1  954   1.870   1.500   2.000
 1546SOL    HW2  955   1.856   1.654   2.054
 1548SOL     OW  956   3.503   1.108   2.294
 1548SOL    HW1  957   3.589   1.110   2.242
 1548SOL    HW2  958   3.517   1.155   2.382
 1550SOL     OW  959   2.475   1.365   2.588
 1550SOL    HW1  960   2.426   1.278   2.597
 1550SOL    HW2  961   2.452   1.408   2.501
 1551SOL     OW  962   3.155   1.228   3.285
 1551SOL    HW1  963   3.192   1.155   3.227
 1551SOL    HW2  964   3.207   1.233   3.370
 1553SOL     OW  965   2.059   0.976   3.126
 1553SOL    HW1  966   2.148   0.931   3.112
 1553SOL    HW2  967   1.986   0.911   3.107
 1554SOL     OW  968   3.387   0.999   2.052
 1554SOL    HW1  969   3.324   0.923   2.065
 1554SOL    HW2  970   3.435   1.017   2.138
 1555SOL     OW  971   3.049   1.792   3.478
 1555SOL    HW1  972   3.073   1.852   3.402
 1555SOL    HW2  973   3.056   1.697   3.448
 1557SOL     OW  974   3.328   1.417   2.815
 1557SOL    HW1  975   3.269   1.423   2.895
 1557SOL    HW2  976   3.313   1.329   2.769
 1558SOL     OW  977   3.529   1.714   2.434
 1558SOL    HW1  978   3.488   1.691   2.346
 1558SOL    HW2  979   3.511   1.640   2.499
 1559SOL     OW  980   2.460   0.729   2.132
 1559SOL    HW1  981   2.484   0.798   2.064
 1559SOL    HW2  982   2.382   0.762   2.186
 1561SOL     OW  983   3.438   1.662   2.169
 1561SOL    HW1  984   3.527   1.708   2.172
 1561SOL    HW2  985   3.417   1.638   2.074
 1566SOL     OW  986   2.903   0.701   2.291
 1566SOL    HW1  987   2.929   0.697   2.387
 1566SOL    HW2  988   2.818   0.650   2.277
 1567SOL     OW  989   1.938   0.811   2.651
 1567SOL    HW1  990   2.037   0.799   2.660
 1567SOL    HW2  991   1.914   0.906   2.672
 1568SOL     OW  992   1.992   1.821   3.433
 1568SOL    HW1  993   1.982   1.806   3.532
 1568SOL    HW2  994   1.906   1.857   3.397
 1571SOL     OW  995   3.224   1.144   2.407
 1571SOL    HW1  996   3.307   1.115   2.359
 1571SOL    HW2  997   3.175   1.211   2.351
 1573SOL     OW  998   2.870   1.456   2.339
 1573SOL    HW1  999   2.824   1.528   2.287
 1573SOL    HW2 1000   2.866   1.476   2.437
 1574SOL     OW 1001   2.213   1.801   2.715
 1574SOL    HW1 1002   2.263   1.715   2.721
 1574SOL    HW2 1003   2.278   1.878   2.712
 1576SOL     OW 1004   3.089   1.550   3.368
 1576SOL    HW1 1005   3.095   1.473   3.432
 1576SOL    HW2 1006   3.037   1.524   3.288
 1577SOL     OW 1007   2.183   0.943   2.104
 1577SOL    HW1 1008   2.265   0.982   2.062
 1577SOL    HW2 1009   2.156   0.861   2.055
 1579SOL     OW 1010   2.323   1.266   3.589
 1579SOL    HW1 1011   2.273   1.267   3.503
 1579SOL    HW2 1012   2.260   1.248   3.665
 1580SOL     OW 1013   2.973   1.776   2.099
 1580SOL    HW1 1014   2.913   1.714   2.149
 1580SOL    HW2 1015   3.004   1.732   2.014
 1582SOL     OW 1016   3.494   1.377   1.943
 1582SOL    HW1 1017   3.462   1.471   1.933
 1582SOL    HW2 1018   3.418   1.314   1.931
 1583SOL     OW 1019   2.326   1.743   2.185
 1583SOL    HW1 1020   2.359   1.782   2.271
 1583SOL    HW2 1021   2.402   1.736   2.120
 1585SOL     OW 1022   2.111   1.785   3.103
 1585SOL    HW1 1023   2.168   1.720   3.153
 1585SOL    HW2 1024   2.095   1.752   3.010
 1586SOL     OW 1025   2.802   1.698   2.766
 1586SOL    HW1 1026   2.882   1.641   2.787
 1586SOL    HW2 1027   2.753   1.658   2.689
 1587SOL     OW 1028   2.244   0.700   2.342
 1587SOL    HW1 1029   2.289   0.610   2.339
 1587SOL    HW2 1030   2.150   0.689   2.375
 1591SOL     OW 1031   2.750   1.514   3.057
 1591SOL    HW1 1032   2.727   1.489   2.963
 1591SOL    HW2 1033   2.811   1.445   3.096
 1593SOL     OW 1034   2.665   1.402   2.786
 1593SOL    HW1 1035   2.755   1.416   2.744
 1593SOL    HW2 1036   2.594   1.404   2.715
 1596SOL     OW 1037   3.296   1.188   1.903
 1596SOL    HW1 1038   3.328   1.112   1.960
 1596SOL    HW2 1039   3.204   1.215   1.933
 1600SOL     OW 1040   3.089   1.570   2.655
 1600SOL    HW1 1041   3.110   1.644   2.590
 1600SOL    HW2 1042   3.157   1.570   2.728
 1601SOL     OW 1043   2.321   1.152   2.603
 1601SOL    HW1 1044   2.250   1.125   2.668
 1601SOL    HW2 1045   2.295   1.124   2.510
 1602SOL     OW 1046   3.133   1.797   2.453
 1602SOL    HW1 1047   3.177   1.861   2.389
 1602SOL    HW2 1048   3.083   1.849   2.523
 1608SOL     OW 1049   3.291   1.173   2.729
 1608SOL    HW1 1050   3.236   1.089   2.722
 1608SOL    HW2 1051   3.317   1.202   2.637
 1611SOL     OW 1052   2.350   1.385   2.036
 1611SOL    HW1 1053   2.263   1.370   2.083
 1611SOL    HW2 1054   2.333   1.411   1.941
 1612SOL     OW 1055   3.526   1.280   2.519
 1612SOL    HW1 1056   3.625   1.288   2.533
 1612SOL    HW2 1057   3.481   1.364   2.550
 1616SOL     OW 1058   2.926   1.347   3.202
 1616SOL    HW1 1059   2.846   1.324   3.257
 1616SOL    HW2 1060   3.009   1.321   3.251
 1617SOL     OW 1061   3.454   1.629   3.487
 1617SOL    HW1 1062   3.481   1.663   3.397
 1617SOL    HW2 1063   3.533   1.591   3.533
 1618SOL     OW 1064   2.973   1.195   2.962
 1618SOL    HW1 1065   2.933   1.239   3.043
 1618SOL    HW2 1066   2.932   1.232   2.879
 1622SOL     OW 1067   2.567   1.050   2.230
 1622SOL    HW1 1068   2.553   1.057   2.329
 1622SOL    HW2 1069   2.651   0.999   2.212
 1623SOL     OW 1070   2.272   0.813   3.113
 1623SOL    HW1 1071   2.358   0.825   3.163
 1623SOL    HW2 1072   2.230   0.726   3.140
 1625SOL     OW 1073   1.926   1.564   3.193
 1625SOL    HW1 1074   1.880   1.646   3.159
 1625SOL    HW2 1075   2.024   1.583   3.202
 1626SOL     OW 1076   2.229   1.100   2.363
 1626SOL    HW1 1077   2.222   1.183   2.307
 1626SOL    HW2 1078   2.233   1.020   2.303
 1628SOL     OW 1079   3.114   1.348   2.250
 1628SOL    HW1 1080   3.164   1.425   2.290
 1628SOL    HW2 1081   3.019   1.350   2.282
 1629SOL     OW 1082   3.134   1.445   3.004
 1629SOL    HW1 1083   3.181   1.458   3.091
 1629SOL    HW2 1084   3.068   1.371   3.013
 1631SOL     OW 1085   2.216   1.510   3.191
 1631SOL    HW1 1086   2.195   1.466   3.104
 1631SOL    HW2 1087   2.313   1.536   3.194
 1636SOL     OW 1088   2.435   0.870   2.891
 1636SOL    HW1 1089   2.479   0.959   2.882
 1636SOL    HW2 1090   2.372   0.870   2.968
 1640SOL     OW 1091   1.899   1.310   3.144
 1640SOL    HW1 1092   1.952   1.261   3.212
 1640SOL    HW2 1093   1.921   1.408   3.149
 1645SOL     OW 1094   2.885   0.766   2.828
 1645SOL    HW1 1095   2.900   0.787   2.924
 1645SOL    HW2 1096   2.855   0.671   2.819
 1646SOL     OW 1097   2.842   1.573   3.562
 1646SOL    HW1 1098   2.822   1.617   3.474
 1646SOL    HW2 1099   2.881   1.482   3.546
 1650SOL     OW 1100   3.165   0.838   1.904
 1650SOL    HW1 1101   3.199   0.745   1.919
 1650SOL    HW2 1102   3.183   0.865   1.809
 1651SOL     OW 1103   2.930   1.333   2.711
 1651SOL    HW1 1104   2.937   1.249   2.656
 1651SOL    HW2 1105   2.992   1.402   2.675
 1652SOL     OW 1106   2.181   0.810   2.811
 1652SOL    HW1 1107   2.274   0.846   2.816
 1652SOL    HW2 1108   2.175   0.725   2.863
 1656SOL     OW 1109   1.870   1.326   2.062
 1656SOL    HW1 1110   1.777   1.347   2.031
 1656SOL    HW2 1111   1.880   1.227   2.075
 1657SOL     OW 1112   1.950   1.801   2.789
 1657SOL    HW1 1113   1.908   1.715   2.762
 1657SOL    HW2 1114   2.044   1.804   2.755
 1658SOL     OW 1115   2.366   1.568   2.772
 1658SOL    HW1 1116   2.432   1.642   2.781
 1658SOL    HW2 1117   2.410   1.489   2.730
 1659SOL     OW 1118   2.864   0.796   3.100
 1659SOL    HW1 1119   2.905   0.764   3.186
 1659SOL    HW2 1120   2.768   0.769   3.097
 1663SOL     OW 1121   2.677   0.572   2.187
 1663SOL    HW1 1122   2.684   0.483   2.141
 1663SOL    HW2 1123   2.583   0.606   2.179
 1665SOL     OW 1124   2.114   1.564   3.606
 1665SOL    HW1 1125   2.084   1.621   3.682
 1665SOL    HW2 1126   2.107   1.467   3.632
 1667SOL     OW 1127   2.792   1.678   3.327
 1667SOL    HW1 1128   2.768   1.660   3.232
 1667SOL    HW2 1129   2.822   1.772   3.337
 1669SOL     OW 1130   2.021   1.137   3.328
 1669SOL    HW1 1131   2.043   1.076   3.404
 1669SOL    HW2 1132   2.031   1.088   3.242
 1670SOL     OW 1133   3.209   1.059   3.096
 1670SOL    HW1 1134   3.233   0.996   3.022
 1670SOL    HW2 1135   3.119   1.099   3.078
 1671SOL     OW 1136   3.164   0.855   2.171
 1671SOL    HW1 1137   3.078   0.824   2.213
 1671SOL    HW2 1138   3.160   0.841   2.072
 1672SOL     OW 1139   3.621   1.747   3.016
 1672SOL    HW1 1140   3.682   1.777   2.943
 1672SOL    HW2 1141   3.583   1.658   2.994
 1673SOL     OW 1142   3.114   1.731   2.990
 1673SOL    HW1 1143   3.198   1.736   2.936
 1673SOL    HW2 1144   3.091   1.635   3.008
 1674SOL     OW 1145   1.945   1.258   2.884
 1674SOL    HW1 1146   1.940   1.257   2.984
 1674SOL    HW2 1147   1.862   1.217   2.846
 1675SOL     OW 1148   2.550   1.662   3.578
 1675SOL    HW1 1149   2.494   1.743   3.587
 1675SOL    HW2 1150   2.602   1.666   3.492
 1677SOL     OW 1151   3.250   1.573   2.339
 1677SOL    HW1 1152   3.317   1.585   2.265
 1677SOL    HW2 1153   3.210   1.662   2.362
 1678SOL     OW 1154   1.992   1.794   3.713
 1678SOL    HW1 1155   1.951   1.720   3.766
 1678SOL    HW2 1156   2.056   1.845   3.771
 1679SOL     OW 1157   3.142   0.927   2.534
 1679SOL    HW1 1158   3.202   0.846   2.536
 1679SOL    HW2 1159   3.182   0.996   2.474
 1680SOL     OW 1160   2.692   1.273   3.284
 1680SOL    HW1 1161   2.687   1.306   3.379
 1680SOL    HW2 1162   2.606   1.292   3.238
 1681SOL     OW 1163   2.534   1.616   2.016
 1681SOL    HW1 1164   2.543   1.626   1.917
 1681SOL    HW2 1165   2.494   1.527   2.037
 1682SOL     OW 1166   3.512   1.720   3.256
 1682SOL    HW1 1167   3.565   1.730   3.172
 1682SOL    HW2 1168   3.485   1.810   3.290
 1685SOL     OW 1169   3.056   1.612   1.893
 1685SOL    HW1 1170   3.062   1.519   1.930
 1685SOL    HW2 1171   2.997   1.612   1.813
 1686SOL     OW 1172   2.684   1.002   3.234
 1686SOL    HW1 1173   2.724   1.001   3.142
 1686SOL    HW2 1174   2.694   1.094   3.274
 1687SOL     OW 1175   2.778   0.910   2.153
 1687SOL    HW1 1176   2.841   0.948   2.085
 1687SOL    HW2 1177   2.818   0.827   2.192
 1688SOL     OW 1178   3.366   1.607   1.906
 1688SOL    HW1 1179   3.274   1.644   1.913
 1688SOL    HW2 1180   3.404   1.627   1.816
 1689SOL     OW 1181   2.234   1.288   3.352
 1689SOL    HW1 1182   2.221   1.381   3.318
 1689SOL    HW2 1183   2.150   1.236   3.339
 1690SOL     OW 1184   3.476   1.292   3.151
 1690SOL    HW1 1185   3.536   1.295   3.231
 1690SOL    HW2 1186   3.401   1.356   3.164
 1691SOL     OW 1187   2.901   1.098   2.558
 1691SOL    HW1 1188   2.831   1.051   2.612
 1691SOL    HW2 1189   2.960   1.030   2.515
 1693SOL     OW 1190   2.452   1.487   2.353
 1693SOL    HW1 1191   2.494   1.429   2.283
 1693SOL    HW2 1192   2.408   1.566   2.309
 1695SOL     OW 1193   2.117   1.348   2.152
 1695SOL    HW1 1194   2.021   1.349   2.125
 1695SOL    HW2 1195   2.129   1.401   2.236
 1701SOL     OW 1196   3.045   1.335   1.981
 1701SOL    HW1 1197   2.946   1.324   1.983
 1701SOL    HW2 1198   3.079   1.350   2.074
 1702SOL     OW 1199   2.475   0.842   3.293
 1702SOL    HW1 1200   2.531   0.923   3.276
 1702SOL    HW2 1201   2.534   0.762   3.296
 1703SOL     OW 1202   3.355   1.767   2.821
 1703SOL    HW1 1203   3.388   1.831   2.752
 1703SOL    HW2 1204   3.421   1.761   2.896
 1706SOL     OW 1205   2.252   1.741   3.422
 1706SOL    HW1 1206   2.161   1.782   3.420
 1706SOL    HW2 1207   2.245   1.647   3.454
 1709SOL     OW 1208   2.456   0.745   2.514
 1709SOL    HW1 1209   2.506   0.830   2.495
 1709SOL    HW2 1210   2.368   0.747   2.466
 1712SOL     OW 1211   2.721   1.374   1.878
 1712SOL    HW1 1212   2.675   1.389   1.966
 1712SOL    HW2 1213   2.765   1.459   1.848
 1713SOL     OW 1214   2.523   1.790   2.815
 1713SOL    HW1 1215   2.477   1.878   2.802
 1713SOL    HW2 1216   2.622   1.802   2.808
 1714SOL     OW 1217   2.721   0.956   2.723
 1714SOL    HW1 1218   2.775   0.887   2.771
 1714SOL    HW2 1219   2.689   1.025   2.789
 1715SOL     OW 1220   2.945   0.984   1.949
 1715SOL    HW1 1221   2.922   1.037   1.867
 1715SOL    HW2 1222   3.026   0.928   1.930
 1716SOL     OW 1223   3.723   1.569   2.713
 1716SOL    HW1 1224   3.652   1.557   2.643
 1716SOL    HW2 1225   3.724   1.490   2.773
 1717SOL     OW 1226   2.083   1.314   3.706
 1717SOL    HW1 1227   2.018   1.241   3.685
 1717SOL    HW2 1228   2.087   1.328   3.804
 1718SOL     OW 1229   1.941   1.240   2.515
 1718SOL    HW1 1230   1.940   1.193   2.603
 1718SOL    HW2 1231   2.023   1.212   2.464
 1719SOL     OW 1232   2.534   1.391   3.486
 1719SOL    HW1 1233   2.456   1.341   3.524
 1719SOL    HW2 1234   2.531   1.486   3.517
 1722SOL     OW 1235   3.567   1.487   2.966
 1722SOL    HW1 1236   3.474   1.462   2.939
 1722SOL    HW2 1237   3.593   1.437   3.048
 1724SOL     OW 1238   2.674   1.586   2.549
 1724SOL    HW1 1239   2.706   1.596   2.455
 1724SOL    HW2 1240   2.595   1.524   2.551
 1727SOL     OW 1241   2.632   1.330   2.163
 1727SOL    HW1 1242   2.586   1.243   2.180
 1727SOL    HW2 1243   2.723   1.327   2.204
 1728SOL     OW 1244   2.480   1.567   3.146
 1728SOL    HW1 1245   2.475   1.649   3.203
 1728SOL    HW2 1246   2.569   1.564   3.101
 1732SOL     OW 1247   1.901   1.077   2.162
 1732SOL    HW1 1248   2.000   1.066   2.153
 1732SOL    HW2 1249   1.861   0.991   2.194
 1733SOL     OW 1250   2.737   1.646   2.199
 1733SOL    HW1 1251   2.660   1.611   2.145
 1733SOL    HW2 1252   2.705   1.717   2.261
 1749SOL     OW 1253   1.889   1.596   3.841
 1749SOL    HW1 1254   1.870   1.500   3.862
 1749SOL    HW2 1255   1.856   1.654   3.916
 1808SOL     OW 1256   2.534   1.616   3.878
 1808SOL    HW1 1257   2.543   1.626   3.779
 1808SOL    HW2 1258   2.494   1.527   3.899
 1811SOL     OW 1259   3.056   1.612   3.755
 1811SOL    HW1 1260   3.062   1.519   3.792
 1811SOL    HW2 1261   2.997   1.612   3.675
 1822SOL     OW 1262   2.721   1.374   3.740
 1822SOL    HW1 1263   2.675   1.389   3.828
 1822SOL    HW2 1264   2.765   1.459   3.710
 1836SOL     OW 1265   2.087   2.137   0.996
 1836SOL    HW1 1266   2.122   2.120   1.088
 1836SOL    HW2 1267   1.999   2.092   0.984
 1837SOL     OW 1268   1.881   2.230   0.647
 1837SOL    HW1 1269   1.799   2.273   0.686
 1837SOL    HW2 1270   1.853   2.157   0.584
 1838SOL     OW 1271   2.431   3.137   1.165
 1838SOL    HW1 1272   2.338   3.130   1.128
 1838SOL    HW2 1273   2.442   3.226   1.209
 1840SOL     OW 1274   2.997   2.565   0.717
 1840SOL    HW1 1275   3.054   2.643   0.692
 1840SOL    HW2 1276   2.937   2.591   0.793
 1842SOL     OW 1277   2.630   3.006   1.023
 1842SOL    HW1 1278   2.552   3.023   1.083
 1842SOL    HW2 1279   2.664   3.093   0.987
 1843SOL     OW 1280   2.712   2.660   1.823
 1843SOL    HW1 1281   2.708   2.736   1.888
 1843SOL    HW2 1282   2.734   2.696   1.732
 1844SOL     OW 1283   2.547   2.874   0.665
 1844SOL    HW1 1284   2.616   2.858   0.735
 1844SOL    HW2 1285   2.474   2.931   0.703
 1845SOL     OW 1286   2.548   3.023   1.803
 1845SOL    HW1 1287   2.608   3.102   1.817
 1845SOL    HW2 1288   2.462   3.054   1.762
 1846SOL     OW 1289   2.197   3.297   1.061
 1846SOL    HW1 1290   2.119   3.266   1.008
 1846SOL    HW2 1291   2.255   3.355   1.004
 1847SOL     OW 1292   3.322   3.367   1.339
 1847SOL    HW1 1293   3.346   3.461   1.365
 1847SOL    HW2 1294   3.306   3.313   1.421
 1848SOL     OW 1295   2.300   2.254   1.499
 1848SOL    HW1 1296   2.382   2.198   1.508
 1848SOL    HW2 1297   2.219   2.196   1.503
 1851SOL     OW 1298   2.989   3.203   1.690
 1851SOL    HW1 1299   3.036   3.203   1.778
 1851SOL    HW2 1300   2.941   3.116   1.679
 1853SOL     OW 1301   2.102   2.953   0.886
 1853SOL    HW1 1302   2.116   2.869   0.938
 1853SOL    HW2 1303   2.047   3.017   0.941
 1854SOL     OW 1304   2.482   3.648   1.439
 1854SOL    HW1 1305   2.390   3.631   1.474
 1854SOL    HW2 1306   2.510   3.740   1.465
 1856SOL     OW 1307   3.456   1.976   1.480
 1856SOL    HW1 1308   3.438   2.043   1.408
 1856SOL    HW2 1309   3.453   2.022   1.569
 1862SOL     OW 1310   1.975   2.599   1.597
 1862SOL    HW1 1311   2.063   2.586   1.642
 1862SOL    HW2 1312   1.962   2.696   1.575
 1864SOL     OW 1313   3.155   3.090   1.423
 1864SOL    HW1 1314   3.192   3.017   1.365
 1864SOL    HW2 1315   3.207   3.095   1.508
 1866SOL     OW 1316   2.059   2.838   1.264
 1866SOL    HW1 1317   2.148   2.793   1.250
 1866SOL    HW2 1318   1.986   2.773   1.245
 1868SOL     OW 1319   3.049   3.654   1.616
 1868SOL    HW1 1320   3.073   3.714   1.540
 1868SOL    HW2 1321   3.056   3.559   1.586
 1869SOL     OW 1322   2.179   2.113   1.801
 1869SOL    HW1 1323   2.250   2.184   1.807
 1869SOL    HW2 1324   2.091   2.152   1.829
 1873SOL     OW 1325   3.143   2.207   0.944
 1873SOL    HW1 1326   3.057   2.157   0.931
 1873SOL    HW2 1327   3.205   2.153   1.000
 1875SOL     OW 1328   2.669   2.467   1.465
 1875SOL    HW1 1329   2.622   2.464   1.554
 1875SOL    HW2 1330   2.618   2.412   1.399
 1876SOL     OW 1331   3.256   2.331   1.674
 1876SOL    HW1 1332   3.236   2.374   1.762
 1876SOL    HW2 1333   3.334   2.269   1.683
 1877SOL     OW 1334   2.835   2.752   1.572
 1877SOL    HW1 1335   2.881   2.668   1.543
 1877SOL    HW2 1336   2.779   2.786   1.497
 1878SOL     OW 1337   2.853   2.272   1.242
 1878SOL    HW1 1338   2.776   2.306   1.296
 1878SOL    HW2 1339   2.819   2.221   1.163
 1880SOL     OW 1340   1.938   2.673   0.789
 1880SOL    HW1 1341   2.037   2.661   0.798
 1880SOL    HW2 1342   1.914   2.768   0.810
 1881SOL     OW 1343   1.992   3.683   1.571
 1881SOL    HW1 1344   1.982   3.668   1.670
 1881SOL    HW2 1345   1.906   3.719   1.535
 1883SOL     OW 1346   3.581   2.447   1.831
 1883SOL    HW1 1347   3.555   2.536   1.795
 1883SOL    HW2 1348   3.579   2.379   1.758
 1885SOL     OW 1349   2.412   2.058   0.885
 1885SOL    HW1 1350   2.407   2.053   0.985
 1885SOL    HW2 1351   2.414   2.154   0.856
 1889SOL     OW 1352   3.089   3.412   1.506
 1889SOL    HW1 1353   3.095   3.335   1.570
 1889SOL    HW2 1354   3.037   3.386   1.426
 1892SOL     OW 1355   2.323   3.128   1.727
 1892SOL    HW1 1356   2.273   3.129   1.641
 1892SOL    HW2 1357   2.260   3.110   1.803
 1894SOL     OW 1358   2.064   2.147   1.498
 1894SOL    HW1 1359   1.984   2.207   1.485
 1894SOL    HW2 1360   2.054   2.098   1.584
 1898SOL     OW 1361   2.111   3.647   1.241
 1898SOL    HW1 1362   2.168   3.582   1.291
 1898SOL    HW2 1363   2.095   3.614   1.148
 1901SOL     OW 1364   3.409   2.084   1.729
 1901SOL    HW1 1365   3.404   2.121   1.821
 1901SOL    HW2 1366   3.337   2.015   1.717
 1902SOL     OW 1367   2.643   2.126   1.749
 1902SOL    HW1 1368   2.710   2.065   1.792
 1902SOL    HW2 1369   2.570   2.145   1.814
 1903SOL     OW 1370   2.750   3.376   1.195
 1903SOL    HW1 1371   2.727   3.351   1.101
 1903SOL    HW2 1372   2.811   3.307   1.234
 1904SOL     OW 1373   3.213   2.452   1.433
 1904SOL    HW1 1374   3.241   2.409   1.518
 1904SOL    HW2 1375   3.238   2.548   1.434
 1905SOL     OW 1376   2.665   3.264   0.924
 1905SOL    HW1 1377   2.755   3.278   0.882
 1905SOL    HW2 1378   2.594   3.266   0.853
 1906SOL     OW 1379   2.784   2.365   0.899
 1906SOL    HW1 1380   2.759   2.356   0.803
 1906SOL    HW2 1381   2.832   2.283   0.930
 1911SOL     OW 1382   2.938   2.545   1.464
 1911SOL    HW1 1383   2.858   2.484   1.467
 1911SOL    HW2 1384   3.019   2.492   1.440
 1913SOL     OW 1385   2.321   3.014   0.741
 1913SOL    HW1 1386   2.250   2.987   0.806
 1913SOL    HW2 1387   2.295   2.986   0.648
 1916SOL     OW 1388   1.940   2.418   1.386
 1916SOL    HW1 1389   2.032   2.417   1.345
 1916SOL    HW2 1390   1.934   2.492   1.453
 1917SOL     OW 1391   2.423   2.084   1.147
 1917SOL    HW1 1392   2.461   2.000   1.184
 1917SOL    HW2 1393   2.335   2.103   1.191
 1918SOL     OW 1394   2.728   2.316   0.642
 1918SOL    HW1 1395   2.696   2.388   0.580
 1918SOL    HW2 1396   2.752   2.235   0.589
 1919SOL     OW 1397   2.879   1.901   0.753
 1919SOL    HW1 1398   2.807   1.906   0.684
 1919SOL    HW2 1399   2.855   1.832   0.822
 1921SOL     OW 1400   3.328   2.452   0.992
 1921SOL    HW1 1401   3.298   2.357   0.999
 1921SOL    HW2 1402   3.401   2.468   1.058
 1927SOL     OW 1403   3.616   3.085   1.588
 1927SOL    HW1 1404   3.707   3.046   1.575
 1927SOL    HW2 1405   3.624   3.181   1.612
 1928SOL     OW 1406   2.926   3.209   1.340
 1928SOL    HW1 1407   2.846   3.186   1.395
 1928SOL    HW2 1408   3.009   3.183   1.389
 1929SOL     OW 1409   3.454   3.491   1.625
 1929SOL    HW1 1410   3.481   3.525   1.535
 1929SOL    HW2 1411   3.533   3.453   1.671
 1930SOL     OW 1412   2.973   3.057   1.100
 1930SOL    HW1 1413   2.933   3.101   1.181
 1930SOL    HW2 1414   2.932   3.094   1.017
 1932SOL     OW 1415   2.777   1.951   1.402
 1932SOL    HW1 1416   2.802   1.931   1.307
 1932SOL    HW2 1417   2.849   2.007   1.444
 1933SOL     OW 1418   2.842   2.978   1.719
 1933SOL    HW1 1419   2.743   2.984   1.729
 1933SOL    HW2 1420   2.865   2.898   1.663
 1935SOL     OW 1421   2.272   2.675   1.251
 1935SOL    HW1 1422   2.358   2.687   1.301
 1935SOL    HW2 1423   2.230   2.588   1.278
 1936SOL     OW 1424   3.136   2.248   1.262
 1936SOL    HW1 1425   3.157   2.322   1.326
 1936SOL    HW2 1426   3.047   2.265   1.219
 1937SOL     OW 1427   1.926   3.426   1.331
 1937SOL    HW1 1428   1.880   3.508   1.297
 1937SOL    HW2 1429   2.024   3.445   1.340
 1939SOL     OW 1430   2.428   2.399   0.865
 1939SOL    HW1 1431   2.440   2.465   0.791
 1939SOL    HW2 1432   2.474   2.433   0.948
 1941SOL     OW 1433   3.134   3.307   1.142
 1941SOL    HW1 1434   3.181   3.320   1.229
 1941SOL    HW2 1435   3.068   3.233   1.151
 1943SOL     OW 1436   2.216   3.372   1.329
 1943SOL    HW1 1437   2.195   3.328   1.242
 1943SOL    HW2 1438   2.313   3.398   1.332
 1944SOL     OW 1439   2.264   2.613   1.598
 1944SOL    HW1 1440   2.332   2.668   1.551
 1944SOL    HW2 1441   2.304   2.525   1.625
 1945SOL     OW 1442   3.449   2.641   1.670
 1945SOL    HW1 1443   3.357   2.679   1.665
 1945SOL    HW2 1444   3.509   2.688   1.605
 1946SOL     OW 1445   2.875   1.967   1.770
 1946SOL    HW1 1446   2.881   2.052   1.718
 1946SOL    HW2 1447   2.907   1.891   1.713
 1947SOL     OW 1448   2.366   1.912   1.740
 1947SOL    HW1 1449   2.324   1.855   1.670
 1947SOL    HW2 1450   2.300   1.981   1.772
 1948SOL     OW 1451   2.435   2.732   1.029
 1948SOL    HW1 1452   2.479   2.821   1.020
 1948SOL    HW2 1453   2.372   2.732   1.106
 1949SOL     OW 1454   3.222   2.724   1.045
 1949SOL    HW1 1455   3.147   2.724   0.979
 1949SOL    HW2 1456   3.259   2.632   1.054
 1951SOL     OW 1457   2.169   2.075   1.231
 1951SOL    HW1 1458   2.146   2.112   1.321
 1951SOL    HW2 1459   2.139   1.980   1.225
 1952SOL     OW 1460   1.899   3.172   1.282
 1952SOL    HW1 1461   1.952   3.123   1.350
 1952SOL    HW2 1462   1.921   3.270   1.287
 1953SOL     OW 1463   2.594   2.496   1.064
 1953SOL    HW1 1464   2.653   2.470   0.988
 1953SOL    HW2 1465   2.566   2.592   1.053
 1954SOL     OW 1466   3.590   2.797   1.854
 1954SOL    HW1 1467   3.544   2.790   1.765
 1954SOL    HW2 1468   3.528   2.841   1.920
 1955SOL     OW 1469   2.169   1.925   0.618
 1955SOL    HW1 1470   2.158   2.019   0.651
 1955SOL    HW2 1471   2.164   1.862   0.695
 1957SOL     OW 1472   2.885   2.628   0.966
 1957SOL    HW1 1473   2.900   2.649   1.062
 1957SOL    HW2 1474   2.855   2.533   0.957
 1958SOL     OW 1475   2.842   3.435   1.700
 1958SOL    HW1 1476   2.822   3.479   1.612
 1958SOL    HW2 1477   2.881   3.344   1.684
 1960SOL     OW 1478   2.212   2.760   1.804
 1960SOL    HW1 1479   2.288   2.804   1.852
 1960SOL    HW2 1480   2.247   2.713   1.722
 1964SOL     OW 1481   2.181   2.672   0.949
 1964SOL    HW1 1482   2.274   2.708   0.954
 1964SOL    HW2 1483   2.175   2.587   1.001
 1965SOL     OW 1484   2.201   2.371   1.006
 1965SOL    HW1 1485   2.149   2.288   0.989
 1965SOL    HW2 1486   2.278   2.376   0.942
 1966SOL     OW 1487   3.000   2.242   1.678
 1966SOL    HW1 1488   2.955   2.305   1.742
 1966SOL    HW2 1489   3.093   2.273   1.661
 1967SOL     OW 1490   3.022   2.069   1.477
 1967SOL    HW1 1491   3.022   2.133   1.554
 1967SOL    HW2 1492   3.050   2.117   1.394
 1970SOL     OW 1493   2.366   3.430   0.910
 1970SOL    HW1 1494   2.432   3.504   0.919
 1970SOL    HW2 1495   2.410   3.351   0.868
 1971SOL     OW 1496   2.864   2.658   1.238
 1971SOL    HW1 1497   2.905   2.626   1.324
 1971SOL    HW2 1498   2.768   2.631   1.235
 1972SOL     OW 1499   1.902   2.406   1.114
 1972SOL    HW1 1500   1.987   2.373   1.073
 1972SOL    HW2 1501   1.915   2.421   1.212
 1973SOL     OW 1502   2.051   2.382   1.722
 1973SOL    HW1 1503   2.110   2.342   1.652
 1973SOL    HW2 1504   1.993   2.453   1.681
 1974SOL     OW 1505   3.231   2.812   1.660
 1974SOL    HW1 1506   3.270   2.901   1.680
 1974SOL    HW2 1507   3.241   2.792   1.563
 1976SOL     OW 1508   3.519   2.466   1.206
 1976SOL    HW1 1509   3.481   2.397   1.268
 1976SOL    HW2 1510   3.601   2.430   1.162
 1977SOL     OW 1511   2.114   3.426   1.744
 1977SOL    HW1 1512   2.084   3.483   1.820
 1977SOL    HW2 1513   2.107   3.329   1.770
 1978SOL     OW 1514   2.533   2.326   1.269
 1978SOL    HW1 1515   2.499   2.237   1.239
 1978SOL    HW2 1516   2.559   2.380   1.189
 1979SOL     OW 1517   2.792   3.540   1.465
 1979SOL    HW1 1518   2.768   3.522   1.370
 1979SOL    HW2 1519   2.822   3.634   1.475
 1981SOL     OW 1520   2.021   2.999   1.466
 1981SOL    HW1 1521   2.043   2.938   1.542
 1981SOL    HW2 1522   2.031   2.950   1.380
 1982SOL     OW 1523   3.209   2.921   1.234
 1982SOL    HW1 1524   3.233   2.858   1.160
 1982SOL    HW2 1525   3.119   2.961   1.216
 1986SOL     OW 1526   1.945   3.120   1.022
 1986SOL    HW1 1527   1.940   3.119   1.122
 1986SOL    HW2 1528   1.862   3.079   0.984
 1987SOL     OW 1529   2.550   3.524   1.716
 1987SOL    HW1 1530   2.494   3.605   1.725
 1987SOL    HW2 1531   2.602   3.528   1.630
 1991SOL     OW 1532   1.992   3.656   1.851
 1991SOL    HW1 1533   1.951   3.582   1.904
 1991SOL    HW2 1534   2.056   3.707   1.909
 1993SOL     OW 1535   2.692   3.135   1.422
 1993SOL    HW1 1536   2.687   3.168   1.517
 1993SOL    HW2 1537   2.606   3.154   1.376
 1997SOL     OW 1538   2.125   2.188   0.720
 1997SOL    HW1 1539   2.046   2.239   0.686
 1997SOL    HW2 1540   2.116   2.173   0.818
 1999SOL     OW 1541   2.684   2.864   1.372
 1999SOL    HW1 1542   2.724   2.863   1.280
 1999SOL    HW2 1543   2.694   2.956   1.412
 2002SOL     OW 1544   2.234   3.150   1.490
 2002SOL    HW1 1545   2.221   3.243   1.456
 2002SOL    HW2 1546   2.150   3.098   1.477
 2003SOL     OW 1547   3.476   3.154   1.289
 2003SOL    HW1 1548   3.536   3.157   1.369
 2003SOL    HW2 1549   3.401   3.218   1.302
 2005SOL     OW 1550   2.876   2.098   0.971
 2005SOL    HW1 1551   2.868   2.062   0.878
 2005SOL    HW2 1552   2.874   2.022   1.036
 2007SOL     OW 1553   3.571   2.247   1.381
 2007SOL    HW1 1554   3.644   2.316   1.385
 2007SOL    HW2 1555   3.599   2.172   1.322
 2009SOL     OW 1556   1.967   2.875   1.726
 2009SOL    HW1 1557   1.890   2.842   1.780
 2009SOL    HW2 1558   2.052   2.845   1.768
 2010SOL     OW 1559   2.534   2.065   1.489
 2010SOL    HW1 1560   2.624   2.049   1.449
 2010SOL    HW2 1561   2.542   2.070   1.588
 2011SOL     OW 1562   3.302   2.718   1.398
 2011SOL    HW1 1563   3.245   2.770   1.335
 2011SOL    HW2 1564   3.398   2.730   1.374
 2014SOL     OW 1565   2.475   2.704   1.431
 2014SOL    HW1 1566   2.531   2.785   1.414
 2014SOL    HW2 1567   2.534   2.624   1.434
 2016SOL     OW 1568   2.578   2.427   1.708
 2016SOL    HW1 1569   2.597   2.492   1.782
 2016SOL    HW2 1570   2.638   2.347   1.717
 2017SOL     OW 1571   3.312   3.082   1.633
 2017SOL    HW1 1572   3.303   3.072   1.732
 2017SOL    HW2 1573   3.408   3.075   1.607
 2018SOL     OW 1574   2.252   3.603   1.560
 2018SOL    HW1 1575   2.161   3.644   1.558
 2018SOL    HW2 1576   2.245   3.509   1.592
 2019SOL     OW 1577   3.536   2.745   1.254
 2019SOL    HW1 1578   3.509   2.656   1.217
 2019SOL    HW2 1579   3.537   2.813   1.181
 2021SOL     OW 1580   2.456   2.607   0.652
 2021SOL    HW1 1581   2.506   2.692   0.633
 2021SOL    HW2 1582   2.368   2.609   0.604
 2022SOL     OW 1583   3.639   2.204   1.642
 2022SOL    HW1 1584   3.622   2.235   1.548
 2022SOL    HW2 1585   3.555   2.167   1.680
 2023SOL     OW 1586   3.592   2.796   1.517
 2023SOL    HW1 1587   3.630   2.887   1.532
 2023SOL    HW2 1588   3.584   2.779   1.418
 2026SOL     OW 1589   2.721   2.818   0.861
 2026SOL    HW1 1590   2.775   2.749   0.909
 2026SOL    HW2 1591   2.689   2.887   0.927
 2029SOL     OW 1592   2.083   3.176   1.844
 2029SOL    HW1 1593   2.018   3.103   1.823
 2029SOL    HW2 1594   2.087   3.190   1.942
 2031SOL     OW 1595   2.534   3.253   1.624
 2031SOL    HW1 1596   2.456   3.203   1.662
 2031SOL    HW2 1597   2.531   3.348   1.655
 2032SOL     OW 1598   3.686   2.054   1.227
 2032SOL    HW1 1599   3.682   1.964   1.271
 2032SOL    HW2 1600   3.689   2.043   1.128
 2035SOL     OW 1601   2.179   2.409   1.280
 2035SOL    HW1 1602   2.217   2.350   1.352
 2035SOL    HW2 1603   2.219   2.383   1.192
 2037SOL     OW 1604   3.286   2.076   1.112
 2037SOL    HW1 1605   3.338   2.011   1.167
 2037SOL    HW2 1606   3.237   2.139   1.173
 2038SOL     OW 1607   2.863   1.896   1.154
 2038SOL    HW1 1608   2.800   1.824   1.123
 2038SOL    HW2 1609   2.956   1.860   1.154
 2040SOL     OW 1610   2.480   3.429   1.284
 2040SOL    HW1 1611   2.475   3.511   1.341
 2040SOL    HW2 1612   2.569   3.426   1.239
 2046SOL     OW 1613   2.092   2.490   1.975
 2046SOL    HW1 1614   1.999   2.488   2.012
 2046SOL    HW2 1615   2.093   2.451   1.883
 2047SOL     OW 1616   2.087   2.137   2.858
 2047SOL    HW1 1617   2.122   2.120   2.950
 2047SOL    HW2 1618   1.999   2.092   2.846
 2048SOL     OW 1619   1.881   2.230   2.509
 2048SOL    HW1 1620   1.799   2.273   2.548
 2048SOL    HW2 1621   1.853   2.157   2.446
 2049SOL     OW 1622   2.431   3.137   3.027
 2049SOL    HW1 1623   2.338   3.130   2.990
 2049SOL    HW2 1624   2.442   3.226   3.071
 2050SOL     OW 1625   3.417   3.373   2.565
 2050SOL    HW1 1626   3.360   3.357   2.646
 2050SOL    HW2 1627   3.358   3.383   2.485
 2051SOL     OW 1628   2.997   2.565   2.579
 2051SOL    HW1 1629   3.054   2.643   2.554
 2051SOL    HW2 1630   2.937   2.591   2.655
 2052SOL     OW 1631   3.617   2.469   2.093
 2052SOL    HW1 1632   3.605   2.456   1.994
 2052SOL    HW2 1633   3.587   2.388   2.142
 2053SOL     OW 1634   2.630   3.006   2.885
 2053SOL    HW1 1635   2.552   3.023   2.945
 2053SOL    HW2 1636   2.664   3.093   2.849
 2054SOL     OW 1637   2.712   2.660   3.685
 2054SOL    HW1 1638   2.708   2.736   3.750
 2054SOL    HW2 1639   2.734   2.696   3.594
 2055SOL     OW 1640   2.547   2.874   2.527
 2055SOL    HW1 1641   2.616   2.858   2.597
 2055SOL    HW2 1642   2.474   2.931   2.565
 2056SOL     OW 1643   2.548   3.023   3.665
 2056SOL    HW1 1644   2.608   3.102   3.679
 2056SOL    HW2 1645   2.462   3.054   3.624
 2057SOL     OW 1646   2.197   3.297   2.923
 2057SOL    HW1 1647   2.119   3.266   2.870
 2057SOL    HW2 1648   2.255   3.355   2.866
 2058SOL     OW 1649   3.322   3.367   3.201
 2058SOL    HW1 1650   3.346   3.461   3.227
 2058SOL    HW2 1651   3.306   3.313   3.283
 2059SOL     OW 1652   2.300   2.254   3.361
 2059SOL    HW1 1653   2.382   2.198   3.370
 2059SOL    HW2 1654   2.219   2.196   3.365
 2060SOL     OW 1655   3.465   2.309   2.599
 2060SOL    HW1 1656   3.391   2.355   2.549
 2060SOL    HW2 1657   3.516   2.377   2.652
 2061SOL     OW 1658   2.093   3.575   2.345
 2061SOL    HW1 1659   2.127   3.652   2.399
 2061SOL    HW2 1660   2.137   3.575   2.255
 2062SOL     OW 1661   2.989   3.203   3.552
 2062SOL    HW1 1662   3.036   3.203   3.640
 2062SOL    HW2 1663   2.941   3.116   3.541
 2063SOL     OW 1664   2.092   3.296   2.400
 2063SOL    HW1 1665   2.066   3.392   2.400
 2063SOL    HW2 1666   2.021   3.242   2.445
 2064SOL     OW 1667   2.102   2.953   2.748
 2064SOL    HW1 1668   2.116   2.869   2.800
 2064SOL    HW2 1669   2.047   3.017   2.803
 2065SOL     OW 1670   2.482   3.648   3.301
 2065SOL    HW1 1671   2.390   3.631   3.336
 2065SOL    HW2 1672   2.510   3.740   3.327
 2066SOL     OW 1673   2.468   2.826   1.985
 2066SOL    HW1 1674   2.475   2.910   1.931
 2066SOL    HW2 1675   2.514   2.839   2.073
 2067SOL     OW 1676   3.456   1.976   3.342
 2067SOL    HW1 1677   3.438   2.043   3.270
 2067SOL    HW2 1678   3.453   2.022   3.431
 2069SOL     OW 1679   1.889   3.458   1.979
 2069SOL    HW1 1680   1.870   3.362   2.000
 2069SOL    HW2 1681   1.856   3.516   2.054
 2070SOL     OW 1682   3.551   2.784   2.474
 2070SOL    HW1 1683   3.646   2.755   2.482
 2070SOL    HW2 1684   3.543   2.849   2.399
 2071SOL     OW 1685   3.503   2.970   2.294
 2071SOL    HW1 1686   3.589   2.972   2.242
 2071SOL    HW2 1687   3.517   3.017   2.382
 2072SOL     OW 1688   1.975   2.599   3.459
 2072SOL    HW1 1689   2.063   2.586   3.504
 2072SOL    HW2 1690   1.962   2.696   3.437
 2073SOL     OW 1691   2.475   3.227   2.588
 2073SOL    HW1 1692   2.426   3.140   2.597
 2073SOL    HW2 1693   2.452   3.270   2.501
 2074SOL     OW 1694   3.155   3.090   3.285
 2074SOL    HW1 1695   3.192   3.017   3.227
 2074SOL    HW2 1696   3.207   3.095   3.370
 2075SOL     OW 1697   2.671   1.866   2.364
 2075SOL    HW1 1698   2.711   1.957   2.355
 2075SOL    HW2 1699   2.571   1.874   2.370
 2076SOL     OW 1700   2.059   2.838   3.126
 2076SOL    HW1 1701   2.148   2.793   3.112
 2076SOL    HW2 1702   1.986   2.773   3.107
 2077SOL     OW 1703   3.387   2.861   2.052
 2077SOL    HW1 1704   3.324   2.785   2.065
 2077SOL    HW2 1705   3.435   2.879   2.138
 2079SOL     OW 1706   2.179   2.113   3.663
 2079SOL    HW1 1707   2.250   2.184   3.669
 2079SOL    HW2 1708   2.091   2.152   3.691
 2080SOL     OW 1709   3.328   3.279   2.815
 2080SOL    HW1 1710   3.269   3.285   2.895
 2080SOL    HW2 1711   3.313   3.191   2.769
 2081SOL     OW 1712   3.529   3.576   2.434
 2081SOL    HW1 1713   3.488   3.553   2.346
 2081SOL    HW2 1714   3.511   3.502   2.499
 2082SOL     OW 1715   2.460   2.591   2.132
 2082SOL    HW1 1716   2.484   2.660   2.064
 2082SOL    HW2 1717   2.382   2.624   2.186
 2083SOL     OW 1718   3.143   2.207   2.806
 2083SOL    HW1 1719   3.057   2.157   2.793
 2083SOL    HW2 1720   3.205   2.153   2.862
 2084SOL     OW 1721   3.438   3.524   2.169
 2084SOL    HW1 1722   3.527   3.570   2.172
 2084SOL    HW2 1723   3.417   3.500   2.074
 2085SOL     OW 1724   2.669   2.467   3.327
 2085SOL    HW1 1725   2.622   2.464   3.416
 2085SOL    HW2 1726   2.618   2.412   3.261
 2086SOL     OW 1727   3.256   2.331   3.536
 2086SOL    HW1 1728   3.236   2.374   3.624
 2086SOL    HW2 1729   3.334   2.269   3.545
 2087SOL     OW 1730   2.835   2.752   3.434
 2087SOL    HW1 1731   2.881   2.668   3.405
 2087SOL    HW2 1732   2.779   2.786   3.359
 2088SOL     OW 1733   2.853   2.272   3.104
 2088SOL    HW1 1734   2.776   2.306   3.158
 2088SOL    HW2 1735   2.819   2.221   3.025
 2089SOL     OW 1736   2.903   2.563   2.291
 2089SOL    HW1 1737   2.929   2.559   2.387
 2089SOL    HW2 1738   2.818   2.512   2.277
 2090SOL     OW 1739   1.938   2.673   2.651
 2090SOL    HW1 1740   2.037   2.661   2.660
 2090SOL    HW2 1741   1.914   2.768   2.672
 2091SOL     OW 1742   1.992   3.683   3.433
 2091SOL    HW1 1743   1.982   3.668   3.532
 2091SOL    HW2 1744   1.906   3.719   3.397
 2092SOL     OW 1745   2.727   2.210   2.057
 2092SOL    HW1 1746   2.786   2.273   2.008
 2092SOL    HW2 1747   2.746   2.116   2.028
 2094SOL     OW 1748   3.224   3.006   2.407
 2094SOL    HW1 1749   3.307   2.977   2.359
 2094SOL    HW2 1750   3.175   3.073   2.351
 2095SOL     OW 1751   2.412   2.058   2.747
 2095SOL    HW1 1752   2.407   2.053   2.847
 2095SOL    HW2 1753   2.414   2.154   2.718
 2096SOL     OW 1754   2.870   3.318   2.339
 2096SOL    HW1 1755   2.824   3.390   2.287
 2096SOL    HW2 1756   2.866   3.338   2.437
 2097SOL     OW 1757   2.213   3.663   2.715
 2097SOL    HW1 1758   2.263   3.577   2.721
 2097SOL    HW2 1759   2.278   3.740   2.712
 2098SOL     OW 1760   3.657   2.928   2.735
 2098SOL    HW1 1761   3.595   2.913   2.659
 2098SOL    HW2 1762   3.605   2.939   2.820
 2099SOL     OW 1763   3.089   3.412   3.368
 2099SOL    HW1 1764   3.095   3.335   3.432
 2099SOL    HW2 1765   3.037   3.386   3.288
 2100SOL     OW 1766   2.183   2.805   2.104
 2100SOL    HW1 1767   2.265   2.844   2.062
 2100SOL    HW2 1768   2.156   2.723   2.055
 2101SOL     OW 1769   3.320   2.597   2.590
 2101SOL    HW1 1770   3.315   2.532   2.665
 2101SOL    HW2 1771   3.400   2.656   2.603
 2102SOL     OW 1772   2.323   3.128   3.589
 2102SOL    HW1 1773   2.273   3.129   3.503
 2102SOL    HW2 1774   2.260   3.110   3.665
 2103SOL     OW 1775   2.973   3.638   2.099
 2103SOL    HW1 1776   2.913   3.576   2.149
 2103SOL    HW2 1777   3.004   3.594   2.014
 2104SOL     OW 1778   2.064   2.147   3.360
 2104SOL    HW1 1779   1.984   2.207   3.347
 2104SOL    HW2 1780   2.054   2.098   3.446
 2105SOL     OW 1781   3.494   3.239   1.943
 2105SOL    HW1 1782   3.462   3.333   1.933
 2105SOL    HW2 1783   3.418   3.176   1.931
 2106SOL     OW 1784   2.326   3.605   2.185
 2106SOL    HW1 1785   2.359   3.644   2.271
 2106SOL    HW2 1786   2.402   3.598   2.120
 2107SOL     OW 1787   3.262   1.969   2.288
 2107SOL    HW1 1788   3.238   1.932   2.198
 2107SOL    HW2 1789   3.361   1.985   2.292
 2108SOL     OW 1790   2.111   3.647   3.103
 2108SOL    HW1 1791   2.168   3.582   3.153
 2108SOL    HW2 1792   2.095   3.614   3.010
 2109SOL     OW 1793   2.802   3.560   2.766
 2109SOL    HW1 1794   2.882   3.503   2.787
 2109SOL    HW2 1795   2.753   3.520   2.689
 2110SOL     OW 1796   3.409   2.084   3.591
 2110SOL    HW1 1797   3.404   2.121   3.683
 2110SOL    HW2 1798   3.337   2.015   3.579
 2111SOL     OW 1799   2.476   1.984   1.979
 2111SOL    HW1 1800   2.574   1.962   1.986
 2111SOL    HW2 1801   2.445   1.967   1.886
 2112SOL     OW 1802   2.643   2.126   3.611
 2112SOL    HW1 1803   2.710   2.065   3.654
 2112SOL    HW2 1804   2.570   2.145   3.676
 2113SOL     OW 1805   2.750   3.376   3.057
 2113SOL    HW1 1806   2.727   3.351   2.963
 2113SOL    HW2 1807   2.811   3.307   3.096
 2114SOL     OW 1808   3.213   2.452   3.295
 2114SOL    HW1 1809   3.241   2.409   3.380
 2114SOL    HW2 1810   3.238   2.548   3.296
 2115SOL     OW 1811   2.665   3.264   2.786
 2115SOL    HW1 1812   2.755   3.278   2.744
 2115SOL    HW2 1813   2.594   3.266   2.715
 2116SOL     OW 1814   2.784   2.365   2.761
 2116SOL    HW1 1815   2.759   2.356   2.665
 2116SOL    HW2 1816   2.832   2.283   2.792
 2117SOL     OW 1817   2.401   1.926   2.374
 2117SOL    HW1 1818   2.320   1.927   2.432
 2117SOL    HW2 1819   2.404   2.009   2.319
 2118SOL     OW 1820   3.296   3.050   1.903
 2118SOL    HW1 1821   3.328   2.974   1.960
 2118SOL    HW2 1822   3.204   3.077   1.933
 2119SOL     OW 1823   2.159   1.897   2.033
 2119SOL    HW1 1824   2.208   1.981   2.012
 2119SOL    HW2 1825   2.221   1.832   2.078
 2120SOL     OW 1826   2.797   2.098   2.342
 2120SOL    HW1 1827   2.749   2.139   2.264
 2120SOL    HW2 1828   2.896   2.096   2.323
 2121SOL     OW 1829   2.938   2.545   3.326
 2121SOL    HW1 1830   2.858   2.484   3.329
 2121SOL    HW2 1831   3.019   2.492   3.302
 2122SOL     OW 1832   3.089   3.432   2.655
 2122SOL    HW1 1833   3.110   3.506   2.590
 2122SOL    HW2 1834   3.157   3.432   2.728
 2123SOL     OW 1835   2.321   3.014   2.603
 2123SOL    HW1 1836   2.250   2.987   2.668
 2123SOL    HW2 1837   2.295   2.986   2.510
 2124SOL     OW 1838   3.133   3.659   2.453
 2124SOL    HW1 1839   3.177   3.723   2.389
 2124SOL    HW2 1840   3.083   3.711   2.523
 2125SOL     OW 1841   2.894   2.411   1.878
 2125SOL    HW1 1842   2.853   2.493   1.839
 2125SOL    HW2 1843   2.958   2.437   1.951
 2126SOL     OW 1844   1.940   2.418   3.248
 2126SOL    HW1 1845   2.032   2.417   3.207
 2126SOL    HW2 1846   1.934   2.492   3.315
 2127SOL     OW 1847   2.423   2.084   3.009
 2127SOL    HW1 1848   2.461   2.000   3.046
 2127SOL    HW2 1849   2.335   2.103   3.053
 2128SOL     OW 1850   2.728   2.316   2.504
 2128SOL    HW1 1851   2.696   2.388   2.442
 2128SOL    HW2 1852   2.752   2.235   2.451
 2129SOL     OW 1853   2.879   1.901   2.615
 2129SOL    HW1 1854   2.807   1.906   2.546
 2129SOL    HW2 1855   2.855   1.832   2.684
 2130SOL     OW 1856   3.291   3.035   2.729
 2130SOL    HW1 1857   3.236   2.951   2.722
 2130SOL    HW2 1858   3.317   3.064   2.637
 2131SOL     OW 1859   3.328   2.452   2.854
 2131SOL    HW1 1860   3.298   2.357   2.861
 2131SOL    HW2 1861   3.401   2.468   2.920
 2132SOL     OW 1862   3.719   2.695   2.239
 2132SOL    HW1 1863   3.761   2.631   2.303
 2132SOL    HW2 1864   3.681   2.644   2.161
 2133SOL     OW 1865   2.350   3.247   2.036
 2133SOL    HW1 1866   2.263   3.232   2.083
 2133SOL    HW2 1867   2.333   3.273   1.941
 2134SOL     OW 1868   3.526   3.142   2.519
 2134SOL    HW1 1869   3.625   3.150   2.533
 2134SOL    HW2 1870   3.481   3.226   2.550
 2135SOL     OW 1871   3.252   2.437   1.940
 2135SOL    HW1 1872   3.198   2.416   2.021
 2135SOL    HW2 1873   3.343   2.396   1.949
 2137SOL     OW 1874   2.926   3.209   3.202
 2137SOL    HW1 1875   2.846   3.186   3.257
 2137SOL    HW2 1876   3.009   3.183   3.251
 2139SOL     OW 1877   2.973   3.057   2.962
 2139SOL    HW1 1878   2.933   3.101   3.043
 2139SOL    HW2 1879   2.932   3.094   2.879
 2140SOL     OW 1880   3.500   2.961   2.941
 2140SOL    HW1 1881   3.505   3.042   3.000
 2140SOL    HW2 1882   3.414   2.963   2.890
 2141SOL     OW 1883   2.777   1.951   3.264
 2141SOL    HW1 1884   2.802   1.931   3.169
 2141SOL    HW2 1885   2.849   2.007   3.306
 2142SOL     OW 1886   2.842   2.978   3.581
 2142SOL    HW1 1887   2.743   2.984   3.591
 2142SOL    HW2 1888   2.865   2.898   3.525
 2143SOL     OW 1889   2.567   2.912   2.230
 2143SOL    HW1 1890   2.553   2.919   2.329
 2143SOL    HW2 1891   2.651   2.861   2.212
 2144SOL     OW 1892   2.272   2.675   3.113
 2144SOL    HW1 1893   2.358   2.687   3.163
 2144SOL    HW2 1894   2.230   2.588   3.140
 2145SOL     OW 1895   3.136   2.248   3.124
 2145SOL    HW1 1896   3.157   2.322   3.188
 2145SOL    HW2 1897   3.047   2.265   3.081
 2146SOL     OW 1898   1.926   3.426   3.193
 2146SOL    HW1 1899   1.880   3.508   3.159
 2146SOL    HW2 1900   2.024   3.445   3.202
 2147SOL     OW 1901   2.229   2.962   2.363
 2147SOL    HW1 1902   2.222   3.045   2.307
 2147SOL    HW2 1903   2.233   2.882   2.303
 2148SOL     OW 1904   3.114   3.210   2.250
 2148SOL    HW1 1905   3.164   3.287   2.290
 2148SOL    HW2 1906   3.019   3.212   2.282
 2149SOL     OW 1907   3.134   3.307   3.004
 2149SOL    HW1 1908   3.181   3.320   3.091
 2149SOL    HW2 1909   3.068   3.233   3.013
 2150SOL     OW 1910   3.444   2.501   2.334
 2150SOL    HW1 1911   3.413   2.562   2.407
 2150SOL    HW2 1912   3.494   2.553   2.265
 2151SOL     OW 1913   2.216   3.372   3.191
 2151SOL    HW1 1914   2.195   3.328   3.104
 2151SOL    HW2 1915   2.313   3.398   3.194
 2152SOL     OW 1916   2.264   2.613   3.460
 2152SOL    HW1 1917   2.332   2.668   3.413
 2152SOL    HW2 1918   2.304   2.525   3.487
 2153SOL     OW 1919   3.449   2.641   3.532
 2153SOL    HW1 1920   3.357   2.679   3.527
 2153SOL    HW2 1921   3.509   2.688   3.467
 2154SOL     OW 1922   2.875   1.967   3.632
 2154SOL    HW1 1923   2.881   2.052   3.580
 2154SOL    HW2 1924   2.907   1.891   3.575
 2155SOL     OW 1925   2.366   1.912   3.602
 2155SOL    HW1 1926   2.324   1.855   3.532
 2155SOL    HW2 1927   2.300   1.981   3.634
 2156SOL     OW 1928   2.435   2.732   2.891
 2156SOL    HW1 1929   2.479   2.821   2.882
 2156SOL    HW2 1930   2.372   2.732   2.968
 2157SOL     OW 1931   3.222   2.724   2.907
 2157SOL    HW1 1932   3.147   2.724   2.841
 2157SOL    HW2 1933   3.259   2.632   2.916
 2158SOL     OW 1934   3.071   2.387   2.137
 2158SOL    HW1 1935   3.084   2.303   2.191
 2158SOL    HW2 1936   3.042   2.461   2.197
 2159SOL     OW 1937   2.169   2.075   3.093
 2159SOL    HW1 1938   2.146   2.112   3.183
 2159SOL    HW2 1939   2.139   1.980   3.087
 2160SOL     OW 1940   1.899   3.172   3.144
 2160SOL    HW1 1941   1.952   3.123   3.212
 2160SOL    HW2 1942   1.921   3.270   3.149
 2161SOL     OW 1943   2.594   2.496   2.926
 2161SOL    HW1 1944   2.653   2.470   2.850
 2161SOL    HW2 1945   2.566   2.592   2.915
 2163SOL     OW 1946   2.169   1.925   2.480
 2163SOL    HW1 1947   2.158   2.019   2.513
 2163SOL    HW2 1948   2.164   1.862   2.557
 2164SOL     OW 1949   3.484   2.229   2.236
 2164SOL    HW1 1950   3.486   2.153   2.300
 2164SOL    HW2 1951   3.436   2.306   2.276
 2165SOL     OW 1952   2.885   2.628   2.828
 2165SOL    HW1 1953   2.900   2.649   2.924
 2165SOL    HW2 1954   2.855   2.533   2.819
 2166SOL     OW 1955   2.842   3.435   3.562
 2166SOL    HW1 1956   2.822   3.479   3.474
 2166SOL    HW2 1957   2.881   3.344   3.546
 2168SOL     OW 1958   2.212   2.760   3.666
 2168SOL    HW1 1959   2.288   2.804   3.714
 2168SOL    HW2 1960   2.247   2.713   3.584
 2169SOL     OW 1961   3.402   2.136   1.987
 2169SOL    HW1 1962   3.341   2.061   2.010
 2169SOL    HW2 1963   3.424   2.188   2.070
 2170SOL     OW 1964   3.165   2.700   1.904
 2170SOL    HW1 1965   3.199   2.607   1.919
 2170SOL    HW2 1966   3.183   2.727   1.809
 2171SOL     OW 1967   2.930   3.195   2.711
 2171SOL    HW1 1968   2.937   3.111   2.656
 2171SOL    HW2 1969   2.992   3.264   2.675
 2172SOL     OW 1970   2.181   2.672   2.811
 2172SOL    HW1 1971   2.274   2.708   2.816
 2172SOL    HW2 1972   2.175   2.587   2.863
 2173SOL     OW 1973   3.000   2.242   3.540
 2173SOL    HW1 1974   2.955   2.305   3.604
 2173SOL    HW2 1975   3.093   2.273   3.523
 2174SOL     OW 1976   3.022   2.069   3.339
 2174SOL    HW1 1977   3.022   2.133   3.416
 2174SOL    HW2 1978   3.050   2.117   3.256
 2175SOL     OW 1979   1.870   3.188   2.062
 2175SOL    HW1 1980   1.777   3.209   2.031
 2175SOL    HW2 1981   1.880   3.089   2.075
 2176SOL     OW 1982   1.950   3.663   2.789
 2176SOL    HW1 1983   1.908   3.577   2.762
 2176SOL    HW2 1984   2.044   3.666   2.755
 2177SOL     OW 1985   2.366   3.430   2.772
 2177SOL    HW1 1986   2.432   3.504   2.781
 2177SOL    HW2 1987   2.410   3.351   2.730
 2178SOL     OW 1988   2.864   2.658   3.100
 2178SOL    HW1 1989   2.905   2.626   3.186
 2178SOL    HW2 1990   2.768   2.631   3.097
 2179SOL     OW 1991   1.902   2.406   2.976
 2179SOL    HW1 1992   1.987   2.373   2.935
 2179SOL    HW2 1993   1.915   2.421   3.074
 2180SOL     OW 1994   2.051   2.382   3.584
 2180SOL    HW1 1995   2.110   2.342   3.514
 2180SOL    HW2 1996   1.993   2.453   3.543
 2181SOL     OW 1997   3.231   2.812   3.522
 2181SOL    HW1 1998   3.270   2.901   3.542
 2181SOL    HW2 1999   3.241   2.792   3.425
 2182SOL     OW 2000   2.677   2.434   2.187
 2182SOL    HW1 2001   2.684   2.345   2.141
 2182SOL    HW2 2002   2.583   2.468   2.179
 2183SOL     OW 2003   3.519   2.466   3.068
 2183SOL    HW1 2004   3.481   2.397   3.130
 2183SOL    HW2 2005   3.601   2.430   3.024
 2184SOL     OW 2006   2.114   3.426   3.606
 2184SOL    HW1 2007   2.084   3.483   3.682
 2184SOL    HW2 2008   2.107   3.329   3.632
 2185SOL     OW 2009   2.533   2.326   3.131
 2185SOL    HW1 2010   2.499   2.237   3.101
 2185SOL    HW2 2011   2.559   2.380   3.051
 2186SOL     OW 2012   2.792   3.540   3.327
 2186SOL    HW1 2013   2.768   3.522   3.232
 2186SOL    HW2 2014   2.822   3.634   3.337
 2187SOL     OW 2015   2.021   2.999   3.328
 2187SOL    HW1 2016   2.043   2.938   3.404
 2187SOL    HW2 2017   2.031   2.950   3.242
 2188SOL     OW 2018   3.209   2.921   3.096
 2188SOL    HW1 2019   3.233   2.858   3.022
 2188SOL    HW2 2020   3.119   2.961   3.078
 2189SOL     OW 2021   3.164   2.717   2.171
 2189SOL    HW1 2022   3.078   2.686   2.213
 2189SOL    HW2 2023   3.160   2.703   2.072
 2191SOL     OW 2024   3.114   3.593   2.990
 2191SOL    HW1 2025   3.198   3.598   2.936
 2191SOL    HW2 2026   3.091   3.497   3.008
 2192SOL     OW 2027   1.945   3.120   2.884
 2192SOL    HW1 2028   1.940   3.119   2.984
 2192SOL    HW2 2029   1.862   3.079   2.846
 2193SOL     OW 2030   2.550   3.524   3.578
 2193SOL    HW1 2031   2.494   3.605   3.587
 2193SOL    HW2 2032   2.602   3.528   3.492
 2194SOL     OW 2033   3.588   1.997   2.385
 2194SOL    HW1 2034   3.661   1.980   2.318
 2194SOL    HW2 2035   3.557   1.910   2.423
 2195SOL     OW 2036   3.250   3.435   2.339
 2195SOL    HW1 2037   3.317   3.447   2.265
 2195SOL    HW2 2038   3.210   3.524   2.362
 2197SOL     OW 2039   3.142   2.789   2.534
 2197SOL    HW1 2040   3.202   2.708   2.536
 2197SOL    HW2 2041   3.182   2.858   2.474
 2198SOL     OW 2042   2.692   3.135   3.284
 2198SOL    HW1 2043   2.687   3.168   3.379
 2198SOL    HW2 2044   2.606   3.154   3.238
 2199SOL     OW 2045   2.534   3.478   2.016
 2199SOL    HW1 2046   2.543   3.488   1.917
 2199SOL    HW2 2047   2.494   3.389   2.037
 2201SOL     OW 2048   3.703   2.037   2.825
 2201SOL    HW1 2049   3.742   1.952   2.789
 2201SOL    HW2 2050   3.605   2.039   2.806
 2202SOL     OW 2051   2.125   2.188   2.582
 2202SOL    HW1 2052   2.046   2.239   2.548
 2202SOL    HW2 2053   2.116   2.173   2.680
 2203SOL     OW 2054   3.056   3.474   1.893
 2203SOL    HW1 2055   3.062   3.381   1.930
 2203SOL    HW2 2056   2.997   3.474   1.813
 2204SOL     OW 2057   2.684   2.864   3.234
 2204SOL    HW1 2058   2.724   2.863   3.142
 2204SOL    HW2 2059   2.694   2.956   3.274
 2205SOL     OW 2060   2.778   2.772   2.153
 2205SOL    HW1 2061   2.841   2.810   2.085
 2205SOL    HW2 2062   2.818   2.689   2.192
 2206SOL     OW 2063   3.366   3.469   1.906
 2206SOL    HW1 2064   3.274   3.506   1.913
 2206SOL    HW2 2065   3.404   3.489   1.816
 2207SOL     OW 2066   2.234   3.150   3.352
 2207SOL    HW1 2067   2.221   3.243   3.318
 2207SOL    HW2 2068   2.150   3.098   3.339
 2208SOL     OW 2069   3.476   3.154   3.151
 2208SOL    HW1 2070   3.536   3.157   3.231
 2208SOL    HW2 2071   3.401   3.218   3.164
 2209SOL     OW 2072   2.901   2.960   2.558
 2209SOL    HW1 2073   2.831   2.913   2.612
 2209SOL    HW2 2074   2.960   2.892   2.515
 2210SOL     OW 2075   2.876   2.098   2.833
 2210SOL    HW1 2076   2.868   2.062   2.740
 2210SOL    HW2 2077   2.874   2.022   2.898
 2211SOL     OW 2078   2.452   3.349   2.353
 2211SOL    HW1 2079   2.494   3.291   2.283
 2211SOL    HW2 2080   2.408   3.428   2.309
 2212SOL     OW 2081   3.571   2.247   3.243
 2212SOL    HW1 2082   3.644   2.316   3.247
 2212SOL    HW2 2083   3.599   2.172   3.184
 2213SOL     OW 2084   2.117   3.210   2.152
 2213SOL    HW1 2085   2.021   3.211   2.125
 2213SOL    HW2 2086   2.129   3.263   2.236
 2214SOL     OW 2087   1.967   2.875   3.588
 2214SOL    HW1 2088   1.890   2.842   3.642
 2214SOL    HW2 2089   2.052   2.845   3.630
 2215SOL     OW 2090   2.534   2.065   3.351
 2215SOL    HW1 2091   2.624   2.049   3.311
 2215SOL    HW2 2092   2.542   2.070   3.450
 2216SOL     OW 2093   1.937   2.207   1.895
 2216SOL    HW1 2094   1.845   2.179   1.866
 2216SOL    HW2 2095   1.968   2.284   1.839
 2217SOL     OW 2096   3.302   2.718   3.260
 2217SOL    HW1 2097   3.245   2.770   3.197
 2217SOL    HW2 2098   3.398   2.730   3.236
 2218SOL     OW 2099   1.934   2.028   2.180
 2218SOL    HW1 2100   1.917   2.111   2.126
 2218SOL    HW2 2101   2.024   1.991   2.158
 2219SOL     OW 2102   3.045   3.197   1.981
 2219SOL    HW1 2103   2.946   3.186   1.983
 2219SOL    HW2 2104   3.079   3.212   2.074
 2220SOL     OW 2105   2.475   2.704   3.293
 2220SOL    HW1 2106   2.531   2.785   3.276
 2220SOL    HW2 2107   2.534   2.624   3.296
 2221SOL     OW 2108   3.355   3.629   2.821
 2221SOL    HW1 2109   3.388   3.693   2.752
 2221SOL    HW2 2110   3.421   3.623   2.896
 2222SOL     OW 2111   2.578   2.427   3.570
 2222SOL    HW1 2112   2.597   2.492   3.644
 2222SOL    HW2 2113   2.638   2.347   3.579
 2223SOL     OW 2114   3.312   3.082   3.495
 2223SOL    HW1 2115   3.303   3.072   3.594
 2223SOL    HW2 2116   3.408   3.075   3.469
 2224SOL     OW 2117   2.252   3.603   3.422
 2224SOL    HW1 2118   2.161   3.644   3.420
 2224SOL    HW2 2119   2.245   3.509   3.454
 2225SOL     OW 2120   3.536   2.745   3.116
 2225SOL    HW1 2121   3.509   2.656   3.079
 2225SOL    HW2 2122   3.537   2.813   3.043
 2226SOL     OW 2123   3.087   2.187   2.311
 2226SOL    HW1 2124   3.152   2.113   2.300
 2226SOL    HW2 2125   3.107   2.237   2.395
 2227SOL     OW 2126   2.456   2.607   2.514
 2227SOL    HW1 2127   2.506   2.692   2.495
 2227SOL    HW2 2128   2.368   2.609   2.466
 2228SOL     OW 2129   3.639   2.204   3.504
 2228SOL    HW1 2130   3.622   2.235   3.410
 2228SOL    HW2 2131   3.555   2.167   3.542
 2229SOL     OW 2132   3.592   2.796   3.379
 2229SOL    HW1 2133   3.630   2.887   3.394
 2229SOL    HW2 2134   3.584   2.779   3.280
 2230SOL     OW 2135   2.721   3.236   1.878
 2230SOL    HW1 2136   2.675   3.251   1.966
 2230SOL    HW2 2137   2.765   3.321   1.848
 2231SOL     OW 2138   2.523   3.652   2.815
 2231SOL    HW1 2139   2.477   3.740   2.802
 2231SOL    HW2 2140   2.622   3.664   2.808
 2232SOL     OW 2141   2.721   2.818   2.723
 2232SOL    HW1 2142   2.775   2.749   2.771
 2232SOL    HW2 2143   2.689   2.887   2.789
 2233SOL     OW 2144   2.945   2.846   1.949
 2233SOL    HW1 2145   2.922   2.899   1.867
 2233SOL    HW2 2146   3.026   2.790   1.930
 2235SOL     OW 2147   2.083   3.176   3.706
 2235SOL    HW1 2148   2.018   3.103   3.685
 2235SOL    HW2 2149   2.087   3.190   3.804
 2236SOL     OW 2150   1.941   3.102   2.515
 2236SOL    HW1 2151   1.940   3.055   2.603
 2236SOL    HW2 2152   2.023   3.074   2.464
 2237SOL     OW 2153   2.534   3.253   3.486
 2237SOL    HW1 2154   2.456   3.203   3.524
 2237SOL    HW2 2155   2.531   3.348   3.517
 2238SOL     OW 2156   3.686   2.054   3.089
 2238SOL    HW1 2157   3.682   1.964   3.133
 2238SOL    HW2 2158   3.689   2.043   2.990
 2239SOL     OW 2159   3.567   3.349   2.966
 2239SOL    HW1 2160   3.474   3.324   2.939
 2239SOL    HW2 2161   3.593   3.299   3.048
 2240SOL     OW 2162   2.179   2.409   3.142
 2240SOL    HW1 2163   2.217   2.350   3.214
 2240SOL    HW2 2164   2.219   2.383   3.054
 2241SOL     OW 2165   2.674   3.448   2.549
 2241SOL    HW1 2166   2.706   3.458   2.455
 2241SOL    HW2 2167   2.595   3.386   2.551
 2242SOL     OW 2168   3.286   2.076   2.974
 2242SOL    HW1 2169   3.338   2.011   3.029
 2242SOL    HW2 2170   3.237   2.139   3.035
 2243SOL     OW 2171   2.863   1.896   3.016
 2243SOL    HW1 2172   2.800   1.824   2.985
 2243SOL    HW2 2173   2.956   1.860   3.016
 2244SOL     OW 2174   2.632   3.192   2.163
 2244SOL    HW1 2175   2.586   3.105   2.180
 2244SOL    HW2 2176   2.723   3.189   2.204
 2245SOL     OW 2177   2.480   3.429   3.146
 2245SOL    HW1 2178   2.475   3.511   3.203
 2245SOL    HW2 2179   2.569   3.426   3.101
 2246SOL     OW 2180   3.214   1.914   2.030
 2246SOL    HW1 2181   3.249   1.873   1.946
 2246SOL    HW2 2182   3.124   1.876   2.050
 2247SOL     OW 2183   3.162   2.315   2.553
 2247SOL    HW1 2184   3.103   2.395   2.557
 2247SOL    HW2 2185   3.177   2.280   2.646
 2248SOL     OW 2186   3.455   2.083   2.744
 2248SOL    HW1 2187   3.371   2.082   2.798
 2248SOL    HW2 2188   3.457   2.166   2.688
 2249SOL     OW 2189   1.901   2.939   2.162
 2249SOL    HW1 2190   2.000   2.928   2.153
 2249SOL    HW2 2191   1.861   2.853   2.194
 2250SOL     OW 2192   2.737   3.508   2.199
 2250SOL    HW1 2193   2.660   3.473   2.145
 2250SOL    HW2 2194   2.705   3.579   2.261
 2251SOL     OW 2195   2.092   2.490   3.837
 2251SOL    HW1 2196   1.999   2.488   3.874
 2251SOL    HW2 2197   2.093   2.451   3.745
 2263SOL     OW 2198   2.468   2.826   3.847
 2263SOL    HW1 2199   2.475   2.910   3.793
 2263SOL    HW2 2200   2.514   2.839   3.935
 2273SOL     OW 2201   2.460   2.591   3.994
 2273SOL    HW1 2202   2.484   2.660   3.926
 2273SOL    HW2 2203   2.382   2.624   4.048
 2278SOL     OW 2204   2.727   2.210   3.919
 2278SOL    HW1 2205   2.786   2.273   3.870
 2278SOL    HW2 2206   2.746   2.116   3.890
 2284SOL     OW 2207   2.183   2.805   3.966
 2284SOL    HW1 2208   2.265   2.844   3.924
 2284SOL    HW2 2209   2.156   2.723   3.917
 2291SOL     OW 2210   2.476   1.984   3.841
 2291SOL    HW1 2211   2.574   1.962   3.848
 2291SOL    HW2 2212   2.445   1.967   3.748
 2294SOL     OW 2213   2.159   1.897   3.895
 2294SOL    HW1 2214   2.208   1.981   3.874
 2294SOL    HW2 2215   2.221   1.832   3.940
 2298SOL     OW 2216   2.894   2.411   3.740
 2298SOL    HW1 2217   2.853   2.493   3.701
 2298SOL    HW2 2218   2.958   2.437   3.813
 2304SOL     OW 2219   3.252   2.437   3.802
 2304SOL    HW1 2220   3.198   2.416   3.883
 2304SOL    HW2 2221   3.343   2.396   3.811
 2305SOL     OW 2222   2.389   2.118   4.052
 2305SOL    HW1 2223   2.416   2.059   3.977
 2305SOL    HW2 2224   2.389   2.213   4.021
 2316SOL     OW 2225   3.165   2.700   3.766
 2316SOL    HW1 2226   3.199   2.607   3.781
 2316SOL    HW2 2227   3.183   2.727   3.671
 2320SOL     OW 2228   2.677   2.434   4.049
 2320SOL    HW1 2229   2.684   2.345   4.003
 2320SOL    HW2 2230   2.583   2.468   4.041
 2321SOL     OW 2231   2.335   2.362   3.915
 2321SOL    HW1 2232   2.396   2.442   3.919
 2321SOL    HW2 2233   2.240   2.393   3.922
 2330SOL     OW 2234   2.778   2.772   4.015
 2330SOL    HW1 2235   2.841   2.810   3.947
 2330SOL    HW2 2236   2.818   2.689   4.054
 2335SOL     OW 2237   1.937   2.207   3.757
 2335SOL    HW1 2238   1.845   2.179   3.728
 2335SOL    HW2 2239   1.968   2.284   3.701
 2336SOL     OW 2240   1.934   2.028   4.042
 2336SOL    HW1 2241   1.917   2.111   3.988
 2336SOL    HW2 2242   2.024   1.991   4.020
 2340SOL     OW 2243   2.721   3.236   3.740
 2340SOL    HW1 2244   2.675   3.251   3.828
 2340SOL    HW2 2245   2.765   3.321   3.710
 2343SOL     OW 2246   2.945   2.846   3.811
 2343SOL    HW1 2247   2.922   2.899   3.729
 2343SOL    HW2 2248   3.026   2.790   3.792
 2366SOL     OW 2249   2.179   3.975   1.801
 2366SOL    HW1 2250   2.250   4.046   1.807
 2366SOL    HW2 2251   2.091   4.014   1.829
 2382SOL     OW 2252   2.643   3.988   1.749
 2382SOL    HW1 2253   2.710   3.927   1.792
 2382SOL    HW2 2254   2.570   4.007   1.814
 2405SOL     OW 2255   2.875   3.829   1.770
 2405SOL    HW1 2256   2.881   3.914   1.718
 2405SOL    HW2 2257   2.907   3.753   1.713
 2406SOL     OW 2258   2.366   3.774   1.740
 2406SOL    HW1 2259   2.324   3.717   1.670
 2406SOL    HW2 2260   2.300   3.843   1.772
 2455SOL     OW 2261   2.087   3.999   2.858
 2455SOL    HW1 2262   2.122   3.982   2.950
 2455SOL    HW2 2263   1.999   3.954   2.846
 2466SOL     OW 2264   2.671   3.728   2.364
 2466SOL    HW1 2265   2.711   3.819   2.355
 2466SOL    HW2 2266   2.571   3.736   2.370
 2477SOL     OW 2267   2.412   3.920   2.747
 2477SOL    HW1 2268   2.407   3.915   2.847
 2477SOL    HW2 2269   2.414   4.016   2.718
 2480SOL     OW 2270   3.262   3.831   2.288
 2480SOL    HW1 2271   3.238   3.794   2.198
 2480SOL    HW2 2272   3.361   3.847   2.292
 2483SOL     OW 2273   2.476   3.846   1.979
 2483SOL    HW1 2274   2.574   3.824   1.986
 2483SOL    HW2 2275   2.445   3.829   1.886
 2487SOL     OW 2276   2.401   3.788   2.374
 2487SOL    HW1 2277   2.320   3.789   2.432
 2487SOL    HW2 2278   2.404   3.871   2.319
 2488SOL     OW 2279   2.159   3.759   2.033
 2488SOL    HW1 2280   2.208   3.843   2.012
 2488SOL    HW2 2281   2.221   3.694   2.078
 2489SOL     OW 2282   2.797   3.960   2.342
 2489SOL    HW1 2283   2.749   4.001   2.264
 2489SOL    HW2 2284   2.896   3.958   2.323
 2493SOL     OW 2285   2.423   3.946   3.009
 2493SOL    HW1 2286   2.461   3.862   3.046
 2493SOL    HW2 2287   2.335   3.965   3.053
 2495SOL     OW 2288   2.879   3.763   2.615
 2495SOL    HW1 2289   2.807   3.768   2.546
 2495SOL    HW2 2290   2.855   3.694   2.684
 2499SOL     OW 2291   2.389   3.980   2.190
 2499SOL    HW1 2292   2.416   3.921   2.115
 2499SOL    HW2 2293   2.389   4.075   2.159
 2512SOL     OW 2294   2.169   3.937   3.093
 2512SOL    HW1 2295   2.146   3.974   3.183
 2512SOL    HW2 2296   2.139   3.842   3.087
 2515SOL     OW 2297   2.169   3.787   2.480
 2515SOL    HW1 2298   2.158   3.881   2.513
 2515SOL    HW2 2299   2.164   3.724   2.557
 2533SOL     OW 2300   2.125   4.050   2.582
 2533SOL    HW1 2301   2.046   4.101   2.548
 2533SOL    HW2 2302   2.116   4.035   2.680
 2535SOL     OW 2303   2.876   3.960   2.833
 2535SOL    HW1 2304   2.868   3.924   2.740
 2535SOL    HW2 2305   2.874   3.884   2.898
 2541SOL     OW 2306   1.934   3.890   2.180
 2541SOL    HW1 2307   1.917   3.973   2.126
 2541SOL    HW2 2308   2.024   3.853   2.158
 2553SOL     OW 2309   2.863   3.758   3.016
 2553SOL    HW1 2310   2.800   3.686   2.985
 2553SOL    HW2 2311   2.956   3.722   3.016
 2554SOL     OW 2312   3.214   3.776   2.030
 2554SOL    HW1 2313   3.249   3.735   1.946
 2554SOL    HW2 2314   3.124   3.738   2.050
 2634SOL     OW 2315   3.854   1.821   1.571
 2634SOL    HW1 2316   3.844   1.806   1.670
 2634SOL    HW2 2317   3.768   1.857   1.535
 2688SOL     OW 2318   3.854   1.794   1.851
 2688SOL    HW1 2319   3.813   1.720   1.904
 2688SOL    HW2 2320   3.918   1.845   1.909
 2725SOL     OW 2321   3.955   1.713   2.345
 2725SOL    HW1 2322   3.989   1.790   2.399
 2725SOL    HW2 2323   3.999   1.713   2.255
 2731SOL     OW 2324   3.751   1.596   1.979
 2731SOL    HW1 2325   3.732   1.500   2.000
 2731SOL    HW2 2326   3.718   1.654   2.054
 2781SOL     OW 2327   3.732   1.326   2.062
 2781SOL    HW1 2328   3.639   1.347   2.031
 2781SOL    HW2 2329   3.742   1.227   2.075
 2782SOL     OW 2330   3.812   1.801   2.789
 2782SOL    HW1 2331   3.770   1.715   2.762
 2782SOL    HW2 2332   3.906   1.804   2.755
 2891SOL     OW 2333   3.837   2.599   1.597
 2891SOL    HW1 2334   3.925   2.586   1.642
 2891SOL    HW2 2335   3.824   2.696   1.575
 2916SOL     OW 2336   3.802   2.418   1.386
 2916SOL    HW1 2337   3.894   2.417   1.345
 2916SOL    HW2 2338   3.796   2.492   1.453
 2943SOL     OW 2339   3.913   2.382   1.722
 2943SOL    HW1 2340   3.972   2.342   1.652
 2943SOL    HW2 2341   3.855   2.453   1.681
 2961SOL     OW 2342   3.829   2.875   1.726
 2961SOL    HW1 2343   3.752   2.842   1.780
 2961SOL    HW2 2344   3.914   2.845   1.768
 2979SOL     OW 2345   3.954   2.490   1.975
 2979SOL    HW1 2346   3.861   2.488   2.012
 2979SOL    HW2 2347   3.955   2.451   1.883
 2980SOL     OW 2348   3.949   2.137   2.858
 2980SOL    HW1 2349   3.984   2.120   2.950
 2980SOL    HW2 2350   3.861   2.092   2.846
 2981SOL     OW 2351   3.743   2.230   2.509
 2981SOL    HW1 2352   3.661   2.273   2.548
 2981SOL    HW2 2353   3.715   2.157   2.446
 2990SOL     OW 2354   3.964   2.953   2.748
 2990SOL    HW1 2355   3.978   2.869   2.800
 2990SOL    HW2 2356   3.909   3.017   2.803
 2993SOL     OW 2357   3.846   2.505   2.425
 2993SOL    HW1 2358   3.801   2.417   2.442
 2993SOL    HW2 2359   3.845   2.559   2.509
 3002SOL     OW 2360   3.800   2.673   2.651
 3002SOL    HW1 2361   3.899   2.661   2.660
 3002SOL    HW2 2362   3.776   2.768   2.672
 3007SOL     OW 2363   4.045   2.805   2.104
 3007SOL    HW1 2364   4.127   2.844   2.062
 3007SOL    HW2 2365   4.018   2.723   2.055
 3013SOL     OW 2366   4.106   2.562   2.342
 3013SOL    HW1 2367   4.151   2.472   2.339
 3013SOL    HW2 2368   4.012   2.551   2.375
 3019SOL     OW 2369   4.021   1.897   2.033
 3019SOL    HW1 2370   4.070   1.981   2.012
 3019SOL    HW2 2371   4.083   1.832   2.078
 3021SOL     OW 2372   3.802   2.418   3.248
 3021SOL    HW1 2373   3.894   2.417   3.207
 3021SOL    HW2 2374   3.796   2.492   3.315
 3038SOL     OW 2375   4.031   1.925   2.480
 3038SOL    HW1 2376   4.020   2.019   2.513
 3038SOL    HW2 2377   4.026   1.862   2.557
 3044SOL     OW 2378   3.732   3.188   2.062
 3044SOL    HW1 2379   3.639   3.209   2.031
 3044SOL    HW2 2380   3.742   3.089   2.075
 3047SOL     OW 2381   3.764   2.406   2.976
 3047SOL    HW1 2382   3.849   2.373   2.935
 3047SOL    HW2 2383   3.777   2.421   3.074
 3054SOL     OW 2384   3.807   3.120   2.884
 3054SOL    HW1 2385   3.802   3.119   2.984
 3054SOL    HW2 2386   3.724   3.079   2.846
 3060SOL     OW 2387   3.987   2.188   2.582
 3060SOL    HW1 2388   3.908   2.239   2.548
 3060SOL    HW2 2389   3.978   2.173   2.680
 3067SOL     OW 2390   3.799   2.207   1.895
 3067SOL    HW1 2391   3.707   2.179   1.866
 3067SOL    HW2 2392   3.830   2.284   1.839
 3068SOL     OW 2393   3.796   2.028   2.180
 3068SOL    HW1 2394   3.779   2.111   2.126
 3068SOL    HW2 2395   3.886   1.991   2.158
 3075SOL     OW 2396   3.803   3.102   2.515
 3075SOL    HW1 2397   3.802   3.055   2.603
 3075SOL    HW2 2398   3.885   3.074   2.464
 3082SOL     OW 2399   3.763   2.939   2.162
 3082SOL    HW1 2400   3.862   2.928   2.153
 3082SOL    HW2 2401   3.723   2.853   2.194
   4.66161   4.66161   4.66161
