mobley_6743808_GMX.gro created by acpype (v: 2023.10.27) on Wed May 20 23:43:51 2026
 9829
    1MOL     C1    1   2.186   2.404   2.318
    1MOL     C2    2   2.187   2.416   2.458
    1MOL     C3    3   2.400   2.303   2.466
    1MOL     C4    4   2.293   2.343   2.253
    1MOL     C5    5   2.400   2.292   2.327
    1MOL     C6    6   2.293   2.365   2.531
    1MOL     C7    7   2.290   2.332   2.104
    1MOL     C8    8   2.515   2.225   2.260
    1MOL     O1    9   2.294   2.376   2.667
    1MOL     H1   10   2.102   2.444   2.262
    1MOL     H2   11   2.103   2.464   2.508
    1MOL     H3   12   2.483   2.264   2.524
    1MOL     H4   13   2.308   2.228   2.073
    1MOL     H5   14   2.194   2.364   2.064
    1MOL     H6   15   2.367   2.396   2.059
    1MOL     H7   16   2.591   2.198   2.333
    1MOL     H8   17   2.483   2.135   2.207
    1MOL     H9   18   2.561   2.291   2.185
    1MOL    H10   19   2.226   2.441   2.694
    2SOL     OW   20   0.230   0.628   0.113
    2SOL    HW1   21   0.137   0.626   0.150
    2SOL    HW2   22   0.231   0.589   0.021
    3SOL     OW   23   0.225   0.275   0.996
    3SOL    HW1   24   0.260   0.258   1.088
    3SOL    HW2   25   0.137   0.230   0.984
    4SOL     OW   26   0.019   0.368   0.647
    4SOL    HW1   27  -0.063   0.411   0.686
    4SOL    HW2   28  -0.009   0.295   0.584
    5SOL     OW   29   0.569   1.275   1.165
    5SOL    HW1   30   0.476   1.268   1.128
    5SOL    HW2   31   0.580   1.364   1.209
    6SOL     OW   32   1.555   1.511   0.703
    6SOL    HW1   33   1.498   1.495   0.784
    6SOL    HW2   34   1.496   1.521   0.623
    7SOL     OW   35   1.135   0.703   0.717
    7SOL    HW1   36   1.192   0.781   0.692
    7SOL    HW2   37   1.075   0.729   0.793
    8SOL     OW   38   1.755   0.607   0.231
    8SOL    HW1   39   1.743   0.594   0.132
    8SOL    HW2   40   1.725   0.526   0.280
    9SOL     OW   41   0.768   1.144   1.023
    9SOL    HW1   42   0.690   1.161   1.083
    9SOL    HW2   43   0.802   1.231   0.987
   10SOL     OW   44   0.850   0.798   1.823
   10SOL    HW1   45   0.846   0.874   1.888
   10SOL    HW2   46   0.872   0.834   1.732
   11SOL     OW   47   0.685   1.012   0.665
   11SOL    HW1   48   0.754   0.996   0.735
   11SOL    HW2   49   0.612   1.069   0.703
   12SOL     OW   50   0.686   1.161   1.803
   12SOL    HW1   51   0.746   1.240   1.817
   12SOL    HW2   52   0.600   1.192   1.762
   13SOL     OW   53   0.335   1.435   1.061
   13SOL    HW1   54   0.257   1.404   1.008
   13SOL    HW2   55   0.393   1.493   1.004
   14SOL     OW   56   1.460   1.505   1.339
   14SOL    HW1   57   1.484   1.599   1.365
   14SOL    HW2   58   1.444   1.451   1.421
   15SOL     OW   59   0.438   0.392   1.499
   15SOL    HW1   60   0.520   0.336   1.508
   15SOL    HW2   61   0.357   0.334   1.503
   16SOL     OW   62   1.603   0.447   0.737
   16SOL    HW1   63   1.529   0.493   0.687
   16SOL    HW2   64   1.654   0.515   0.790
   17SOL     OW   65   0.231   1.713   0.483
   17SOL    HW1   66   0.265   1.790   0.537
   17SOL    HW2   67   0.275   1.713   0.393
   18SOL     OW   68   1.127   1.341   1.690
   18SOL    HW1   69   1.174   1.341   1.778
   18SOL    HW2   70   1.079   1.254   1.679
   19SOL     OW   71   0.230   1.434   0.538
   19SOL    HW1   72   0.204   1.530   0.538
   19SOL    HW2   73   0.159   1.380   0.583
   20SOL     OW   74   0.240   1.091   0.886
   20SOL    HW1   75   0.254   1.007   0.938
   20SOL    HW2   76   0.185   1.155   0.941
   21SOL     OW   77   0.620   1.786   1.439
   21SOL    HW1   78   0.528   1.769   1.474
   21SOL    HW2   79   0.648   1.878   1.465
   22SOL     OW   80   0.606   0.964   0.123
   22SOL    HW1   81   0.613   1.048   0.069
   22SOL    HW2   82   0.652   0.977   0.211
   23SOL     OW   83   1.594   0.114   1.480
   23SOL    HW1   84   1.576   0.181   1.408
   23SOL    HW2   85   1.591   0.160   1.569
   24SOL     OW   86   0.122   0.643   0.563
   24SOL    HW1   87   0.077   0.555   0.580
   24SOL    HW2   88   0.121   0.697   0.647
   25SOL     OW   89   1.842   1.767   0.359
   25SOL    HW1   90   1.896   1.738   0.439
   25SOL    HW2   91   1.872   1.857   0.330
   26SOL     OW   92   0.027   1.596   0.117
   26SOL    HW1   93   0.008   1.500   0.138
   26SOL    HW2   94  -0.006   1.654   0.192
   27SOL     OW   95   1.689   0.922   0.612
   27SOL    HW1   96   1.784   0.893   0.620
   27SOL    HW2   97   1.681   0.987   0.537
   28SOL     OW   98   1.641   1.108   0.432
   28SOL    HW1   99   1.727   1.110   0.380
   28SOL    HW2  100   1.655   1.155   0.520
   29SOL     OW  101   0.113   0.737   1.597
   29SOL    HW1  102   0.201   0.724   1.642
   29SOL    HW2  103   0.100   0.834   1.575
   30SOL     OW  104   0.613   1.365   0.726
   30SOL    HW1  105   0.564   1.278   0.735
   30SOL    HW2  106   0.590   1.408   0.639
   31SOL     OW  107   1.293   1.228   1.423
   31SOL    HW1  108   1.330   1.155   1.365
   31SOL    HW2  109   1.345   1.233   1.508
   32SOL     OW  110   0.809   0.004   0.502
   32SOL    HW1  111   0.849   0.095   0.493
   32SOL    HW2  112   0.709   0.012   0.508
   33SOL     OW  113   0.197   0.976   1.264
   33SOL    HW1  114   0.286   0.931   1.250
   33SOL    HW2  115   0.124   0.911   1.245
   34SOL     OW  116   1.525   0.999   0.190
   34SOL    HW1  117   1.462   0.923   0.203
   34SOL    HW2  118   1.573   1.017   0.276
   35SOL     OW  119   1.187   1.792   1.616
   35SOL    HW1  120   1.211   1.852   1.540
   35SOL    HW2  121   1.194   1.697   1.586
   36SOL     OW  122   0.317   0.251   1.801
   36SOL    HW1  123   0.388   0.322   1.807
   36SOL    HW2  124   0.229   0.290   1.829
   37SOL     OW  125   1.466   1.417   0.953
   37SOL    HW1  126   1.407   1.423   1.033
   37SOL    HW2  127   1.451   1.329   0.907
   38SOL     OW  128   1.667   1.714   0.572
   38SOL    HW1  129   1.626   1.691   0.484
   38SOL    HW2  130   1.649   1.640   0.637
   39SOL     OW  131   0.598   0.729   0.270
   39SOL    HW1  132   0.622   0.798   0.202
   39SOL    HW2  133   0.520   0.762   0.324
   40SOL     OW  134   1.281   0.345   0.944
   40SOL    HW1  135   1.195   0.295   0.931
   40SOL    HW2  136   1.343   0.291   1.000
   41SOL     OW  137   1.576   1.662   0.307
   41SOL    HW1  138   1.665   1.708   0.310
   41SOL    HW2  139   1.555   1.638   0.212
   42SOL     OW  140   0.807   0.605   1.465
   42SOL    HW1  141   0.760   0.602   1.554
   42SOL    HW2  142   0.756   0.550   1.399
   43SOL     OW  143   1.394   0.469   1.674
   43SOL    HW1  144   1.374   0.512   1.762
   43SOL    HW2  145   1.472   0.407   1.683
   44SOL     OW  146   0.973   0.890   1.572
   44SOL    HW1  147   1.019   0.806   1.543
   44SOL    HW2  148   0.917   0.924   1.497
   45SOL     OW  149   0.991   0.410   1.242
   45SOL    HW1  150   0.914   0.444   1.296
   45SOL    HW2  151   0.957   0.359   1.163
   46SOL     OW  152   1.041   0.701   0.429
   46SOL    HW1  153   1.067   0.697   0.525
   46SOL    HW2  154   0.956   0.650   0.415
   47SOL     OW  155   0.076   0.811   0.789
   47SOL    HW1  156   0.175   0.799   0.798
   47SOL    HW2  157   0.052   0.906   0.810
   48SOL     OW  158   0.130   1.821   1.571
   48SOL    HW1  159   0.120   1.806   1.670
   48SOL    HW2  160   0.044   1.857   1.535
   49SOL     OW  161   0.865   0.348   0.195
   49SOL    HW1  162   0.924   0.411   0.146
   49SOL    HW2  163   0.884   0.254   0.166
   50SOL     OW  164   1.719   0.585   1.831
   50SOL    HW1  165   1.693   0.674   1.795
   50SOL    HW2  166   1.717   0.517   1.758
   51SOL     OW  167   1.362   1.144   0.545
   51SOL    HW1  168   1.445   1.115   0.497
   51SOL    HW2  169   1.313   1.211   0.489
   52SOL     OW  170   0.550   0.196   0.885
   52SOL    HW1  171   0.545   0.191   0.985
   52SOL    HW2  172   0.552   0.292   0.856
   53SOL     OW  173   1.008   1.456   0.477
   53SOL    HW1  174   0.962   1.528   0.425
   53SOL    HW2  175   1.004   1.476   0.575
   54SOL     OW  176   0.351   1.801   0.853
   54SOL    HW1  177   0.401   1.715   0.859
   54SOL    HW2  178   0.416   1.878   0.850
   55SOL     OW  179   1.795   1.066   0.873
   55SOL    HW1  180   1.733   1.051   0.797
   55SOL    HW2  181   1.743   1.077   0.958
   56SOL     OW  182   1.227   1.550   1.506
   56SOL    HW1  183   1.233   1.473   1.570
   56SOL    HW2  184   1.175   1.524   1.426
   57SOL     OW  185   0.321   0.943   0.242
   57SOL    HW1  186   0.403   0.982   0.200
   57SOL    HW2  187   0.294   0.861   0.193
   58SOL     OW  188   1.458   0.735   0.728
   58SOL    HW1  189   1.453   0.670   0.803
   58SOL    HW2  190   1.538   0.794   0.741
   59SOL     OW  191   0.461   1.266   1.727
   59SOL    HW1  192   0.411   1.267   1.641
   59SOL    HW2  193   0.398   1.248   1.803
   60SOL     OW  194   1.111   1.776   0.237
   60SOL    HW1  195   1.051   1.714   0.287
   60SOL    HW2  196   1.142   1.732   0.152
   61SOL     OW  197   0.202   0.285   1.498
   61SOL    HW1  198   0.122   0.345   1.485
   61SOL    HW2  199   0.192   0.236   1.584
   62SOL     OW  200   1.632   1.377   0.081
   62SOL    HW1  201   1.600   1.471   0.071
   62SOL    HW2  202   1.556   1.314   0.069
   63SOL     OW  203   0.464   1.743   0.323
   63SOL    HW1  204   0.497   1.782   0.409
   63SOL    HW2  205   0.540   1.736   0.258
   64SOL     OW  206   1.400   0.107   0.426
   64SOL    HW1  207   1.376   0.070   0.336
   64SOL    HW2  208   1.499   0.123   0.430
   65SOL     OW  209   0.249   1.785   1.241
   65SOL    HW1  210   0.306   1.720   1.291
   65SOL    HW2  211   0.233   1.752   1.148
   66SOL     OW  212   0.940   1.698   0.904
   66SOL    HW1  213   1.020   1.641   0.925
   66SOL    HW2  214   0.891   1.658   0.827
   67SOL     OW  215   0.382   0.700   0.480
   67SOL    HW1  216   0.427   0.610   0.477
   67SOL    HW2  217   0.288   0.689   0.513
   68SOL     OW  218   1.547   0.222   1.729
   68SOL    HW1  219   1.542   0.259   1.821
   68SOL    HW2  220   1.475   0.153   1.717
   69SOL     OW  221   0.614   0.122   0.117
   69SOL    HW1  222   0.712   0.100   0.124
   69SOL    HW2  223   0.583   0.105   0.024
   70SOL     OW  224   0.781   0.264   1.749
   70SOL    HW1  225   0.848   0.203   1.792
   70SOL    HW2  226   0.708   0.283   1.814
   71SOL     OW  227   0.888   1.514   1.195
   71SOL    HW1  228   0.865   1.489   1.101
   71SOL    HW2  229   0.949   1.445   1.234
   72SOL     OW  230   1.351   0.590   1.433
   72SOL    HW1  231   1.379   0.547   1.518
   72SOL    HW2  232   1.376   0.686   1.434
   73SOL     OW  233   0.803   1.402   0.924
   73SOL    HW1  234   0.893   1.416   0.882
   73SOL    HW2  235   0.732   1.404   0.853
   74SOL     OW  236   0.922   0.503   0.899
   74SOL    HW1  237   0.897   0.494   0.803
   74SOL    HW2  238   0.970   0.421   0.930
   75SOL     OW  239   0.539   0.064   0.512
   75SOL    HW1  240   0.458   0.065   0.570
   75SOL    HW2  241   0.542   0.147   0.457
   76SOL     OW  242   1.434   1.188   0.041
   76SOL    HW1  243   1.466   1.112   0.098
   76SOL    HW2  244   1.342   1.215   0.071
   77SOL     OW  245   0.297   0.035   0.171
   77SOL    HW1  246   0.346   0.119   0.150
   77SOL    HW2  247   0.359  -0.030   0.216
   78SOL     OW  248   0.935   0.236   0.480
   78SOL    HW1  249   0.887   0.277   0.402
   78SOL    HW2  250   1.034   0.234   0.461
   79SOL     OW  251   1.076   0.683   1.464
   79SOL    HW1  252   0.996   0.622   1.467
   79SOL    HW2  253   1.157   0.630   1.440
   80SOL     OW  254   1.227   1.570   0.793
   80SOL    HW1  255   1.248   1.644   0.728
   80SOL    HW2  256   1.295   1.570   0.866
   81SOL     OW  257   0.459   1.152   0.741
   81SOL    HW1  258   0.388   1.125   0.806
   81SOL    HW2  259   0.433   1.124   0.648
   82SOL     OW  260   1.271   1.797   0.591
   82SOL    HW1  261   1.315   1.861   0.527
   82SOL    HW2  262   1.221   1.849   0.661
   83SOL     OW  263   1.032   0.549   0.016
   83SOL    HW1  264   0.991   0.631  -0.023
   83SOL    HW2  265   1.096   0.575   0.089
   84SOL     OW  266   0.078   0.556   1.386
   84SOL    HW1  267   0.170   0.555   1.345
   84SOL    HW2  268   0.072   0.630   1.453
   85SOL     OW  269   0.561   0.222   1.147
   85SOL    HW1  270   0.599   0.138   1.184
   85SOL    HW2  271   0.473   0.241   1.191
   86SOL     OW  272   0.866   0.454   0.642
   86SOL    HW1  273   0.834   0.526   0.580
   86SOL    HW2  274   0.890   0.373   0.589
   87SOL     OW  275   1.017   0.039   0.753
   87SOL    HW1  276   0.945   0.044   0.684
   87SOL    HW2  277   0.993  -0.030   0.822
   88SOL     OW  278   1.429   1.173   0.867
   88SOL    HW1  279   1.374   1.089   0.860
   88SOL    HW2  280   1.455   1.202   0.775
   89SOL     OW  281   1.466   0.590   0.992
   89SOL    HW1  282   1.436   0.495   0.999
   89SOL    HW2  283   1.539   0.606   1.058
   90SOL     OW  284   1.857   0.833   0.377
   90SOL    HW1  285   1.899   0.769   0.441
   90SOL    HW2  286   1.819   0.782   0.299
   91SOL     OW  287   0.488   1.385   0.174
   91SOL    HW1  288   0.401   1.370   0.221
   91SOL    HW2  289   0.471   1.411   0.079
   92SOL     OW  290   1.664   1.280   0.657
   92SOL    HW1  291   1.763   1.288   0.671
   92SOL    HW2  292   1.619   1.364   0.688
   93SOL     OW  293   1.390   0.575   0.078
   93SOL    HW1  294   1.336   0.554   0.159
   93SOL    HW2  295   1.481   0.534   0.087
   94SOL     OW  296   0.527   0.256   0.328
   94SOL    HW1  297   0.554   0.197   0.253
   94SOL    HW2  298   0.527   0.351   0.297
   95SOL     OW  299   1.754   1.223   1.588
   95SOL    HW1  300   1.845   1.184   1.575
   95SOL    HW2  301   1.762   1.319   1.612
   96SOL     OW  302   1.064   1.347   1.340
   96SOL    HW1  303   0.984   1.324   1.395
   96SOL    HW2  304   1.147   1.321   1.389
   97SOL     OW  305   1.592   1.629   1.625
   97SOL    HW1  306   1.619   1.663   1.535
   97SOL    HW2  307   1.671   1.591   1.671
   98SOL     OW  308   1.111   1.195   1.100
   98SOL    HW1  309   1.071   1.239   1.181
   98SOL    HW2  310   1.070   1.232   1.017
   99SOL     OW  311   1.638   1.099   1.079
   99SOL    HW1  312   1.643   1.180   1.138
   99SOL    HW2  313   1.552   1.101   1.028
  100SOL     OW  314   0.915   0.089   1.402
  100SOL    HW1  315   0.940   0.069   1.307
  100SOL    HW2  316   0.987   0.145   1.444
  101SOL     OW  317   0.980   1.116   1.719
  101SOL    HW1  318   0.881   1.122   1.729
  101SOL    HW2  319   1.003   1.036   1.663
  102SOL     OW  320   0.705   1.050   0.368
  102SOL    HW1  321   0.691   1.057   0.467
  102SOL    HW2  322   0.789   0.999   0.350
  103SOL     OW  323   0.410   0.813   1.251
  103SOL    HW1  324   0.496   0.825   1.301
  103SOL    HW2  325   0.368   0.726   1.278
  104SOL     OW  326   1.274   0.386   1.262
  104SOL    HW1  327   1.295   0.460   1.326
  104SOL    HW2  328   1.185   0.403   1.219
  105SOL     OW  329   0.064   1.564   1.331
  105SOL    HW1  330   0.018   1.646   1.297
  105SOL    HW2  331   0.162   1.583   1.340
  106SOL     OW  332   0.367   1.100   0.501
  106SOL    HW1  333   0.360   1.183   0.445
  106SOL    HW2  334   0.371   1.020   0.441
  107SOL     OW  335   0.566   0.537   0.865
  107SOL    HW1  336   0.578   0.603   0.791
  107SOL    HW2  337   0.612   0.571   0.948
  108SOL     OW  338   1.252   1.348   0.388
  108SOL    HW1  339   1.302   1.425   0.428
  108SOL    HW2  340   1.157   1.350   0.420
  109SOL     OW  341   1.272   1.445   1.142
  109SOL    HW1  342   1.319   1.458   1.229
  109SOL    HW2  343   1.206   1.371   1.151
  110SOL     OW  344   1.582   0.639   0.472
  110SOL    HW1  345   1.551   0.700   0.545
  110SOL    HW2  346   1.632   0.691   0.403
  111SOL     OW  347   0.354   1.510   1.329
  111SOL    HW1  348   0.333   1.466   1.242
  111SOL    HW2  349   0.451   1.536   1.332
  112SOL     OW  350   0.402   0.751   1.598
  112SOL    HW1  351   0.470   0.806   1.551
  112SOL    HW2  352   0.442   0.663   1.625
  113SOL     OW  353   1.587   0.779   1.670
  113SOL    HW1  354   1.495   0.817   1.665
  113SOL    HW2  355   1.647   0.826   1.605
  114SOL     OW  356   1.013   0.105   1.770
  114SOL    HW1  357   1.019   0.190   1.718
  114SOL    HW2  358   1.045   0.029   1.713
  115SOL     OW  359   0.504   0.050   1.740
  115SOL    HW1  360   0.462  -0.007   1.670
  115SOL    HW2  361   0.438   0.119   1.772
  116SOL     OW  362   0.573   0.870   1.029
  116SOL    HW1  363   0.617   0.959   1.020
  116SOL    HW2  364   0.510   0.870   1.106
  117SOL     OW  365   1.360   0.862   1.045
  117SOL    HW1  366   1.285   0.862   0.979
  117SOL    HW2  367   1.397   0.770   1.054
  118SOL     OW  368   1.209   0.525   0.275
  118SOL    HW1  369   1.222   0.441   0.329
  118SOL    HW2  370   1.180   0.599   0.335
  119SOL     OW  371   0.307   0.213   1.231
  119SOL    HW1  372   0.284   0.250   1.321
  119SOL    HW2  373   0.277   0.118   1.225
  120SOL     OW  374   0.037   1.310   1.282
  120SOL    HW1  375   0.090   1.261   1.350
  120SOL    HW2  376   0.059   1.408   1.287
  121SOL     OW  377   0.732   0.634   1.064
  121SOL    HW1  378   0.791   0.608   0.988
  121SOL    HW2  379   0.704   0.730   1.053
  122SOL     OW  380   1.728   0.935   1.854
  122SOL    HW1  381   1.682   0.928   1.765
  122SOL    HW2  382   1.666   0.979   1.920
  123SOL     OW  383   0.307   0.063   0.618
  123SOL    HW1  384   0.296   0.157   0.651
  123SOL    HW2  385   0.302   0.000   0.695
  124SOL     OW  386   1.622   0.367   0.374
  124SOL    HW1  387   1.624   0.291   0.438
  124SOL    HW2  388   1.574   0.444   0.414
  125SOL     OW  389   1.023   0.766   0.966
  125SOL    HW1  390   1.038   0.787   1.062
  125SOL    HW2  391   0.993   0.671   0.957
  126SOL     OW  392   0.980   1.573   1.700
  126SOL    HW1  393   0.960   1.617   1.612
  126SOL    HW2  394   1.019   1.482   1.684
  127SOL     OW  395   1.859   1.518   1.605
  127SOL    HW1  396   1.873   1.545   1.510
  127SOL    HW2  397   1.942   1.540   1.658
  128SOL     OW  398   0.350   0.898   1.804
  128SOL    HW1  399   0.426   0.942   1.852
  128SOL    HW2  400   0.385   0.851   1.722
  129SOL     OW  401   1.540   0.274   0.125
  129SOL    HW1  402   1.479   0.199   0.148
  129SOL    HW2  403   1.562   0.326   0.208
  130SOL     OW  404   1.303   0.838   0.042
  130SOL    HW1  405   1.337   0.745   0.057
  130SOL    HW2  406   1.321   0.865  -0.053
  131SOL     OW  407   1.068   1.333   0.849
  131SOL    HW1  408   1.075   1.249   0.794
  131SOL    HW2  409   1.130   1.402   0.813
  132SOL     OW  410   0.319   0.810   0.949
  132SOL    HW1  411   0.412   0.846   0.954
  132SOL    HW2  412   0.313   0.725   1.001
  133SOL     OW  413   0.339   0.509   1.006
  133SOL    HW1  414   0.287   0.426   0.989
  133SOL    HW2  415   0.416   0.514   0.942
  134SOL     OW  416   1.138   0.380   1.678
  134SOL    HW1  417   1.093   0.443   1.742
  134SOL    HW2  418   1.231   0.411   1.661
  135SOL     OW  419   1.160   0.207   1.477
  135SOL    HW1  420   1.160   0.271   1.554
  135SOL    HW2  421   1.188   0.255   1.394
  136SOL     OW  422   0.008   1.326   0.200
  136SOL    HW1  423  -0.085   1.347   0.169
  136SOL    HW2  424   0.018   1.227   0.213
  137SOL     OW  425   0.088   1.801   0.927
  137SOL    HW1  426   0.046   1.715   0.900
  137SOL    HW2  427   0.182   1.804   0.893
  138SOL     OW  428   0.504   1.568   0.910
  138SOL    HW1  429   0.570   1.642   0.919
  138SOL    HW2  430   0.548   1.489   0.868
  139SOL     OW  431   1.002   0.796   1.238
  139SOL    HW1  432   1.043   0.764   1.324
  139SOL    HW2  433   0.906   0.769   1.235
  140SOL     OW  434   0.040   0.544   1.114
  140SOL    HW1  435   0.125   0.511   1.073
  140SOL    HW2  436   0.053   0.559   1.212
  141SOL     OW  437   0.189   0.520   1.722
  141SOL    HW1  438   0.248   0.480   1.652
  141SOL    HW2  439   0.131   0.591   1.681
  142SOL     OW  440   1.369   0.950   1.660
  142SOL    HW1  441   1.408   1.039   1.680
  142SOL    HW2  442   1.379   0.930   1.563
  143SOL     OW  443   0.815   0.572   0.325
  143SOL    HW1  444   0.822   0.483   0.279
  143SOL    HW2  445   0.721   0.606   0.317
  144SOL     OW  446   1.657   0.604   1.206
  144SOL    HW1  447   1.619   0.535   1.268
  144SOL    HW2  448   1.739   0.568   1.162
  145SOL     OW  449   0.252   1.564   1.744
  145SOL    HW1  450   0.222   1.621   1.820
  145SOL    HW2  451   0.245   1.467   1.770
  146SOL     OW  452   0.671   0.464   1.269
  146SOL    HW1  453   0.637   0.375   1.239
  146SOL    HW2  454   0.697   0.518   1.189
  147SOL     OW  455   0.930   1.678   1.465
  147SOL    HW1  456   0.906   1.660   1.370
  147SOL    HW2  457   0.960   1.772   1.475
  148SOL     OW  458   0.473   0.500   0.191
  148SOL    HW1  459   0.534   0.580   0.195
  148SOL    HW2  460   0.378   0.531   0.198
  149SOL     OW  461   0.159   1.137   1.466
  149SOL    HW1  462   0.181   1.076   1.542
  149SOL    HW2  463   0.169   1.088   1.380
  150SOL     OW  464   1.347   1.059   1.234
  150SOL    HW1  465   1.371   0.996   1.160
  150SOL    HW2  466   1.257   1.099   1.216
  151SOL     OW  467   1.302   0.855   0.309
  151SOL    HW1  468   1.216   0.824   0.351
  151SOL    HW2  469   1.298   0.841   0.210
  152SOL     OW  470   1.759   1.747   1.154
  152SOL    HW1  471   1.820   1.777   1.081
  152SOL    HW2  472   1.721   1.658   1.132
  153SOL     OW  473   1.252   1.731   1.128
  153SOL    HW1  474   1.336   1.736   1.074
  153SOL    HW2  475   1.229   1.635   1.146
  154SOL     OW  476   0.083   1.258   1.022
  154SOL    HW1  477   0.078   1.257   1.122
  154SOL    HW2  478   0.000   1.217   0.984
  155SOL     OW  479   0.688   1.662   1.716
  155SOL    HW1  480   0.632   1.743   1.725
  155SOL    HW2  481   0.740   1.666   1.630
  156SOL     OW  482   0.903   0.086   0.133
  156SOL    HW1  483   0.954   0.087   0.047
  156SOL    HW2  484   0.959   0.044   0.204
  157SOL     OW  485   1.726   0.135   0.523
  157SOL    HW1  486   1.799   0.118   0.456
  157SOL    HW2  487   1.695   0.048   0.561
  158SOL     OW  488   1.388   1.573   0.477
  158SOL    HW1  489   1.455   1.585   0.403
  158SOL    HW2  490   1.348   1.662   0.500
  159SOL     OW  491   0.130   1.794   1.851
  159SOL    HW1  492   0.089   1.720   1.904
  159SOL    HW2  493   0.194   1.845   1.909
  160SOL     OW  494   1.280   0.927   0.672
  160SOL    HW1  495   1.340   0.846   0.674
  160SOL    HW2  496   1.320   0.996   0.612
  161SOL     OW  497   0.830   1.273   1.422
  161SOL    HW1  498   0.825   1.306   1.517
  161SOL    HW2  499   0.744   1.292   1.376
  162SOL     OW  500   0.672   1.616   0.154
  162SOL    HW1  501   0.681   1.626   0.055
  162SOL    HW2  502   0.632   1.527   0.175
  163SOL     OW  503   1.650   1.720   1.394
  163SOL    HW1  504   1.703   1.730   1.310
  163SOL    HW2  505   1.623   1.810   1.428
  164SOL     OW  506   1.841   0.175   0.963
  164SOL    HW1  507   1.880   0.090   0.927
  164SOL    HW2  508   1.743   0.177   0.944
  165SOL     OW  509   0.263   0.326   0.720
  165SOL    HW1  510   0.184   0.377   0.686
  165SOL    HW2  511   0.254   0.311   0.818
  166SOL     OW  512   1.194   1.612   0.031
  166SOL    HW1  513   1.200   1.519   0.068
  166SOL    HW2  514   1.135   1.612  -0.049
  167SOL     OW  515   0.822   1.002   1.372
  167SOL    HW1  516   0.862   1.001   1.280
  167SOL    HW2  517   0.832   1.094   1.412
  168SOL     OW  518   0.916   0.910   0.291
  168SOL    HW1  519   0.979   0.948   0.223
  168SOL    HW2  520   0.956   0.827   0.330
  169SOL     OW  521   1.504   1.607   0.044
  169SOL    HW1  522   1.412   1.644   0.051
  169SOL    HW2  523   1.542   1.627  -0.046
  170SOL     OW  524   0.372   1.288   1.490
  170SOL    HW1  525   0.359   1.381   1.456
  170SOL    HW2  526   0.288   1.236   1.477
  171SOL     OW  527   1.614   1.292   1.289
  171SOL    HW1  528   1.674   1.295   1.369
  171SOL    HW2  529   1.539   1.356   1.302
  172SOL     OW  530   1.039   1.098   0.696
  172SOL    HW1  531   0.969   1.051   0.750
  172SOL    HW2  532   1.098   1.030   0.653
  173SOL     OW  533   1.014   0.236   0.971
  173SOL    HW1  534   1.006   0.200   0.878
  173SOL    HW2  535   1.012   0.160   1.036
  174SOL     OW  536   0.590   1.487   0.491
  174SOL    HW1  537   0.632   1.429   0.421
  174SOL    HW2  538   0.546   1.566   0.447
  175SOL     OW  539   1.709   0.385   1.381
  175SOL    HW1  540   1.782   0.454   1.385
  175SOL    HW2  541   1.737   0.310   1.322
  176SOL     OW  542   0.255   1.348   0.290
  176SOL    HW1  543   0.159   1.349   0.263
  176SOL    HW2  544   0.267   1.401   0.374
  177SOL     OW  545   0.105   1.013   1.726
  177SOL    HW1  546   0.028   0.980   1.780
  177SOL    HW2  547   0.190   0.983   1.768
  178SOL     OW  548   0.672   0.203   1.489
  178SOL    HW1  549   0.762   0.187   1.449
  178SOL    HW2  550   0.680   0.208   1.588
  179SOL     OW  551   0.075   0.345   0.033
  179SOL    HW1  552  -0.017   0.317   0.004
  179SOL    HW2  553   0.106   0.422  -0.023
  180SOL     OW  554   1.440   0.856   1.398
  180SOL    HW1  555   1.383   0.908   1.335
  180SOL    HW2  556   1.536   0.868   1.374
  181SOL     OW  557   0.072   0.166   0.318
  181SOL    HW1  558   0.055   0.249   0.264
  181SOL    HW2  559   0.162   0.129   0.296
  182SOL     OW  560   1.183   1.335   0.119
  182SOL    HW1  561   1.084   1.324   0.121
  182SOL    HW2  562   1.217   1.350   0.212
  183SOL     OW  563   0.613   0.842   1.431
  183SOL    HW1  564   0.669   0.923   1.414
  183SOL    HW2  565   0.672   0.762   1.434
  184SOL     OW  566   1.493   1.767   0.959
  184SOL    HW1  567   1.526   1.831   0.890
  184SOL    HW2  568   1.559   1.761   1.034
  185SOL     OW  569   0.716   0.565   1.708
  185SOL    HW1  570   0.735   0.630   1.782
  185SOL    HW2  571   0.776   0.485   1.717
  186SOL     OW  572   1.450   1.220   1.633
  186SOL    HW1  573   1.441   1.210   1.732
  186SOL    HW2  574   1.546   1.213   1.607
  187SOL     OW  575   0.390   1.741   1.560
  187SOL    HW1  576   0.299   1.782   1.558
  187SOL    HW2  577   0.383   1.647   1.592
  188SOL     OW  578   1.674   0.883   1.254
  188SOL    HW1  579   1.647   0.794   1.217
  188SOL    HW2  580   1.675   0.951   1.181
  189SOL     OW  581   1.225   0.325   0.449
  189SOL    HW1  582   1.290   0.251   0.438
  189SOL    HW2  583   1.245   0.375   0.533
  190SOL     OW  584   0.594   0.745   0.652
  190SOL    HW1  585   0.644   0.830   0.633
  190SOL    HW2  586   0.506   0.747   0.604
  191SOL     OW  587   1.777   0.342   1.642
  191SOL    HW1  588   1.760   0.373   1.548
  191SOL    HW2  589   1.693   0.305   1.680
  192SOL     OW  590   1.730   0.934   1.517
  192SOL    HW1  591   1.768   1.025   1.532
  192SOL    HW2  592   1.722   0.917   1.418
  193SOL     OW  593   0.859   1.374   0.016
  193SOL    HW1  594   0.813   1.389   0.104
  193SOL    HW2  595   0.903   1.459  -0.014
  194SOL     OW  596   0.661   1.790   0.953
  194SOL    HW1  597   0.615   1.878   0.940
  194SOL    HW2  598   0.760   1.802   0.946
  195SOL     OW  599   0.859   0.956   0.861
  195SOL    HW1  600   0.913   0.887   0.909
  195SOL    HW2  601   0.827   1.025   0.927
  196SOL     OW  602   1.083   0.984   0.087
  196SOL    HW1  603   1.060   1.037   0.005
  196SOL    HW2  604   1.164   0.928   0.068
  197SOL     OW  605   1.861   1.569   0.851
  197SOL    HW1  606   1.790   1.557   0.781
  197SOL    HW2  607   1.862   1.490   0.911
  198SOL     OW  608   0.221   1.314   1.844
  198SOL    HW1  609   0.156   1.241   1.823
  198SOL    HW2  610   0.225   1.328   1.942
  199SOL     OW  611   0.079   1.240   0.653
  199SOL    HW1  612   0.078   1.193   0.741
  199SOL    HW2  613   0.161   1.212   0.602
  200SOL     OW  614   0.672   1.391   1.624
  200SOL    HW1  615   0.594   1.341   1.662
  200SOL    HW2  616   0.669   1.486   1.655
  201SOL     OW  617   1.824   0.192   1.227
  201SOL    HW1  618   1.820   0.102   1.271
  201SOL    HW2  619   1.827   0.181   1.128
  202SOL     OW  620   0.428   0.424   0.520
  202SOL    HW1  621   0.458   0.352   0.458
  202SOL    HW2  622   0.389   0.384   0.603
  203SOL     OW  623   1.705   1.487   1.104
  203SOL    HW1  624   1.612   1.462   1.077
  203SOL    HW2  625   1.731   1.437   1.186
  204SOL     OW  626   0.317   0.547   1.280
  204SOL    HW1  627   0.355   0.488   1.352
  204SOL    HW2  628   0.357   0.521   1.192
  205SOL     OW  629   0.812   1.586   0.687
  205SOL    HW1  630   0.844   1.596   0.593
  205SOL    HW2  631   0.733   1.524   0.689
  206SOL     OW  632   1.424   0.214   1.112
  206SOL    HW1  633   1.476   0.149   1.167
  206SOL    HW2  634   1.375   0.277   1.173
  207SOL     OW  635   1.001   0.034   1.154
  207SOL    HW1  636   0.938  -0.038   1.123
  207SOL    HW2  637   1.094  -0.002   1.154
  208SOL     OW  638   0.770   1.330   0.301
  208SOL    HW1  639   0.724   1.243   0.318
  208SOL    HW2  640   0.861   1.327   0.342
  209SOL     OW  641   0.618   1.567   1.284
  209SOL    HW1  642   0.613   1.649   1.341
  209SOL    HW2  643   0.707   1.564   1.239
  210SOL     OW  644   1.352   0.052   0.168
  210SOL    HW1  645   1.387   0.011   0.084
  210SOL    HW2  646   1.262   0.014   0.188
  211SOL     OW  647   1.300   0.453   0.691
  211SOL    HW1  648   1.241   0.533   0.695
  211SOL    HW2  649   1.315   0.418   0.784
  212SOL     OW  650   1.593   0.221   0.882
  212SOL    HW1  651   1.509   0.220   0.936
  212SOL    HW2  652   1.595   0.304   0.826
  213SOL     OW  653   0.039   1.077   0.300
  213SOL    HW1  654   0.138   1.066   0.291
  213SOL    HW2  655  -0.001   0.991   0.332
  214SOL     OW  656   0.875   1.646   0.337
  214SOL    HW1  657   0.798   1.611   0.283
  214SOL    HW2  658   0.843   1.717   0.399
  215SOL     OW  659   0.230   0.628   1.975
  215SOL    HW1  660   0.137   0.626   2.012
  215SOL    HW2  661   0.231   0.589   1.883
  216SOL     OW  662   0.225   0.275   2.858
  216SOL    HW1  663   0.260   0.258   2.950
  216SOL    HW2  664   0.137   0.230   2.846
  217SOL     OW  665   0.019   0.368   2.509
  217SOL    HW1  666  -0.063   0.411   2.548
  217SOL    HW2  667  -0.009   0.295   2.446
  218SOL     OW  668   0.569   1.275   3.027
  218SOL    HW1  669   0.476   1.268   2.990
  218SOL    HW2  670   0.580   1.364   3.071
  219SOL     OW  671   1.555   1.511   2.565
  219SOL    HW1  672   1.498   1.495   2.646
  219SOL    HW2  673   1.496   1.521   2.485
  220SOL     OW  674   1.135   0.703   2.579
  220SOL    HW1  675   1.192   0.781   2.554
  220SOL    HW2  676   1.075   0.729   2.655
  221SOL     OW  677   1.755   0.607   2.093
  221SOL    HW1  678   1.743   0.594   1.994
  221SOL    HW2  679   1.725   0.526   2.142
  222SOL     OW  680   0.768   1.144   2.885
  222SOL    HW1  681   0.690   1.161   2.945
  222SOL    HW2  682   0.802   1.231   2.849
  223SOL     OW  683   0.850   0.798   3.685
  223SOL    HW1  684   0.846   0.874   3.750
  223SOL    HW2  685   0.872   0.834   3.594
  224SOL     OW  686   0.685   1.012   2.527
  224SOL    HW1  687   0.754   0.996   2.597
  224SOL    HW2  688   0.612   1.069   2.565
  225SOL     OW  689   0.686   1.161   3.665
  225SOL    HW1  690   0.746   1.240   3.679
  225SOL    HW2  691   0.600   1.192   3.624
  226SOL     OW  692   0.335   1.435   2.923
  226SOL    HW1  693   0.257   1.404   2.870
  226SOL    HW2  694   0.393   1.493   2.866
  227SOL     OW  695   1.460   1.505   3.201
  227SOL    HW1  696   1.484   1.599   3.227
  227SOL    HW2  697   1.444   1.451   3.283
  228SOL     OW  698   0.438   0.392   3.361
  228SOL    HW1  699   0.520   0.336   3.370
  228SOL    HW2  700   0.357   0.334   3.365
  229SOL     OW  701   1.603   0.447   2.599
  229SOL    HW1  702   1.529   0.493   2.549
  229SOL    HW2  703   1.654   0.515   2.652
  230SOL     OW  704   0.231   1.713   2.345
  230SOL    HW1  705   0.265   1.790   2.399
  230SOL    HW2  706   0.275   1.713   2.255
  231SOL     OW  707   1.127   1.341   3.552
  231SOL    HW1  708   1.174   1.341   3.640
  231SOL    HW2  709   1.079   1.254   3.541
  232SOL     OW  710   0.230   1.434   2.400
  232SOL    HW1  711   0.204   1.530   2.400
  232SOL    HW2  712   0.159   1.380   2.445
  233SOL     OW  713   0.240   1.091   2.748
  233SOL    HW1  714   0.254   1.007   2.800
  233SOL    HW2  715   0.185   1.155   2.803
  234SOL     OW  716   0.620   1.786   3.301
  234SOL    HW1  717   0.528   1.769   3.336
  234SOL    HW2  718   0.648   1.878   3.327
  235SOL     OW  719   0.606   0.964   1.985
  235SOL    HW1  720   0.613   1.048   1.931
  235SOL    HW2  721   0.652   0.977   2.073
  236SOL     OW  722   1.594   0.114   3.342
  236SOL    HW1  723   1.576   0.181   3.270
  236SOL    HW2  724   1.591   0.160   3.431
  237SOL     OW  725   0.122   0.643   2.425
  237SOL    HW1  726   0.077   0.555   2.442
  237SOL    HW2  727   0.121   0.697   2.509
  238SOL     OW  728   1.842   1.767   2.221
  238SOL    HW1  729   1.896   1.738   2.301
  238SOL    HW2  730   1.872   1.857   2.192
  239SOL     OW  731   0.027   1.596   1.979
  239SOL    HW1  732   0.008   1.500   2.000
  239SOL    HW2  733  -0.006   1.654   2.054
  240SOL     OW  734   1.689   0.922   2.474
  240SOL    HW1  735   1.784   0.893   2.482
  240SOL    HW2  736   1.681   0.987   2.399
  241SOL     OW  737   1.641   1.108   2.294
  241SOL    HW1  738   1.727   1.110   2.242
  241SOL    HW2  739   1.655   1.155   2.382
  242SOL     OW  740   0.113   0.737   3.459
  242SOL    HW1  741   0.201   0.724   3.504
  242SOL    HW2  742   0.100   0.834   3.437
  243SOL     OW  743   0.613   1.365   2.588
  243SOL    HW1  744   0.564   1.278   2.597
  243SOL    HW2  745   0.590   1.408   2.501
  244SOL     OW  746   1.293   1.228   3.285
  244SOL    HW1  747   1.330   1.155   3.227
  244SOL    HW2  748   1.345   1.233   3.370
  245SOL     OW  749   0.809   0.004   2.364
  245SOL    HW1  750   0.849   0.095   2.355
  245SOL    HW2  751   0.709   0.012   2.370
  246SOL     OW  752   0.197   0.976   3.126
  246SOL    HW1  753   0.286   0.931   3.112
  246SOL    HW2  754   0.124   0.911   3.107
  247SOL     OW  755   1.525   0.999   2.052
  247SOL    HW1  756   1.462   0.923   2.065
  247SOL    HW2  757   1.573   1.017   2.138
  248SOL     OW  758   1.187   1.792   3.478
  248SOL    HW1  759   1.211   1.852   3.402
  248SOL    HW2  760   1.194   1.697   3.448
  249SOL     OW  761   0.317   0.251   3.663
  249SOL    HW1  762   0.388   0.322   3.669
  249SOL    HW2  763   0.229   0.290   3.691
  250SOL     OW  764   1.466   1.417   2.815
  250SOL    HW1  765   1.407   1.423   2.895
  250SOL    HW2  766   1.451   1.329   2.769
  251SOL     OW  767   1.667   1.714   2.434
  251SOL    HW1  768   1.626   1.691   2.346
  251SOL    HW2  769   1.649   1.640   2.499
  252SOL     OW  770   0.598   0.729   2.132
  252SOL    HW1  771   0.622   0.798   2.064
  252SOL    HW2  772   0.520   0.762   2.186
  253SOL     OW  773   1.281   0.345   2.806
  253SOL    HW1  774   1.195   0.295   2.793
  253SOL    HW2  775   1.343   0.291   2.862
  254SOL     OW  776   1.576   1.662   2.169
  254SOL    HW1  777   1.665   1.708   2.172
  254SOL    HW2  778   1.555   1.638   2.074
  255SOL     OW  779   0.807   0.605   3.327
  255SOL    HW1  780   0.760   0.602   3.416
  255SOL    HW2  781   0.756   0.550   3.261
  256SOL     OW  782   1.394   0.469   3.536
  256SOL    HW1  783   1.374   0.512   3.624
  256SOL    HW2  784   1.472   0.407   3.545
  257SOL     OW  785   0.973   0.890   3.434
  257SOL    HW1  786   1.019   0.806   3.405
  257SOL    HW2  787   0.917   0.924   3.359
  258SOL     OW  788   0.991   0.410   3.104
  258SOL    HW1  789   0.914   0.444   3.158
  258SOL    HW2  790   0.957   0.359   3.025
  259SOL     OW  791   1.041   0.701   2.291
  259SOL    HW1  792   1.067   0.697   2.387
  259SOL    HW2  793   0.956   0.650   2.277
  260SOL     OW  794   0.076   0.811   2.651
  260SOL    HW1  795   0.175   0.799   2.660
  260SOL    HW2  796   0.052   0.906   2.672
  261SOL     OW  797   0.130   1.821   3.433
  261SOL    HW1  798   0.120   1.806   3.532
  261SOL    HW2  799   0.044   1.857   3.397
  262SOL     OW  800   0.865   0.348   2.057
  262SOL    HW1  801   0.924   0.411   2.008
  262SOL    HW2  802   0.884   0.254   2.028
  263SOL     OW  803   1.719   0.585   3.693
  263SOL    HW1  804   1.693   0.674   3.657
  263SOL    HW2  805   1.717   0.517   3.620
  264SOL     OW  806   1.362   1.144   2.407
  264SOL    HW1  807   1.445   1.115   2.359
  264SOL    HW2  808   1.313   1.211   2.351
  265SOL     OW  809   0.550   0.196   2.747
  265SOL    HW1  810   0.545   0.191   2.847
  265SOL    HW2  811   0.552   0.292   2.718
  266SOL     OW  812   1.008   1.456   2.339
  266SOL    HW1  813   0.962   1.528   2.287
  266SOL    HW2  814   1.004   1.476   2.437
  267SOL     OW  815   0.351   1.801   2.715
  267SOL    HW1  816   0.401   1.715   2.721
  267SOL    HW2  817   0.416   1.878   2.712
  268SOL     OW  818   1.795   1.066   2.735
  268SOL    HW1  819   1.733   1.051   2.659
  268SOL    HW2  820   1.743   1.077   2.820
  269SOL     OW  821   1.227   1.550   3.368
  269SOL    HW1  822   1.233   1.473   3.432
  269SOL    HW2  823   1.175   1.524   3.288
  270SOL     OW  824   0.321   0.943   2.104
  270SOL    HW1  825   0.403   0.982   2.062
  270SOL    HW2  826   0.294   0.861   2.055
  271SOL     OW  827   1.458   0.735   2.590
  271SOL    HW1  828   1.453   0.670   2.665
  271SOL    HW2  829   1.538   0.794   2.603
  272SOL     OW  830   0.461   1.266   3.589
  272SOL    HW1  831   0.411   1.267   3.503
  272SOL    HW2  832   0.398   1.248   3.665
  273SOL     OW  833   1.111   1.776   2.099
  273SOL    HW1  834   1.051   1.714   2.149
  273SOL    HW2  835   1.142   1.732   2.014
  274SOL     OW  836   0.202   0.285   3.360
  274SOL    HW1  837   0.122   0.345   3.347
  274SOL    HW2  838   0.192   0.236   3.446
  275SOL     OW  839   1.632   1.377   1.943
  275SOL    HW1  840   1.600   1.471   1.933
  275SOL    HW2  841   1.556   1.314   1.931
  276SOL     OW  842   0.464   1.743   2.185
  276SOL    HW1  843   0.497   1.782   2.271
  276SOL    HW2  844   0.540   1.736   2.120
  277SOL     OW  845   1.400   0.107   2.288
  277SOL    HW1  846   1.376   0.070   2.198
  277SOL    HW2  847   1.499   0.123   2.292
  278SOL     OW  848   0.249   1.785   3.103
  278SOL    HW1  849   0.306   1.720   3.153
  278SOL    HW2  850   0.233   1.752   3.010
  279SOL     OW  851   0.940   1.698   2.766
  279SOL    HW1  852   1.020   1.641   2.787
  279SOL    HW2  853   0.891   1.658   2.689
  280SOL     OW  854   0.382   0.700   2.342
  280SOL    HW1  855   0.427   0.610   2.339
  280SOL    HW2  856   0.288   0.689   2.375
  281SOL     OW  857   1.547   0.222   3.591
  281SOL    HW1  858   1.542   0.259   3.683
  281SOL    HW2  859   1.475   0.153   3.579
  282SOL     OW  860   0.614   0.122   1.979
  282SOL    HW1  861   0.712   0.100   1.986
  282SOL    HW2  862   0.583   0.105   1.886
  283SOL     OW  863   0.781   0.264   3.611
  283SOL    HW1  864   0.848   0.203   3.654
  283SOL    HW2  865   0.708   0.283   3.676
  284SOL     OW  866   0.888   1.514   3.057
  284SOL    HW1  867   0.865   1.489   2.963
  284SOL    HW2  868   0.949   1.445   3.096
  285SOL     OW  869   1.351   0.590   3.295
  285SOL    HW1  870   1.379   0.547   3.380
  285SOL    HW2  871   1.376   0.686   3.296
  286SOL     OW  872   0.803   1.402   2.786
  286SOL    HW1  873   0.893   1.416   2.744
  286SOL    HW2  874   0.732   1.404   2.715
  287SOL     OW  875   0.922   0.503   2.761
  287SOL    HW1  876   0.897   0.494   2.665
  287SOL    HW2  877   0.970   0.421   2.792
  288SOL     OW  878   0.539   0.064   2.374
  288SOL    HW1  879   0.458   0.065   2.432
  288SOL    HW2  880   0.542   0.147   2.319
  289SOL     OW  881   1.434   1.188   1.903
  289SOL    HW1  882   1.466   1.112   1.960
  289SOL    HW2  883   1.342   1.215   1.933
  290SOL     OW  884   0.297   0.035   2.033
  290SOL    HW1  885   0.346   0.119   2.012
  290SOL    HW2  886   0.359  -0.030   2.078
  291SOL     OW  887   0.935   0.236   2.342
  291SOL    HW1  888   0.887   0.277   2.264
  291SOL    HW2  889   1.034   0.234   2.323
  292SOL     OW  890   1.076   0.683   3.326
  292SOL    HW1  891   0.996   0.622   3.329
  292SOL    HW2  892   1.157   0.630   3.302
  293SOL     OW  893   1.227   1.570   2.655
  293SOL    HW1  894   1.248   1.644   2.590
  293SOL    HW2  895   1.295   1.570   2.728
  294SOL     OW  896   0.459   1.152   2.603
  294SOL    HW1  897   0.388   1.125   2.668
  294SOL    HW2  898   0.433   1.124   2.510
  295SOL     OW  899   1.271   1.797   2.453
  295SOL    HW1  900   1.315   1.861   2.389
  295SOL    HW2  901   1.221   1.849   2.523
  296SOL     OW  902   1.032   0.549   1.878
  296SOL    HW1  903   0.991   0.631   1.839
  296SOL    HW2  904   1.096   0.575   1.951
  297SOL     OW  905   0.078   0.556   3.248
  297SOL    HW1  906   0.170   0.555   3.207
  297SOL    HW2  907   0.072   0.630   3.315
  298SOL     OW  908   0.561   0.222   3.009
  298SOL    HW1  909   0.599   0.138   3.046
  298SOL    HW2  910   0.473   0.241   3.053
  299SOL     OW  911   0.866   0.454   2.504
  299SOL    HW1  912   0.834   0.526   2.442
  299SOL    HW2  913   0.890   0.373   2.451
  300SOL     OW  914   1.017   0.039   2.615
  300SOL    HW1  915   0.945   0.044   2.546
  300SOL    HW2  916   0.993  -0.030   2.684
  301SOL     OW  917   1.429   1.173   2.729
  301SOL    HW1  918   1.374   1.089   2.722
  301SOL    HW2  919   1.455   1.202   2.637
  302SOL     OW  920   1.466   0.590   2.854
  302SOL    HW1  921   1.436   0.495   2.861
  302SOL    HW2  922   1.539   0.606   2.920
  303SOL     OW  923   1.857   0.833   2.239
  303SOL    HW1  924   1.899   0.769   2.303
  303SOL    HW2  925   1.819   0.782   2.161
  304SOL     OW  926   0.488   1.385   2.036
  304SOL    HW1  927   0.401   1.370   2.083
  304SOL    HW2  928   0.471   1.411   1.941
  305SOL     OW  929   1.664   1.280   2.519
  305SOL    HW1  930   1.763   1.288   2.533
  305SOL    HW2  931   1.619   1.364   2.550
  306SOL     OW  932   1.390   0.575   1.940
  306SOL    HW1  933   1.336   0.554   2.021
  306SOL    HW2  934   1.481   0.534   1.949
  307SOL     OW  935   0.527   0.256   2.190
  307SOL    HW1  936   0.554   0.197   2.115
  307SOL    HW2  937   0.527   0.351   2.159
  308SOL     OW  938   1.754   1.223   3.450
  308SOL    HW1  939   1.845   1.184   3.437
  308SOL    HW2  940   1.762   1.319   3.474
  309SOL     OW  941   1.064   1.347   3.202
  309SOL    HW1  942   0.984   1.324   3.257
  309SOL    HW2  943   1.147   1.321   3.251
  310SOL     OW  944   1.592   1.629   3.487
  310SOL    HW1  945   1.619   1.663   3.397
  310SOL    HW2  946   1.671   1.591   3.533
  311SOL     OW  947   1.111   1.195   2.962
  311SOL    HW1  948   1.071   1.239   3.043
  311SOL    HW2  949   1.070   1.232   2.879
  312SOL     OW  950   1.638   1.099   2.941
  312SOL    HW1  951   1.643   1.180   3.000
  312SOL    HW2  952   1.552   1.101   2.890
  313SOL     OW  953   0.915   0.089   3.264
  313SOL    HW1  954   0.940   0.069   3.169
  313SOL    HW2  955   0.987   0.145   3.306
  314SOL     OW  956   0.980   1.116   3.581
  314SOL    HW1  957   0.881   1.122   3.591
  314SOL    HW2  958   1.003   1.036   3.525
  315SOL     OW  959   0.705   1.050   2.230
  315SOL    HW1  960   0.691   1.057   2.329
  315SOL    HW2  961   0.789   0.999   2.212
  316SOL     OW  962   0.410   0.813   3.113
  316SOL    HW1  963   0.496   0.825   3.163
  316SOL    HW2  964   0.368   0.726   3.140
  317SOL     OW  965   1.274   0.386   3.124
  317SOL    HW1  966   1.295   0.460   3.188
  317SOL    HW2  967   1.185   0.403   3.081
  318SOL     OW  968   0.064   1.564   3.193
  318SOL    HW1  969   0.018   1.646   3.159
  318SOL    HW2  970   0.162   1.583   3.202
  319SOL     OW  971   0.367   1.100   2.363
  319SOL    HW1  972   0.360   1.183   2.307
  319SOL    HW2  973   0.371   1.020   2.303
  320SOL     OW  974   0.566   0.537   2.727
  320SOL    HW1  975   0.578   0.603   2.653
  320SOL    HW2  976   0.612   0.571   2.810
  321SOL     OW  977   1.252   1.348   2.250
  321SOL    HW1  978   1.302   1.425   2.290
  321SOL    HW2  979   1.157   1.350   2.282
  322SOL     OW  980   1.272   1.445   3.004
  322SOL    HW1  981   1.319   1.458   3.091
  322SOL    HW2  982   1.206   1.371   3.013
  323SOL     OW  983   1.582   0.639   2.334
  323SOL    HW1  984   1.551   0.700   2.407
  323SOL    HW2  985   1.632   0.691   2.265
  324SOL     OW  986   0.354   1.510   3.191
  324SOL    HW1  987   0.333   1.466   3.104
  324SOL    HW2  988   0.451   1.536   3.194
  325SOL     OW  989   0.402   0.751   3.460
  325SOL    HW1  990   0.470   0.806   3.413
  325SOL    HW2  991   0.442   0.663   3.487
  326SOL     OW  992   1.587   0.779   3.532
  326SOL    HW1  993   1.495   0.817   3.527
  326SOL    HW2  994   1.647   0.826   3.467
  327SOL     OW  995   1.013   0.105   3.632
  327SOL    HW1  996   1.019   0.190   3.580
  327SOL    HW2  997   1.045   0.029   3.575
  328SOL     OW  998   0.504   0.050   3.602
  328SOL    HW1  999   0.462  -0.007   3.532
  328SOL    HW2 1000   0.438   0.119   3.634
  329SOL     OW 1001   0.573   0.870   2.891
  329SOL    HW1 1002   0.617   0.959   2.882
  329SOL    HW2 1003   0.510   0.870   2.968
  330SOL     OW 1004   1.360   0.862   2.907
  330SOL    HW1 1005   1.285   0.862   2.841
  330SOL    HW2 1006   1.397   0.770   2.916
  331SOL     OW 1007   1.209   0.525   2.137
  331SOL    HW1 1008   1.222   0.441   2.191
  331SOL    HW2 1009   1.180   0.599   2.197
  332SOL     OW 1010   0.307   0.213   3.093
  332SOL    HW1 1011   0.284   0.250   3.183
  332SOL    HW2 1012   0.277   0.118   3.087
  333SOL     OW 1013   0.037   1.310   3.144
  333SOL    HW1 1014   0.090   1.261   3.212
  333SOL    HW2 1015   0.059   1.408   3.149
  334SOL     OW 1016   0.732   0.634   2.926
  334SOL    HW1 1017   0.791   0.608   2.850
  334SOL    HW2 1018   0.704   0.730   2.915
  335SOL     OW 1019   1.728   0.935   3.716
  335SOL    HW1 1020   1.682   0.928   3.627
  335SOL    HW2 1021   1.666   0.979   3.782
  336SOL     OW 1022   0.307   0.063   2.480
  336SOL    HW1 1023   0.296   0.157   2.513
  336SOL    HW2 1024   0.302   0.000   2.557
  337SOL     OW 1025   1.622   0.367   2.236
  337SOL    HW1 1026   1.624   0.291   2.300
  337SOL    HW2 1027   1.574   0.444   2.276
  338SOL     OW 1028   1.023   0.766   2.828
  338SOL    HW1 1029   1.038   0.787   2.924
  338SOL    HW2 1030   0.993   0.671   2.819
  339SOL     OW 1031   0.980   1.573   3.562
  339SOL    HW1 1032   0.960   1.617   3.474
  339SOL    HW2 1033   1.019   1.482   3.546
  340SOL     OW 1034   1.859   1.518   3.467
  340SOL    HW1 1035   1.873   1.545   3.372
  340SOL    HW2 1036   1.942   1.540   3.520
  341SOL     OW 1037   0.350   0.898   3.666
  341SOL    HW1 1038   0.426   0.942   3.714
  341SOL    HW2 1039   0.385   0.851   3.584
  342SOL     OW 1040   1.540   0.274   1.987
  342SOL    HW1 1041   1.479   0.199   2.010
  342SOL    HW2 1042   1.562   0.326   2.070
  343SOL     OW 1043   1.303   0.838   1.904
  343SOL    HW1 1044   1.337   0.745   1.919
  343SOL    HW2 1045   1.321   0.865   1.809
  344SOL     OW 1046   1.068   1.333   2.711
  344SOL    HW1 1047   1.075   1.249   2.656
  344SOL    HW2 1048   1.130   1.402   2.675
  345SOL     OW 1049   0.319   0.810   2.811
  345SOL    HW1 1050   0.412   0.846   2.816
  345SOL    HW2 1051   0.313   0.725   2.863
  346SOL     OW 1052   0.339   0.509   2.868
  346SOL    HW1 1053   0.287   0.426   2.851
  346SOL    HW2 1054   0.416   0.514   2.804
  347SOL     OW 1055   1.138   0.380   3.540
  347SOL    HW1 1056   1.093   0.443   3.604
  347SOL    HW2 1057   1.231   0.411   3.523
  348SOL     OW 1058   1.160   0.207   3.339
  348SOL    HW1 1059   1.160   0.271   3.416
  348SOL    HW2 1060   1.188   0.255   3.256
  349SOL     OW 1061   0.008   1.326   2.062
  349SOL    HW1 1062  -0.085   1.347   2.031
  349SOL    HW2 1063   0.018   1.227   2.075
  350SOL     OW 1064   0.088   1.801   2.789
  350SOL    HW1 1065   0.046   1.715   2.762
  350SOL    HW2 1066   0.182   1.804   2.755
  351SOL     OW 1067   0.504   1.568   2.772
  351SOL    HW1 1068   0.570   1.642   2.781
  351SOL    HW2 1069   0.548   1.489   2.730
  352SOL     OW 1070   1.002   0.796   3.100
  352SOL    HW1 1071   1.043   0.764   3.186
  352SOL    HW2 1072   0.906   0.769   3.097
  353SOL     OW 1073   0.040   0.544   2.976
  353SOL    HW1 1074   0.125   0.511   2.935
  353SOL    HW2 1075   0.053   0.559   3.074
  354SOL     OW 1076   0.189   0.520   3.584
  354SOL    HW1 1077   0.248   0.480   3.514
  354SOL    HW2 1078   0.131   0.591   3.543
  355SOL     OW 1079   1.369   0.950   3.522
  355SOL    HW1 1080   1.408   1.039   3.542
  355SOL    HW2 1081   1.379   0.930   3.425
  356SOL     OW 1082   0.815   0.572   2.187
  356SOL    HW1 1083   0.822   0.483   2.141
  356SOL    HW2 1084   0.721   0.606   2.179
  357SOL     OW 1085   1.657   0.604   3.068
  357SOL    HW1 1086   1.619   0.535   3.130
  357SOL    HW2 1087   1.739   0.568   3.024
  358SOL     OW 1088   0.252   1.564   3.606
  358SOL    HW1 1089   0.222   1.621   3.682
  358SOL    HW2 1090   0.245   1.467   3.632
  359SOL     OW 1091   0.671   0.464   3.131
  359SOL    HW1 1092   0.637   0.375   3.101
  359SOL    HW2 1093   0.697   0.518   3.051
  360SOL     OW 1094   0.930   1.678   3.327
  360SOL    HW1 1095   0.906   1.660   3.232
  360SOL    HW2 1096   0.960   1.772   3.337
  361SOL     OW 1097   0.473   0.500   2.053
  361SOL    HW1 1098   0.534   0.580   2.057
  361SOL    HW2 1099   0.378   0.531   2.060
  362SOL     OW 1100   0.159   1.137   3.328
  362SOL    HW1 1101   0.181   1.076   3.404
  362SOL    HW2 1102   0.169   1.088   3.242
  363SOL     OW 1103   1.347   1.059   3.096
  363SOL    HW1 1104   1.371   0.996   3.022
  363SOL    HW2 1105   1.257   1.099   3.078
  364SOL     OW 1106   1.302   0.855   2.171
  364SOL    HW1 1107   1.216   0.824   2.213
  364SOL    HW2 1108   1.298   0.841   2.072
  365SOL     OW 1109   1.759   1.747   3.016
  365SOL    HW1 1110   1.820   1.777   2.943
  365SOL    HW2 1111   1.721   1.658   2.994
  366SOL     OW 1112   1.252   1.731   2.990
  366SOL    HW1 1113   1.336   1.736   2.936
  366SOL    HW2 1114   1.229   1.635   3.008
  367SOL     OW 1115   0.083   1.258   2.884
  367SOL    HW1 1116   0.078   1.257   2.984
  367SOL    HW2 1117   0.000   1.217   2.846
  368SOL     OW 1118   0.688   1.662   3.578
  368SOL    HW1 1119   0.632   1.743   3.587
  368SOL    HW2 1120   0.740   1.666   3.492
  369SOL     OW 1121   1.726   0.135   2.385
  369SOL    HW1 1122   1.799   0.118   2.318
  369SOL    HW2 1123   1.695   0.048   2.423
  370SOL     OW 1124   1.388   1.573   2.339
  370SOL    HW1 1125   1.455   1.585   2.265
  370SOL    HW2 1126   1.348   1.662   2.362
  371SOL     OW 1127   0.130   1.794   3.713
  371SOL    HW1 1128   0.089   1.720   3.766
  371SOL    HW2 1129   0.194   1.845   3.771
  372SOL     OW 1130   1.280   0.927   2.534
  372SOL    HW1 1131   1.340   0.846   2.536
  372SOL    HW2 1132   1.320   0.996   2.474
  373SOL     OW 1133   0.830   1.273   3.284
  373SOL    HW1 1134   0.825   1.306   3.379
  373SOL    HW2 1135   0.744   1.292   3.238
  374SOL     OW 1136   0.672   1.616   2.016
  374SOL    HW1 1137   0.681   1.626   1.917
  374SOL    HW2 1138   0.632   1.527   2.037
  375SOL     OW 1139   1.650   1.720   3.256
  375SOL    HW1 1140   1.703   1.730   3.172
  375SOL    HW2 1141   1.623   1.810   3.290
  376SOL     OW 1142   1.841   0.175   2.825
  376SOL    HW1 1143   1.880   0.090   2.789
  376SOL    HW2 1144   1.743   0.177   2.806
  377SOL     OW 1145   0.263   0.326   2.582
  377SOL    HW1 1146   0.184   0.377   2.548
  377SOL    HW2 1147   0.254   0.311   2.680
  378SOL     OW 1148   1.194   1.612   1.893
  378SOL    HW1 1149   1.200   1.519   1.930
  378SOL    HW2 1150   1.135   1.612   1.813
  379SOL     OW 1151   0.822   1.002   3.234
  379SOL    HW1 1152   0.862   1.001   3.142
  379SOL    HW2 1153   0.832   1.094   3.274
  380SOL     OW 1154   0.916   0.910   2.153
  380SOL    HW1 1155   0.979   0.948   2.085
  380SOL    HW2 1156   0.956   0.827   2.192
  381SOL     OW 1157   1.504   1.607   1.906
  381SOL    HW1 1158   1.412   1.644   1.913
  381SOL    HW2 1159   1.542   1.627   1.816
  382SOL     OW 1160   0.372   1.288   3.352
  382SOL    HW1 1161   0.359   1.381   3.318
  382SOL    HW2 1162   0.288   1.236   3.339
  383SOL     OW 1163   1.614   1.292   3.151
  383SOL    HW1 1164   1.674   1.295   3.231
  383SOL    HW2 1165   1.539   1.356   3.164
  384SOL     OW 1166   1.039   1.098   2.558
  384SOL    HW1 1167   0.969   1.051   2.612
  384SOL    HW2 1168   1.098   1.030   2.515
  385SOL     OW 1169   1.014   0.236   2.833
  385SOL    HW1 1170   1.006   0.200   2.740
  385SOL    HW2 1171   1.012   0.160   2.898
  386SOL     OW 1172   0.590   1.487   2.353
  386SOL    HW1 1173   0.632   1.429   2.283
  386SOL    HW2 1174   0.546   1.566   2.309
  387SOL     OW 1175   1.709   0.385   3.243
  387SOL    HW1 1176   1.782   0.454   3.247
  387SOL    HW2 1177   1.737   0.310   3.184
  388SOL     OW 1178   0.255   1.348   2.152
  388SOL    HW1 1179   0.159   1.349   2.125
  388SOL    HW2 1180   0.267   1.401   2.236
  389SOL     OW 1181   0.105   1.013   3.588
  389SOL    HW1 1182   0.028   0.980   3.642
  389SOL    HW2 1183   0.190   0.983   3.630
  390SOL     OW 1184   0.672   0.203   3.351
  390SOL    HW1 1185   0.762   0.187   3.311
  390SOL    HW2 1186   0.680   0.208   3.450
  391SOL     OW 1187   0.075   0.345   1.895
  391SOL    HW1 1188  -0.017   0.317   1.866
  391SOL    HW2 1189   0.106   0.422   1.839
  392SOL     OW 1190   1.440   0.856   3.260
  392SOL    HW1 1191   1.383   0.908   3.197
  392SOL    HW2 1192   1.536   0.868   3.236
  393SOL     OW 1193   0.072   0.166   2.180
  393SOL    HW1 1194   0.055   0.249   2.126
  393SOL    HW2 1195   0.162   0.129   2.158
  394SOL     OW 1196   1.183   1.335   1.981
  394SOL    HW1 1197   1.084   1.324   1.983
  394SOL    HW2 1198   1.217   1.350   2.074
  395SOL     OW 1199   0.613   0.842   3.293
  395SOL    HW1 1200   0.669   0.923   3.276
  395SOL    HW2 1201   0.672   0.762   3.296
  396SOL     OW 1202   1.493   1.767   2.821
  396SOL    HW1 1203   1.526   1.831   2.752
  396SOL    HW2 1204   1.559   1.761   2.896
  397SOL     OW 1205   0.716   0.565   3.570
  397SOL    HW1 1206   0.735   0.630   3.644
  397SOL    HW2 1207   0.776   0.485   3.579
  398SOL     OW 1208   1.450   1.220   3.495
  398SOL    HW1 1209   1.441   1.210   3.594
  398SOL    HW2 1210   1.546   1.213   3.469
  399SOL     OW 1211   0.390   1.741   3.422
  399SOL    HW1 1212   0.299   1.782   3.420
  399SOL    HW2 1213   0.383   1.647   3.454
  400SOL     OW 1214   1.674   0.883   3.116
  400SOL    HW1 1215   1.647   0.794   3.079
  400SOL    HW2 1216   1.675   0.951   3.043
  401SOL     OW 1217   1.225   0.325   2.311
  401SOL    HW1 1218   1.290   0.251   2.300
  401SOL    HW2 1219   1.245   0.375   2.395
  402SOL     OW 1220   0.594   0.745   2.514
  402SOL    HW1 1221   0.644   0.830   2.495
  402SOL    HW2 1222   0.506   0.747   2.466
  403SOL     OW 1223   1.777   0.342   3.504
  403SOL    HW1 1224   1.760   0.373   3.410
  403SOL    HW2 1225   1.693   0.305   3.542
  404SOL     OW 1226   1.730   0.934   3.379
  404SOL    HW1 1227   1.768   1.025   3.394
  404SOL    HW2 1228   1.722   0.917   3.280
  405SOL     OW 1229   0.859   1.374   1.878
  405SOL    HW1 1230   0.813   1.389   1.966
  405SOL    HW2 1231   0.903   1.459   1.848
  406SOL     OW 1232   0.661   1.790   2.815
  406SOL    HW1 1233   0.615   1.878   2.802
  406SOL    HW2 1234   0.760   1.802   2.808
  407SOL     OW 1235   0.859   0.956   2.723
  407SOL    HW1 1236   0.913   0.887   2.771
  407SOL    HW2 1237   0.827   1.025   2.789
  408SOL     OW 1238   1.083   0.984   1.949
  408SOL    HW1 1239   1.060   1.037   1.867
  408SOL    HW2 1240   1.164   0.928   1.930
  409SOL     OW 1241   1.861   1.569   2.713
  409SOL    HW1 1242   1.790   1.557   2.643
  409SOL    HW2 1243   1.862   1.490   2.773
  410SOL     OW 1244   0.221   1.314   3.706
  410SOL    HW1 1245   0.156   1.241   3.685
  410SOL    HW2 1246   0.225   1.328   3.804
  411SOL     OW 1247   0.079   1.240   2.515
  411SOL    HW1 1248   0.078   1.193   2.603
  411SOL    HW2 1249   0.161   1.212   2.464
  412SOL     OW 1250   0.672   1.391   3.486
  412SOL    HW1 1251   0.594   1.341   3.524
  412SOL    HW2 1252   0.669   1.486   3.517
  413SOL     OW 1253   1.824   0.192   3.089
  413SOL    HW1 1254   1.820   0.102   3.133
  413SOL    HW2 1255   1.827   0.181   2.990
  414SOL     OW 1256   0.428   0.424   2.382
  414SOL    HW1 1257   0.458   0.352   2.320
  414SOL    HW2 1258   0.389   0.384   2.465
  415SOL     OW 1259   1.705   1.487   2.966
  415SOL    HW1 1260   1.612   1.462   2.939
  415SOL    HW2 1261   1.731   1.437   3.048
  416SOL     OW 1262   0.317   0.547   3.142
  416SOL    HW1 1263   0.355   0.488   3.214
  416SOL    HW2 1264   0.357   0.521   3.054
  417SOL     OW 1265   0.812   1.586   2.549
  417SOL    HW1 1266   0.844   1.596   2.455
  417SOL    HW2 1267   0.733   1.524   2.551
  418SOL     OW 1268   1.424   0.214   2.974
  418SOL    HW1 1269   1.476   0.149   3.029
  418SOL    HW2 1270   1.375   0.277   3.035
  419SOL     OW 1271   1.001   0.034   3.016
  419SOL    HW1 1272   0.938  -0.038   2.985
  419SOL    HW2 1273   1.094  -0.002   3.016
  420SOL     OW 1274   0.770   1.330   2.163
  420SOL    HW1 1275   0.724   1.243   2.180
  420SOL    HW2 1276   0.861   1.327   2.204
  421SOL     OW 1277   0.618   1.567   3.146
  421SOL    HW1 1278   0.613   1.649   3.203
  421SOL    HW2 1279   0.707   1.564   3.101
  422SOL     OW 1280   1.352   0.052   2.030
  422SOL    HW1 1281   1.387   0.011   1.946
  422SOL    HW2 1282   1.262   0.014   2.050
  423SOL     OW 1283   1.300   0.453   2.553
  423SOL    HW1 1284   1.241   0.533   2.557
  423SOL    HW2 1285   1.315   0.418   2.646
  424SOL     OW 1286   1.593   0.221   2.744
  424SOL    HW1 1287   1.509   0.220   2.798
  424SOL    HW2 1288   1.595   0.304   2.688
  425SOL     OW 1289   0.039   1.077   2.162
  425SOL    HW1 1290   0.138   1.066   2.153
  425SOL    HW2 1291  -0.001   0.991   2.194
  426SOL     OW 1292   0.875   1.646   2.199
  426SOL    HW1 1293   0.798   1.611   2.145
  426SOL    HW2 1294   0.843   1.717   2.261
  427SOL     OW 1295   0.230   0.628   3.837
  427SOL    HW1 1296   0.137   0.626   3.874
  427SOL    HW2 1297   0.231   0.589   3.745
  428SOL     OW 1298   0.019   0.368   4.371
  428SOL    HW1 1299  -0.063   0.411   4.410
  428SOL    HW2 1300  -0.009   0.295   4.308
  429SOL     OW 1301   1.555   1.511   4.427
  429SOL    HW1 1302   1.498   1.495   4.508
  429SOL    HW2 1303   1.496   1.521   4.347
  430SOL     OW 1304   1.135   0.703   4.441
  430SOL    HW1 1305   1.192   0.781   4.416
  430SOL    HW2 1306   1.075   0.729   4.517
  431SOL     OW 1307   1.755   0.607   3.955
  431SOL    HW1 1308   1.743   0.594   3.856
  431SOL    HW2 1309   1.725   0.526   4.004
  432SOL     OW 1310   0.768   1.144   4.747
  432SOL    HW1 1311   0.690   1.161   4.807
  432SOL    HW2 1312   0.802   1.231   4.711
  433SOL     OW 1313   0.685   1.012   4.389
  433SOL    HW1 1314   0.754   0.996   4.459
  433SOL    HW2 1315   0.612   1.069   4.427
  434SOL     OW 1316   1.603   0.447   4.461
  434SOL    HW1 1317   1.529   0.493   4.411
  434SOL    HW2 1318   1.654   0.515   4.514
  435SOL     OW 1319   0.231   1.713   4.207
  435SOL    HW1 1320   0.265   1.790   4.261
  435SOL    HW2 1321   0.275   1.713   4.117
  436SOL     OW 1322   0.230   1.434   4.262
  436SOL    HW1 1323   0.204   1.530   4.262
  436SOL    HW2 1324   0.159   1.380   4.307
  437SOL     OW 1325   0.240   1.091   4.610
  437SOL    HW1 1326   0.254   1.007   4.662
  437SOL    HW2 1327   0.185   1.155   4.665
  438SOL     OW 1328   0.606   0.964   3.847
  438SOL    HW1 1329   0.613   1.048   3.793
  438SOL    HW2 1330   0.652   0.977   3.935
  439SOL     OW 1331   0.122   0.643   4.287
  439SOL    HW1 1332   0.077   0.555   4.304
  439SOL    HW2 1333   0.121   0.697   4.371
  440SOL     OW 1334   1.842   1.767   4.083
  440SOL    HW1 1335   1.896   1.738   4.163
  440SOL    HW2 1336   1.872   1.857   4.054
  441SOL     OW 1337   0.027   1.596   3.841
  441SOL    HW1 1338   0.008   1.500   3.862
  441SOL    HW2 1339  -0.006   1.654   3.916
  442SOL     OW 1340   1.689   0.922   4.336
  442SOL    HW1 1341   1.784   0.893   4.344
  442SOL    HW2 1342   1.681   0.987   4.261
  443SOL     OW 1343   1.641   1.108   4.156
  443SOL    HW1 1344   1.727   1.110   4.104
  443SOL    HW2 1345   1.655   1.155   4.244
  444SOL     OW 1346   0.613   1.365   4.450
  444SOL    HW1 1347   0.564   1.278   4.459
  444SOL    HW2 1348   0.590   1.408   4.363
  445SOL     OW 1349   0.809   0.004   4.226
  445SOL    HW1 1350   0.849   0.095   4.217
  445SOL    HW2 1351   0.709   0.012   4.232
  446SOL     OW 1352   1.525   0.999   3.914
  446SOL    HW1 1353   1.462   0.923   3.927
  446SOL    HW2 1354   1.573   1.017   4.000
  447SOL     OW 1355   1.667   1.714   4.296
  447SOL    HW1 1356   1.626   1.691   4.208
  447SOL    HW2 1357   1.649   1.640   4.361
  448SOL     OW 1358   0.598   0.729   3.994
  448SOL    HW1 1359   0.622   0.798   3.926
  448SOL    HW2 1360   0.520   0.762   4.048
  449SOL     OW 1361   1.281   0.345   4.668
  449SOL    HW1 1362   1.195   0.295   4.655
  449SOL    HW2 1363   1.343   0.291   4.724
  450SOL     OW 1364   1.576   1.662   4.031
  450SOL    HW1 1365   1.665   1.708   4.034
  450SOL    HW2 1366   1.555   1.638   3.936
  451SOL     OW 1367   1.041   0.701   4.153
  451SOL    HW1 1368   1.067   0.697   4.249
  451SOL    HW2 1369   0.956   0.650   4.139
  452SOL     OW 1370   0.076   0.811   4.513
  452SOL    HW1 1371   0.175   0.799   4.522
  452SOL    HW2 1372   0.052   0.906   4.534
  453SOL     OW 1373   0.865   0.348   3.919
  453SOL    HW1 1374   0.924   0.411   3.870
  453SOL    HW2 1375   0.884   0.254   3.890
  454SOL     OW 1376   1.362   1.144   4.269
  454SOL    HW1 1377   1.445   1.115   4.221
  454SOL    HW2 1378   1.313   1.211   4.213
  455SOL     OW 1379   1.008   1.456   4.201
  455SOL    HW1 1380   0.962   1.528   4.149
  455SOL    HW2 1381   1.004   1.476   4.299
  456SOL     OW 1382   0.351   1.801   4.577
  456SOL    HW1 1383   0.401   1.715   4.583
  456SOL    HW2 1384   0.416   1.878   4.574
  457SOL     OW 1385   1.795   1.066   4.597
  457SOL    HW1 1386   1.733   1.051   4.521
  457SOL    HW2 1387   1.743   1.077   4.682
  458SOL     OW 1388   0.321   0.943   3.966
  458SOL    HW1 1389   0.403   0.982   3.924
  458SOL    HW2 1390   0.294   0.861   3.917
  459SOL     OW 1391   1.458   0.735   4.452
  459SOL    HW1 1392   1.453   0.670   4.527
  459SOL    HW2 1393   1.538   0.794   4.465
  460SOL     OW 1394   1.111   1.776   3.961
  460SOL    HW1 1395   1.051   1.714   4.011
  460SOL    HW2 1396   1.142   1.732   3.876
  461SOL     OW 1397   1.632   1.377   3.805
  461SOL    HW1 1398   1.600   1.471   3.795
  461SOL    HW2 1399   1.556   1.314   3.793
  462SOL     OW 1400   0.464   1.743   4.047
  462SOL    HW1 1401   0.497   1.782   4.133
  462SOL    HW2 1402   0.540   1.736   3.982
  463SOL     OW 1403   1.400   0.107   4.150
  463SOL    HW1 1404   1.376   0.070   4.060
  463SOL    HW2 1405   1.499   0.123   4.154
  464SOL     OW 1406   0.382   0.700   4.204
  464SOL    HW1 1407   0.427   0.610   4.201
  464SOL    HW2 1408   0.288   0.689   4.237
  465SOL     OW 1409   0.614   0.122   3.841
  465SOL    HW1 1410   0.712   0.100   3.848
  465SOL    HW2 1411   0.583   0.105   3.748
  466SOL     OW 1412   0.539   0.064   4.236
  466SOL    HW1 1413   0.458   0.065   4.294
  466SOL    HW2 1414   0.542   0.147   4.181
  467SOL     OW 1415   1.434   1.188   3.765
  467SOL    HW1 1416   1.466   1.112   3.822
  467SOL    HW2 1417   1.342   1.215   3.795
  468SOL     OW 1418   0.297   0.035   3.895
  468SOL    HW1 1419   0.346   0.119   3.874
  468SOL    HW2 1420   0.359  -0.030   3.940
  469SOL     OW 1421   0.935   0.236   4.204
  469SOL    HW1 1422   0.887   0.277   4.126
  469SOL    HW2 1423   1.034   0.234   4.185
  470SOL     OW 1424   0.459   1.152   4.465
  470SOL    HW1 1425   0.388   1.125   4.530
  470SOL    HW2 1426   0.433   1.124   4.372
  471SOL     OW 1427   1.271   1.797   4.315
  471SOL    HW1 1428   1.315   1.861   4.251
  471SOL    HW2 1429   1.221   1.849   4.385
  472SOL     OW 1430   1.032   0.549   3.740
  472SOL    HW1 1431   0.991   0.631   3.701
  472SOL    HW2 1432   1.096   0.575   3.813
  473SOL     OW 1433   0.866   0.454   4.366
  473SOL    HW1 1434   0.834   0.526   4.304
  473SOL    HW2 1435   0.890   0.373   4.313
  474SOL     OW 1436   1.017   0.039   4.477
  474SOL    HW1 1437   0.945   0.044   4.408
  474SOL    HW2 1438   0.993  -0.030   4.546
  475SOL     OW 1439   1.857   0.833   4.101
  475SOL    HW1 1440   1.899   0.769   4.165
  475SOL    HW2 1441   1.819   0.782   4.023
  476SOL     OW 1442   0.488   1.385   3.898
  476SOL    HW1 1443   0.401   1.370   3.945
  476SOL    HW2 1444   0.471   1.411   3.803
  477SOL     OW 1445   1.664   1.280   4.381
  477SOL    HW1 1446   1.763   1.288   4.395
  477SOL    HW2 1447   1.619   1.364   4.412
  478SOL     OW 1448   1.390   0.575   3.802
  478SOL    HW1 1449   1.336   0.554   3.883
  478SOL    HW2 1450   1.481   0.534   3.811
  479SOL     OW 1451   0.527   0.256   4.052
  479SOL    HW1 1452   0.554   0.197   3.977
  479SOL    HW2 1453   0.527   0.351   4.021
  480SOL     OW 1454   0.705   1.050   4.092
  480SOL    HW1 1455   0.691   1.057   4.191
  480SOL    HW2 1456   0.789   0.999   4.074
  481SOL     OW 1457   0.367   1.100   4.225
  481SOL    HW1 1458   0.360   1.183   4.169
  481SOL    HW2 1459   0.371   1.020   4.165
  482SOL     OW 1460   0.566   0.537   4.589
  482SOL    HW1 1461   0.578   0.603   4.515
  482SOL    HW2 1462   0.612   0.571   4.672
  483SOL     OW 1463   1.252   1.348   4.112
  483SOL    HW1 1464   1.302   1.425   4.152
  483SOL    HW2 1465   1.157   1.350   4.144
  484SOL     OW 1466   1.582   0.639   4.196
  484SOL    HW1 1467   1.551   0.700   4.269
  484SOL    HW2 1468   1.632   0.691   4.127
  485SOL     OW 1469   1.209   0.525   3.999
  485SOL    HW1 1470   1.222   0.441   4.053
  485SOL    HW2 1471   1.180   0.599   4.059
  486SOL     OW 1472   0.732   0.634   4.788
  486SOL    HW1 1473   0.791   0.608   4.712
  486SOL    HW2 1474   0.704   0.730   4.777
  487SOL     OW 1475   0.307   0.063   4.342
  487SOL    HW1 1476   0.296   0.157   4.375
  487SOL    HW2 1477   0.302   0.000   4.419
  488SOL     OW 1478   1.622   0.367   4.098
  488SOL    HW1 1479   1.624   0.291   4.162
  488SOL    HW2 1480   1.574   0.444   4.138
  489SOL     OW 1481   1.540   0.274   3.849
  489SOL    HW1 1482   1.479   0.199   3.872
  489SOL    HW2 1483   1.562   0.326   3.932
  490SOL     OW 1484   1.303   0.838   3.766
  490SOL    HW1 1485   1.337   0.745   3.781
  490SOL    HW2 1486   1.321   0.865   3.671
  491SOL     OW 1487   1.068   1.333   4.573
  491SOL    HW1 1488   1.075   1.249   4.518
  491SOL    HW2 1489   1.130   1.402   4.537
  492SOL     OW 1490   0.008   1.326   3.924
  492SOL    HW1 1491  -0.085   1.347   3.893
  492SOL    HW2 1492   0.018   1.227   3.937
  493SOL     OW 1493   0.088   1.801   4.651
  493SOL    HW1 1494   0.046   1.715   4.624
  493SOL    HW2 1495   0.182   1.804   4.617
  494SOL     OW 1496   0.815   0.572   4.049
  494SOL    HW1 1497   0.822   0.483   4.003
  494SOL    HW2 1498   0.721   0.606   4.041
  495SOL     OW 1499   0.473   0.500   3.915
  495SOL    HW1 1500   0.534   0.580   3.919
  495SOL    HW2 1501   0.378   0.531   3.922
  496SOL     OW 1502   1.302   0.855   4.033
  496SOL    HW1 1503   1.216   0.824   4.075
  496SOL    HW2 1504   1.298   0.841   3.934
  497SOL     OW 1505   1.726   0.135   4.247
  497SOL    HW1 1506   1.799   0.118   4.180
  497SOL    HW2 1507   1.695   0.048   4.285
  498SOL     OW 1508   1.388   1.573   4.201
  498SOL    HW1 1509   1.455   1.585   4.127
  498SOL    HW2 1510   1.348   1.662   4.224
  499SOL     OW 1511   1.280   0.927   4.396
  499SOL    HW1 1512   1.340   0.846   4.398
  499SOL    HW2 1513   1.320   0.996   4.336
  500SOL     OW 1514   0.672   1.616   3.878
  500SOL    HW1 1515   0.681   1.626   3.779
  500SOL    HW2 1516   0.632   1.527   3.899
  501SOL     OW 1517   1.841   0.175   4.687
  501SOL    HW1 1518   1.880   0.090   4.651
  501SOL    HW2 1519   1.743   0.177   4.668
  502SOL     OW 1520   0.263   0.326   4.444
  502SOL    HW1 1521   0.184   0.377   4.410
  502SOL    HW2 1522   0.254   0.311   4.542
  503SOL     OW 1523   1.194   1.612   3.755
  503SOL    HW1 1524   1.200   1.519   3.792
  503SOL    HW2 1525   1.135   1.612   3.675
  504SOL     OW 1526   0.916   0.910   4.015
  504SOL    HW1 1527   0.979   0.948   3.947
  504SOL    HW2 1528   0.956   0.827   4.054
  505SOL     OW 1529   1.504   1.607   3.768
  505SOL    HW1 1530   1.412   1.644   3.775
  505SOL    HW2 1531   1.542   1.627   3.678
  506SOL     OW 1532   1.039   1.098   4.420
  506SOL    HW1 1533   0.969   1.051   4.474
  506SOL    HW2 1534   1.098   1.030   4.377
  507SOL     OW 1535   0.590   1.487   4.215
  507SOL    HW1 1536   0.632   1.429   4.145
  507SOL    HW2 1537   0.546   1.566   4.171
  508SOL     OW 1538   0.255   1.348   4.014
  508SOL    HW1 1539   0.159   1.349   3.987
  508SOL    HW2 1540   0.267   1.401   4.098
  509SOL     OW 1541   0.075   0.345   3.757
  509SOL    HW1 1542  -0.017   0.317   3.728
  509SOL    HW2 1543   0.106   0.422   3.701
  510SOL     OW 1544   0.072   0.166   4.042
  510SOL    HW1 1545   0.055   0.249   3.988
  510SOL    HW2 1546   0.162   0.129   4.020
  511SOL     OW 1547   1.183   1.335   3.843
  511SOL    HW1 1548   1.084   1.324   3.845
  511SOL    HW2 1549   1.217   1.350   3.936
  512SOL     OW 1550   1.225   0.325   4.173
  512SOL    HW1 1551   1.290   0.251   4.162
  512SOL    HW2 1552   1.245   0.375   4.257
  513SOL     OW 1553   0.594   0.745   4.376
  513SOL    HW1 1554   0.644   0.830   4.357
  513SOL    HW2 1555   0.506   0.747   4.328
  514SOL     OW 1556   0.859   1.374   3.740
  514SOL    HW1 1557   0.813   1.389   3.828
  514SOL    HW2 1558   0.903   1.459   3.710
  515SOL     OW 1559   0.661   1.790   4.677
  515SOL    HW1 1560   0.615   1.878   4.664
  515SOL    HW2 1561   0.760   1.802   4.670
  516SOL     OW 1562   0.859   0.956   4.585
  516SOL    HW1 1563   0.913   0.887   4.633
  516SOL    HW2 1564   0.827   1.025   4.651
  517SOL     OW 1565   1.083   0.984   3.811
  517SOL    HW1 1566   1.060   1.037   3.729
  517SOL    HW2 1567   1.164   0.928   3.792
  518SOL     OW 1568   1.861   1.569   4.575
  518SOL    HW1 1569   1.790   1.557   4.505
  518SOL    HW2 1570   1.862   1.490   4.635
  519SOL     OW 1571   0.079   1.240   4.377
  519SOL    HW1 1572   0.078   1.193   4.465
  519SOL    HW2 1573   0.161   1.212   4.326
  520SOL     OW 1574   0.428   0.424   4.244
  520SOL    HW1 1575   0.458   0.352   4.182
  520SOL    HW2 1576   0.389   0.384   4.327
  521SOL     OW 1577   0.812   1.586   4.411
  521SOL    HW1 1578   0.844   1.596   4.317
  521SOL    HW2 1579   0.733   1.524   4.413
  522SOL     OW 1580   0.770   1.330   4.025
  522SOL    HW1 1581   0.724   1.243   4.042
  522SOL    HW2 1582   0.861   1.327   4.066
  523SOL     OW 1583   1.352   0.052   3.892
  523SOL    HW1 1584   1.387   0.011   3.808
  523SOL    HW2 1585   1.262   0.014   3.912
  524SOL     OW 1586   1.300   0.453   4.415
  524SOL    HW1 1587   1.241   0.533   4.419
  524SOL    HW2 1588   1.315   0.418   4.508
  525SOL     OW 1589   0.039   1.077   4.024
  525SOL    HW1 1590   0.138   1.066   4.015
  525SOL    HW2 1591  -0.001   0.991   4.056
  526SOL     OW 1592   0.875   1.646   4.061
  526SOL    HW1 1593   0.798   1.611   4.007
  526SOL    HW2 1594   0.843   1.717   4.123
  527SOL     OW 1595   0.230   2.490   0.113
  527SOL    HW1 1596   0.137   2.488   0.150
  527SOL    HW2 1597   0.231   2.451   0.021
  528SOL     OW 1598   0.225   2.137   0.996
  528SOL    HW1 1599   0.260   2.120   1.088
  528SOL    HW2 1600   0.137   2.092   0.984
  529SOL     OW 1601   0.019   2.230   0.647
  529SOL    HW1 1602  -0.063   2.273   0.686
  529SOL    HW2 1603  -0.009   2.157   0.584
  530SOL     OW 1604   0.569   3.137   1.165
  530SOL    HW1 1605   0.476   3.130   1.128
  530SOL    HW2 1606   0.580   3.226   1.209
  531SOL     OW 1607   1.555   3.373   0.703
  531SOL    HW1 1608   1.498   3.357   0.784
  531SOL    HW2 1609   1.496   3.383   0.623
  532SOL     OW 1610   1.135   2.565   0.717
  532SOL    HW1 1611   1.192   2.643   0.692
  532SOL    HW2 1612   1.075   2.591   0.793
  533SOL     OW 1613   1.755   2.469   0.231
  533SOL    HW1 1614   1.743   2.456   0.132
  533SOL    HW2 1615   1.725   2.388   0.280
  534SOL     OW 1616   0.768   3.006   1.023
  534SOL    HW1 1617   0.690   3.023   1.083
  534SOL    HW2 1618   0.802   3.093   0.987
  535SOL     OW 1619   0.850   2.660   1.823
  535SOL    HW1 1620   0.846   2.736   1.888
  535SOL    HW2 1621   0.872   2.696   1.732
  536SOL     OW 1622   0.685   2.874   0.665
  536SOL    HW1 1623   0.754   2.858   0.735
  536SOL    HW2 1624   0.612   2.931   0.703
  537SOL     OW 1625   0.686   3.023   1.803
  537SOL    HW1 1626   0.746   3.102   1.817
  537SOL    HW2 1627   0.600   3.054   1.762
  538SOL     OW 1628   0.335   3.297   1.061
  538SOL    HW1 1629   0.257   3.266   1.008
  538SOL    HW2 1630   0.393   3.355   1.004
  539SOL     OW 1631   1.460   3.367   1.339
  539SOL    HW1 1632   1.484   3.461   1.365
  539SOL    HW2 1633   1.444   3.313   1.421
  540SOL     OW 1634   0.438   2.254   1.499
  540SOL    HW1 1635   0.520   2.198   1.508
  540SOL    HW2 1636   0.357   2.196   1.503
  541SOL     OW 1637   1.603   2.309   0.737
  541SOL    HW1 1638   1.529   2.355   0.687
  541SOL    HW2 1639   1.654   2.377   0.790
  542SOL     OW 1640   0.231   3.575   0.483
  542SOL    HW1 1641   0.265   3.652   0.537
  542SOL    HW2 1642   0.275   3.575   0.393
  543SOL     OW 1643   1.127   3.203   1.690
  543SOL    HW1 1644   1.174   3.203   1.778
  543SOL    HW2 1645   1.079   3.116   1.679
  544SOL     OW 1646   0.230   3.296   0.538
  544SOL    HW1 1647   0.204   3.392   0.538
  544SOL    HW2 1648   0.159   3.242   0.583
  545SOL     OW 1649   0.240   2.953   0.886
  545SOL    HW1 1650   0.254   2.869   0.938
  545SOL    HW2 1651   0.185   3.017   0.941
  546SOL     OW 1652   0.620   3.648   1.439
  546SOL    HW1 1653   0.528   3.631   1.474
  546SOL    HW2 1654   0.648   3.740   1.465
  547SOL     OW 1655   0.606   2.826   0.123
  547SOL    HW1 1656   0.613   2.910   0.069
  547SOL    HW2 1657   0.652   2.839   0.211
  548SOL     OW 1658   1.594   1.976   1.480
  548SOL    HW1 1659   1.576   2.043   1.408
  548SOL    HW2 1660   1.591   2.022   1.569
  549SOL     OW 1661   0.122   2.505   0.563
  549SOL    HW1 1662   0.077   2.417   0.580
  549SOL    HW2 1663   0.121   2.559   0.647
  550SOL     OW 1664   1.842   3.629   0.359
  550SOL    HW1 1665   1.896   3.600   0.439
  550SOL    HW2 1666   1.872   3.719   0.330
  551SOL     OW 1667   0.027   3.458   0.117
  551SOL    HW1 1668   0.008   3.362   0.138
  551SOL    HW2 1669  -0.006   3.516   0.192
  552SOL     OW 1670   1.689   2.784   0.612
  552SOL    HW1 1671   1.784   2.755   0.620
  552SOL    HW2 1672   1.681   2.849   0.537
  553SOL     OW 1673   1.641   2.970   0.432
  553SOL    HW1 1674   1.727   2.972   0.380
  553SOL    HW2 1675   1.655   3.017   0.520
  554SOL     OW 1676   0.113   2.599   1.597
  554SOL    HW1 1677   0.201   2.586   1.642
  554SOL    HW2 1678   0.100   2.696   1.575
  555SOL     OW 1679   0.613   3.227   0.726
  555SOL    HW1 1680   0.564   3.140   0.735
  555SOL    HW2 1681   0.590   3.270   0.639
  556SOL     OW 1682   1.293   3.090   1.423
  556SOL    HW1 1683   1.330   3.017   1.365
  556SOL    HW2 1684   1.345   3.095   1.508
  557SOL     OW 1685   0.809   1.866   0.502
  557SOL    HW1 1686   0.849   1.957   0.493
  557SOL    HW2 1687   0.709   1.874   0.508
  558SOL     OW 1688   0.197   2.838   1.264
  558SOL    HW1 1689   0.286   2.793   1.250
  558SOL    HW2 1690   0.124   2.773   1.245
  559SOL     OW 1691   1.525   2.861   0.190
  559SOL    HW1 1692   1.462   2.785   0.203
  559SOL    HW2 1693   1.573   2.879   0.276
  560SOL     OW 1694   1.187   3.654   1.616
  560SOL    HW1 1695   1.211   3.714   1.540
  560SOL    HW2 1696   1.194   3.559   1.586
  561SOL     OW 1697   0.317   2.113   1.801
  561SOL    HW1 1698   0.388   2.184   1.807
  561SOL    HW2 1699   0.229   2.152   1.829
  562SOL     OW 1700   1.466   3.279   0.953
  562SOL    HW1 1701   1.407   3.285   1.033
  562SOL    HW2 1702   1.451   3.191   0.907
  563SOL     OW 1703   1.667   3.576   0.572
  563SOL    HW1 1704   1.626   3.553   0.484
  563SOL    HW2 1705   1.649   3.502   0.637
  564SOL     OW 1706   0.598   2.591   0.270
  564SOL    HW1 1707   0.622   2.660   0.202
  564SOL    HW2 1708   0.520   2.624   0.324
  565SOL     OW 1709   1.281   2.207   0.944
  565SOL    HW1 1710   1.195   2.157   0.931
  565SOL    HW2 1711   1.343   2.153   1.000
  566SOL     OW 1712   1.576   3.524   0.307
  566SOL    HW1 1713   1.665   3.570   0.310
  566SOL    HW2 1714   1.555   3.500   0.212
  567SOL     OW 1715   0.807   2.467   1.465
  567SOL    HW1 1716   0.760   2.464   1.554
  567SOL    HW2 1717   0.756   2.412   1.399
  568SOL     OW 1718   1.394   2.331   1.674
  568SOL    HW1 1719   1.374   2.374   1.762
  568SOL    HW2 1720   1.472   2.269   1.683
  569SOL     OW 1721   0.973   2.752   1.572
  569SOL    HW1 1722   1.019   2.668   1.543
  569SOL    HW2 1723   0.917   2.786   1.497
  570SOL     OW 1724   0.991   2.272   1.242
  570SOL    HW1 1725   0.914   2.306   1.296
  570SOL    HW2 1726   0.957   2.221   1.163
  571SOL     OW 1727   1.041   2.563   0.429
  571SOL    HW1 1728   1.067   2.559   0.525
  571SOL    HW2 1729   0.956   2.512   0.415
  572SOL     OW 1730   0.076   2.673   0.789
  572SOL    HW1 1731   0.175   2.661   0.798
  572SOL    HW2 1732   0.052   2.768   0.810
  573SOL     OW 1733   0.130   3.683   1.571
  573SOL    HW1 1734   0.120   3.668   1.670
  573SOL    HW2 1735   0.044   3.719   1.535
  574SOL     OW 1736   0.865   2.210   0.195
  574SOL    HW1 1737   0.924   2.273   0.146
  574SOL    HW2 1738   0.884   2.116   0.166
  575SOL     OW 1739   1.719   2.447   1.831
  575SOL    HW1 1740   1.693   2.536   1.795
  575SOL    HW2 1741   1.717   2.379   1.758
  576SOL     OW 1742   1.362   3.006   0.545
  576SOL    HW1 1743   1.445   2.977   0.497
  576SOL    HW2 1744   1.313   3.073   0.489
  577SOL     OW 1745   0.550   2.058   0.885
  577SOL    HW1 1746   0.545   2.053   0.985
  577SOL    HW2 1747   0.552   2.154   0.856
  578SOL     OW 1748   1.008   3.318   0.477
  578SOL    HW1 1749   0.962   3.390   0.425
  578SOL    HW2 1750   1.004   3.338   0.575
  579SOL     OW 1751   0.351   3.663   0.853
  579SOL    HW1 1752   0.401   3.577   0.859
  579SOL    HW2 1753   0.416   3.740   0.850
  580SOL     OW 1754   1.795   2.928   0.873
  580SOL    HW1 1755   1.733   2.913   0.797
  580SOL    HW2 1756   1.743   2.939   0.958
  581SOL     OW 1757   1.227   3.412   1.506
  581SOL    HW1 1758   1.233   3.335   1.570
  581SOL    HW2 1759   1.175   3.386   1.426
  582SOL     OW 1760   0.321   2.805   0.242
  582SOL    HW1 1761   0.403   2.844   0.200
  582SOL    HW2 1762   0.294   2.723   0.193
  583SOL     OW 1763   1.458   2.597   0.728
  583SOL    HW1 1764   1.453   2.532   0.803
  583SOL    HW2 1765   1.538   2.656   0.741
  584SOL     OW 1766   0.461   3.128   1.727
  584SOL    HW1 1767   0.411   3.129   1.641
  584SOL    HW2 1768   0.398   3.110   1.803
  585SOL     OW 1769   1.111   3.638   0.237
  585SOL    HW1 1770   1.051   3.576   0.287
  585SOL    HW2 1771   1.142   3.594   0.152
  586SOL     OW 1772   0.202   2.147   1.498
  586SOL    HW1 1773   0.122   2.207   1.485
  586SOL    HW2 1774   0.192   2.098   1.584
  587SOL     OW 1775   1.632   3.239   0.081
  587SOL    HW1 1776   1.600   3.333   0.071
  587SOL    HW2 1777   1.556   3.176   0.069
  588SOL     OW 1778   0.464   3.605   0.323
  588SOL    HW1 1779   0.497   3.644   0.409
  588SOL    HW2 1780   0.540   3.598   0.258
  589SOL     OW 1781   1.400   1.969   0.426
  589SOL    HW1 1782   1.376   1.932   0.336
  589SOL    HW2 1783   1.499   1.985   0.430
  590SOL     OW 1784   0.249   3.647   1.241
  590SOL    HW1 1785   0.306   3.582   1.291
  590SOL    HW2 1786   0.233   3.614   1.148
  591SOL     OW 1787   0.940   3.560   0.904
  591SOL    HW1 1788   1.020   3.503   0.925
  591SOL    HW2 1789   0.891   3.520   0.827
  592SOL     OW 1790   0.382   2.562   0.480
  592SOL    HW1 1791   0.427   2.472   0.477
  592SOL    HW2 1792   0.288   2.551   0.513
  593SOL     OW 1793   1.547   2.084   1.729
  593SOL    HW1 1794   1.542   2.121   1.821
  593SOL    HW2 1795   1.475   2.015   1.717
  594SOL     OW 1796   0.781   2.126   1.749
  594SOL    HW1 1797   0.848   2.065   1.792
  594SOL    HW2 1798   0.708   2.145   1.814
  595SOL     OW 1799   0.888   3.376   1.195
  595SOL    HW1 1800   0.865   3.351   1.101
  595SOL    HW2 1801   0.949   3.307   1.234
  596SOL     OW 1802   1.351   2.452   1.433
  596SOL    HW1 1803   1.379   2.409   1.518
  596SOL    HW2 1804   1.376   2.548   1.434
  597SOL     OW 1805   0.803   3.264   0.924
  597SOL    HW1 1806   0.893   3.278   0.882
  597SOL    HW2 1807   0.732   3.266   0.853
  598SOL     OW 1808   0.922   2.365   0.899
  598SOL    HW1 1809   0.897   2.356   0.803
  598SOL    HW2 1810   0.970   2.283   0.930
  599SOL     OW 1811   0.539   1.926   0.512
  599SOL    HW1 1812   0.458   1.927   0.570
  599SOL    HW2 1813   0.542   2.009   0.457
  600SOL     OW 1814   1.434   3.050   0.041
  600SOL    HW1 1815   1.466   2.974   0.098
  600SOL    HW2 1816   1.342   3.077   0.071
  601SOL     OW 1817   0.297   1.897   0.171
  601SOL    HW1 1818   0.346   1.981   0.150
  601SOL    HW2 1819   0.359   1.832   0.216
  602SOL     OW 1820   0.935   2.098   0.480
  602SOL    HW1 1821   0.887   2.139   0.402
  602SOL    HW2 1822   1.034   2.096   0.461
  603SOL     OW 1823   1.076   2.545   1.464
  603SOL    HW1 1824   0.996   2.484   1.467
  603SOL    HW2 1825   1.157   2.492   1.440
  604SOL     OW 1826   1.227   3.432   0.793
  604SOL    HW1 1827   1.248   3.506   0.728
  604SOL    HW2 1828   1.295   3.432   0.866
  605SOL     OW 1829   0.459   3.014   0.741
  605SOL    HW1 1830   0.388   2.987   0.806
  605SOL    HW2 1831   0.433   2.986   0.648
  606SOL     OW 1832   1.271   3.659   0.591
  606SOL    HW1 1833   1.315   3.723   0.527
  606SOL    HW2 1834   1.221   3.711   0.661
  607SOL     OW 1835   1.032   2.411   0.016
  607SOL    HW1 1836   0.991   2.493  -0.023
  607SOL    HW2 1837   1.096   2.437   0.089
  608SOL     OW 1838   0.078   2.418   1.386
  608SOL    HW1 1839   0.170   2.417   1.345
  608SOL    HW2 1840   0.072   2.492   1.453
  609SOL     OW 1841   0.561   2.084   1.147
  609SOL    HW1 1842   0.599   2.000   1.184
  609SOL    HW2 1843   0.473   2.103   1.191
  610SOL     OW 1844   0.866   2.316   0.642
  610SOL    HW1 1845   0.834   2.388   0.580
  610SOL    HW2 1846   0.890   2.235   0.589
  611SOL     OW 1847   1.017   1.901   0.753
  611SOL    HW1 1848   0.945   1.906   0.684
  611SOL    HW2 1849   0.993   1.832   0.822
  612SOL     OW 1850   1.429   3.035   0.867
  612SOL    HW1 1851   1.374   2.951   0.860
  612SOL    HW2 1852   1.455   3.064   0.775
  613SOL     OW 1853   1.466   2.452   0.992
  613SOL    HW1 1854   1.436   2.357   0.999
  613SOL    HW2 1855   1.539   2.468   1.058
  614SOL     OW 1856   1.857   2.695   0.377
  614SOL    HW1 1857   1.899   2.631   0.441
  614SOL    HW2 1858   1.819   2.644   0.299
  615SOL     OW 1859   0.488   3.247   0.174
  615SOL    HW1 1860   0.401   3.232   0.221
  615SOL    HW2 1861   0.471   3.273   0.079
  616SOL     OW 1862   1.664   3.142   0.657
  616SOL    HW1 1863   1.763   3.150   0.671
  616SOL    HW2 1864   1.619   3.226   0.688
  617SOL     OW 1865   1.390   2.437   0.078
  617SOL    HW1 1866   1.336   2.416   0.159
  617SOL    HW2 1867   1.481   2.396   0.087
  618SOL     OW 1868   0.527   2.118   0.328
  618SOL    HW1 1869   0.554   2.059   0.253
  618SOL    HW2 1870   0.527   2.213   0.297
  619SOL     OW 1871   1.754   3.085   1.588
  619SOL    HW1 1872   1.845   3.046   1.575
  619SOL    HW2 1873   1.762   3.181   1.612
  620SOL     OW 1874   1.064   3.209   1.340
  620SOL    HW1 1875   0.984   3.186   1.395
  620SOL    HW2 1876   1.147   3.183   1.389
  621SOL     OW 1877   1.592   3.491   1.625
  621SOL    HW1 1878   1.619   3.525   1.535
  621SOL    HW2 1879   1.671   3.453   1.671
  622SOL     OW 1880   1.111   3.057   1.100
  622SOL    HW1 1881   1.071   3.101   1.181
  622SOL    HW2 1882   1.070   3.094   1.017
  623SOL     OW 1883   1.638   2.961   1.079
  623SOL    HW1 1884   1.643   3.042   1.138
  623SOL    HW2 1885   1.552   2.963   1.028
  624SOL     OW 1886   0.915   1.951   1.402
  624SOL    HW1 1887   0.940   1.931   1.307
  624SOL    HW2 1888   0.987   2.007   1.444
  625SOL     OW 1889   0.980   2.978   1.719
  625SOL    HW1 1890   0.881   2.984   1.729
  625SOL    HW2 1891   1.003   2.898   1.663
  626SOL     OW 1892   0.705   2.912   0.368
  626SOL    HW1 1893   0.691   2.919   0.467
  626SOL    HW2 1894   0.789   2.861   0.350
  627SOL     OW 1895   0.410   2.675   1.251
  627SOL    HW1 1896   0.496   2.687   1.301
  627SOL    HW2 1897   0.368   2.588   1.278
  628SOL     OW 1898   1.274   2.248   1.262
  628SOL    HW1 1899   1.295   2.322   1.326
  628SOL    HW2 1900   1.185   2.265   1.219
  629SOL     OW 1901   0.064   3.426   1.331
  629SOL    HW1 1902   0.018   3.508   1.297
  629SOL    HW2 1903   0.162   3.445   1.340
  630SOL     OW 1904   0.367   2.962   0.501
  630SOL    HW1 1905   0.360   3.045   0.445
  630SOL    HW2 1906   0.371   2.882   0.441
  631SOL     OW 1907   0.566   2.399   0.865
  631SOL    HW1 1908   0.578   2.465   0.791
  631SOL    HW2 1909   0.612   2.433   0.948
  632SOL     OW 1910   1.252   3.210   0.388
  632SOL    HW1 1911   1.302   3.287   0.428
  632SOL    HW2 1912   1.157   3.212   0.420
  633SOL     OW 1913   1.272   3.307   1.142
  633SOL    HW1 1914   1.319   3.320   1.229
  633SOL    HW2 1915   1.206   3.233   1.151
  634SOL     OW 1916   1.582   2.501   0.472
  634SOL    HW1 1917   1.551   2.562   0.545
  634SOL    HW2 1918   1.632   2.553   0.403
  635SOL     OW 1919   0.354   3.372   1.329
  635SOL    HW1 1920   0.333   3.328   1.242
  635SOL    HW2 1921   0.451   3.398   1.332
  636SOL     OW 1922   0.402   2.613   1.598
  636SOL    HW1 1923   0.470   2.668   1.551
  636SOL    HW2 1924   0.442   2.525   1.625
  637SOL     OW 1925   1.587   2.641   1.670
  637SOL    HW1 1926   1.495   2.679   1.665
  637SOL    HW2 1927   1.647   2.688   1.605
  638SOL     OW 1928   1.013   1.967   1.770
  638SOL    HW1 1929   1.019   2.052   1.718
  638SOL    HW2 1930   1.045   1.891   1.713
  639SOL     OW 1931   0.504   1.912   1.740
  639SOL    HW1 1932   0.462   1.855   1.670
  639SOL    HW2 1933   0.438   1.981   1.772
  640SOL     OW 1934   0.573   2.732   1.029
  640SOL    HW1 1935   0.617   2.821   1.020
  640SOL    HW2 1936   0.510   2.732   1.106
  641SOL     OW 1937   1.360   2.724   1.045
  641SOL    HW1 1938   1.285   2.724   0.979
  641SOL    HW2 1939   1.397   2.632   1.054
  642SOL     OW 1940   1.209   2.387   0.275
  642SOL    HW1 1941   1.222   2.303   0.329
  642SOL    HW2 1942   1.180   2.461   0.335
  643SOL     OW 1943   0.307   2.075   1.231
  643SOL    HW1 1944   0.284   2.112   1.321
  643SOL    HW2 1945   0.277   1.980   1.225
  644SOL     OW 1946   0.037   3.172   1.282
  644SOL    HW1 1947   0.090   3.123   1.350
  644SOL    HW2 1948   0.059   3.270   1.287
  645SOL     OW 1949   0.732   2.496   1.064
  645SOL    HW1 1950   0.791   2.470   0.988
  645SOL    HW2 1951   0.704   2.592   1.053
  646SOL     OW 1952   1.728   2.797   1.854
  646SOL    HW1 1953   1.682   2.790   1.765
  646SOL    HW2 1954   1.666   2.841   1.920
  647SOL     OW 1955   0.307   1.925   0.618
  647SOL    HW1 1956   0.296   2.019   0.651
  647SOL    HW2 1957   0.302   1.862   0.695
  648SOL     OW 1958   1.622   2.229   0.374
  648SOL    HW1 1959   1.624   2.153   0.438
  648SOL    HW2 1960   1.574   2.306   0.414
  649SOL     OW 1961   1.023   2.628   0.966
  649SOL    HW1 1962   1.038   2.649   1.062
  649SOL    HW2 1963   0.993   2.533   0.957
  650SOL     OW 1964   0.980   3.435   1.700
  650SOL    HW1 1965   0.960   3.479   1.612
  650SOL    HW2 1966   1.019   3.344   1.684
  651SOL     OW 1967   1.859   3.380   1.605
  651SOL    HW1 1968   1.873   3.407   1.510
  651SOL    HW2 1969   1.942   3.402   1.658
  652SOL     OW 1970   0.350   2.760   1.804
  652SOL    HW1 1971   0.426   2.804   1.852
  652SOL    HW2 1972   0.385   2.713   1.722
  653SOL     OW 1973   1.540   2.136   0.125
  653SOL    HW1 1974   1.479   2.061   0.148
  653SOL    HW2 1975   1.562   2.188   0.208
  654SOL     OW 1976   1.303   2.700   0.042
  654SOL    HW1 1977   1.337   2.607   0.057
  654SOL    HW2 1978   1.321   2.727  -0.053
  655SOL     OW 1979   1.068   3.195   0.849
  655SOL    HW1 1980   1.075   3.111   0.794
  655SOL    HW2 1981   1.130   3.264   0.813
  656SOL     OW 1982   0.319   2.672   0.949
  656SOL    HW1 1983   0.412   2.708   0.954
  656SOL    HW2 1984   0.313   2.587   1.001
  657SOL     OW 1985   0.339   2.371   1.006
  657SOL    HW1 1986   0.287   2.288   0.989
  657SOL    HW2 1987   0.416   2.376   0.942
  658SOL     OW 1988   1.138   2.242   1.678
  658SOL    HW1 1989   1.093   2.305   1.742
  658SOL    HW2 1990   1.231   2.273   1.661
  659SOL     OW 1991   1.160   2.069   1.477
  659SOL    HW1 1992   1.160   2.133   1.554
  659SOL    HW2 1993   1.188   2.117   1.394
  660SOL     OW 1994   0.008   3.188   0.200
  660SOL    HW1 1995  -0.085   3.209   0.169
  660SOL    HW2 1996   0.018   3.089   0.213
  661SOL     OW 1997   0.088   3.663   0.927
  661SOL    HW1 1998   0.046   3.577   0.900
  661SOL    HW2 1999   0.182   3.666   0.893
  662SOL     OW 2000   0.504   3.430   0.910
  662SOL    HW1 2001   0.570   3.504   0.919
  662SOL    HW2 2002   0.548   3.351   0.868
  663SOL     OW 2003   1.002   2.658   1.238
  663SOL    HW1 2004   1.043   2.626   1.324
  663SOL    HW2 2005   0.906   2.631   1.235
  664SOL     OW 2006   0.040   2.406   1.114
  664SOL    HW1 2007   0.125   2.373   1.073
  664SOL    HW2 2008   0.053   2.421   1.212
  665SOL     OW 2009   0.189   2.382   1.722
  665SOL    HW1 2010   0.248   2.342   1.652
  665SOL    HW2 2011   0.131   2.453   1.681
  666SOL     OW 2012   1.369   2.812   1.660
  666SOL    HW1 2013   1.408   2.901   1.680
  666SOL    HW2 2014   1.379   2.792   1.563
  667SOL     OW 2015   0.815   2.434   0.325
  667SOL    HW1 2016   0.822   2.345   0.279
  667SOL    HW2 2017   0.721   2.468   0.317
  668SOL     OW 2018   1.657   2.466   1.206
  668SOL    HW1 2019   1.619   2.397   1.268
  668SOL    HW2 2020   1.739   2.430   1.162
  669SOL     OW 2021   0.252   3.426   1.744
  669SOL    HW1 2022   0.222   3.483   1.820
  669SOL    HW2 2023   0.245   3.329   1.770
  670SOL     OW 2024   0.671   2.326   1.269
  670SOL    HW1 2025   0.637   2.237   1.239
  670SOL    HW2 2026   0.697   2.380   1.189
  671SOL     OW 2027   0.930   3.540   1.465
  671SOL    HW1 2028   0.906   3.522   1.370
  671SOL    HW2 2029   0.960   3.634   1.475
  672SOL     OW 2030   0.473   2.362   0.191
  672SOL    HW1 2031   0.534   2.442   0.195
  672SOL    HW2 2032   0.378   2.393   0.198
  673SOL     OW 2033   0.159   2.999   1.466
  673SOL    HW1 2034   0.181   2.938   1.542
  673SOL    HW2 2035   0.169   2.950   1.380
  674SOL     OW 2036   1.347   2.921   1.234
  674SOL    HW1 2037   1.371   2.858   1.160
  674SOL    HW2 2038   1.257   2.961   1.216
  675SOL     OW 2039   1.302   2.717   0.309
  675SOL    HW1 2040   1.216   2.686   0.351
  675SOL    HW2 2041   1.298   2.703   0.210
  676SOL     OW 2042   1.759   3.609   1.154
  676SOL    HW1 2043   1.820   3.639   1.081
  676SOL    HW2 2044   1.721   3.520   1.132
  677SOL     OW 2045   1.252   3.593   1.128
  677SOL    HW1 2046   1.336   3.598   1.074
  677SOL    HW2 2047   1.229   3.497   1.146
  678SOL     OW 2048   0.083   3.120   1.022
  678SOL    HW1 2049   0.078   3.119   1.122
  678SOL    HW2 2050   0.000   3.079   0.984
  679SOL     OW 2051   0.688   3.524   1.716
  679SOL    HW1 2052   0.632   3.605   1.725
  679SOL    HW2 2053   0.740   3.528   1.630
  680SOL     OW 2054   0.903   1.948   0.133
  680SOL    HW1 2055   0.954   1.949   0.047
  680SOL    HW2 2056   0.959   1.906   0.204
  681SOL     OW 2057   1.726   1.997   0.523
  681SOL    HW1 2058   1.799   1.980   0.456
  681SOL    HW2 2059   1.695   1.910   0.561
  682SOL     OW 2060   1.388   3.435   0.477
  682SOL    HW1 2061   1.455   3.447   0.403
  682SOL    HW2 2062   1.348   3.524   0.500
  683SOL     OW 2063   0.130   3.656   1.851
  683SOL    HW1 2064   0.089   3.582   1.904
  683SOL    HW2 2065   0.194   3.707   1.909
  684SOL     OW 2066   1.280   2.789   0.672
  684SOL    HW1 2067   1.340   2.708   0.674
  684SOL    HW2 2068   1.320   2.858   0.612
  685SOL     OW 2069   0.830   3.135   1.422
  685SOL    HW1 2070   0.825   3.168   1.517
  685SOL    HW2 2071   0.744   3.154   1.376
  686SOL     OW 2072   0.672   3.478   0.154
  686SOL    HW1 2073   0.681   3.488   0.055
  686SOL    HW2 2074   0.632   3.389   0.175
  687SOL     OW 2075   1.650   3.582   1.394
  687SOL    HW1 2076   1.703   3.592   1.310
  687SOL    HW2 2077   1.623   3.672   1.428
  688SOL     OW 2078   1.841   2.037   0.963
  688SOL    HW1 2079   1.880   1.952   0.927
  688SOL    HW2 2080   1.743   2.039   0.944
  689SOL     OW 2081   0.263   2.188   0.720
  689SOL    HW1 2082   0.184   2.239   0.686
  689SOL    HW2 2083   0.254   2.173   0.818
  690SOL     OW 2084   1.194   3.474   0.031
  690SOL    HW1 2085   1.200   3.381   0.068
  690SOL    HW2 2086   1.135   3.474  -0.049
  691SOL     OW 2087   0.822   2.864   1.372
  691SOL    HW1 2088   0.862   2.863   1.280
  691SOL    HW2 2089   0.832   2.956   1.412
  692SOL     OW 2090   0.916   2.772   0.291
  692SOL    HW1 2091   0.979   2.810   0.223
  692SOL    HW2 2092   0.956   2.689   0.330
  693SOL     OW 2093   1.504   3.469   0.044
  693SOL    HW1 2094   1.412   3.506   0.051
  693SOL    HW2 2095   1.542   3.489  -0.046
  694SOL     OW 2096   0.372   3.150   1.490
  694SOL    HW1 2097   0.359   3.243   1.456
  694SOL    HW2 2098   0.288   3.098   1.477
  695SOL     OW 2099   1.614   3.154   1.289
  695SOL    HW1 2100   1.674   3.157   1.369
  695SOL    HW2 2101   1.539   3.218   1.302
  696SOL     OW 2102   1.039   2.960   0.696
  696SOL    HW1 2103   0.969   2.913   0.750
  696SOL    HW2 2104   1.098   2.892   0.653
  697SOL     OW 2105   1.014   2.098   0.971
  697SOL    HW1 2106   1.006   2.062   0.878
  697SOL    HW2 2107   1.012   2.022   1.036
  698SOL     OW 2108   0.590   3.349   0.491
  698SOL    HW1 2109   0.632   3.291   0.421
  698SOL    HW2 2110   0.546   3.428   0.447
  699SOL     OW 2111   1.709   2.247   1.381
  699SOL    HW1 2112   1.782   2.316   1.385
  699SOL    HW2 2113   1.737   2.172   1.322
  700SOL     OW 2114   0.255   3.210   0.290
  700SOL    HW1 2115   0.159   3.211   0.263
  700SOL    HW2 2116   0.267   3.263   0.374
  701SOL     OW 2117   0.105   2.875   1.726
  701SOL    HW1 2118   0.028   2.842   1.780
  701SOL    HW2 2119   0.190   2.845   1.768
  702SOL     OW 2120   0.672   2.065   1.489
  702SOL    HW1 2121   0.762   2.049   1.449
  702SOL    HW2 2122   0.680   2.070   1.588
  703SOL     OW 2123   0.075   2.207   0.033
  703SOL    HW1 2124  -0.017   2.179   0.004
  703SOL    HW2 2125   0.106   2.284  -0.023
  704SOL     OW 2126   1.440   2.718   1.398
  704SOL    HW1 2127   1.383   2.770   1.335
  704SOL    HW2 2128   1.536   2.730   1.374
  705SOL     OW 2129   0.072   2.028   0.318
  705SOL    HW1 2130   0.055   2.111   0.264
  705SOL    HW2 2131   0.162   1.991   0.296
  706SOL     OW 2132   1.183   3.197   0.119
  706SOL    HW1 2133   1.084   3.186   0.121
  706SOL    HW2 2134   1.217   3.212   0.212
  707SOL     OW 2135   0.613   2.704   1.431
  707SOL    HW1 2136   0.669   2.785   1.414
  707SOL    HW2 2137   0.672   2.624   1.434
  708SOL     OW 2138   1.493   3.629   0.959
  708SOL    HW1 2139   1.526   3.693   0.890
  708SOL    HW2 2140   1.559   3.623   1.034
  709SOL     OW 2141   0.716   2.427   1.708
  709SOL    HW1 2142   0.735   2.492   1.782
  709SOL    HW2 2143   0.776   2.347   1.717
  710SOL     OW 2144   1.450   3.082   1.633
  710SOL    HW1 2145   1.441   3.072   1.732
  710SOL    HW2 2146   1.546   3.075   1.607
  711SOL     OW 2147   0.390   3.603   1.560
  711SOL    HW1 2148   0.299   3.644   1.558
  711SOL    HW2 2149   0.383   3.509   1.592
  712SOL     OW 2150   1.674   2.745   1.254
  712SOL    HW1 2151   1.647   2.656   1.217
  712SOL    HW2 2152   1.675   2.813   1.181
  713SOL     OW 2153   1.225   2.187   0.449
  713SOL    HW1 2154   1.290   2.113   0.438
  713SOL    HW2 2155   1.245   2.237   0.533
  714SOL     OW 2156   0.594   2.607   0.652
  714SOL    HW1 2157   0.644   2.692   0.633
  714SOL    HW2 2158   0.506   2.609   0.604
  715SOL     OW 2159   1.777   2.204   1.642
  715SOL    HW1 2160   1.760   2.235   1.548
  715SOL    HW2 2161   1.693   2.167   1.680
  716SOL     OW 2162   1.730   2.796   1.517
  716SOL    HW1 2163   1.768   2.887   1.532
  716SOL    HW2 2164   1.722   2.779   1.418
  717SOL     OW 2165   0.859   3.236   0.016
  717SOL    HW1 2166   0.813   3.251   0.104
  717SOL    HW2 2167   0.903   3.321  -0.014
  718SOL     OW 2168   0.661   3.652   0.953
  718SOL    HW1 2169   0.615   3.740   0.940
  718SOL    HW2 2170   0.760   3.664   0.946
  719SOL     OW 2171   0.859   2.818   0.861
  719SOL    HW1 2172   0.913   2.749   0.909
  719SOL    HW2 2173   0.827   2.887   0.927
  720SOL     OW 2174   1.083   2.846   0.087
  720SOL    HW1 2175   1.060   2.899   0.005
  720SOL    HW2 2176   1.164   2.790   0.068
  721SOL     OW 2177   1.861   3.431   0.851
  721SOL    HW1 2178   1.790   3.419   0.781
  721SOL    HW2 2179   1.862   3.352   0.911
  722SOL     OW 2180   0.221   3.176   1.844
  722SOL    HW1 2181   0.156   3.103   1.823
  722SOL    HW2 2182   0.225   3.190   1.942
  723SOL     OW 2183   0.079   3.102   0.653
  723SOL    HW1 2184   0.078   3.055   0.741
  723SOL    HW2 2185   0.161   3.074   0.602
  724SOL     OW 2186   0.672   3.253   1.624
  724SOL    HW1 2187   0.594   3.203   1.662
  724SOL    HW2 2188   0.669   3.348   1.655
  725SOL     OW 2189   1.824   2.054   1.227
  725SOL    HW1 2190   1.820   1.964   1.271
  725SOL    HW2 2191   1.827   2.043   1.128
  726SOL     OW 2192   0.428   2.286   0.520
  726SOL    HW1 2193   0.458   2.214   0.458
  726SOL    HW2 2194   0.389   2.246   0.603
  727SOL     OW 2195   1.705   3.349   1.104
  727SOL    HW1 2196   1.612   3.324   1.077
  727SOL    HW2 2197   1.731   3.299   1.186
  728SOL     OW 2198   0.317   2.409   1.280
  728SOL    HW1 2199   0.355   2.350   1.352
  728SOL    HW2 2200   0.357   2.383   1.192
  729SOL     OW 2201   0.812   3.448   0.687
  729SOL    HW1 2202   0.844   3.458   0.593
  729SOL    HW2 2203   0.733   3.386   0.689
  730SOL     OW 2204   1.424   2.076   1.112
  730SOL    HW1 2205   1.476   2.011   1.167
  730SOL    HW2 2206   1.375   2.139   1.173
  731SOL     OW 2207   1.001   1.896   1.154
  731SOL    HW1 2208   0.938   1.824   1.123
  731SOL    HW2 2209   1.094   1.860   1.154
  732SOL     OW 2210   0.770   3.192   0.301
  732SOL    HW1 2211   0.724   3.105   0.318
  732SOL    HW2 2212   0.861   3.189   0.342
  733SOL     OW 2213   0.618   3.429   1.284
  733SOL    HW1 2214   0.613   3.511   1.341
  733SOL    HW2 2215   0.707   3.426   1.239
  734SOL     OW 2216   1.352   1.914   0.168
  734SOL    HW1 2217   1.387   1.873   0.084
  734SOL    HW2 2218   1.262   1.876   0.188
  735SOL     OW 2219   1.300   2.315   0.691
  735SOL    HW1 2220   1.241   2.395   0.695
  735SOL    HW2 2221   1.315   2.280   0.784
  736SOL     OW 2222   1.593   2.083   0.882
  736SOL    HW1 2223   1.509   2.082   0.936
  736SOL    HW2 2224   1.595   2.166   0.826
  737SOL     OW 2225   0.039   2.939   0.300
  737SOL    HW1 2226   0.138   2.928   0.291
  737SOL    HW2 2227  -0.001   2.853   0.332
  738SOL     OW 2228   0.875   3.508   0.337
  738SOL    HW1 2229   0.798   3.473   0.283
  738SOL    HW2 2230   0.843   3.579   0.399
  739SOL     OW 2231   0.230   2.490   1.975
  739SOL    HW1 2232   0.137   2.488   2.012
  739SOL    HW2 2233   0.231   2.451   1.883
  740SOL     OW 2234   0.225   2.137   2.858
  740SOL    HW1 2235   0.260   2.120   2.950
  740SOL    HW2 2236   0.137   2.092   2.846
  741SOL     OW 2237   0.019   2.230   2.509
  741SOL    HW1 2238  -0.063   2.273   2.548
  741SOL    HW2 2239  -0.009   2.157   2.446
  742SOL     OW 2240   0.569   3.137   3.027
  742SOL    HW1 2241   0.476   3.130   2.990
  742SOL    HW2 2242   0.580   3.226   3.071
  743SOL     OW 2243   1.555   3.373   2.565
  743SOL    HW1 2244   1.498   3.357   2.646
  743SOL    HW2 2245   1.496   3.383   2.485
  744SOL     OW 2246   1.135   2.565   2.579
  744SOL    HW1 2247   1.192   2.643   2.554
  744SOL    HW2 2248   1.075   2.591   2.655
  745SOL     OW 2249   1.755   2.469   2.093
  745SOL    HW1 2250   1.743   2.456   1.994
  745SOL    HW2 2251   1.725   2.388   2.142
  746SOL     OW 2252   0.768   3.006   2.885
  746SOL    HW1 2253   0.690   3.023   2.945
  746SOL    HW2 2254   0.802   3.093   2.849
  747SOL     OW 2255   0.850   2.660   3.685
  747SOL    HW1 2256   0.846   2.736   3.750
  747SOL    HW2 2257   0.872   2.696   3.594
  748SOL     OW 2258   0.685   2.874   2.527
  748SOL    HW1 2259   0.754   2.858   2.597
  748SOL    HW2 2260   0.612   2.931   2.565
  749SOL     OW 2261   0.686   3.023   3.665
  749SOL    HW1 2262   0.746   3.102   3.679
  749SOL    HW2 2263   0.600   3.054   3.624
  750SOL     OW 2264   0.335   3.297   2.923
  750SOL    HW1 2265   0.257   3.266   2.870
  750SOL    HW2 2266   0.393   3.355   2.866
  751SOL     OW 2267   1.460   3.367   3.201
  751SOL    HW1 2268   1.484   3.461   3.227
  751SOL    HW2 2269   1.444   3.313   3.283
  752SOL     OW 2270   0.438   2.254   3.361
  752SOL    HW1 2271   0.520   2.198   3.370
  752SOL    HW2 2272   0.357   2.196   3.365
  753SOL     OW 2273   1.603   2.309   2.599
  753SOL    HW1 2274   1.529   2.355   2.549
  753SOL    HW2 2275   1.654   2.377   2.652
  754SOL     OW 2276   0.231   3.575   2.345
  754SOL    HW1 2277   0.265   3.652   2.399
  754SOL    HW2 2278   0.275   3.575   2.255
  755SOL     OW 2279   1.127   3.203   3.552
  755SOL    HW1 2280   1.174   3.203   3.640
  755SOL    HW2 2281   1.079   3.116   3.541
  756SOL     OW 2282   0.230   3.296   2.400
  756SOL    HW1 2283   0.204   3.392   2.400
  756SOL    HW2 2284   0.159   3.242   2.445
  757SOL     OW 2285   0.240   2.953   2.748
  757SOL    HW1 2286   0.254   2.869   2.800
  757SOL    HW2 2287   0.185   3.017   2.803
  758SOL     OW 2288   0.620   3.648   3.301
  758SOL    HW1 2289   0.528   3.631   3.336
  758SOL    HW2 2290   0.648   3.740   3.327
  759SOL     OW 2291   0.606   2.826   1.985
  759SOL    HW1 2292   0.613   2.910   1.931
  759SOL    HW2 2293   0.652   2.839   2.073
  760SOL     OW 2294   1.594   1.976   3.342
  760SOL    HW1 2295   1.576   2.043   3.270
  760SOL    HW2 2296   1.591   2.022   3.431
  761SOL     OW 2297   0.122   2.505   2.425
  761SOL    HW1 2298   0.077   2.417   2.442
  761SOL    HW2 2299   0.121   2.559   2.509
  762SOL     OW 2300   1.842   3.629   2.221
  762SOL    HW1 2301   1.896   3.600   2.301
  762SOL    HW2 2302   1.872   3.719   2.192
  763SOL     OW 2303   0.027   3.458   1.979
  763SOL    HW1 2304   0.008   3.362   2.000
  763SOL    HW2 2305  -0.006   3.516   2.054
  764SOL     OW 2306   1.689   2.784   2.474
  764SOL    HW1 2307   1.784   2.755   2.482
  764SOL    HW2 2308   1.681   2.849   2.399
  765SOL     OW 2309   1.641   2.970   2.294
  765SOL    HW1 2310   1.727   2.972   2.242
  765SOL    HW2 2311   1.655   3.017   2.382
  766SOL     OW 2312   0.113   2.599   3.459
  766SOL    HW1 2313   0.201   2.586   3.504
  766SOL    HW2 2314   0.100   2.696   3.437
  767SOL     OW 2315   0.613   3.227   2.588
  767SOL    HW1 2316   0.564   3.140   2.597
  767SOL    HW2 2317   0.590   3.270   2.501
  768SOL     OW 2318   1.293   3.090   3.285
  768SOL    HW1 2319   1.330   3.017   3.227
  768SOL    HW2 2320   1.345   3.095   3.370
  769SOL     OW 2321   0.809   1.866   2.364
  769SOL    HW1 2322   0.849   1.957   2.355
  769SOL    HW2 2323   0.709   1.874   2.370
  770SOL     OW 2324   0.197   2.838   3.126
  770SOL    HW1 2325   0.286   2.793   3.112
  770SOL    HW2 2326   0.124   2.773   3.107
  771SOL     OW 2327   1.525   2.861   2.052
  771SOL    HW1 2328   1.462   2.785   2.065
  771SOL    HW2 2329   1.573   2.879   2.138
  772SOL     OW 2330   1.187   3.654   3.478
  772SOL    HW1 2331   1.211   3.714   3.402
  772SOL    HW2 2332   1.194   3.559   3.448
  773SOL     OW 2333   0.317   2.113   3.663
  773SOL    HW1 2334   0.388   2.184   3.669
  773SOL    HW2 2335   0.229   2.152   3.691
  774SOL     OW 2336   1.466   3.279   2.815
  774SOL    HW1 2337   1.407   3.285   2.895
  774SOL    HW2 2338   1.451   3.191   2.769
  775SOL     OW 2339   1.667   3.576   2.434
  775SOL    HW1 2340   1.626   3.553   2.346
  775SOL    HW2 2341   1.649   3.502   2.499
  776SOL     OW 2342   0.598   2.591   2.132
  776SOL    HW1 2343   0.622   2.660   2.064
  776SOL    HW2 2344   0.520   2.624   2.186
  777SOL     OW 2345   1.281   2.207   2.806
  777SOL    HW1 2346   1.195   2.157   2.793
  777SOL    HW2 2347   1.343   2.153   2.862
  778SOL     OW 2348   1.576   3.524   2.169
  778SOL    HW1 2349   1.665   3.570   2.172
  778SOL    HW2 2350   1.555   3.500   2.074
  779SOL     OW 2351   0.807   2.467   3.327
  779SOL    HW1 2352   0.760   2.464   3.416
  779SOL    HW2 2353   0.756   2.412   3.261
  780SOL     OW 2354   1.394   2.331   3.536
  780SOL    HW1 2355   1.374   2.374   3.624
  780SOL    HW2 2356   1.472   2.269   3.545
  781SOL     OW 2357   0.973   2.752   3.434
  781SOL    HW1 2358   1.019   2.668   3.405
  781SOL    HW2 2359   0.917   2.786   3.359
  782SOL     OW 2360   0.991   2.272   3.104
  782SOL    HW1 2361   0.914   2.306   3.158
  782SOL    HW2 2362   0.957   2.221   3.025
  783SOL     OW 2363   1.041   2.563   2.291
  783SOL    HW1 2364   1.067   2.559   2.387
  783SOL    HW2 2365   0.956   2.512   2.277
  784SOL     OW 2366   0.076   2.673   2.651
  784SOL    HW1 2367   0.175   2.661   2.660
  784SOL    HW2 2368   0.052   2.768   2.672
  785SOL     OW 2369   0.130   3.683   3.433
  785SOL    HW1 2370   0.120   3.668   3.532
  785SOL    HW2 2371   0.044   3.719   3.397
  786SOL     OW 2372   0.865   2.210   2.057
  786SOL    HW1 2373   0.924   2.273   2.008
  786SOL    HW2 2374   0.884   2.116   2.028
  787SOL     OW 2375   1.719   2.447   3.693
  787SOL    HW1 2376   1.693   2.536   3.657
  787SOL    HW2 2377   1.717   2.379   3.620
  788SOL     OW 2378   1.362   3.006   2.407
  788SOL    HW1 2379   1.445   2.977   2.359
  788SOL    HW2 2380   1.313   3.073   2.351
  789SOL     OW 2381   0.550   2.058   2.747
  789SOL    HW1 2382   0.545   2.053   2.847
  789SOL    HW2 2383   0.552   2.154   2.718
  790SOL     OW 2384   1.008   3.318   2.339
  790SOL    HW1 2385   0.962   3.390   2.287
  790SOL    HW2 2386   1.004   3.338   2.437
  791SOL     OW 2387   0.351   3.663   2.715
  791SOL    HW1 2388   0.401   3.577   2.721
  791SOL    HW2 2389   0.416   3.740   2.712
  792SOL     OW 2390   1.795   2.928   2.735
  792SOL    HW1 2391   1.733   2.913   2.659
  792SOL    HW2 2392   1.743   2.939   2.820
  793SOL     OW 2393   1.227   3.412   3.368
  793SOL    HW1 2394   1.233   3.335   3.432
  793SOL    HW2 2395   1.175   3.386   3.288
  794SOL     OW 2396   0.321   2.805   2.104
  794SOL    HW1 2397   0.403   2.844   2.062
  794SOL    HW2 2398   0.294   2.723   2.055
  795SOL     OW 2399   1.458   2.597   2.590
  795SOL    HW1 2400   1.453   2.532   2.665
  795SOL    HW2 2401   1.538   2.656   2.603
  796SOL     OW 2402   0.461   3.128   3.589
  796SOL    HW1 2403   0.411   3.129   3.503
  796SOL    HW2 2404   0.398   3.110   3.665
  797SOL     OW 2405   1.111   3.638   2.099
  797SOL    HW1 2406   1.051   3.576   2.149
  797SOL    HW2 2407   1.142   3.594   2.014
  798SOL     OW 2408   0.202   2.147   3.360
  798SOL    HW1 2409   0.122   2.207   3.347
  798SOL    HW2 2410   0.192   2.098   3.446
  799SOL     OW 2411   1.632   3.239   1.943
  799SOL    HW1 2412   1.600   3.333   1.933
  799SOL    HW2 2413   1.556   3.176   1.931
  800SOL     OW 2414   0.464   3.605   2.185
  800SOL    HW1 2415   0.497   3.644   2.271
  800SOL    HW2 2416   0.540   3.598   2.120
  801SOL     OW 2417   1.400   1.969   2.288
  801SOL    HW1 2418   1.376   1.932   2.198
  801SOL    HW2 2419   1.499   1.985   2.292
  802SOL     OW 2420   0.249   3.647   3.103
  802SOL    HW1 2421   0.306   3.582   3.153
  802SOL    HW2 2422   0.233   3.614   3.010
  803SOL     OW 2423   0.940   3.560   2.766
  803SOL    HW1 2424   1.020   3.503   2.787
  803SOL    HW2 2425   0.891   3.520   2.689
  804SOL     OW 2426   0.382   2.562   2.342
  804SOL    HW1 2427   0.427   2.472   2.339
  804SOL    HW2 2428   0.288   2.551   2.375
  805SOL     OW 2429   1.547   2.084   3.591
  805SOL    HW1 2430   1.542   2.121   3.683
  805SOL    HW2 2431   1.475   2.015   3.579
  806SOL     OW 2432   0.614   1.984   1.979
  806SOL    HW1 2433   0.712   1.962   1.986
  806SOL    HW2 2434   0.583   1.967   1.886
  807SOL     OW 2435   0.781   2.126   3.611
  807SOL    HW1 2436   0.848   2.065   3.654
  807SOL    HW2 2437   0.708   2.145   3.676
  808SOL     OW 2438   0.888   3.376   3.057
  808SOL    HW1 2439   0.865   3.351   2.963
  808SOL    HW2 2440   0.949   3.307   3.096
  809SOL     OW 2441   1.351   2.452   3.295
  809SOL    HW1 2442   1.379   2.409   3.380
  809SOL    HW2 2443   1.376   2.548   3.296
  810SOL     OW 2444   0.803   3.264   2.786
  810SOL    HW1 2445   0.893   3.278   2.744
  810SOL    HW2 2446   0.732   3.266   2.715
  811SOL     OW 2447   0.922   2.365   2.761
  811SOL    HW1 2448   0.897   2.356   2.665
  811SOL    HW2 2449   0.970   2.283   2.792
  812SOL     OW 2450   0.539   1.926   2.374
  812SOL    HW1 2451   0.458   1.927   2.432
  812SOL    HW2 2452   0.542   2.009   2.319
  813SOL     OW 2453   1.434   3.050   1.903
  813SOL    HW1 2454   1.466   2.974   1.960
  813SOL    HW2 2455   1.342   3.077   1.933
  814SOL     OW 2456   0.297   1.897   2.033
  814SOL    HW1 2457   0.346   1.981   2.012
  814SOL    HW2 2458   0.359   1.832   2.078
  815SOL     OW 2459   0.935   2.098   2.342
  815SOL    HW1 2460   0.887   2.139   2.264
  815SOL    HW2 2461   1.034   2.096   2.323
  816SOL     OW 2462   1.076   2.545   3.326
  816SOL    HW1 2463   0.996   2.484   3.329
  816SOL    HW2 2464   1.157   2.492   3.302
  817SOL     OW 2465   1.227   3.432   2.655
  817SOL    HW1 2466   1.248   3.506   2.590
  817SOL    HW2 2467   1.295   3.432   2.728
  818SOL     OW 2468   0.459   3.014   2.603
  818SOL    HW1 2469   0.388   2.987   2.668
  818SOL    HW2 2470   0.433   2.986   2.510
  819SOL     OW 2471   1.271   3.659   2.453
  819SOL    HW1 2472   1.315   3.723   2.389
  819SOL    HW2 2473   1.221   3.711   2.523
  820SOL     OW 2474   1.032   2.411   1.878
  820SOL    HW1 2475   0.991   2.493   1.839
  820SOL    HW2 2476   1.096   2.437   1.951
  821SOL     OW 2477   0.078   2.418   3.248
  821SOL    HW1 2478   0.170   2.417   3.207
  821SOL    HW2 2479   0.072   2.492   3.315
  822SOL     OW 2480   0.561   2.084   3.009
  822SOL    HW1 2481   0.599   2.000   3.046
  822SOL    HW2 2482   0.473   2.103   3.053
  823SOL     OW 2483   0.866   2.316   2.504
  823SOL    HW1 2484   0.834   2.388   2.442
  823SOL    HW2 2485   0.890   2.235   2.451
  824SOL     OW 2486   1.017   1.901   2.615
  824SOL    HW1 2487   0.945   1.906   2.546
  824SOL    HW2 2488   0.993   1.832   2.684
  825SOL     OW 2489   1.429   3.035   2.729
  825SOL    HW1 2490   1.374   2.951   2.722
  825SOL    HW2 2491   1.455   3.064   2.637
  826SOL     OW 2492   1.466   2.452   2.854
  826SOL    HW1 2493   1.436   2.357   2.861
  826SOL    HW2 2494   1.539   2.468   2.920
  827SOL     OW 2495   1.857   2.695   2.239
  827SOL    HW1 2496   1.899   2.631   2.303
  827SOL    HW2 2497   1.819   2.644   2.161
  828SOL     OW 2498   0.488   3.247   2.036
  828SOL    HW1 2499   0.401   3.232   2.083
  828SOL    HW2 2500   0.471   3.273   1.941
  829SOL     OW 2501   1.664   3.142   2.519
  829SOL    HW1 2502   1.763   3.150   2.533
  829SOL    HW2 2503   1.619   3.226   2.550
  830SOL     OW 2504   1.390   2.437   1.940
  830SOL    HW1 2505   1.336   2.416   2.021
  830SOL    HW2 2506   1.481   2.396   1.949
  831SOL     OW 2507   0.527   2.118   2.190
  831SOL    HW1 2508   0.554   2.059   2.115
  831SOL    HW2 2509   0.527   2.213   2.159
  832SOL     OW 2510   1.754   3.085   3.450
  832SOL    HW1 2511   1.845   3.046   3.437
  832SOL    HW2 2512   1.762   3.181   3.474
  833SOL     OW 2513   1.064   3.209   3.202
  833SOL    HW1 2514   0.984   3.186   3.257
  833SOL    HW2 2515   1.147   3.183   3.251
  834SOL     OW 2516   1.592   3.491   3.487
  834SOL    HW1 2517   1.619   3.525   3.397
  834SOL    HW2 2518   1.671   3.453   3.533
  835SOL     OW 2519   1.111   3.057   2.962
  835SOL    HW1 2520   1.071   3.101   3.043
  835SOL    HW2 2521   1.070   3.094   2.879
  836SOL     OW 2522   1.638   2.961   2.941
  836SOL    HW1 2523   1.643   3.042   3.000
  836SOL    HW2 2524   1.552   2.963   2.890
  837SOL     OW 2525   0.915   1.951   3.264
  837SOL    HW1 2526   0.940   1.931   3.169
  837SOL    HW2 2527   0.987   2.007   3.306
  838SOL     OW 2528   0.980   2.978   3.581
  838SOL    HW1 2529   0.881   2.984   3.591
  838SOL    HW2 2530   1.003   2.898   3.525
  839SOL     OW 2531   0.705   2.912   2.230
  839SOL    HW1 2532   0.691   2.919   2.329
  839SOL    HW2 2533   0.789   2.861   2.212
  840SOL     OW 2534   0.410   2.675   3.113
  840SOL    HW1 2535   0.496   2.687   3.163
  840SOL    HW2 2536   0.368   2.588   3.140
  841SOL     OW 2537   1.274   2.248   3.124
  841SOL    HW1 2538   1.295   2.322   3.188
  841SOL    HW2 2539   1.185   2.265   3.081
  842SOL     OW 2540   0.064   3.426   3.193
  842SOL    HW1 2541   0.018   3.508   3.159
  842SOL    HW2 2542   0.162   3.445   3.202
  843SOL     OW 2543   0.367   2.962   2.363
  843SOL    HW1 2544   0.360   3.045   2.307
  843SOL    HW2 2545   0.371   2.882   2.303
  844SOL     OW 2546   0.566   2.399   2.727
  844SOL    HW1 2547   0.578   2.465   2.653
  844SOL    HW2 2548   0.612   2.433   2.810
  845SOL     OW 2549   1.252   3.210   2.250
  845SOL    HW1 2550   1.302   3.287   2.290
  845SOL    HW2 2551   1.157   3.212   2.282
  846SOL     OW 2552   1.272   3.307   3.004
  846SOL    HW1 2553   1.319   3.320   3.091
  846SOL    HW2 2554   1.206   3.233   3.013
  847SOL     OW 2555   1.582   2.501   2.334
  847SOL    HW1 2556   1.551   2.562   2.407
  847SOL    HW2 2557   1.632   2.553   2.265
  848SOL     OW 2558   0.354   3.372   3.191
  848SOL    HW1 2559   0.333   3.328   3.104
  848SOL    HW2 2560   0.451   3.398   3.194
  849SOL     OW 2561   0.402   2.613   3.460
  849SOL    HW1 2562   0.470   2.668   3.413
  849SOL    HW2 2563   0.442   2.525   3.487
  850SOL     OW 2564   1.587   2.641   3.532
  850SOL    HW1 2565   1.495   2.679   3.527
  850SOL    HW2 2566   1.647   2.688   3.467
  851SOL     OW 2567   1.013   1.967   3.632
  851SOL    HW1 2568   1.019   2.052   3.580
  851SOL    HW2 2569   1.045   1.891   3.575
  852SOL     OW 2570   0.504   1.912   3.602
  852SOL    HW1 2571   0.462   1.855   3.532
  852SOL    HW2 2572   0.438   1.981   3.634
  853SOL     OW 2573   0.573   2.732   2.891
  853SOL    HW1 2574   0.617   2.821   2.882
  853SOL    HW2 2575   0.510   2.732   2.968
  854SOL     OW 2576   1.360   2.724   2.907
  854SOL    HW1 2577   1.285   2.724   2.841
  854SOL    HW2 2578   1.397   2.632   2.916
  855SOL     OW 2579   1.209   2.387   2.137
  855SOL    HW1 2580   1.222   2.303   2.191
  855SOL    HW2 2581   1.180   2.461   2.197
  856SOL     OW 2582   0.307   2.075   3.093
  856SOL    HW1 2583   0.284   2.112   3.183
  856SOL    HW2 2584   0.277   1.980   3.087
  857SOL     OW 2585   0.037   3.172   3.144
  857SOL    HW1 2586   0.090   3.123   3.212
  857SOL    HW2 2587   0.059   3.270   3.149
  858SOL     OW 2588   0.732   2.496   2.926
  858SOL    HW1 2589   0.791   2.470   2.850
  858SOL    HW2 2590   0.704   2.592   2.915
  859SOL     OW 2591   1.728   2.797   3.716
  859SOL    HW1 2592   1.682   2.790   3.627
  859SOL    HW2 2593   1.666   2.841   3.782
  860SOL     OW 2594   0.307   1.925   2.480
  860SOL    HW1 2595   0.296   2.019   2.513
  860SOL    HW2 2596   0.302   1.862   2.557
  861SOL     OW 2597   1.622   2.229   2.236
  861SOL    HW1 2598   1.624   2.153   2.300
  861SOL    HW2 2599   1.574   2.306   2.276
  862SOL     OW 2600   1.023   2.628   2.828
  862SOL    HW1 2601   1.038   2.649   2.924
  862SOL    HW2 2602   0.993   2.533   2.819
  863SOL     OW 2603   0.980   3.435   3.562
  863SOL    HW1 2604   0.960   3.479   3.474
  863SOL    HW2 2605   1.019   3.344   3.546
  864SOL     OW 2606   1.859   3.380   3.467
  864SOL    HW1 2607   1.873   3.407   3.372
  864SOL    HW2 2608   1.942   3.402   3.520
  865SOL     OW 2609   0.350   2.760   3.666
  865SOL    HW1 2610   0.426   2.804   3.714
  865SOL    HW2 2611   0.385   2.713   3.584
  866SOL     OW 2612   1.540   2.136   1.987
  866SOL    HW1 2613   1.479   2.061   2.010
  866SOL    HW2 2614   1.562   2.188   2.070
  867SOL     OW 2615   1.303   2.700   1.904
  867SOL    HW1 2616   1.337   2.607   1.919
  867SOL    HW2 2617   1.321   2.727   1.809
  868SOL     OW 2618   1.068   3.195   2.711
  868SOL    HW1 2619   1.075   3.111   2.656
  868SOL    HW2 2620   1.130   3.264   2.675
  869SOL     OW 2621   0.319   2.672   2.811
  869SOL    HW1 2622   0.412   2.708   2.816
  869SOL    HW2 2623   0.313   2.587   2.863
  870SOL     OW 2624   0.339   2.371   2.868
  870SOL    HW1 2625   0.287   2.288   2.851
  870SOL    HW2 2626   0.416   2.376   2.804
  871SOL     OW 2627   1.138   2.242   3.540
  871SOL    HW1 2628   1.093   2.305   3.604
  871SOL    HW2 2629   1.231   2.273   3.523
  872SOL     OW 2630   1.160   2.069   3.339
  872SOL    HW1 2631   1.160   2.133   3.416
  872SOL    HW2 2632   1.188   2.117   3.256
  873SOL     OW 2633   0.008   3.188   2.062
  873SOL    HW1 2634  -0.085   3.209   2.031
  873SOL    HW2 2635   0.018   3.089   2.075
  874SOL     OW 2636   0.088   3.663   2.789
  874SOL    HW1 2637   0.046   3.577   2.762
  874SOL    HW2 2638   0.182   3.666   2.755
  875SOL     OW 2639   0.504   3.430   2.772
  875SOL    HW1 2640   0.570   3.504   2.781
  875SOL    HW2 2641   0.548   3.351   2.730
  876SOL     OW 2642   1.002   2.658   3.100
  876SOL    HW1 2643   1.043   2.626   3.186
  876SOL    HW2 2644   0.906   2.631   3.097
  877SOL     OW 2645   0.040   2.406   2.976
  877SOL    HW1 2646   0.125   2.373   2.935
  877SOL    HW2 2647   0.053   2.421   3.074
  878SOL     OW 2648   0.189   2.382   3.584
  878SOL    HW1 2649   0.248   2.342   3.514
  878SOL    HW2 2650   0.131   2.453   3.543
  879SOL     OW 2651   1.369   2.812   3.522
  879SOL    HW1 2652   1.408   2.901   3.542
  879SOL    HW2 2653   1.379   2.792   3.425
  880SOL     OW 2654   0.815   2.434   2.187
  880SOL    HW1 2655   0.822   2.345   2.141
  880SOL    HW2 2656   0.721   2.468   2.179
  881SOL     OW 2657   1.657   2.466   3.068
  881SOL    HW1 2658   1.619   2.397   3.130
  881SOL    HW2 2659   1.739   2.430   3.024
  882SOL     OW 2660   0.252   3.426   3.606
  882SOL    HW1 2661   0.222   3.483   3.682
  882SOL    HW2 2662   0.245   3.329   3.632
  883SOL     OW 2663   0.671   2.326   3.131
  883SOL    HW1 2664   0.637   2.237   3.101
  883SOL    HW2 2665   0.697   2.380   3.051
  884SOL     OW 2666   0.930   3.540   3.327
  884SOL    HW1 2667   0.906   3.522   3.232
  884SOL    HW2 2668   0.960   3.634   3.337
  885SOL     OW 2669   0.473   2.362   2.053
  885SOL    HW1 2670   0.534   2.442   2.057
  885SOL    HW2 2671   0.378   2.393   2.060
  886SOL     OW 2672   0.159   2.999   3.328
  886SOL    HW1 2673   0.181   2.938   3.404
  886SOL    HW2 2674   0.169   2.950   3.242
  887SOL     OW 2675   1.347   2.921   3.096
  887SOL    HW1 2676   1.371   2.858   3.022
  887SOL    HW2 2677   1.257   2.961   3.078
  888SOL     OW 2678   1.302   2.717   2.171
  888SOL    HW1 2679   1.216   2.686   2.213
  888SOL    HW2 2680   1.298   2.703   2.072
  889SOL     OW 2681   1.759   3.609   3.016
  889SOL    HW1 2682   1.820   3.639   2.943
  889SOL    HW2 2683   1.721   3.520   2.994
  890SOL     OW 2684   1.252   3.593   2.990
  890SOL    HW1 2685   1.336   3.598   2.936
  890SOL    HW2 2686   1.229   3.497   3.008
  891SOL     OW 2687   0.083   3.120   2.884
  891SOL    HW1 2688   0.078   3.119   2.984
  891SOL    HW2 2689   0.000   3.079   2.846
  892SOL     OW 2690   0.688   3.524   3.578
  892SOL    HW1 2691   0.632   3.605   3.587
  892SOL    HW2 2692   0.740   3.528   3.492
  893SOL     OW 2693   1.726   1.997   2.385
  893SOL    HW1 2694   1.799   1.980   2.318
  893SOL    HW2 2695   1.695   1.910   2.423
  894SOL     OW 2696   1.388   3.435   2.339
  894SOL    HW1 2697   1.455   3.447   2.265
  894SOL    HW2 2698   1.348   3.524   2.362
  895SOL     OW 2699   0.130   3.656   3.713
  895SOL    HW1 2700   0.089   3.582   3.766
  895SOL    HW2 2701   0.194   3.707   3.771
  896SOL     OW 2702   1.280   2.789   2.534
  896SOL    HW1 2703   1.340   2.708   2.536
  896SOL    HW2 2704   1.320   2.858   2.474
  897SOL     OW 2705   0.830   3.135   3.284
  897SOL    HW1 2706   0.825   3.168   3.379
  897SOL    HW2 2707   0.744   3.154   3.238
  898SOL     OW 2708   0.672   3.478   2.016
  898SOL    HW1 2709   0.681   3.488   1.917
  898SOL    HW2 2710   0.632   3.389   2.037
  899SOL     OW 2711   1.650   3.582   3.256
  899SOL    HW1 2712   1.703   3.592   3.172
  899SOL    HW2 2713   1.623   3.672   3.290
  900SOL     OW 2714   1.841   2.037   2.825
  900SOL    HW1 2715   1.880   1.952   2.789
  900SOL    HW2 2716   1.743   2.039   2.806
  901SOL     OW 2717   0.263   2.188   2.582
  901SOL    HW1 2718   0.184   2.239   2.548
  901SOL    HW2 2719   0.254   2.173   2.680
  902SOL     OW 2720   1.194   3.474   1.893
  902SOL    HW1 2721   1.200   3.381   1.930
  902SOL    HW2 2722   1.135   3.474   1.813
  903SOL     OW 2723   0.822   2.864   3.234
  903SOL    HW1 2724   0.862   2.863   3.142
  903SOL    HW2 2725   0.832   2.956   3.274
  904SOL     OW 2726   0.916   2.772   2.153
  904SOL    HW1 2727   0.979   2.810   2.085
  904SOL    HW2 2728   0.956   2.689   2.192
  905SOL     OW 2729   1.504   3.469   1.906
  905SOL    HW1 2730   1.412   3.506   1.913
  905SOL    HW2 2731   1.542   3.489   1.816
  906SOL     OW 2732   0.372   3.150   3.352
  906SOL    HW1 2733   0.359   3.243   3.318
  906SOL    HW2 2734   0.288   3.098   3.339
  907SOL     OW 2735   1.614   3.154   3.151
  907SOL    HW1 2736   1.674   3.157   3.231
  907SOL    HW2 2737   1.539   3.218   3.164
  908SOL     OW 2738   1.039   2.960   2.558
  908SOL    HW1 2739   0.969   2.913   2.612
  908SOL    HW2 2740   1.098   2.892   2.515
  909SOL     OW 2741   1.014   2.098   2.833
  909SOL    HW1 2742   1.006   2.062   2.740
  909SOL    HW2 2743   1.012   2.022   2.898
  910SOL     OW 2744   0.590   3.349   2.353
  910SOL    HW1 2745   0.632   3.291   2.283
  910SOL    HW2 2746   0.546   3.428   2.309
  911SOL     OW 2747   1.709   2.247   3.243
  911SOL    HW1 2748   1.782   2.316   3.247
  911SOL    HW2 2749   1.737   2.172   3.184
  912SOL     OW 2750   0.255   3.210   2.152
  912SOL    HW1 2751   0.159   3.211   2.125
  912SOL    HW2 2752   0.267   3.263   2.236
  913SOL     OW 2753   0.105   2.875   3.588
  913SOL    HW1 2754   0.028   2.842   3.642
  913SOL    HW2 2755   0.190   2.845   3.630
  914SOL     OW 2756   0.672   2.065   3.351
  914SOL    HW1 2757   0.762   2.049   3.311
  914SOL    HW2 2758   0.680   2.070   3.450
  915SOL     OW 2759   0.075   2.207   1.895
  915SOL    HW1 2760  -0.017   2.179   1.866
  915SOL    HW2 2761   0.106   2.284   1.839
  916SOL     OW 2762   1.440   2.718   3.260
  916SOL    HW1 2763   1.383   2.770   3.197
  916SOL    HW2 2764   1.536   2.730   3.236
  917SOL     OW 2765   0.072   2.028   2.180
  917SOL    HW1 2766   0.055   2.111   2.126
  917SOL    HW2 2767   0.162   1.991   2.158
  918SOL     OW 2768   1.183   3.197   1.981
  918SOL    HW1 2769   1.084   3.186   1.983
  918SOL    HW2 2770   1.217   3.212   2.074
  919SOL     OW 2771   0.613   2.704   3.293
  919SOL    HW1 2772   0.669   2.785   3.276
  919SOL    HW2 2773   0.672   2.624   3.296
  920SOL     OW 2774   1.493   3.629   2.821
  920SOL    HW1 2775   1.526   3.693   2.752
  920SOL    HW2 2776   1.559   3.623   2.896
  921SOL     OW 2777   0.716   2.427   3.570
  921SOL    HW1 2778   0.735   2.492   3.644
  921SOL    HW2 2779   0.776   2.347   3.579
  922SOL     OW 2780   1.450   3.082   3.495
  922SOL    HW1 2781   1.441   3.072   3.594
  922SOL    HW2 2782   1.546   3.075   3.469
  923SOL     OW 2783   0.390   3.603   3.422
  923SOL    HW1 2784   0.299   3.644   3.420
  923SOL    HW2 2785   0.383   3.509   3.454
  924SOL     OW 2786   1.674   2.745   3.116
  924SOL    HW1 2787   1.647   2.656   3.079
  924SOL    HW2 2788   1.675   2.813   3.043
  925SOL     OW 2789   1.225   2.187   2.311
  925SOL    HW1 2790   1.290   2.113   2.300
  925SOL    HW2 2791   1.245   2.237   2.395
  926SOL     OW 2792   0.594   2.607   2.514
  926SOL    HW1 2793   0.644   2.692   2.495
  926SOL    HW2 2794   0.506   2.609   2.466
  927SOL     OW 2795   1.777   2.204   3.504
  927SOL    HW1 2796   1.760   2.235   3.410
  927SOL    HW2 2797   1.693   2.167   3.542
  928SOL     OW 2798   1.730   2.796   3.379
  928SOL    HW1 2799   1.768   2.887   3.394
  928SOL    HW2 2800   1.722   2.779   3.280
  929SOL     OW 2801   0.859   3.236   1.878
  929SOL    HW1 2802   0.813   3.251   1.966
  929SOL    HW2 2803   0.903   3.321   1.848
  930SOL     OW 2804   0.661   3.652   2.815
  930SOL    HW1 2805   0.615   3.740   2.802
  930SOL    HW2 2806   0.760   3.664   2.808
  931SOL     OW 2807   0.859   2.818   2.723
  931SOL    HW1 2808   0.913   2.749   2.771
  931SOL    HW2 2809   0.827   2.887   2.789
  932SOL     OW 2810   1.083   2.846   1.949
  932SOL    HW1 2811   1.060   2.899   1.867
  932SOL    HW2 2812   1.164   2.790   1.930
  933SOL     OW 2813   1.861   3.431   2.713
  933SOL    HW1 2814   1.790   3.419   2.643
  933SOL    HW2 2815   1.862   3.352   2.773
  934SOL     OW 2816   0.221   3.176   3.706
  934SOL    HW1 2817   0.156   3.103   3.685
  934SOL    HW2 2818   0.225   3.190   3.804
  935SOL     OW 2819   0.079   3.102   2.515
  935SOL    HW1 2820   0.078   3.055   2.603
  935SOL    HW2 2821   0.161   3.074   2.464
  936SOL     OW 2822   0.672   3.253   3.486
  936SOL    HW1 2823   0.594   3.203   3.524
  936SOL    HW2 2824   0.669   3.348   3.517
  937SOL     OW 2825   1.824   2.054   3.089
  937SOL    HW1 2826   1.820   1.964   3.133
  937SOL    HW2 2827   1.827   2.043   2.990
  938SOL     OW 2828   0.428   2.286   2.382
  938SOL    HW1 2829   0.458   2.214   2.320
  938SOL    HW2 2830   0.389   2.246   2.465
  939SOL     OW 2831   1.705   3.349   2.966
  939SOL    HW1 2832   1.612   3.324   2.939
  939SOL    HW2 2833   1.731   3.299   3.048
  940SOL     OW 2834   0.317   2.409   3.142
  940SOL    HW1 2835   0.355   2.350   3.214
  940SOL    HW2 2836   0.357   2.383   3.054
  941SOL     OW 2837   0.812   3.448   2.549
  941SOL    HW1 2838   0.844   3.458   2.455
  941SOL    HW2 2839   0.733   3.386   2.551
  942SOL     OW 2840   1.424   2.076   2.974
  942SOL    HW1 2841   1.476   2.011   3.029
  942SOL    HW2 2842   1.375   2.139   3.035
  943SOL     OW 2843   1.001   1.896   3.016
  943SOL    HW1 2844   0.938   1.824   2.985
  943SOL    HW2 2845   1.094   1.860   3.016
  944SOL     OW 2846   0.770   3.192   2.163
  944SOL    HW1 2847   0.724   3.105   2.180
  944SOL    HW2 2848   0.861   3.189   2.204
  945SOL     OW 2849   0.618   3.429   3.146
  945SOL    HW1 2850   0.613   3.511   3.203
  945SOL    HW2 2851   0.707   3.426   3.101
  946SOL     OW 2852   1.352   1.914   2.030
  946SOL    HW1 2853   1.387   1.873   1.946
  946SOL    HW2 2854   1.262   1.876   2.050
  947SOL     OW 2855   1.300   2.315   2.553
  947SOL    HW1 2856   1.241   2.395   2.557
  947SOL    HW2 2857   1.315   2.280   2.646
  948SOL     OW 2858   1.593   2.083   2.744
  948SOL    HW1 2859   1.509   2.082   2.798
  948SOL    HW2 2860   1.595   2.166   2.688
  949SOL     OW 2861   0.039   2.939   2.162
  949SOL    HW1 2862   0.138   2.928   2.153
  949SOL    HW2 2863  -0.001   2.853   2.194
  950SOL     OW 2864   0.875   3.508   2.199
  950SOL    HW1 2865   0.798   3.473   2.145
  950SOL    HW2 2866   0.843   3.579   2.261
  951SOL     OW 2867   0.230   2.490   3.837
  951SOL    HW1 2868   0.137   2.488   3.874
  951SOL    HW2 2869   0.231   2.451   3.745
  952SOL     OW 2870   0.019   2.230   4.371
  952SOL    HW1 2871  -0.063   2.273   4.410
  952SOL    HW2 2872  -0.009   2.157   4.308
  953SOL     OW 2873   1.555   3.373   4.427
  953SOL    HW1 2874   1.498   3.357   4.508
  953SOL    HW2 2875   1.496   3.383   4.347
  954SOL     OW 2876   1.135   2.565   4.441
  954SOL    HW1 2877   1.192   2.643   4.416
  954SOL    HW2 2878   1.075   2.591   4.517
  955SOL     OW 2879   1.755   2.469   3.955
  955SOL    HW1 2880   1.743   2.456   3.856
  955SOL    HW2 2881   1.725   2.388   4.004
  956SOL     OW 2882   0.768   3.006   4.747
  956SOL    HW1 2883   0.690   3.023   4.807
  956SOL    HW2 2884   0.802   3.093   4.711
  957SOL     OW 2885   0.685   2.874   4.389
  957SOL    HW1 2886   0.754   2.858   4.459
  957SOL    HW2 2887   0.612   2.931   4.427
  958SOL     OW 2888   1.603   2.309   4.461
  958SOL    HW1 2889   1.529   2.355   4.411
  958SOL    HW2 2890   1.654   2.377   4.514
  959SOL     OW 2891   0.231   3.575   4.207
  959SOL    HW1 2892   0.265   3.652   4.261
  959SOL    HW2 2893   0.275   3.575   4.117
  960SOL     OW 2894   0.230   3.296   4.262
  960SOL    HW1 2895   0.204   3.392   4.262
  960SOL    HW2 2896   0.159   3.242   4.307
  961SOL     OW 2897   0.240   2.953   4.610
  961SOL    HW1 2898   0.254   2.869   4.662
  961SOL    HW2 2899   0.185   3.017   4.665
  962SOL     OW 2900   0.606   2.826   3.847
  962SOL    HW1 2901   0.613   2.910   3.793
  962SOL    HW2 2902   0.652   2.839   3.935
  963SOL     OW 2903   0.122   2.505   4.287
  963SOL    HW1 2904   0.077   2.417   4.304
  963SOL    HW2 2905   0.121   2.559   4.371
  964SOL     OW 2906   1.842   3.629   4.083
  964SOL    HW1 2907   1.896   3.600   4.163
  964SOL    HW2 2908   1.872   3.719   4.054
  965SOL     OW 2909   0.027   3.458   3.841
  965SOL    HW1 2910   0.008   3.362   3.862
  965SOL    HW2 2911  -0.006   3.516   3.916
  966SOL     OW 2912   1.689   2.784   4.336
  966SOL    HW1 2913   1.784   2.755   4.344
  966SOL    HW2 2914   1.681   2.849   4.261
  967SOL     OW 2915   1.641   2.970   4.156
  967SOL    HW1 2916   1.727   2.972   4.104
  967SOL    HW2 2917   1.655   3.017   4.244
  968SOL     OW 2918   0.613   3.227   4.450
  968SOL    HW1 2919   0.564   3.140   4.459
  968SOL    HW2 2920   0.590   3.270   4.363
  969SOL     OW 2921   0.809   1.866   4.226
  969SOL    HW1 2922   0.849   1.957   4.217
  969SOL    HW2 2923   0.709   1.874   4.232
  970SOL     OW 2924   1.525   2.861   3.914
  970SOL    HW1 2925   1.462   2.785   3.927
  970SOL    HW2 2926   1.573   2.879   4.000
  971SOL     OW 2927   1.667   3.576   4.296
  971SOL    HW1 2928   1.626   3.553   4.208
  971SOL    HW2 2929   1.649   3.502   4.361
  972SOL     OW 2930   0.598   2.591   3.994
  972SOL    HW1 2931   0.622   2.660   3.926
  972SOL    HW2 2932   0.520   2.624   4.048
  973SOL     OW 2933   1.281   2.207   4.668
  973SOL    HW1 2934   1.195   2.157   4.655
  973SOL    HW2 2935   1.343   2.153   4.724
  974SOL     OW 2936   1.576   3.524   4.031
  974SOL    HW1 2937   1.665   3.570   4.034
  974SOL    HW2 2938   1.555   3.500   3.936
  975SOL     OW 2939   1.041   2.563   4.153
  975SOL    HW1 2940   1.067   2.559   4.249
  975SOL    HW2 2941   0.956   2.512   4.139
  976SOL     OW 2942   0.076   2.673   4.513
  976SOL    HW1 2943   0.175   2.661   4.522
  976SOL    HW2 2944   0.052   2.768   4.534
  977SOL     OW 2945   0.865   2.210   3.919
  977SOL    HW1 2946   0.924   2.273   3.870
  977SOL    HW2 2947   0.884   2.116   3.890
  978SOL     OW 2948   1.362   3.006   4.269
  978SOL    HW1 2949   1.445   2.977   4.221
  978SOL    HW2 2950   1.313   3.073   4.213
  979SOL     OW 2951   0.550   2.058   4.609
  979SOL    HW1 2952   0.545   2.053   4.709
  979SOL    HW2 2953   0.552   2.154   4.580
  980SOL     OW 2954   1.008   3.318   4.201
  980SOL    HW1 2955   0.962   3.390   4.149
  980SOL    HW2 2956   1.004   3.338   4.299
  981SOL     OW 2957   0.351   3.663   4.577
  981SOL    HW1 2958   0.401   3.577   4.583
  981SOL    HW2 2959   0.416   3.740   4.574
  982SOL     OW 2960   1.795   2.928   4.597
  982SOL    HW1 2961   1.733   2.913   4.521
  982SOL    HW2 2962   1.743   2.939   4.682
  983SOL     OW 2963   0.321   2.805   3.966
  983SOL    HW1 2964   0.403   2.844   3.924
  983SOL    HW2 2965   0.294   2.723   3.917
  984SOL     OW 2966   1.458   2.597   4.452
  984SOL    HW1 2967   1.453   2.532   4.527
  984SOL    HW2 2968   1.538   2.656   4.465
  985SOL     OW 2969   1.111   3.638   3.961
  985SOL    HW1 2970   1.051   3.576   4.011
  985SOL    HW2 2971   1.142   3.594   3.876
  986SOL     OW 2972   1.632   3.239   3.805
  986SOL    HW1 2973   1.600   3.333   3.795
  986SOL    HW2 2974   1.556   3.176   3.793
  987SOL     OW 2975   0.464   3.605   4.047
  987SOL    HW1 2976   0.497   3.644   4.133
  987SOL    HW2 2977   0.540   3.598   3.982
  988SOL     OW 2978   1.400   1.969   4.150
  988SOL    HW1 2979   1.376   1.932   4.060
  988SOL    HW2 2980   1.499   1.985   4.154
  989SOL     OW 2981   0.382   2.562   4.204
  989SOL    HW1 2982   0.427   2.472   4.201
  989SOL    HW2 2983   0.288   2.551   4.237
  990SOL     OW 2984   0.614   1.984   3.841
  990SOL    HW1 2985   0.712   1.962   3.848
  990SOL    HW2 2986   0.583   1.967   3.748
  991SOL     OW 2987   0.539   1.926   4.236
  991SOL    HW1 2988   0.458   1.927   4.294
  991SOL    HW2 2989   0.542   2.009   4.181
  992SOL     OW 2990   1.434   3.050   3.765
  992SOL    HW1 2991   1.466   2.974   3.822
  992SOL    HW2 2992   1.342   3.077   3.795
  993SOL     OW 2993   0.297   1.897   3.895
  993SOL    HW1 2994   0.346   1.981   3.874
  993SOL    HW2 2995   0.359   1.832   3.940
  994SOL     OW 2996   0.935   2.098   4.204
  994SOL    HW1 2997   0.887   2.139   4.126
  994SOL    HW2 2998   1.034   2.096   4.185
  995SOL     OW 2999   0.459   3.014   4.465
  995SOL    HW1 3000   0.388   2.987   4.530
  995SOL    HW2 3001   0.433   2.986   4.372
  996SOL     OW 3002   1.271   3.659   4.315
  996SOL    HW1 3003   1.315   3.723   4.251
  996SOL    HW2 3004   1.221   3.711   4.385
  997SOL     OW 3005   1.032   2.411   3.740
  997SOL    HW1 3006   0.991   2.493   3.701
  997SOL    HW2 3007   1.096   2.437   3.813
  998SOL     OW 3008   0.866   2.316   4.366
  998SOL    HW1 3009   0.834   2.388   4.304
  998SOL    HW2 3010   0.890   2.235   4.313
  999SOL     OW 3011   1.017   1.901   4.477
  999SOL    HW1 3012   0.945   1.906   4.408
  999SOL    HW2 3013   0.993   1.832   4.546
 1000SOL     OW 3014   1.857   2.695   4.101
 1000SOL    HW1 3015   1.899   2.631   4.165
 1000SOL    HW2 3016   1.819   2.644   4.023
 1001SOL     OW 3017   0.488   3.247   3.898
 1001SOL    HW1 3018   0.401   3.232   3.945
 1001SOL    HW2 3019   0.471   3.273   3.803
 1002SOL     OW 3020   1.664   3.142   4.381
 1002SOL    HW1 3021   1.763   3.150   4.395
 1002SOL    HW2 3022   1.619   3.226   4.412
 1003SOL     OW 3023   1.390   2.437   3.802
 1003SOL    HW1 3024   1.336   2.416   3.883
 1003SOL    HW2 3025   1.481   2.396   3.811
 1004SOL     OW 3026   0.527   2.118   4.052
 1004SOL    HW1 3027   0.554   2.059   3.977
 1004SOL    HW2 3028   0.527   2.213   4.021
 1005SOL     OW 3029   0.705   2.912   4.092
 1005SOL    HW1 3030   0.691   2.919   4.191
 1005SOL    HW2 3031   0.789   2.861   4.074
 1006SOL     OW 3032   0.367   2.962   4.225
 1006SOL    HW1 3033   0.360   3.045   4.169
 1006SOL    HW2 3034   0.371   2.882   4.165
 1007SOL     OW 3035   0.566   2.399   4.589
 1007SOL    HW1 3036   0.578   2.465   4.515
 1007SOL    HW2 3037   0.612   2.433   4.672
 1008SOL     OW 3038   1.252   3.210   4.112
 1008SOL    HW1 3039   1.302   3.287   4.152
 1008SOL    HW2 3040   1.157   3.212   4.144
 1009SOL     OW 3041   1.582   2.501   4.196
 1009SOL    HW1 3042   1.551   2.562   4.269
 1009SOL    HW2 3043   1.632   2.553   4.127
 1010SOL     OW 3044   1.209   2.387   3.999
 1010SOL    HW1 3045   1.222   2.303   4.053
 1010SOL    HW2 3046   1.180   2.461   4.059
 1011SOL     OW 3047   0.732   2.496   4.788
 1011SOL    HW1 3048   0.791   2.470   4.712
 1011SOL    HW2 3049   0.704   2.592   4.777
 1012SOL     OW 3050   0.307   1.925   4.342
 1012SOL    HW1 3051   0.296   2.019   4.375
 1012SOL    HW2 3052   0.302   1.862   4.419
 1013SOL     OW 3053   1.622   2.229   4.098
 1013SOL    HW1 3054   1.624   2.153   4.162
 1013SOL    HW2 3055   1.574   2.306   4.138
 1014SOL     OW 3056   1.540   2.136   3.849
 1014SOL    HW1 3057   1.479   2.061   3.872
 1014SOL    HW2 3058   1.562   2.188   3.932
 1015SOL     OW 3059   1.303   2.700   3.766
 1015SOL    HW1 3060   1.337   2.607   3.781
 1015SOL    HW2 3061   1.321   2.727   3.671
 1016SOL     OW 3062   1.068   3.195   4.573
 1016SOL    HW1 3063   1.075   3.111   4.518
 1016SOL    HW2 3064   1.130   3.264   4.537
 1017SOL     OW 3065   0.008   3.188   3.924
 1017SOL    HW1 3066  -0.085   3.209   3.893
 1017SOL    HW2 3067   0.018   3.089   3.937
 1018SOL     OW 3068   0.088   3.663   4.651
 1018SOL    HW1 3069   0.046   3.577   4.624
 1018SOL    HW2 3070   0.182   3.666   4.617
 1019SOL     OW 3071   0.815   2.434   4.049
 1019SOL    HW1 3072   0.822   2.345   4.003
 1019SOL    HW2 3073   0.721   2.468   4.041
 1020SOL     OW 3074   0.473   2.362   3.915
 1020SOL    HW1 3075   0.534   2.442   3.919
 1020SOL    HW2 3076   0.378   2.393   3.922
 1021SOL     OW 3077   1.302   2.717   4.033
 1021SOL    HW1 3078   1.216   2.686   4.075
 1021SOL    HW2 3079   1.298   2.703   3.934
 1022SOL     OW 3080   1.726   1.997   4.247
 1022SOL    HW1 3081   1.799   1.980   4.180
 1022SOL    HW2 3082   1.695   1.910   4.285
 1023SOL     OW 3083   1.388   3.435   4.201
 1023SOL    HW1 3084   1.455   3.447   4.127
 1023SOL    HW2 3085   1.348   3.524   4.224
 1024SOL     OW 3086   1.280   2.789   4.396
 1024SOL    HW1 3087   1.340   2.708   4.398
 1024SOL    HW2 3088   1.320   2.858   4.336
 1025SOL     OW 3089   0.672   3.478   3.878
 1025SOL    HW1 3090   0.681   3.488   3.779
 1025SOL    HW2 3091   0.632   3.389   3.899
 1026SOL     OW 3092   1.841   2.037   4.687
 1026SOL    HW1 3093   1.880   1.952   4.651
 1026SOL    HW2 3094   1.743   2.039   4.668
 1027SOL     OW 3095   0.263   2.188   4.444
 1027SOL    HW1 3096   0.184   2.239   4.410
 1027SOL    HW2 3097   0.254   2.173   4.542
 1028SOL     OW 3098   1.194   3.474   3.755
 1028SOL    HW1 3099   1.200   3.381   3.792
 1028SOL    HW2 3100   1.135   3.474   3.675
 1029SOL     OW 3101   0.916   2.772   4.015
 1029SOL    HW1 3102   0.979   2.810   3.947
 1029SOL    HW2 3103   0.956   2.689   4.054
 1030SOL     OW 3104   1.504   3.469   3.768
 1030SOL    HW1 3105   1.412   3.506   3.775
 1030SOL    HW2 3106   1.542   3.489   3.678
 1031SOL     OW 3107   1.039   2.960   4.420
 1031SOL    HW1 3108   0.969   2.913   4.474
 1031SOL    HW2 3109   1.098   2.892   4.377
 1032SOL     OW 3110   0.590   3.349   4.215
 1032SOL    HW1 3111   0.632   3.291   4.145
 1032SOL    HW2 3112   0.546   3.428   4.171
 1033SOL     OW 3113   0.255   3.210   4.014
 1033SOL    HW1 3114   0.159   3.211   3.987
 1033SOL    HW2 3115   0.267   3.263   4.098
 1034SOL     OW 3116   0.075   2.207   3.757
 1034SOL    HW1 3117  -0.017   2.179   3.728
 1034SOL    HW2 3118   0.106   2.284   3.701
 1035SOL     OW 3119   0.072   2.028   4.042
 1035SOL    HW1 3120   0.055   2.111   3.988
 1035SOL    HW2 3121   0.162   1.991   4.020
 1036SOL     OW 3122   1.183   3.197   3.843
 1036SOL    HW1 3123   1.084   3.186   3.845
 1036SOL    HW2 3124   1.217   3.212   3.936
 1037SOL     OW 3125   1.225   2.187   4.173
 1037SOL    HW1 3126   1.290   2.113   4.162
 1037SOL    HW2 3127   1.245   2.237   4.257
 1038SOL     OW 3128   0.594   2.607   4.376
 1038SOL    HW1 3129   0.644   2.692   4.357
 1038SOL    HW2 3130   0.506   2.609   4.328
 1039SOL     OW 3131   0.859   3.236   3.740
 1039SOL    HW1 3132   0.813   3.251   3.828
 1039SOL    HW2 3133   0.903   3.321   3.710
 1040SOL     OW 3134   0.661   3.652   4.677
 1040SOL    HW1 3135   0.615   3.740   4.664
 1040SOL    HW2 3136   0.760   3.664   4.670
 1041SOL     OW 3137   0.859   2.818   4.585
 1041SOL    HW1 3138   0.913   2.749   4.633
 1041SOL    HW2 3139   0.827   2.887   4.651
 1042SOL     OW 3140   1.083   2.846   3.811
 1042SOL    HW1 3141   1.060   2.899   3.729
 1042SOL    HW2 3142   1.164   2.790   3.792
 1043SOL     OW 3143   1.861   3.431   4.575
 1043SOL    HW1 3144   1.790   3.419   4.505
 1043SOL    HW2 3145   1.862   3.352   4.635
 1044SOL     OW 3146   0.079   3.102   4.377
 1044SOL    HW1 3147   0.078   3.055   4.465
 1044SOL    HW2 3148   0.161   3.074   4.326
 1045SOL     OW 3149   0.428   2.286   4.244
 1045SOL    HW1 3150   0.458   2.214   4.182
 1045SOL    HW2 3151   0.389   2.246   4.327
 1046SOL     OW 3152   0.812   3.448   4.411
 1046SOL    HW1 3153   0.844   3.458   4.317
 1046SOL    HW2 3154   0.733   3.386   4.413
 1047SOL     OW 3155   0.770   3.192   4.025
 1047SOL    HW1 3156   0.724   3.105   4.042
 1047SOL    HW2 3157   0.861   3.189   4.066
 1048SOL     OW 3158   1.352   1.914   3.892
 1048SOL    HW1 3159   1.387   1.873   3.808
 1048SOL    HW2 3160   1.262   1.876   3.912
 1049SOL     OW 3161   1.300   2.315   4.415
 1049SOL    HW1 3162   1.241   2.395   4.419
 1049SOL    HW2 3163   1.315   2.280   4.508
 1050SOL     OW 3164   0.039   2.939   4.024
 1050SOL    HW1 3165   0.138   2.928   4.015
 1050SOL    HW2 3166  -0.001   2.853   4.056
 1051SOL     OW 3167   0.875   3.508   4.061
 1051SOL    HW1 3168   0.798   3.473   4.007
 1051SOL    HW2 3169   0.843   3.579   4.123
 1052SOL     OW 3170   0.230   4.352   0.113
 1052SOL    HW1 3171   0.137   4.350   0.150
 1052SOL    HW2 3172   0.231   4.313   0.021
 1053SOL     OW 3173   0.225   3.999   0.996
 1053SOL    HW1 3174   0.260   3.982   1.088
 1053SOL    HW2 3175   0.137   3.954   0.984
 1054SOL     OW 3176   0.019   4.092   0.647
 1054SOL    HW1 3177  -0.063   4.135   0.686
 1054SOL    HW2 3178  -0.009   4.019   0.584
 1055SOL     OW 3179   1.135   4.427   0.717
 1055SOL    HW1 3180   1.192   4.505   0.692
 1055SOL    HW2 3181   1.075   4.453   0.793
 1056SOL     OW 3182   1.755   4.331   0.231
 1056SOL    HW1 3183   1.743   4.318   0.132
 1056SOL    HW2 3184   1.725   4.250   0.280
 1057SOL     OW 3185   0.850   4.522   1.823
 1057SOL    HW1 3186   0.846   4.598   1.888
 1057SOL    HW2 3187   0.872   4.558   1.732
 1058SOL     OW 3188   0.685   4.736   0.665
 1058SOL    HW1 3189   0.754   4.720   0.735
 1058SOL    HW2 3190   0.612   4.793   0.703
 1059SOL     OW 3191   0.438   4.116   1.499
 1059SOL    HW1 3192   0.520   4.060   1.508
 1059SOL    HW2 3193   0.357   4.058   1.503
 1060SOL     OW 3194   1.603   4.171   0.737
 1060SOL    HW1 3195   1.529   4.217   0.687
 1060SOL    HW2 3196   1.654   4.239   0.790
 1061SOL     OW 3197   1.594   3.838   1.480
 1061SOL    HW1 3198   1.576   3.905   1.408
 1061SOL    HW2 3199   1.591   3.884   1.569
 1062SOL     OW 3200   0.122   4.367   0.563
 1062SOL    HW1 3201   0.077   4.279   0.580
 1062SOL    HW2 3202   0.121   4.421   0.647
 1063SOL     OW 3203   0.113   4.461   1.597
 1063SOL    HW1 3204   0.201   4.448   1.642
 1063SOL    HW2 3205   0.100   4.558   1.575
 1064SOL     OW 3206   0.809   3.728   0.502
 1064SOL    HW1 3207   0.849   3.819   0.493
 1064SOL    HW2 3208   0.709   3.736   0.508
 1065SOL     OW 3209   0.317   3.975   1.801
 1065SOL    HW1 3210   0.388   4.046   1.807
 1065SOL    HW2 3211   0.229   4.014   1.829
 1066SOL     OW 3212   0.598   4.453   0.270
 1066SOL    HW1 3213   0.622   4.522   0.202
 1066SOL    HW2 3214   0.520   4.486   0.324
 1067SOL     OW 3215   1.281   4.069   0.944
 1067SOL    HW1 3216   1.195   4.019   0.931
 1067SOL    HW2 3217   1.343   4.015   1.000
 1068SOL     OW 3218   0.807   4.329   1.465
 1068SOL    HW1 3219   0.760   4.326   1.554
 1068SOL    HW2 3220   0.756   4.274   1.399
 1069SOL     OW 3221   1.394   4.193   1.674
 1069SOL    HW1 3222   1.374   4.236   1.762
 1069SOL    HW2 3223   1.472   4.131   1.683
 1070SOL     OW 3224   0.991   4.134   1.242
 1070SOL    HW1 3225   0.914   4.168   1.296
 1070SOL    HW2 3226   0.957   4.083   1.163
 1071SOL     OW 3227   1.041   4.425   0.429
 1071SOL    HW1 3228   1.067   4.421   0.525
 1071SOL    HW2 3229   0.956   4.374   0.415
 1072SOL     OW 3230   0.076   4.535   0.789
 1072SOL    HW1 3231   0.175   4.523   0.798
 1072SOL    HW2 3232   0.052   4.630   0.810
 1073SOL     OW 3233   0.865   4.072   0.195
 1073SOL    HW1 3234   0.924   4.135   0.146
 1073SOL    HW2 3235   0.884   3.978   0.166
 1074SOL     OW 3236   1.719   4.309   1.831
 1074SOL    HW1 3237   1.693   4.398   1.795
 1074SOL    HW2 3238   1.717   4.241   1.758
 1075SOL     OW 3239   0.550   3.920   0.885
 1075SOL    HW1 3240   0.545   3.915   0.985
 1075SOL    HW2 3241   0.552   4.016   0.856
 1076SOL     OW 3242   1.458   4.459   0.728
 1076SOL    HW1 3243   1.453   4.394   0.803
 1076SOL    HW2 3244   1.538   4.518   0.741
 1077SOL     OW 3245   0.202   4.009   1.498
 1077SOL    HW1 3246   0.122   4.069   1.485
 1077SOL    HW2 3247   0.192   3.960   1.584
 1078SOL     OW 3248   1.400   3.831   0.426
 1078SOL    HW1 3249   1.376   3.794   0.336
 1078SOL    HW2 3250   1.499   3.847   0.430
 1079SOL     OW 3251   0.382   4.424   0.480
 1079SOL    HW1 3252   0.427   4.334   0.477
 1079SOL    HW2 3253   0.288   4.413   0.513
 1080SOL     OW 3254   1.547   3.946   1.729
 1080SOL    HW1 3255   1.542   3.983   1.821
 1080SOL    HW2 3256   1.475   3.877   1.717
 1081SOL     OW 3257   0.781   3.988   1.749
 1081SOL    HW1 3258   0.848   3.927   1.792
 1081SOL    HW2 3259   0.708   4.007   1.814
 1082SOL     OW 3260   1.351   4.314   1.433
 1082SOL    HW1 3261   1.379   4.271   1.518
 1082SOL    HW2 3262   1.376   4.410   1.434
 1083SOL     OW 3263   0.922   4.227   0.899
 1083SOL    HW1 3264   0.897   4.218   0.803
 1083SOL    HW2 3265   0.970   4.145   0.930
 1084SOL     OW 3266   0.539   3.788   0.512
 1084SOL    HW1 3267   0.458   3.789   0.570
 1084SOL    HW2 3268   0.542   3.871   0.457
 1085SOL     OW 3269   0.297   3.759   0.171
 1085SOL    HW1 3270   0.346   3.843   0.150
 1085SOL    HW2 3271   0.359   3.694   0.216
 1086SOL     OW 3272   0.935   3.960   0.480
 1086SOL    HW1 3273   0.887   4.001   0.402
 1086SOL    HW2 3274   1.034   3.958   0.461
 1087SOL     OW 3275   1.076   4.407   1.464
 1087SOL    HW1 3276   0.996   4.346   1.467
 1087SOL    HW2 3277   1.157   4.354   1.440
 1088SOL     OW 3278   1.032   4.273   0.016
 1088SOL    HW1 3279   0.991   4.355  -0.023
 1088SOL    HW2 3280   1.096   4.299   0.089
 1089SOL     OW 3281   0.078   4.280   1.386
 1089SOL    HW1 3282   0.170   4.279   1.345
 1089SOL    HW2 3283   0.072   4.354   1.453
 1090SOL     OW 3284   0.561   3.946   1.147
 1090SOL    HW1 3285   0.599   3.862   1.184
 1090SOL    HW2 3286   0.473   3.965   1.191
 1091SOL     OW 3287   0.866   4.178   0.642
 1091SOL    HW1 3288   0.834   4.250   0.580
 1091SOL    HW2 3289   0.890   4.097   0.589
 1092SOL     OW 3290   1.017   3.763   0.753
 1092SOL    HW1 3291   0.945   3.768   0.684
 1092SOL    HW2 3292   0.993   3.694   0.822
 1093SOL     OW 3293   1.466   4.314   0.992
 1093SOL    HW1 3294   1.436   4.219   0.999
 1093SOL    HW2 3295   1.539   4.330   1.058
 1094SOL     OW 3296   1.857   4.557   0.377
 1094SOL    HW1 3297   1.899   4.493   0.441
 1094SOL    HW2 3298   1.819   4.506   0.299
 1095SOL     OW 3299   1.390   4.299   0.078
 1095SOL    HW1 3300   1.336   4.278   0.159
 1095SOL    HW2 3301   1.481   4.258   0.087
 1096SOL     OW 3302   0.527   3.980   0.328
 1096SOL    HW1 3303   0.554   3.921   0.253
 1096SOL    HW2 3304   0.527   4.075   0.297
 1097SOL     OW 3305   0.915   3.813   1.402
 1097SOL    HW1 3306   0.940   3.793   1.307
 1097SOL    HW2 3307   0.987   3.869   1.444
 1098SOL     OW 3308   0.410   4.537   1.251
 1098SOL    HW1 3309   0.496   4.549   1.301
 1098SOL    HW2 3310   0.368   4.450   1.278
 1099SOL     OW 3311   1.274   4.110   1.262
 1099SOL    HW1 3312   1.295   4.184   1.326
 1099SOL    HW2 3313   1.185   4.127   1.219
 1100SOL     OW 3314   0.566   4.261   0.865
 1100SOL    HW1 3315   0.578   4.327   0.791
 1100SOL    HW2 3316   0.612   4.295   0.948
 1101SOL     OW 3317   1.582   4.363   0.472
 1101SOL    HW1 3318   1.551   4.424   0.545
 1101SOL    HW2 3319   1.632   4.415   0.403
 1102SOL     OW 3320   0.402   4.475   1.598
 1102SOL    HW1 3321   0.470   4.530   1.551
 1102SOL    HW2 3322   0.442   4.387   1.625
 1103SOL     OW 3323   1.587   4.503   1.670
 1103SOL    HW1 3324   1.495   4.541   1.665
 1103SOL    HW2 3325   1.647   4.550   1.605
 1104SOL     OW 3326   1.013   3.829   1.770
 1104SOL    HW1 3327   1.019   3.914   1.718
 1104SOL    HW2 3328   1.045   3.753   1.713
 1105SOL     OW 3329   0.504   3.774   1.740
 1105SOL    HW1 3330   0.462   3.717   1.670
 1105SOL    HW2 3331   0.438   3.843   1.772
 1106SOL     OW 3332   0.573   4.594   1.029
 1106SOL    HW1 3333   0.617   4.683   1.020
 1106SOL    HW2 3334   0.510   4.594   1.106
 1107SOL     OW 3335   1.360   4.586   1.045
 1107SOL    HW1 3336   1.285   4.586   0.979
 1107SOL    HW2 3337   1.397   4.494   1.054
 1108SOL     OW 3338   1.209   4.249   0.275
 1108SOL    HW1 3339   1.222   4.165   0.329
 1108SOL    HW2 3340   1.180   4.323   0.335
 1109SOL     OW 3341   0.307   3.937   1.231
 1109SOL    HW1 3342   0.284   3.974   1.321
 1109SOL    HW2 3343   0.277   3.842   1.225
 1110SOL     OW 3344   0.732   4.358   1.064
 1110SOL    HW1 3345   0.791   4.332   0.988
 1110SOL    HW2 3346   0.704   4.454   1.053
 1111SOL     OW 3347   1.728   4.659   1.854
 1111SOL    HW1 3348   1.682   4.652   1.765
 1111SOL    HW2 3349   1.666   4.703   1.920
 1112SOL     OW 3350   0.307   3.787   0.618
 1112SOL    HW1 3351   0.296   3.881   0.651
 1112SOL    HW2 3352   0.302   3.724   0.695
 1113SOL     OW 3353   1.622   4.091   0.374
 1113SOL    HW1 3354   1.624   4.015   0.438
 1113SOL    HW2 3355   1.574   4.168   0.414
 1114SOL     OW 3356   1.023   4.490   0.966
 1114SOL    HW1 3357   1.038   4.511   1.062
 1114SOL    HW2 3358   0.993   4.395   0.957
 1115SOL     OW 3359   1.540   3.998   0.125
 1115SOL    HW1 3360   1.479   3.923   0.148
 1115SOL    HW2 3361   1.562   4.050   0.208
 1116SOL     OW 3362   0.319   4.534   0.949
 1116SOL    HW1 3363   0.412   4.570   0.954
 1116SOL    HW2 3364   0.313   4.449   1.001
 1117SOL     OW 3365   0.339   4.233   1.006
 1117SOL    HW1 3366   0.287   4.150   0.989
 1117SOL    HW2 3367   0.416   4.238   0.942
 1118SOL     OW 3368   1.138   4.104   1.678
 1118SOL    HW1 3369   1.093   4.167   1.742
 1118SOL    HW2 3370   1.231   4.135   1.661
 1119SOL     OW 3371   1.160   3.931   1.477
 1119SOL    HW1 3372   1.160   3.995   1.554
 1119SOL    HW2 3373   1.188   3.979   1.394
 1120SOL     OW 3374   1.002   4.520   1.238
 1120SOL    HW1 3375   1.043   4.488   1.324
 1120SOL    HW2 3376   0.906   4.493   1.235
 1121SOL     OW 3377   0.040   4.268   1.114
 1121SOL    HW1 3378   0.125   4.235   1.073
 1121SOL    HW2 3379   0.053   4.283   1.212
 1122SOL     OW 3380   0.189   4.244   1.722
 1122SOL    HW1 3381   0.248   4.204   1.652
 1122SOL    HW2 3382   0.131   4.315   1.681
 1123SOL     OW 3383   0.815   4.296   0.325
 1123SOL    HW1 3384   0.822   4.207   0.279
 1123SOL    HW2 3385   0.721   4.330   0.317
 1124SOL     OW 3386   1.657   4.328   1.206
 1124SOL    HW1 3387   1.619   4.259   1.268
 1124SOL    HW2 3388   1.739   4.292   1.162
 1125SOL     OW 3389   0.671   4.188   1.269
 1125SOL    HW1 3390   0.637   4.099   1.239
 1125SOL    HW2 3391   0.697   4.242   1.189
 1126SOL     OW 3392   0.473   4.224   0.191
 1126SOL    HW1 3393   0.534   4.304   0.195
 1126SOL    HW2 3394   0.378   4.255   0.198
 1127SOL     OW 3395   0.903   3.810   0.133
 1127SOL    HW1 3396   0.954   3.811   0.047
 1127SOL    HW2 3397   0.959   3.768   0.204
 1128SOL     OW 3398   1.726   3.859   0.523
 1128SOL    HW1 3399   1.799   3.842   0.456
 1128SOL    HW2 3400   1.695   3.772   0.561
 1129SOL     OW 3401   1.280   4.651   0.672
 1129SOL    HW1 3402   1.340   4.570   0.674
 1129SOL    HW2 3403   1.320   4.720   0.612
 1130SOL     OW 3404   1.841   3.899   0.963
 1130SOL    HW1 3405   1.880   3.814   0.927
 1130SOL    HW2 3406   1.743   3.901   0.944
 1131SOL     OW 3407   0.263   4.050   0.720
 1131SOL    HW1 3408   0.184   4.101   0.686
 1131SOL    HW2 3409   0.254   4.035   0.818
 1132SOL     OW 3410   1.014   3.960   0.971
 1132SOL    HW1 3411   1.006   3.924   0.878
 1132SOL    HW2 3412   1.012   3.884   1.036
 1133SOL     OW 3413   1.709   4.109   1.381
 1133SOL    HW1 3414   1.782   4.178   1.385
 1133SOL    HW2 3415   1.737   4.034   1.322
 1134SOL     OW 3416   0.105   4.737   1.726
 1134SOL    HW1 3417   0.028   4.704   1.780
 1134SOL    HW2 3418   0.190   4.707   1.768
 1135SOL     OW 3419   0.672   3.927   1.489
 1135SOL    HW1 3420   0.762   3.911   1.449
 1135SOL    HW2 3421   0.680   3.932   1.588
 1136SOL     OW 3422   0.075   4.069   0.033
 1136SOL    HW1 3423  -0.017   4.041   0.004
 1136SOL    HW2 3424   0.106   4.146  -0.023
 1137SOL     OW 3425   1.440   4.580   1.398
 1137SOL    HW1 3426   1.383   4.632   1.335
 1137SOL    HW2 3427   1.536   4.592   1.374
 1138SOL     OW 3428   0.072   3.890   0.318
 1138SOL    HW1 3429   0.055   3.973   0.264
 1138SOL    HW2 3430   0.162   3.853   0.296
 1139SOL     OW 3431   0.613   4.566   1.431
 1139SOL    HW1 3432   0.669   4.647   1.414
 1139SOL    HW2 3433   0.672   4.486   1.434
 1140SOL     OW 3434   0.716   4.289   1.708
 1140SOL    HW1 3435   0.735   4.354   1.782
 1140SOL    HW2 3436   0.776   4.209   1.717
 1141SOL     OW 3437   1.674   4.607   1.254
 1141SOL    HW1 3438   1.647   4.518   1.217
 1141SOL    HW2 3439   1.675   4.675   1.181
 1142SOL     OW 3440   1.225   4.049   0.449
 1142SOL    HW1 3441   1.290   3.975   0.438
 1142SOL    HW2 3442   1.245   4.099   0.533
 1143SOL     OW 3443   0.594   4.469   0.652
 1143SOL    HW1 3444   0.644   4.554   0.633
 1143SOL    HW2 3445   0.506   4.471   0.604
 1144SOL     OW 3446   1.777   4.066   1.642
 1144SOL    HW1 3447   1.760   4.097   1.548
 1144SOL    HW2 3448   1.693   4.029   1.680
 1145SOL     OW 3449   1.730   4.658   1.517
 1145SOL    HW1 3450   1.768   4.749   1.532
 1145SOL    HW2 3451   1.722   4.641   1.418
 1146SOL     OW 3452   1.824   3.916   1.227
 1146SOL    HW1 3453   1.820   3.826   1.271
 1146SOL    HW2 3454   1.827   3.905   1.128
 1147SOL     OW 3455   0.428   4.148   0.520
 1147SOL    HW1 3456   0.458   4.076   0.458
 1147SOL    HW2 3457   0.389   4.108   0.603
 1148SOL     OW 3458   0.317   4.271   1.280
 1148SOL    HW1 3459   0.355   4.212   1.352
 1148SOL    HW2 3460   0.357   4.245   1.192
 1149SOL     OW 3461   1.424   3.938   1.112
 1149SOL    HW1 3462   1.476   3.873   1.167
 1149SOL    HW2 3463   1.375   4.001   1.173
 1150SOL     OW 3464   1.001   3.758   1.154
 1150SOL    HW1 3465   0.938   3.686   1.123
 1150SOL    HW2 3466   1.094   3.722   1.154
 1151SOL     OW 3467   1.352   3.776   0.168
 1151SOL    HW1 3468   1.387   3.735   0.084
 1151SOL    HW2 3469   1.262   3.738   0.188
 1152SOL     OW 3470   1.300   4.177   0.691
 1152SOL    HW1 3471   1.241   4.257   0.695
 1152SOL    HW2 3472   1.315   4.142   0.784
 1153SOL     OW 3473   1.593   3.945   0.882
 1153SOL    HW1 3474   1.509   3.944   0.936
 1153SOL    HW2 3475   1.595   4.028   0.826
 1154SOL     OW 3476   0.230   4.352   1.975
 1154SOL    HW1 3477   0.137   4.350   2.012
 1154SOL    HW2 3478   0.231   4.313   1.883
 1155SOL     OW 3479   0.225   3.999   2.858
 1155SOL    HW1 3480   0.260   3.982   2.950
 1155SOL    HW2 3481   0.137   3.954   2.846
 1156SOL     OW 3482   0.019   4.092   2.509
 1156SOL    HW1 3483  -0.063   4.135   2.548
 1156SOL    HW2 3484  -0.009   4.019   2.446
 1157SOL     OW 3485   1.135   4.427   2.579
 1157SOL    HW1 3486   1.192   4.505   2.554
 1157SOL    HW2 3487   1.075   4.453   2.655
 1158SOL     OW 3488   1.755   4.331   2.093
 1158SOL    HW1 3489   1.743   4.318   1.994
 1158SOL    HW2 3490   1.725   4.250   2.142
 1159SOL     OW 3491   0.850   4.522   3.685
 1159SOL    HW1 3492   0.846   4.598   3.750
 1159SOL    HW2 3493   0.872   4.558   3.594
 1160SOL     OW 3494   0.685   4.736   2.527
 1160SOL    HW1 3495   0.754   4.720   2.597
 1160SOL    HW2 3496   0.612   4.793   2.565
 1161SOL     OW 3497   0.438   4.116   3.361
 1161SOL    HW1 3498   0.520   4.060   3.370
 1161SOL    HW2 3499   0.357   4.058   3.365
 1162SOL     OW 3500   1.603   4.171   2.599
 1162SOL    HW1 3501   1.529   4.217   2.549
 1162SOL    HW2 3502   1.654   4.239   2.652
 1163SOL     OW 3503   1.594   3.838   3.342
 1163SOL    HW1 3504   1.576   3.905   3.270
 1163SOL    HW2 3505   1.591   3.884   3.431
 1164SOL     OW 3506   0.122   4.367   2.425
 1164SOL    HW1 3507   0.077   4.279   2.442
 1164SOL    HW2 3508   0.121   4.421   2.509
 1165SOL     OW 3509   0.113   4.461   3.459
 1165SOL    HW1 3510   0.201   4.448   3.504
 1165SOL    HW2 3511   0.100   4.558   3.437
 1166SOL     OW 3512   0.809   3.728   2.364
 1166SOL    HW1 3513   0.849   3.819   2.355
 1166SOL    HW2 3514   0.709   3.736   2.370
 1167SOL     OW 3515   0.317   3.975   3.663
 1167SOL    HW1 3516   0.388   4.046   3.669
 1167SOL    HW2 3517   0.229   4.014   3.691
 1168SOL     OW 3518   0.598   4.453   2.132
 1168SOL    HW1 3519   0.622   4.522   2.064
 1168SOL    HW2 3520   0.520   4.486   2.186
 1169SOL     OW 3521   1.281   4.069   2.806
 1169SOL    HW1 3522   1.195   4.019   2.793
 1169SOL    HW2 3523   1.343   4.015   2.862
 1170SOL     OW 3524   0.807   4.329   3.327
 1170SOL    HW1 3525   0.760   4.326   3.416
 1170SOL    HW2 3526   0.756   4.274   3.261
 1171SOL     OW 3527   1.394   4.193   3.536
 1171SOL    HW1 3528   1.374   4.236   3.624
 1171SOL    HW2 3529   1.472   4.131   3.545
 1172SOL     OW 3530   0.991   4.134   3.104
 1172SOL    HW1 3531   0.914   4.168   3.158
 1172SOL    HW2 3532   0.957   4.083   3.025
 1173SOL     OW 3533   1.041   4.425   2.291
 1173SOL    HW1 3534   1.067   4.421   2.387
 1173SOL    HW2 3535   0.956   4.374   2.277
 1174SOL     OW 3536   0.076   4.535   2.651
 1174SOL    HW1 3537   0.175   4.523   2.660
 1174SOL    HW2 3538   0.052   4.630   2.672
 1175SOL     OW 3539   0.865   4.072   2.057
 1175SOL    HW1 3540   0.924   4.135   2.008
 1175SOL    HW2 3541   0.884   3.978   2.028
 1176SOL     OW 3542   1.719   4.309   3.693
 1176SOL    HW1 3543   1.693   4.398   3.657
 1176SOL    HW2 3544   1.717   4.241   3.620
 1177SOL     OW 3545   0.550   3.920   2.747
 1177SOL    HW1 3546   0.545   3.915   2.847
 1177SOL    HW2 3547   0.552   4.016   2.718
 1178SOL     OW 3548   1.458   4.459   2.590
 1178SOL    HW1 3549   1.453   4.394   2.665
 1178SOL    HW2 3550   1.538   4.518   2.603
 1179SOL     OW 3551   0.202   4.009   3.360
 1179SOL    HW1 3552   0.122   4.069   3.347
 1179SOL    HW2 3553   0.192   3.960   3.446
 1180SOL     OW 3554   1.400   3.831   2.288
 1180SOL    HW1 3555   1.376   3.794   2.198
 1180SOL    HW2 3556   1.499   3.847   2.292
 1181SOL     OW 3557   0.382   4.424   2.342
 1181SOL    HW1 3558   0.427   4.334   2.339
 1181SOL    HW2 3559   0.288   4.413   2.375
 1182SOL     OW 3560   1.547   3.946   3.591
 1182SOL    HW1 3561   1.542   3.983   3.683
 1182SOL    HW2 3562   1.475   3.877   3.579
 1183SOL     OW 3563   0.614   3.846   1.979
 1183SOL    HW1 3564   0.712   3.824   1.986
 1183SOL    HW2 3565   0.583   3.829   1.886
 1184SOL     OW 3566   0.781   3.988   3.611
 1184SOL    HW1 3567   0.848   3.927   3.654
 1184SOL    HW2 3568   0.708   4.007   3.676
 1185SOL     OW 3569   1.351   4.314   3.295
 1185SOL    HW1 3570   1.379   4.271   3.380
 1185SOL    HW2 3571   1.376   4.410   3.296
 1186SOL     OW 3572   0.922   4.227   2.761
 1186SOL    HW1 3573   0.897   4.218   2.665
 1186SOL    HW2 3574   0.970   4.145   2.792
 1187SOL     OW 3575   0.539   3.788   2.374
 1187SOL    HW1 3576   0.458   3.789   2.432
 1187SOL    HW2 3577   0.542   3.871   2.319
 1188SOL     OW 3578   0.297   3.759   2.033
 1188SOL    HW1 3579   0.346   3.843   2.012
 1188SOL    HW2 3580   0.359   3.694   2.078
 1189SOL     OW 3581   0.935   3.960   2.342
 1189SOL    HW1 3582   0.887   4.001   2.264
 1189SOL    HW2 3583   1.034   3.958   2.323
 1190SOL     OW 3584   1.076   4.407   3.326
 1190SOL    HW1 3585   0.996   4.346   3.329
 1190SOL    HW2 3586   1.157   4.354   3.302
 1191SOL     OW 3587   1.032   4.273   1.878
 1191SOL    HW1 3588   0.991   4.355   1.839
 1191SOL    HW2 3589   1.096   4.299   1.951
 1192SOL     OW 3590   0.078   4.280   3.248
 1192SOL    HW1 3591   0.170   4.279   3.207
 1192SOL    HW2 3592   0.072   4.354   3.315
 1193SOL     OW 3593   0.561   3.946   3.009
 1193SOL    HW1 3594   0.599   3.862   3.046
 1193SOL    HW2 3595   0.473   3.965   3.053
 1194SOL     OW 3596   0.866   4.178   2.504
 1194SOL    HW1 3597   0.834   4.250   2.442
 1194SOL    HW2 3598   0.890   4.097   2.451
 1195SOL     OW 3599   1.017   3.763   2.615
 1195SOL    HW1 3600   0.945   3.768   2.546
 1195SOL    HW2 3601   0.993   3.694   2.684
 1196SOL     OW 3602   1.466   4.314   2.854
 1196SOL    HW1 3603   1.436   4.219   2.861
 1196SOL    HW2 3604   1.539   4.330   2.920
 1197SOL     OW 3605   1.857   4.557   2.239
 1197SOL    HW1 3606   1.899   4.493   2.303
 1197SOL    HW2 3607   1.819   4.506   2.161
 1198SOL     OW 3608   1.390   4.299   1.940
 1198SOL    HW1 3609   1.336   4.278   2.021
 1198SOL    HW2 3610   1.481   4.258   1.949
 1199SOL     OW 3611   0.527   3.980   2.190
 1199SOL    HW1 3612   0.554   3.921   2.115
 1199SOL    HW2 3613   0.527   4.075   2.159
 1200SOL     OW 3614   0.915   3.813   3.264
 1200SOL    HW1 3615   0.940   3.793   3.169
 1200SOL    HW2 3616   0.987   3.869   3.306
 1201SOL     OW 3617   0.410   4.537   3.113
 1201SOL    HW1 3618   0.496   4.549   3.163
 1201SOL    HW2 3619   0.368   4.450   3.140
 1202SOL     OW 3620   1.274   4.110   3.124
 1202SOL    HW1 3621   1.295   4.184   3.188
 1202SOL    HW2 3622   1.185   4.127   3.081
 1203SOL     OW 3623   0.566   4.261   2.727
 1203SOL    HW1 3624   0.578   4.327   2.653
 1203SOL    HW2 3625   0.612   4.295   2.810
 1204SOL     OW 3626   1.582   4.363   2.334
 1204SOL    HW1 3627   1.551   4.424   2.407
 1204SOL    HW2 3628   1.632   4.415   2.265
 1205SOL     OW 3629   0.402   4.475   3.460
 1205SOL    HW1 3630   0.470   4.530   3.413
 1205SOL    HW2 3631   0.442   4.387   3.487
 1206SOL     OW 3632   1.587   4.503   3.532
 1206SOL    HW1 3633   1.495   4.541   3.527
 1206SOL    HW2 3634   1.647   4.550   3.467
 1207SOL     OW 3635   1.013   3.829   3.632
 1207SOL    HW1 3636   1.019   3.914   3.580
 1207SOL    HW2 3637   1.045   3.753   3.575
 1208SOL     OW 3638   0.504   3.774   3.602
 1208SOL    HW1 3639   0.462   3.717   3.532
 1208SOL    HW2 3640   0.438   3.843   3.634
 1209SOL     OW 3641   0.573   4.594   2.891
 1209SOL    HW1 3642   0.617   4.683   2.882
 1209SOL    HW2 3643   0.510   4.594   2.968
 1210SOL     OW 3644   1.360   4.586   2.907
 1210SOL    HW1 3645   1.285   4.586   2.841
 1210SOL    HW2 3646   1.397   4.494   2.916
 1211SOL     OW 3647   1.209   4.249   2.137
 1211SOL    HW1 3648   1.222   4.165   2.191
 1211SOL    HW2 3649   1.180   4.323   2.197
 1212SOL     OW 3650   0.307   3.937   3.093
 1212SOL    HW1 3651   0.284   3.974   3.183
 1212SOL    HW2 3652   0.277   3.842   3.087
 1213SOL     OW 3653   0.732   4.358   2.926
 1213SOL    HW1 3654   0.791   4.332   2.850
 1213SOL    HW2 3655   0.704   4.454   2.915
 1214SOL     OW 3656   1.728   4.659   3.716
 1214SOL    HW1 3657   1.682   4.652   3.627
 1214SOL    HW2 3658   1.666   4.703   3.782
 1215SOL     OW 3659   0.307   3.787   2.480
 1215SOL    HW1 3660   0.296   3.881   2.513
 1215SOL    HW2 3661   0.302   3.724   2.557
 1216SOL     OW 3662   1.622   4.091   2.236
 1216SOL    HW1 3663   1.624   4.015   2.300
 1216SOL    HW2 3664   1.574   4.168   2.276
 1217SOL     OW 3665   1.023   4.490   2.828
 1217SOL    HW1 3666   1.038   4.511   2.924
 1217SOL    HW2 3667   0.993   4.395   2.819
 1218SOL     OW 3668   1.540   3.998   1.987
 1218SOL    HW1 3669   1.479   3.923   2.010
 1218SOL    HW2 3670   1.562   4.050   2.070
 1219SOL     OW 3671   0.319   4.534   2.811
 1219SOL    HW1 3672   0.412   4.570   2.816
 1219SOL    HW2 3673   0.313   4.449   2.863
 1220SOL     OW 3674   0.339   4.233   2.868
 1220SOL    HW1 3675   0.287   4.150   2.851
 1220SOL    HW2 3676   0.416   4.238   2.804
 1221SOL     OW 3677   1.138   4.104   3.540
 1221SOL    HW1 3678   1.093   4.167   3.604
 1221SOL    HW2 3679   1.231   4.135   3.523
 1222SOL     OW 3680   1.160   3.931   3.339
 1222SOL    HW1 3681   1.160   3.995   3.416
 1222SOL    HW2 3682   1.188   3.979   3.256
 1223SOL     OW 3683   1.002   4.520   3.100
 1223SOL    HW1 3684   1.043   4.488   3.186
 1223SOL    HW2 3685   0.906   4.493   3.097
 1224SOL     OW 3686   0.040   4.268   2.976
 1224SOL    HW1 3687   0.125   4.235   2.935
 1224SOL    HW2 3688   0.053   4.283   3.074
 1225SOL     OW 3689   0.189   4.244   3.584
 1225SOL    HW1 3690   0.248   4.204   3.514
 1225SOL    HW2 3691   0.131   4.315   3.543
 1226SOL     OW 3692   0.815   4.296   2.187
 1226SOL    HW1 3693   0.822   4.207   2.141
 1226SOL    HW2 3694   0.721   4.330   2.179
 1227SOL     OW 3695   1.657   4.328   3.068
 1227SOL    HW1 3696   1.619   4.259   3.130
 1227SOL    HW2 3697   1.739   4.292   3.024
 1228SOL     OW 3698   0.671   4.188   3.131
 1228SOL    HW1 3699   0.637   4.099   3.101
 1228SOL    HW2 3700   0.697   4.242   3.051
 1229SOL     OW 3701   0.473   4.224   2.053
 1229SOL    HW1 3702   0.534   4.304   2.057
 1229SOL    HW2 3703   0.378   4.255   2.060
 1230SOL     OW 3704   1.726   3.859   2.385
 1230SOL    HW1 3705   1.799   3.842   2.318
 1230SOL    HW2 3706   1.695   3.772   2.423
 1231SOL     OW 3707   1.280   4.651   2.534
 1231SOL    HW1 3708   1.340   4.570   2.536
 1231SOL    HW2 3709   1.320   4.720   2.474
 1232SOL     OW 3710   1.841   3.899   2.825
 1232SOL    HW1 3711   1.880   3.814   2.789
 1232SOL    HW2 3712   1.743   3.901   2.806
 1233SOL     OW 3713   0.263   4.050   2.582
 1233SOL    HW1 3714   0.184   4.101   2.548
 1233SOL    HW2 3715   0.254   4.035   2.680
 1234SOL     OW 3716   0.916   4.634   2.153
 1234SOL    HW1 3717   0.979   4.672   2.085
 1234SOL    HW2 3718   0.956   4.551   2.192
 1235SOL     OW 3719   1.014   3.960   2.833
 1235SOL    HW1 3720   1.006   3.924   2.740
 1235SOL    HW2 3721   1.012   3.884   2.898
 1236SOL     OW 3722   1.709   4.109   3.243
 1236SOL    HW1 3723   1.782   4.178   3.247
 1236SOL    HW2 3724   1.737   4.034   3.184
 1237SOL     OW 3725   0.105   4.737   3.588
 1237SOL    HW1 3726   0.028   4.704   3.642
 1237SOL    HW2 3727   0.190   4.707   3.630
 1238SOL     OW 3728   0.672   3.927   3.351
 1238SOL    HW1 3729   0.762   3.911   3.311
 1238SOL    HW2 3730   0.680   3.932   3.450
 1239SOL     OW 3731   0.075   4.069   1.895
 1239SOL    HW1 3732  -0.017   4.041   1.866
 1239SOL    HW2 3733   0.106   4.146   1.839
 1240SOL     OW 3734   1.440   4.580   3.260
 1240SOL    HW1 3735   1.383   4.632   3.197
 1240SOL    HW2 3736   1.536   4.592   3.236
 1241SOL     OW 3737   0.072   3.890   2.180
 1241SOL    HW1 3738   0.055   3.973   2.126
 1241SOL    HW2 3739   0.162   3.853   2.158
 1242SOL     OW 3740   0.613   4.566   3.293
 1242SOL    HW1 3741   0.669   4.647   3.276
 1242SOL    HW2 3742   0.672   4.486   3.296
 1243SOL     OW 3743   0.716   4.289   3.570
 1243SOL    HW1 3744   0.735   4.354   3.644
 1243SOL    HW2 3745   0.776   4.209   3.579
 1244SOL     OW 3746   1.674   4.607   3.116
 1244SOL    HW1 3747   1.647   4.518   3.079
 1244SOL    HW2 3748   1.675   4.675   3.043
 1245SOL     OW 3749   1.225   4.049   2.311
 1245SOL    HW1 3750   1.290   3.975   2.300
 1245SOL    HW2 3751   1.245   4.099   2.395
 1246SOL     OW 3752   0.594   4.469   2.514
 1246SOL    HW1 3753   0.644   4.554   2.495
 1246SOL    HW2 3754   0.506   4.471   2.466
 1247SOL     OW 3755   1.777   4.066   3.504
 1247SOL    HW1 3756   1.760   4.097   3.410
 1247SOL    HW2 3757   1.693   4.029   3.542
 1248SOL     OW 3758   1.730   4.658   3.379
 1248SOL    HW1 3759   1.768   4.749   3.394
 1248SOL    HW2 3760   1.722   4.641   3.280
 1249SOL     OW 3761   1.824   3.916   3.089
 1249SOL    HW1 3762   1.820   3.826   3.133
 1249SOL    HW2 3763   1.827   3.905   2.990
 1250SOL     OW 3764   0.428   4.148   2.382
 1250SOL    HW1 3765   0.458   4.076   2.320
 1250SOL    HW2 3766   0.389   4.108   2.465
 1251SOL     OW 3767   0.317   4.271   3.142
 1251SOL    HW1 3768   0.355   4.212   3.214
 1251SOL    HW2 3769   0.357   4.245   3.054
 1252SOL     OW 3770   1.424   3.938   2.974
 1252SOL    HW1 3771   1.476   3.873   3.029
 1252SOL    HW2 3772   1.375   4.001   3.035
 1253SOL     OW 3773   1.001   3.758   3.016
 1253SOL    HW1 3774   0.938   3.686   2.985
 1253SOL    HW2 3775   1.094   3.722   3.016
 1254SOL     OW 3776   1.352   3.776   2.030
 1254SOL    HW1 3777   1.387   3.735   1.946
 1254SOL    HW2 3778   1.262   3.738   2.050
 1255SOL     OW 3779   1.300   4.177   2.553
 1255SOL    HW1 3780   1.241   4.257   2.557
 1255SOL    HW2 3781   1.315   4.142   2.646
 1256SOL     OW 3782   1.593   3.945   2.744
 1256SOL    HW1 3783   1.509   3.944   2.798
 1256SOL    HW2 3784   1.595   4.028   2.688
 1257SOL     OW 3785   0.230   4.352   3.837
 1257SOL    HW1 3786   0.137   4.350   3.874
 1257SOL    HW2 3787   0.231   4.313   3.745
 1258SOL     OW 3788   0.019   4.092   4.371
 1258SOL    HW1 3789  -0.063   4.135   4.410
 1258SOL    HW2 3790  -0.009   4.019   4.308
 1259SOL     OW 3791   1.135   4.427   4.441
 1259SOL    HW1 3792   1.192   4.505   4.416
 1259SOL    HW2 3793   1.075   4.453   4.517
 1260SOL     OW 3794   1.755   4.331   3.955
 1260SOL    HW1 3795   1.743   4.318   3.856
 1260SOL    HW2 3796   1.725   4.250   4.004
 1261SOL     OW 3797   0.685   4.736   4.389
 1261SOL    HW1 3798   0.754   4.720   4.459
 1261SOL    HW2 3799   0.612   4.793   4.427
 1262SOL     OW 3800   1.603   4.171   4.461
 1262SOL    HW1 3801   1.529   4.217   4.411
 1262SOL    HW2 3802   1.654   4.239   4.514
 1263SOL     OW 3803   0.240   4.815   4.610
 1263SOL    HW1 3804   0.254   4.731   4.662
 1263SOL    HW2 3805   0.185   4.879   4.665
 1264SOL     OW 3806   0.122   4.367   4.287
 1264SOL    HW1 3807   0.077   4.279   4.304
 1264SOL    HW2 3808   0.121   4.421   4.371
 1265SOL     OW 3809   0.809   3.728   4.226
 1265SOL    HW1 3810   0.849   3.819   4.217
 1265SOL    HW2 3811   0.709   3.736   4.232
 1266SOL     OW 3812   0.598   4.453   3.994
 1266SOL    HW1 3813   0.622   4.522   3.926
 1266SOL    HW2 3814   0.520   4.486   4.048
 1267SOL     OW 3815   1.281   4.069   4.668
 1267SOL    HW1 3816   1.195   4.019   4.655
 1267SOL    HW2 3817   1.343   4.015   4.724
 1268SOL     OW 3818   1.041   4.425   4.153
 1268SOL    HW1 3819   1.067   4.421   4.249
 1268SOL    HW2 3820   0.956   4.374   4.139
 1269SOL     OW 3821   0.076   4.535   4.513
 1269SOL    HW1 3822   0.175   4.523   4.522
 1269SOL    HW2 3823   0.052   4.630   4.534
 1270SOL     OW 3824   0.865   4.072   3.919
 1270SOL    HW1 3825   0.924   4.135   3.870
 1270SOL    HW2 3826   0.884   3.978   3.890
 1271SOL     OW 3827   0.550   3.920   4.609
 1271SOL    HW1 3828   0.545   3.915   4.709
 1271SOL    HW2 3829   0.552   4.016   4.580
 1272SOL     OW 3830   1.458   4.459   4.452
 1272SOL    HW1 3831   1.453   4.394   4.527
 1272SOL    HW2 3832   1.538   4.518   4.465
 1273SOL     OW 3833   1.400   3.831   4.150
 1273SOL    HW1 3834   1.376   3.794   4.060
 1273SOL    HW2 3835   1.499   3.847   4.154
 1274SOL     OW 3836   0.382   4.424   4.204
 1274SOL    HW1 3837   0.427   4.334   4.201
 1274SOL    HW2 3838   0.288   4.413   4.237
 1275SOL     OW 3839   0.614   3.846   3.841
 1275SOL    HW1 3840   0.712   3.824   3.848
 1275SOL    HW2 3841   0.583   3.829   3.748
 1276SOL     OW 3842   0.539   3.788   4.236
 1276SOL    HW1 3843   0.458   3.789   4.294
 1276SOL    HW2 3844   0.542   3.871   4.181
 1277SOL     OW 3845   0.297   3.759   3.895
 1277SOL    HW1 3846   0.346   3.843   3.874
 1277SOL    HW2 3847   0.359   3.694   3.940
 1278SOL     OW 3848   0.935   3.960   4.204
 1278SOL    HW1 3849   0.887   4.001   4.126
 1278SOL    HW2 3850   1.034   3.958   4.185
 1279SOL     OW 3851   0.459   4.876   4.465
 1279SOL    HW1 3852   0.388   4.849   4.530
 1279SOL    HW2 3853   0.433   4.848   4.372
 1280SOL     OW 3854   1.032   4.273   3.740
 1280SOL    HW1 3855   0.991   4.355   3.701
 1280SOL    HW2 3856   1.096   4.299   3.813
 1281SOL     OW 3857   0.866   4.178   4.366
 1281SOL    HW1 3858   0.834   4.250   4.304
 1281SOL    HW2 3859   0.890   4.097   4.313
 1282SOL     OW 3860   1.017   3.763   4.477
 1282SOL    HW1 3861   0.945   3.768   4.408
 1282SOL    HW2 3862   0.993   3.694   4.546
 1283SOL     OW 3863   1.429   4.897   4.591
 1283SOL    HW1 3864   1.374   4.813   4.584
 1283SOL    HW2 3865   1.455   4.926   4.499
 1284SOL     OW 3866   1.857   4.557   4.101
 1284SOL    HW1 3867   1.899   4.493   4.165
 1284SOL    HW2 3868   1.819   4.506   4.023
 1285SOL     OW 3869   1.390   4.299   3.802
 1285SOL    HW1 3870   1.336   4.278   3.883
 1285SOL    HW2 3871   1.481   4.258   3.811
 1286SOL     OW 3872   0.527   3.980   4.052
 1286SOL    HW1 3873   0.554   3.921   3.977
 1286SOL    HW2 3874   0.527   4.075   4.021
 1287SOL     OW 3875   1.111   4.919   4.824
 1287SOL    HW1 3876   1.071   4.963   4.905
 1287SOL    HW2 3877   1.070   4.956   4.741
 1288SOL     OW 3878   0.566   4.261   4.589
 1288SOL    HW1 3879   0.578   4.327   4.515
 1288SOL    HW2 3880   0.612   4.295   4.672
 1289SOL     OW 3881   1.582   4.363   4.196
 1289SOL    HW1 3882   1.551   4.424   4.269
 1289SOL    HW2 3883   1.632   4.415   4.127
 1290SOL     OW 3884   1.209   4.249   3.999
 1290SOL    HW1 3885   1.222   4.165   4.053
 1290SOL    HW2 3886   1.180   4.323   4.059
 1291SOL     OW 3887   0.732   4.358   4.788
 1291SOL    HW1 3888   0.791   4.332   4.712
 1291SOL    HW2 3889   0.704   4.454   4.777
 1292SOL     OW 3890   0.307   3.787   4.342
 1292SOL    HW1 3891   0.296   3.881   4.375
 1292SOL    HW2 3892   0.302   3.724   4.419
 1293SOL     OW 3893   1.622   4.091   4.098
 1293SOL    HW1 3894   1.624   4.015   4.162
 1293SOL    HW2 3895   1.574   4.168   4.138
 1294SOL     OW 3896   1.540   3.998   3.849
 1294SOL    HW1 3897   1.479   3.923   3.872
 1294SOL    HW2 3898   1.562   4.050   3.932
 1295SOL     OW 3899   0.815   4.296   4.049
 1295SOL    HW1 3900   0.822   4.207   4.003
 1295SOL    HW2 3901   0.721   4.330   4.041
 1296SOL     OW 3902   0.473   4.224   3.915
 1296SOL    HW1 3903   0.534   4.304   3.919
 1296SOL    HW2 3904   0.378   4.255   3.922
 1297SOL     OW 3905   1.726   3.859   4.247
 1297SOL    HW1 3906   1.799   3.842   4.180
 1297SOL    HW2 3907   1.695   3.772   4.285
 1298SOL     OW 3908   1.280   4.651   4.396
 1298SOL    HW1 3909   1.340   4.570   4.398
 1298SOL    HW2 3910   1.320   4.720   4.336
 1299SOL     OW 3911   1.841   3.899   4.687
 1299SOL    HW1 3912   1.880   3.814   4.651
 1299SOL    HW2 3913   1.743   3.901   4.668
 1300SOL     OW 3914   0.263   4.050   4.444
 1300SOL    HW1 3915   0.184   4.101   4.410
 1300SOL    HW2 3916   0.254   4.035   4.542
 1301SOL     OW 3917   0.916   4.634   4.015
 1301SOL    HW1 3918   0.979   4.672   3.947
 1301SOL    HW2 3919   0.956   4.551   4.054
 1302SOL     OW 3920   0.075   4.069   3.757
 1302SOL    HW1 3921  -0.017   4.041   3.728
 1302SOL    HW2 3922   0.106   4.146   3.701
 1303SOL     OW 3923   0.072   3.890   4.042
 1303SOL    HW1 3924   0.055   3.973   3.988
 1303SOL    HW2 3925   0.162   3.853   4.020
 1304SOL     OW 3926   1.674   4.607   4.978
 1304SOL    HW1 3927   1.647   4.518   4.941
 1304SOL    HW2 3928   1.675   4.675   4.905
 1305SOL     OW 3929   1.225   4.049   4.173
 1305SOL    HW1 3930   1.290   3.975   4.162
 1305SOL    HW2 3931   1.245   4.099   4.257
 1306SOL     OW 3932   0.594   4.469   4.376
 1306SOL    HW1 3933   0.644   4.554   4.357
 1306SOL    HW2 3934   0.506   4.471   4.328
 1307SOL     OW 3935   0.428   4.148   4.244
 1307SOL    HW1 3936   0.458   4.076   4.182
 1307SOL    HW2 3937   0.389   4.108   4.327
 1308SOL     OW 3938   1.352   3.776   3.892
 1308SOL    HW1 3939   1.387   3.735   3.808
 1308SOL    HW2 3940   1.262   3.738   3.912
 1309SOL     OW 3941   1.300   4.177   4.415
 1309SOL    HW1 3942   1.241   4.257   4.419
 1309SOL    HW2 3943   1.315   4.142   4.508
 1310SOL     OW 3944   2.092   0.628   0.113
 1310SOL    HW1 3945   1.999   0.626   0.150
 1310SOL    HW2 3946   2.093   0.589   0.021
 1311SOL     OW 3947   2.087   0.275   0.996
 1311SOL    HW1 3948   2.122   0.258   1.088
 1311SOL    HW2 3949   1.999   0.230   0.984
 1312SOL     OW 3950   1.881   0.368   0.647
 1312SOL    HW1 3951   1.799   0.411   0.686
 1312SOL    HW2 3952   1.853   0.295   0.584
 1313SOL     OW 3953   2.431   1.275   1.165
 1313SOL    HW1 3954   2.338   1.268   1.128
 1313SOL    HW2 3955   2.442   1.364   1.209
 1314SOL     OW 3956   3.417   1.511   0.703
 1314SOL    HW1 3957   3.360   1.495   0.784
 1314SOL    HW2 3958   3.358   1.521   0.623
 1315SOL     OW 3959   2.997   0.703   0.717
 1315SOL    HW1 3960   3.054   0.781   0.692
 1315SOL    HW2 3961   2.937   0.729   0.793
 1316SOL     OW 3962   3.617   0.607   0.231
 1316SOL    HW1 3963   3.605   0.594   0.132
 1316SOL    HW2 3964   3.587   0.526   0.280
 1317SOL     OW 3965   2.630   1.144   1.023
 1317SOL    HW1 3966   2.552   1.161   1.083
 1317SOL    HW2 3967   2.664   1.231   0.987
 1318SOL     OW 3968   2.712   0.798   1.823
 1318SOL    HW1 3969   2.708   0.874   1.888
 1318SOL    HW2 3970   2.734   0.834   1.732
 1319SOL     OW 3971   2.547   1.012   0.665
 1319SOL    HW1 3972   2.616   0.996   0.735
 1319SOL    HW2 3973   2.474   1.069   0.703
 1320SOL     OW 3974   2.548   1.161   1.803
 1320SOL    HW1 3975   2.608   1.240   1.817
 1320SOL    HW2 3976   2.462   1.192   1.762
 1321SOL     OW 3977   2.197   1.435   1.061
 1321SOL    HW1 3978   2.119   1.404   1.008
 1321SOL    HW2 3979   2.255   1.493   1.004
 1322SOL     OW 3980   3.322   1.505   1.339
 1322SOL    HW1 3981   3.346   1.599   1.365
 1322SOL    HW2 3982   3.306   1.451   1.421
 1323SOL     OW 3983   2.300   0.392   1.499
 1323SOL    HW1 3984   2.382   0.336   1.508
 1323SOL    HW2 3985   2.219   0.334   1.503
 1324SOL     OW 3986   3.465   0.447   0.737
 1324SOL    HW1 3987   3.391   0.493   0.687
 1324SOL    HW2 3988   3.516   0.515   0.790
 1325SOL     OW 3989   2.093   1.713   0.483
 1325SOL    HW1 3990   2.127   1.790   0.537
 1325SOL    HW2 3991   2.137   1.713   0.393
 1326SOL     OW 3992   2.989   1.341   1.690
 1326SOL    HW1 3993   3.036   1.341   1.778
 1326SOL    HW2 3994   2.941   1.254   1.679
 1327SOL     OW 3995   2.092   1.434   0.538
 1327SOL    HW1 3996   2.066   1.530   0.538
 1327SOL    HW2 3997   2.021   1.380   0.583
 1328SOL     OW 3998   2.102   1.091   0.886
 1328SOL    HW1 3999   2.116   1.007   0.938
 1328SOL    HW2 4000   2.047   1.155   0.941
 1329SOL     OW 4001   2.482   1.786   1.439
 1329SOL    HW1 4002   2.390   1.769   1.474
 1329SOL    HW2 4003   2.510   1.878   1.465
 1330SOL     OW 4004   2.468   0.964   0.123
 1330SOL    HW1 4005   2.475   1.048   0.069
 1330SOL    HW2 4006   2.514   0.977   0.211
 1331SOL     OW 4007   3.456   0.114   1.480
 1331SOL    HW1 4008   3.438   0.181   1.408
 1331SOL    HW2 4009   3.453   0.160   1.569
 1332SOL     OW 4010   1.984   0.643   0.563
 1332SOL    HW1 4011   1.939   0.555   0.580
 1332SOL    HW2 4012   1.983   0.697   0.647
 1333SOL     OW 4013   3.704   1.767   0.359
 1333SOL    HW1 4014   3.758   1.738   0.439
 1333SOL    HW2 4015   3.734   1.857   0.330
 1334SOL     OW 4016   1.889   1.596   0.117
 1334SOL    HW1 4017   1.870   1.500   0.138
 1334SOL    HW2 4018   1.856   1.654   0.192
 1335SOL     OW 4019   3.551   0.922   0.612
 1335SOL    HW1 4020   3.646   0.893   0.620
 1335SOL    HW2 4021   3.543   0.987   0.537
 1336SOL     OW 4022   3.503   1.108   0.432
 1336SOL    HW1 4023   3.589   1.110   0.380
 1336SOL    HW2 4024   3.517   1.155   0.520
 1337SOL     OW 4025   1.975   0.737   1.597
 1337SOL    HW1 4026   2.063   0.724   1.642
 1337SOL    HW2 4027   1.962   0.834   1.575
 1338SOL     OW 4028   2.475   1.365   0.726
 1338SOL    HW1 4029   2.426   1.278   0.735
 1338SOL    HW2 4030   2.452   1.408   0.639
 1339SOL     OW 4031   3.155   1.228   1.423
 1339SOL    HW1 4032   3.192   1.155   1.365
 1339SOL    HW2 4033   3.207   1.233   1.508
 1340SOL     OW 4034   2.671   0.004   0.502
 1340SOL    HW1 4035   2.711   0.095   0.493
 1340SOL    HW2 4036   2.571   0.012   0.508
 1341SOL     OW 4037   2.059   0.976   1.264
 1341SOL    HW1 4038   2.148   0.931   1.250
 1341SOL    HW2 4039   1.986   0.911   1.245
 1342SOL     OW 4040   3.387   0.999   0.190
 1342SOL    HW1 4041   3.324   0.923   0.203
 1342SOL    HW2 4042   3.435   1.017   0.276
 1343SOL     OW 4043   3.049   1.792   1.616
 1343SOL    HW1 4044   3.073   1.852   1.540
 1343SOL    HW2 4045   3.056   1.697   1.586
 1344SOL     OW 4046   2.179   0.251   1.801
 1344SOL    HW1 4047   2.250   0.322   1.807
 1344SOL    HW2 4048   2.091   0.290   1.829
 1345SOL     OW 4049   3.328   1.417   0.953
 1345SOL    HW1 4050   3.269   1.423   1.033
 1345SOL    HW2 4051   3.313   1.329   0.907
 1346SOL     OW 4052   3.529   1.714   0.572
 1346SOL    HW1 4053   3.488   1.691   0.484
 1346SOL    HW2 4054   3.511   1.640   0.637
 1347SOL     OW 4055   2.460   0.729   0.270
 1347SOL    HW1 4056   2.484   0.798   0.202
 1347SOL    HW2 4057   2.382   0.762   0.324
 1348SOL     OW 4058   3.143   0.345   0.944
 1348SOL    HW1 4059   3.057   0.295   0.931
 1348SOL    HW2 4060   3.205   0.291   1.000
 1349SOL     OW 4061   3.438   1.662   0.307
 1349SOL    HW1 4062   3.527   1.708   0.310
 1349SOL    HW2 4063   3.417   1.638   0.212
 1350SOL     OW 4064   2.669   0.605   1.465
 1350SOL    HW1 4065   2.622   0.602   1.554
 1350SOL    HW2 4066   2.618   0.550   1.399
 1351SOL     OW 4067   3.256   0.469   1.674
 1351SOL    HW1 4068   3.236   0.512   1.762
 1351SOL    HW2 4069   3.334   0.407   1.683
 1352SOL     OW 4070   2.835   0.890   1.572
 1352SOL    HW1 4071   2.881   0.806   1.543
 1352SOL    HW2 4072   2.779   0.924   1.497
 1353SOL     OW 4073   2.853   0.410   1.242
 1353SOL    HW1 4074   2.776   0.444   1.296
 1353SOL    HW2 4075   2.819   0.359   1.163
 1354SOL     OW 4076   2.903   0.701   0.429
 1354SOL    HW1 4077   2.929   0.697   0.525
 1354SOL    HW2 4078   2.818   0.650   0.415
 1355SOL     OW 4079   1.938   0.811   0.789
 1355SOL    HW1 4080   2.037   0.799   0.798
 1355SOL    HW2 4081   1.914   0.906   0.810
 1356SOL     OW 4082   1.992   1.821   1.571
 1356SOL    HW1 4083   1.982   1.806   1.670
 1356SOL    HW2 4084   1.906   1.857   1.535
 1357SOL     OW 4085   2.727   0.348   0.195
 1357SOL    HW1 4086   2.786   0.411   0.146
 1357SOL    HW2 4087   2.746   0.254   0.166
 1358SOL     OW 4088   3.581   0.585   1.831
 1358SOL    HW1 4089   3.555   0.674   1.795
 1358SOL    HW2 4090   3.579   0.517   1.758
 1359SOL     OW 4091   3.224   1.144   0.545
 1359SOL    HW1 4092   3.307   1.115   0.497
 1359SOL    HW2 4093   3.175   1.211   0.489
 1360SOL     OW 4094   2.412   0.196   0.885
 1360SOL    HW1 4095   2.407   0.191   0.985
 1360SOL    HW2 4096   2.414   0.292   0.856
 1361SOL     OW 4097   2.870   1.456   0.477
 1361SOL    HW1 4098   2.824   1.528   0.425
 1361SOL    HW2 4099   2.866   1.476   0.575
 1362SOL     OW 4100   2.213   1.801   0.853
 1362SOL    HW1 4101   2.263   1.715   0.859
 1362SOL    HW2 4102   2.278   1.878   0.850
 1363SOL     OW 4103   3.657   1.066   0.873
 1363SOL    HW1 4104   3.595   1.051   0.797
 1363SOL    HW2 4105   3.605   1.077   0.958
 1364SOL     OW 4106   3.089   1.550   1.506
 1364SOL    HW1 4107   3.095   1.473   1.570
 1364SOL    HW2 4108   3.037   1.524   1.426
 1365SOL     OW 4109   2.183   0.943   0.242
 1365SOL    HW1 4110   2.265   0.982   0.200
 1365SOL    HW2 4111   2.156   0.861   0.193
 1366SOL     OW 4112   3.320   0.735   0.728
 1366SOL    HW1 4113   3.315   0.670   0.803
 1366SOL    HW2 4114   3.400   0.794   0.741
 1367SOL     OW 4115   2.323   1.266   1.727
 1367SOL    HW1 4116   2.273   1.267   1.641
 1367SOL    HW2 4117   2.260   1.248   1.803
 1368SOL     OW 4118   2.973   1.776   0.237
 1368SOL    HW1 4119   2.913   1.714   0.287
 1368SOL    HW2 4120   3.004   1.732   0.152
 1369SOL     OW 4121   2.064   0.285   1.498
 1369SOL    HW1 4122   1.984   0.345   1.485
 1369SOL    HW2 4123   2.054   0.236   1.584
 1370SOL     OW 4124   3.494   1.377   0.081
 1370SOL    HW1 4125   3.462   1.471   0.071
 1370SOL    HW2 4126   3.418   1.314   0.069
 1371SOL     OW 4127   2.326   1.743   0.323
 1371SOL    HW1 4128   2.359   1.782   0.409
 1371SOL    HW2 4129   2.402   1.736   0.258
 1372SOL     OW 4130   3.262   0.107   0.426
 1372SOL    HW1 4131   3.238   0.070   0.336
 1372SOL    HW2 4132   3.361   0.123   0.430
 1373SOL     OW 4133   2.111   1.785   1.241
 1373SOL    HW1 4134   2.168   1.720   1.291
 1373SOL    HW2 4135   2.095   1.752   1.148
 1374SOL     OW 4136   2.802   1.698   0.904
 1374SOL    HW1 4137   2.882   1.641   0.925
 1374SOL    HW2 4138   2.753   1.658   0.827
 1375SOL     OW 4139   2.244   0.700   0.480
 1375SOL    HW1 4140   2.289   0.610   0.477
 1375SOL    HW2 4141   2.150   0.689   0.513
 1376SOL     OW 4142   3.409   0.222   1.729
 1376SOL    HW1 4143   3.404   0.259   1.821
 1376SOL    HW2 4144   3.337   0.153   1.717
 1377SOL     OW 4145   2.476   0.122   0.117
 1377SOL    HW1 4146   2.574   0.100   0.124
 1377SOL    HW2 4147   2.445   0.105   0.024
 1378SOL     OW 4148   2.643   0.264   1.749
 1378SOL    HW1 4149   2.710   0.203   1.792
 1378SOL    HW2 4150   2.570   0.283   1.814
 1379SOL     OW 4151   2.750   1.514   1.195
 1379SOL    HW1 4152   2.727   1.489   1.101
 1379SOL    HW2 4153   2.811   1.445   1.234
 1380SOL     OW 4154   3.213   0.590   1.433
 1380SOL    HW1 4155   3.241   0.547   1.518
 1380SOL    HW2 4156   3.238   0.686   1.434
 1381SOL     OW 4157   2.665   1.402   0.924
 1381SOL    HW1 4158   2.755   1.416   0.882
 1381SOL    HW2 4159   2.594   1.404   0.853
 1382SOL     OW 4160   2.784   0.503   0.899
 1382SOL    HW1 4161   2.759   0.494   0.803
 1382SOL    HW2 4162   2.832   0.421   0.930
 1383SOL     OW 4163   2.401   0.064   0.512
 1383SOL    HW1 4164   2.320   0.065   0.570
 1383SOL    HW2 4165   2.404   0.147   0.457
 1384SOL     OW 4166   3.296   1.188   0.041
 1384SOL    HW1 4167   3.328   1.112   0.098
 1384SOL    HW2 4168   3.204   1.215   0.071
 1385SOL     OW 4169   2.159   0.035   0.171
 1385SOL    HW1 4170   2.208   0.119   0.150
 1385SOL    HW2 4171   2.221  -0.030   0.216
 1386SOL     OW 4172   2.797   0.236   0.480
 1386SOL    HW1 4173   2.749   0.277   0.402
 1386SOL    HW2 4174   2.896   0.234   0.461
 1387SOL     OW 4175   2.938   0.683   1.464
 1387SOL    HW1 4176   2.858   0.622   1.467
 1387SOL    HW2 4177   3.019   0.630   1.440
 1388SOL     OW 4178   3.089   1.570   0.793
 1388SOL    HW1 4179   3.110   1.644   0.728
 1388SOL    HW2 4180   3.157   1.570   0.866
 1389SOL     OW 4181   2.321   1.152   0.741
 1389SOL    HW1 4182   2.250   1.125   0.806
 1389SOL    HW2 4183   2.295   1.124   0.648
 1390SOL     OW 4184   3.133   1.797   0.591
 1390SOL    HW1 4185   3.177   1.861   0.527
 1390SOL    HW2 4186   3.083   1.849   0.661
 1391SOL     OW 4187   2.894   0.549   0.016
 1391SOL    HW1 4188   2.853   0.631  -0.023
 1391SOL    HW2 4189   2.958   0.575   0.089
 1392SOL     OW 4190   1.940   0.556   1.386
 1392SOL    HW1 4191   2.032   0.555   1.345
 1392SOL    HW2 4192   1.934   0.630   1.453
 1393SOL     OW 4193   2.423   0.222   1.147
 1393SOL    HW1 4194   2.461   0.138   1.184
 1393SOL    HW2 4195   2.335   0.241   1.191
 1394SOL     OW 4196   2.728   0.454   0.642
 1394SOL    HW1 4197   2.696   0.526   0.580
 1394SOL    HW2 4198   2.752   0.373   0.589
 1395SOL     OW 4199   2.879   0.039   0.753
 1395SOL    HW1 4200   2.807   0.044   0.684
 1395SOL    HW2 4201   2.855  -0.030   0.822
 1396SOL     OW 4202   3.291   1.173   0.867
 1396SOL    HW1 4203   3.236   1.089   0.860
 1396SOL    HW2 4204   3.317   1.202   0.775
 1397SOL     OW 4205   3.328   0.590   0.992
 1397SOL    HW1 4206   3.298   0.495   0.999
 1397SOL    HW2 4207   3.401   0.606   1.058
 1398SOL     OW 4208   3.719   0.833   0.377
 1398SOL    HW1 4209   3.761   0.769   0.441
 1398SOL    HW2 4210   3.681   0.782   0.299
 1399SOL     OW 4211   2.350   1.385   0.174
 1399SOL    HW1 4212   2.263   1.370   0.221
 1399SOL    HW2 4213   2.333   1.411   0.079
 1400SOL     OW 4214   3.526   1.280   0.657
 1400SOL    HW1 4215   3.625   1.288   0.671
 1400SOL    HW2 4216   3.481   1.364   0.688
 1401SOL     OW 4217   3.252   0.575   0.078
 1401SOL    HW1 4218   3.198   0.554   0.159
 1401SOL    HW2 4219   3.343   0.534   0.087
 1402SOL     OW 4220   2.389   0.256   0.328
 1402SOL    HW1 4221   2.416   0.197   0.253
 1402SOL    HW2 4222   2.389   0.351   0.297
 1403SOL     OW 4223   3.616   1.223   1.588
 1403SOL    HW1 4224   3.707   1.184   1.575
 1403SOL    HW2 4225   3.624   1.319   1.612
 1404SOL     OW 4226   2.926   1.347   1.340
 1404SOL    HW1 4227   2.846   1.324   1.395
 1404SOL    HW2 4228   3.009   1.321   1.389
 1405SOL     OW 4229   3.454   1.629   1.625
 1405SOL    HW1 4230   3.481   1.663   1.535
 1405SOL    HW2 4231   3.533   1.591   1.671
 1406SOL     OW 4232   2.973   1.195   1.100
 1406SOL    HW1 4233   2.933   1.239   1.181
 1406SOL    HW2 4234   2.932   1.232   1.017
 1407SOL     OW 4235   3.500   1.099   1.079
 1407SOL    HW1 4236   3.505   1.180   1.138
 1407SOL    HW2 4237   3.414   1.101   1.028
 1408SOL     OW 4238   2.777   0.089   1.402
 1408SOL    HW1 4239   2.802   0.069   1.307
 1408SOL    HW2 4240   2.849   0.145   1.444
 1409SOL     OW 4241   2.842   1.116   1.719
 1409SOL    HW1 4242   2.743   1.122   1.729
 1409SOL    HW2 4243   2.865   1.036   1.663
 1410SOL     OW 4244   2.567   1.050   0.368
 1410SOL    HW1 4245   2.553   1.057   0.467
 1410SOL    HW2 4246   2.651   0.999   0.350
 1411SOL     OW 4247   2.272   0.813   1.251
 1411SOL    HW1 4248   2.358   0.825   1.301
 1411SOL    HW2 4249   2.230   0.726   1.278
 1412SOL     OW 4250   3.136   0.386   1.262
 1412SOL    HW1 4251   3.157   0.460   1.326
 1412SOL    HW2 4252   3.047   0.403   1.219
 1413SOL     OW 4253   1.926   1.564   1.331
 1413SOL    HW1 4254   1.880   1.646   1.297
 1413SOL    HW2 4255   2.024   1.583   1.340
 1414SOL     OW 4256   2.229   1.100   0.501
 1414SOL    HW1 4257   2.222   1.183   0.445
 1414SOL    HW2 4258   2.233   1.020   0.441
 1415SOL     OW 4259   2.428   0.537   0.865
 1415SOL    HW1 4260   2.440   0.603   0.791
 1415SOL    HW2 4261   2.474   0.571   0.948
 1416SOL     OW 4262   3.114   1.348   0.388
 1416SOL    HW1 4263   3.164   1.425   0.428
 1416SOL    HW2 4264   3.019   1.350   0.420
 1417SOL     OW 4265   3.134   1.445   1.142
 1417SOL    HW1 4266   3.181   1.458   1.229
 1417SOL    HW2 4267   3.068   1.371   1.151
 1418SOL     OW 4268   3.444   0.639   0.472
 1418SOL    HW1 4269   3.413   0.700   0.545
 1418SOL    HW2 4270   3.494   0.691   0.403
 1419SOL     OW 4271   2.216   1.510   1.329
 1419SOL    HW1 4272   2.195   1.466   1.242
 1419SOL    HW2 4273   2.313   1.536   1.332
 1420SOL     OW 4274   2.264   0.751   1.598
 1420SOL    HW1 4275   2.332   0.806   1.551
 1420SOL    HW2 4276   2.304   0.663   1.625
 1421SOL     OW 4277   3.449   0.779   1.670
 1421SOL    HW1 4278   3.357   0.817   1.665
 1421SOL    HW2 4279   3.509   0.826   1.605
 1422SOL     OW 4280   2.875   0.105   1.770
 1422SOL    HW1 4281   2.881   0.190   1.718
 1422SOL    HW2 4282   2.907   0.029   1.713
 1423SOL     OW 4283   2.366   0.050   1.740
 1423SOL    HW1 4284   2.324  -0.007   1.670
 1423SOL    HW2 4285   2.300   0.119   1.772
 1424SOL     OW 4286   2.435   0.870   1.029
 1424SOL    HW1 4287   2.479   0.959   1.020
 1424SOL    HW2 4288   2.372   0.870   1.106
 1425SOL     OW 4289   3.222   0.862   1.045
 1425SOL    HW1 4290   3.147   0.862   0.979
 1425SOL    HW2 4291   3.259   0.770   1.054
 1426SOL     OW 4292   3.071   0.525   0.275
 1426SOL    HW1 4293   3.084   0.441   0.329
 1426SOL    HW2 4294   3.042   0.599   0.335
 1427SOL     OW 4295   2.169   0.213   1.231
 1427SOL    HW1 4296   2.146   0.250   1.321
 1427SOL    HW2 4297   2.139   0.118   1.225
 1428SOL     OW 4298   1.899   1.310   1.282
 1428SOL    HW1 4299   1.952   1.261   1.350
 1428SOL    HW2 4300   1.921   1.408   1.287
 1429SOL     OW 4301   2.594   0.634   1.064
 1429SOL    HW1 4302   2.653   0.608   0.988
 1429SOL    HW2 4303   2.566   0.730   1.053
 1430SOL     OW 4304   3.590   0.935   1.854
 1430SOL    HW1 4305   3.544   0.928   1.765
 1430SOL    HW2 4306   3.528   0.979   1.920
 1431SOL     OW 4307   2.169   0.063   0.618
 1431SOL    HW1 4308   2.158   0.157   0.651
 1431SOL    HW2 4309   2.164   0.000   0.695
 1432SOL     OW 4310   3.484   0.367   0.374
 1432SOL    HW1 4311   3.486   0.291   0.438
 1432SOL    HW2 4312   3.436   0.444   0.414
 1433SOL     OW 4313   2.885   0.766   0.966
 1433SOL    HW1 4314   2.900   0.787   1.062
 1433SOL    HW2 4315   2.855   0.671   0.957
 1434SOL     OW 4316   2.842   1.573   1.700
 1434SOL    HW1 4317   2.822   1.617   1.612
 1434SOL    HW2 4318   2.881   1.482   1.684
 1435SOL     OW 4319   3.721   1.518   1.605
 1435SOL    HW1 4320   3.735   1.545   1.510
 1435SOL    HW2 4321   3.804   1.540   1.658
 1436SOL     OW 4322   2.212   0.898   1.804
 1436SOL    HW1 4323   2.288   0.942   1.852
 1436SOL    HW2 4324   2.247   0.851   1.722
 1437SOL     OW 4325   3.402   0.274   0.125
 1437SOL    HW1 4326   3.341   0.199   0.148
 1437SOL    HW2 4327   3.424   0.326   0.208
 1438SOL     OW 4328   3.165   0.838   0.042
 1438SOL    HW1 4329   3.199   0.745   0.057
 1438SOL    HW2 4330   3.183   0.865  -0.053
 1439SOL     OW 4331   2.930   1.333   0.849
 1439SOL    HW1 4332   2.937   1.249   0.794
 1439SOL    HW2 4333   2.992   1.402   0.813
 1440SOL     OW 4334   2.181   0.810   0.949
 1440SOL    HW1 4335   2.274   0.846   0.954
 1440SOL    HW2 4336   2.175   0.725   1.001
 1441SOL     OW 4337   2.201   0.509   1.006
 1441SOL    HW1 4338   2.149   0.426   0.989
 1441SOL    HW2 4339   2.278   0.514   0.942
 1442SOL     OW 4340   3.000   0.380   1.678
 1442SOL    HW1 4341   2.955   0.443   1.742
 1442SOL    HW2 4342   3.093   0.411   1.661
 1443SOL     OW 4343   3.022   0.207   1.477
 1443SOL    HW1 4344   3.022   0.271   1.554
 1443SOL    HW2 4345   3.050   0.255   1.394
 1444SOL     OW 4346   1.870   1.326   0.200
 1444SOL    HW1 4347   1.777   1.347   0.169
 1444SOL    HW2 4348   1.880   1.227   0.213
 1445SOL     OW 4349   1.950   1.801   0.927
 1445SOL    HW1 4350   1.908   1.715   0.900
 1445SOL    HW2 4351   2.044   1.804   0.893
 1446SOL     OW 4352   2.366   1.568   0.910
 1446SOL    HW1 4353   2.432   1.642   0.919
 1446SOL    HW2 4354   2.410   1.489   0.868
 1447SOL     OW 4355   2.864   0.796   1.238
 1447SOL    HW1 4356   2.905   0.764   1.324
 1447SOL    HW2 4357   2.768   0.769   1.235
 1448SOL     OW 4358   1.902   0.544   1.114
 1448SOL    HW1 4359   1.987   0.511   1.073
 1448SOL    HW2 4360   1.915   0.559   1.212
 1449SOL     OW 4361   2.051   0.520   1.722
 1449SOL    HW1 4362   2.110   0.480   1.652
 1449SOL    HW2 4363   1.993   0.591   1.681
 1450SOL     OW 4364   3.231   0.950   1.660
 1450SOL    HW1 4365   3.270   1.039   1.680
 1450SOL    HW2 4366   3.241   0.930   1.563
 1451SOL     OW 4367   2.677   0.572   0.325
 1451SOL    HW1 4368   2.684   0.483   0.279
 1451SOL    HW2 4369   2.583   0.606   0.317
 1452SOL     OW 4370   3.519   0.604   1.206
 1452SOL    HW1 4371   3.481   0.535   1.268
 1452SOL    HW2 4372   3.601   0.568   1.162
 1453SOL     OW 4373   2.114   1.564   1.744
 1453SOL    HW1 4374   2.084   1.621   1.820
 1453SOL    HW2 4375   2.107   1.467   1.770
 1454SOL     OW 4376   2.533   0.464   1.269
 1454SOL    HW1 4377   2.499   0.375   1.239
 1454SOL    HW2 4378   2.559   0.518   1.189
 1455SOL     OW 4379   2.792   1.678   1.465
 1455SOL    HW1 4380   2.768   1.660   1.370
 1455SOL    HW2 4381   2.822   1.772   1.475
 1456SOL     OW 4382   2.335   0.500   0.191
 1456SOL    HW1 4383   2.396   0.580   0.195
 1456SOL    HW2 4384   2.240   0.531   0.198
 1457SOL     OW 4385   2.021   1.137   1.466
 1457SOL    HW1 4386   2.043   1.076   1.542
 1457SOL    HW2 4387   2.031   1.088   1.380
 1458SOL     OW 4388   3.209   1.059   1.234
 1458SOL    HW1 4389   3.233   0.996   1.160
 1458SOL    HW2 4390   3.119   1.099   1.216
 1459SOL     OW 4391   3.164   0.855   0.309
 1459SOL    HW1 4392   3.078   0.824   0.351
 1459SOL    HW2 4393   3.160   0.841   0.210
 1460SOL     OW 4394   3.621   1.747   1.154
 1460SOL    HW1 4395   3.682   1.777   1.081
 1460SOL    HW2 4396   3.583   1.658   1.132
 1461SOL     OW 4397   3.114   1.731   1.128
 1461SOL    HW1 4398   3.198   1.736   1.074
 1461SOL    HW2 4399   3.091   1.635   1.146
 1462SOL     OW 4400   1.945   1.258   1.022
 1462SOL    HW1 4401   1.940   1.257   1.122
 1462SOL    HW2 4402   1.862   1.217   0.984
 1463SOL     OW 4403   2.550   1.662   1.716
 1463SOL    HW1 4404   2.494   1.743   1.725
 1463SOL    HW2 4405   2.602   1.666   1.630
 1464SOL     OW 4406   2.765   0.086   0.133
 1464SOL    HW1 4407   2.816   0.087   0.047
 1464SOL    HW2 4408   2.821   0.044   0.204
 1465SOL     OW 4409   3.588   0.135   0.523
 1465SOL    HW1 4410   3.661   0.118   0.456
 1465SOL    HW2 4411   3.557   0.048   0.561
 1466SOL     OW 4412   3.250   1.573   0.477
 1466SOL    HW1 4413   3.317   1.585   0.403
 1466SOL    HW2 4414   3.210   1.662   0.500
 1467SOL     OW 4415   1.992   1.794   1.851
 1467SOL    HW1 4416   1.951   1.720   1.904
 1467SOL    HW2 4417   2.056   1.845   1.909
 1468SOL     OW 4418   3.142   0.927   0.672
 1468SOL    HW1 4419   3.202   0.846   0.674
 1468SOL    HW2 4420   3.182   0.996   0.612
 1469SOL     OW 4421   2.692   1.273   1.422
 1469SOL    HW1 4422   2.687   1.306   1.517
 1469SOL    HW2 4423   2.606   1.292   1.376
 1470SOL     OW 4424   2.534   1.616   0.154
 1470SOL    HW1 4425   2.543   1.626   0.055
 1470SOL    HW2 4426   2.494   1.527   0.175
 1471SOL     OW 4427   3.512   1.720   1.394
 1471SOL    HW1 4428   3.565   1.730   1.310
 1471SOL    HW2 4429   3.485   1.810   1.428
 1472SOL     OW 4430   3.703   0.175   0.963
 1472SOL    HW1 4431   3.742   0.090   0.927
 1472SOL    HW2 4432   3.605   0.177   0.944
 1473SOL     OW 4433   2.125   0.326   0.720
 1473SOL    HW1 4434   2.046   0.377   0.686
 1473SOL    HW2 4435   2.116   0.311   0.818
 1474SOL     OW 4436   3.056   1.612   0.031
 1474SOL    HW1 4437   3.062   1.519   0.068
 1474SOL    HW2 4438   2.997   1.612  -0.049
 1475SOL     OW 4439   2.684   1.002   1.372
 1475SOL    HW1 4440   2.724   1.001   1.280
 1475SOL    HW2 4441   2.694   1.094   1.412
 1476SOL     OW 4442   2.778   0.910   0.291
 1476SOL    HW1 4443   2.841   0.948   0.223
 1476SOL    HW2 4444   2.818   0.827   0.330
 1477SOL     OW 4445   3.366   1.607   0.044
 1477SOL    HW1 4446   3.274   1.644   0.051
 1477SOL    HW2 4447   3.404   1.627  -0.046
 1478SOL     OW 4448   2.234   1.288   1.490
 1478SOL    HW1 4449   2.221   1.381   1.456
 1478SOL    HW2 4450   2.150   1.236   1.477
 1479SOL     OW 4451   3.476   1.292   1.289
 1479SOL    HW1 4452   3.536   1.295   1.369
 1479SOL    HW2 4453   3.401   1.356   1.302
 1480SOL     OW 4454   2.901   1.098   0.696
 1480SOL    HW1 4455   2.831   1.051   0.750
 1480SOL    HW2 4456   2.960   1.030   0.653
 1481SOL     OW 4457   2.876   0.236   0.971
 1481SOL    HW1 4458   2.868   0.200   0.878
 1481SOL    HW2 4459   2.874   0.160   1.036
 1482SOL     OW 4460   2.452   1.487   0.491
 1482SOL    HW1 4461   2.494   1.429   0.421
 1482SOL    HW2 4462   2.408   1.566   0.447
 1483SOL     OW 4463   3.571   0.385   1.381
 1483SOL    HW1 4464   3.644   0.454   1.385
 1483SOL    HW2 4465   3.599   0.310   1.322
 1484SOL     OW 4466   2.117   1.348   0.290
 1484SOL    HW1 4467   2.021   1.349   0.263
 1484SOL    HW2 4468   2.129   1.401   0.374
 1485SOL     OW 4469   1.967   1.013   1.726
 1485SOL    HW1 4470   1.890   0.980   1.780
 1485SOL    HW2 4471   2.052   0.983   1.768
 1486SOL     OW 4472   2.534   0.203   1.489
 1486SOL    HW1 4473   2.624   0.187   1.449
 1486SOL    HW2 4474   2.542   0.208   1.588
 1487SOL     OW 4475   3.302   0.856   1.398
 1487SOL    HW1 4476   3.245   0.908   1.335
 1487SOL    HW2 4477   3.398   0.868   1.374
 1488SOL     OW 4478   1.934   0.166   0.318
 1488SOL    HW1 4479   1.917   0.249   0.264
 1488SOL    HW2 4480   2.024   0.129   0.296
 1489SOL     OW 4481   3.045   1.335   0.119
 1489SOL    HW1 4482   2.946   1.324   0.121
 1489SOL    HW2 4483   3.079   1.350   0.212
 1490SOL     OW 4484   2.475   0.842   1.431
 1490SOL    HW1 4485   2.531   0.923   1.414
 1490SOL    HW2 4486   2.534   0.762   1.434
 1491SOL     OW 4487   3.355   1.767   0.959
 1491SOL    HW1 4488   3.388   1.831   0.890
 1491SOL    HW2 4489   3.421   1.761   1.034
 1492SOL     OW 4490   2.578   0.565   1.708
 1492SOL    HW1 4491   2.597   0.630   1.782
 1492SOL    HW2 4492   2.638   0.485   1.717
 1493SOL     OW 4493   3.312   1.220   1.633
 1493SOL    HW1 4494   3.303   1.210   1.732
 1493SOL    HW2 4495   3.408   1.213   1.607
 1494SOL     OW 4496   2.252   1.741   1.560
 1494SOL    HW1 4497   2.161   1.782   1.558
 1494SOL    HW2 4498   2.245   1.647   1.592
 1495SOL     OW 4499   3.536   0.883   1.254
 1495SOL    HW1 4500   3.509   0.794   1.217
 1495SOL    HW2 4501   3.537   0.951   1.181
 1496SOL     OW 4502   3.087   0.325   0.449
 1496SOL    HW1 4503   3.152   0.251   0.438
 1496SOL    HW2 4504   3.107   0.375   0.533
 1497SOL     OW 4505   2.456   0.745   0.652
 1497SOL    HW1 4506   2.506   0.830   0.633
 1497SOL    HW2 4507   2.368   0.747   0.604
 1498SOL     OW 4508   3.639   0.342   1.642
 1498SOL    HW1 4509   3.622   0.373   1.548
 1498SOL    HW2 4510   3.555   0.305   1.680
 1499SOL     OW 4511   3.592   0.934   1.517
 1499SOL    HW1 4512   3.630   1.025   1.532
 1499SOL    HW2 4513   3.584   0.917   1.418
 1500SOL     OW 4514   2.721   1.374   0.016
 1500SOL    HW1 4515   2.675   1.389   0.104
 1500SOL    HW2 4516   2.765   1.459  -0.014
 1501SOL     OW 4517   2.523   1.790   0.953
 1501SOL    HW1 4518   2.477   1.878   0.940
 1501SOL    HW2 4519   2.622   1.802   0.946
 1502SOL     OW 4520   2.721   0.956   0.861
 1502SOL    HW1 4521   2.775   0.887   0.909
 1502SOL    HW2 4522   2.689   1.025   0.927
 1503SOL     OW 4523   2.945   0.984   0.087
 1503SOL    HW1 4524   2.922   1.037   0.005
 1503SOL    HW2 4525   3.026   0.928   0.068
 1504SOL     OW 4526   3.723   1.569   0.851
 1504SOL    HW1 4527   3.652   1.557   0.781
 1504SOL    HW2 4528   3.724   1.490   0.911
 1505SOL     OW 4529   2.083   1.314   1.844
 1505SOL    HW1 4530   2.018   1.241   1.823
 1505SOL    HW2 4531   2.087   1.328   1.942
 1506SOL     OW 4532   1.941   1.240   0.653
 1506SOL    HW1 4533   1.940   1.193   0.741
 1506SOL    HW2 4534   2.023   1.212   0.602
 1507SOL     OW 4535   2.534   1.391   1.624
 1507SOL    HW1 4536   2.456   1.341   1.662
 1507SOL    HW2 4537   2.531   1.486   1.655
 1508SOL     OW 4538   3.686   0.192   1.227
 1508SOL    HW1 4539   3.682   0.102   1.271
 1508SOL    HW2 4540   3.689   0.181   1.128
 1509SOL     OW 4541   2.290   0.424   0.520
 1509SOL    HW1 4542   2.320   0.352   0.458
 1509SOL    HW2 4543   2.251   0.384   0.603
 1510SOL     OW 4544   3.567   1.487   1.104
 1510SOL    HW1 4545   3.474   1.462   1.077
 1510SOL    HW2 4546   3.593   1.437   1.186
 1511SOL     OW 4547   2.179   0.547   1.280
 1511SOL    HW1 4548   2.217   0.488   1.352
 1511SOL    HW2 4549   2.219   0.521   1.192
 1512SOL     OW 4550   2.674   1.586   0.687
 1512SOL    HW1 4551   2.706   1.596   0.593
 1512SOL    HW2 4552   2.595   1.524   0.689
 1513SOL     OW 4553   3.286   0.214   1.112
 1513SOL    HW1 4554   3.338   0.149   1.167
 1513SOL    HW2 4555   3.237   0.277   1.173
 1514SOL     OW 4556   2.863   0.034   1.154
 1514SOL    HW1 4557   2.800  -0.038   1.123
 1514SOL    HW2 4558   2.956  -0.002   1.154
 1515SOL     OW 4559   2.632   1.330   0.301
 1515SOL    HW1 4560   2.586   1.243   0.318
 1515SOL    HW2 4561   2.723   1.327   0.342
 1516SOL     OW 4562   2.480   1.567   1.284
 1516SOL    HW1 4563   2.475   1.649   1.341
 1516SOL    HW2 4564   2.569   1.564   1.239
 1517SOL     OW 4565   3.214   0.052   0.168
 1517SOL    HW1 4566   3.249   0.011   0.084
 1517SOL    HW2 4567   3.124   0.014   0.188
 1518SOL     OW 4568   3.162   0.453   0.691
 1518SOL    HW1 4569   3.103   0.533   0.695
 1518SOL    HW2 4570   3.177   0.418   0.784
 1519SOL     OW 4571   3.455   0.221   0.882
 1519SOL    HW1 4572   3.371   0.220   0.936
 1519SOL    HW2 4573   3.457   0.304   0.826
 1520SOL     OW 4574   1.901   1.077   0.300
 1520SOL    HW1 4575   2.000   1.066   0.291
 1520SOL    HW2 4576   1.861   0.991   0.332
 1521SOL     OW 4577   2.737   1.646   0.337
 1521SOL    HW1 4578   2.660   1.611   0.283
 1521SOL    HW2 4579   2.705   1.717   0.399
 1522SOL     OW 4580   2.092   0.628   1.975
 1522SOL    HW1 4581   1.999   0.626   2.012
 1522SOL    HW2 4582   2.093   0.589   1.883
 1523SOL     OW 4583   2.087   0.275   2.858
 1523SOL    HW1 4584   2.122   0.258   2.950
 1523SOL    HW2 4585   1.999   0.230   2.846
 1524SOL     OW 4586   1.881   0.368   2.509
 1524SOL    HW1 4587   1.799   0.411   2.548
 1524SOL    HW2 4588   1.853   0.295   2.446
 1525SOL     OW 4589   2.431   1.275   3.027
 1525SOL    HW1 4590   2.338   1.268   2.990
 1525SOL    HW2 4591   2.442   1.364   3.071
 1526SOL     OW 4592   3.417   1.511   2.565
 1526SOL    HW1 4593   3.360   1.495   2.646
 1526SOL    HW2 4594   3.358   1.521   2.485
 1527SOL     OW 4595   2.997   0.703   2.579
 1527SOL    HW1 4596   3.054   0.781   2.554
 1527SOL    HW2 4597   2.937   0.729   2.655
 1528SOL     OW 4598   3.617   0.607   2.093
 1528SOL    HW1 4599   3.605   0.594   1.994
 1528SOL    HW2 4600   3.587   0.526   2.142
 1529SOL     OW 4601   2.630   1.144   2.885
 1529SOL    HW1 4602   2.552   1.161   2.945
 1529SOL    HW2 4603   2.664   1.231   2.849
 1530SOL     OW 4604   2.712   0.798   3.685
 1530SOL    HW1 4605   2.708   0.874   3.750
 1530SOL    HW2 4606   2.734   0.834   3.594
 1531SOL     OW 4607   2.547   1.012   2.527
 1531SOL    HW1 4608   2.616   0.996   2.597
 1531SOL    HW2 4609   2.474   1.069   2.565
 1532SOL     OW 4610   2.548   1.161   3.665
 1532SOL    HW1 4611   2.608   1.240   3.679
 1532SOL    HW2 4612   2.462   1.192   3.624
 1533SOL     OW 4613   2.197   1.435   2.923
 1533SOL    HW1 4614   2.119   1.404   2.870
 1533SOL    HW2 4615   2.255   1.493   2.866
 1534SOL     OW 4616   3.322   1.505   3.201
 1534SOL    HW1 4617   3.346   1.599   3.227
 1534SOL    HW2 4618   3.306   1.451   3.283
 1535SOL     OW 4619   2.300   0.392   3.361
 1535SOL    HW1 4620   2.382   0.336   3.370
 1535SOL    HW2 4621   2.219   0.334   3.365
 1536SOL     OW 4622   3.465   0.447   2.599
 1536SOL    HW1 4623   3.391   0.493   2.549
 1536SOL    HW2 4624   3.516   0.515   2.652
 1537SOL     OW 4625   2.093   1.713   2.345
 1537SOL    HW1 4626   2.127   1.790   2.399
 1537SOL    HW2 4627   2.137   1.713   2.255
 1538SOL     OW 4628   2.989   1.341   3.552
 1538SOL    HW1 4629   3.036   1.341   3.640
 1538SOL    HW2 4630   2.941   1.254   3.541
 1539SOL     OW 4631   2.092   1.434   2.400
 1539SOL    HW1 4632   2.066   1.530   2.400
 1539SOL    HW2 4633   2.021   1.380   2.445
 1540SOL     OW 4634   2.102   1.091   2.748
 1540SOL    HW1 4635   2.116   1.007   2.800
 1540SOL    HW2 4636   2.047   1.155   2.803
 1541SOL     OW 4637   2.482   1.786   3.301
 1541SOL    HW1 4638   2.390   1.769   3.336
 1541SOL    HW2 4639   2.510   1.878   3.327
 1542SOL     OW 4640   2.468   0.964   1.985
 1542SOL    HW1 4641   2.475   1.048   1.931
 1542SOL    HW2 4642   2.514   0.977   2.073
 1543SOL     OW 4643   3.456   0.114   3.342
 1543SOL    HW1 4644   3.438   0.181   3.270
 1543SOL    HW2 4645   3.453   0.160   3.431
 1544SOL     OW 4646   1.984   0.643   2.425
 1544SOL    HW1 4647   1.939   0.555   2.442
 1544SOL    HW2 4648   1.983   0.697   2.509
 1545SOL     OW 4649   3.704   1.767   2.221
 1545SOL    HW1 4650   3.758   1.738   2.301
 1545SOL    HW2 4651   3.734   1.857   2.192
 1546SOL     OW 4652   1.889   1.596   1.979
 1546SOL    HW1 4653   1.870   1.500   2.000
 1546SOL    HW2 4654   1.856   1.654   2.054
 1547SOL     OW 4655   3.551   0.922   2.474
 1547SOL    HW1 4656   3.646   0.893   2.482
 1547SOL    HW2 4657   3.543   0.987   2.399
 1548SOL     OW 4658   3.503   1.108   2.294
 1548SOL    HW1 4659   3.589   1.110   2.242
 1548SOL    HW2 4660   3.517   1.155   2.382
 1549SOL     OW 4661   1.975   0.737   3.459
 1549SOL    HW1 4662   2.063   0.724   3.504
 1549SOL    HW2 4663   1.962   0.834   3.437
 1550SOL     OW 4664   2.475   1.365   2.588
 1550SOL    HW1 4665   2.426   1.278   2.597
 1550SOL    HW2 4666   2.452   1.408   2.501
 1551SOL     OW 4667   3.155   1.228   3.285
 1551SOL    HW1 4668   3.192   1.155   3.227
 1551SOL    HW2 4669   3.207   1.233   3.370
 1552SOL     OW 4670   2.671   0.004   2.364
 1552SOL    HW1 4671   2.711   0.095   2.355
 1552SOL    HW2 4672   2.571   0.012   2.370
 1553SOL     OW 4673   2.059   0.976   3.126
 1553SOL    HW1 4674   2.148   0.931   3.112
 1553SOL    HW2 4675   1.986   0.911   3.107
 1554SOL     OW 4676   3.387   0.999   2.052
 1554SOL    HW1 4677   3.324   0.923   2.065
 1554SOL    HW2 4678   3.435   1.017   2.138
 1555SOL     OW 4679   3.049   1.792   3.478
 1555SOL    HW1 4680   3.073   1.852   3.402
 1555SOL    HW2 4681   3.056   1.697   3.448
 1556SOL     OW 4682   2.179   0.251   3.663
 1556SOL    HW1 4683   2.250   0.322   3.669
 1556SOL    HW2 4684   2.091   0.290   3.691
 1557SOL     OW 4685   3.328   1.417   2.815
 1557SOL    HW1 4686   3.269   1.423   2.895
 1557SOL    HW2 4687   3.313   1.329   2.769
 1558SOL     OW 4688   3.529   1.714   2.434
 1558SOL    HW1 4689   3.488   1.691   2.346
 1558SOL    HW2 4690   3.511   1.640   2.499
 1559SOL     OW 4691   2.460   0.729   2.132
 1559SOL    HW1 4692   2.484   0.798   2.064
 1559SOL    HW2 4693   2.382   0.762   2.186
 1560SOL     OW 4694   3.143   0.345   2.806
 1560SOL    HW1 4695   3.057   0.295   2.793
 1560SOL    HW2 4696   3.205   0.291   2.862
 1561SOL     OW 4697   3.438   1.662   2.169
 1561SOL    HW1 4698   3.527   1.708   2.172
 1561SOL    HW2 4699   3.417   1.638   2.074
 1562SOL     OW 4700   2.669   0.605   3.327
 1562SOL    HW1 4701   2.622   0.602   3.416
 1562SOL    HW2 4702   2.618   0.550   3.261
 1563SOL     OW 4703   3.256   0.469   3.536
 1563SOL    HW1 4704   3.236   0.512   3.624
 1563SOL    HW2 4705   3.334   0.407   3.545
 1564SOL     OW 4706   2.835   0.890   3.434
 1564SOL    HW1 4707   2.881   0.806   3.405
 1564SOL    HW2 4708   2.779   0.924   3.359
 1565SOL     OW 4709   2.853   0.410   3.104
 1565SOL    HW1 4710   2.776   0.444   3.158
 1565SOL    HW2 4711   2.819   0.359   3.025
 1566SOL     OW 4712   2.903   0.701   2.291
 1566SOL    HW1 4713   2.929   0.697   2.387
 1566SOL    HW2 4714   2.818   0.650   2.277
 1567SOL     OW 4715   1.938   0.811   2.651
 1567SOL    HW1 4716   2.037   0.799   2.660
 1567SOL    HW2 4717   1.914   0.906   2.672
 1568SOL     OW 4718   1.992   1.821   3.433
 1568SOL    HW1 4719   1.982   1.806   3.532
 1568SOL    HW2 4720   1.906   1.857   3.397
 1569SOL     OW 4721   2.727   0.348   2.057
 1569SOL    HW1 4722   2.786   0.411   2.008
 1569SOL    HW2 4723   2.746   0.254   2.028
 1570SOL     OW 4724   3.581   0.585   3.693
 1570SOL    HW1 4725   3.555   0.674   3.657
 1570SOL    HW2 4726   3.579   0.517   3.620
 1571SOL     OW 4727   3.224   1.144   2.407
 1571SOL    HW1 4728   3.307   1.115   2.359
 1571SOL    HW2 4729   3.175   1.211   2.351
 1572SOL     OW 4730   2.412   0.196   2.747
 1572SOL    HW1 4731   2.407   0.191   2.847
 1572SOL    HW2 4732   2.414   0.292   2.718
 1573SOL     OW 4733   2.870   1.456   2.339
 1573SOL    HW1 4734   2.824   1.528   2.287
 1573SOL    HW2 4735   2.866   1.476   2.437
 1574SOL     OW 4736   2.213   1.801   2.715
 1574SOL    HW1 4737   2.263   1.715   2.721
 1574SOL    HW2 4738   2.278   1.878   2.712
 1575SOL     OW 4739   3.657   1.066   2.735
 1575SOL    HW1 4740   3.595   1.051   2.659
 1575SOL    HW2 4741   3.605   1.077   2.820
 1576SOL     OW 4742   3.089   1.550   3.368
 1576SOL    HW1 4743   3.095   1.473   3.432
 1576SOL    HW2 4744   3.037   1.524   3.288
 1577SOL     OW 4745   2.183   0.943   2.104
 1577SOL    HW1 4746   2.265   0.982   2.062
 1577SOL    HW2 4747   2.156   0.861   2.055
 1578SOL     OW 4748   3.320   0.735   2.590
 1578SOL    HW1 4749   3.315   0.670   2.665
 1578SOL    HW2 4750   3.400   0.794   2.603
 1579SOL     OW 4751   2.323   1.266   3.589
 1579SOL    HW1 4752   2.273   1.267   3.503
 1579SOL    HW2 4753   2.260   1.248   3.665
 1580SOL     OW 4754   2.973   1.776   2.099
 1580SOL    HW1 4755   2.913   1.714   2.149
 1580SOL    HW2 4756   3.004   1.732   2.014
 1581SOL     OW 4757   2.064   0.285   3.360
 1581SOL    HW1 4758   1.984   0.345   3.347
 1581SOL    HW2 4759   2.054   0.236   3.446
 1582SOL     OW 4760   3.494   1.377   1.943
 1582SOL    HW1 4761   3.462   1.471   1.933
 1582SOL    HW2 4762   3.418   1.314   1.931
 1583SOL     OW 4763   2.326   1.743   2.185
 1583SOL    HW1 4764   2.359   1.782   2.271
 1583SOL    HW2 4765   2.402   1.736   2.120
 1584SOL     OW 4766   3.262   0.107   2.288
 1584SOL    HW1 4767   3.238   0.070   2.198
 1584SOL    HW2 4768   3.361   0.123   2.292
 1585SOL     OW 4769   2.111   1.785   3.103
 1585SOL    HW1 4770   2.168   1.720   3.153
 1585SOL    HW2 4771   2.095   1.752   3.010
 1586SOL     OW 4772   2.802   1.698   2.766
 1586SOL    HW1 4773   2.882   1.641   2.787
 1586SOL    HW2 4774   2.753   1.658   2.689
 1587SOL     OW 4775   2.244   0.700   2.342
 1587SOL    HW1 4776   2.289   0.610   2.339
 1587SOL    HW2 4777   2.150   0.689   2.375
 1588SOL     OW 4778   3.409   0.222   3.591
 1588SOL    HW1 4779   3.404   0.259   3.683
 1588SOL    HW2 4780   3.337   0.153   3.579
 1589SOL     OW 4781   2.476   0.122   1.979
 1589SOL    HW1 4782   2.574   0.100   1.986
 1589SOL    HW2 4783   2.445   0.105   1.886
 1590SOL     OW 4784   2.643   0.264   3.611
 1590SOL    HW1 4785   2.710   0.203   3.654
 1590SOL    HW2 4786   2.570   0.283   3.676
 1591SOL     OW 4787   2.750   1.514   3.057
 1591SOL    HW1 4788   2.727   1.489   2.963
 1591SOL    HW2 4789   2.811   1.445   3.096
 1592SOL     OW 4790   3.213   0.590   3.295
 1592SOL    HW1 4791   3.241   0.547   3.380
 1592SOL    HW2 4792   3.238   0.686   3.296
 1593SOL     OW 4793   2.665   1.402   2.786
 1593SOL    HW1 4794   2.755   1.416   2.744
 1593SOL    HW2 4795   2.594   1.404   2.715
 1594SOL     OW 4796   2.784   0.503   2.761
 1594SOL    HW1 4797   2.759   0.494   2.665
 1594SOL    HW2 4798   2.832   0.421   2.792
 1595SOL     OW 4799   2.401   0.064   2.374
 1595SOL    HW1 4800   2.320   0.065   2.432
 1595SOL    HW2 4801   2.404   0.147   2.319
 1596SOL     OW 4802   3.296   1.188   1.903
 1596SOL    HW1 4803   3.328   1.112   1.960
 1596SOL    HW2 4804   3.204   1.215   1.933
 1597SOL     OW 4805   2.159   0.035   2.033
 1597SOL    HW1 4806   2.208   0.119   2.012
 1597SOL    HW2 4807   2.221  -0.030   2.078
 1598SOL     OW 4808   2.797   0.236   2.342
 1598SOL    HW1 4809   2.749   0.277   2.264
 1598SOL    HW2 4810   2.896   0.234   2.323
 1599SOL     OW 4811   2.938   0.683   3.326
 1599SOL    HW1 4812   2.858   0.622   3.329
 1599SOL    HW2 4813   3.019   0.630   3.302
 1600SOL     OW 4814   3.089   1.570   2.655
 1600SOL    HW1 4815   3.110   1.644   2.590
 1600SOL    HW2 4816   3.157   1.570   2.728
 1601SOL     OW 4817   2.321   1.152   2.603
 1601SOL    HW1 4818   2.250   1.125   2.668
 1601SOL    HW2 4819   2.295   1.124   2.510
 1602SOL     OW 4820   3.133   1.797   2.453
 1602SOL    HW1 4821   3.177   1.861   2.389
 1602SOL    HW2 4822   3.083   1.849   2.523
 1603SOL     OW 4823   2.894   0.549   1.878
 1603SOL    HW1 4824   2.853   0.631   1.839
 1603SOL    HW2 4825   2.958   0.575   1.951
 1604SOL     OW 4826   1.940   0.556   3.248
 1604SOL    HW1 4827   2.032   0.555   3.207
 1604SOL    HW2 4828   1.934   0.630   3.315
 1605SOL     OW 4829   2.423   0.222   3.009
 1605SOL    HW1 4830   2.461   0.138   3.046
 1605SOL    HW2 4831   2.335   0.241   3.053
 1606SOL     OW 4832   2.728   0.454   2.504
 1606SOL    HW1 4833   2.696   0.526   2.442
 1606SOL    HW2 4834   2.752   0.373   2.451
 1607SOL     OW 4835   2.879   0.039   2.615
 1607SOL    HW1 4836   2.807   0.044   2.546
 1607SOL    HW2 4837   2.855  -0.030   2.684
 1608SOL     OW 4838   3.291   1.173   2.729
 1608SOL    HW1 4839   3.236   1.089   2.722
 1608SOL    HW2 4840   3.317   1.202   2.637
 1609SOL     OW 4841   3.328   0.590   2.854
 1609SOL    HW1 4842   3.298   0.495   2.861
 1609SOL    HW2 4843   3.401   0.606   2.920
 1610SOL     OW 4844   3.719   0.833   2.239
 1610SOL    HW1 4845   3.761   0.769   2.303
 1610SOL    HW2 4846   3.681   0.782   2.161
 1611SOL     OW 4847   2.350   1.385   2.036
 1611SOL    HW1 4848   2.263   1.370   2.083
 1611SOL    HW2 4849   2.333   1.411   1.941
 1612SOL     OW 4850   3.526   1.280   2.519
 1612SOL    HW1 4851   3.625   1.288   2.533
 1612SOL    HW2 4852   3.481   1.364   2.550
 1613SOL     OW 4853   3.252   0.575   1.940
 1613SOL    HW1 4854   3.198   0.554   2.021
 1613SOL    HW2 4855   3.343   0.534   1.949
 1614SOL     OW 4856   2.389   0.256   2.190
 1614SOL    HW1 4857   2.416   0.197   2.115
 1614SOL    HW2 4858   2.389   0.351   2.159
 1615SOL     OW 4859   3.616   1.223   3.450
 1615SOL    HW1 4860   3.707   1.184   3.437
 1615SOL    HW2 4861   3.624   1.319   3.474
 1616SOL     OW 4862   2.926   1.347   3.202
 1616SOL    HW1 4863   2.846   1.324   3.257
 1616SOL    HW2 4864   3.009   1.321   3.251
 1617SOL     OW 4865   3.454   1.629   3.487
 1617SOL    HW1 4866   3.481   1.663   3.397
 1617SOL    HW2 4867   3.533   1.591   3.533
 1618SOL     OW 4868   2.973   1.195   2.962
 1618SOL    HW1 4869   2.933   1.239   3.043
 1618SOL    HW2 4870   2.932   1.232   2.879
 1619SOL     OW 4871   3.500   1.099   2.941
 1619SOL    HW1 4872   3.505   1.180   3.000
 1619SOL    HW2 4873   3.414   1.101   2.890
 1620SOL     OW 4874   2.777   0.089   3.264
 1620SOL    HW1 4875   2.802   0.069   3.169
 1620SOL    HW2 4876   2.849   0.145   3.306
 1621SOL     OW 4877   2.842   1.116   3.581
 1621SOL    HW1 4878   2.743   1.122   3.591
 1621SOL    HW2 4879   2.865   1.036   3.525
 1622SOL     OW 4880   2.567   1.050   2.230
 1622SOL    HW1 4881   2.553   1.057   2.329
 1622SOL    HW2 4882   2.651   0.999   2.212
 1623SOL     OW 4883   2.272   0.813   3.113
 1623SOL    HW1 4884   2.358   0.825   3.163
 1623SOL    HW2 4885   2.230   0.726   3.140
 1624SOL     OW 4886   3.136   0.386   3.124
 1624SOL    HW1 4887   3.157   0.460   3.188
 1624SOL    HW2 4888   3.047   0.403   3.081
 1625SOL     OW 4889   1.926   1.564   3.193
 1625SOL    HW1 4890   1.880   1.646   3.159
 1625SOL    HW2 4891   2.024   1.583   3.202
 1626SOL     OW 4892   2.229   1.100   2.363
 1626SOL    HW1 4893   2.222   1.183   2.307
 1626SOL    HW2 4894   2.233   1.020   2.303
 1627SOL     OW 4895   2.428   0.537   2.727
 1627SOL    HW1 4896   2.440   0.603   2.653
 1627SOL    HW2 4897   2.474   0.571   2.810
 1628SOL     OW 4898   3.114   1.348   2.250
 1628SOL    HW1 4899   3.164   1.425   2.290
 1628SOL    HW2 4900   3.019   1.350   2.282
 1629SOL     OW 4901   3.134   1.445   3.004
 1629SOL    HW1 4902   3.181   1.458   3.091
 1629SOL    HW2 4903   3.068   1.371   3.013
 1630SOL     OW 4904   3.444   0.639   2.334
 1630SOL    HW1 4905   3.413   0.700   2.407
 1630SOL    HW2 4906   3.494   0.691   2.265
 1631SOL     OW 4907   2.216   1.510   3.191
 1631SOL    HW1 4908   2.195   1.466   3.104
 1631SOL    HW2 4909   2.313   1.536   3.194
 1632SOL     OW 4910   2.264   0.751   3.460
 1632SOL    HW1 4911   2.332   0.806   3.413
 1632SOL    HW2 4912   2.304   0.663   3.487
 1633SOL     OW 4913   3.449   0.779   3.532
 1633SOL    HW1 4914   3.357   0.817   3.527
 1633SOL    HW2 4915   3.509   0.826   3.467
 1634SOL     OW 4916   2.875   0.105   3.632
 1634SOL    HW1 4917   2.881   0.190   3.580
 1634SOL    HW2 4918   2.907   0.029   3.575
 1635SOL     OW 4919   2.366   0.050   3.602
 1635SOL    HW1 4920   2.324  -0.007   3.532
 1635SOL    HW2 4921   2.300   0.119   3.634
 1636SOL     OW 4922   2.435   0.870   2.891
 1636SOL    HW1 4923   2.479   0.959   2.882
 1636SOL    HW2 4924   2.372   0.870   2.968
 1637SOL     OW 4925   3.222   0.862   2.907
 1637SOL    HW1 4926   3.147   0.862   2.841
 1637SOL    HW2 4927   3.259   0.770   2.916
 1638SOL     OW 4928   3.071   0.525   2.137
 1638SOL    HW1 4929   3.084   0.441   2.191
 1638SOL    HW2 4930   3.042   0.599   2.197
 1639SOL     OW 4931   2.169   0.213   3.093
 1639SOL    HW1 4932   2.146   0.250   3.183
 1639SOL    HW2 4933   2.139   0.118   3.087
 1640SOL     OW 4934   1.899   1.310   3.144
 1640SOL    HW1 4935   1.952   1.261   3.212
 1640SOL    HW2 4936   1.921   1.408   3.149
 1641SOL     OW 4937   2.594   0.634   2.926
 1641SOL    HW1 4938   2.653   0.608   2.850
 1641SOL    HW2 4939   2.566   0.730   2.915
 1642SOL     OW 4940   3.590   0.935   3.716
 1642SOL    HW1 4941   3.544   0.928   3.627
 1642SOL    HW2 4942   3.528   0.979   3.782
 1643SOL     OW 4943   2.169   0.063   2.480
 1643SOL    HW1 4944   2.158   0.157   2.513
 1643SOL    HW2 4945   2.164   0.000   2.557
 1644SOL     OW 4946   3.484   0.367   2.236
 1644SOL    HW1 4947   3.486   0.291   2.300
 1644SOL    HW2 4948   3.436   0.444   2.276
 1645SOL     OW 4949   2.885   0.766   2.828
 1645SOL    HW1 4950   2.900   0.787   2.924
 1645SOL    HW2 4951   2.855   0.671   2.819
 1646SOL     OW 4952   2.842   1.573   3.562
 1646SOL    HW1 4953   2.822   1.617   3.474
 1646SOL    HW2 4954   2.881   1.482   3.546
 1647SOL     OW 4955   3.721   1.518   3.467
 1647SOL    HW1 4956   3.735   1.545   3.372
 1647SOL    HW2 4957   3.804   1.540   3.520
 1648SOL     OW 4958   2.212   0.898   3.666
 1648SOL    HW1 4959   2.288   0.942   3.714
 1648SOL    HW2 4960   2.247   0.851   3.584
 1649SOL     OW 4961   3.402   0.274   1.987
 1649SOL    HW1 4962   3.341   0.199   2.010
 1649SOL    HW2 4963   3.424   0.326   2.070
 1650SOL     OW 4964   3.165   0.838   1.904
 1650SOL    HW1 4965   3.199   0.745   1.919
 1650SOL    HW2 4966   3.183   0.865   1.809
 1651SOL     OW 4967   2.930   1.333   2.711
 1651SOL    HW1 4968   2.937   1.249   2.656
 1651SOL    HW2 4969   2.992   1.402   2.675
 1652SOL     OW 4970   2.181   0.810   2.811
 1652SOL    HW1 4971   2.274   0.846   2.816
 1652SOL    HW2 4972   2.175   0.725   2.863
 1653SOL     OW 4973   2.201   0.509   2.868
 1653SOL    HW1 4974   2.149   0.426   2.851
 1653SOL    HW2 4975   2.278   0.514   2.804
 1654SOL     OW 4976   3.000   0.380   3.540
 1654SOL    HW1 4977   2.955   0.443   3.604
 1654SOL    HW2 4978   3.093   0.411   3.523
 1655SOL     OW 4979   3.022   0.207   3.339
 1655SOL    HW1 4980   3.022   0.271   3.416
 1655SOL    HW2 4981   3.050   0.255   3.256
 1656SOL     OW 4982   1.870   1.326   2.062
 1656SOL    HW1 4983   1.777   1.347   2.031
 1656SOL    HW2 4984   1.880   1.227   2.075
 1657SOL     OW 4985   1.950   1.801   2.789
 1657SOL    HW1 4986   1.908   1.715   2.762
 1657SOL    HW2 4987   2.044   1.804   2.755
 1658SOL     OW 4988   2.366   1.568   2.772
 1658SOL    HW1 4989   2.432   1.642   2.781
 1658SOL    HW2 4990   2.410   1.489   2.730
 1659SOL     OW 4991   2.864   0.796   3.100
 1659SOL    HW1 4992   2.905   0.764   3.186
 1659SOL    HW2 4993   2.768   0.769   3.097
 1660SOL     OW 4994   1.902   0.544   2.976
 1660SOL    HW1 4995   1.987   0.511   2.935
 1660SOL    HW2 4996   1.915   0.559   3.074
 1661SOL     OW 4997   2.051   0.520   3.584
 1661SOL    HW1 4998   2.110   0.480   3.514
 1661SOL    HW2 4999   1.993   0.591   3.543
 1662SOL     OW 5000   3.231   0.950   3.522
 1662SOL    HW1 5001   3.270   1.039   3.542
 1662SOL    HW2 5002   3.241   0.930   3.425
 1663SOL     OW 5003   2.677   0.572   2.187
 1663SOL    HW1 5004   2.684   0.483   2.141
 1663SOL    HW2 5005   2.583   0.606   2.179
 1664SOL     OW 5006   3.519   0.604   3.068
 1664SOL    HW1 5007   3.481   0.535   3.130
 1664SOL    HW2 5008   3.601   0.568   3.024
 1665SOL     OW 5009   2.114   1.564   3.606
 1665SOL    HW1 5010   2.084   1.621   3.682
 1665SOL    HW2 5011   2.107   1.467   3.632
 1666SOL     OW 5012   2.533   0.464   3.131
 1666SOL    HW1 5013   2.499   0.375   3.101
 1666SOL    HW2 5014   2.559   0.518   3.051
 1667SOL     OW 5015   2.792   1.678   3.327
 1667SOL    HW1 5016   2.768   1.660   3.232
 1667SOL    HW2 5017   2.822   1.772   3.337
 1668SOL     OW 5018   2.335   0.500   2.053
 1668SOL    HW1 5019   2.396   0.580   2.057
 1668SOL    HW2 5020   2.240   0.531   2.060
 1669SOL     OW 5021   2.021   1.137   3.328
 1669SOL    HW1 5022   2.043   1.076   3.404
 1669SOL    HW2 5023   2.031   1.088   3.242
 1670SOL     OW 5024   3.209   1.059   3.096
 1670SOL    HW1 5025   3.233   0.996   3.022
 1670SOL    HW2 5026   3.119   1.099   3.078
 1671SOL     OW 5027   3.164   0.855   2.171
 1671SOL    HW1 5028   3.078   0.824   2.213
 1671SOL    HW2 5029   3.160   0.841   2.072
 1672SOL     OW 5030   3.621   1.747   3.016
 1672SOL    HW1 5031   3.682   1.777   2.943
 1672SOL    HW2 5032   3.583   1.658   2.994
 1673SOL     OW 5033   3.114   1.731   2.990
 1673SOL    HW1 5034   3.198   1.736   2.936
 1673SOL    HW2 5035   3.091   1.635   3.008
 1674SOL     OW 5036   1.945   1.258   2.884
 1674SOL    HW1 5037   1.940   1.257   2.984
 1674SOL    HW2 5038   1.862   1.217   2.846
 1675SOL     OW 5039   2.550   1.662   3.578
 1675SOL    HW1 5040   2.494   1.743   3.587
 1675SOL    HW2 5041   2.602   1.666   3.492
 1676SOL     OW 5042   3.588   0.135   2.385
 1676SOL    HW1 5043   3.661   0.118   2.318
 1676SOL    HW2 5044   3.557   0.048   2.423
 1677SOL     OW 5045   3.250   1.573   2.339
 1677SOL    HW1 5046   3.317   1.585   2.265
 1677SOL    HW2 5047   3.210   1.662   2.362
 1678SOL     OW 5048   1.992   1.794   3.713
 1678SOL    HW1 5049   1.951   1.720   3.766
 1678SOL    HW2 5050   2.056   1.845   3.771
 1679SOL     OW 5051   3.142   0.927   2.534
 1679SOL    HW1 5052   3.202   0.846   2.536
 1679SOL    HW2 5053   3.182   0.996   2.474
 1680SOL     OW 5054   2.692   1.273   3.284
 1680SOL    HW1 5055   2.687   1.306   3.379
 1680SOL    HW2 5056   2.606   1.292   3.238
 1681SOL     OW 5057   2.534   1.616   2.016
 1681SOL    HW1 5058   2.543   1.626   1.917
 1681SOL    HW2 5059   2.494   1.527   2.037
 1682SOL     OW 5060   3.512   1.720   3.256
 1682SOL    HW1 5061   3.565   1.730   3.172
 1682SOL    HW2 5062   3.485   1.810   3.290
 1683SOL     OW 5063   3.703   0.175   2.825
 1683SOL    HW1 5064   3.742   0.090   2.789
 1683SOL    HW2 5065   3.605   0.177   2.806
 1684SOL     OW 5066   2.125   0.326   2.582
 1684SOL    HW1 5067   2.046   0.377   2.548
 1684SOL    HW2 5068   2.116   0.311   2.680
 1685SOL     OW 5069   3.056   1.612   1.893
 1685SOL    HW1 5070   3.062   1.519   1.930
 1685SOL    HW2 5071   2.997   1.612   1.813
 1686SOL     OW 5072   2.684   1.002   3.234
 1686SOL    HW1 5073   2.724   1.001   3.142
 1686SOL    HW2 5074   2.694   1.094   3.274
 1687SOL     OW 5075   2.778   0.910   2.153
 1687SOL    HW1 5076   2.841   0.948   2.085
 1687SOL    HW2 5077   2.818   0.827   2.192
 1688SOL     OW 5078   3.366   1.607   1.906
 1688SOL    HW1 5079   3.274   1.644   1.913
 1688SOL    HW2 5080   3.404   1.627   1.816
 1689SOL     OW 5081   2.234   1.288   3.352
 1689SOL    HW1 5082   2.221   1.381   3.318
 1689SOL    HW2 5083   2.150   1.236   3.339
 1690SOL     OW 5084   3.476   1.292   3.151
 1690SOL    HW1 5085   3.536   1.295   3.231
 1690SOL    HW2 5086   3.401   1.356   3.164
 1691SOL     OW 5087   2.901   1.098   2.558
 1691SOL    HW1 5088   2.831   1.051   2.612
 1691SOL    HW2 5089   2.960   1.030   2.515
 1692SOL     OW 5090   2.876   0.236   2.833
 1692SOL    HW1 5091   2.868   0.200   2.740
 1692SOL    HW2 5092   2.874   0.160   2.898
 1693SOL     OW 5093   2.452   1.487   2.353
 1693SOL    HW1 5094   2.494   1.429   2.283
 1693SOL    HW2 5095   2.408   1.566   2.309
 1694SOL     OW 5096   3.571   0.385   3.243
 1694SOL    HW1 5097   3.644   0.454   3.247
 1694SOL    HW2 5098   3.599   0.310   3.184
 1695SOL     OW 5099   2.117   1.348   2.152
 1695SOL    HW1 5100   2.021   1.349   2.125
 1695SOL    HW2 5101   2.129   1.401   2.236
 1696SOL     OW 5102   1.967   1.013   3.588
 1696SOL    HW1 5103   1.890   0.980   3.642
 1696SOL    HW2 5104   2.052   0.983   3.630
 1697SOL     OW 5105   2.534   0.203   3.351
 1697SOL    HW1 5106   2.624   0.187   3.311
 1697SOL    HW2 5107   2.542   0.208   3.450
 1698SOL     OW 5108   1.937   0.345   1.895
 1698SOL    HW1 5109   1.845   0.317   1.866
 1698SOL    HW2 5110   1.968   0.422   1.839
 1699SOL     OW 5111   3.302   0.856   3.260
 1699SOL    HW1 5112   3.245   0.908   3.197
 1699SOL    HW2 5113   3.398   0.868   3.236
 1700SOL     OW 5114   1.934   0.166   2.180
 1700SOL    HW1 5115   1.917   0.249   2.126
 1700SOL    HW2 5116   2.024   0.129   2.158
 1701SOL     OW 5117   3.045   1.335   1.981
 1701SOL    HW1 5118   2.946   1.324   1.983
 1701SOL    HW2 5119   3.079   1.350   2.074
 1702SOL     OW 5120   2.475   0.842   3.293
 1702SOL    HW1 5121   2.531   0.923   3.276
 1702SOL    HW2 5122   2.534   0.762   3.296
 1703SOL     OW 5123   3.355   1.767   2.821
 1703SOL    HW1 5124   3.388   1.831   2.752
 1703SOL    HW2 5125   3.421   1.761   2.896
 1704SOL     OW 5126   2.578   0.565   3.570
 1704SOL    HW1 5127   2.597   0.630   3.644
 1704SOL    HW2 5128   2.638   0.485   3.579
 1705SOL     OW 5129   3.312   1.220   3.495
 1705SOL    HW1 5130   3.303   1.210   3.594
 1705SOL    HW2 5131   3.408   1.213   3.469
 1706SOL     OW 5132   2.252   1.741   3.422
 1706SOL    HW1 5133   2.161   1.782   3.420
 1706SOL    HW2 5134   2.245   1.647   3.454
 1707SOL     OW 5135   3.536   0.883   3.116
 1707SOL    HW1 5136   3.509   0.794   3.079
 1707SOL    HW2 5137   3.537   0.951   3.043
 1708SOL     OW 5138   3.087   0.325   2.311
 1708SOL    HW1 5139   3.152   0.251   2.300
 1708SOL    HW2 5140   3.107   0.375   2.395
 1709SOL     OW 5141   2.456   0.745   2.514
 1709SOL    HW1 5142   2.506   0.830   2.495
 1709SOL    HW2 5143   2.368   0.747   2.466
 1710SOL     OW 5144   3.639   0.342   3.504
 1710SOL    HW1 5145   3.622   0.373   3.410
 1710SOL    HW2 5146   3.555   0.305   3.542
 1711SOL     OW 5147   3.592   0.934   3.379
 1711SOL    HW1 5148   3.630   1.025   3.394
 1711SOL    HW2 5149   3.584   0.917   3.280
 1712SOL     OW 5150   2.721   1.374   1.878
 1712SOL    HW1 5151   2.675   1.389   1.966
 1712SOL    HW2 5152   2.765   1.459   1.848
 1713SOL     OW 5153   2.523   1.790   2.815
 1713SOL    HW1 5154   2.477   1.878   2.802
 1713SOL    HW2 5155   2.622   1.802   2.808
 1714SOL     OW 5156   2.721   0.956   2.723
 1714SOL    HW1 5157   2.775   0.887   2.771
 1714SOL    HW2 5158   2.689   1.025   2.789
 1715SOL     OW 5159   2.945   0.984   1.949
 1715SOL    HW1 5160   2.922   1.037   1.867
 1715SOL    HW2 5161   3.026   0.928   1.930
 1716SOL     OW 5162   3.723   1.569   2.713
 1716SOL    HW1 5163   3.652   1.557   2.643
 1716SOL    HW2 5164   3.724   1.490   2.773
 1717SOL     OW 5165   2.083   1.314   3.706
 1717SOL    HW1 5166   2.018   1.241   3.685
 1717SOL    HW2 5167   2.087   1.328   3.804
 1718SOL     OW 5168   1.941   1.240   2.515
 1718SOL    HW1 5169   1.940   1.193   2.603
 1718SOL    HW2 5170   2.023   1.212   2.464
 1719SOL     OW 5171   2.534   1.391   3.486
 1719SOL    HW1 5172   2.456   1.341   3.524
 1719SOL    HW2 5173   2.531   1.486   3.517
 1720SOL     OW 5174   3.686   0.192   3.089
 1720SOL    HW1 5175   3.682   0.102   3.133
 1720SOL    HW2 5176   3.689   0.181   2.990
 1721SOL     OW 5177   2.290   0.424   2.382
 1721SOL    HW1 5178   2.320   0.352   2.320
 1721SOL    HW2 5179   2.251   0.384   2.465
 1722SOL     OW 5180   3.567   1.487   2.966
 1722SOL    HW1 5181   3.474   1.462   2.939
 1722SOL    HW2 5182   3.593   1.437   3.048
 1723SOL     OW 5183   2.179   0.547   3.142
 1723SOL    HW1 5184   2.217   0.488   3.214
 1723SOL    HW2 5185   2.219   0.521   3.054
 1724SOL     OW 5186   2.674   1.586   2.549
 1724SOL    HW1 5187   2.706   1.596   2.455
 1724SOL    HW2 5188   2.595   1.524   2.551
 1725SOL     OW 5189   3.286   0.214   2.974
 1725SOL    HW1 5190   3.338   0.149   3.029
 1725SOL    HW2 5191   3.237   0.277   3.035
 1726SOL     OW 5192   2.863   0.034   3.016
 1726SOL    HW1 5193   2.800  -0.038   2.985
 1726SOL    HW2 5194   2.956  -0.002   3.016
 1727SOL     OW 5195   2.632   1.330   2.163
 1727SOL    HW1 5196   2.586   1.243   2.180
 1727SOL    HW2 5197   2.723   1.327   2.204
 1728SOL     OW 5198   2.480   1.567   3.146
 1728SOL    HW1 5199   2.475   1.649   3.203
 1728SOL    HW2 5200   2.569   1.564   3.101
 1729SOL     OW 5201   3.214   0.052   2.030
 1729SOL    HW1 5202   3.249   0.011   1.946
 1729SOL    HW2 5203   3.124   0.014   2.050
 1730SOL     OW 5204   3.162   0.453   2.553
 1730SOL    HW1 5205   3.103   0.533   2.557
 1730SOL    HW2 5206   3.177   0.418   2.646
 1731SOL     OW 5207   3.455   0.221   2.744
 1731SOL    HW1 5208   3.371   0.220   2.798
 1731SOL    HW2 5209   3.457   0.304   2.688
 1732SOL     OW 5210   1.901   1.077   2.162
 1732SOL    HW1 5211   2.000   1.066   2.153
 1732SOL    HW2 5212   1.861   0.991   2.194
 1733SOL     OW 5213   2.737   1.646   2.199
 1733SOL    HW1 5214   2.660   1.611   2.145
 1733SOL    HW2 5215   2.705   1.717   2.261
 1734SOL     OW 5216   2.092   0.628   3.837
 1734SOL    HW1 5217   1.999   0.626   3.874
 1734SOL    HW2 5218   2.093   0.589   3.745
 1735SOL     OW 5219   2.087   0.275   4.720
 1735SOL    HW1 5220   2.122   0.258   4.812
 1735SOL    HW2 5221   1.999   0.230   4.708
 1736SOL     OW 5222   1.881   0.368   4.371
 1736SOL    HW1 5223   1.799   0.411   4.410
 1736SOL    HW2 5224   1.853   0.295   4.308
 1737SOL     OW 5225   3.417   1.511   4.427
 1737SOL    HW1 5226   3.360   1.495   4.508
 1737SOL    HW2 5227   3.358   1.521   4.347
 1738SOL     OW 5228   2.997   0.703   4.441
 1738SOL    HW1 5229   3.054   0.781   4.416
 1738SOL    HW2 5230   2.937   0.729   4.517
 1739SOL     OW 5231   3.617   0.607   3.955
 1739SOL    HW1 5232   3.605   0.594   3.856
 1739SOL    HW2 5233   3.587   0.526   4.004
 1740SOL     OW 5234   2.630   1.144   4.747
 1740SOL    HW1 5235   2.552   1.161   4.807
 1740SOL    HW2 5236   2.664   1.231   4.711
 1741SOL     OW 5237   2.547   1.012   4.389
 1741SOL    HW1 5238   2.616   0.996   4.459
 1741SOL    HW2 5239   2.474   1.069   4.427
 1742SOL     OW 5240   3.465   0.447   4.461
 1742SOL    HW1 5241   3.391   0.493   4.411
 1742SOL    HW2 5242   3.516   0.515   4.514
 1743SOL     OW 5243   2.093   1.713   4.207
 1743SOL    HW1 5244   2.127   1.790   4.261
 1743SOL    HW2 5245   2.137   1.713   4.117
 1744SOL     OW 5246   2.092   1.434   4.262
 1744SOL    HW1 5247   2.066   1.530   4.262
 1744SOL    HW2 5248   2.021   1.380   4.307
 1745SOL     OW 5249   2.102   1.091   4.610
 1745SOL    HW1 5250   2.116   1.007   4.662
 1745SOL    HW2 5251   2.047   1.155   4.665
 1746SOL     OW 5252   2.468   0.964   3.847
 1746SOL    HW1 5253   2.475   1.048   3.793
 1746SOL    HW2 5254   2.514   0.977   3.935
 1747SOL     OW 5255   1.984   0.643   4.287
 1747SOL    HW1 5256   1.939   0.555   4.304
 1747SOL    HW2 5257   1.983   0.697   4.371
 1748SOL     OW 5258   3.704   1.767   4.083
 1748SOL    HW1 5259   3.758   1.738   4.163
 1748SOL    HW2 5260   3.734   1.857   4.054
 1749SOL     OW 5261   1.889   1.596   3.841
 1749SOL    HW1 5262   1.870   1.500   3.862
 1749SOL    HW2 5263   1.856   1.654   3.916
 1750SOL     OW 5264   3.551   0.922   4.336
 1750SOL    HW1 5265   3.646   0.893   4.344
 1750SOL    HW2 5266   3.543   0.987   4.261
 1751SOL     OW 5267   3.503   1.108   4.156
 1751SOL    HW1 5268   3.589   1.110   4.104
 1751SOL    HW2 5269   3.517   1.155   4.244
 1752SOL     OW 5270   2.475   1.365   4.450
 1752SOL    HW1 5271   2.426   1.278   4.459
 1752SOL    HW2 5272   2.452   1.408   4.363
 1753SOL     OW 5273   2.671   0.004   4.226
 1753SOL    HW1 5274   2.711   0.095   4.217
 1753SOL    HW2 5275   2.571   0.012   4.232
 1754SOL     OW 5276   3.387   0.999   3.914
 1754SOL    HW1 5277   3.324   0.923   3.927
 1754SOL    HW2 5278   3.435   1.017   4.000
 1755SOL     OW 5279   3.529   1.714   4.296
 1755SOL    HW1 5280   3.488   1.691   4.208
 1755SOL    HW2 5281   3.511   1.640   4.361
 1756SOL     OW 5282   2.460   0.729   3.994
 1756SOL    HW1 5283   2.484   0.798   3.926
 1756SOL    HW2 5284   2.382   0.762   4.048
 1757SOL     OW 5285   3.143   0.345   4.668
 1757SOL    HW1 5286   3.057   0.295   4.655
 1757SOL    HW2 5287   3.205   0.291   4.724
 1758SOL     OW 5288   3.438   1.662   4.031
 1758SOL    HW1 5289   3.527   1.708   4.034
 1758SOL    HW2 5290   3.417   1.638   3.936
 1759SOL     OW 5291   2.903   0.701   4.153
 1759SOL    HW1 5292   2.929   0.697   4.249
 1759SOL    HW2 5293   2.818   0.650   4.139
 1760SOL     OW 5294   1.938   0.811   4.513
 1760SOL    HW1 5295   2.037   0.799   4.522
 1760SOL    HW2 5296   1.914   0.906   4.534
 1761SOL     OW 5297   2.727   0.348   3.919
 1761SOL    HW1 5298   2.786   0.411   3.870
 1761SOL    HW2 5299   2.746   0.254   3.890
 1762SOL     OW 5300   3.224   1.144   4.269
 1762SOL    HW1 5301   3.307   1.115   4.221
 1762SOL    HW2 5302   3.175   1.211   4.213
 1763SOL     OW 5303   2.870   1.456   4.201
 1763SOL    HW1 5304   2.824   1.528   4.149
 1763SOL    HW2 5305   2.866   1.476   4.299
 1764SOL     OW 5306   2.213   1.801   4.577
 1764SOL    HW1 5307   2.263   1.715   4.583
 1764SOL    HW2 5308   2.278   1.878   4.574
 1765SOL     OW 5309   3.657   1.066   4.597
 1765SOL    HW1 5310   3.595   1.051   4.521
 1765SOL    HW2 5311   3.605   1.077   4.682
 1766SOL     OW 5312   2.183   0.943   3.966
 1766SOL    HW1 5313   2.265   0.982   3.924
 1766SOL    HW2 5314   2.156   0.861   3.917
 1767SOL     OW 5315   3.320   0.735   4.452
 1767SOL    HW1 5316   3.315   0.670   4.527
 1767SOL    HW2 5317   3.400   0.794   4.465
 1768SOL     OW 5318   2.973   1.776   3.961
 1768SOL    HW1 5319   2.913   1.714   4.011
 1768SOL    HW2 5320   3.004   1.732   3.876
 1769SOL     OW 5321   3.494   1.377   3.805
 1769SOL    HW1 5322   3.462   1.471   3.795
 1769SOL    HW2 5323   3.418   1.314   3.793
 1770SOL     OW 5324   2.326   1.743   4.047
 1770SOL    HW1 5325   2.359   1.782   4.133
 1770SOL    HW2 5326   2.402   1.736   3.982
 1771SOL     OW 5327   3.262   0.107   4.150
 1771SOL    HW1 5328   3.238   0.070   4.060
 1771SOL    HW2 5329   3.361   0.123   4.154
 1772SOL     OW 5330   2.244   0.700   4.204
 1772SOL    HW1 5331   2.289   0.610   4.201
 1772SOL    HW2 5332   2.150   0.689   4.237
 1773SOL     OW 5333   2.476   0.122   3.841
 1773SOL    HW1 5334   2.574   0.100   3.848
 1773SOL    HW2 5335   2.445   0.105   3.748
 1774SOL     OW 5336   2.401   0.064   4.236
 1774SOL    HW1 5337   2.320   0.065   4.294
 1774SOL    HW2 5338   2.404   0.147   4.181
 1775SOL     OW 5339   3.296   1.188   3.765
 1775SOL    HW1 5340   3.328   1.112   3.822
 1775SOL    HW2 5341   3.204   1.215   3.795
 1776SOL     OW 5342   2.159   0.035   3.895
 1776SOL    HW1 5343   2.208   0.119   3.874
 1776SOL    HW2 5344   2.221  -0.030   3.940
 1777SOL     OW 5345   2.797   0.236   4.204
 1777SOL    HW1 5346   2.749   0.277   4.126
 1777SOL    HW2 5347   2.896   0.234   4.185
 1778SOL     OW 5348   2.321   1.152   4.465
 1778SOL    HW1 5349   2.250   1.125   4.530
 1778SOL    HW2 5350   2.295   1.124   4.372
 1779SOL     OW 5351   3.133   1.797   4.315
 1779SOL    HW1 5352   3.177   1.861   4.251
 1779SOL    HW2 5353   3.083   1.849   4.385
 1780SOL     OW 5354   2.894   0.549   3.740
 1780SOL    HW1 5355   2.853   0.631   3.701
 1780SOL    HW2 5356   2.958   0.575   3.813
 1781SOL     OW 5357   2.728   0.454   4.366
 1781SOL    HW1 5358   2.696   0.526   4.304
 1781SOL    HW2 5359   2.752   0.373   4.313
 1782SOL     OW 5360   2.879   0.039   4.477
 1782SOL    HW1 5361   2.807   0.044   4.408
 1782SOL    HW2 5362   2.855  -0.030   4.546
 1783SOL     OW 5363   3.719   0.833   4.101
 1783SOL    HW1 5364   3.761   0.769   4.165
 1783SOL    HW2 5365   3.681   0.782   4.023
 1784SOL     OW 5366   2.350   1.385   3.898
 1784SOL    HW1 5367   2.263   1.370   3.945
 1784SOL    HW2 5368   2.333   1.411   3.803
 1785SOL     OW 5369   3.526   1.280   4.381
 1785SOL    HW1 5370   3.625   1.288   4.395
 1785SOL    HW2 5371   3.481   1.364   4.412
 1786SOL     OW 5372   3.252   0.575   3.802
 1786SOL    HW1 5373   3.198   0.554   3.883
 1786SOL    HW2 5374   3.343   0.534   3.811
 1787SOL     OW 5375   2.389   0.256   4.052
 1787SOL    HW1 5376   2.416   0.197   3.977
 1787SOL    HW2 5377   2.389   0.351   4.021
 1788SOL     OW 5378   2.567   1.050   4.092
 1788SOL    HW1 5379   2.553   1.057   4.191
 1788SOL    HW2 5380   2.651   0.999   4.074
 1789SOL     OW 5381   2.229   1.100   4.225
 1789SOL    HW1 5382   2.222   1.183   4.169
 1789SOL    HW2 5383   2.233   1.020   4.165
 1790SOL     OW 5384   2.428   0.537   4.589
 1790SOL    HW1 5385   2.440   0.603   4.515
 1790SOL    HW2 5386   2.474   0.571   4.672
 1791SOL     OW 5387   3.114   1.348   4.112
 1791SOL    HW1 5388   3.164   1.425   4.152
 1791SOL    HW2 5389   3.019   1.350   4.144
 1792SOL     OW 5390   3.444   0.639   4.196
 1792SOL    HW1 5391   3.413   0.700   4.269
 1792SOL    HW2 5392   3.494   0.691   4.127
 1793SOL     OW 5393   3.071   0.525   3.999
 1793SOL    HW1 5394   3.084   0.441   4.053
 1793SOL    HW2 5395   3.042   0.599   4.059
 1794SOL     OW 5396   2.594   0.634   4.788
 1794SOL    HW1 5397   2.653   0.608   4.712
 1794SOL    HW2 5398   2.566   0.730   4.777
 1795SOL     OW 5399   2.169   0.063   4.342
 1795SOL    HW1 5400   2.158   0.157   4.375
 1795SOL    HW2 5401   2.164   0.000   4.419
 1796SOL     OW 5402   3.484   0.367   4.098
 1796SOL    HW1 5403   3.486   0.291   4.162
 1796SOL    HW2 5404   3.436   0.444   4.138
 1797SOL     OW 5405   3.402   0.274   3.849
 1797SOL    HW1 5406   3.341   0.199   3.872
 1797SOL    HW2 5407   3.424   0.326   3.932
 1798SOL     OW 5408   3.165   0.838   3.766
 1798SOL    HW1 5409   3.199   0.745   3.781
 1798SOL    HW2 5410   3.183   0.865   3.671
 1799SOL     OW 5411   2.930   1.333   4.573
 1799SOL    HW1 5412   2.937   1.249   4.518
 1799SOL    HW2 5413   2.992   1.402   4.537
 1800SOL     OW 5414   1.870   1.326   3.924
 1800SOL    HW1 5415   1.777   1.347   3.893
 1800SOL    HW2 5416   1.880   1.227   3.937
 1801SOL     OW 5417   1.950   1.801   4.651
 1801SOL    HW1 5418   1.908   1.715   4.624
 1801SOL    HW2 5419   2.044   1.804   4.617
 1802SOL     OW 5420   2.677   0.572   4.049
 1802SOL    HW1 5421   2.684   0.483   4.003
 1802SOL    HW2 5422   2.583   0.606   4.041
 1803SOL     OW 5423   2.335   0.500   3.915
 1803SOL    HW1 5424   2.396   0.580   3.919
 1803SOL    HW2 5425   2.240   0.531   3.922
 1804SOL     OW 5426   3.164   0.855   4.033
 1804SOL    HW1 5427   3.078   0.824   4.075
 1804SOL    HW2 5428   3.160   0.841   3.934
 1805SOL     OW 5429   3.588   0.135   4.247
 1805SOL    HW1 5430   3.661   0.118   4.180
 1805SOL    HW2 5431   3.557   0.048   4.285
 1806SOL     OW 5432   3.250   1.573   4.201
 1806SOL    HW1 5433   3.317   1.585   4.127
 1806SOL    HW2 5434   3.210   1.662   4.224
 1807SOL     OW 5435   3.142   0.927   4.396
 1807SOL    HW1 5436   3.202   0.846   4.398
 1807SOL    HW2 5437   3.182   0.996   4.336
 1808SOL     OW 5438   2.534   1.616   3.878
 1808SOL    HW1 5439   2.543   1.626   3.779
 1808SOL    HW2 5440   2.494   1.527   3.899
 1809SOL     OW 5441   3.703   0.175   4.687
 1809SOL    HW1 5442   3.742   0.090   4.651
 1809SOL    HW2 5443   3.605   0.177   4.668
 1810SOL     OW 5444   2.125   0.326   4.444
 1810SOL    HW1 5445   2.046   0.377   4.410
 1810SOL    HW2 5446   2.116   0.311   4.542
 1811SOL     OW 5447   3.056   1.612   3.755
 1811SOL    HW1 5448   3.062   1.519   3.792
 1811SOL    HW2 5449   2.997   1.612   3.675
 1812SOL     OW 5450   2.778   0.910   4.015
 1812SOL    HW1 5451   2.841   0.948   3.947
 1812SOL    HW2 5452   2.818   0.827   4.054
 1813SOL     OW 5453   3.366   1.607   3.768
 1813SOL    HW1 5454   3.274   1.644   3.775
 1813SOL    HW2 5455   3.404   1.627   3.678
 1814SOL     OW 5456   2.901   1.098   4.420
 1814SOL    HW1 5457   2.831   1.051   4.474
 1814SOL    HW2 5458   2.960   1.030   4.377
 1815SOL     OW 5459   2.452   1.487   4.215
 1815SOL    HW1 5460   2.494   1.429   4.145
 1815SOL    HW2 5461   2.408   1.566   4.171
 1816SOL     OW 5462   2.117   1.348   4.014
 1816SOL    HW1 5463   2.021   1.349   3.987
 1816SOL    HW2 5464   2.129   1.401   4.098
 1817SOL     OW 5465   1.937   0.345   3.757
 1817SOL    HW1 5466   1.845   0.317   3.728
 1817SOL    HW2 5467   1.968   0.422   3.701
 1818SOL     OW 5468   1.934   0.166   4.042
 1818SOL    HW1 5469   1.917   0.249   3.988
 1818SOL    HW2 5470   2.024   0.129   4.020
 1819SOL     OW 5471   3.045   1.335   3.843
 1819SOL    HW1 5472   2.946   1.324   3.845
 1819SOL    HW2 5473   3.079   1.350   3.936
 1820SOL     OW 5474   3.087   0.325   4.173
 1820SOL    HW1 5475   3.152   0.251   4.162
 1820SOL    HW2 5476   3.107   0.375   4.257
 1821SOL     OW 5477   2.456   0.745   4.376
 1821SOL    HW1 5478   2.506   0.830   4.357
 1821SOL    HW2 5479   2.368   0.747   4.328
 1822SOL     OW 5480   2.721   1.374   3.740
 1822SOL    HW1 5481   2.675   1.389   3.828
 1822SOL    HW2 5482   2.765   1.459   3.710
 1823SOL     OW 5483   2.523   1.790   4.677
 1823SOL    HW1 5484   2.477   1.878   4.664
 1823SOL    HW2 5485   2.622   1.802   4.670
 1824SOL     OW 5486   2.721   0.956   4.585
 1824SOL    HW1 5487   2.775   0.887   4.633
 1824SOL    HW2 5488   2.689   1.025   4.651
 1825SOL     OW 5489   2.945   0.984   3.811
 1825SOL    HW1 5490   2.922   1.037   3.729
 1825SOL    HW2 5491   3.026   0.928   3.792
 1826SOL     OW 5492   3.723   1.569   4.575
 1826SOL    HW1 5493   3.652   1.557   4.505
 1826SOL    HW2 5494   3.724   1.490   4.635
 1827SOL     OW 5495   1.941   1.240   4.377
 1827SOL    HW1 5496   1.940   1.193   4.465
 1827SOL    HW2 5497   2.023   1.212   4.326
 1828SOL     OW 5498   2.290   0.424   4.244
 1828SOL    HW1 5499   2.320   0.352   4.182
 1828SOL    HW2 5500   2.251   0.384   4.327
 1829SOL     OW 5501   2.674   1.586   4.411
 1829SOL    HW1 5502   2.706   1.596   4.317
 1829SOL    HW2 5503   2.595   1.524   4.413
 1830SOL     OW 5504   2.632   1.330   4.025
 1830SOL    HW1 5505   2.586   1.243   4.042
 1830SOL    HW2 5506   2.723   1.327   4.066
 1831SOL     OW 5507   3.214   0.052   3.892
 1831SOL    HW1 5508   3.249   0.011   3.808
 1831SOL    HW2 5509   3.124   0.014   3.912
 1832SOL     OW 5510   3.162   0.453   4.415
 1832SOL    HW1 5511   3.103   0.533   4.419
 1832SOL    HW2 5512   3.177   0.418   4.508
 1833SOL     OW 5513   1.901   1.077   4.024
 1833SOL    HW1 5514   2.000   1.066   4.015
 1833SOL    HW2 5515   1.861   0.991   4.056
 1834SOL     OW 5516   2.737   1.646   4.061
 1834SOL    HW1 5517   2.660   1.611   4.007
 1834SOL    HW2 5518   2.705   1.717   4.123
 1835SOL     OW 5519   2.092   2.490   0.113
 1835SOL    HW1 5520   1.999   2.488   0.150
 1835SOL    HW2 5521   2.093   2.451   0.021
 1836SOL     OW 5522   2.087   2.137   0.996
 1836SOL    HW1 5523   2.122   2.120   1.088
 1836SOL    HW2 5524   1.999   2.092   0.984
 1837SOL     OW 5525   1.881   2.230   0.647
 1837SOL    HW1 5526   1.799   2.273   0.686
 1837SOL    HW2 5527   1.853   2.157   0.584
 1838SOL     OW 5528   2.431   3.137   1.165
 1838SOL    HW1 5529   2.338   3.130   1.128
 1838SOL    HW2 5530   2.442   3.226   1.209
 1839SOL     OW 5531   3.417   3.373   0.703
 1839SOL    HW1 5532   3.360   3.357   0.784
 1839SOL    HW2 5533   3.358   3.383   0.623
 1840SOL     OW 5534   2.997   2.565   0.717
 1840SOL    HW1 5535   3.054   2.643   0.692
 1840SOL    HW2 5536   2.937   2.591   0.793
 1841SOL     OW 5537   3.617   2.469   0.231
 1841SOL    HW1 5538   3.605   2.456   0.132
 1841SOL    HW2 5539   3.587   2.388   0.280
 1842SOL     OW 5540   2.630   3.006   1.023
 1842SOL    HW1 5541   2.552   3.023   1.083
 1842SOL    HW2 5542   2.664   3.093   0.987
 1843SOL     OW 5543   2.712   2.660   1.823
 1843SOL    HW1 5544   2.708   2.736   1.888
 1843SOL    HW2 5545   2.734   2.696   1.732
 1844SOL     OW 5546   2.547   2.874   0.665
 1844SOL    HW1 5547   2.616   2.858   0.735
 1844SOL    HW2 5548   2.474   2.931   0.703
 1845SOL     OW 5549   2.548   3.023   1.803
 1845SOL    HW1 5550   2.608   3.102   1.817
 1845SOL    HW2 5551   2.462   3.054   1.762
 1846SOL     OW 5552   2.197   3.297   1.061
 1846SOL    HW1 5553   2.119   3.266   1.008
 1846SOL    HW2 5554   2.255   3.355   1.004
 1847SOL     OW 5555   3.322   3.367   1.339
 1847SOL    HW1 5556   3.346   3.461   1.365
 1847SOL    HW2 5557   3.306   3.313   1.421
 1848SOL     OW 5558   2.300   2.254   1.499
 1848SOL    HW1 5559   2.382   2.198   1.508
 1848SOL    HW2 5560   2.219   2.196   1.503
 1849SOL     OW 5561   3.465   2.309   0.737
 1849SOL    HW1 5562   3.391   2.355   0.687
 1849SOL    HW2 5563   3.516   2.377   0.790
 1850SOL     OW 5564   2.093   3.575   0.483
 1850SOL    HW1 5565   2.127   3.652   0.537
 1850SOL    HW2 5566   2.137   3.575   0.393
 1851SOL     OW 5567   2.989   3.203   1.690
 1851SOL    HW1 5568   3.036   3.203   1.778
 1851SOL    HW2 5569   2.941   3.116   1.679
 1852SOL     OW 5570   2.092   3.296   0.538
 1852SOL    HW1 5571   2.066   3.392   0.538
 1852SOL    HW2 5572   2.021   3.242   0.583
 1853SOL     OW 5573   2.102   2.953   0.886
 1853SOL    HW1 5574   2.116   2.869   0.938
 1853SOL    HW2 5575   2.047   3.017   0.941
 1854SOL     OW 5576   2.482   3.648   1.439
 1854SOL    HW1 5577   2.390   3.631   1.474
 1854SOL    HW2 5578   2.510   3.740   1.465
 1855SOL     OW 5579   2.468   2.826   0.123
 1855SOL    HW1 5580   2.475   2.910   0.069
 1855SOL    HW2 5581   2.514   2.839   0.211
 1856SOL     OW 5582   3.456   1.976   1.480
 1856SOL    HW1 5583   3.438   2.043   1.408
 1856SOL    HW2 5584   3.453   2.022   1.569
 1857SOL     OW 5585   1.984   2.505   0.563
 1857SOL    HW1 5586   1.939   2.417   0.580
 1857SOL    HW2 5587   1.983   2.559   0.647
 1858SOL     OW 5588   3.704   3.629   0.359
 1858SOL    HW1 5589   3.758   3.600   0.439
 1858SOL    HW2 5590   3.734   3.719   0.330
 1859SOL     OW 5591   1.889   3.458   0.117
 1859SOL    HW1 5592   1.870   3.362   0.138
 1859SOL    HW2 5593   1.856   3.516   0.192
 1860SOL     OW 5594   3.551   2.784   0.612
 1860SOL    HW1 5595   3.646   2.755   0.620
 1860SOL    HW2 5596   3.543   2.849   0.537
 1861SOL     OW 5597   3.503   2.970   0.432
 1861SOL    HW1 5598   3.589   2.972   0.380
 1861SOL    HW2 5599   3.517   3.017   0.520
 1862SOL     OW 5600   1.975   2.599   1.597
 1862SOL    HW1 5601   2.063   2.586   1.642
 1862SOL    HW2 5602   1.962   2.696   1.575
 1863SOL     OW 5603   2.475   3.227   0.726
 1863SOL    HW1 5604   2.426   3.140   0.735
 1863SOL    HW2 5605   2.452   3.270   0.639
 1864SOL     OW 5606   3.155   3.090   1.423
 1864SOL    HW1 5607   3.192   3.017   1.365
 1864SOL    HW2 5608   3.207   3.095   1.508
 1865SOL     OW 5609   2.671   1.866   0.502
 1865SOL    HW1 5610   2.711   1.957   0.493
 1865SOL    HW2 5611   2.571   1.874   0.508
 1866SOL     OW 5612   2.059   2.838   1.264
 1866SOL    HW1 5613   2.148   2.793   1.250
 1866SOL    HW2 5614   1.986   2.773   1.245
 1867SOL     OW 5615   3.387   2.861   0.190
 1867SOL    HW1 5616   3.324   2.785   0.203
 1867SOL    HW2 5617   3.435   2.879   0.276
 1868SOL     OW 5618   3.049   3.654   1.616
 1868SOL    HW1 5619   3.073   3.714   1.540
 1868SOL    HW2 5620   3.056   3.559   1.586
 1869SOL     OW 5621   2.179   2.113   1.801
 1869SOL    HW1 5622   2.250   2.184   1.807
 1869SOL    HW2 5623   2.091   2.152   1.829
 1870SOL     OW 5624   3.328   3.279   0.953
 1870SOL    HW1 5625   3.269   3.285   1.033
 1870SOL    HW2 5626   3.313   3.191   0.907
 1871SOL     OW 5627   3.529   3.576   0.572
 1871SOL    HW1 5628   3.488   3.553   0.484
 1871SOL    HW2 5629   3.511   3.502   0.637
 1872SOL     OW 5630   2.460   2.591   0.270
 1872SOL    HW1 5631   2.484   2.660   0.202
 1872SOL    HW2 5632   2.382   2.624   0.324
 1873SOL     OW 5633   3.143   2.207   0.944
 1873SOL    HW1 5634   3.057   2.157   0.931
 1873SOL    HW2 5635   3.205   2.153   1.000
 1874SOL     OW 5636   3.438   3.524   0.307
 1874SOL    HW1 5637   3.527   3.570   0.310
 1874SOL    HW2 5638   3.417   3.500   0.212
 1875SOL     OW 5639   2.669   2.467   1.465
 1875SOL    HW1 5640   2.622   2.464   1.554
 1875SOL    HW2 5641   2.618   2.412   1.399
 1876SOL     OW 5642   3.256   2.331   1.674
 1876SOL    HW1 5643   3.236   2.374   1.762
 1876SOL    HW2 5644   3.334   2.269   1.683
 1877SOL     OW 5645   2.835   2.752   1.572
 1877SOL    HW1 5646   2.881   2.668   1.543
 1877SOL    HW2 5647   2.779   2.786   1.497
 1878SOL     OW 5648   2.853   2.272   1.242
 1878SOL    HW1 5649   2.776   2.306   1.296
 1878SOL    HW2 5650   2.819   2.221   1.163
 1879SOL     OW 5651   2.903   2.563   0.429
 1879SOL    HW1 5652   2.929   2.559   0.525
 1879SOL    HW2 5653   2.818   2.512   0.415
 1880SOL     OW 5654   1.938   2.673   0.789
 1880SOL    HW1 5655   2.037   2.661   0.798
 1880SOL    HW2 5656   1.914   2.768   0.810
 1881SOL     OW 5657   1.992   3.683   1.571
 1881SOL    HW1 5658   1.982   3.668   1.670
 1881SOL    HW2 5659   1.906   3.719   1.535
 1882SOL     OW 5660   2.727   2.210   0.195
 1882SOL    HW1 5661   2.786   2.273   0.146
 1882SOL    HW2 5662   2.746   2.116   0.166
 1883SOL     OW 5663   3.581   2.447   1.831
 1883SOL    HW1 5664   3.555   2.536   1.795
 1883SOL    HW2 5665   3.579   2.379   1.758
 1884SOL     OW 5666   3.224   3.006   0.545
 1884SOL    HW1 5667   3.307   2.977   0.497
 1884SOL    HW2 5668   3.175   3.073   0.489
 1885SOL     OW 5669   2.412   2.058   0.885
 1885SOL    HW1 5670   2.407   2.053   0.985
 1885SOL    HW2 5671   2.414   2.154   0.856
 1886SOL     OW 5672   2.870   3.318   0.477
 1886SOL    HW1 5673   2.824   3.390   0.425
 1886SOL    HW2 5674   2.866   3.338   0.575
 1887SOL     OW 5675   2.213   3.663   0.853
 1887SOL    HW1 5676   2.263   3.577   0.859
 1887SOL    HW2 5677   2.278   3.740   0.850
 1888SOL     OW 5678   3.657   2.928   0.873
 1888SOL    HW1 5679   3.595   2.913   0.797
 1888SOL    HW2 5680   3.605   2.939   0.958
 1889SOL     OW 5681   3.089   3.412   1.506
 1889SOL    HW1 5682   3.095   3.335   1.570
 1889SOL    HW2 5683   3.037   3.386   1.426
 1890SOL     OW 5684   2.183   2.805   0.242
 1890SOL    HW1 5685   2.265   2.844   0.200
 1890SOL    HW2 5686   2.156   2.723   0.193
 1891SOL     OW 5687   3.320   2.597   0.728
 1891SOL    HW1 5688   3.315   2.532   0.803
 1891SOL    HW2 5689   3.400   2.656   0.741
 1892SOL     OW 5690   2.323   3.128   1.727
 1892SOL    HW1 5691   2.273   3.129   1.641
 1892SOL    HW2 5692   2.260   3.110   1.803
 1893SOL     OW 5693   2.973   3.638   0.237
 1893SOL    HW1 5694   2.913   3.576   0.287
 1893SOL    HW2 5695   3.004   3.594   0.152
 1894SOL     OW 5696   2.064   2.147   1.498
 1894SOL    HW1 5697   1.984   2.207   1.485
 1894SOL    HW2 5698   2.054   2.098   1.584
 1895SOL     OW 5699   3.494   3.239   0.081
 1895SOL    HW1 5700   3.462   3.333   0.071
 1895SOL    HW2 5701   3.418   3.176   0.069
 1896SOL     OW 5702   2.326   3.605   0.323
 1896SOL    HW1 5703   2.359   3.644   0.409
 1896SOL    HW2 5704   2.402   3.598   0.258
 1897SOL     OW 5705   3.262   1.969   0.426
 1897SOL    HW1 5706   3.238   1.932   0.336
 1897SOL    HW2 5707   3.361   1.985   0.430
 1898SOL     OW 5708   2.111   3.647   1.241
 1898SOL    HW1 5709   2.168   3.582   1.291
 1898SOL    HW2 5710   2.095   3.614   1.148
 1899SOL     OW 5711   2.802   3.560   0.904
 1899SOL    HW1 5712   2.882   3.503   0.925
 1899SOL    HW2 5713   2.753   3.520   0.827
 1900SOL     OW 5714   2.244   2.562   0.480
 1900SOL    HW1 5715   2.289   2.472   0.477
 1900SOL    HW2 5716   2.150   2.551   0.513
 1901SOL     OW 5717   3.409   2.084   1.729
 1901SOL    HW1 5718   3.404   2.121   1.821
 1901SOL    HW2 5719   3.337   2.015   1.717
 1902SOL     OW 5720   2.643   2.126   1.749
 1902SOL    HW1 5721   2.710   2.065   1.792
 1902SOL    HW2 5722   2.570   2.145   1.814
 1903SOL     OW 5723   2.750   3.376   1.195
 1903SOL    HW1 5724   2.727   3.351   1.101
 1903SOL    HW2 5725   2.811   3.307   1.234
 1904SOL     OW 5726   3.213   2.452   1.433
 1904SOL    HW1 5727   3.241   2.409   1.518
 1904SOL    HW2 5728   3.238   2.548   1.434
 1905SOL     OW 5729   2.665   3.264   0.924
 1905SOL    HW1 5730   2.755   3.278   0.882
 1905SOL    HW2 5731   2.594   3.266   0.853
 1906SOL     OW 5732   2.784   2.365   0.899
 1906SOL    HW1 5733   2.759   2.356   0.803
 1906SOL    HW2 5734   2.832   2.283   0.930
 1907SOL     OW 5735   2.401   1.926   0.512
 1907SOL    HW1 5736   2.320   1.927   0.570
 1907SOL    HW2 5737   2.404   2.009   0.457
 1908SOL     OW 5738   3.296   3.050   0.041
 1908SOL    HW1 5739   3.328   2.974   0.098
 1908SOL    HW2 5740   3.204   3.077   0.071
 1909SOL     OW 5741   2.159   1.897   0.171
 1909SOL    HW1 5742   2.208   1.981   0.150
 1909SOL    HW2 5743   2.221   1.832   0.216
 1910SOL     OW 5744   2.797   2.098   0.480
 1910SOL    HW1 5745   2.749   2.139   0.402
 1910SOL    HW2 5746   2.896   2.096   0.461
 1911SOL     OW 5747   2.938   2.545   1.464
 1911SOL    HW1 5748   2.858   2.484   1.467
 1911SOL    HW2 5749   3.019   2.492   1.440
 1912SOL     OW 5750   3.089   3.432   0.793
 1912SOL    HW1 5751   3.110   3.506   0.728
 1912SOL    HW2 5752   3.157   3.432   0.866
 1913SOL     OW 5753   2.321   3.014   0.741
 1913SOL    HW1 5754   2.250   2.987   0.806
 1913SOL    HW2 5755   2.295   2.986   0.648
 1914SOL     OW 5756   3.133   3.659   0.591
 1914SOL    HW1 5757   3.177   3.723   0.527
 1914SOL    HW2 5758   3.083   3.711   0.661
 1915SOL     OW 5759   2.894   2.411   0.016
 1915SOL    HW1 5760   2.853   2.493  -0.023
 1915SOL    HW2 5761   2.958   2.437   0.089
 1916SOL     OW 5762   1.940   2.418   1.386
 1916SOL    HW1 5763   2.032   2.417   1.345
 1916SOL    HW2 5764   1.934   2.492   1.453
 1917SOL     OW 5765   2.423   2.084   1.147
 1917SOL    HW1 5766   2.461   2.000   1.184
 1917SOL    HW2 5767   2.335   2.103   1.191
 1918SOL     OW 5768   2.728   2.316   0.642
 1918SOL    HW1 5769   2.696   2.388   0.580
 1918SOL    HW2 5770   2.752   2.235   0.589
 1919SOL     OW 5771   2.879   1.901   0.753
 1919SOL    HW1 5772   2.807   1.906   0.684
 1919SOL    HW2 5773   2.855   1.832   0.822
 1920SOL     OW 5774   3.291   3.035   0.867
 1920SOL    HW1 5775   3.236   2.951   0.860
 1920SOL    HW2 5776   3.317   3.064   0.775
 1921SOL     OW 5777   3.328   2.452   0.992
 1921SOL    HW1 5778   3.298   2.357   0.999
 1921SOL    HW2 5779   3.401   2.468   1.058
 1922SOL     OW 5780   3.719   2.695   0.377
 1922SOL    HW1 5781   3.761   2.631   0.441
 1922SOL    HW2 5782   3.681   2.644   0.299
 1923SOL     OW 5783   2.350   3.247   0.174
 1923SOL    HW1 5784   2.263   3.232   0.221
 1923SOL    HW2 5785   2.333   3.273   0.079
 1924SOL     OW 5786   3.526   3.142   0.657
 1924SOL    HW1 5787   3.625   3.150   0.671
 1924SOL    HW2 5788   3.481   3.226   0.688
 1925SOL     OW 5789   3.252   2.437   0.078
 1925SOL    HW1 5790   3.198   2.416   0.159
 1925SOL    HW2 5791   3.343   2.396   0.087
 1926SOL     OW 5792   2.389   2.118   0.328
 1926SOL    HW1 5793   2.416   2.059   0.253
 1926SOL    HW2 5794   2.389   2.213   0.297
 1927SOL     OW 5795   3.616   3.085   1.588
 1927SOL    HW1 5796   3.707   3.046   1.575
 1927SOL    HW2 5797   3.624   3.181   1.612
 1928SOL     OW 5798   2.926   3.209   1.340
 1928SOL    HW1 5799   2.846   3.186   1.395
 1928SOL    HW2 5800   3.009   3.183   1.389
 1929SOL     OW 5801   3.454   3.491   1.625
 1929SOL    HW1 5802   3.481   3.525   1.535
 1929SOL    HW2 5803   3.533   3.453   1.671
 1930SOL     OW 5804   2.973   3.057   1.100
 1930SOL    HW1 5805   2.933   3.101   1.181
 1930SOL    HW2 5806   2.932   3.094   1.017
 1931SOL     OW 5807   3.500   2.961   1.079
 1931SOL    HW1 5808   3.505   3.042   1.138
 1931SOL    HW2 5809   3.414   2.963   1.028
 1932SOL     OW 5810   2.777   1.951   1.402
 1932SOL    HW1 5811   2.802   1.931   1.307
 1932SOL    HW2 5812   2.849   2.007   1.444
 1933SOL     OW 5813   2.842   2.978   1.719
 1933SOL    HW1 5814   2.743   2.984   1.729
 1933SOL    HW2 5815   2.865   2.898   1.663
 1934SOL     OW 5816   2.567   2.912   0.368
 1934SOL    HW1 5817   2.553   2.919   0.467
 1934SOL    HW2 5818   2.651   2.861   0.350
 1935SOL     OW 5819   2.272   2.675   1.251
 1935SOL    HW1 5820   2.358   2.687   1.301
 1935SOL    HW2 5821   2.230   2.588   1.278
 1936SOL     OW 5822   3.136   2.248   1.262
 1936SOL    HW1 5823   3.157   2.322   1.326
 1936SOL    HW2 5824   3.047   2.265   1.219
 1937SOL     OW 5825   1.926   3.426   1.331
 1937SOL    HW1 5826   1.880   3.508   1.297
 1937SOL    HW2 5827   2.024   3.445   1.340
 1938SOL     OW 5828   2.229   2.962   0.501
 1938SOL    HW1 5829   2.222   3.045   0.445
 1938SOL    HW2 5830   2.233   2.882   0.441
 1939SOL     OW 5831   2.428   2.399   0.865
 1939SOL    HW1 5832   2.440   2.465   0.791
 1939SOL    HW2 5833   2.474   2.433   0.948
 1940SOL     OW 5834   3.114   3.210   0.388
 1940SOL    HW1 5835   3.164   3.287   0.428
 1940SOL    HW2 5836   3.019   3.212   0.420
 1941SOL     OW 5837   3.134   3.307   1.142
 1941SOL    HW1 5838   3.181   3.320   1.229
 1941SOL    HW2 5839   3.068   3.233   1.151
 1942SOL     OW 5840   3.444   2.501   0.472
 1942SOL    HW1 5841   3.413   2.562   0.545
 1942SOL    HW2 5842   3.494   2.553   0.403
 1943SOL     OW 5843   2.216   3.372   1.329
 1943SOL    HW1 5844   2.195   3.328   1.242
 1943SOL    HW2 5845   2.313   3.398   1.332
 1944SOL     OW 5846   2.264   2.613   1.598
 1944SOL    HW1 5847   2.332   2.668   1.551
 1944SOL    HW2 5848   2.304   2.525   1.625
 1945SOL     OW 5849   3.449   2.641   1.670
 1945SOL    HW1 5850   3.357   2.679   1.665
 1945SOL    HW2 5851   3.509   2.688   1.605
 1946SOL     OW 5852   2.875   1.967   1.770
 1946SOL    HW1 5853   2.881   2.052   1.718
 1946SOL    HW2 5854   2.907   1.891   1.713
 1947SOL     OW 5855   2.366   1.912   1.740
 1947SOL    HW1 5856   2.324   1.855   1.670
 1947SOL    HW2 5857   2.300   1.981   1.772
 1948SOL     OW 5858   2.435   2.732   1.029
 1948SOL    HW1 5859   2.479   2.821   1.020
 1948SOL    HW2 5860   2.372   2.732   1.106
 1949SOL     OW 5861   3.222   2.724   1.045
 1949SOL    HW1 5862   3.147   2.724   0.979
 1949SOL    HW2 5863   3.259   2.632   1.054
 1950SOL     OW 5864   3.071   2.387   0.275
 1950SOL    HW1 5865   3.084   2.303   0.329
 1950SOL    HW2 5866   3.042   2.461   0.335
 1951SOL     OW 5867   2.169   2.075   1.231
 1951SOL    HW1 5868   2.146   2.112   1.321
 1951SOL    HW2 5869   2.139   1.980   1.225
 1952SOL     OW 5870   1.899   3.172   1.282
 1952SOL    HW1 5871   1.952   3.123   1.350
 1952SOL    HW2 5872   1.921   3.270   1.287
 1953SOL     OW 5873   2.594   2.496   1.064
 1953SOL    HW1 5874   2.653   2.470   0.988
 1953SOL    HW2 5875   2.566   2.592   1.053
 1954SOL     OW 5876   3.590   2.797   1.854
 1954SOL    HW1 5877   3.544   2.790   1.765
 1954SOL    HW2 5878   3.528   2.841   1.920
 1955SOL     OW 5879   2.169   1.925   0.618
 1955SOL    HW1 5880   2.158   2.019   0.651
 1955SOL    HW2 5881   2.164   1.862   0.695
 1956SOL     OW 5882   3.484   2.229   0.374
 1956SOL    HW1 5883   3.486   2.153   0.438
 1956SOL    HW2 5884   3.436   2.306   0.414
 1957SOL     OW 5885   2.885   2.628   0.966
 1957SOL    HW1 5886   2.900   2.649   1.062
 1957SOL    HW2 5887   2.855   2.533   0.957
 1958SOL     OW 5888   2.842   3.435   1.700
 1958SOL    HW1 5889   2.822   3.479   1.612
 1958SOL    HW2 5890   2.881   3.344   1.684
 1959SOL     OW 5891   3.721   3.380   1.605
 1959SOL    HW1 5892   3.735   3.407   1.510
 1959SOL    HW2 5893   3.804   3.402   1.658
 1960SOL     OW 5894   2.212   2.760   1.804
 1960SOL    HW1 5895   2.288   2.804   1.852
 1960SOL    HW2 5896   2.247   2.713   1.722
 1961SOL     OW 5897   3.402   2.136   0.125
 1961SOL    HW1 5898   3.341   2.061   0.148
 1961SOL    HW2 5899   3.424   2.188   0.208
 1962SOL     OW 5900   3.165   2.700   0.042
 1962SOL    HW1 5901   3.199   2.607   0.057
 1962SOL    HW2 5902   3.183   2.727  -0.053
 1963SOL     OW 5903   2.930   3.195   0.849
 1963SOL    HW1 5904   2.937   3.111   0.794
 1963SOL    HW2 5905   2.992   3.264   0.813
 1964SOL     OW 5906   2.181   2.672   0.949
 1964SOL    HW1 5907   2.274   2.708   0.954
 1964SOL    HW2 5908   2.175   2.587   1.001
 1965SOL     OW 5909   2.201   2.371   1.006
 1965SOL    HW1 5910   2.149   2.288   0.989
 1965SOL    HW2 5911   2.278   2.376   0.942
 1966SOL     OW 5912   3.000   2.242   1.678
 1966SOL    HW1 5913   2.955   2.305   1.742
 1966SOL    HW2 5914   3.093   2.273   1.661
 1967SOL     OW 5915   3.022   2.069   1.477
 1967SOL    HW1 5916   3.022   2.133   1.554
 1967SOL    HW2 5917   3.050   2.117   1.394
 1968SOL     OW 5918   1.870   3.188   0.200
 1968SOL    HW1 5919   1.777   3.209   0.169
 1968SOL    HW2 5920   1.880   3.089   0.213
 1969SOL     OW 5921   1.950   3.663   0.927
 1969SOL    HW1 5922   1.908   3.577   0.900
 1969SOL    HW2 5923   2.044   3.666   0.893
 1970SOL     OW 5924   2.366   3.430   0.910
 1970SOL    HW1 5925   2.432   3.504   0.919
 1970SOL    HW2 5926   2.410   3.351   0.868
 1971SOL     OW 5927   2.864   2.658   1.238
 1971SOL    HW1 5928   2.905   2.626   1.324
 1971SOL    HW2 5929   2.768   2.631   1.235
 1972SOL     OW 5930   1.902   2.406   1.114
 1972SOL    HW1 5931   1.987   2.373   1.073
 1972SOL    HW2 5932   1.915   2.421   1.212
 1973SOL     OW 5933   2.051   2.382   1.722
 1973SOL    HW1 5934   2.110   2.342   1.652
 1973SOL    HW2 5935   1.993   2.453   1.681
 1974SOL     OW 5936   3.231   2.812   1.660
 1974SOL    HW1 5937   3.270   2.901   1.680
 1974SOL    HW2 5938   3.241   2.792   1.563
 1975SOL     OW 5939   2.677   2.434   0.325
 1975SOL    HW1 5940   2.684   2.345   0.279
 1975SOL    HW2 5941   2.583   2.468   0.317
 1976SOL     OW 5942   3.519   2.466   1.206
 1976SOL    HW1 5943   3.481   2.397   1.268
 1976SOL    HW2 5944   3.601   2.430   1.162
 1977SOL     OW 5945   2.114   3.426   1.744
 1977SOL    HW1 5946   2.084   3.483   1.820
 1977SOL    HW2 5947   2.107   3.329   1.770
 1978SOL     OW 5948   2.533   2.326   1.269
 1978SOL    HW1 5949   2.499   2.237   1.239
 1978SOL    HW2 5950   2.559   2.380   1.189
 1979SOL     OW 5951   2.792   3.540   1.465
 1979SOL    HW1 5952   2.768   3.522   1.370
 1979SOL    HW2 5953   2.822   3.634   1.475
 1980SOL     OW 5954   2.335   2.362   0.191
 1980SOL    HW1 5955   2.396   2.442   0.195
 1980SOL    HW2 5956   2.240   2.393   0.198
 1981SOL     OW 5957   2.021   2.999   1.466
 1981SOL    HW1 5958   2.043   2.938   1.542
 1981SOL    HW2 5959   2.031   2.950   1.380
 1982SOL     OW 5960   3.209   2.921   1.234
 1982SOL    HW1 5961   3.233   2.858   1.160
 1982SOL    HW2 5962   3.119   2.961   1.216
 1983SOL     OW 5963   3.164   2.717   0.309
 1983SOL    HW1 5964   3.078   2.686   0.351
 1983SOL    HW2 5965   3.160   2.703   0.210
 1984SOL     OW 5966   3.621   3.609   1.154
 1984SOL    HW1 5967   3.682   3.639   1.081
 1984SOL    HW2 5968   3.583   3.520   1.132
 1985SOL     OW 5969   3.114   3.593   1.128
 1985SOL    HW1 5970   3.198   3.598   1.074
 1985SOL    HW2 5971   3.091   3.497   1.146
 1986SOL     OW 5972   1.945   3.120   1.022
 1986SOL    HW1 5973   1.940   3.119   1.122
 1986SOL    HW2 5974   1.862   3.079   0.984
 1987SOL     OW 5975   2.550   3.524   1.716
 1987SOL    HW1 5976   2.494   3.605   1.725
 1987SOL    HW2 5977   2.602   3.528   1.630
 1988SOL     OW 5978   2.765   1.948   0.133
 1988SOL    HW1 5979   2.816   1.949   0.047
 1988SOL    HW2 5980   2.821   1.906   0.204
 1989SOL     OW 5981   3.588   1.997   0.523
 1989SOL    HW1 5982   3.661   1.980   0.456
 1989SOL    HW2 5983   3.557   1.910   0.561
 1990SOL     OW 5984   3.250   3.435   0.477
 1990SOL    HW1 5985   3.317   3.447   0.403
 1990SOL    HW2 5986   3.210   3.524   0.500
 1991SOL     OW 5987   1.992   3.656   1.851
 1991SOL    HW1 5988   1.951   3.582   1.904
 1991SOL    HW2 5989   2.056   3.707   1.909
 1992SOL     OW 5990   3.142   2.789   0.672
 1992SOL    HW1 5991   3.202   2.708   0.674
 1992SOL    HW2 5992   3.182   2.858   0.612
 1993SOL     OW 5993   2.692   3.135   1.422
 1993SOL    HW1 5994   2.687   3.168   1.517
 1993SOL    HW2 5995   2.606   3.154   1.376
 1994SOL     OW 5996   2.534   3.478   0.154
 1994SOL    HW1 5997   2.543   3.488   0.055
 1994SOL    HW2 5998   2.494   3.389   0.175
 1995SOL     OW 5999   3.512   3.582   1.394
 1995SOL    HW1 6000   3.565   3.592   1.310
 1995SOL    HW2 6001   3.485   3.672   1.428
 1996SOL     OW 6002   3.703   2.037   0.963
 1996SOL    HW1 6003   3.742   1.952   0.927
 1996SOL    HW2 6004   3.605   2.039   0.944
 1997SOL     OW 6005   2.125   2.188   0.720
 1997SOL    HW1 6006   2.046   2.239   0.686
 1997SOL    HW2 6007   2.116   2.173   0.818
 1998SOL     OW 6008   3.056   3.474   0.031
 1998SOL    HW1 6009   3.062   3.381   0.068
 1998SOL    HW2 6010   2.997   3.474  -0.049
 1999SOL     OW 6011   2.684   2.864   1.372
 1999SOL    HW1 6012   2.724   2.863   1.280
 1999SOL    HW2 6013   2.694   2.956   1.412
 2000SOL     OW 6014   2.778   2.772   0.291
 2000SOL    HW1 6015   2.841   2.810   0.223
 2000SOL    HW2 6016   2.818   2.689   0.330
 2001SOL     OW 6017   3.366   3.469   0.044
 2001SOL    HW1 6018   3.274   3.506   0.051
 2001SOL    HW2 6019   3.404   3.489  -0.046
 2002SOL     OW 6020   2.234   3.150   1.490
 2002SOL    HW1 6021   2.221   3.243   1.456
 2002SOL    HW2 6022   2.150   3.098   1.477
 2003SOL     OW 6023   3.476   3.154   1.289
 2003SOL    HW1 6024   3.536   3.157   1.369
 2003SOL    HW2 6025   3.401   3.218   1.302
 2004SOL     OW 6026   2.901   2.960   0.696
 2004SOL    HW1 6027   2.831   2.913   0.750
 2004SOL    HW2 6028   2.960   2.892   0.653
 2005SOL     OW 6029   2.876   2.098   0.971
 2005SOL    HW1 6030   2.868   2.062   0.878
 2005SOL    HW2 6031   2.874   2.022   1.036
 2006SOL     OW 6032   2.452   3.349   0.491
 2006SOL    HW1 6033   2.494   3.291   0.421
 2006SOL    HW2 6034   2.408   3.428   0.447
 2007SOL     OW 6035   3.571   2.247   1.381
 2007SOL    HW1 6036   3.644   2.316   1.385
 2007SOL    HW2 6037   3.599   2.172   1.322
 2008SOL     OW 6038   2.117   3.210   0.290
 2008SOL    HW1 6039   2.021   3.211   0.263
 2008SOL    HW2 6040   2.129   3.263   0.374
 2009SOL     OW 6041   1.967   2.875   1.726
 2009SOL    HW1 6042   1.890   2.842   1.780
 2009SOL    HW2 6043   2.052   2.845   1.768
 2010SOL     OW 6044   2.534   2.065   1.489
 2010SOL    HW1 6045   2.624   2.049   1.449
 2010SOL    HW2 6046   2.542   2.070   1.588
 2011SOL     OW 6047   3.302   2.718   1.398
 2011SOL    HW1 6048   3.245   2.770   1.335
 2011SOL    HW2 6049   3.398   2.730   1.374
 2012SOL     OW 6050   1.934   2.028   0.318
 2012SOL    HW1 6051   1.917   2.111   0.264
 2012SOL    HW2 6052   2.024   1.991   0.296
 2013SOL     OW 6053   3.045   3.197   0.119
 2013SOL    HW1 6054   2.946   3.186   0.121
 2013SOL    HW2 6055   3.079   3.212   0.212
 2014SOL     OW 6056   2.475   2.704   1.431
 2014SOL    HW1 6057   2.531   2.785   1.414
 2014SOL    HW2 6058   2.534   2.624   1.434
 2015SOL     OW 6059   3.355   3.629   0.959
 2015SOL    HW1 6060   3.388   3.693   0.890
 2015SOL    HW2 6061   3.421   3.623   1.034
 2016SOL     OW 6062   2.578   2.427   1.708
 2016SOL    HW1 6063   2.597   2.492   1.782
 2016SOL    HW2 6064   2.638   2.347   1.717
 2017SOL     OW 6065   3.312   3.082   1.633
 2017SOL    HW1 6066   3.303   3.072   1.732
 2017SOL    HW2 6067   3.408   3.075   1.607
 2018SOL     OW 6068   2.252   3.603   1.560
 2018SOL    HW1 6069   2.161   3.644   1.558
 2018SOL    HW2 6070   2.245   3.509   1.592
 2019SOL     OW 6071   3.536   2.745   1.254
 2019SOL    HW1 6072   3.509   2.656   1.217
 2019SOL    HW2 6073   3.537   2.813   1.181
 2020SOL     OW 6074   3.087   2.187   0.449
 2020SOL    HW1 6075   3.152   2.113   0.438
 2020SOL    HW2 6076   3.107   2.237   0.533
 2021SOL     OW 6077   2.456   2.607   0.652
 2021SOL    HW1 6078   2.506   2.692   0.633
 2021SOL    HW2 6079   2.368   2.609   0.604
 2022SOL     OW 6080   3.639   2.204   1.642
 2022SOL    HW1 6081   3.622   2.235   1.548
 2022SOL    HW2 6082   3.555   2.167   1.680
 2023SOL     OW 6083   3.592   2.796   1.517
 2023SOL    HW1 6084   3.630   2.887   1.532
 2023SOL    HW2 6085   3.584   2.779   1.418
 2024SOL     OW 6086   2.721   3.236   0.016
 2024SOL    HW1 6087   2.675   3.251   0.104
 2024SOL    HW2 6088   2.765   3.321  -0.014
 2025SOL     OW 6089   2.523   3.652   0.953
 2025SOL    HW1 6090   2.477   3.740   0.940
 2025SOL    HW2 6091   2.622   3.664   0.946
 2026SOL     OW 6092   2.721   2.818   0.861
 2026SOL    HW1 6093   2.775   2.749   0.909
 2026SOL    HW2 6094   2.689   2.887   0.927
 2027SOL     OW 6095   2.945   2.846   0.087
 2027SOL    HW1 6096   2.922   2.899   0.005
 2027SOL    HW2 6097   3.026   2.790   0.068
 2028SOL     OW 6098   3.723   3.431   0.851
 2028SOL    HW1 6099   3.652   3.419   0.781
 2028SOL    HW2 6100   3.724   3.352   0.911
 2029SOL     OW 6101   2.083   3.176   1.844
 2029SOL    HW1 6102   2.018   3.103   1.823
 2029SOL    HW2 6103   2.087   3.190   1.942
 2030SOL     OW 6104   1.941   3.102   0.653
 2030SOL    HW1 6105   1.940   3.055   0.741
 2030SOL    HW2 6106   2.023   3.074   0.602
 2031SOL     OW 6107   2.534   3.253   1.624
 2031SOL    HW1 6108   2.456   3.203   1.662
 2031SOL    HW2 6109   2.531   3.348   1.655
 2032SOL     OW 6110   3.686   2.054   1.227
 2032SOL    HW1 6111   3.682   1.964   1.271
 2032SOL    HW2 6112   3.689   2.043   1.128
 2033SOL     OW 6113   2.290   2.286   0.520
 2033SOL    HW1 6114   2.320   2.214   0.458
 2033SOL    HW2 6115   2.251   2.246   0.603
 2034SOL     OW 6116   3.567   3.349   1.104
 2034SOL    HW1 6117   3.474   3.324   1.077
 2034SOL    HW2 6118   3.593   3.299   1.186
 2035SOL     OW 6119   2.179   2.409   1.280
 2035SOL    HW1 6120   2.217   2.350   1.352
 2035SOL    HW2 6121   2.219   2.383   1.192
 2036SOL     OW 6122   2.674   3.448   0.687
 2036SOL    HW1 6123   2.706   3.458   0.593
 2036SOL    HW2 6124   2.595   3.386   0.689
 2037SOL     OW 6125   3.286   2.076   1.112
 2037SOL    HW1 6126   3.338   2.011   1.167
 2037SOL    HW2 6127   3.237   2.139   1.173
 2038SOL     OW 6128   2.863   1.896   1.154
 2038SOL    HW1 6129   2.800   1.824   1.123
 2038SOL    HW2 6130   2.956   1.860   1.154
 2039SOL     OW 6131   2.632   3.192   0.301
 2039SOL    HW1 6132   2.586   3.105   0.318
 2039SOL    HW2 6133   2.723   3.189   0.342
 2040SOL     OW 6134   2.480   3.429   1.284
 2040SOL    HW1 6135   2.475   3.511   1.341
 2040SOL    HW2 6136   2.569   3.426   1.239
 2041SOL     OW 6137   3.214   1.914   0.168
 2041SOL    HW1 6138   3.249   1.873   0.084
 2041SOL    HW2 6139   3.124   1.876   0.188
 2042SOL     OW 6140   3.162   2.315   0.691
 2042SOL    HW1 6141   3.103   2.395   0.695
 2042SOL    HW2 6142   3.177   2.280   0.784
 2043SOL     OW 6143   3.455   2.083   0.882
 2043SOL    HW1 6144   3.371   2.082   0.936
 2043SOL    HW2 6145   3.457   2.166   0.826
 2044SOL     OW 6146   1.901   2.939   0.300
 2044SOL    HW1 6147   2.000   2.928   0.291
 2044SOL    HW2 6148   1.861   2.853   0.332
 2045SOL     OW 6149   2.737   3.508   0.337
 2045SOL    HW1 6150   2.660   3.473   0.283
 2045SOL    HW2 6151   2.705   3.579   0.399
 2046SOL     OW 6152   2.092   2.490   1.975
 2046SOL    HW1 6153   1.999   2.488   2.012
 2046SOL    HW2 6154   2.093   2.451   1.883
 2047SOL     OW 6155   2.087   2.137   2.858
 2047SOL    HW1 6156   2.122   2.120   2.950
 2047SOL    HW2 6157   1.999   2.092   2.846
 2048SOL     OW 6158   1.881   2.230   2.509
 2048SOL    HW1 6159   1.799   2.273   2.548
 2048SOL    HW2 6160   1.853   2.157   2.446
 2049SOL     OW 6161   2.431   3.137   3.027
 2049SOL    HW1 6162   2.338   3.130   2.990
 2049SOL    HW2 6163   2.442   3.226   3.071
 2050SOL     OW 6164   3.417   3.373   2.565
 2050SOL    HW1 6165   3.360   3.357   2.646
 2050SOL    HW2 6166   3.358   3.383   2.485
 2051SOL     OW 6167   2.997   2.565   2.579
 2051SOL    HW1 6168   3.054   2.643   2.554
 2051SOL    HW2 6169   2.937   2.591   2.655
 2052SOL     OW 6170   3.617   2.469   2.093
 2052SOL    HW1 6171   3.605   2.456   1.994
 2052SOL    HW2 6172   3.587   2.388   2.142
 2053SOL     OW 6173   2.630   3.006   2.885
 2053SOL    HW1 6174   2.552   3.023   2.945
 2053SOL    HW2 6175   2.664   3.093   2.849
 2054SOL     OW 6176   2.712   2.660   3.685
 2054SOL    HW1 6177   2.708   2.736   3.750
 2054SOL    HW2 6178   2.734   2.696   3.594
 2055SOL     OW 6179   2.547   2.874   2.527
 2055SOL    HW1 6180   2.616   2.858   2.597
 2055SOL    HW2 6181   2.474   2.931   2.565
 2056SOL     OW 6182   2.548   3.023   3.665
 2056SOL    HW1 6183   2.608   3.102   3.679
 2056SOL    HW2 6184   2.462   3.054   3.624
 2057SOL     OW 6185   2.197   3.297   2.923
 2057SOL    HW1 6186   2.119   3.266   2.870
 2057SOL    HW2 6187   2.255   3.355   2.866
 2058SOL     OW 6188   3.322   3.367   3.201
 2058SOL    HW1 6189   3.346   3.461   3.227
 2058SOL    HW2 6190   3.306   3.313   3.283
 2059SOL     OW 6191   2.300   2.254   3.361
 2059SOL    HW1 6192   2.382   2.198   3.370
 2059SOL    HW2 6193   2.219   2.196   3.365
 2060SOL     OW 6194   3.465   2.309   2.599
 2060SOL    HW1 6195   3.391   2.355   2.549
 2060SOL    HW2 6196   3.516   2.377   2.652
 2061SOL     OW 6197   2.093   3.575   2.345
 2061SOL    HW1 6198   2.127   3.652   2.399
 2061SOL    HW2 6199   2.137   3.575   2.255
 2062SOL     OW 6200   2.989   3.203   3.552
 2062SOL    HW1 6201   3.036   3.203   3.640
 2062SOL    HW2 6202   2.941   3.116   3.541
 2063SOL     OW 6203   2.092   3.296   2.400
 2063SOL    HW1 6204   2.066   3.392   2.400
 2063SOL    HW2 6205   2.021   3.242   2.445
 2064SOL     OW 6206   2.102   2.953   2.748
 2064SOL    HW1 6207   2.116   2.869   2.800
 2064SOL    HW2 6208   2.047   3.017   2.803
 2065SOL     OW 6209   2.482   3.648   3.301
 2065SOL    HW1 6210   2.390   3.631   3.336
 2065SOL    HW2 6211   2.510   3.740   3.327
 2066SOL     OW 6212   2.468   2.826   1.985
 2066SOL    HW1 6213   2.475   2.910   1.931
 2066SOL    HW2 6214   2.514   2.839   2.073
 2067SOL     OW 6215   3.456   1.976   3.342
 2067SOL    HW1 6216   3.438   2.043   3.270
 2067SOL    HW2 6217   3.453   2.022   3.431
 2068SOL     OW 6218   3.704   3.629   2.221
 2068SOL    HW1 6219   3.758   3.600   2.301
 2068SOL    HW2 6220   3.734   3.719   2.192
 2069SOL     OW 6221   1.889   3.458   1.979
 2069SOL    HW1 6222   1.870   3.362   2.000
 2069SOL    HW2 6223   1.856   3.516   2.054
 2070SOL     OW 6224   3.551   2.784   2.474
 2070SOL    HW1 6225   3.646   2.755   2.482
 2070SOL    HW2 6226   3.543   2.849   2.399
 2071SOL     OW 6227   3.503   2.970   2.294
 2071SOL    HW1 6228   3.589   2.972   2.242
 2071SOL    HW2 6229   3.517   3.017   2.382
 2072SOL     OW 6230   1.975   2.599   3.459
 2072SOL    HW1 6231   2.063   2.586   3.504
 2072SOL    HW2 6232   1.962   2.696   3.437
 2073SOL     OW 6233   2.475   3.227   2.588
 2073SOL    HW1 6234   2.426   3.140   2.597
 2073SOL    HW2 6235   2.452   3.270   2.501
 2074SOL     OW 6236   3.155   3.090   3.285
 2074SOL    HW1 6237   3.192   3.017   3.227
 2074SOL    HW2 6238   3.207   3.095   3.370
 2075SOL     OW 6239   2.671   1.866   2.364
 2075SOL    HW1 6240   2.711   1.957   2.355
 2075SOL    HW2 6241   2.571   1.874   2.370
 2076SOL     OW 6242   2.059   2.838   3.126
 2076SOL    HW1 6243   2.148   2.793   3.112
 2076SOL    HW2 6244   1.986   2.773   3.107
 2077SOL     OW 6245   3.387   2.861   2.052
 2077SOL    HW1 6246   3.324   2.785   2.065
 2077SOL    HW2 6247   3.435   2.879   2.138
 2078SOL     OW 6248   3.049   3.654   3.478
 2078SOL    HW1 6249   3.073   3.714   3.402
 2078SOL    HW2 6250   3.056   3.559   3.448
 2079SOL     OW 6251   2.179   2.113   3.663
 2079SOL    HW1 6252   2.250   2.184   3.669
 2079SOL    HW2 6253   2.091   2.152   3.691
 2080SOL     OW 6254   3.328   3.279   2.815
 2080SOL    HW1 6255   3.269   3.285   2.895
 2080SOL    HW2 6256   3.313   3.191   2.769
 2081SOL     OW 6257   3.529   3.576   2.434
 2081SOL    HW1 6258   3.488   3.553   2.346
 2081SOL    HW2 6259   3.511   3.502   2.499
 2082SOL     OW 6260   2.460   2.591   2.132
 2082SOL    HW1 6261   2.484   2.660   2.064
 2082SOL    HW2 6262   2.382   2.624   2.186
 2083SOL     OW 6263   3.143   2.207   2.806
 2083SOL    HW1 6264   3.057   2.157   2.793
 2083SOL    HW2 6265   3.205   2.153   2.862
 2084SOL     OW 6266   3.438   3.524   2.169
 2084SOL    HW1 6267   3.527   3.570   2.172
 2084SOL    HW2 6268   3.417   3.500   2.074
 2085SOL     OW 6269   2.669   2.467   3.327
 2085SOL    HW1 6270   2.622   2.464   3.416
 2085SOL    HW2 6271   2.618   2.412   3.261
 2086SOL     OW 6272   3.256   2.331   3.536
 2086SOL    HW1 6273   3.236   2.374   3.624
 2086SOL    HW2 6274   3.334   2.269   3.545
 2087SOL     OW 6275   2.835   2.752   3.434
 2087SOL    HW1 6276   2.881   2.668   3.405
 2087SOL    HW2 6277   2.779   2.786   3.359
 2088SOL     OW 6278   2.853   2.272   3.104
 2088SOL    HW1 6279   2.776   2.306   3.158
 2088SOL    HW2 6280   2.819   2.221   3.025
 2089SOL     OW 6281   2.903   2.563   2.291
 2089SOL    HW1 6282   2.929   2.559   2.387
 2089SOL    HW2 6283   2.818   2.512   2.277
 2090SOL     OW 6284   1.938   2.673   2.651
 2090SOL    HW1 6285   2.037   2.661   2.660
 2090SOL    HW2 6286   1.914   2.768   2.672
 2091SOL     OW 6287   1.992   3.683   3.433
 2091SOL    HW1 6288   1.982   3.668   3.532
 2091SOL    HW2 6289   1.906   3.719   3.397
 2092SOL     OW 6290   2.727   2.210   2.057
 2092SOL    HW1 6291   2.786   2.273   2.008
 2092SOL    HW2 6292   2.746   2.116   2.028
 2093SOL     OW 6293   3.581   2.447   3.693
 2093SOL    HW1 6294   3.555   2.536   3.657
 2093SOL    HW2 6295   3.579   2.379   3.620
 2094SOL     OW 6296   3.224   3.006   2.407
 2094SOL    HW1 6297   3.307   2.977   2.359
 2094SOL    HW2 6298   3.175   3.073   2.351
 2095SOL     OW 6299   2.412   2.058   2.747
 2095SOL    HW1 6300   2.407   2.053   2.847
 2095SOL    HW2 6301   2.414   2.154   2.718
 2096SOL     OW 6302   2.870   3.318   2.339
 2096SOL    HW1 6303   2.824   3.390   2.287
 2096SOL    HW2 6304   2.866   3.338   2.437
 2097SOL     OW 6305   2.213   3.663   2.715
 2097SOL    HW1 6306   2.263   3.577   2.721
 2097SOL    HW2 6307   2.278   3.740   2.712
 2098SOL     OW 6308   3.657   2.928   2.735
 2098SOL    HW1 6309   3.595   2.913   2.659
 2098SOL    HW2 6310   3.605   2.939   2.820
 2099SOL     OW 6311   3.089   3.412   3.368
 2099SOL    HW1 6312   3.095   3.335   3.432
 2099SOL    HW2 6313   3.037   3.386   3.288
 2100SOL     OW 6314   2.183   2.805   2.104
 2100SOL    HW1 6315   2.265   2.844   2.062
 2100SOL    HW2 6316   2.156   2.723   2.055
 2101SOL     OW 6317   3.320   2.597   2.590
 2101SOL    HW1 6318   3.315   2.532   2.665
 2101SOL    HW2 6319   3.400   2.656   2.603
 2102SOL     OW 6320   2.323   3.128   3.589
 2102SOL    HW1 6321   2.273   3.129   3.503
 2102SOL    HW2 6322   2.260   3.110   3.665
 2103SOL     OW 6323   2.973   3.638   2.099
 2103SOL    HW1 6324   2.913   3.576   2.149
 2103SOL    HW2 6325   3.004   3.594   2.014
 2104SOL     OW 6326   2.064   2.147   3.360
 2104SOL    HW1 6327   1.984   2.207   3.347
 2104SOL    HW2 6328   2.054   2.098   3.446
 2105SOL     OW 6329   3.494   3.239   1.943
 2105SOL    HW1 6330   3.462   3.333   1.933
 2105SOL    HW2 6331   3.418   3.176   1.931
 2106SOL     OW 6332   2.326   3.605   2.185
 2106SOL    HW1 6333   2.359   3.644   2.271
 2106SOL    HW2 6334   2.402   3.598   2.120
 2107SOL     OW 6335   3.262   1.969   2.288
 2107SOL    HW1 6336   3.238   1.932   2.198
 2107SOL    HW2 6337   3.361   1.985   2.292
 2108SOL     OW 6338   2.111   3.647   3.103
 2108SOL    HW1 6339   2.168   3.582   3.153
 2108SOL    HW2 6340   2.095   3.614   3.010
 2109SOL     OW 6341   2.802   3.560   2.766
 2109SOL    HW1 6342   2.882   3.503   2.787
 2109SOL    HW2 6343   2.753   3.520   2.689
 2110SOL     OW 6344   3.409   2.084   3.591
 2110SOL    HW1 6345   3.404   2.121   3.683
 2110SOL    HW2 6346   3.337   2.015   3.579
 2111SOL     OW 6347   2.476   1.984   1.979
 2111SOL    HW1 6348   2.574   1.962   1.986
 2111SOL    HW2 6349   2.445   1.967   1.886
 2112SOL     OW 6350   2.643   2.126   3.611
 2112SOL    HW1 6351   2.710   2.065   3.654
 2112SOL    HW2 6352   2.570   2.145   3.676
 2113SOL     OW 6353   2.750   3.376   3.057
 2113SOL    HW1 6354   2.727   3.351   2.963
 2113SOL    HW2 6355   2.811   3.307   3.096
 2114SOL     OW 6356   3.213   2.452   3.295
 2114SOL    HW1 6357   3.241   2.409   3.380
 2114SOL    HW2 6358   3.238   2.548   3.296
 2115SOL     OW 6359   2.665   3.264   2.786
 2115SOL    HW1 6360   2.755   3.278   2.744
 2115SOL    HW2 6361   2.594   3.266   2.715
 2116SOL     OW 6362   2.784   2.365   2.761
 2116SOL    HW1 6363   2.759   2.356   2.665
 2116SOL    HW2 6364   2.832   2.283   2.792
 2117SOL     OW 6365   2.401   1.926   2.374
 2117SOL    HW1 6366   2.320   1.927   2.432
 2117SOL    HW2 6367   2.404   2.009   2.319
 2118SOL     OW 6368   3.296   3.050   1.903
 2118SOL    HW1 6369   3.328   2.974   1.960
 2118SOL    HW2 6370   3.204   3.077   1.933
 2119SOL     OW 6371   2.159   1.897   2.033
 2119SOL    HW1 6372   2.208   1.981   2.012
 2119SOL    HW2 6373   2.221   1.832   2.078
 2120SOL     OW 6374   2.797   2.098   2.342
 2120SOL    HW1 6375   2.749   2.139   2.264
 2120SOL    HW2 6376   2.896   2.096   2.323
 2121SOL     OW 6377   2.938   2.545   3.326
 2121SOL    HW1 6378   2.858   2.484   3.329
 2121SOL    HW2 6379   3.019   2.492   3.302
 2122SOL     OW 6380   3.089   3.432   2.655
 2122SOL    HW1 6381   3.110   3.506   2.590
 2122SOL    HW2 6382   3.157   3.432   2.728
 2123SOL     OW 6383   2.321   3.014   2.603
 2123SOL    HW1 6384   2.250   2.987   2.668
 2123SOL    HW2 6385   2.295   2.986   2.510
 2124SOL     OW 6386   3.133   3.659   2.453
 2124SOL    HW1 6387   3.177   3.723   2.389
 2124SOL    HW2 6388   3.083   3.711   2.523
 2125SOL     OW 6389   2.894   2.411   1.878
 2125SOL    HW1 6390   2.853   2.493   1.839
 2125SOL    HW2 6391   2.958   2.437   1.951
 2126SOL     OW 6392   1.940   2.418   3.248
 2126SOL    HW1 6393   2.032   2.417   3.207
 2126SOL    HW2 6394   1.934   2.492   3.315
 2127SOL     OW 6395   2.423   2.084   3.009
 2127SOL    HW1 6396   2.461   2.000   3.046
 2127SOL    HW2 6397   2.335   2.103   3.053
 2128SOL     OW 6398   2.728   2.316   2.504
 2128SOL    HW1 6399   2.696   2.388   2.442
 2128SOL    HW2 6400   2.752   2.235   2.451
 2129SOL     OW 6401   2.879   1.901   2.615
 2129SOL    HW1 6402   2.807   1.906   2.546
 2129SOL    HW2 6403   2.855   1.832   2.684
 2130SOL     OW 6404   3.291   3.035   2.729
 2130SOL    HW1 6405   3.236   2.951   2.722
 2130SOL    HW2 6406   3.317   3.064   2.637
 2131SOL     OW 6407   3.328   2.452   2.854
 2131SOL    HW1 6408   3.298   2.357   2.861
 2131SOL    HW2 6409   3.401   2.468   2.920
 2132SOL     OW 6410   3.719   2.695   2.239
 2132SOL    HW1 6411   3.761   2.631   2.303
 2132SOL    HW2 6412   3.681   2.644   2.161
 2133SOL     OW 6413   2.350   3.247   2.036
 2133SOL    HW1 6414   2.263   3.232   2.083
 2133SOL    HW2 6415   2.333   3.273   1.941
 2134SOL     OW 6416   3.526   3.142   2.519
 2134SOL    HW1 6417   3.625   3.150   2.533
 2134SOL    HW2 6418   3.481   3.226   2.550
 2135SOL     OW 6419   3.252   2.437   1.940
 2135SOL    HW1 6420   3.198   2.416   2.021
 2135SOL    HW2 6421   3.343   2.396   1.949
 2136SOL     OW 6422   3.616   3.085   3.450
 2136SOL    HW1 6423   3.707   3.046   3.437
 2136SOL    HW2 6424   3.624   3.181   3.474
 2137SOL     OW 6425   2.926   3.209   3.202
 2137SOL    HW1 6426   2.846   3.186   3.257
 2137SOL    HW2 6427   3.009   3.183   3.251
 2138SOL     OW 6428   3.454   3.491   3.487
 2138SOL    HW1 6429   3.481   3.525   3.397
 2138SOL    HW2 6430   3.533   3.453   3.533
 2139SOL     OW 6431   2.973   3.057   2.962
 2139SOL    HW1 6432   2.933   3.101   3.043
 2139SOL    HW2 6433   2.932   3.094   2.879
 2140SOL     OW 6434   3.500   2.961   2.941
 2140SOL    HW1 6435   3.505   3.042   3.000
 2140SOL    HW2 6436   3.414   2.963   2.890
 2141SOL     OW 6437   2.777   1.951   3.264
 2141SOL    HW1 6438   2.802   1.931   3.169
 2141SOL    HW2 6439   2.849   2.007   3.306
 2142SOL     OW 6440   2.842   2.978   3.581
 2142SOL    HW1 6441   2.743   2.984   3.591
 2142SOL    HW2 6442   2.865   2.898   3.525
 2143SOL     OW 6443   2.567   2.912   2.230
 2143SOL    HW1 6444   2.553   2.919   2.329
 2143SOL    HW2 6445   2.651   2.861   2.212
 2144SOL     OW 6446   2.272   2.675   3.113
 2144SOL    HW1 6447   2.358   2.687   3.163
 2144SOL    HW2 6448   2.230   2.588   3.140
 2145SOL     OW 6449   3.136   2.248   3.124
 2145SOL    HW1 6450   3.157   2.322   3.188
 2145SOL    HW2 6451   3.047   2.265   3.081
 2146SOL     OW 6452   1.926   3.426   3.193
 2146SOL    HW1 6453   1.880   3.508   3.159
 2146SOL    HW2 6454   2.024   3.445   3.202
 2147SOL     OW 6455   2.229   2.962   2.363
 2147SOL    HW1 6456   2.222   3.045   2.307
 2147SOL    HW2 6457   2.233   2.882   2.303
 2148SOL     OW 6458   3.114   3.210   2.250
 2148SOL    HW1 6459   3.164   3.287   2.290
 2148SOL    HW2 6460   3.019   3.212   2.282
 2149SOL     OW 6461   3.134   3.307   3.004
 2149SOL    HW1 6462   3.181   3.320   3.091
 2149SOL    HW2 6463   3.068   3.233   3.013
 2150SOL     OW 6464   3.444   2.501   2.334
 2150SOL    HW1 6465   3.413   2.562   2.407
 2150SOL    HW2 6466   3.494   2.553   2.265
 2151SOL     OW 6467   2.216   3.372   3.191
 2151SOL    HW1 6468   2.195   3.328   3.104
 2151SOL    HW2 6469   2.313   3.398   3.194
 2152SOL     OW 6470   2.264   2.613   3.460
 2152SOL    HW1 6471   2.332   2.668   3.413
 2152SOL    HW2 6472   2.304   2.525   3.487
 2153SOL     OW 6473   3.449   2.641   3.532
 2153SOL    HW1 6474   3.357   2.679   3.527
 2153SOL    HW2 6475   3.509   2.688   3.467
 2154SOL     OW 6476   2.875   1.967   3.632
 2154SOL    HW1 6477   2.881   2.052   3.580
 2154SOL    HW2 6478   2.907   1.891   3.575
 2155SOL     OW 6479   2.366   1.912   3.602
 2155SOL    HW1 6480   2.324   1.855   3.532
 2155SOL    HW2 6481   2.300   1.981   3.634
 2156SOL     OW 6482   2.435   2.732   2.891
 2156SOL    HW1 6483   2.479   2.821   2.882
 2156SOL    HW2 6484   2.372   2.732   2.968
 2157SOL     OW 6485   3.222   2.724   2.907
 2157SOL    HW1 6486   3.147   2.724   2.841
 2157SOL    HW2 6487   3.259   2.632   2.916
 2158SOL     OW 6488   3.071   2.387   2.137
 2158SOL    HW1 6489   3.084   2.303   2.191
 2158SOL    HW2 6490   3.042   2.461   2.197
 2159SOL     OW 6491   2.169   2.075   3.093
 2159SOL    HW1 6492   2.146   2.112   3.183
 2159SOL    HW2 6493   2.139   1.980   3.087
 2160SOL     OW 6494   1.899   3.172   3.144
 2160SOL    HW1 6495   1.952   3.123   3.212
 2160SOL    HW2 6496   1.921   3.270   3.149
 2161SOL     OW 6497   2.594   2.496   2.926
 2161SOL    HW1 6498   2.653   2.470   2.850
 2161SOL    HW2 6499   2.566   2.592   2.915
 2162SOL     OW 6500   3.590   2.797   3.716
 2162SOL    HW1 6501   3.544   2.790   3.627
 2162SOL    HW2 6502   3.528   2.841   3.782
 2163SOL     OW 6503   2.169   1.925   2.480
 2163SOL    HW1 6504   2.158   2.019   2.513
 2163SOL    HW2 6505   2.164   1.862   2.557
 2164SOL     OW 6506   3.484   2.229   2.236
 2164SOL    HW1 6507   3.486   2.153   2.300
 2164SOL    HW2 6508   3.436   2.306   2.276
 2165SOL     OW 6509   2.885   2.628   2.828
 2165SOL    HW1 6510   2.900   2.649   2.924
 2165SOL    HW2 6511   2.855   2.533   2.819
 2166SOL     OW 6512   2.842   3.435   3.562
 2166SOL    HW1 6513   2.822   3.479   3.474
 2166SOL    HW2 6514   2.881   3.344   3.546
 2167SOL     OW 6515   3.721   3.380   3.467
 2167SOL    HW1 6516   3.735   3.407   3.372
 2167SOL    HW2 6517   3.804   3.402   3.520
 2168SOL     OW 6518   2.212   2.760   3.666
 2168SOL    HW1 6519   2.288   2.804   3.714
 2168SOL    HW2 6520   2.247   2.713   3.584
 2169SOL     OW 6521   3.402   2.136   1.987
 2169SOL    HW1 6522   3.341   2.061   2.010
 2169SOL    HW2 6523   3.424   2.188   2.070
 2170SOL     OW 6524   3.165   2.700   1.904
 2170SOL    HW1 6525   3.199   2.607   1.919
 2170SOL    HW2 6526   3.183   2.727   1.809
 2171SOL     OW 6527   2.930   3.195   2.711
 2171SOL    HW1 6528   2.937   3.111   2.656
 2171SOL    HW2 6529   2.992   3.264   2.675
 2172SOL     OW 6530   2.181   2.672   2.811
 2172SOL    HW1 6531   2.274   2.708   2.816
 2172SOL    HW2 6532   2.175   2.587   2.863
 2173SOL     OW 6533   3.000   2.242   3.540
 2173SOL    HW1 6534   2.955   2.305   3.604
 2173SOL    HW2 6535   3.093   2.273   3.523
 2174SOL     OW 6536   3.022   2.069   3.339
 2174SOL    HW1 6537   3.022   2.133   3.416
 2174SOL    HW2 6538   3.050   2.117   3.256
 2175SOL     OW 6539   1.870   3.188   2.062
 2175SOL    HW1 6540   1.777   3.209   2.031
 2175SOL    HW2 6541   1.880   3.089   2.075
 2176SOL     OW 6542   1.950   3.663   2.789
 2176SOL    HW1 6543   1.908   3.577   2.762
 2176SOL    HW2 6544   2.044   3.666   2.755
 2177SOL     OW 6545   2.366   3.430   2.772
 2177SOL    HW1 6546   2.432   3.504   2.781
 2177SOL    HW2 6547   2.410   3.351   2.730
 2178SOL     OW 6548   2.864   2.658   3.100
 2178SOL    HW1 6549   2.905   2.626   3.186
 2178SOL    HW2 6550   2.768   2.631   3.097
 2179SOL     OW 6551   1.902   2.406   2.976
 2179SOL    HW1 6552   1.987   2.373   2.935
 2179SOL    HW2 6553   1.915   2.421   3.074
 2180SOL     OW 6554   2.051   2.382   3.584
 2180SOL    HW1 6555   2.110   2.342   3.514
 2180SOL    HW2 6556   1.993   2.453   3.543
 2181SOL     OW 6557   3.231   2.812   3.522
 2181SOL    HW1 6558   3.270   2.901   3.542
 2181SOL    HW2 6559   3.241   2.792   3.425
 2182SOL     OW 6560   2.677   2.434   2.187
 2182SOL    HW1 6561   2.684   2.345   2.141
 2182SOL    HW2 6562   2.583   2.468   2.179
 2183SOL     OW 6563   3.519   2.466   3.068
 2183SOL    HW1 6564   3.481   2.397   3.130
 2183SOL    HW2 6565   3.601   2.430   3.024
 2184SOL     OW 6566   2.114   3.426   3.606
 2184SOL    HW1 6567   2.084   3.483   3.682
 2184SOL    HW2 6568   2.107   3.329   3.632
 2185SOL     OW 6569   2.533   2.326   3.131
 2185SOL    HW1 6570   2.499   2.237   3.101
 2185SOL    HW2 6571   2.559   2.380   3.051
 2186SOL     OW 6572   2.792   3.540   3.327
 2186SOL    HW1 6573   2.768   3.522   3.232
 2186SOL    HW2 6574   2.822   3.634   3.337
 2187SOL     OW 6575   2.021   2.999   3.328
 2187SOL    HW1 6576   2.043   2.938   3.404
 2187SOL    HW2 6577   2.031   2.950   3.242
 2188SOL     OW 6578   3.209   2.921   3.096
 2188SOL    HW1 6579   3.233   2.858   3.022
 2188SOL    HW2 6580   3.119   2.961   3.078
 2189SOL     OW 6581   3.164   2.717   2.171
 2189SOL    HW1 6582   3.078   2.686   2.213
 2189SOL    HW2 6583   3.160   2.703   2.072
 2190SOL     OW 6584   3.621   3.609   3.016
 2190SOL    HW1 6585   3.682   3.639   2.943
 2190SOL    HW2 6586   3.583   3.520   2.994
 2191SOL     OW 6587   3.114   3.593   2.990
 2191SOL    HW1 6588   3.198   3.598   2.936
 2191SOL    HW2 6589   3.091   3.497   3.008
 2192SOL     OW 6590   1.945   3.120   2.884
 2192SOL    HW1 6591   1.940   3.119   2.984
 2192SOL    HW2 6592   1.862   3.079   2.846
 2193SOL     OW 6593   2.550   3.524   3.578
 2193SOL    HW1 6594   2.494   3.605   3.587
 2193SOL    HW2 6595   2.602   3.528   3.492
 2194SOL     OW 6596   3.588   1.997   2.385
 2194SOL    HW1 6597   3.661   1.980   2.318
 2194SOL    HW2 6598   3.557   1.910   2.423
 2195SOL     OW 6599   3.250   3.435   2.339
 2195SOL    HW1 6600   3.317   3.447   2.265
 2195SOL    HW2 6601   3.210   3.524   2.362
 2196SOL     OW 6602   1.992   3.656   3.713
 2196SOL    HW1 6603   1.951   3.582   3.766
 2196SOL    HW2 6604   2.056   3.707   3.771
 2197SOL     OW 6605   3.142   2.789   2.534
 2197SOL    HW1 6606   3.202   2.708   2.536
 2197SOL    HW2 6607   3.182   2.858   2.474
 2198SOL     OW 6608   2.692   3.135   3.284
 2198SOL    HW1 6609   2.687   3.168   3.379
 2198SOL    HW2 6610   2.606   3.154   3.238
 2199SOL     OW 6611   2.534   3.478   2.016
 2199SOL    HW1 6612   2.543   3.488   1.917
 2199SOL    HW2 6613   2.494   3.389   2.037
 2200SOL     OW 6614   3.512   3.582   3.256
 2200SOL    HW1 6615   3.565   3.592   3.172
 2200SOL    HW2 6616   3.485   3.672   3.290
 2201SOL     OW 6617   3.703   2.037   2.825
 2201SOL    HW1 6618   3.742   1.952   2.789
 2201SOL    HW2 6619   3.605   2.039   2.806
 2202SOL     OW 6620   2.125   2.188   2.582
 2202SOL    HW1 6621   2.046   2.239   2.548
 2202SOL    HW2 6622   2.116   2.173   2.680
 2203SOL     OW 6623   3.056   3.474   1.893
 2203SOL    HW1 6624   3.062   3.381   1.930
 2203SOL    HW2 6625   2.997   3.474   1.813
 2204SOL     OW 6626   2.684   2.864   3.234
 2204SOL    HW1 6627   2.724   2.863   3.142
 2204SOL    HW2 6628   2.694   2.956   3.274
 2205SOL     OW 6629   2.778   2.772   2.153
 2205SOL    HW1 6630   2.841   2.810   2.085
 2205SOL    HW2 6631   2.818   2.689   2.192
 2206SOL     OW 6632   3.366   3.469   1.906
 2206SOL    HW1 6633   3.274   3.506   1.913
 2206SOL    HW2 6634   3.404   3.489   1.816
 2207SOL     OW 6635   2.234   3.150   3.352
 2207SOL    HW1 6636   2.221   3.243   3.318
 2207SOL    HW2 6637   2.150   3.098   3.339
 2208SOL     OW 6638   3.476   3.154   3.151
 2208SOL    HW1 6639   3.536   3.157   3.231
 2208SOL    HW2 6640   3.401   3.218   3.164
 2209SOL     OW 6641   2.901   2.960   2.558
 2209SOL    HW1 6642   2.831   2.913   2.612
 2209SOL    HW2 6643   2.960   2.892   2.515
 2210SOL     OW 6644   2.876   2.098   2.833
 2210SOL    HW1 6645   2.868   2.062   2.740
 2210SOL    HW2 6646   2.874   2.022   2.898
 2211SOL     OW 6647   2.452   3.349   2.353
 2211SOL    HW1 6648   2.494   3.291   2.283
 2211SOL    HW2 6649   2.408   3.428   2.309
 2212SOL     OW 6650   3.571   2.247   3.243
 2212SOL    HW1 6651   3.644   2.316   3.247
 2212SOL    HW2 6652   3.599   2.172   3.184
 2213SOL     OW 6653   2.117   3.210   2.152
 2213SOL    HW1 6654   2.021   3.211   2.125
 2213SOL    HW2 6655   2.129   3.263   2.236
 2214SOL     OW 6656   1.967   2.875   3.588
 2214SOL    HW1 6657   1.890   2.842   3.642
 2214SOL    HW2 6658   2.052   2.845   3.630
 2215SOL     OW 6659   2.534   2.065   3.351
 2215SOL    HW1 6660   2.624   2.049   3.311
 2215SOL    HW2 6661   2.542   2.070   3.450
 2216SOL     OW 6662   1.937   2.207   1.895
 2216SOL    HW1 6663   1.845   2.179   1.866
 2216SOL    HW2 6664   1.968   2.284   1.839
 2217SOL     OW 6665   3.302   2.718   3.260
 2217SOL    HW1 6666   3.245   2.770   3.197
 2217SOL    HW2 6667   3.398   2.730   3.236
 2218SOL     OW 6668   1.934   2.028   2.180
 2218SOL    HW1 6669   1.917   2.111   2.126
 2218SOL    HW2 6670   2.024   1.991   2.158
 2219SOL     OW 6671   3.045   3.197   1.981
 2219SOL    HW1 6672   2.946   3.186   1.983
 2219SOL    HW2 6673   3.079   3.212   2.074
 2220SOL     OW 6674   2.475   2.704   3.293
 2220SOL    HW1 6675   2.531   2.785   3.276
 2220SOL    HW2 6676   2.534   2.624   3.296
 2221SOL     OW 6677   3.355   3.629   2.821
 2221SOL    HW1 6678   3.388   3.693   2.752
 2221SOL    HW2 6679   3.421   3.623   2.896
 2222SOL     OW 6680   2.578   2.427   3.570
 2222SOL    HW1 6681   2.597   2.492   3.644
 2222SOL    HW2 6682   2.638   2.347   3.579
 2223SOL     OW 6683   3.312   3.082   3.495
 2223SOL    HW1 6684   3.303   3.072   3.594
 2223SOL    HW2 6685   3.408   3.075   3.469
 2224SOL     OW 6686   2.252   3.603   3.422
 2224SOL    HW1 6687   2.161   3.644   3.420
 2224SOL    HW2 6688   2.245   3.509   3.454
 2225SOL     OW 6689   3.536   2.745   3.116
 2225SOL    HW1 6690   3.509   2.656   3.079
 2225SOL    HW2 6691   3.537   2.813   3.043
 2226SOL     OW 6692   3.087   2.187   2.311
 2226SOL    HW1 6693   3.152   2.113   2.300
 2226SOL    HW2 6694   3.107   2.237   2.395
 2227SOL     OW 6695   2.456   2.607   2.514
 2227SOL    HW1 6696   2.506   2.692   2.495
 2227SOL    HW2 6697   2.368   2.609   2.466
 2228SOL     OW 6698   3.639   2.204   3.504
 2228SOL    HW1 6699   3.622   2.235   3.410
 2228SOL    HW2 6700   3.555   2.167   3.542
 2229SOL     OW 6701   3.592   2.796   3.379
 2229SOL    HW1 6702   3.630   2.887   3.394
 2229SOL    HW2 6703   3.584   2.779   3.280
 2230SOL     OW 6704   2.721   3.236   1.878
 2230SOL    HW1 6705   2.675   3.251   1.966
 2230SOL    HW2 6706   2.765   3.321   1.848
 2231SOL     OW 6707   2.523   3.652   2.815
 2231SOL    HW1 6708   2.477   3.740   2.802
 2231SOL    HW2 6709   2.622   3.664   2.808
 2232SOL     OW 6710   2.721   2.818   2.723
 2232SOL    HW1 6711   2.775   2.749   2.771
 2232SOL    HW2 6712   2.689   2.887   2.789
 2233SOL     OW 6713   2.945   2.846   1.949
 2233SOL    HW1 6714   2.922   2.899   1.867
 2233SOL    HW2 6715   3.026   2.790   1.930
 2234SOL     OW 6716   3.723   3.431   2.713
 2234SOL    HW1 6717   3.652   3.419   2.643
 2234SOL    HW2 6718   3.724   3.352   2.773
 2235SOL     OW 6719   2.083   3.176   3.706
 2235SOL    HW1 6720   2.018   3.103   3.685
 2235SOL    HW2 6721   2.087   3.190   3.804
 2236SOL     OW 6722   1.941   3.102   2.515
 2236SOL    HW1 6723   1.940   3.055   2.603
 2236SOL    HW2 6724   2.023   3.074   2.464
 2237SOL     OW 6725   2.534   3.253   3.486
 2237SOL    HW1 6726   2.456   3.203   3.524
 2237SOL    HW2 6727   2.531   3.348   3.517
 2238SOL     OW 6728   3.686   2.054   3.089
 2238SOL    HW1 6729   3.682   1.964   3.133
 2238SOL    HW2 6730   3.689   2.043   2.990
 2239SOL     OW 6731   3.567   3.349   2.966
 2239SOL    HW1 6732   3.474   3.324   2.939
 2239SOL    HW2 6733   3.593   3.299   3.048
 2240SOL     OW 6734   2.179   2.409   3.142
 2240SOL    HW1 6735   2.217   2.350   3.214
 2240SOL    HW2 6736   2.219   2.383   3.054
 2241SOL     OW 6737   2.674   3.448   2.549
 2241SOL    HW1 6738   2.706   3.458   2.455
 2241SOL    HW2 6739   2.595   3.386   2.551
 2242SOL     OW 6740   3.286   2.076   2.974
 2242SOL    HW1 6741   3.338   2.011   3.029
 2242SOL    HW2 6742   3.237   2.139   3.035
 2243SOL     OW 6743   2.863   1.896   3.016
 2243SOL    HW1 6744   2.800   1.824   2.985
 2243SOL    HW2 6745   2.956   1.860   3.016
 2244SOL     OW 6746   2.632   3.192   2.163
 2244SOL    HW1 6747   2.586   3.105   2.180
 2244SOL    HW2 6748   2.723   3.189   2.204
 2245SOL     OW 6749   2.480   3.429   3.146
 2245SOL    HW1 6750   2.475   3.511   3.203
 2245SOL    HW2 6751   2.569   3.426   3.101
 2246SOL     OW 6752   3.214   1.914   2.030
 2246SOL    HW1 6753   3.249   1.873   1.946
 2246SOL    HW2 6754   3.124   1.876   2.050
 2247SOL     OW 6755   3.162   2.315   2.553
 2247SOL    HW1 6756   3.103   2.395   2.557
 2247SOL    HW2 6757   3.177   2.280   2.646
 2248SOL     OW 6758   3.455   2.083   2.744
 2248SOL    HW1 6759   3.371   2.082   2.798
 2248SOL    HW2 6760   3.457   2.166   2.688
 2249SOL     OW 6761   1.901   2.939   2.162
 2249SOL    HW1 6762   2.000   2.928   2.153
 2249SOL    HW2 6763   1.861   2.853   2.194
 2250SOL     OW 6764   2.737   3.508   2.199
 2250SOL    HW1 6765   2.660   3.473   2.145
 2250SOL    HW2 6766   2.705   3.579   2.261
 2251SOL     OW 6767   2.092   2.490   3.837
 2251SOL    HW1 6768   1.999   2.488   3.874
 2251SOL    HW2 6769   2.093   2.451   3.745
 2252SOL     OW 6770   2.087   2.137   4.720
 2252SOL    HW1 6771   2.122   2.120   4.812
 2252SOL    HW2 6772   1.999   2.092   4.708
 2253SOL     OW 6773   1.881   2.230   4.371
 2253SOL    HW1 6774   1.799   2.273   4.410
 2253SOL    HW2 6775   1.853   2.157   4.308
 2254SOL     OW 6776   3.417   3.373   4.427
 2254SOL    HW1 6777   3.360   3.357   4.508
 2254SOL    HW2 6778   3.358   3.383   4.347
 2255SOL     OW 6779   2.997   2.565   4.441
 2255SOL    HW1 6780   3.054   2.643   4.416
 2255SOL    HW2 6781   2.937   2.591   4.517
 2256SOL     OW 6782   3.617   2.469   3.955
 2256SOL    HW1 6783   3.605   2.456   3.856
 2256SOL    HW2 6784   3.587   2.388   4.004
 2257SOL     OW 6785   2.630   3.006   4.747
 2257SOL    HW1 6786   2.552   3.023   4.807
 2257SOL    HW2 6787   2.664   3.093   4.711
 2258SOL     OW 6788   2.547   2.874   4.389
 2258SOL    HW1 6789   2.616   2.858   4.459
 2258SOL    HW2 6790   2.474   2.931   4.427
 2259SOL     OW 6791   3.465   2.309   4.461
 2259SOL    HW1 6792   3.391   2.355   4.411
 2259SOL    HW2 6793   3.516   2.377   4.514
 2260SOL     OW 6794   2.093   3.575   4.207
 2260SOL    HW1 6795   2.127   3.652   4.261
 2260SOL    HW2 6796   2.137   3.575   4.117
 2261SOL     OW 6797   2.092   3.296   4.262
 2261SOL    HW1 6798   2.066   3.392   4.262
 2261SOL    HW2 6799   2.021   3.242   4.307
 2262SOL     OW 6800   2.102   2.953   4.610
 2262SOL    HW1 6801   2.116   2.869   4.662
 2262SOL    HW2 6802   2.047   3.017   4.665
 2263SOL     OW 6803   2.468   2.826   3.847
 2263SOL    HW1 6804   2.475   2.910   3.793
 2263SOL    HW2 6805   2.514   2.839   3.935
 2264SOL     OW 6806   1.984   2.505   4.287
 2264SOL    HW1 6807   1.939   2.417   4.304
 2264SOL    HW2 6808   1.983   2.559   4.371
 2265SOL     OW 6809   3.704   3.629   4.083
 2265SOL    HW1 6810   3.758   3.600   4.163
 2265SOL    HW2 6811   3.734   3.719   4.054
 2266SOL     OW 6812   1.889   3.458   3.841
 2266SOL    HW1 6813   1.870   3.362   3.862
 2266SOL    HW2 6814   1.856   3.516   3.916
 2267SOL     OW 6815   3.551   2.784   4.336
 2267SOL    HW1 6816   3.646   2.755   4.344
 2267SOL    HW2 6817   3.543   2.849   4.261
 2268SOL     OW 6818   3.503   2.970   4.156
 2268SOL    HW1 6819   3.589   2.972   4.104
 2268SOL    HW2 6820   3.517   3.017   4.244
 2269SOL     OW 6821   2.475   3.227   4.450
 2269SOL    HW1 6822   2.426   3.140   4.459
 2269SOL    HW2 6823   2.452   3.270   4.363
 2270SOL     OW 6824   2.671   1.866   4.226
 2270SOL    HW1 6825   2.711   1.957   4.217
 2270SOL    HW2 6826   2.571   1.874   4.232
 2271SOL     OW 6827   3.387   2.861   3.914
 2271SOL    HW1 6828   3.324   2.785   3.927
 2271SOL    HW2 6829   3.435   2.879   4.000
 2272SOL     OW 6830   3.529   3.576   4.296
 2272SOL    HW1 6831   3.488   3.553   4.208
 2272SOL    HW2 6832   3.511   3.502   4.361
 2273SOL     OW 6833   2.460   2.591   3.994
 2273SOL    HW1 6834   2.484   2.660   3.926
 2273SOL    HW2 6835   2.382   2.624   4.048
 2274SOL     OW 6836   3.143   2.207   4.668
 2274SOL    HW1 6837   3.057   2.157   4.655
 2274SOL    HW2 6838   3.205   2.153   4.724
 2275SOL     OW 6839   3.438   3.524   4.031
 2275SOL    HW1 6840   3.527   3.570   4.034
 2275SOL    HW2 6841   3.417   3.500   3.936
 2276SOL     OW 6842   2.903   2.563   4.153
 2276SOL    HW1 6843   2.929   2.559   4.249
 2276SOL    HW2 6844   2.818   2.512   4.139
 2277SOL     OW 6845   1.938   2.673   4.513
 2277SOL    HW1 6846   2.037   2.661   4.522
 2277SOL    HW2 6847   1.914   2.768   4.534
 2278SOL     OW 6848   2.727   2.210   3.919
 2278SOL    HW1 6849   2.786   2.273   3.870
 2278SOL    HW2 6850   2.746   2.116   3.890
 2279SOL     OW 6851   3.224   3.006   4.269
 2279SOL    HW1 6852   3.307   2.977   4.221
 2279SOL    HW2 6853   3.175   3.073   4.213
 2280SOL     OW 6854   2.412   2.058   4.609
 2280SOL    HW1 6855   2.407   2.053   4.709
 2280SOL    HW2 6856   2.414   2.154   4.580
 2281SOL     OW 6857   2.870   3.318   4.201
 2281SOL    HW1 6858   2.824   3.390   4.149
 2281SOL    HW2 6859   2.866   3.338   4.299
 2282SOL     OW 6860   2.213   3.663   4.577
 2282SOL    HW1 6861   2.263   3.577   4.583
 2282SOL    HW2 6862   2.278   3.740   4.574
 2283SOL     OW 6863   3.657   2.928   4.597
 2283SOL    HW1 6864   3.595   2.913   4.521
 2283SOL    HW2 6865   3.605   2.939   4.682
 2284SOL     OW 6866   2.183   2.805   3.966
 2284SOL    HW1 6867   2.265   2.844   3.924
 2284SOL    HW2 6868   2.156   2.723   3.917
 2285SOL     OW 6869   3.320   2.597   4.452
 2285SOL    HW1 6870   3.315   2.532   4.527
 2285SOL    HW2 6871   3.400   2.656   4.465
 2286SOL     OW 6872   2.973   3.638   3.961
 2286SOL    HW1 6873   2.913   3.576   4.011
 2286SOL    HW2 6874   3.004   3.594   3.876
 2287SOL     OW 6875   3.494   3.239   3.805
 2287SOL    HW1 6876   3.462   3.333   3.795
 2287SOL    HW2 6877   3.418   3.176   3.793
 2288SOL     OW 6878   2.326   3.605   4.047
 2288SOL    HW1 6879   2.359   3.644   4.133
 2288SOL    HW2 6880   2.402   3.598   3.982
 2289SOL     OW 6881   3.262   1.969   4.150
 2289SOL    HW1 6882   3.238   1.932   4.060
 2289SOL    HW2 6883   3.361   1.985   4.154
 2290SOL     OW 6884   2.244   2.562   4.204
 2290SOL    HW1 6885   2.289   2.472   4.201
 2290SOL    HW2 6886   2.150   2.551   4.237
 2291SOL     OW 6887   2.476   1.984   3.841
 2291SOL    HW1 6888   2.574   1.962   3.848
 2291SOL    HW2 6889   2.445   1.967   3.748
 2292SOL     OW 6890   2.401   1.926   4.236
 2292SOL    HW1 6891   2.320   1.927   4.294
 2292SOL    HW2 6892   2.404   2.009   4.181
 2293SOL     OW 6893   3.296   3.050   3.765
 2293SOL    HW1 6894   3.328   2.974   3.822
 2293SOL    HW2 6895   3.204   3.077   3.795
 2294SOL     OW 6896   2.159   1.897   3.895
 2294SOL    HW1 6897   2.208   1.981   3.874
 2294SOL    HW2 6898   2.221   1.832   3.940
 2295SOL     OW 6899   2.797   2.098   4.204
 2295SOL    HW1 6900   2.749   2.139   4.126
 2295SOL    HW2 6901   2.896   2.096   4.185
 2296SOL     OW 6902   2.321   3.014   4.465
 2296SOL    HW1 6903   2.250   2.987   4.530
 2296SOL    HW2 6904   2.295   2.986   4.372
 2297SOL     OW 6905   3.133   3.659   4.315
 2297SOL    HW1 6906   3.177   3.723   4.251
 2297SOL    HW2 6907   3.083   3.711   4.385
 2298SOL     OW 6908   2.894   2.411   3.740
 2298SOL    HW1 6909   2.853   2.493   3.701
 2298SOL    HW2 6910   2.958   2.437   3.813
 2299SOL     OW 6911   2.728   2.316   4.366
 2299SOL    HW1 6912   2.696   2.388   4.304
 2299SOL    HW2 6913   2.752   2.235   4.313
 2300SOL     OW 6914   2.879   1.901   4.477
 2300SOL    HW1 6915   2.807   1.906   4.408
 2300SOL    HW2 6916   2.855   1.832   4.546
 2301SOL     OW 6917   3.719   2.695   4.101
 2301SOL    HW1 6918   3.761   2.631   4.165
 2301SOL    HW2 6919   3.681   2.644   4.023
 2302SOL     OW 6920   2.350   3.247   3.898
 2302SOL    HW1 6921   2.263   3.232   3.945
 2302SOL    HW2 6922   2.333   3.273   3.803
 2303SOL     OW 6923   3.526   3.142   4.381
 2303SOL    HW1 6924   3.625   3.150   4.395
 2303SOL    HW2 6925   3.481   3.226   4.412
 2304SOL     OW 6926   3.252   2.437   3.802
 2304SOL    HW1 6927   3.198   2.416   3.883
 2304SOL    HW2 6928   3.343   2.396   3.811
 2305SOL     OW 6929   2.389   2.118   4.052
 2305SOL    HW1 6930   2.416   2.059   3.977
 2305SOL    HW2 6931   2.389   2.213   4.021
 2306SOL     OW 6932   2.567   2.912   4.092
 2306SOL    HW1 6933   2.553   2.919   4.191
 2306SOL    HW2 6934   2.651   2.861   4.074
 2307SOL     OW 6935   2.229   2.962   4.225
 2307SOL    HW1 6936   2.222   3.045   4.169
 2307SOL    HW2 6937   2.233   2.882   4.165
 2308SOL     OW 6938   2.428   2.399   4.589
 2308SOL    HW1 6939   2.440   2.465   4.515
 2308SOL    HW2 6940   2.474   2.433   4.672
 2309SOL     OW 6941   3.114   3.210   4.112
 2309SOL    HW1 6942   3.164   3.287   4.152
 2309SOL    HW2 6943   3.019   3.212   4.144
 2310SOL     OW 6944   3.444   2.501   4.196
 2310SOL    HW1 6945   3.413   2.562   4.269
 2310SOL    HW2 6946   3.494   2.553   4.127
 2311SOL     OW 6947   3.071   2.387   3.999
 2311SOL    HW1 6948   3.084   2.303   4.053
 2311SOL    HW2 6949   3.042   2.461   4.059
 2312SOL     OW 6950   2.594   2.496   4.788
 2312SOL    HW1 6951   2.653   2.470   4.712
 2312SOL    HW2 6952   2.566   2.592   4.777
 2313SOL     OW 6953   2.169   1.925   4.342
 2313SOL    HW1 6954   2.158   2.019   4.375
 2313SOL    HW2 6955   2.164   1.862   4.419
 2314SOL     OW 6956   3.484   2.229   4.098
 2314SOL    HW1 6957   3.486   2.153   4.162
 2314SOL    HW2 6958   3.436   2.306   4.138
 2315SOL     OW 6959   3.402   2.136   3.849
 2315SOL    HW1 6960   3.341   2.061   3.872
 2315SOL    HW2 6961   3.424   2.188   3.932
 2316SOL     OW 6962   3.165   2.700   3.766
 2316SOL    HW1 6963   3.199   2.607   3.781
 2316SOL    HW2 6964   3.183   2.727   3.671
 2317SOL     OW 6965   2.930   3.195   4.573
 2317SOL    HW1 6966   2.937   3.111   4.518
 2317SOL    HW2 6967   2.992   3.264   4.537
 2318SOL     OW 6968   1.870   3.188   3.924
 2318SOL    HW1 6969   1.777   3.209   3.893
 2318SOL    HW2 6970   1.880   3.089   3.937
 2319SOL     OW 6971   1.950   3.663   4.651
 2319SOL    HW1 6972   1.908   3.577   4.624
 2319SOL    HW2 6973   2.044   3.666   4.617
 2320SOL     OW 6974   2.677   2.434   4.049
 2320SOL    HW1 6975   2.684   2.345   4.003
 2320SOL    HW2 6976   2.583   2.468   4.041
 2321SOL     OW 6977   2.335   2.362   3.915
 2321SOL    HW1 6978   2.396   2.442   3.919
 2321SOL    HW2 6979   2.240   2.393   3.922
 2322SOL     OW 6980   3.164   2.717   4.033
 2322SOL    HW1 6981   3.078   2.686   4.075
 2322SOL    HW2 6982   3.160   2.703   3.934
 2323SOL     OW 6983   3.588   1.997   4.247
 2323SOL    HW1 6984   3.661   1.980   4.180
 2323SOL    HW2 6985   3.557   1.910   4.285
 2324SOL     OW 6986   3.250   3.435   4.201
 2324SOL    HW1 6987   3.317   3.447   4.127
 2324SOL    HW2 6988   3.210   3.524   4.224
 2325SOL     OW 6989   3.142   2.789   4.396
 2325SOL    HW1 6990   3.202   2.708   4.398
 2325SOL    HW2 6991   3.182   2.858   4.336
 2326SOL     OW 6992   2.534   3.478   3.878
 2326SOL    HW1 6993   2.543   3.488   3.779
 2326SOL    HW2 6994   2.494   3.389   3.899
 2327SOL     OW 6995   3.703   2.037   4.687
 2327SOL    HW1 6996   3.742   1.952   4.651
 2327SOL    HW2 6997   3.605   2.039   4.668
 2328SOL     OW 6998   2.125   2.188   4.444
 2328SOL    HW1 6999   2.046   2.239   4.410
 2328SOL    HW2 7000   2.116   2.173   4.542
 2329SOL     OW 7001   3.056   3.474   3.755
 2329SOL    HW1 7002   3.062   3.381   3.792
 2329SOL    HW2 7003   2.997   3.474   3.675
 2330SOL     OW 7004   2.778   2.772   4.015
 2330SOL    HW1 7005   2.841   2.810   3.947
 2330SOL    HW2 7006   2.818   2.689   4.054
 2331SOL     OW 7007   3.366   3.469   3.768
 2331SOL    HW1 7008   3.274   3.506   3.775
 2331SOL    HW2 7009   3.404   3.489   3.678
 2332SOL     OW 7010   2.901   2.960   4.420
 2332SOL    HW1 7011   2.831   2.913   4.474
 2332SOL    HW2 7012   2.960   2.892   4.377
 2333SOL     OW 7013   2.452   3.349   4.215
 2333SOL    HW1 7014   2.494   3.291   4.145
 2333SOL    HW2 7015   2.408   3.428   4.171
 2334SOL     OW 7016   2.117   3.210   4.014
 2334SOL    HW1 7017   2.021   3.211   3.987
 2334SOL    HW2 7018   2.129   3.263   4.098
 2335SOL     OW 7019   1.937   2.207   3.757
 2335SOL    HW1 7020   1.845   2.179   3.728
 2335SOL    HW2 7021   1.968   2.284   3.701
 2336SOL     OW 7022   1.934   2.028   4.042
 2336SOL    HW1 7023   1.917   2.111   3.988
 2336SOL    HW2 7024   2.024   1.991   4.020
 2337SOL     OW 7025   3.045   3.197   3.843
 2337SOL    HW1 7026   2.946   3.186   3.845
 2337SOL    HW2 7027   3.079   3.212   3.936
 2338SOL     OW 7028   3.087   2.187   4.173
 2338SOL    HW1 7029   3.152   2.113   4.162
 2338SOL    HW2 7030   3.107   2.237   4.257
 2339SOL     OW 7031   2.456   2.607   4.376
 2339SOL    HW1 7032   2.506   2.692   4.357
 2339SOL    HW2 7033   2.368   2.609   4.328
 2340SOL     OW 7034   2.721   3.236   3.740
 2340SOL    HW1 7035   2.675   3.251   3.828
 2340SOL    HW2 7036   2.765   3.321   3.710
 2341SOL     OW 7037   2.523   3.652   4.677
 2341SOL    HW1 7038   2.477   3.740   4.664
 2341SOL    HW2 7039   2.622   3.664   4.670
 2342SOL     OW 7040   2.721   2.818   4.585
 2342SOL    HW1 7041   2.775   2.749   4.633
 2342SOL    HW2 7042   2.689   2.887   4.651
 2343SOL     OW 7043   2.945   2.846   3.811
 2343SOL    HW1 7044   2.922   2.899   3.729
 2343SOL    HW2 7045   3.026   2.790   3.792
 2344SOL     OW 7046   3.723   3.431   4.575
 2344SOL    HW1 7047   3.652   3.419   4.505
 2344SOL    HW2 7048   3.724   3.352   4.635
 2345SOL     OW 7049   1.941   3.102   4.377
 2345SOL    HW1 7050   1.940   3.055   4.465
 2345SOL    HW2 7051   2.023   3.074   4.326
 2346SOL     OW 7052   2.290   2.286   4.244
 2346SOL    HW1 7053   2.320   2.214   4.182
 2346SOL    HW2 7054   2.251   2.246   4.327
 2347SOL     OW 7055   2.674   3.448   4.411
 2347SOL    HW1 7056   2.706   3.458   4.317
 2347SOL    HW2 7057   2.595   3.386   4.413
 2348SOL     OW 7058   2.632   3.192   4.025
 2348SOL    HW1 7059   2.586   3.105   4.042
 2348SOL    HW2 7060   2.723   3.189   4.066
 2349SOL     OW 7061   3.214   1.914   3.892
 2349SOL    HW1 7062   3.249   1.873   3.808
 2349SOL    HW2 7063   3.124   1.876   3.912
 2350SOL     OW 7064   3.162   2.315   4.415
 2350SOL    HW1 7065   3.103   2.395   4.419
 2350SOL    HW2 7066   3.177   2.280   4.508
 2351SOL     OW 7067   1.901   2.939   4.024
 2351SOL    HW1 7068   2.000   2.928   4.015
 2351SOL    HW2 7069   1.861   2.853   4.056
 2352SOL     OW 7070   2.737   3.508   4.061
 2352SOL    HW1 7071   2.660   3.473   4.007
 2352SOL    HW2 7072   2.705   3.579   4.123
 2353SOL     OW 7073   2.092   4.352   0.113
 2353SOL    HW1 7074   1.999   4.350   0.150
 2353SOL    HW2 7075   2.093   4.313   0.021
 2354SOL     OW 7076   2.087   3.999   0.996
 2354SOL    HW1 7077   2.122   3.982   1.088
 2354SOL    HW2 7078   1.999   3.954   0.984
 2355SOL     OW 7079   1.881   4.092   0.647
 2355SOL    HW1 7080   1.799   4.135   0.686
 2355SOL    HW2 7081   1.853   4.019   0.584
 2356SOL     OW 7082   2.997   4.427   0.717
 2356SOL    HW1 7083   3.054   4.505   0.692
 2356SOL    HW2 7084   2.937   4.453   0.793
 2357SOL     OW 7085   3.617   4.331   0.231
 2357SOL    HW1 7086   3.605   4.318   0.132
 2357SOL    HW2 7087   3.587   4.250   0.280
 2358SOL     OW 7088   2.712   4.522   1.823
 2358SOL    HW1 7089   2.708   4.598   1.888
 2358SOL    HW2 7090   2.734   4.558   1.732
 2359SOL     OW 7091   2.547   4.736   0.665
 2359SOL    HW1 7092   2.616   4.720   0.735
 2359SOL    HW2 7093   2.474   4.793   0.703
 2360SOL     OW 7094   2.300   4.116   1.499
 2360SOL    HW1 7095   2.382   4.060   1.508
 2360SOL    HW2 7096   2.219   4.058   1.503
 2361SOL     OW 7097   3.465   4.171   0.737
 2361SOL    HW1 7098   3.391   4.217   0.687
 2361SOL    HW2 7099   3.516   4.239   0.790
 2362SOL     OW 7100   3.456   3.838   1.480
 2362SOL    HW1 7101   3.438   3.905   1.408
 2362SOL    HW2 7102   3.453   3.884   1.569
 2363SOL     OW 7103   1.984   4.367   0.563
 2363SOL    HW1 7104   1.939   4.279   0.580
 2363SOL    HW2 7105   1.983   4.421   0.647
 2364SOL     OW 7106   1.975   4.461   1.597
 2364SOL    HW1 7107   2.063   4.448   1.642
 2364SOL    HW2 7108   1.962   4.558   1.575
 2365SOL     OW 7109   2.671   3.728   0.502
 2365SOL    HW1 7110   2.711   3.819   0.493
 2365SOL    HW2 7111   2.571   3.736   0.508
 2366SOL     OW 7112   2.179   3.975   1.801
 2366SOL    HW1 7113   2.250   4.046   1.807
 2366SOL    HW2 7114   2.091   4.014   1.829
 2367SOL     OW 7115   2.460   4.453   0.270
 2367SOL    HW1 7116   2.484   4.522   0.202
 2367SOL    HW2 7117   2.382   4.486   0.324
 2368SOL     OW 7118   3.143   4.069   0.944
 2368SOL    HW1 7119   3.057   4.019   0.931
 2368SOL    HW2 7120   3.205   4.015   1.000
 2369SOL     OW 7121   2.669   4.329   1.465
 2369SOL    HW1 7122   2.622   4.326   1.554
 2369SOL    HW2 7123   2.618   4.274   1.399
 2370SOL     OW 7124   3.256   4.193   1.674
 2370SOL    HW1 7125   3.236   4.236   1.762
 2370SOL    HW2 7126   3.334   4.131   1.683
 2371SOL     OW 7127   2.853   4.134   1.242
 2371SOL    HW1 7128   2.776   4.168   1.296
 2371SOL    HW2 7129   2.819   4.083   1.163
 2372SOL     OW 7130   2.903   4.425   0.429
 2372SOL    HW1 7131   2.929   4.421   0.525
 2372SOL    HW2 7132   2.818   4.374   0.415
 2373SOL     OW 7133   1.938   4.535   0.789
 2373SOL    HW1 7134   2.037   4.523   0.798
 2373SOL    HW2 7135   1.914   4.630   0.810
 2374SOL     OW 7136   2.727   4.072   0.195
 2374SOL    HW1 7137   2.786   4.135   0.146
 2374SOL    HW2 7138   2.746   3.978   0.166
 2375SOL     OW 7139   3.581   4.309   1.831
 2375SOL    HW1 7140   3.555   4.398   1.795
 2375SOL    HW2 7141   3.579   4.241   1.758
 2376SOL     OW 7142   2.412   3.920   0.885
 2376SOL    HW1 7143   2.407   3.915   0.985
 2376SOL    HW2 7144   2.414   4.016   0.856
 2377SOL     OW 7145   3.320   4.459   0.728
 2377SOL    HW1 7146   3.315   4.394   0.803
 2377SOL    HW2 7147   3.400   4.518   0.741
 2378SOL     OW 7148   2.064   4.009   1.498
 2378SOL    HW1 7149   1.984   4.069   1.485
 2378SOL    HW2 7150   2.054   3.960   1.584
 2379SOL     OW 7151   3.262   3.831   0.426
 2379SOL    HW1 7152   3.238   3.794   0.336
 2379SOL    HW2 7153   3.361   3.847   0.430
 2380SOL     OW 7154   2.244   4.424   0.480
 2380SOL    HW1 7155   2.289   4.334   0.477
 2380SOL    HW2 7156   2.150   4.413   0.513
 2381SOL     OW 7157   3.409   3.946   1.729
 2381SOL    HW1 7158   3.404   3.983   1.821
 2381SOL    HW2 7159   3.337   3.877   1.717
 2382SOL     OW 7160   2.643   3.988   1.749
 2382SOL    HW1 7161   2.710   3.927   1.792
 2382SOL    HW2 7162   2.570   4.007   1.814
 2383SOL     OW 7163   3.213   4.314   1.433
 2383SOL    HW1 7164   3.241   4.271   1.518
 2383SOL    HW2 7165   3.238   4.410   1.434
 2384SOL     OW 7166   2.784   4.227   0.899
 2384SOL    HW1 7167   2.759   4.218   0.803
 2384SOL    HW2 7168   2.832   4.145   0.930
 2385SOL     OW 7169   2.401   3.788   0.512
 2385SOL    HW1 7170   2.320   3.789   0.570
 2385SOL    HW2 7171   2.404   3.871   0.457
 2386SOL     OW 7172   2.159   3.759   0.171
 2386SOL    HW1 7173   2.208   3.843   0.150
 2386SOL    HW2 7174   2.221   3.694   0.216
 2387SOL     OW 7175   2.797   3.960   0.480
 2387SOL    HW1 7176   2.749   4.001   0.402
 2387SOL    HW2 7177   2.896   3.958   0.461
 2388SOL     OW 7178   2.938   4.407   1.464
 2388SOL    HW1 7179   2.858   4.346   1.467
 2388SOL    HW2 7180   3.019   4.354   1.440
 2389SOL     OW 7181   2.894   4.273   0.016
 2389SOL    HW1 7182   2.853   4.355  -0.023
 2389SOL    HW2 7183   2.958   4.299   0.089
 2390SOL     OW 7184   1.940   4.280   1.386
 2390SOL    HW1 7185   2.032   4.279   1.345
 2390SOL    HW2 7186   1.934   4.354   1.453
 2391SOL     OW 7187   2.423   3.946   1.147
 2391SOL    HW1 7188   2.461   3.862   1.184
 2391SOL    HW2 7189   2.335   3.965   1.191
 2392SOL     OW 7190   2.728   4.178   0.642
 2392SOL    HW1 7191   2.696   4.250   0.580
 2392SOL    HW2 7192   2.752   4.097   0.589
 2393SOL     OW 7193   2.879   3.763   0.753
 2393SOL    HW1 7194   2.807   3.768   0.684
 2393SOL    HW2 7195   2.855   3.694   0.822
 2394SOL     OW 7196   3.328   4.314   0.992
 2394SOL    HW1 7197   3.298   4.219   0.999
 2394SOL    HW2 7198   3.401   4.330   1.058
 2395SOL     OW 7199   3.719   4.557   0.377
 2395SOL    HW1 7200   3.761   4.493   0.441
 2395SOL    HW2 7201   3.681   4.506   0.299
 2396SOL     OW 7202   3.252   4.299   0.078
 2396SOL    HW1 7203   3.198   4.278   0.159
 2396SOL    HW2 7204   3.343   4.258   0.087
 2397SOL     OW 7205   2.389   3.980   0.328
 2397SOL    HW1 7206   2.416   3.921   0.253
 2397SOL    HW2 7207   2.389   4.075   0.297
 2398SOL     OW 7208   2.777   3.813   1.402
 2398SOL    HW1 7209   2.802   3.793   1.307
 2398SOL    HW2 7210   2.849   3.869   1.444
 2399SOL     OW 7211   2.272   4.537   1.251
 2399SOL    HW1 7212   2.358   4.549   1.301
 2399SOL    HW2 7213   2.230   4.450   1.278
 2400SOL     OW 7214   3.136   4.110   1.262
 2400SOL    HW1 7215   3.157   4.184   1.326
 2400SOL    HW2 7216   3.047   4.127   1.219
 2401SOL     OW 7217   2.428   4.261   0.865
 2401SOL    HW1 7218   2.440   4.327   0.791
 2401SOL    HW2 7219   2.474   4.295   0.948
 2402SOL     OW 7220   3.444   4.363   0.472
 2402SOL    HW1 7221   3.413   4.424   0.545
 2402SOL    HW2 7222   3.494   4.415   0.403
 2403SOL     OW 7223   2.264   4.475   1.598
 2403SOL    HW1 7224   2.332   4.530   1.551
 2403SOL    HW2 7225   2.304   4.387   1.625
 2404SOL     OW 7226   3.449   4.503   1.670
 2404SOL    HW1 7227   3.357   4.541   1.665
 2404SOL    HW2 7228   3.509   4.550   1.605
 2405SOL     OW 7229   2.875   3.829   1.770
 2405SOL    HW1 7230   2.881   3.914   1.718
 2405SOL    HW2 7231   2.907   3.753   1.713
 2406SOL     OW 7232   2.366   3.774   1.740
 2406SOL    HW1 7233   2.324   3.717   1.670
 2406SOL    HW2 7234   2.300   3.843   1.772
 2407SOL     OW 7235   2.435   4.594   1.029
 2407SOL    HW1 7236   2.479   4.683   1.020
 2407SOL    HW2 7237   2.372   4.594   1.106
 2408SOL     OW 7238   3.222   4.586   1.045
 2408SOL    HW1 7239   3.147   4.586   0.979
 2408SOL    HW2 7240   3.259   4.494   1.054
 2409SOL     OW 7241   3.071   4.249   0.275
 2409SOL    HW1 7242   3.084   4.165   0.329
 2409SOL    HW2 7243   3.042   4.323   0.335
 2410SOL     OW 7244   2.169   3.937   1.231
 2410SOL    HW1 7245   2.146   3.974   1.321
 2410SOL    HW2 7246   2.139   3.842   1.225
 2411SOL     OW 7247   2.594   4.358   1.064
 2411SOL    HW1 7248   2.653   4.332   0.988
 2411SOL    HW2 7249   2.566   4.454   1.053
 2412SOL     OW 7250   3.590   4.659   1.854
 2412SOL    HW1 7251   3.544   4.652   1.765
 2412SOL    HW2 7252   3.528   4.703   1.920
 2413SOL     OW 7253   2.169   3.787   0.618
 2413SOL    HW1 7254   2.158   3.881   0.651
 2413SOL    HW2 7255   2.164   3.724   0.695
 2414SOL     OW 7256   3.484   4.091   0.374
 2414SOL    HW1 7257   3.486   4.015   0.438
 2414SOL    HW2 7258   3.436   4.168   0.414
 2415SOL     OW 7259   2.885   4.490   0.966
 2415SOL    HW1 7260   2.900   4.511   1.062
 2415SOL    HW2 7261   2.855   4.395   0.957
 2416SOL     OW 7262   3.402   3.998   0.125
 2416SOL    HW1 7263   3.341   3.923   0.148
 2416SOL    HW2 7264   3.424   4.050   0.208
 2417SOL     OW 7265   2.181   4.534   0.949
 2417SOL    HW1 7266   2.274   4.570   0.954
 2417SOL    HW2 7267   2.175   4.449   1.001
 2418SOL     OW 7268   2.201   4.233   1.006
 2418SOL    HW1 7269   2.149   4.150   0.989
 2418SOL    HW2 7270   2.278   4.238   0.942
 2419SOL     OW 7271   3.000   4.104   1.678
 2419SOL    HW1 7272   2.955   4.167   1.742
 2419SOL    HW2 7273   3.093   4.135   1.661
 2420SOL     OW 7274   3.022   3.931   1.477
 2420SOL    HW1 7275   3.022   3.995   1.554
 2420SOL    HW2 7276   3.050   3.979   1.394
 2421SOL     OW 7277   2.864   4.520   1.238
 2421SOL    HW1 7278   2.905   4.488   1.324
 2421SOL    HW2 7279   2.768   4.493   1.235
 2422SOL     OW 7280   1.902   4.268   1.114
 2422SOL    HW1 7281   1.987   4.235   1.073
 2422SOL    HW2 7282   1.915   4.283   1.212
 2423SOL     OW 7283   2.051   4.244   1.722
 2423SOL    HW1 7284   2.110   4.204   1.652
 2423SOL    HW2 7285   1.993   4.315   1.681
 2424SOL     OW 7286   2.677   4.296   0.325
 2424SOL    HW1 7287   2.684   4.207   0.279
 2424SOL    HW2 7288   2.583   4.330   0.317
 2425SOL     OW 7289   3.519   4.328   1.206
 2425SOL    HW1 7290   3.481   4.259   1.268
 2425SOL    HW2 7291   3.601   4.292   1.162
 2426SOL     OW 7292   2.533   4.188   1.269
 2426SOL    HW1 7293   2.499   4.099   1.239
 2426SOL    HW2 7294   2.559   4.242   1.189
 2427SOL     OW 7295   2.335   4.224   0.191
 2427SOL    HW1 7296   2.396   4.304   0.195
 2427SOL    HW2 7297   2.240   4.255   0.198
 2428SOL     OW 7298   2.765   3.810   0.133
 2428SOL    HW1 7299   2.816   3.811   0.047
 2428SOL    HW2 7300   2.821   3.768   0.204
 2429SOL     OW 7301   3.588   3.859   0.523
 2429SOL    HW1 7302   3.661   3.842   0.456
 2429SOL    HW2 7303   3.557   3.772   0.561
 2430SOL     OW 7304   3.142   4.651   0.672
 2430SOL    HW1 7305   3.202   4.570   0.674
 2430SOL    HW2 7306   3.182   4.720   0.612
 2431SOL     OW 7307   3.703   3.899   0.963
 2431SOL    HW1 7308   3.742   3.814   0.927
 2431SOL    HW2 7309   3.605   3.901   0.944
 2432SOL     OW 7310   2.125   4.050   0.720
 2432SOL    HW1 7311   2.046   4.101   0.686
 2432SOL    HW2 7312   2.116   4.035   0.818
 2433SOL     OW 7313   2.876   3.960   0.971
 2433SOL    HW1 7314   2.868   3.924   0.878
 2433SOL    HW2 7315   2.874   3.884   1.036
 2434SOL     OW 7316   3.571   4.109   1.381
 2434SOL    HW1 7317   3.644   4.178   1.385
 2434SOL    HW2 7318   3.599   4.034   1.322
 2435SOL     OW 7319   1.967   4.737   1.726
 2435SOL    HW1 7320   1.890   4.704   1.780
 2435SOL    HW2 7321   2.052   4.707   1.768
 2436SOL     OW 7322   2.534   3.927   1.489
 2436SOL    HW1 7323   2.624   3.911   1.449
 2436SOL    HW2 7324   2.542   3.932   1.588
 2437SOL     OW 7325   3.302   4.580   1.398
 2437SOL    HW1 7326   3.245   4.632   1.335
 2437SOL    HW2 7327   3.398   4.592   1.374
 2438SOL     OW 7328   1.934   3.890   0.318
 2438SOL    HW1 7329   1.917   3.973   0.264
 2438SOL    HW2 7330   2.024   3.853   0.296
 2439SOL     OW 7331   2.475   4.566   1.431
 2439SOL    HW1 7332   2.531   4.647   1.414
 2439SOL    HW2 7333   2.534   4.486   1.434
 2440SOL     OW 7334   2.578   4.289   1.708
 2440SOL    HW1 7335   2.597   4.354   1.782
 2440SOL    HW2 7336   2.638   4.209   1.717
 2441SOL     OW 7337   3.536   4.607   1.254
 2441SOL    HW1 7338   3.509   4.518   1.217
 2441SOL    HW2 7339   3.537   4.675   1.181
 2442SOL     OW 7340   3.087   4.049   0.449
 2442SOL    HW1 7341   3.152   3.975   0.438
 2442SOL    HW2 7342   3.107   4.099   0.533
 2443SOL     OW 7343   2.456   4.469   0.652
 2443SOL    HW1 7344   2.506   4.554   0.633
 2443SOL    HW2 7345   2.368   4.471   0.604
 2444SOL     OW 7346   3.639   4.066   1.642
 2444SOL    HW1 7347   3.622   4.097   1.548
 2444SOL    HW2 7348   3.555   4.029   1.680
 2445SOL     OW 7349   3.592   4.658   1.517
 2445SOL    HW1 7350   3.630   4.749   1.532
 2445SOL    HW2 7351   3.584   4.641   1.418
 2446SOL     OW 7352   3.686   3.916   1.227
 2446SOL    HW1 7353   3.682   3.826   1.271
 2446SOL    HW2 7354   3.689   3.905   1.128
 2447SOL     OW 7355   2.290   4.148   0.520
 2447SOL    HW1 7356   2.320   4.076   0.458
 2447SOL    HW2 7357   2.251   4.108   0.603
 2448SOL     OW 7358   2.179   4.271   1.280
 2448SOL    HW1 7359   2.217   4.212   1.352
 2448SOL    HW2 7360   2.219   4.245   1.192
 2449SOL     OW 7361   3.286   3.938   1.112
 2449SOL    HW1 7362   3.338   3.873   1.167
 2449SOL    HW2 7363   3.237   4.001   1.173
 2450SOL     OW 7364   2.863   3.758   1.154
 2450SOL    HW1 7365   2.800   3.686   1.123
 2450SOL    HW2 7366   2.956   3.722   1.154
 2451SOL     OW 7367   3.214   3.776   0.168
 2451SOL    HW1 7368   3.249   3.735   0.084
 2451SOL    HW2 7369   3.124   3.738   0.188
 2452SOL     OW 7370   3.162   4.177   0.691
 2452SOL    HW1 7371   3.103   4.257   0.695
 2452SOL    HW2 7372   3.177   4.142   0.784
 2453SOL     OW 7373   3.455   3.945   0.882
 2453SOL    HW1 7374   3.371   3.944   0.936
 2453SOL    HW2 7375   3.457   4.028   0.826
 2454SOL     OW 7376   2.092   4.352   1.975
 2454SOL    HW1 7377   1.999   4.350   2.012
 2454SOL    HW2 7378   2.093   4.313   1.883
 2455SOL     OW 7379   2.087   3.999   2.858
 2455SOL    HW1 7380   2.122   3.982   2.950
 2455SOL    HW2 7381   1.999   3.954   2.846
 2456SOL     OW 7382   1.881   4.092   2.509
 2456SOL    HW1 7383   1.799   4.135   2.548
 2456SOL    HW2 7384   1.853   4.019   2.446
 2457SOL     OW 7385   2.997   4.427   2.579
 2457SOL    HW1 7386   3.054   4.505   2.554
 2457SOL    HW2 7387   2.937   4.453   2.655
 2458SOL     OW 7388   3.617   4.331   2.093
 2458SOL    HW1 7389   3.605   4.318   1.994
 2458SOL    HW2 7390   3.587   4.250   2.142
 2459SOL     OW 7391   2.712   4.522   3.685
 2459SOL    HW1 7392   2.708   4.598   3.750
 2459SOL    HW2 7393   2.734   4.558   3.594
 2460SOL     OW 7394   2.547   4.736   2.527
 2460SOL    HW1 7395   2.616   4.720   2.597
 2460SOL    HW2 7396   2.474   4.793   2.565
 2461SOL     OW 7397   2.300   4.116   3.361
 2461SOL    HW1 7398   2.382   4.060   3.370
 2461SOL    HW2 7399   2.219   4.058   3.365
 2462SOL     OW 7400   3.465   4.171   2.599
 2462SOL    HW1 7401   3.391   4.217   2.549
 2462SOL    HW2 7402   3.516   4.239   2.652
 2463SOL     OW 7403   3.456   3.838   3.342
 2463SOL    HW1 7404   3.438   3.905   3.270
 2463SOL    HW2 7405   3.453   3.884   3.431
 2464SOL     OW 7406   1.984   4.367   2.425
 2464SOL    HW1 7407   1.939   4.279   2.442
 2464SOL    HW2 7408   1.983   4.421   2.509
 2465SOL     OW 7409   1.975   4.461   3.459
 2465SOL    HW1 7410   2.063   4.448   3.504
 2465SOL    HW2 7411   1.962   4.558   3.437
 2466SOL     OW 7412   2.671   3.728   2.364
 2466SOL    HW1 7413   2.711   3.819   2.355
 2466SOL    HW2 7414   2.571   3.736   2.370
 2467SOL     OW 7415   2.179   3.975   3.663
 2467SOL    HW1 7416   2.250   4.046   3.669
 2467SOL    HW2 7417   2.091   4.014   3.691
 2468SOL     OW 7418   2.460   4.453   2.132
 2468SOL    HW1 7419   2.484   4.522   2.064
 2468SOL    HW2 7420   2.382   4.486   2.186
 2469SOL     OW 7421   3.143   4.069   2.806
 2469SOL    HW1 7422   3.057   4.019   2.793
 2469SOL    HW2 7423   3.205   4.015   2.862
 2470SOL     OW 7424   2.669   4.329   3.327
 2470SOL    HW1 7425   2.622   4.326   3.416
 2470SOL    HW2 7426   2.618   4.274   3.261
 2471SOL     OW 7427   3.256   4.193   3.536
 2471SOL    HW1 7428   3.236   4.236   3.624
 2471SOL    HW2 7429   3.334   4.131   3.545
 2472SOL     OW 7430   2.853   4.134   3.104
 2472SOL    HW1 7431   2.776   4.168   3.158
 2472SOL    HW2 7432   2.819   4.083   3.025
 2473SOL     OW 7433   2.903   4.425   2.291
 2473SOL    HW1 7434   2.929   4.421   2.387
 2473SOL    HW2 7435   2.818   4.374   2.277
 2474SOL     OW 7436   1.938   4.535   2.651
 2474SOL    HW1 7437   2.037   4.523   2.660
 2474SOL    HW2 7438   1.914   4.630   2.672
 2475SOL     OW 7439   2.727   4.072   2.057
 2475SOL    HW1 7440   2.786   4.135   2.008
 2475SOL    HW2 7441   2.746   3.978   2.028
 2476SOL     OW 7442   3.581   4.309   3.693
 2476SOL    HW1 7443   3.555   4.398   3.657
 2476SOL    HW2 7444   3.579   4.241   3.620
 2477SOL     OW 7445   2.412   3.920   2.747
 2477SOL    HW1 7446   2.407   3.915   2.847
 2477SOL    HW2 7447   2.414   4.016   2.718
 2478SOL     OW 7448   3.320   4.459   2.590
 2478SOL    HW1 7449   3.315   4.394   2.665
 2478SOL    HW2 7450   3.400   4.518   2.603
 2479SOL     OW 7451   2.064   4.009   3.360
 2479SOL    HW1 7452   1.984   4.069   3.347
 2479SOL    HW2 7453   2.054   3.960   3.446
 2480SOL     OW 7454   3.262   3.831   2.288
 2480SOL    HW1 7455   3.238   3.794   2.198
 2480SOL    HW2 7456   3.361   3.847   2.292
 2481SOL     OW 7457   2.244   4.424   2.342
 2481SOL    HW1 7458   2.289   4.334   2.339
 2481SOL    HW2 7459   2.150   4.413   2.375
 2482SOL     OW 7460   3.409   3.946   3.591
 2482SOL    HW1 7461   3.404   3.983   3.683
 2482SOL    HW2 7462   3.337   3.877   3.579
 2483SOL     OW 7463   2.476   3.846   1.979
 2483SOL    HW1 7464   2.574   3.824   1.986
 2483SOL    HW2 7465   2.445   3.829   1.886
 2484SOL     OW 7466   2.643   3.988   3.611
 2484SOL    HW1 7467   2.710   3.927   3.654
 2484SOL    HW2 7468   2.570   4.007   3.676
 2485SOL     OW 7469   3.213   4.314   3.295
 2485SOL    HW1 7470   3.241   4.271   3.380
 2485SOL    HW2 7471   3.238   4.410   3.296
 2486SOL     OW 7472   2.784   4.227   2.761
 2486SOL    HW1 7473   2.759   4.218   2.665
 2486SOL    HW2 7474   2.832   4.145   2.792
 2487SOL     OW 7475   2.401   3.788   2.374
 2487SOL    HW1 7476   2.320   3.789   2.432
 2487SOL    HW2 7477   2.404   3.871   2.319
 2488SOL     OW 7478   2.159   3.759   2.033
 2488SOL    HW1 7479   2.208   3.843   2.012
 2488SOL    HW2 7480   2.221   3.694   2.078
 2489SOL     OW 7481   2.797   3.960   2.342
 2489SOL    HW1 7482   2.749   4.001   2.264
 2489SOL    HW2 7483   2.896   3.958   2.323
 2490SOL     OW 7484   2.938   4.407   3.326
 2490SOL    HW1 7485   2.858   4.346   3.329
 2490SOL    HW2 7486   3.019   4.354   3.302
 2491SOL     OW 7487   2.894   4.273   1.878
 2491SOL    HW1 7488   2.853   4.355   1.839
 2491SOL    HW2 7489   2.958   4.299   1.951
 2492SOL     OW 7490   1.940   4.280   3.248
 2492SOL    HW1 7491   2.032   4.279   3.207
 2492SOL    HW2 7492   1.934   4.354   3.315
 2493SOL     OW 7493   2.423   3.946   3.009
 2493SOL    HW1 7494   2.461   3.862   3.046
 2493SOL    HW2 7495   2.335   3.965   3.053
 2494SOL     OW 7496   2.728   4.178   2.504
 2494SOL    HW1 7497   2.696   4.250   2.442
 2494SOL    HW2 7498   2.752   4.097   2.451
 2495SOL     OW 7499   2.879   3.763   2.615
 2495SOL    HW1 7500   2.807   3.768   2.546
 2495SOL    HW2 7501   2.855   3.694   2.684
 2496SOL     OW 7502   3.328   4.314   2.854
 2496SOL    HW1 7503   3.298   4.219   2.861
 2496SOL    HW2 7504   3.401   4.330   2.920
 2497SOL     OW 7505   3.719   4.557   2.239
 2497SOL    HW1 7506   3.761   4.493   2.303
 2497SOL    HW2 7507   3.681   4.506   2.161
 2498SOL     OW 7508   3.252   4.299   1.940
 2498SOL    HW1 7509   3.198   4.278   2.021
 2498SOL    HW2 7510   3.343   4.258   1.949
 2499SOL     OW 7511   2.389   3.980   2.190
 2499SOL    HW1 7512   2.416   3.921   2.115
 2499SOL    HW2 7513   2.389   4.075   2.159
 2500SOL     OW 7514   2.777   3.813   3.264
 2500SOL    HW1 7515   2.802   3.793   3.169
 2500SOL    HW2 7516   2.849   3.869   3.306
 2501SOL     OW 7517   2.272   4.537   3.113
 2501SOL    HW1 7518   2.358   4.549   3.163
 2501SOL    HW2 7519   2.230   4.450   3.140
 2502SOL     OW 7520   3.136   4.110   3.124
 2502SOL    HW1 7521   3.157   4.184   3.188
 2502SOL    HW2 7522   3.047   4.127   3.081
 2503SOL     OW 7523   2.428   4.261   2.727
 2503SOL    HW1 7524   2.440   4.327   2.653
 2503SOL    HW2 7525   2.474   4.295   2.810
 2504SOL     OW 7526   3.444   4.363   2.334
 2504SOL    HW1 7527   3.413   4.424   2.407
 2504SOL    HW2 7528   3.494   4.415   2.265
 2505SOL     OW 7529   2.264   4.475   3.460
 2505SOL    HW1 7530   2.332   4.530   3.413
 2505SOL    HW2 7531   2.304   4.387   3.487
 2506SOL     OW 7532   3.449   4.503   3.532
 2506SOL    HW1 7533   3.357   4.541   3.527
 2506SOL    HW2 7534   3.509   4.550   3.467
 2507SOL     OW 7535   2.875   3.829   3.632
 2507SOL    HW1 7536   2.881   3.914   3.580
 2507SOL    HW2 7537   2.907   3.753   3.575
 2508SOL     OW 7538   2.366   3.774   3.602
 2508SOL    HW1 7539   2.324   3.717   3.532
 2508SOL    HW2 7540   2.300   3.843   3.634
 2509SOL     OW 7541   2.435   4.594   2.891
 2509SOL    HW1 7542   2.479   4.683   2.882
 2509SOL    HW2 7543   2.372   4.594   2.968
 2510SOL     OW 7544   3.222   4.586   2.907
 2510SOL    HW1 7545   3.147   4.586   2.841
 2510SOL    HW2 7546   3.259   4.494   2.916
 2511SOL     OW 7547   3.071   4.249   2.137
 2511SOL    HW1 7548   3.084   4.165   2.191
 2511SOL    HW2 7549   3.042   4.323   2.197
 2512SOL     OW 7550   2.169   3.937   3.093
 2512SOL    HW1 7551   2.146   3.974   3.183
 2512SOL    HW2 7552   2.139   3.842   3.087
 2513SOL     OW 7553   2.594   4.358   2.926
 2513SOL    HW1 7554   2.653   4.332   2.850
 2513SOL    HW2 7555   2.566   4.454   2.915
 2514SOL     OW 7556   3.590   4.659   3.716
 2514SOL    HW1 7557   3.544   4.652   3.627
 2514SOL    HW2 7558   3.528   4.703   3.782
 2515SOL     OW 7559   2.169   3.787   2.480
 2515SOL    HW1 7560   2.158   3.881   2.513
 2515SOL    HW2 7561   2.164   3.724   2.557
 2516SOL     OW 7562   3.484   4.091   2.236
 2516SOL    HW1 7563   3.486   4.015   2.300
 2516SOL    HW2 7564   3.436   4.168   2.276
 2517SOL     OW 7565   2.885   4.490   2.828
 2517SOL    HW1 7566   2.900   4.511   2.924
 2517SOL    HW2 7567   2.855   4.395   2.819
 2518SOL     OW 7568   3.402   3.998   1.987
 2518SOL    HW1 7569   3.341   3.923   2.010
 2518SOL    HW2 7570   3.424   4.050   2.070
 2519SOL     OW 7571   2.181   4.534   2.811
 2519SOL    HW1 7572   2.274   4.570   2.816
 2519SOL    HW2 7573   2.175   4.449   2.863
 2520SOL     OW 7574   2.201   4.233   2.868
 2520SOL    HW1 7575   2.149   4.150   2.851
 2520SOL    HW2 7576   2.278   4.238   2.804
 2521SOL     OW 7577   3.000   4.104   3.540
 2521SOL    HW1 7578   2.955   4.167   3.604
 2521SOL    HW2 7579   3.093   4.135   3.523
 2522SOL     OW 7580   3.022   3.931   3.339
 2522SOL    HW1 7581   3.022   3.995   3.416
 2522SOL    HW2 7582   3.050   3.979   3.256
 2523SOL     OW 7583   2.864   4.520   3.100
 2523SOL    HW1 7584   2.905   4.488   3.186
 2523SOL    HW2 7585   2.768   4.493   3.097
 2524SOL     OW 7586   1.902   4.268   2.976
 2524SOL    HW1 7587   1.987   4.235   2.935
 2524SOL    HW2 7588   1.915   4.283   3.074
 2525SOL     OW 7589   2.051   4.244   3.584
 2525SOL    HW1 7590   2.110   4.204   3.514
 2525SOL    HW2 7591   1.993   4.315   3.543
 2526SOL     OW 7592   2.677   4.296   2.187
 2526SOL    HW1 7593   2.684   4.207   2.141
 2526SOL    HW2 7594   2.583   4.330   2.179
 2527SOL     OW 7595   3.519   4.328   3.068
 2527SOL    HW1 7596   3.481   4.259   3.130
 2527SOL    HW2 7597   3.601   4.292   3.024
 2528SOL     OW 7598   2.533   4.188   3.131
 2528SOL    HW1 7599   2.499   4.099   3.101
 2528SOL    HW2 7600   2.559   4.242   3.051
 2529SOL     OW 7601   2.335   4.224   2.053
 2529SOL    HW1 7602   2.396   4.304   2.057
 2529SOL    HW2 7603   2.240   4.255   2.060
 2530SOL     OW 7604   3.588   3.859   2.385
 2530SOL    HW1 7605   3.661   3.842   2.318
 2530SOL    HW2 7606   3.557   3.772   2.423
 2531SOL     OW 7607   3.142   4.651   2.534
 2531SOL    HW1 7608   3.202   4.570   2.536
 2531SOL    HW2 7609   3.182   4.720   2.474
 2532SOL     OW 7610   3.703   3.899   2.825
 2532SOL    HW1 7611   3.742   3.814   2.789
 2532SOL    HW2 7612   3.605   3.901   2.806
 2533SOL     OW 7613   2.125   4.050   2.582
 2533SOL    HW1 7614   2.046   4.101   2.548
 2533SOL    HW2 7615   2.116   4.035   2.680
 2534SOL     OW 7616   2.778   4.634   2.153
 2534SOL    HW1 7617   2.841   4.672   2.085
 2534SOL    HW2 7618   2.818   4.551   2.192
 2535SOL     OW 7619   2.876   3.960   2.833
 2535SOL    HW1 7620   2.868   3.924   2.740
 2535SOL    HW2 7621   2.874   3.884   2.898
 2536SOL     OW 7622   3.571   4.109   3.243
 2536SOL    HW1 7623   3.644   4.178   3.247
 2536SOL    HW2 7624   3.599   4.034   3.184
 2537SOL     OW 7625   1.967   4.737   3.588
 2537SOL    HW1 7626   1.890   4.704   3.642
 2537SOL    HW2 7627   2.052   4.707   3.630
 2538SOL     OW 7628   2.534   3.927   3.351
 2538SOL    HW1 7629   2.624   3.911   3.311
 2538SOL    HW2 7630   2.542   3.932   3.450
 2539SOL     OW 7631   1.937   4.069   1.895
 2539SOL    HW1 7632   1.845   4.041   1.866
 2539SOL    HW2 7633   1.968   4.146   1.839
 2540SOL     OW 7634   3.302   4.580   3.260
 2540SOL    HW1 7635   3.245   4.632   3.197
 2540SOL    HW2 7636   3.398   4.592   3.236
 2541SOL     OW 7637   1.934   3.890   2.180
 2541SOL    HW1 7638   1.917   3.973   2.126
 2541SOL    HW2 7639   2.024   3.853   2.158
 2542SOL     OW 7640   2.475   4.566   3.293
 2542SOL    HW1 7641   2.531   4.647   3.276
 2542SOL    HW2 7642   2.534   4.486   3.296
 2543SOL     OW 7643   2.578   4.289   3.570
 2543SOL    HW1 7644   2.597   4.354   3.644
 2543SOL    HW2 7645   2.638   4.209   3.579
 2544SOL     OW 7646   3.536   4.607   3.116
 2544SOL    HW1 7647   3.509   4.518   3.079
 2544SOL    HW2 7648   3.537   4.675   3.043
 2545SOL     OW 7649   3.087   4.049   2.311
 2545SOL    HW1 7650   3.152   3.975   2.300
 2545SOL    HW2 7651   3.107   4.099   2.395
 2546SOL     OW 7652   2.456   4.469   2.514
 2546SOL    HW1 7653   2.506   4.554   2.495
 2546SOL    HW2 7654   2.368   4.471   2.466
 2547SOL     OW 7655   3.639   4.066   3.504
 2547SOL    HW1 7656   3.622   4.097   3.410
 2547SOL    HW2 7657   3.555   4.029   3.542
 2548SOL     OW 7658   3.592   4.658   3.379
 2548SOL    HW1 7659   3.630   4.749   3.394
 2548SOL    HW2 7660   3.584   4.641   3.280
 2549SOL     OW 7661   3.686   3.916   3.089
 2549SOL    HW1 7662   3.682   3.826   3.133
 2549SOL    HW2 7663   3.689   3.905   2.990
 2550SOL     OW 7664   2.290   4.148   2.382
 2550SOL    HW1 7665   2.320   4.076   2.320
 2550SOL    HW2 7666   2.251   4.108   2.465
 2551SOL     OW 7667   2.179   4.271   3.142
 2551SOL    HW1 7668   2.217   4.212   3.214
 2551SOL    HW2 7669   2.219   4.245   3.054
 2552SOL     OW 7670   3.286   3.938   2.974
 2552SOL    HW1 7671   3.338   3.873   3.029
 2552SOL    HW2 7672   3.237   4.001   3.035
 2553SOL     OW 7673   2.863   3.758   3.016
 2553SOL    HW1 7674   2.800   3.686   2.985
 2553SOL    HW2 7675   2.956   3.722   3.016
 2554SOL     OW 7676   3.214   3.776   2.030
 2554SOL    HW1 7677   3.249   3.735   1.946
 2554SOL    HW2 7678   3.124   3.738   2.050
 2555SOL     OW 7679   3.162   4.177   2.553
 2555SOL    HW1 7680   3.103   4.257   2.557
 2555SOL    HW2 7681   3.177   4.142   2.646
 2556SOL     OW 7682   3.455   3.945   2.744
 2556SOL    HW1 7683   3.371   3.944   2.798
 2556SOL    HW2 7684   3.457   4.028   2.688
 2557SOL     OW 7685   2.092   4.352   3.837
 2557SOL    HW1 7686   1.999   4.350   3.874
 2557SOL    HW2 7687   2.093   4.313   3.745
 2558SOL     OW 7688   2.087   3.999   4.720
 2558SOL    HW1 7689   2.122   3.982   4.812
 2558SOL    HW2 7690   1.999   3.954   4.708
 2559SOL     OW 7691   1.881   4.092   4.371
 2559SOL    HW1 7692   1.799   4.135   4.410
 2559SOL    HW2 7693   1.853   4.019   4.308
 2560SOL     OW 7694   2.997   4.427   4.441
 2560SOL    HW1 7695   3.054   4.505   4.416
 2560SOL    HW2 7696   2.937   4.453   4.517
 2561SOL     OW 7697   3.617   4.331   3.955
 2561SOL    HW1 7698   3.605   4.318   3.856
 2561SOL    HW2 7699   3.587   4.250   4.004
 2562SOL     OW 7700   2.547   4.736   4.389
 2562SOL    HW1 7701   2.616   4.720   4.459
 2562SOL    HW2 7702   2.474   4.793   4.427
 2563SOL     OW 7703   3.465   4.171   4.461
 2563SOL    HW1 7704   3.391   4.217   4.411
 2563SOL    HW2 7705   3.516   4.239   4.514
 2564SOL     OW 7706   1.984   4.367   4.287
 2564SOL    HW1 7707   1.939   4.279   4.304
 2564SOL    HW2 7708   1.983   4.421   4.371
 2565SOL     OW 7709   2.671   3.728   4.226
 2565SOL    HW1 7710   2.711   3.819   4.217
 2565SOL    HW2 7711   2.571   3.736   4.232
 2566SOL     OW 7712   2.460   4.453   3.994
 2566SOL    HW1 7713   2.484   4.522   3.926
 2566SOL    HW2 7714   2.382   4.486   4.048
 2567SOL     OW 7715   3.143   4.069   4.668
 2567SOL    HW1 7716   3.057   4.019   4.655
 2567SOL    HW2 7717   3.205   4.015   4.724
 2568SOL     OW 7718   2.903   4.425   4.153
 2568SOL    HW1 7719   2.929   4.421   4.249
 2568SOL    HW2 7720   2.818   4.374   4.139
 2569SOL     OW 7721   1.938   4.535   4.513
 2569SOL    HW1 7722   2.037   4.523   4.522
 2569SOL    HW2 7723   1.914   4.630   4.534
 2570SOL     OW 7724   2.727   4.072   3.919
 2570SOL    HW1 7725   2.786   4.135   3.870
 2570SOL    HW2 7726   2.746   3.978   3.890
 2571SOL     OW 7727   2.412   3.920   4.609
 2571SOL    HW1 7728   2.407   3.915   4.709
 2571SOL    HW2 7729   2.414   4.016   4.580
 2572SOL     OW 7730   3.320   4.459   4.452
 2572SOL    HW1 7731   3.315   4.394   4.527
 2572SOL    HW2 7732   3.400   4.518   4.465
 2573SOL     OW 7733   3.262   3.831   4.150
 2573SOL    HW1 7734   3.238   3.794   4.060
 2573SOL    HW2 7735   3.361   3.847   4.154
 2574SOL     OW 7736   2.244   4.424   4.204
 2574SOL    HW1 7737   2.289   4.334   4.201
 2574SOL    HW2 7738   2.150   4.413   4.237
 2575SOL     OW 7739   2.476   3.846   3.841
 2575SOL    HW1 7740   2.574   3.824   3.848
 2575SOL    HW2 7741   2.445   3.829   3.748
 2576SOL     OW 7742   2.401   3.788   4.236
 2576SOL    HW1 7743   2.320   3.789   4.294
 2576SOL    HW2 7744   2.404   3.871   4.181
 2577SOL     OW 7745   2.159   3.759   3.895
 2577SOL    HW1 7746   2.208   3.843   3.874
 2577SOL    HW2 7747   2.221   3.694   3.940
 2578SOL     OW 7748   2.797   3.960   4.204
 2578SOL    HW1 7749   2.749   4.001   4.126
 2578SOL    HW2 7750   2.896   3.958   4.185
 2579SOL     OW 7751   2.321   4.876   4.465
 2579SOL    HW1 7752   2.250   4.849   4.530
 2579SOL    HW2 7753   2.295   4.848   4.372
 2580SOL     OW 7754   2.894   4.273   3.740
 2580SOL    HW1 7755   2.853   4.355   3.701
 2580SOL    HW2 7756   2.958   4.299   3.813
 2581SOL     OW 7757   2.728   4.178   4.366
 2581SOL    HW1 7758   2.696   4.250   4.304
 2581SOL    HW2 7759   2.752   4.097   4.313
 2582SOL     OW 7760   2.879   3.763   4.477
 2582SOL    HW1 7761   2.807   3.768   4.408
 2582SOL    HW2 7762   2.855   3.694   4.546
 2583SOL     OW 7763   3.291   4.897   4.591
 2583SOL    HW1 7764   3.236   4.813   4.584
 2583SOL    HW2 7765   3.317   4.926   4.499
 2584SOL     OW 7766   3.719   4.557   4.101
 2584SOL    HW1 7767   3.761   4.493   4.165
 2584SOL    HW2 7768   3.681   4.506   4.023
 2585SOL     OW 7769   3.252   4.299   3.802
 2585SOL    HW1 7770   3.198   4.278   3.883
 2585SOL    HW2 7771   3.343   4.258   3.811
 2586SOL     OW 7772   2.389   3.980   4.052
 2586SOL    HW1 7773   2.416   3.921   3.977
 2586SOL    HW2 7774   2.389   4.075   4.021
 2587SOL     OW 7775   2.973   4.919   4.824
 2587SOL    HW1 7776   2.933   4.963   4.905
 2587SOL    HW2 7777   2.932   4.956   4.741
 2588SOL     OW 7778   2.428   4.261   4.589
 2588SOL    HW1 7779   2.440   4.327   4.515
 2588SOL    HW2 7780   2.474   4.295   4.672
 2589SOL     OW 7781   3.444   4.363   4.196
 2589SOL    HW1 7782   3.413   4.424   4.269
 2589SOL    HW2 7783   3.494   4.415   4.127
 2590SOL     OW 7784   3.071   4.249   3.999
 2590SOL    HW1 7785   3.084   4.165   4.053
 2590SOL    HW2 7786   3.042   4.323   4.059
 2591SOL     OW 7787   2.594   4.358   4.788
 2591SOL    HW1 7788   2.653   4.332   4.712
 2591SOL    HW2 7789   2.566   4.454   4.777
 2592SOL     OW 7790   2.169   3.787   4.342
 2592SOL    HW1 7791   2.158   3.881   4.375
 2592SOL    HW2 7792   2.164   3.724   4.419
 2593SOL     OW 7793   3.484   4.091   4.098
 2593SOL    HW1 7794   3.486   4.015   4.162
 2593SOL    HW2 7795   3.436   4.168   4.138
 2594SOL     OW 7796   3.402   3.998   3.849
 2594SOL    HW1 7797   3.341   3.923   3.872
 2594SOL    HW2 7798   3.424   4.050   3.932
 2595SOL     OW 7799   2.677   4.296   4.049
 2595SOL    HW1 7800   2.684   4.207   4.003
 2595SOL    HW2 7801   2.583   4.330   4.041
 2596SOL     OW 7802   2.335   4.224   3.915
 2596SOL    HW1 7803   2.396   4.304   3.919
 2596SOL    HW2 7804   2.240   4.255   3.922
 2597SOL     OW 7805   3.588   3.859   4.247
 2597SOL    HW1 7806   3.661   3.842   4.180
 2597SOL    HW2 7807   3.557   3.772   4.285
 2598SOL     OW 7808   3.142   4.651   4.396
 2598SOL    HW1 7809   3.202   4.570   4.398
 2598SOL    HW2 7810   3.182   4.720   4.336
 2599SOL     OW 7811   3.703   3.899   4.687
 2599SOL    HW1 7812   3.742   3.814   4.651
 2599SOL    HW2 7813   3.605   3.901   4.668
 2600SOL     OW 7814   2.125   4.050   4.444
 2600SOL    HW1 7815   2.046   4.101   4.410
 2600SOL    HW2 7816   2.116   4.035   4.542
 2601SOL     OW 7817   2.778   4.634   4.015
 2601SOL    HW1 7818   2.841   4.672   3.947
 2601SOL    HW2 7819   2.818   4.551   4.054
 2602SOL     OW 7820   1.937   4.069   3.757
 2602SOL    HW1 7821   1.845   4.041   3.728
 2602SOL    HW2 7822   1.968   4.146   3.701
 2603SOL     OW 7823   1.934   3.890   4.042
 2603SOL    HW1 7824   1.917   3.973   3.988
 2603SOL    HW2 7825   2.024   3.853   4.020
 2604SOL     OW 7826   3.536   4.607   4.978
 2604SOL    HW1 7827   3.509   4.518   4.941
 2604SOL    HW2 7828   3.537   4.675   4.905
 2605SOL     OW 7829   3.087   4.049   4.173
 2605SOL    HW1 7830   3.152   3.975   4.162
 2605SOL    HW2 7831   3.107   4.099   4.257
 2606SOL     OW 7832   2.456   4.469   4.376
 2606SOL    HW1 7833   2.506   4.554   4.357
 2606SOL    HW2 7834   2.368   4.471   4.328
 2607SOL     OW 7835   2.290   4.148   4.244
 2607SOL    HW1 7836   2.320   4.076   4.182
 2607SOL    HW2 7837   2.251   4.108   4.327
 2608SOL     OW 7838   3.214   3.776   3.892
 2608SOL    HW1 7839   3.249   3.735   3.808
 2608SOL    HW2 7840   3.124   3.738   3.912
 2609SOL     OW 7841   3.162   4.177   4.415
 2609SOL    HW1 7842   3.103   4.257   4.419
 2609SOL    HW2 7843   3.177   4.142   4.508
 2610SOL     OW 7844   3.954   0.628   0.113
 2610SOL    HW1 7845   3.861   0.626   0.150
 2610SOL    HW2 7846   3.955   0.589   0.021
 2611SOL     OW 7847   3.949   0.275   0.996
 2611SOL    HW1 7848   3.984   0.258   1.088
 2611SOL    HW2 7849   3.861   0.230   0.984
 2612SOL     OW 7850   3.743   0.368   0.647
 2612SOL    HW1 7851   3.661   0.411   0.686
 2612SOL    HW2 7852   3.715   0.295   0.584
 2613SOL     OW 7853   4.293   1.275   1.165
 2613SOL    HW1 7854   4.200   1.268   1.128
 2613SOL    HW2 7855   4.304   1.364   1.209
 2614SOL     OW 7856   4.574   0.798   1.823
 2614SOL    HW1 7857   4.570   0.874   1.888
 2614SOL    HW2 7858   4.596   0.834   1.732
 2615SOL     OW 7859   4.409   1.012   0.665
 2615SOL    HW1 7860   4.478   0.996   0.735
 2615SOL    HW2 7861   4.336   1.069   0.703
 2616SOL     OW 7862   4.410   1.161   1.803
 2616SOL    HW1 7863   4.470   1.240   1.817
 2616SOL    HW2 7864   4.324   1.192   1.762
 2617SOL     OW 7865   4.059   1.435   1.061
 2617SOL    HW1 7866   3.981   1.404   1.008
 2617SOL    HW2 7867   4.117   1.493   1.004
 2618SOL     OW 7868   4.162   0.392   1.499
 2618SOL    HW1 7869   4.244   0.336   1.508
 2618SOL    HW2 7870   4.081   0.334   1.503
 2619SOL     OW 7871   3.955   1.713   0.483
 2619SOL    HW1 7872   3.989   1.790   0.537
 2619SOL    HW2 7873   3.999   1.713   0.393
 2620SOL     OW 7874   3.954   1.434   0.538
 2620SOL    HW1 7875   3.928   1.530   0.538
 2620SOL    HW2 7876   3.883   1.380   0.583
 2621SOL     OW 7877   3.964   1.091   0.886
 2621SOL    HW1 7878   3.978   1.007   0.938
 2621SOL    HW2 7879   3.909   1.155   0.941
 2622SOL     OW 7880   4.344   1.786   1.439
 2622SOL    HW1 7881   4.252   1.769   1.474
 2622SOL    HW2 7882   4.372   1.878   1.465
 2623SOL     OW 7883   4.330   0.964   0.123
 2623SOL    HW1 7884   4.337   1.048   0.069
 2623SOL    HW2 7885   4.376   0.977   0.211
 2624SOL     OW 7886   3.846   0.643   0.563
 2624SOL    HW1 7887   3.801   0.555   0.580
 2624SOL    HW2 7888   3.845   0.697   0.647
 2625SOL     OW 7889   3.751   1.596   0.117
 2625SOL    HW1 7890   3.732   1.500   0.138
 2625SOL    HW2 7891   3.718   1.654   0.192
 2626SOL     OW 7892   3.837   0.737   1.597
 2626SOL    HW1 7893   3.925   0.724   1.642
 2626SOL    HW2 7894   3.824   0.834   1.575
 2627SOL     OW 7895   4.337   1.365   0.726
 2627SOL    HW1 7896   4.288   1.278   0.735
 2627SOL    HW2 7897   4.314   1.408   0.639
 2628SOL     OW 7898   4.533   0.004   0.502
 2628SOL    HW1 7899   4.573   0.095   0.493
 2628SOL    HW2 7900   4.433   0.012   0.508
 2629SOL     OW 7901   3.921   0.976   1.264
 2629SOL    HW1 7902   4.010   0.931   1.250
 2629SOL    HW2 7903   3.848   0.911   1.245
 2630SOL     OW 7904   4.041   0.251   1.801
 2630SOL    HW1 7905   4.112   0.322   1.807
 2630SOL    HW2 7906   3.953   0.290   1.829
 2631SOL     OW 7907   4.322   0.729   0.270
 2631SOL    HW1 7908   4.346   0.798   0.202
 2631SOL    HW2 7909   4.244   0.762   0.324
 2632SOL     OW 7910   4.531   0.605   1.465
 2632SOL    HW1 7911   4.484   0.602   1.554
 2632SOL    HW2 7912   4.480   0.550   1.399
 2633SOL     OW 7913   3.800   0.811   0.789
 2633SOL    HW1 7914   3.899   0.799   0.798
 2633SOL    HW2 7915   3.776   0.906   0.810
 2634SOL     OW 7916   3.854   1.821   1.571
 2634SOL    HW1 7917   3.844   1.806   1.670
 2634SOL    HW2 7918   3.768   1.857   1.535
 2635SOL     OW 7919   4.589   0.348   0.195
 2635SOL    HW1 7920   4.648   0.411   0.146
 2635SOL    HW2 7921   4.608   0.254   0.166
 2636SOL     OW 7922   4.274   0.196   0.885
 2636SOL    HW1 7923   4.269   0.191   0.985
 2636SOL    HW2 7924   4.276   0.292   0.856
 2637SOL     OW 7925   4.075   1.801   0.853
 2637SOL    HW1 7926   4.125   1.715   0.859
 2637SOL    HW2 7927   4.140   1.878   0.850
 2638SOL     OW 7928   4.045   0.943   0.242
 2638SOL    HW1 7929   4.127   0.982   0.200
 2638SOL    HW2 7930   4.018   0.861   0.193
 2639SOL     OW 7931   4.185   1.266   1.727
 2639SOL    HW1 7932   4.135   1.267   1.641
 2639SOL    HW2 7933   4.122   1.248   1.803
 2640SOL     OW 7934   4.835   1.776   0.237
 2640SOL    HW1 7935   4.775   1.714   0.287
 2640SOL    HW2 7936   4.866   1.732   0.152
 2641SOL     OW 7937   3.926   0.285   1.498
 2641SOL    HW1 7938   3.846   0.345   1.485
 2641SOL    HW2 7939   3.916   0.236   1.584
 2642SOL     OW 7940   4.188   1.743   0.323
 2642SOL    HW1 7941   4.221   1.782   0.409
 2642SOL    HW2 7942   4.264   1.736   0.258
 2643SOL     OW 7943   3.973   1.785   1.241
 2643SOL    HW1 7944   4.030   1.720   1.291
 2643SOL    HW2 7945   3.957   1.752   1.148
 2644SOL     OW 7946   4.106   0.700   0.480
 2644SOL    HW1 7947   4.151   0.610   0.477
 2644SOL    HW2 7948   4.012   0.689   0.513
 2645SOL     OW 7949   4.338   0.122   0.117
 2645SOL    HW1 7950   4.436   0.100   0.124
 2645SOL    HW2 7951   4.307   0.105   0.024
 2646SOL     OW 7952   4.505   0.264   1.749
 2646SOL    HW1 7953   4.572   0.203   1.792
 2646SOL    HW2 7954   4.432   0.283   1.814
 2647SOL     OW 7955   4.527   1.402   0.924
 2647SOL    HW1 7956   4.617   1.416   0.882
 2647SOL    HW2 7957   4.456   1.404   0.853
 2648SOL     OW 7958   4.646   0.503   0.899
 2648SOL    HW1 7959   4.621   0.494   0.803
 2648SOL    HW2 7960   4.694   0.421   0.930
 2649SOL     OW 7961   4.263   0.064   0.512
 2649SOL    HW1 7962   4.182   0.065   0.570
 2649SOL    HW2 7963   4.266   0.147   0.457
 2650SOL     OW 7964   4.021   0.035   0.171
 2650SOL    HW1 7965   4.070   0.119   0.150
 2650SOL    HW2 7966   4.083  -0.030   0.216
 2651SOL     OW 7967   4.183   1.152   0.741
 2651SOL    HW1 7968   4.112   1.125   0.806
 2651SOL    HW2 7969   4.157   1.124   0.648
 2652SOL     OW 7970   3.802   0.556   1.386
 2652SOL    HW1 7971   3.894   0.555   1.345
 2652SOL    HW2 7972   3.796   0.630   1.453
 2653SOL     OW 7973   4.285   0.222   1.147
 2653SOL    HW1 7974   4.323   0.138   1.184
 2653SOL    HW2 7975   4.197   0.241   1.191
 2654SOL     OW 7976   4.212   1.385   0.174
 2654SOL    HW1 7977   4.125   1.370   0.221
 2654SOL    HW2 7978   4.195   1.411   0.079
 2655SOL     OW 7979   4.251   0.256   0.328
 2655SOL    HW1 7980   4.278   0.197   0.253
 2655SOL    HW2 7981   4.251   0.351   0.297
 2656SOL     OW 7982   4.639   0.089   1.402
 2656SOL    HW1 7983   4.664   0.069   1.307
 2656SOL    HW2 7984   4.711   0.145   1.444
 2657SOL     OW 7985   4.429   1.050   0.368
 2657SOL    HW1 7986   4.415   1.057   0.467
 2657SOL    HW2 7987   4.513   0.999   0.350
 2658SOL     OW 7988   4.134   0.813   1.251
 2658SOL    HW1 7989   4.220   0.825   1.301
 2658SOL    HW2 7990   4.092   0.726   1.278
 2659SOL     OW 7991   3.788   1.564   1.331
 2659SOL    HW1 7992   3.742   1.646   1.297
 2659SOL    HW2 7993   3.886   1.583   1.340
 2660SOL     OW 7994   4.091   1.100   0.501
 2660SOL    HW1 7995   4.084   1.183   0.445
 2660SOL    HW2 7996   4.095   1.020   0.441
 2661SOL     OW 7997   4.290   0.537   0.865
 2661SOL    HW1 7998   4.302   0.603   0.791
 2661SOL    HW2 7999   4.336   0.571   0.948
 2662SOL     OW 8000   4.078   1.510   1.329
 2662SOL    HW1 8001   4.057   1.466   1.242
 2662SOL    HW2 8002   4.175   1.536   1.332
 2663SOL     OW 8003   4.126   0.751   1.598
 2663SOL    HW1 8004   4.194   0.806   1.551
 2663SOL    HW2 8005   4.166   0.663   1.625
 2664SOL     OW 8006   4.228   0.050   1.740
 2664SOL    HW1 8007   4.186  -0.007   1.670
 2664SOL    HW2 8008   4.162   0.119   1.772
 2665SOL     OW 8009   4.297   0.870   1.029
 2665SOL    HW1 8010   4.341   0.959   1.020
 2665SOL    HW2 8011   4.234   0.870   1.106
 2666SOL     OW 8012   4.031   0.213   1.231
 2666SOL    HW1 8013   4.008   0.250   1.321
 2666SOL    HW2 8014   4.001   0.118   1.225
 2667SOL     OW 8015   3.761   1.310   1.282
 2667SOL    HW1 8016   3.814   1.261   1.350
 2667SOL    HW2 8017   3.783   1.408   1.287
 2668SOL     OW 8018   4.456   0.634   1.064
 2668SOL    HW1 8019   4.515   0.608   0.988
 2668SOL    HW2 8020   4.428   0.730   1.053
 2669SOL     OW 8021   4.031   0.063   0.618
 2669SOL    HW1 8022   4.020   0.157   0.651
 2669SOL    HW2 8023   4.026   0.000   0.695
 2670SOL     OW 8024   4.747   0.766   0.966
 2670SOL    HW1 8025   4.762   0.787   1.062
 2670SOL    HW2 8026   4.717   0.671   0.957
 2671SOL     OW 8027   4.704   1.573   1.700
 2671SOL    HW1 8028   4.684   1.617   1.612
 2671SOL    HW2 8029   4.743   1.482   1.684
 2672SOL     OW 8030   4.074   0.898   1.804
 2672SOL    HW1 8031   4.150   0.942   1.852
 2672SOL    HW2 8032   4.109   0.851   1.722
 2673SOL     OW 8033   4.043   0.810   0.949
 2673SOL    HW1 8034   4.136   0.846   0.954
 2673SOL    HW2 8035   4.037   0.725   1.001
 2674SOL     OW 8036   4.063   0.509   1.006
 2674SOL    HW1 8037   4.011   0.426   0.989
 2674SOL    HW2 8038   4.140   0.514   0.942
 2675SOL     OW 8039   3.732   1.326   0.200
 2675SOL    HW1 8040   3.639   1.347   0.169
 2675SOL    HW2 8041   3.742   1.227   0.213
 2676SOL     OW 8042   3.812   1.801   0.927
 2676SOL    HW1 8043   3.770   1.715   0.900
 2676SOL    HW2 8044   3.906   1.804   0.893
 2677SOL     OW 8045   4.228   1.568   0.910
 2677SOL    HW1 8046   4.294   1.642   0.919
 2677SOL    HW2 8047   4.272   1.489   0.868
 2678SOL     OW 8048   3.764   0.544   1.114
 2678SOL    HW1 8049   3.849   0.511   1.073
 2678SOL    HW2 8050   3.777   0.559   1.212
 2679SOL     OW 8051   3.913   0.520   1.722
 2679SOL    HW1 8052   3.972   0.480   1.652
 2679SOL    HW2 8053   3.855   0.591   1.681
 2680SOL     OW 8054   4.539   0.572   0.325
 2680SOL    HW1 8055   4.546   0.483   0.279
 2680SOL    HW2 8056   4.445   0.606   0.317
 2681SOL     OW 8057   3.976   1.564   1.744
 2681SOL    HW1 8058   3.946   1.621   1.820
 2681SOL    HW2 8059   3.969   1.467   1.770
 2682SOL     OW 8060   4.395   0.464   1.269
 2682SOL    HW1 8061   4.361   0.375   1.239
 2682SOL    HW2 8062   4.421   0.518   1.189
 2683SOL     OW 8063   4.197   0.500   0.191
 2683SOL    HW1 8064   4.258   0.580   0.195
 2683SOL    HW2 8065   4.102   0.531   0.198
 2684SOL     OW 8066   3.883   1.137   1.466
 2684SOL    HW1 8067   3.905   1.076   1.542
 2684SOL    HW2 8068   3.893   1.088   1.380
 2685SOL     OW 8069   3.807   1.258   1.022
 2685SOL    HW1 8070   3.802   1.257   1.122
 2685SOL    HW2 8071   3.724   1.217   0.984
 2686SOL     OW 8072   4.412   1.662   1.716
 2686SOL    HW1 8073   4.356   1.743   1.725
 2686SOL    HW2 8074   4.464   1.666   1.630
 2687SOL     OW 8075   4.627   0.086   0.133
 2687SOL    HW1 8076   4.678   0.087   0.047
 2687SOL    HW2 8077   4.683   0.044   0.204
 2688SOL     OW 8078   3.854   1.794   1.851
 2688SOL    HW1 8079   3.813   1.720   1.904
 2688SOL    HW2 8080   3.918   1.845   1.909
 2689SOL     OW 8081   4.554   1.273   1.422
 2689SOL    HW1 8082   4.549   1.306   1.517
 2689SOL    HW2 8083   4.468   1.292   1.376
 2690SOL     OW 8084   4.396   1.616   0.154
 2690SOL    HW1 8085   4.405   1.626   0.055
 2690SOL    HW2 8086   4.356   1.527   0.175
 2691SOL     OW 8087   3.987   0.326   0.720
 2691SOL    HW1 8088   3.908   0.377   0.686
 2691SOL    HW2 8089   3.978   0.311   0.818
 2692SOL     OW 8090   4.918   1.612   0.031
 2692SOL    HW1 8091   4.924   1.519   0.068
 2692SOL    HW2 8092   4.859   1.612  -0.049
 2693SOL     OW 8093   4.546   1.002   1.372
 2693SOL    HW1 8094   4.586   1.001   1.280
 2693SOL    HW2 8095   4.556   1.094   1.412
 2694SOL     OW 8096   4.096   1.288   1.490
 2694SOL    HW1 8097   4.083   1.381   1.456
 2694SOL    HW2 8098   4.012   1.236   1.477
 2695SOL     OW 8099   4.314   1.487   0.491
 2695SOL    HW1 8100   4.356   1.429   0.421
 2695SOL    HW2 8101   4.270   1.566   0.447
 2696SOL     OW 8102   3.979   1.348   0.290
 2696SOL    HW1 8103   3.883   1.349   0.263
 2696SOL    HW2 8104   3.991   1.401   0.374
 2697SOL     OW 8105   3.829   1.013   1.726
 2697SOL    HW1 8106   3.752   0.980   1.780
 2697SOL    HW2 8107   3.914   0.983   1.768
 2698SOL     OW 8108   4.396   0.203   1.489
 2698SOL    HW1 8109   4.486   0.187   1.449
 2698SOL    HW2 8110   4.404   0.208   1.588
 2699SOL     OW 8111   3.796   0.166   0.318
 2699SOL    HW1 8112   3.779   0.249   0.264
 2699SOL    HW2 8113   3.886   0.129   0.296
 2700SOL     OW 8114   4.337   0.842   1.431
 2700SOL    HW1 8115   4.393   0.923   1.414
 2700SOL    HW2 8116   4.396   0.762   1.434
 2701SOL     OW 8117   4.440   0.565   1.708
 2701SOL    HW1 8118   4.459   0.630   1.782
 2701SOL    HW2 8119   4.500   0.485   1.717
 2702SOL     OW 8120   4.114   1.741   1.560
 2702SOL    HW1 8121   4.023   1.782   1.558
 2702SOL    HW2 8122   4.107   1.647   1.592
 2703SOL     OW 8123   4.318   0.745   0.652
 2703SOL    HW1 8124   4.368   0.830   0.633
 2703SOL    HW2 8125   4.230   0.747   0.604
 2704SOL     OW 8126   4.385   1.790   0.953
 2704SOL    HW1 8127   4.339   1.878   0.940
 2704SOL    HW2 8128   4.484   1.802   0.946
 2705SOL     OW 8129   3.945   1.314   1.844
 2705SOL    HW1 8130   3.880   1.241   1.823
 2705SOL    HW2 8131   3.949   1.328   1.942
 2706SOL     OW 8132   3.803   1.240   0.653
 2706SOL    HW1 8133   3.802   1.193   0.741
 2706SOL    HW2 8134   3.885   1.212   0.602
 2707SOL     OW 8135   4.396   1.391   1.624
 2707SOL    HW1 8136   4.318   1.341   1.662
 2707SOL    HW2 8137   4.393   1.486   1.655
 2708SOL     OW 8138   4.152   0.424   0.520
 2708SOL    HW1 8139   4.182   0.352   0.458
 2708SOL    HW2 8140   4.113   0.384   0.603
 2709SOL     OW 8141   4.041   0.547   1.280
 2709SOL    HW1 8142   4.079   0.488   1.352
 2709SOL    HW2 8143   4.081   0.521   1.192
 2710SOL     OW 8144   4.536   1.586   0.687
 2710SOL    HW1 8145   4.568   1.596   0.593
 2710SOL    HW2 8146   4.457   1.524   0.689
 2711SOL     OW 8147   4.725   0.034   1.154
 2711SOL    HW1 8148   4.662  -0.038   1.123
 2711SOL    HW2 8149   4.818  -0.002   1.154
 2712SOL     OW 8150   4.494   1.330   0.301
 2712SOL    HW1 8151   4.448   1.243   0.318
 2712SOL    HW2 8152   4.585   1.327   0.342
 2713SOL     OW 8153   4.342   1.567   1.284
 2713SOL    HW1 8154   4.337   1.649   1.341
 2713SOL    HW2 8155   4.431   1.564   1.239
 2714SOL     OW 8156   3.763   1.077   0.300
 2714SOL    HW1 8157   3.862   1.066   0.291
 2714SOL    HW2 8158   3.723   0.991   0.332
 2715SOL     OW 8159   4.599   1.646   0.337
 2715SOL    HW1 8160   4.522   1.611   0.283
 2715SOL    HW2 8161   4.567   1.717   0.399
 2716SOL     OW 8162   3.954   0.628   1.975
 2716SOL    HW1 8163   3.861   0.626   2.012
 2716SOL    HW2 8164   3.955   0.589   1.883
 2717SOL     OW 8165   3.949   0.275   2.858
 2717SOL    HW1 8166   3.984   0.258   2.950
 2717SOL    HW2 8167   3.861   0.230   2.846
 2718SOL     OW 8168   3.743   0.368   2.509
 2718SOL    HW1 8169   3.661   0.411   2.548
 2718SOL    HW2 8170   3.715   0.295   2.446
 2719SOL     OW 8171   4.293   1.275   3.027
 2719SOL    HW1 8172   4.200   1.268   2.990
 2719SOL    HW2 8173   4.304   1.364   3.071
 2720SOL     OW 8174   4.574   0.798   3.685
 2720SOL    HW1 8175   4.570   0.874   3.750
 2720SOL    HW2 8176   4.596   0.834   3.594
 2721SOL     OW 8177   4.409   1.012   2.527
 2721SOL    HW1 8178   4.478   0.996   2.597
 2721SOL    HW2 8179   4.336   1.069   2.565
 2722SOL     OW 8180   4.410   1.161   3.665
 2722SOL    HW1 8181   4.470   1.240   3.679
 2722SOL    HW2 8182   4.324   1.192   3.624
 2723SOL     OW 8183   4.059   1.435   2.923
 2723SOL    HW1 8184   3.981   1.404   2.870
 2723SOL    HW2 8185   4.117   1.493   2.866
 2724SOL     OW 8186   4.162   0.392   3.361
 2724SOL    HW1 8187   4.244   0.336   3.370
 2724SOL    HW2 8188   4.081   0.334   3.365
 2725SOL     OW 8189   3.955   1.713   2.345
 2725SOL    HW1 8190   3.989   1.790   2.399
 2725SOL    HW2 8191   3.999   1.713   2.255
 2726SOL     OW 8192   3.954   1.434   2.400
 2726SOL    HW1 8193   3.928   1.530   2.400
 2726SOL    HW2 8194   3.883   1.380   2.445
 2727SOL     OW 8195   3.964   1.091   2.748
 2727SOL    HW1 8196   3.978   1.007   2.800
 2727SOL    HW2 8197   3.909   1.155   2.803
 2728SOL     OW 8198   4.344   1.786   3.301
 2728SOL    HW1 8199   4.252   1.769   3.336
 2728SOL    HW2 8200   4.372   1.878   3.327
 2729SOL     OW 8201   4.330   0.964   1.985
 2729SOL    HW1 8202   4.337   1.048   1.931
 2729SOL    HW2 8203   4.376   0.977   2.073
 2730SOL     OW 8204   3.846   0.643   2.425
 2730SOL    HW1 8205   3.801   0.555   2.442
 2730SOL    HW2 8206   3.845   0.697   2.509
 2731SOL     OW 8207   3.751   1.596   1.979
 2731SOL    HW1 8208   3.732   1.500   2.000
 2731SOL    HW2 8209   3.718   1.654   2.054
 2732SOL     OW 8210   3.837   0.737   3.459
 2732SOL    HW1 8211   3.925   0.724   3.504
 2732SOL    HW2 8212   3.824   0.834   3.437
 2733SOL     OW 8213   4.337   1.365   2.588
 2733SOL    HW1 8214   4.288   1.278   2.597
 2733SOL    HW2 8215   4.314   1.408   2.501
 2734SOL     OW 8216   4.533   0.004   2.364
 2734SOL    HW1 8217   4.573   0.095   2.355
 2734SOL    HW2 8218   4.433   0.012   2.370
 2735SOL     OW 8219   3.921   0.976   3.126
 2735SOL    HW1 8220   4.010   0.931   3.112
 2735SOL    HW2 8221   3.848   0.911   3.107
 2736SOL     OW 8222   4.041   0.251   3.663
 2736SOL    HW1 8223   4.112   0.322   3.669
 2736SOL    HW2 8224   3.953   0.290   3.691
 2737SOL     OW 8225   4.322   0.729   2.132
 2737SOL    HW1 8226   4.346   0.798   2.064
 2737SOL    HW2 8227   4.244   0.762   2.186
 2738SOL     OW 8228   4.531   0.605   3.327
 2738SOL    HW1 8229   4.484   0.602   3.416
 2738SOL    HW2 8230   4.480   0.550   3.261
 2739SOL     OW 8231   3.800   0.811   2.651
 2739SOL    HW1 8232   3.899   0.799   2.660
 2739SOL    HW2 8233   3.776   0.906   2.672
 2740SOL     OW 8234   3.854   1.821   3.433
 2740SOL    HW1 8235   3.844   1.806   3.532
 2740SOL    HW2 8236   3.768   1.857   3.397
 2741SOL     OW 8237   4.589   0.348   2.057
 2741SOL    HW1 8238   4.648   0.411   2.008
 2741SOL    HW2 8239   4.608   0.254   2.028
 2742SOL     OW 8240   4.274   0.196   2.747
 2742SOL    HW1 8241   4.269   0.191   2.847
 2742SOL    HW2 8242   4.276   0.292   2.718
 2743SOL     OW 8243   4.075   1.801   2.715
 2743SOL    HW1 8244   4.125   1.715   2.721
 2743SOL    HW2 8245   4.140   1.878   2.712
 2744SOL     OW 8246   4.045   0.943   2.104
 2744SOL    HW1 8247   4.127   0.982   2.062
 2744SOL    HW2 8248   4.018   0.861   2.055
 2745SOL     OW 8249   4.185   1.266   3.589
 2745SOL    HW1 8250   4.135   1.267   3.503
 2745SOL    HW2 8251   4.122   1.248   3.665
 2746SOL     OW 8252   4.835   1.776   2.099
 2746SOL    HW1 8253   4.775   1.714   2.149
 2746SOL    HW2 8254   4.866   1.732   2.014
 2747SOL     OW 8255   3.926   0.285   3.360
 2747SOL    HW1 8256   3.846   0.345   3.347
 2747SOL    HW2 8257   3.916   0.236   3.446
 2748SOL     OW 8258   4.188   1.743   2.185
 2748SOL    HW1 8259   4.221   1.782   2.271
 2748SOL    HW2 8260   4.264   1.736   2.120
 2749SOL     OW 8261   3.973   1.785   3.103
 2749SOL    HW1 8262   4.030   1.720   3.153
 2749SOL    HW2 8263   3.957   1.752   3.010
 2750SOL     OW 8264   4.106   0.700   2.342
 2750SOL    HW1 8265   4.151   0.610   2.339
 2750SOL    HW2 8266   4.012   0.689   2.375
 2751SOL     OW 8267   4.338   0.122   1.979
 2751SOL    HW1 8268   4.436   0.100   1.986
 2751SOL    HW2 8269   4.307   0.105   1.886
 2752SOL     OW 8270   4.505   0.264   3.611
 2752SOL    HW1 8271   4.572   0.203   3.654
 2752SOL    HW2 8272   4.432   0.283   3.676
 2753SOL     OW 8273   4.527   1.402   2.786
 2753SOL    HW1 8274   4.617   1.416   2.744
 2753SOL    HW2 8275   4.456   1.404   2.715
 2754SOL     OW 8276   4.646   0.503   2.761
 2754SOL    HW1 8277   4.621   0.494   2.665
 2754SOL    HW2 8278   4.694   0.421   2.792
 2755SOL     OW 8279   4.263   0.064   2.374
 2755SOL    HW1 8280   4.182   0.065   2.432
 2755SOL    HW2 8281   4.266   0.147   2.319
 2756SOL     OW 8282   4.021   0.035   2.033
 2756SOL    HW1 8283   4.070   0.119   2.012
 2756SOL    HW2 8284   4.083  -0.030   2.078
 2757SOL     OW 8285   4.183   1.152   2.603
 2757SOL    HW1 8286   4.112   1.125   2.668
 2757SOL    HW2 8287   4.157   1.124   2.510
 2758SOL     OW 8288   3.802   0.556   3.248
 2758SOL    HW1 8289   3.894   0.555   3.207
 2758SOL    HW2 8290   3.796   0.630   3.315
 2759SOL     OW 8291   4.285   0.222   3.009
 2759SOL    HW1 8292   4.323   0.138   3.046
 2759SOL    HW2 8293   4.197   0.241   3.053
 2760SOL     OW 8294   4.212   1.385   2.036
 2760SOL    HW1 8295   4.125   1.370   2.083
 2760SOL    HW2 8296   4.195   1.411   1.941
 2761SOL     OW 8297   4.251   0.256   2.190
 2761SOL    HW1 8298   4.278   0.197   2.115
 2761SOL    HW2 8299   4.251   0.351   2.159
 2762SOL     OW 8300   4.639   0.089   3.264
 2762SOL    HW1 8301   4.664   0.069   3.169
 2762SOL    HW2 8302   4.711   0.145   3.306
 2763SOL     OW 8303   4.429   1.050   2.230
 2763SOL    HW1 8304   4.415   1.057   2.329
 2763SOL    HW2 8305   4.513   0.999   2.212
 2764SOL     OW 8306   4.134   0.813   3.113
 2764SOL    HW1 8307   4.220   0.825   3.163
 2764SOL    HW2 8308   4.092   0.726   3.140
 2765SOL     OW 8309   3.788   1.564   3.193
 2765SOL    HW1 8310   3.742   1.646   3.159
 2765SOL    HW2 8311   3.886   1.583   3.202
 2766SOL     OW 8312   4.091   1.100   2.363
 2766SOL    HW1 8313   4.084   1.183   2.307
 2766SOL    HW2 8314   4.095   1.020   2.303
 2767SOL     OW 8315   4.290   0.537   2.727
 2767SOL    HW1 8316   4.302   0.603   2.653
 2767SOL    HW2 8317   4.336   0.571   2.810
 2768SOL     OW 8318   4.078   1.510   3.191
 2768SOL    HW1 8319   4.057   1.466   3.104
 2768SOL    HW2 8320   4.175   1.536   3.194
 2769SOL     OW 8321   4.126   0.751   3.460
 2769SOL    HW1 8322   4.194   0.806   3.413
 2769SOL    HW2 8323   4.166   0.663   3.487
 2770SOL     OW 8324   4.228   0.050   3.602
 2770SOL    HW1 8325   4.186  -0.007   3.532
 2770SOL    HW2 8326   4.162   0.119   3.634
 2771SOL     OW 8327   4.297   0.870   2.891
 2771SOL    HW1 8328   4.341   0.959   2.882
 2771SOL    HW2 8329   4.234   0.870   2.968
 2772SOL     OW 8330   4.031   0.213   3.093
 2772SOL    HW1 8331   4.008   0.250   3.183
 2772SOL    HW2 8332   4.001   0.118   3.087
 2773SOL     OW 8333   3.761   1.310   3.144
 2773SOL    HW1 8334   3.814   1.261   3.212
 2773SOL    HW2 8335   3.783   1.408   3.149
 2774SOL     OW 8336   4.456   0.634   2.926
 2774SOL    HW1 8337   4.515   0.608   2.850
 2774SOL    HW2 8338   4.428   0.730   2.915
 2775SOL     OW 8339   4.031   0.063   2.480
 2775SOL    HW1 8340   4.020   0.157   2.513
 2775SOL    HW2 8341   4.026   0.000   2.557
 2776SOL     OW 8342   4.747   0.766   2.828
 2776SOL    HW1 8343   4.762   0.787   2.924
 2776SOL    HW2 8344   4.717   0.671   2.819
 2777SOL     OW 8345   4.704   1.573   3.562
 2777SOL    HW1 8346   4.684   1.617   3.474
 2777SOL    HW2 8347   4.743   1.482   3.546
 2778SOL     OW 8348   4.074   0.898   3.666
 2778SOL    HW1 8349   4.150   0.942   3.714
 2778SOL    HW2 8350   4.109   0.851   3.584
 2779SOL     OW 8351   4.043   0.810   2.811
 2779SOL    HW1 8352   4.136   0.846   2.816
 2779SOL    HW2 8353   4.037   0.725   2.863
 2780SOL     OW 8354   4.063   0.509   2.868
 2780SOL    HW1 8355   4.011   0.426   2.851
 2780SOL    HW2 8356   4.140   0.514   2.804
 2781SOL     OW 8357   3.732   1.326   2.062
 2781SOL    HW1 8358   3.639   1.347   2.031
 2781SOL    HW2 8359   3.742   1.227   2.075
 2782SOL     OW 8360   3.812   1.801   2.789
 2782SOL    HW1 8361   3.770   1.715   2.762
 2782SOL    HW2 8362   3.906   1.804   2.755
 2783SOL     OW 8363   4.228   1.568   2.772
 2783SOL    HW1 8364   4.294   1.642   2.781
 2783SOL    HW2 8365   4.272   1.489   2.730
 2784SOL     OW 8366   3.764   0.544   2.976
 2784SOL    HW1 8367   3.849   0.511   2.935
 2784SOL    HW2 8368   3.777   0.559   3.074
 2785SOL     OW 8369   3.913   0.520   3.584
 2785SOL    HW1 8370   3.972   0.480   3.514
 2785SOL    HW2 8371   3.855   0.591   3.543
 2786SOL     OW 8372   4.539   0.572   2.187
 2786SOL    HW1 8373   4.546   0.483   2.141
 2786SOL    HW2 8374   4.445   0.606   2.179
 2787SOL     OW 8375   3.976   1.564   3.606
 2787SOL    HW1 8376   3.946   1.621   3.682
 2787SOL    HW2 8377   3.969   1.467   3.632
 2788SOL     OW 8378   4.395   0.464   3.131
 2788SOL    HW1 8379   4.361   0.375   3.101
 2788SOL    HW2 8380   4.421   0.518   3.051
 2789SOL     OW 8381   4.197   0.500   2.053
 2789SOL    HW1 8382   4.258   0.580   2.057
 2789SOL    HW2 8383   4.102   0.531   2.060
 2790SOL     OW 8384   3.883   1.137   3.328
 2790SOL    HW1 8385   3.905   1.076   3.404
 2790SOL    HW2 8386   3.893   1.088   3.242
 2791SOL     OW 8387   3.807   1.258   2.884
 2791SOL    HW1 8388   3.802   1.257   2.984
 2791SOL    HW2 8389   3.724   1.217   2.846
 2792SOL     OW 8390   4.412   1.662   3.578
 2792SOL    HW1 8391   4.356   1.743   3.587
 2792SOL    HW2 8392   4.464   1.666   3.492
 2793SOL     OW 8393   4.627   0.086   1.995
 2793SOL    HW1 8394   4.678   0.087   1.909
 2793SOL    HW2 8395   4.683   0.044   2.066
 2794SOL     OW 8396   3.854   1.794   3.713
 2794SOL    HW1 8397   3.813   1.720   3.766
 2794SOL    HW2 8398   3.918   1.845   3.771
 2795SOL     OW 8399   4.554   1.273   3.284
 2795SOL    HW1 8400   4.549   1.306   3.379
 2795SOL    HW2 8401   4.468   1.292   3.238
 2796SOL     OW 8402   4.396   1.616   2.016
 2796SOL    HW1 8403   4.405   1.626   1.917
 2796SOL    HW2 8404   4.356   1.527   2.037
 2797SOL     OW 8405   3.987   0.326   2.582
 2797SOL    HW1 8406   3.908   0.377   2.548
 2797SOL    HW2 8407   3.978   0.311   2.680
 2798SOL     OW 8408   4.546   1.002   3.234
 2798SOL    HW1 8409   4.586   1.001   3.142
 2798SOL    HW2 8410   4.556   1.094   3.274
 2799SOL     OW 8411   4.096   1.288   3.352
 2799SOL    HW1 8412   4.083   1.381   3.318
 2799SOL    HW2 8413   4.012   1.236   3.339
 2800SOL     OW 8414   4.314   1.487   2.353
 2800SOL    HW1 8415   4.356   1.429   2.283
 2800SOL    HW2 8416   4.270   1.566   2.309
 2801SOL     OW 8417   3.979   1.348   2.152
 2801SOL    HW1 8418   3.883   1.349   2.125
 2801SOL    HW2 8419   3.991   1.401   2.236
 2802SOL     OW 8420   3.829   1.013   3.588
 2802SOL    HW1 8421   3.752   0.980   3.642
 2802SOL    HW2 8422   3.914   0.983   3.630
 2803SOL     OW 8423   4.396   0.203   3.351
 2803SOL    HW1 8424   4.486   0.187   3.311
 2803SOL    HW2 8425   4.404   0.208   3.450
 2804SOL     OW 8426   3.799   0.345   1.895
 2804SOL    HW1 8427   3.707   0.317   1.866
 2804SOL    HW2 8428   3.830   0.422   1.839
 2805SOL     OW 8429   3.796   0.166   2.180
 2805SOL    HW1 8430   3.779   0.249   2.126
 2805SOL    HW2 8431   3.886   0.129   2.158
 2806SOL     OW 8432   4.337   0.842   3.293
 2806SOL    HW1 8433   4.393   0.923   3.276
 2806SOL    HW2 8434   4.396   0.762   3.296
 2807SOL     OW 8435   4.440   0.565   3.570
 2807SOL    HW1 8436   4.459   0.630   3.644
 2807SOL    HW2 8437   4.500   0.485   3.579
 2808SOL     OW 8438   4.114   1.741   3.422
 2808SOL    HW1 8439   4.023   1.782   3.420
 2808SOL    HW2 8440   4.107   1.647   3.454
 2809SOL     OW 8441   4.318   0.745   2.514
 2809SOL    HW1 8442   4.368   0.830   2.495
 2809SOL    HW2 8443   4.230   0.747   2.466
 2810SOL     OW 8444   4.385   1.790   2.815
 2810SOL    HW1 8445   4.339   1.878   2.802
 2810SOL    HW2 8446   4.484   1.802   2.808
 2811SOL     OW 8447   3.945   1.314   3.706
 2811SOL    HW1 8448   3.880   1.241   3.685
 2811SOL    HW2 8449   3.949   1.328   3.804
 2812SOL     OW 8450   3.803   1.240   2.515
 2812SOL    HW1 8451   3.802   1.193   2.603
 2812SOL    HW2 8452   3.885   1.212   2.464
 2813SOL     OW 8453   4.396   1.391   3.486
 2813SOL    HW1 8454   4.318   1.341   3.524
 2813SOL    HW2 8455   4.393   1.486   3.517
 2814SOL     OW 8456   4.152   0.424   2.382
 2814SOL    HW1 8457   4.182   0.352   2.320
 2814SOL    HW2 8458   4.113   0.384   2.465
 2815SOL     OW 8459   4.041   0.547   3.142
 2815SOL    HW1 8460   4.079   0.488   3.214
 2815SOL    HW2 8461   4.081   0.521   3.054
 2816SOL     OW 8462   4.536   1.586   2.549
 2816SOL    HW1 8463   4.568   1.596   2.455
 2816SOL    HW2 8464   4.457   1.524   2.551
 2817SOL     OW 8465   4.725   0.034   3.016
 2817SOL    HW1 8466   4.662  -0.038   2.985
 2817SOL    HW2 8467   4.818  -0.002   3.016
 2818SOL     OW 8468   4.494   1.330   2.163
 2818SOL    HW1 8469   4.448   1.243   2.180
 2818SOL    HW2 8470   4.585   1.327   2.204
 2819SOL     OW 8471   4.342   1.567   3.146
 2819SOL    HW1 8472   4.337   1.649   3.203
 2819SOL    HW2 8473   4.431   1.564   3.101
 2820SOL     OW 8474   3.763   1.077   2.162
 2820SOL    HW1 8475   3.862   1.066   2.153
 2820SOL    HW2 8476   3.723   0.991   2.194
 2821SOL     OW 8477   4.599   1.646   2.199
 2821SOL    HW1 8478   4.522   1.611   2.145
 2821SOL    HW2 8479   4.567   1.717   2.261
 2822SOL     OW 8480   3.954   0.628   3.837
 2822SOL    HW1 8481   3.861   0.626   3.874
 2822SOL    HW2 8482   3.955   0.589   3.745
 2823SOL     OW 8483   3.949   0.275   4.720
 2823SOL    HW1 8484   3.984   0.258   4.812
 2823SOL    HW2 8485   3.861   0.230   4.708
 2824SOL     OW 8486   3.743   0.368   4.371
 2824SOL    HW1 8487   3.661   0.411   4.410
 2824SOL    HW2 8488   3.715   0.295   4.308
 2825SOL     OW 8489   4.492   1.144   4.747
 2825SOL    HW1 8490   4.414   1.161   4.807
 2825SOL    HW2 8491   4.526   1.231   4.711
 2826SOL     OW 8492   4.409   1.012   4.389
 2826SOL    HW1 8493   4.478   0.996   4.459
 2826SOL    HW2 8494   4.336   1.069   4.427
 2827SOL     OW 8495   3.955   1.713   4.207
 2827SOL    HW1 8496   3.989   1.790   4.261
 2827SOL    HW2 8497   3.999   1.713   4.117
 2828SOL     OW 8498   3.954   1.434   4.262
 2828SOL    HW1 8499   3.928   1.530   4.262
 2828SOL    HW2 8500   3.883   1.380   4.307
 2829SOL     OW 8501   3.964   1.091   4.610
 2829SOL    HW1 8502   3.978   1.007   4.662
 2829SOL    HW2 8503   3.909   1.155   4.665
 2830SOL     OW 8504   4.330   0.964   3.847
 2830SOL    HW1 8505   4.337   1.048   3.793
 2830SOL    HW2 8506   4.376   0.977   3.935
 2831SOL     OW 8507   3.846   0.643   4.287
 2831SOL    HW1 8508   3.801   0.555   4.304
 2831SOL    HW2 8509   3.845   0.697   4.371
 2832SOL     OW 8510   3.751   1.596   3.841
 2832SOL    HW1 8511   3.732   1.500   3.862
 2832SOL    HW2 8512   3.718   1.654   3.916
 2833SOL     OW 8513   4.337   1.365   4.450
 2833SOL    HW1 8514   4.288   1.278   4.459
 2833SOL    HW2 8515   4.314   1.408   4.363
 2834SOL     OW 8516   4.533   0.004   4.226
 2834SOL    HW1 8517   4.573   0.095   4.217
 2834SOL    HW2 8518   4.433   0.012   4.232
 2835SOL     OW 8519   4.322   0.729   3.994
 2835SOL    HW1 8520   4.346   0.798   3.926
 2835SOL    HW2 8521   4.244   0.762   4.048
 2836SOL     OW 8522   3.800   0.811   4.513
 2836SOL    HW1 8523   3.899   0.799   4.522
 2836SOL    HW2 8524   3.776   0.906   4.534
 2837SOL     OW 8525   4.589   0.348   3.919
 2837SOL    HW1 8526   4.648   0.411   3.870
 2837SOL    HW2 8527   4.608   0.254   3.890
 2838SOL     OW 8528   4.075   1.801   4.577
 2838SOL    HW1 8529   4.125   1.715   4.583
 2838SOL    HW2 8530   4.140   1.878   4.574
 2839SOL     OW 8531   4.045   0.943   3.966
 2839SOL    HW1 8532   4.127   0.982   3.924
 2839SOL    HW2 8533   4.018   0.861   3.917
 2840SOL     OW 8534   4.835   1.776   3.961
 2840SOL    HW1 8535   4.775   1.714   4.011
 2840SOL    HW2 8536   4.866   1.732   3.876
 2841SOL     OW 8537   4.188   1.743   4.047
 2841SOL    HW1 8538   4.221   1.782   4.133
 2841SOL    HW2 8539   4.264   1.736   3.982
 2842SOL     OW 8540   4.106   0.700   4.204
 2842SOL    HW1 8541   4.151   0.610   4.201
 2842SOL    HW2 8542   4.012   0.689   4.237
 2843SOL     OW 8543   4.338   0.122   3.841
 2843SOL    HW1 8544   4.436   0.100   3.848
 2843SOL    HW2 8545   4.307   0.105   3.748
 2844SOL     OW 8546   4.527   1.402   4.648
 2844SOL    HW1 8547   4.617   1.416   4.606
 2844SOL    HW2 8548   4.456   1.404   4.577
 2845SOL     OW 8549   4.263   0.064   4.236
 2845SOL    HW1 8550   4.182   0.065   4.294
 2845SOL    HW2 8551   4.266   0.147   4.181
 2846SOL     OW 8552   4.021   0.035   3.895
 2846SOL    HW1 8553   4.070   0.119   3.874
 2846SOL    HW2 8554   4.083  -0.030   3.940
 2847SOL     OW 8555   4.183   1.152   4.465
 2847SOL    HW1 8556   4.112   1.125   4.530
 2847SOL    HW2 8557   4.157   1.124   4.372
 2848SOL     OW 8558   4.212   1.385   3.898
 2848SOL    HW1 8559   4.125   1.370   3.945
 2848SOL    HW2 8560   4.195   1.411   3.803
 2849SOL     OW 8561   4.251   0.256   4.052
 2849SOL    HW1 8562   4.278   0.197   3.977
 2849SOL    HW2 8563   4.251   0.351   4.021
 2850SOL     OW 8564   4.429   1.050   4.092
 2850SOL    HW1 8565   4.415   1.057   4.191
 2850SOL    HW2 8566   4.513   0.999   4.074
 2851SOL     OW 8567   4.091   1.100   4.225
 2851SOL    HW1 8568   4.084   1.183   4.169
 2851SOL    HW2 8569   4.095   1.020   4.165
 2852SOL     OW 8570   4.290   0.537   4.589
 2852SOL    HW1 8571   4.302   0.603   4.515
 2852SOL    HW2 8572   4.336   0.571   4.672
 2853SOL     OW 8573   4.456   0.634   4.788
 2853SOL    HW1 8574   4.515   0.608   4.712
 2853SOL    HW2 8575   4.428   0.730   4.777
 2854SOL     OW 8576   4.031   0.063   4.342
 2854SOL    HW1 8577   4.020   0.157   4.375
 2854SOL    HW2 8578   4.026   0.000   4.419
 2855SOL     OW 8579   4.747   0.766   4.690
 2855SOL    HW1 8580   4.762   0.787   4.786
 2855SOL    HW2 8581   4.717   0.671   4.681
 2856SOL     OW 8582   3.732   1.326   3.924
 2856SOL    HW1 8583   3.639   1.347   3.893
 2856SOL    HW2 8584   3.742   1.227   3.937
 2857SOL     OW 8585   3.812   1.801   4.651
 2857SOL    HW1 8586   3.770   1.715   4.624
 2857SOL    HW2 8587   3.906   1.804   4.617
 2858SOL     OW 8588   4.539   0.572   4.049
 2858SOL    HW1 8589   4.546   0.483   4.003
 2858SOL    HW2 8590   4.445   0.606   4.041
 2859SOL     OW 8591   4.197   0.500   3.915
 2859SOL    HW1 8592   4.258   0.580   3.919
 2859SOL    HW2 8593   4.102   0.531   3.922
 2860SOL     OW 8594   4.627   0.086   3.857
 2860SOL    HW1 8595   4.678   0.087   3.771
 2860SOL    HW2 8596   4.683   0.044   3.928
 2861SOL     OW 8597   4.396   1.616   3.878
 2861SOL    HW1 8598   4.405   1.626   3.779
 2861SOL    HW2 8599   4.356   1.527   3.899
 2862SOL     OW 8600   3.987   0.326   4.444
 2862SOL    HW1 8601   3.908   0.377   4.410
 2862SOL    HW2 8602   3.978   0.311   4.542
 2863SOL     OW 8603   4.314   1.487   4.215
 2863SOL    HW1 8604   4.356   1.429   4.145
 2863SOL    HW2 8605   4.270   1.566   4.171
 2864SOL     OW 8606   3.979   1.348   4.014
 2864SOL    HW1 8607   3.883   1.349   3.987
 2864SOL    HW2 8608   3.991   1.401   4.098
 2865SOL     OW 8609   3.799   0.345   3.757
 2865SOL    HW1 8610   3.707   0.317   3.728
 2865SOL    HW2 8611   3.830   0.422   3.701
 2866SOL     OW 8612   3.796   0.166   4.042
 2866SOL    HW1 8613   3.779   0.249   3.988
 2866SOL    HW2 8614   3.886   0.129   4.020
 2867SOL     OW 8615   4.318   0.745   4.376
 2867SOL    HW1 8616   4.368   0.830   4.357
 2867SOL    HW2 8617   4.230   0.747   4.328
 2868SOL     OW 8618   4.385   1.790   4.677
 2868SOL    HW1 8619   4.339   1.878   4.664
 2868SOL    HW2 8620   4.484   1.802   4.670
 2869SOL     OW 8621   3.803   1.240   4.377
 2869SOL    HW1 8622   3.802   1.193   4.465
 2869SOL    HW2 8623   3.885   1.212   4.326
 2870SOL     OW 8624   4.152   0.424   4.244
 2870SOL    HW1 8625   4.182   0.352   4.182
 2870SOL    HW2 8626   4.113   0.384   4.327
 2871SOL     OW 8627   4.536   1.586   4.411
 2871SOL    HW1 8628   4.568   1.596   4.317
 2871SOL    HW2 8629   4.457   1.524   4.413
 2872SOL     OW 8630   4.494   1.330   4.025
 2872SOL    HW1 8631   4.448   1.243   4.042
 2872SOL    HW2 8632   4.585   1.327   4.066
 2873SOL     OW 8633   3.763   1.077   4.024
 2873SOL    HW1 8634   3.862   1.066   4.015
 2873SOL    HW2 8635   3.723   0.991   4.056
 2874SOL     OW 8636   4.599   1.646   4.061
 2874SOL    HW1 8637   4.522   1.611   4.007
 2874SOL    HW2 8638   4.567   1.717   4.123
 2875SOL     OW 8639   3.954   2.490   0.113
 2875SOL    HW1 8640   3.861   2.488   0.150
 2875SOL    HW2 8641   3.955   2.451   0.021
 2876SOL     OW 8642   3.949   2.137   0.996
 2876SOL    HW1 8643   3.984   2.120   1.088
 2876SOL    HW2 8644   3.861   2.092   0.984
 2877SOL     OW 8645   3.743   2.230   0.647
 2877SOL    HW1 8646   3.661   2.273   0.686
 2877SOL    HW2 8647   3.715   2.157   0.584
 2878SOL     OW 8648   4.293   3.137   1.165
 2878SOL    HW1 8649   4.200   3.130   1.128
 2878SOL    HW2 8650   4.304   3.226   1.209
 2879SOL     OW 8651   4.574   2.660   1.823
 2879SOL    HW1 8652   4.570   2.736   1.888
 2879SOL    HW2 8653   4.596   2.696   1.732
 2880SOL     OW 8654   4.409   2.874   0.665
 2880SOL    HW1 8655   4.478   2.858   0.735
 2880SOL    HW2 8656   4.336   2.931   0.703
 2881SOL     OW 8657   4.410   3.023   1.803
 2881SOL    HW1 8658   4.470   3.102   1.817
 2881SOL    HW2 8659   4.324   3.054   1.762
 2882SOL     OW 8660   4.059   3.297   1.061
 2882SOL    HW1 8661   3.981   3.266   1.008
 2882SOL    HW2 8662   4.117   3.355   1.004
 2883SOL     OW 8663   4.162   2.254   1.499
 2883SOL    HW1 8664   4.244   2.198   1.508
 2883SOL    HW2 8665   4.081   2.196   1.503
 2884SOL     OW 8666   3.955   3.575   0.483
 2884SOL    HW1 8667   3.989   3.652   0.537
 2884SOL    HW2 8668   3.999   3.575   0.393
 2885SOL     OW 8669   3.954   3.296   0.538
 2885SOL    HW1 8670   3.928   3.392   0.538
 2885SOL    HW2 8671   3.883   3.242   0.583
 2886SOL     OW 8672   3.964   2.953   0.886
 2886SOL    HW1 8673   3.978   2.869   0.938
 2886SOL    HW2 8674   3.909   3.017   0.941
 2887SOL     OW 8675   4.344   3.648   1.439
 2887SOL    HW1 8676   4.252   3.631   1.474
 2887SOL    HW2 8677   4.372   3.740   1.465
 2888SOL     OW 8678   4.330   2.826   0.123
 2888SOL    HW1 8679   4.337   2.910   0.069
 2888SOL    HW2 8680   4.376   2.839   0.211
 2889SOL     OW 8681   3.846   2.505   0.563
 2889SOL    HW1 8682   3.801   2.417   0.580
 2889SOL    HW2 8683   3.845   2.559   0.647
 2890SOL     OW 8684   3.751   3.458   0.117
 2890SOL    HW1 8685   3.732   3.362   0.138
 2890SOL    HW2 8686   3.718   3.516   0.192
 2891SOL     OW 8687   3.837   2.599   1.597
 2891SOL    HW1 8688   3.925   2.586   1.642
 2891SOL    HW2 8689   3.824   2.696   1.575
 2892SOL     OW 8690   4.337   3.227   0.726
 2892SOL    HW1 8691   4.288   3.140   0.735
 2892SOL    HW2 8692   4.314   3.270   0.639
 2893SOL     OW 8693   4.533   1.866   0.502
 2893SOL    HW1 8694   4.573   1.957   0.493
 2893SOL    HW2 8695   4.433   1.874   0.508
 2894SOL     OW 8696   3.921   2.838   1.264
 2894SOL    HW1 8697   4.010   2.793   1.250
 2894SOL    HW2 8698   3.848   2.773   1.245
 2895SOL     OW 8699   4.041   2.113   1.801
 2895SOL    HW1 8700   4.112   2.184   1.807
 2895SOL    HW2 8701   3.953   2.152   1.829
 2896SOL     OW 8702   4.322   2.591   0.270
 2896SOL    HW1 8703   4.346   2.660   0.202
 2896SOL    HW2 8704   4.244   2.624   0.324
 2897SOL     OW 8705   4.531   2.467   1.465
 2897SOL    HW1 8706   4.484   2.464   1.554
 2897SOL    HW2 8707   4.480   2.412   1.399
 2898SOL     OW 8708   3.800   2.673   0.789
 2898SOL    HW1 8709   3.899   2.661   0.798
 2898SOL    HW2 8710   3.776   2.768   0.810
 2899SOL     OW 8711   3.854   3.683   1.571
 2899SOL    HW1 8712   3.844   3.668   1.670
 2899SOL    HW2 8713   3.768   3.719   1.535
 2900SOL     OW 8714   4.589   2.210   0.195
 2900SOL    HW1 8715   4.648   2.273   0.146
 2900SOL    HW2 8716   4.608   2.116   0.166
 2901SOL     OW 8717   4.274   2.058   0.885
 2901SOL    HW1 8718   4.269   2.053   0.985
 2901SOL    HW2 8719   4.276   2.154   0.856
 2902SOL     OW 8720   4.075   3.663   0.853
 2902SOL    HW1 8721   4.125   3.577   0.859
 2902SOL    HW2 8722   4.140   3.740   0.850
 2903SOL     OW 8723   4.045   2.805   0.242
 2903SOL    HW1 8724   4.127   2.844   0.200
 2903SOL    HW2 8725   4.018   2.723   0.193
 2904SOL     OW 8726   4.185   3.128   1.727
 2904SOL    HW1 8727   4.135   3.129   1.641
 2904SOL    HW2 8728   4.122   3.110   1.803
 2905SOL     OW 8729   4.835   3.638   0.237
 2905SOL    HW1 8730   4.775   3.576   0.287
 2905SOL    HW2 8731   4.866   3.594   0.152
 2906SOL     OW 8732   3.926   2.147   1.498
 2906SOL    HW1 8733   3.846   2.207   1.485
 2906SOL    HW2 8734   3.916   2.098   1.584
 2907SOL     OW 8735   4.188   3.605   0.323
 2907SOL    HW1 8736   4.221   3.644   0.409
 2907SOL    HW2 8737   4.264   3.598   0.258
 2908SOL     OW 8738   3.973   3.647   1.241
 2908SOL    HW1 8739   4.030   3.582   1.291
 2908SOL    HW2 8740   3.957   3.614   1.148
 2909SOL     OW 8741   4.106   2.562   0.480
 2909SOL    HW1 8742   4.151   2.472   0.477
 2909SOL    HW2 8743   4.012   2.551   0.513
 2910SOL     OW 8744   4.505   2.126   1.749
 2910SOL    HW1 8745   4.572   2.065   1.792
 2910SOL    HW2 8746   4.432   2.145   1.814
 2911SOL     OW 8747   4.527   3.264   0.924
 2911SOL    HW1 8748   4.617   3.278   0.882
 2911SOL    HW2 8749   4.456   3.266   0.853
 2912SOL     OW 8750   4.646   2.365   0.899
 2912SOL    HW1 8751   4.621   2.356   0.803
 2912SOL    HW2 8752   4.694   2.283   0.930
 2913SOL     OW 8753   4.263   1.926   0.512
 2913SOL    HW1 8754   4.182   1.927   0.570
 2913SOL    HW2 8755   4.266   2.009   0.457
 2914SOL     OW 8756   4.021   1.897   0.171
 2914SOL    HW1 8757   4.070   1.981   0.150
 2914SOL    HW2 8758   4.083   1.832   0.216
 2915SOL     OW 8759   4.183   3.014   0.741
 2915SOL    HW1 8760   4.112   2.987   0.806
 2915SOL    HW2 8761   4.157   2.986   0.648
 2916SOL     OW 8762   3.802   2.418   1.386
 2916SOL    HW1 8763   3.894   2.417   1.345
 2916SOL    HW2 8764   3.796   2.492   1.453
 2917SOL     OW 8765   4.285   2.084   1.147
 2917SOL    HW1 8766   4.323   2.000   1.184
 2917SOL    HW2 8767   4.197   2.103   1.191
 2918SOL     OW 8768   4.212   3.247   0.174
 2918SOL    HW1 8769   4.125   3.232   0.221
 2918SOL    HW2 8770   4.195   3.273   0.079
 2919SOL     OW 8771   4.251   2.118   0.328
 2919SOL    HW1 8772   4.278   2.059   0.253
 2919SOL    HW2 8773   4.251   2.213   0.297
 2920SOL     OW 8774   4.639   1.951   1.402
 2920SOL    HW1 8775   4.664   1.931   1.307
 2920SOL    HW2 8776   4.711   2.007   1.444
 2921SOL     OW 8777   4.429   2.912   0.368
 2921SOL    HW1 8778   4.415   2.919   0.467
 2921SOL    HW2 8779   4.513   2.861   0.350
 2922SOL     OW 8780   4.134   2.675   1.251
 2922SOL    HW1 8781   4.220   2.687   1.301
 2922SOL    HW2 8782   4.092   2.588   1.278
 2923SOL     OW 8783   3.788   3.426   1.331
 2923SOL    HW1 8784   3.742   3.508   1.297
 2923SOL    HW2 8785   3.886   3.445   1.340
 2924SOL     OW 8786   4.091   2.962   0.501
 2924SOL    HW1 8787   4.084   3.045   0.445
 2924SOL    HW2 8788   4.095   2.882   0.441
 2925SOL     OW 8789   4.290   2.399   0.865
 2925SOL    HW1 8790   4.302   2.465   0.791
 2925SOL    HW2 8791   4.336   2.433   0.948
 2926SOL     OW 8792   4.078   3.372   1.329
 2926SOL    HW1 8793   4.057   3.328   1.242
 2926SOL    HW2 8794   4.175   3.398   1.332
 2927SOL     OW 8795   4.126   2.613   1.598
 2927SOL    HW1 8796   4.194   2.668   1.551
 2927SOL    HW2 8797   4.166   2.525   1.625
 2928SOL     OW 8798   4.228   1.912   1.740
 2928SOL    HW1 8799   4.186   1.855   1.670
 2928SOL    HW2 8800   4.162   1.981   1.772
 2929SOL     OW 8801   4.297   2.732   1.029
 2929SOL    HW1 8802   4.341   2.821   1.020
 2929SOL    HW2 8803   4.234   2.732   1.106
 2930SOL     OW 8804   4.031   2.075   1.231
 2930SOL    HW1 8805   4.008   2.112   1.321
 2930SOL    HW2 8806   4.001   1.980   1.225
 2931SOL     OW 8807   3.761   3.172   1.282
 2931SOL    HW1 8808   3.814   3.123   1.350
 2931SOL    HW2 8809   3.783   3.270   1.287
 2932SOL     OW 8810   4.456   2.496   1.064
 2932SOL    HW1 8811   4.515   2.470   0.988
 2932SOL    HW2 8812   4.428   2.592   1.053
 2933SOL     OW 8813   4.031   1.925   0.618
 2933SOL    HW1 8814   4.020   2.019   0.651
 2933SOL    HW2 8815   4.026   1.862   0.695
 2934SOL     OW 8816   4.747   2.628   0.966
 2934SOL    HW1 8817   4.762   2.649   1.062
 2934SOL    HW2 8818   4.717   2.533   0.957
 2935SOL     OW 8819   4.704   3.435   1.700
 2935SOL    HW1 8820   4.684   3.479   1.612
 2935SOL    HW2 8821   4.743   3.344   1.684
 2936SOL     OW 8822   4.074   2.760   1.804
 2936SOL    HW1 8823   4.150   2.804   1.852
 2936SOL    HW2 8824   4.109   2.713   1.722
 2937SOL     OW 8825   4.043   2.672   0.949
 2937SOL    HW1 8826   4.136   2.708   0.954
 2937SOL    HW2 8827   4.037   2.587   1.001
 2938SOL     OW 8828   4.063   2.371   1.006
 2938SOL    HW1 8829   4.011   2.288   0.989
 2938SOL    HW2 8830   4.140   2.376   0.942
 2939SOL     OW 8831   3.732   3.188   0.200
 2939SOL    HW1 8832   3.639   3.209   0.169
 2939SOL    HW2 8833   3.742   3.089   0.213
 2940SOL     OW 8834   3.812   3.663   0.927
 2940SOL    HW1 8835   3.770   3.577   0.900
 2940SOL    HW2 8836   3.906   3.666   0.893
 2941SOL     OW 8837   4.228   3.430   0.910
 2941SOL    HW1 8838   4.294   3.504   0.919
 2941SOL    HW2 8839   4.272   3.351   0.868
 2942SOL     OW 8840   3.764   2.406   1.114
 2942SOL    HW1 8841   3.849   2.373   1.073
 2942SOL    HW2 8842   3.777   2.421   1.212
 2943SOL     OW 8843   3.913   2.382   1.722
 2943SOL    HW1 8844   3.972   2.342   1.652
 2943SOL    HW2 8845   3.855   2.453   1.681
 2944SOL     OW 8846   4.539   2.434   0.325
 2944SOL    HW1 8847   4.546   2.345   0.279
 2944SOL    HW2 8848   4.445   2.468   0.317
 2945SOL     OW 8849   3.976   3.426   1.744
 2945SOL    HW1 8850   3.946   3.483   1.820
 2945SOL    HW2 8851   3.969   3.329   1.770
 2946SOL     OW 8852   4.395   2.326   1.269
 2946SOL    HW1 8853   4.361   2.237   1.239
 2946SOL    HW2 8854   4.421   2.380   1.189
 2947SOL     OW 8855   4.197   2.362   0.191
 2947SOL    HW1 8856   4.258   2.442   0.195
 2947SOL    HW2 8857   4.102   2.393   0.198
 2948SOL     OW 8858   3.883   2.999   1.466
 2948SOL    HW1 8859   3.905   2.938   1.542
 2948SOL    HW2 8860   3.893   2.950   1.380
 2949SOL     OW 8861   3.807   3.120   1.022
 2949SOL    HW1 8862   3.802   3.119   1.122
 2949SOL    HW2 8863   3.724   3.079   0.984
 2950SOL     OW 8864   4.412   3.524   1.716
 2950SOL    HW1 8865   4.356   3.605   1.725
 2950SOL    HW2 8866   4.464   3.528   1.630
 2951SOL     OW 8867   4.627   1.948   0.133
 2951SOL    HW1 8868   4.678   1.949   0.047
 2951SOL    HW2 8869   4.683   1.906   0.204
 2952SOL     OW 8870   3.854   3.656   1.851
 2952SOL    HW1 8871   3.813   3.582   1.904
 2952SOL    HW2 8872   3.918   3.707   1.909
 2953SOL     OW 8873   4.554   3.135   1.422
 2953SOL    HW1 8874   4.549   3.168   1.517
 2953SOL    HW2 8875   4.468   3.154   1.376
 2954SOL     OW 8876   4.396   3.478   0.154
 2954SOL    HW1 8877   4.405   3.488   0.055
 2954SOL    HW2 8878   4.356   3.389   0.175
 2955SOL     OW 8879   3.987   2.188   0.720
 2955SOL    HW1 8880   3.908   2.239   0.686
 2955SOL    HW2 8881   3.978   2.173   0.818
 2956SOL     OW 8882   4.918   3.474   0.031
 2956SOL    HW1 8883   4.924   3.381   0.068
 2956SOL    HW2 8884   4.859   3.474  -0.049
 2957SOL     OW 8885   4.546   2.864   1.372
 2957SOL    HW1 8886   4.586   2.863   1.280
 2957SOL    HW2 8887   4.556   2.956   1.412
 2958SOL     OW 8888   4.096   3.150   1.490
 2958SOL    HW1 8889   4.083   3.243   1.456
 2958SOL    HW2 8890   4.012   3.098   1.477
 2959SOL     OW 8891   4.314   3.349   0.491
 2959SOL    HW1 8892   4.356   3.291   0.421
 2959SOL    HW2 8893   4.270   3.428   0.447
 2960SOL     OW 8894   3.979   3.210   0.290
 2960SOL    HW1 8895   3.883   3.211   0.263
 2960SOL    HW2 8896   3.991   3.263   0.374
 2961SOL     OW 8897   3.829   2.875   1.726
 2961SOL    HW1 8898   3.752   2.842   1.780
 2961SOL    HW2 8899   3.914   2.845   1.768
 2962SOL     OW 8900   4.396   2.065   1.489
 2962SOL    HW1 8901   4.486   2.049   1.449
 2962SOL    HW2 8902   4.404   2.070   1.588
 2963SOL     OW 8903   3.796   2.028   0.318
 2963SOL    HW1 8904   3.779   2.111   0.264
 2963SOL    HW2 8905   3.886   1.991   0.296
 2964SOL     OW 8906   4.337   2.704   1.431
 2964SOL    HW1 8907   4.393   2.785   1.414
 2964SOL    HW2 8908   4.396   2.624   1.434
 2965SOL     OW 8909   4.440   2.427   1.708
 2965SOL    HW1 8910   4.459   2.492   1.782
 2965SOL    HW2 8911   4.500   2.347   1.717
 2966SOL     OW 8912   4.114   3.603   1.560
 2966SOL    HW1 8913   4.023   3.644   1.558
 2966SOL    HW2 8914   4.107   3.509   1.592
 2967SOL     OW 8915   4.318   2.607   0.652
 2967SOL    HW1 8916   4.368   2.692   0.633
 2967SOL    HW2 8917   4.230   2.609   0.604
 2968SOL     OW 8918   4.385   3.652   0.953
 2968SOL    HW1 8919   4.339   3.740   0.940
 2968SOL    HW2 8920   4.484   3.664   0.946
 2969SOL     OW 8921   3.945   3.176   1.844
 2969SOL    HW1 8922   3.880   3.103   1.823
 2969SOL    HW2 8923   3.949   3.190   1.942
 2970SOL     OW 8924   3.803   3.102   0.653
 2970SOL    HW1 8925   3.802   3.055   0.741
 2970SOL    HW2 8926   3.885   3.074   0.602
 2971SOL     OW 8927   4.396   3.253   1.624
 2971SOL    HW1 8928   4.318   3.203   1.662
 2971SOL    HW2 8929   4.393   3.348   1.655
 2972SOL     OW 8930   4.152   2.286   0.520
 2972SOL    HW1 8931   4.182   2.214   0.458
 2972SOL    HW2 8932   4.113   2.246   0.603
 2973SOL     OW 8933   4.041   2.409   1.280
 2973SOL    HW1 8934   4.079   2.350   1.352
 2973SOL    HW2 8935   4.081   2.383   1.192
 2974SOL     OW 8936   4.536   3.448   0.687
 2974SOL    HW1 8937   4.568   3.458   0.593
 2974SOL    HW2 8938   4.457   3.386   0.689
 2975SOL     OW 8939   4.494   3.192   0.301
 2975SOL    HW1 8940   4.448   3.105   0.318
 2975SOL    HW2 8941   4.585   3.189   0.342
 2976SOL     OW 8942   4.342   3.429   1.284
 2976SOL    HW1 8943   4.337   3.511   1.341
 2976SOL    HW2 8944   4.431   3.426   1.239
 2977SOL     OW 8945   3.763   2.939   0.300
 2977SOL    HW1 8946   3.862   2.928   0.291
 2977SOL    HW2 8947   3.723   2.853   0.332
 2978SOL     OW 8948   4.599   3.508   0.337
 2978SOL    HW1 8949   4.522   3.473   0.283
 2978SOL    HW2 8950   4.567   3.579   0.399
 2979SOL     OW 8951   3.954   2.490   1.975
 2979SOL    HW1 8952   3.861   2.488   2.012
 2979SOL    HW2 8953   3.955   2.451   1.883
 2980SOL     OW 8954   3.949   2.137   2.858
 2980SOL    HW1 8955   3.984   2.120   2.950
 2980SOL    HW2 8956   3.861   2.092   2.846
 2981SOL     OW 8957   3.743   2.230   2.509
 2981SOL    HW1 8958   3.661   2.273   2.548
 2981SOL    HW2 8959   3.715   2.157   2.446
 2982SOL     OW 8960   4.293   3.137   3.027
 2982SOL    HW1 8961   4.200   3.130   2.990
 2982SOL    HW2 8962   4.304   3.226   3.071
 2983SOL     OW 8963   4.574   2.660   3.685
 2983SOL    HW1 8964   4.570   2.736   3.750
 2983SOL    HW2 8965   4.596   2.696   3.594
 2984SOL     OW 8966   4.409   2.874   2.527
 2984SOL    HW1 8967   4.478   2.858   2.597
 2984SOL    HW2 8968   4.336   2.931   2.565
 2985SOL     OW 8969   4.410   3.023   3.665
 2985SOL    HW1 8970   4.470   3.102   3.679
 2985SOL    HW2 8971   4.324   3.054   3.624
 2986SOL     OW 8972   4.059   3.297   2.923
 2986SOL    HW1 8973   3.981   3.266   2.870
 2986SOL    HW2 8974   4.117   3.355   2.866
 2987SOL     OW 8975   4.162   2.254   3.361
 2987SOL    HW1 8976   4.244   2.198   3.370
 2987SOL    HW2 8977   4.081   2.196   3.365
 2988SOL     OW 8978   3.955   3.575   2.345
 2988SOL    HW1 8979   3.989   3.652   2.399
 2988SOL    HW2 8980   3.999   3.575   2.255
 2989SOL     OW 8981   3.954   3.296   2.400
 2989SOL    HW1 8982   3.928   3.392   2.400
 2989SOL    HW2 8983   3.883   3.242   2.445
 2990SOL     OW 8984   3.964   2.953   2.748
 2990SOL    HW1 8985   3.978   2.869   2.800
 2990SOL    HW2 8986   3.909   3.017   2.803
 2991SOL     OW 8987   4.344   3.648   3.301
 2991SOL    HW1 8988   4.252   3.631   3.336
 2991SOL    HW2 8989   4.372   3.740   3.327
 2992SOL     OW 8990   4.330   2.826   1.985
 2992SOL    HW1 8991   4.337   2.910   1.931
 2992SOL    HW2 8992   4.376   2.839   2.073
 2993SOL     OW 8993   3.846   2.505   2.425
 2993SOL    HW1 8994   3.801   2.417   2.442
 2993SOL    HW2 8995   3.845   2.559   2.509
 2994SOL     OW 8996   3.751   3.458   1.979
 2994SOL    HW1 8997   3.732   3.362   2.000
 2994SOL    HW2 8998   3.718   3.516   2.054
 2995SOL     OW 8999   3.837   2.599   3.459
 2995SOL    HW1 9000   3.925   2.586   3.504
 2995SOL    HW2 9001   3.824   2.696   3.437
 2996SOL     OW 9002   4.337   3.227   2.588
 2996SOL    HW1 9003   4.288   3.140   2.597
 2996SOL    HW2 9004   4.314   3.270   2.501
 2997SOL     OW 9005   4.533   1.866   2.364
 2997SOL    HW1 9006   4.573   1.957   2.355
 2997SOL    HW2 9007   4.433   1.874   2.370
 2998SOL     OW 9008   3.921   2.838   3.126
 2998SOL    HW1 9009   4.010   2.793   3.112
 2998SOL    HW2 9010   3.848   2.773   3.107
 2999SOL     OW 9011   4.041   2.113   3.663
 2999SOL    HW1 9012   4.112   2.184   3.669
 2999SOL    HW2 9013   3.953   2.152   3.691
 3000SOL     OW 9014   4.322   2.591   2.132
 3000SOL    HW1 9015   4.346   2.660   2.064
 3000SOL    HW2 9016   4.244   2.624   2.186
 3001SOL     OW 9017   4.531   2.467   3.327
 3001SOL    HW1 9018   4.484   2.464   3.416
 3001SOL    HW2 9019   4.480   2.412   3.261
 3002SOL     OW 9020   3.800   2.673   2.651
 3002SOL    HW1 9021   3.899   2.661   2.660
 3002SOL    HW2 9022   3.776   2.768   2.672
 3003SOL     OW 9023   3.854   3.683   3.433
 3003SOL    HW1 9024   3.844   3.668   3.532
 3003SOL    HW2 9025   3.768   3.719   3.397
 3004SOL     OW 9026   4.589   2.210   2.057
 3004SOL    HW1 9027   4.648   2.273   2.008
 3004SOL    HW2 9028   4.608   2.116   2.028
 3005SOL     OW 9029   4.274   2.058   2.747
 3005SOL    HW1 9030   4.269   2.053   2.847
 3005SOL    HW2 9031   4.276   2.154   2.718
 3006SOL     OW 9032   4.075   3.663   2.715
 3006SOL    HW1 9033   4.125   3.577   2.721
 3006SOL    HW2 9034   4.140   3.740   2.712
 3007SOL     OW 9035   4.045   2.805   2.104
 3007SOL    HW1 9036   4.127   2.844   2.062
 3007SOL    HW2 9037   4.018   2.723   2.055
 3008SOL     OW 9038   4.185   3.128   3.589
 3008SOL    HW1 9039   4.135   3.129   3.503
 3008SOL    HW2 9040   4.122   3.110   3.665
 3009SOL     OW 9041   4.835   3.638   2.099
 3009SOL    HW1 9042   4.775   3.576   2.149
 3009SOL    HW2 9043   4.866   3.594   2.014
 3010SOL     OW 9044   3.926   2.147   3.360
 3010SOL    HW1 9045   3.846   2.207   3.347
 3010SOL    HW2 9046   3.916   2.098   3.446
 3011SOL     OW 9047   4.188   3.605   2.185
 3011SOL    HW1 9048   4.221   3.644   2.271
 3011SOL    HW2 9049   4.264   3.598   2.120
 3012SOL     OW 9050   3.973   3.647   3.103
 3012SOL    HW1 9051   4.030   3.582   3.153
 3012SOL    HW2 9052   3.957   3.614   3.010
 3013SOL     OW 9053   4.106   2.562   2.342
 3013SOL    HW1 9054   4.151   2.472   2.339
 3013SOL    HW2 9055   4.012   2.551   2.375
 3014SOL     OW 9056   4.338   1.984   1.979
 3014SOL    HW1 9057   4.436   1.962   1.986
 3014SOL    HW2 9058   4.307   1.967   1.886
 3015SOL     OW 9059   4.505   2.126   3.611
 3015SOL    HW1 9060   4.572   2.065   3.654
 3015SOL    HW2 9061   4.432   2.145   3.676
 3016SOL     OW 9062   4.527   3.264   2.786
 3016SOL    HW1 9063   4.617   3.278   2.744
 3016SOL    HW2 9064   4.456   3.266   2.715
 3017SOL     OW 9065   4.646   2.365   2.761
 3017SOL    HW1 9066   4.621   2.356   2.665
 3017SOL    HW2 9067   4.694   2.283   2.792
 3018SOL     OW 9068   4.263   1.926   2.374
 3018SOL    HW1 9069   4.182   1.927   2.432
 3018SOL    HW2 9070   4.266   2.009   2.319
 3019SOL     OW 9071   4.021   1.897   2.033
 3019SOL    HW1 9072   4.070   1.981   2.012
 3019SOL    HW2 9073   4.083   1.832   2.078
 3020SOL     OW 9074   4.183   3.014   2.603
 3020SOL    HW1 9075   4.112   2.987   2.668
 3020SOL    HW2 9076   4.157   2.986   2.510
 3021SOL     OW 9077   3.802   2.418   3.248
 3021SOL    HW1 9078   3.894   2.417   3.207
 3021SOL    HW2 9079   3.796   2.492   3.315
 3022SOL     OW 9080   4.285   2.084   3.009
 3022SOL    HW1 9081   4.323   2.000   3.046
 3022SOL    HW2 9082   4.197   2.103   3.053
 3023SOL     OW 9083   4.212   3.247   2.036
 3023SOL    HW1 9084   4.125   3.232   2.083
 3023SOL    HW2 9085   4.195   3.273   1.941
 3024SOL     OW 9086   4.251   2.118   2.190
 3024SOL    HW1 9087   4.278   2.059   2.115
 3024SOL    HW2 9088   4.251   2.213   2.159
 3025SOL     OW 9089   4.639   1.951   3.264
 3025SOL    HW1 9090   4.664   1.931   3.169
 3025SOL    HW2 9091   4.711   2.007   3.306
 3026SOL     OW 9092   4.429   2.912   2.230
 3026SOL    HW1 9093   4.415   2.919   2.329
 3026SOL    HW2 9094   4.513   2.861   2.212
 3027SOL     OW 9095   4.134   2.675   3.113
 3027SOL    HW1 9096   4.220   2.687   3.163
 3027SOL    HW2 9097   4.092   2.588   3.140
 3028SOL     OW 9098   3.788   3.426   3.193
 3028SOL    HW1 9099   3.742   3.508   3.159
 3028SOL    HW2 9100   3.886   3.445   3.202
 3029SOL     OW 9101   4.091   2.962   2.363
 3029SOL    HW1 9102   4.084   3.045   2.307
 3029SOL    HW2 9103   4.095   2.882   2.303
 3030SOL     OW 9104   4.290   2.399   2.727
 3030SOL    HW1 9105   4.302   2.465   2.653
 3030SOL    HW2 9106   4.336   2.433   2.810
 3031SOL     OW 9107   4.078   3.372   3.191
 3031SOL    HW1 9108   4.057   3.328   3.104
 3031SOL    HW2 9109   4.175   3.398   3.194
 3032SOL     OW 9110   4.126   2.613   3.460
 3032SOL    HW1 9111   4.194   2.668   3.413
 3032SOL    HW2 9112   4.166   2.525   3.487
 3033SOL     OW 9113   4.228   1.912   3.602
 3033SOL    HW1 9114   4.186   1.855   3.532
 3033SOL    HW2 9115   4.162   1.981   3.634
 3034SOL     OW 9116   4.297   2.732   2.891
 3034SOL    HW1 9117   4.341   2.821   2.882
 3034SOL    HW2 9118   4.234   2.732   2.968
 3035SOL     OW 9119   4.031   2.075   3.093
 3035SOL    HW1 9120   4.008   2.112   3.183
 3035SOL    HW2 9121   4.001   1.980   3.087
 3036SOL     OW 9122   3.761   3.172   3.144
 3036SOL    HW1 9123   3.814   3.123   3.212
 3036SOL    HW2 9124   3.783   3.270   3.149
 3037SOL     OW 9125   4.456   2.496   2.926
 3037SOL    HW1 9126   4.515   2.470   2.850
 3037SOL    HW2 9127   4.428   2.592   2.915
 3038SOL     OW 9128   4.031   1.925   2.480
 3038SOL    HW1 9129   4.020   2.019   2.513
 3038SOL    HW2 9130   4.026   1.862   2.557
 3039SOL     OW 9131   4.747   2.628   2.828
 3039SOL    HW1 9132   4.762   2.649   2.924
 3039SOL    HW2 9133   4.717   2.533   2.819
 3040SOL     OW 9134   4.704   3.435   3.562
 3040SOL    HW1 9135   4.684   3.479   3.474
 3040SOL    HW2 9136   4.743   3.344   3.546
 3041SOL     OW 9137   4.074   2.760   3.666
 3041SOL    HW1 9138   4.150   2.804   3.714
 3041SOL    HW2 9139   4.109   2.713   3.584
 3042SOL     OW 9140   4.043   2.672   2.811
 3042SOL    HW1 9141   4.136   2.708   2.816
 3042SOL    HW2 9142   4.037   2.587   2.863
 3043SOL     OW 9143   4.063   2.371   2.868
 3043SOL    HW1 9144   4.011   2.288   2.851
 3043SOL    HW2 9145   4.140   2.376   2.804
 3044SOL     OW 9146   3.732   3.188   2.062
 3044SOL    HW1 9147   3.639   3.209   2.031
 3044SOL    HW2 9148   3.742   3.089   2.075
 3045SOL     OW 9149   3.812   3.663   2.789
 3045SOL    HW1 9150   3.770   3.577   2.762
 3045SOL    HW2 9151   3.906   3.666   2.755
 3046SOL     OW 9152   4.228   3.430   2.772
 3046SOL    HW1 9153   4.294   3.504   2.781
 3046SOL    HW2 9154   4.272   3.351   2.730
 3047SOL     OW 9155   3.764   2.406   2.976
 3047SOL    HW1 9156   3.849   2.373   2.935
 3047SOL    HW2 9157   3.777   2.421   3.074
 3048SOL     OW 9158   3.913   2.382   3.584
 3048SOL    HW1 9159   3.972   2.342   3.514
 3048SOL    HW2 9160   3.855   2.453   3.543
 3049SOL     OW 9161   4.539   2.434   2.187
 3049SOL    HW1 9162   4.546   2.345   2.141
 3049SOL    HW2 9163   4.445   2.468   2.179
 3050SOL     OW 9164   3.976   3.426   3.606
 3050SOL    HW1 9165   3.946   3.483   3.682
 3050SOL    HW2 9166   3.969   3.329   3.632
 3051SOL     OW 9167   4.395   2.326   3.131
 3051SOL    HW1 9168   4.361   2.237   3.101
 3051SOL    HW2 9169   4.421   2.380   3.051
 3052SOL     OW 9170   4.197   2.362   2.053
 3052SOL    HW1 9171   4.258   2.442   2.057
 3052SOL    HW2 9172   4.102   2.393   2.060
 3053SOL     OW 9173   3.883   2.999   3.328
 3053SOL    HW1 9174   3.905   2.938   3.404
 3053SOL    HW2 9175   3.893   2.950   3.242
 3054SOL     OW 9176   3.807   3.120   2.884
 3054SOL    HW1 9177   3.802   3.119   2.984
 3054SOL    HW2 9178   3.724   3.079   2.846
 3055SOL     OW 9179   4.412   3.524   3.578
 3055SOL    HW1 9180   4.356   3.605   3.587
 3055SOL    HW2 9181   4.464   3.528   3.492
 3056SOL     OW 9182   4.627   1.948   1.995
 3056SOL    HW1 9183   4.678   1.949   1.909
 3056SOL    HW2 9184   4.683   1.906   2.066
 3057SOL     OW 9185   3.854   3.656   3.713
 3057SOL    HW1 9186   3.813   3.582   3.766
 3057SOL    HW2 9187   3.918   3.707   3.771
 3058SOL     OW 9188   4.554   3.135   3.284
 3058SOL    HW1 9189   4.549   3.168   3.379
 3058SOL    HW2 9190   4.468   3.154   3.238
 3059SOL     OW 9191   4.396   3.478   2.016
 3059SOL    HW1 9192   4.405   3.488   1.917
 3059SOL    HW2 9193   4.356   3.389   2.037
 3060SOL     OW 9194   3.987   2.188   2.582
 3060SOL    HW1 9195   3.908   2.239   2.548
 3060SOL    HW2 9196   3.978   2.173   2.680
 3061SOL     OW 9197   4.546   2.864   3.234
 3061SOL    HW1 9198   4.586   2.863   3.142
 3061SOL    HW2 9199   4.556   2.956   3.274
 3062SOL     OW 9200   4.096   3.150   3.352
 3062SOL    HW1 9201   4.083   3.243   3.318
 3062SOL    HW2 9202   4.012   3.098   3.339
 3063SOL     OW 9203   4.314   3.349   2.353
 3063SOL    HW1 9204   4.356   3.291   2.283
 3063SOL    HW2 9205   4.270   3.428   2.309
 3064SOL     OW 9206   3.979   3.210   2.152
 3064SOL    HW1 9207   3.883   3.211   2.125
 3064SOL    HW2 9208   3.991   3.263   2.236
 3065SOL     OW 9209   3.829   2.875   3.588
 3065SOL    HW1 9210   3.752   2.842   3.642
 3065SOL    HW2 9211   3.914   2.845   3.630
 3066SOL     OW 9212   4.396   2.065   3.351
 3066SOL    HW1 9213   4.486   2.049   3.311
 3066SOL    HW2 9214   4.404   2.070   3.450
 3067SOL     OW 9215   3.799   2.207   1.895
 3067SOL    HW1 9216   3.707   2.179   1.866
 3067SOL    HW2 9217   3.830   2.284   1.839
 3068SOL     OW 9218   3.796   2.028   2.180
 3068SOL    HW1 9219   3.779   2.111   2.126
 3068SOL    HW2 9220   3.886   1.991   2.158
 3069SOL     OW 9221   4.337   2.704   3.293
 3069SOL    HW1 9222   4.393   2.785   3.276
 3069SOL    HW2 9223   4.396   2.624   3.296
 3070SOL     OW 9224   4.440   2.427   3.570
 3070SOL    HW1 9225   4.459   2.492   3.644
 3070SOL    HW2 9226   4.500   2.347   3.579
 3071SOL     OW 9227   4.114   3.603   3.422
 3071SOL    HW1 9228   4.023   3.644   3.420
 3071SOL    HW2 9229   4.107   3.509   3.454
 3072SOL     OW 9230   4.318   2.607   2.514
 3072SOL    HW1 9231   4.368   2.692   2.495
 3072SOL    HW2 9232   4.230   2.609   2.466
 3073SOL     OW 9233   4.385   3.652   2.815
 3073SOL    HW1 9234   4.339   3.740   2.802
 3073SOL    HW2 9235   4.484   3.664   2.808
 3074SOL     OW 9236   3.945   3.176   3.706
 3074SOL    HW1 9237   3.880   3.103   3.685
 3074SOL    HW2 9238   3.949   3.190   3.804
 3075SOL     OW 9239   3.803   3.102   2.515
 3075SOL    HW1 9240   3.802   3.055   2.603
 3075SOL    HW2 9241   3.885   3.074   2.464
 3076SOL     OW 9242   4.396   3.253   3.486
 3076SOL    HW1 9243   4.318   3.203   3.524
 3076SOL    HW2 9244   4.393   3.348   3.517
 3077SOL     OW 9245   4.152   2.286   2.382
 3077SOL    HW1 9246   4.182   2.214   2.320
 3077SOL    HW2 9247   4.113   2.246   2.465
 3078SOL     OW 9248   4.041   2.409   3.142
 3078SOL    HW1 9249   4.079   2.350   3.214
 3078SOL    HW2 9250   4.081   2.383   3.054
 3079SOL     OW 9251   4.536   3.448   2.549
 3079SOL    HW1 9252   4.568   3.458   2.455
 3079SOL    HW2 9253   4.457   3.386   2.551
 3080SOL     OW 9254   4.494   3.192   2.163
 3080SOL    HW1 9255   4.448   3.105   2.180
 3080SOL    HW2 9256   4.585   3.189   2.204
 3081SOL     OW 9257   4.342   3.429   3.146
 3081SOL    HW1 9258   4.337   3.511   3.203
 3081SOL    HW2 9259   4.431   3.426   3.101
 3082SOL     OW 9260   3.763   2.939   2.162
 3082SOL    HW1 9261   3.862   2.928   2.153
 3082SOL    HW2 9262   3.723   2.853   2.194
 3083SOL     OW 9263   4.599   3.508   2.199
 3083SOL    HW1 9264   4.522   3.473   2.145
 3083SOL    HW2 9265   4.567   3.579   2.261
 3084SOL     OW 9266   3.954   2.490   3.837
 3084SOL    HW1 9267   3.861   2.488   3.874
 3084SOL    HW2 9268   3.955   2.451   3.745
 3085SOL     OW 9269   3.949   2.137   4.720
 3085SOL    HW1 9270   3.984   2.120   4.812
 3085SOL    HW2 9271   3.861   2.092   4.708
 3086SOL     OW 9272   3.743   2.230   4.371
 3086SOL    HW1 9273   3.661   2.273   4.410
 3086SOL    HW2 9274   3.715   2.157   4.308
 3087SOL     OW 9275   4.492   3.006   4.747
 3087SOL    HW1 9276   4.414   3.023   4.807
 3087SOL    HW2 9277   4.526   3.093   4.711
 3088SOL     OW 9278   4.409   2.874   4.389
 3088SOL    HW1 9279   4.478   2.858   4.459
 3088SOL    HW2 9280   4.336   2.931   4.427
 3089SOL     OW 9281   3.955   3.575   4.207
 3089SOL    HW1 9282   3.989   3.652   4.261
 3089SOL    HW2 9283   3.999   3.575   4.117
 3090SOL     OW 9284   3.954   3.296   4.262
 3090SOL    HW1 9285   3.928   3.392   4.262
 3090SOL    HW2 9286   3.883   3.242   4.307
 3091SOL     OW 9287   3.964   2.953   4.610
 3091SOL    HW1 9288   3.978   2.869   4.662
 3091SOL    HW2 9289   3.909   3.017   4.665
 3092SOL     OW 9290   4.330   2.826   3.847
 3092SOL    HW1 9291   4.337   2.910   3.793
 3092SOL    HW2 9292   4.376   2.839   3.935
 3093SOL     OW 9293   3.846   2.505   4.287
 3093SOL    HW1 9294   3.801   2.417   4.304
 3093SOL    HW2 9295   3.845   2.559   4.371
 3094SOL     OW 9296   3.751   3.458   3.841
 3094SOL    HW1 9297   3.732   3.362   3.862
 3094SOL    HW2 9298   3.718   3.516   3.916
 3095SOL     OW 9299   4.337   3.227   4.450
 3095SOL    HW1 9300   4.288   3.140   4.459
 3095SOL    HW2 9301   4.314   3.270   4.363
 3096SOL     OW 9302   4.533   1.866   4.226
 3096SOL    HW1 9303   4.573   1.957   4.217
 3096SOL    HW2 9304   4.433   1.874   4.232
 3097SOL     OW 9305   4.322   2.591   3.994
 3097SOL    HW1 9306   4.346   2.660   3.926
 3097SOL    HW2 9307   4.244   2.624   4.048
 3098SOL     OW 9308   3.800   2.673   4.513
 3098SOL    HW1 9309   3.899   2.661   4.522
 3098SOL    HW2 9310   3.776   2.768   4.534
 3099SOL     OW 9311   4.589   2.210   3.919
 3099SOL    HW1 9312   4.648   2.273   3.870
 3099SOL    HW2 9313   4.608   2.116   3.890
 3100SOL     OW 9314   4.274   2.058   4.609
 3100SOL    HW1 9315   4.269   2.053   4.709
 3100SOL    HW2 9316   4.276   2.154   4.580
 3101SOL     OW 9317   4.075   3.663   4.577
 3101SOL    HW1 9318   4.125   3.577   4.583
 3101SOL    HW2 9319   4.140   3.740   4.574
 3102SOL     OW 9320   4.045   2.805   3.966
 3102SOL    HW1 9321   4.127   2.844   3.924
 3102SOL    HW2 9322   4.018   2.723   3.917
 3103SOL     OW 9323   4.835   3.638   3.961
 3103SOL    HW1 9324   4.775   3.576   4.011
 3103SOL    HW2 9325   4.866   3.594   3.876
 3104SOL     OW 9326   4.188   3.605   4.047
 3104SOL    HW1 9327   4.221   3.644   4.133
 3104SOL    HW2 9328   4.264   3.598   3.982
 3105SOL     OW 9329   4.106   2.562   4.204
 3105SOL    HW1 9330   4.151   2.472   4.201
 3105SOL    HW2 9331   4.012   2.551   4.237
 3106SOL     OW 9332   4.338   1.984   3.841
 3106SOL    HW1 9333   4.436   1.962   3.848
 3106SOL    HW2 9334   4.307   1.967   3.748
 3107SOL     OW 9335   4.527   3.264   4.648
 3107SOL    HW1 9336   4.617   3.278   4.606
 3107SOL    HW2 9337   4.456   3.266   4.577
 3108SOL     OW 9338   4.263   1.926   4.236
 3108SOL    HW1 9339   4.182   1.927   4.294
 3108SOL    HW2 9340   4.266   2.009   4.181
 3109SOL     OW 9341   4.021   1.897   3.895
 3109SOL    HW1 9342   4.070   1.981   3.874
 3109SOL    HW2 9343   4.083   1.832   3.940
 3110SOL     OW 9344   4.183   3.014   4.465
 3110SOL    HW1 9345   4.112   2.987   4.530
 3110SOL    HW2 9346   4.157   2.986   4.372
 3111SOL     OW 9347   4.212   3.247   3.898
 3111SOL    HW1 9348   4.125   3.232   3.945
 3111SOL    HW2 9349   4.195   3.273   3.803
 3112SOL     OW 9350   4.251   2.118   4.052
 3112SOL    HW1 9351   4.278   2.059   3.977
 3112SOL    HW2 9352   4.251   2.213   4.021
 3113SOL     OW 9353   4.429   2.912   4.092
 3113SOL    HW1 9354   4.415   2.919   4.191
 3113SOL    HW2 9355   4.513   2.861   4.074
 3114SOL     OW 9356   4.091   2.962   4.225
 3114SOL    HW1 9357   4.084   3.045   4.169
 3114SOL    HW2 9358   4.095   2.882   4.165
 3115SOL     OW 9359   4.290   2.399   4.589
 3115SOL    HW1 9360   4.302   2.465   4.515
 3115SOL    HW2 9361   4.336   2.433   4.672
 3116SOL     OW 9362   4.456   2.496   4.788
 3116SOL    HW1 9363   4.515   2.470   4.712
 3116SOL    HW2 9364   4.428   2.592   4.777
 3117SOL     OW 9365   4.031   1.925   4.342
 3117SOL    HW1 9366   4.020   2.019   4.375
 3117SOL    HW2 9367   4.026   1.862   4.419
 3118SOL     OW 9368   4.747   2.628   4.690
 3118SOL    HW1 9369   4.762   2.649   4.786
 3118SOL    HW2 9370   4.717   2.533   4.681
 3119SOL     OW 9371   3.732   3.188   3.924
 3119SOL    HW1 9372   3.639   3.209   3.893
 3119SOL    HW2 9373   3.742   3.089   3.937
 3120SOL     OW 9374   3.812   3.663   4.651
 3120SOL    HW1 9375   3.770   3.577   4.624
 3120SOL    HW2 9376   3.906   3.666   4.617
 3121SOL     OW 9377   4.539   2.434   4.049
 3121SOL    HW1 9378   4.546   2.345   4.003
 3121SOL    HW2 9379   4.445   2.468   4.041
 3122SOL     OW 9380   4.197   2.362   3.915
 3122SOL    HW1 9381   4.258   2.442   3.919
 3122SOL    HW2 9382   4.102   2.393   3.922
 3123SOL     OW 9383   4.627   1.948   3.857
 3123SOL    HW1 9384   4.678   1.949   3.771
 3123SOL    HW2 9385   4.683   1.906   3.928
 3124SOL     OW 9386   4.396   3.478   3.878
 3124SOL    HW1 9387   4.405   3.488   3.779
 3124SOL    HW2 9388   4.356   3.389   3.899
 3125SOL     OW 9389   3.987   2.188   4.444
 3125SOL    HW1 9390   3.908   2.239   4.410
 3125SOL    HW2 9391   3.978   2.173   4.542
 3126SOL     OW 9392   4.314   3.349   4.215
 3126SOL    HW1 9393   4.356   3.291   4.145
 3126SOL    HW2 9394   4.270   3.428   4.171
 3127SOL     OW 9395   3.979   3.210   4.014
 3127SOL    HW1 9396   3.883   3.211   3.987
 3127SOL    HW2 9397   3.991   3.263   4.098
 3128SOL     OW 9398   3.799   2.207   3.757
 3128SOL    HW1 9399   3.707   2.179   3.728
 3128SOL    HW2 9400   3.830   2.284   3.701
 3129SOL     OW 9401   3.796   2.028   4.042
 3129SOL    HW1 9402   3.779   2.111   3.988
 3129SOL    HW2 9403   3.886   1.991   4.020
 3130SOL     OW 9404   4.318   2.607   4.376
 3130SOL    HW1 9405   4.368   2.692   4.357
 3130SOL    HW2 9406   4.230   2.609   4.328
 3131SOL     OW 9407   4.385   3.652   4.677
 3131SOL    HW1 9408   4.339   3.740   4.664
 3131SOL    HW2 9409   4.484   3.664   4.670
 3132SOL     OW 9410   3.803   3.102   4.377
 3132SOL    HW1 9411   3.802   3.055   4.465
 3132SOL    HW2 9412   3.885   3.074   4.326
 3133SOL     OW 9413   4.152   2.286   4.244
 3133SOL    HW1 9414   4.182   2.214   4.182
 3133SOL    HW2 9415   4.113   2.246   4.327
 3134SOL     OW 9416   4.536   3.448   4.411
 3134SOL    HW1 9417   4.568   3.458   4.317
 3134SOL    HW2 9418   4.457   3.386   4.413
 3135SOL     OW 9419   4.494   3.192   4.025
 3135SOL    HW1 9420   4.448   3.105   4.042
 3135SOL    HW2 9421   4.585   3.189   4.066
 3136SOL     OW 9422   3.763   2.939   4.024
 3136SOL    HW1 9423   3.862   2.928   4.015
 3136SOL    HW2 9424   3.723   2.853   4.056
 3137SOL     OW 9425   4.599   3.508   4.061
 3137SOL    HW1 9426   4.522   3.473   4.007
 3137SOL    HW2 9427   4.567   3.579   4.123
 3138SOL     OW 9428   3.954   4.352   0.113
 3138SOL    HW1 9429   3.861   4.350   0.150
 3138SOL    HW2 9430   3.955   4.313   0.021
 3139SOL     OW 9431   3.949   3.999   0.996
 3139SOL    HW1 9432   3.984   3.982   1.088
 3139SOL    HW2 9433   3.861   3.954   0.984
 3140SOL     OW 9434   3.743   4.092   0.647
 3140SOL    HW1 9435   3.661   4.135   0.686
 3140SOL    HW2 9436   3.715   4.019   0.584
 3141SOL     OW 9437   4.574   4.522   1.823
 3141SOL    HW1 9438   4.570   4.598   1.888
 3141SOL    HW2 9439   4.596   4.558   1.732
 3142SOL     OW 9440   4.409   4.736   0.665
 3142SOL    HW1 9441   4.478   4.720   0.735
 3142SOL    HW2 9442   4.336   4.793   0.703
 3143SOL     OW 9443   4.162   4.116   1.499
 3143SOL    HW1 9444   4.244   4.060   1.508
 3143SOL    HW2 9445   4.081   4.058   1.503
 3144SOL     OW 9446   3.846   4.367   0.563
 3144SOL    HW1 9447   3.801   4.279   0.580
 3144SOL    HW2 9448   3.845   4.421   0.647
 3145SOL     OW 9449   3.837   4.461   1.597
 3145SOL    HW1 9450   3.925   4.448   1.642
 3145SOL    HW2 9451   3.824   4.558   1.575
 3146SOL     OW 9452   4.533   3.728   0.502
 3146SOL    HW1 9453   4.573   3.819   0.493
 3146SOL    HW2 9454   4.433   3.736   0.508
 3147SOL     OW 9455   4.041   3.975   1.801
 3147SOL    HW1 9456   4.112   4.046   1.807
 3147SOL    HW2 9457   3.953   4.014   1.829
 3148SOL     OW 9458   4.322   4.453   0.270
 3148SOL    HW1 9459   4.346   4.522   0.202
 3148SOL    HW2 9460   4.244   4.486   0.324
 3149SOL     OW 9461   4.531   4.329   1.465
 3149SOL    HW1 9462   4.484   4.326   1.554
 3149SOL    HW2 9463   4.480   4.274   1.399
 3150SOL     OW 9464   3.800   4.535   0.789
 3150SOL    HW1 9465   3.899   4.523   0.798
 3150SOL    HW2 9466   3.776   4.630   0.810
 3151SOL     OW 9467   4.589   4.072   0.195
 3151SOL    HW1 9468   4.648   4.135   0.146
 3151SOL    HW2 9469   4.608   3.978   0.166
 3152SOL     OW 9470   4.274   3.920   0.885
 3152SOL    HW1 9471   4.269   3.915   0.985
 3152SOL    HW2 9472   4.276   4.016   0.856
 3153SOL     OW 9473   3.926   4.009   1.498
 3153SOL    HW1 9474   3.846   4.069   1.485
 3153SOL    HW2 9475   3.916   3.960   1.584
 3154SOL     OW 9476   4.106   4.424   0.480
 3154SOL    HW1 9477   4.151   4.334   0.477
 3154SOL    HW2 9478   4.012   4.413   0.513
 3155SOL     OW 9479   4.505   3.988   1.749
 3155SOL    HW1 9480   4.572   3.927   1.792
 3155SOL    HW2 9481   4.432   4.007   1.814
 3156SOL     OW 9482   4.646   4.227   0.899
 3156SOL    HW1 9483   4.621   4.218   0.803
 3156SOL    HW2 9484   4.694   4.145   0.930
 3157SOL     OW 9485   4.263   3.788   0.512
 3157SOL    HW1 9486   4.182   3.789   0.570
 3157SOL    HW2 9487   4.266   3.871   0.457
 3158SOL     OW 9488   4.021   3.759   0.171
 3158SOL    HW1 9489   4.070   3.843   0.150
 3158SOL    HW2 9490   4.083   3.694   0.216
 3159SOL     OW 9491   3.802   4.280   1.386
 3159SOL    HW1 9492   3.894   4.279   1.345
 3159SOL    HW2 9493   3.796   4.354   1.453
 3160SOL     OW 9494   4.285   3.946   1.147
 3160SOL    HW1 9495   4.323   3.862   1.184
 3160SOL    HW2 9496   4.197   3.965   1.191
 3161SOL     OW 9497   4.251   3.980   0.328
 3161SOL    HW1 9498   4.278   3.921   0.253
 3161SOL    HW2 9499   4.251   4.075   0.297
 3162SOL     OW 9500   4.639   3.813   1.402
 3162SOL    HW1 9501   4.664   3.793   1.307
 3162SOL    HW2 9502   4.711   3.869   1.444
 3163SOL     OW 9503   4.134   4.537   1.251
 3163SOL    HW1 9504   4.220   4.549   1.301
 3163SOL    HW2 9505   4.092   4.450   1.278
 3164SOL     OW 9506   4.290   4.261   0.865
 3164SOL    HW1 9507   4.302   4.327   0.791
 3164SOL    HW2 9508   4.336   4.295   0.948
 3165SOL     OW 9509   4.126   4.475   1.598
 3165SOL    HW1 9510   4.194   4.530   1.551
 3165SOL    HW2 9511   4.166   4.387   1.625
 3166SOL     OW 9512   4.228   3.774   1.740
 3166SOL    HW1 9513   4.186   3.717   1.670
 3166SOL    HW2 9514   4.162   3.843   1.772
 3167SOL     OW 9515   4.297   4.594   1.029
 3167SOL    HW1 9516   4.341   4.683   1.020
 3167SOL    HW2 9517   4.234   4.594   1.106
 3168SOL     OW 9518   4.031   3.937   1.231
 3168SOL    HW1 9519   4.008   3.974   1.321
 3168SOL    HW2 9520   4.001   3.842   1.225
 3169SOL     OW 9521   4.456   4.358   1.064
 3169SOL    HW1 9522   4.515   4.332   0.988
 3169SOL    HW2 9523   4.428   4.454   1.053
 3170SOL     OW 9524   4.031   3.787   0.618
 3170SOL    HW1 9525   4.020   3.881   0.651
 3170SOL    HW2 9526   4.026   3.724   0.695
 3171SOL     OW 9527   4.747   4.490   0.966
 3171SOL    HW1 9528   4.762   4.511   1.062
 3171SOL    HW2 9529   4.717   4.395   0.957
 3172SOL     OW 9530   4.043   4.534   0.949
 3172SOL    HW1 9531   4.136   4.570   0.954
 3172SOL    HW2 9532   4.037   4.449   1.001
 3173SOL     OW 9533   4.063   4.233   1.006
 3173SOL    HW1 9534   4.011   4.150   0.989
 3173SOL    HW2 9535   4.140   4.238   0.942
 3174SOL     OW 9536   4.726   4.520   1.238
 3174SOL    HW1 9537   4.767   4.488   1.324
 3174SOL    HW2 9538   4.630   4.493   1.235
 3175SOL     OW 9539   3.764   4.268   1.114
 3175SOL    HW1 9540   3.849   4.235   1.073
 3175SOL    HW2 9541   3.777   4.283   1.212
 3176SOL     OW 9542   3.913   4.244   1.722
 3176SOL    HW1 9543   3.972   4.204   1.652
 3176SOL    HW2 9544   3.855   4.315   1.681
 3177SOL     OW 9545   4.539   4.296   0.325
 3177SOL    HW1 9546   4.546   4.207   0.279
 3177SOL    HW2 9547   4.445   4.330   0.317
 3178SOL     OW 9548   4.395   4.188   1.269
 3178SOL    HW1 9549   4.361   4.099   1.239
 3178SOL    HW2 9550   4.421   4.242   1.189
 3179SOL     OW 9551   4.197   4.224   0.191
 3179SOL    HW1 9552   4.258   4.304   0.195
 3179SOL    HW2 9553   4.102   4.255   0.198
 3180SOL     OW 9554   4.627   3.810   0.133
 3180SOL    HW1 9555   4.678   3.811   0.047
 3180SOL    HW2 9556   4.683   3.768   0.204
 3181SOL     OW 9557   3.987   4.050   0.720
 3181SOL    HW1 9558   3.908   4.101   0.686
 3181SOL    HW2 9559   3.978   4.035   0.818
 3182SOL     OW 9560   3.829   4.737   1.726
 3182SOL    HW1 9561   3.752   4.704   1.780
 3182SOL    HW2 9562   3.914   4.707   1.768
 3183SOL     OW 9563   4.396   3.927   1.489
 3183SOL    HW1 9564   4.486   3.911   1.449
 3183SOL    HW2 9565   4.404   3.932   1.588
 3184SOL     OW 9566   3.796   3.890   0.318
 3184SOL    HW1 9567   3.779   3.973   0.264
 3184SOL    HW2 9568   3.886   3.853   0.296
 3185SOL     OW 9569   4.337   4.566   1.431
 3185SOL    HW1 9570   4.393   4.647   1.414
 3185SOL    HW2 9571   4.396   4.486   1.434
 3186SOL     OW 9572   4.440   4.289   1.708
 3186SOL    HW1 9573   4.459   4.354   1.782
 3186SOL    HW2 9574   4.500   4.209   1.717
 3187SOL     OW 9575   4.318   4.469   0.652
 3187SOL    HW1 9576   4.368   4.554   0.633
 3187SOL    HW2 9577   4.230   4.471   0.604
 3188SOL     OW 9578   4.152   4.148   0.520
 3188SOL    HW1 9579   4.182   4.076   0.458
 3188SOL    HW2 9580   4.113   4.108   0.603
 3189SOL     OW 9581   4.041   4.271   1.280
 3189SOL    HW1 9582   4.079   4.212   1.352
 3189SOL    HW2 9583   4.081   4.245   1.192
 3190SOL     OW 9584   3.954   4.352   1.975
 3190SOL    HW1 9585   3.861   4.350   2.012
 3190SOL    HW2 9586   3.955   4.313   1.883
 3191SOL     OW 9587   3.949   3.999   2.858
 3191SOL    HW1 9588   3.984   3.982   2.950
 3191SOL    HW2 9589   3.861   3.954   2.846
 3192SOL     OW 9590   3.743   4.092   2.509
 3192SOL    HW1 9591   3.661   4.135   2.548
 3192SOL    HW2 9592   3.715   4.019   2.446
 3193SOL     OW 9593   4.574   4.522   3.685
 3193SOL    HW1 9594   4.570   4.598   3.750
 3193SOL    HW2 9595   4.596   4.558   3.594
 3194SOL     OW 9596   4.409   4.736   2.527
 3194SOL    HW1 9597   4.478   4.720   2.597
 3194SOL    HW2 9598   4.336   4.793   2.565
 3195SOL     OW 9599   4.162   4.116   3.361
 3195SOL    HW1 9600   4.244   4.060   3.370
 3195SOL    HW2 9601   4.081   4.058   3.365
 3196SOL     OW 9602   3.846   4.367   2.425
 3196SOL    HW1 9603   3.801   4.279   2.442
 3196SOL    HW2 9604   3.845   4.421   2.509
 3197SOL     OW 9605   3.837   4.461   3.459
 3197SOL    HW1 9606   3.925   4.448   3.504
 3197SOL    HW2 9607   3.824   4.558   3.437
 3198SOL     OW 9608   4.533   3.728   2.364
 3198SOL    HW1 9609   4.573   3.819   2.355
 3198SOL    HW2 9610   4.433   3.736   2.370
 3199SOL     OW 9611   4.041   3.975   3.663
 3199SOL    HW1 9612   4.112   4.046   3.669
 3199SOL    HW2 9613   3.953   4.014   3.691
 3200SOL     OW 9614   4.322   4.453   2.132
 3200SOL    HW1 9615   4.346   4.522   2.064
 3200SOL    HW2 9616   4.244   4.486   2.186
 3201SOL     OW 9617   4.531   4.329   3.327
 3201SOL    HW1 9618   4.484   4.326   3.416
 3201SOL    HW2 9619   4.480   4.274   3.261
 3202SOL     OW 9620   3.800   4.535   2.651
 3202SOL    HW1 9621   3.899   4.523   2.660
 3202SOL    HW2 9622   3.776   4.630   2.672
 3203SOL     OW 9623   4.589   4.072   2.057
 3203SOL    HW1 9624   4.648   4.135   2.008
 3203SOL    HW2 9625   4.608   3.978   2.028
 3204SOL     OW 9626   4.274   3.920   2.747
 3204SOL    HW1 9627   4.269   3.915   2.847
 3204SOL    HW2 9628   4.276   4.016   2.718
 3205SOL     OW 9629   3.926   4.009   3.360
 3205SOL    HW1 9630   3.846   4.069   3.347
 3205SOL    HW2 9631   3.916   3.960   3.446
 3206SOL     OW 9632   4.106   4.424   2.342
 3206SOL    HW1 9633   4.151   4.334   2.339
 3206SOL    HW2 9634   4.012   4.413   2.375
 3207SOL     OW 9635   4.338   3.846   1.979
 3207SOL    HW1 9636   4.436   3.824   1.986
 3207SOL    HW2 9637   4.307   3.829   1.886
 3208SOL     OW 9638   4.505   3.988   3.611
 3208SOL    HW1 9639   4.572   3.927   3.654
 3208SOL    HW2 9640   4.432   4.007   3.676
 3209SOL     OW 9641   4.646   4.227   2.761
 3209SOL    HW1 9642   4.621   4.218   2.665
 3209SOL    HW2 9643   4.694   4.145   2.792
 3210SOL     OW 9644   4.263   3.788   2.374
 3210SOL    HW1 9645   4.182   3.789   2.432
 3210SOL    HW2 9646   4.266   3.871   2.319
 3211SOL     OW 9647   4.021   3.759   2.033
 3211SOL    HW1 9648   4.070   3.843   2.012
 3211SOL    HW2 9649   4.083   3.694   2.078
 3212SOL     OW 9650   3.802   4.280   3.248
 3212SOL    HW1 9651   3.894   4.279   3.207
 3212SOL    HW2 9652   3.796   4.354   3.315
 3213SOL     OW 9653   4.285   3.946   3.009
 3213SOL    HW1 9654   4.323   3.862   3.046
 3213SOL    HW2 9655   4.197   3.965   3.053
 3214SOL     OW 9656   4.251   3.980   2.190
 3214SOL    HW1 9657   4.278   3.921   2.115
 3214SOL    HW2 9658   4.251   4.075   2.159
 3215SOL     OW 9659   4.639   3.813   3.264
 3215SOL    HW1 9660   4.664   3.793   3.169
 3215SOL    HW2 9661   4.711   3.869   3.306
 3216SOL     OW 9662   4.134   4.537   3.113
 3216SOL    HW1 9663   4.220   4.549   3.163
 3216SOL    HW2 9664   4.092   4.450   3.140
 3217SOL     OW 9665   4.290   4.261   2.727
 3217SOL    HW1 9666   4.302   4.327   2.653
 3217SOL    HW2 9667   4.336   4.295   2.810
 3218SOL     OW 9668   4.126   4.475   3.460
 3218SOL    HW1 9669   4.194   4.530   3.413
 3218SOL    HW2 9670   4.166   4.387   3.487
 3219SOL     OW 9671   4.228   3.774   3.602
 3219SOL    HW1 9672   4.186   3.717   3.532
 3219SOL    HW2 9673   4.162   3.843   3.634
 3220SOL     OW 9674   4.297   4.594   2.891
 3220SOL    HW1 9675   4.341   4.683   2.882
 3220SOL    HW2 9676   4.234   4.594   2.968
 3221SOL     OW 9677   4.031   3.937   3.093
 3221SOL    HW1 9678   4.008   3.974   3.183
 3221SOL    HW2 9679   4.001   3.842   3.087
 3222SOL     OW 9680   4.456   4.358   2.926
 3222SOL    HW1 9681   4.515   4.332   2.850
 3222SOL    HW2 9682   4.428   4.454   2.915
 3223SOL     OW 9683   4.031   3.787   2.480
 3223SOL    HW1 9684   4.020   3.881   2.513
 3223SOL    HW2 9685   4.026   3.724   2.557
 3224SOL     OW 9686   4.747   4.490   2.828
 3224SOL    HW1 9687   4.762   4.511   2.924
 3224SOL    HW2 9688   4.717   4.395   2.819
 3225SOL     OW 9689   4.043   4.534   2.811
 3225SOL    HW1 9690   4.136   4.570   2.816
 3225SOL    HW2 9691   4.037   4.449   2.863
 3226SOL     OW 9692   4.063   4.233   2.868
 3226SOL    HW1 9693   4.011   4.150   2.851
 3226SOL    HW2 9694   4.140   4.238   2.804
 3227SOL     OW 9695   4.726   4.520   3.100
 3227SOL    HW1 9696   4.767   4.488   3.186
 3227SOL    HW2 9697   4.630   4.493   3.097
 3228SOL     OW 9698   3.764   4.268   2.976
 3228SOL    HW1 9699   3.849   4.235   2.935
 3228SOL    HW2 9700   3.777   4.283   3.074
 3229SOL     OW 9701   3.913   4.244   3.584
 3229SOL    HW1 9702   3.972   4.204   3.514
 3229SOL    HW2 9703   3.855   4.315   3.543
 3230SOL     OW 9704   4.539   4.296   2.187
 3230SOL    HW1 9705   4.546   4.207   2.141
 3230SOL    HW2 9706   4.445   4.330   2.179
 3231SOL     OW 9707   4.395   4.188   3.131
 3231SOL    HW1 9708   4.361   4.099   3.101
 3231SOL    HW2 9709   4.421   4.242   3.051
 3232SOL     OW 9710   4.197   4.224   2.053
 3232SOL    HW1 9711   4.258   4.304   2.057
 3232SOL    HW2 9712   4.102   4.255   2.060
 3233SOL     OW 9713   4.627   3.810   1.995
 3233SOL    HW1 9714   4.678   3.811   1.909
 3233SOL    HW2 9715   4.683   3.768   2.066
 3234SOL     OW 9716   3.987   4.050   2.582
 3234SOL    HW1 9717   3.908   4.101   2.548
 3234SOL    HW2 9718   3.978   4.035   2.680
 3235SOL     OW 9719   3.829   4.737   3.588
 3235SOL    HW1 9720   3.752   4.704   3.642
 3235SOL    HW2 9721   3.914   4.707   3.630
 3236SOL     OW 9722   4.396   3.927   3.351
 3236SOL    HW1 9723   4.486   3.911   3.311
 3236SOL    HW2 9724   4.404   3.932   3.450
 3237SOL     OW 9725   3.799   4.069   1.895
 3237SOL    HW1 9726   3.707   4.041   1.866
 3237SOL    HW2 9727   3.830   4.146   1.839
 3238SOL     OW 9728   3.796   3.890   2.180
 3238SOL    HW1 9729   3.779   3.973   2.126
 3238SOL    HW2 9730   3.886   3.853   2.158
 3239SOL     OW 9731   4.337   4.566   3.293
 3239SOL    HW1 9732   4.393   4.647   3.276
 3239SOL    HW2 9733   4.396   4.486   3.296
 3240SOL     OW 9734   4.440   4.289   3.570
 3240SOL    HW1 9735   4.459   4.354   3.644
 3240SOL    HW2 9736   4.500   4.209   3.579
 3241SOL     OW 9737   4.318   4.469   2.514
 3241SOL    HW1 9738   4.368   4.554   2.495
 3241SOL    HW2 9739   4.230   4.471   2.466
 3242SOL     OW 9740   4.152   4.148   2.382
 3242SOL    HW1 9741   4.182   4.076   2.320
 3242SOL    HW2 9742   4.113   4.108   2.465
 3243SOL     OW 9743   4.041   4.271   3.142
 3243SOL    HW1 9744   4.079   4.212   3.214
 3243SOL    HW2 9745   4.081   4.245   3.054
 3244SOL     OW 9746   3.954   4.352   3.837
 3244SOL    HW1 9747   3.861   4.350   3.874
 3244SOL    HW2 9748   3.955   4.313   3.745
 3245SOL     OW 9749   3.949   3.999   4.720
 3245SOL    HW1 9750   3.984   3.982   4.812
 3245SOL    HW2 9751   3.861   3.954   4.708
 3246SOL     OW 9752   3.743   4.092   4.371
 3246SOL    HW1 9753   3.661   4.135   4.410
 3246SOL    HW2 9754   3.715   4.019   4.308
 3247SOL     OW 9755   4.409   4.736   4.389
 3247SOL    HW1 9756   4.478   4.720   4.459
 3247SOL    HW2 9757   4.336   4.793   4.427
 3248SOL     OW 9758   3.846   4.367   4.287
 3248SOL    HW1 9759   3.801   4.279   4.304
 3248SOL    HW2 9760   3.845   4.421   4.371
 3249SOL     OW 9761   4.533   3.728   4.226
 3249SOL    HW1 9762   4.573   3.819   4.217
 3249SOL    HW2 9763   4.433   3.736   4.232
 3250SOL     OW 9764   4.322   4.453   3.994
 3250SOL    HW1 9765   4.346   4.522   3.926
 3250SOL    HW2 9766   4.244   4.486   4.048
 3251SOL     OW 9767   3.800   4.535   4.513
 3251SOL    HW1 9768   3.899   4.523   4.522
 3251SOL    HW2 9769   3.776   4.630   4.534
 3252SOL     OW 9770   4.589   4.072   3.919
 3252SOL    HW1 9771   4.648   4.135   3.870
 3252SOL    HW2 9772   4.608   3.978   3.890
 3253SOL     OW 9773   4.274   3.920   4.609
 3253SOL    HW1 9774   4.269   3.915   4.709
 3253SOL    HW2 9775   4.276   4.016   4.580
 3254SOL     OW 9776   4.106   4.424   4.204
 3254SOL    HW1 9777   4.151   4.334   4.201
 3254SOL    HW2 9778   4.012   4.413   4.237
 3255SOL     OW 9779   4.338   3.846   3.841
 3255SOL    HW1 9780   4.436   3.824   3.848
 3255SOL    HW2 9781   4.307   3.829   3.748
 3256SOL     OW 9782   4.263   3.788   4.236
 3256SOL    HW1 9783   4.182   3.789   4.294
 3256SOL    HW2 9784   4.266   3.871   4.181
 3257SOL     OW 9785   4.021   3.759   3.895
 3257SOL    HW1 9786   4.070   3.843   3.874
 3257SOL    HW2 9787   4.083   3.694   3.940
 3258SOL     OW 9788   4.183   4.876   4.465
 3258SOL    HW1 9789   4.112   4.849   4.530
 3258SOL    HW2 9790   4.157   4.848   4.372
 3259SOL     OW 9791   4.251   3.980   4.052
 3259SOL    HW1 9792   4.278   3.921   3.977
 3259SOL    HW2 9793   4.251   4.075   4.021
 3260SOL     OW 9794   4.290   4.261   4.589
 3260SOL    HW1 9795   4.302   4.327   4.515
 3260SOL    HW2 9796   4.336   4.295   4.672
 3261SOL     OW 9797   4.456   4.358   4.788
 3261SOL    HW1 9798   4.515   4.332   4.712
 3261SOL    HW2 9799   4.428   4.454   4.777
 3262SOL     OW 9800   4.031   3.787   4.342
 3262SOL    HW1 9801   4.020   3.881   4.375
 3262SOL    HW2 9802   4.026   3.724   4.419
 3263SOL     OW 9803   4.747   4.490   4.690
 3263SOL    HW1 9804   4.762   4.511   4.786
 3263SOL    HW2 9805   4.717   4.395   4.681
 3264SOL     OW 9806   4.539   4.296   4.049
 3264SOL    HW1 9807   4.546   4.207   4.003
 3264SOL    HW2 9808   4.445   4.330   4.041
 3265SOL     OW 9809   4.197   4.224   3.915
 3265SOL    HW1 9810   4.258   4.304   3.919
 3265SOL    HW2 9811   4.102   4.255   3.922
 3266SOL     OW 9812   4.627   3.810   3.857
 3266SOL    HW1 9813   4.678   3.811   3.771
 3266SOL    HW2 9814   4.683   3.768   3.928
 3267SOL     OW 9815   3.987   4.050   4.444
 3267SOL    HW1 9816   3.908   4.101   4.410
 3267SOL    HW2 9817   3.978   4.035   4.542
 3268SOL     OW 9818   3.799   4.069   3.757
 3268SOL    HW1 9819   3.707   4.041   3.728
 3268SOL    HW2 9820   3.830   4.146   3.701
 3269SOL     OW 9821   3.796   3.890   4.042
 3269SOL    HW1 9822   3.779   3.973   3.988
 3269SOL    HW2 9823   3.886   3.853   4.020
 3270SOL     OW 9824   4.318   4.469   4.376
 3270SOL    HW1 9825   4.368   4.554   4.357
 3270SOL    HW2 9826   4.230   4.471   4.328
 3271SOL     OW 9827   4.152   4.148   4.244
 3271SOL    HW1 9828   4.182   4.076   4.182
 3271SOL    HW2 9829   4.113   4.108   4.327
   4.66161   4.66161   4.66161
