mobley_1615431_GMX.gro created by acpype (v: 2023.10.27) on Wed May 20 23:44:45 2026
   21
    1MOL     C1    1   2.211   2.115   2.361
    1MOL     C2    2   2.400   2.167   2.203
    1MOL     C3    3   2.341   2.564   2.255
    1MOL     C4    4   2.341   2.476   2.490
    1MOL     C5    5   2.323   2.211   2.327
    1MOL     C6    6   2.361   2.442   2.343
    1MOL     O1    7   2.269   2.341   2.305
    1MOL     H1    8   2.249   2.014   2.382
    1MOL     H2    9   2.156   2.150   2.450
    1MOL     H3   10   2.138   2.109   2.280
    1MOL     H4   11   2.445   2.068   2.218
    1MOL     H5   12   2.479   2.239   2.180
    1MOL     H6   13   2.334   2.163   2.116
    1MOL     H7   14   2.412   2.644   2.279
    1MOL     H8   15   2.353   2.537   2.149
    1MOL     H9   16   2.239   2.604   2.265
    1MOL    H10   17   2.412   2.552   2.524
    1MOL    H11   18   2.354   2.386   2.552
    1MOL    H12   19   2.239   2.512   2.509
    1MOL    H13   20   2.392   2.218   2.412
    1MOL    H14   21   2.462   2.403   2.328
   4.65885   4.65885   4.65885
