mobley_8011706_GMX.gro created by acpype (v: 2023.10.27) on Wed May 20 23:42:15 2026
   12
    1MOL     C1    1   2.356   2.207   2.276
    1MOL     C2    2   2.167   2.343   2.194
    1MOL     C3    3   2.152   2.095   2.190
    1MOL     N1    4   2.229   2.215   2.222
    1MOL     O1    5   2.430   2.299   2.307
    1MOL     H1    6   2.388   2.102   2.291
    1MOL     H2    7   2.061   2.337   2.218
    1MOL     H3    8   2.179   2.366   2.087
    1MOL     H4    9   2.215   2.420   2.254
    1MOL     H5   10   2.069   2.088   2.260
    1MOL     H6   11   2.218   2.008   2.200
    1MOL     H7   12   2.115   2.103   2.088
   4.43082   4.43082   4.43082
