mobley_8011706_GMX.gro created by acpype (v: 2023.10.27) on Wed May 20 23:42:15 2026
 8538
    1MOL     C1    1   2.356   2.207   2.276
    1MOL     C2    2   2.167   2.343   2.194
    1MOL     C3    3   2.152   2.095   2.190
    1MOL     N1    4   2.229   2.215   2.222
    1MOL     O1    5   2.430   2.299   2.307
    1MOL     H1    6   2.388   2.102   2.291
    1MOL     H2    7   2.061   2.337   2.218
    1MOL     H3    8   2.179   2.366   2.087
    1MOL     H4    9   2.215   2.420   2.254
    1MOL     H5   10   2.069   2.088   2.260
    1MOL     H6   11   2.218   2.008   2.200
    1MOL     H7   12   2.115   2.103   2.088
    2SOL     OW   13   0.230   0.628   0.113
    2SOL    HW1   14   0.137   0.626   0.150
    2SOL    HW2   15   0.231   0.589   0.021
    3SOL     OW   16   0.225   0.275   0.996
    3SOL    HW1   17   0.260   0.258   1.088
    3SOL    HW2   18   0.137   0.230   0.984
    4SOL     OW   19   0.019   0.368   0.647
    4SOL    HW1   20  -0.063   0.411   0.686
    4SOL    HW2   21  -0.009   0.295   0.584
    5SOL     OW   22   0.569   1.275   1.165
    5SOL    HW1   23   0.476   1.268   1.128
    5SOL    HW2   24   0.580   1.364   1.209
    6SOL     OW   25   1.555   1.511   0.703
    6SOL    HW1   26   1.498   1.495   0.784
    6SOL    HW2   27   1.496   1.521   0.623
    7SOL     OW   28   1.135   0.703   0.717
    7SOL    HW1   29   1.192   0.781   0.692
    7SOL    HW2   30   1.075   0.729   0.793
    8SOL     OW   31   1.755   0.607   0.231
    8SOL    HW1   32   1.743   0.594   0.132
    8SOL    HW2   33   1.725   0.526   0.280
    9SOL     OW   34   0.768   1.144   1.023
    9SOL    HW1   35   0.690   1.161   1.083
    9SOL    HW2   36   0.802   1.231   0.987
   10SOL     OW   37   0.850   0.798   1.823
   10SOL    HW1   38   0.846   0.874   1.888
   10SOL    HW2   39   0.872   0.834   1.732
   11SOL     OW   40   0.685   1.012   0.665
   11SOL    HW1   41   0.754   0.996   0.735
   11SOL    HW2   42   0.612   1.069   0.703
   12SOL     OW   43   0.686   1.161   1.803
   12SOL    HW1   44   0.746   1.240   1.817
   12SOL    HW2   45   0.600   1.192   1.762
   13SOL     OW   46   0.335   1.435   1.061
   13SOL    HW1   47   0.257   1.404   1.008
   13SOL    HW2   48   0.393   1.493   1.004
   14SOL     OW   49   1.460   1.505   1.339
   14SOL    HW1   50   1.484   1.599   1.365
   14SOL    HW2   51   1.444   1.451   1.421
   15SOL     OW   52   0.438   0.392   1.499
   15SOL    HW1   53   0.520   0.336   1.508
   15SOL    HW2   54   0.357   0.334   1.503
   16SOL     OW   55   1.603   0.447   0.737
   16SOL    HW1   56   1.529   0.493   0.687
   16SOL    HW2   57   1.654   0.515   0.790
   17SOL     OW   58   0.231   1.713   0.483
   17SOL    HW1   59   0.265   1.790   0.537
   17SOL    HW2   60   0.275   1.713   0.393
   18SOL     OW   61   1.127   1.341   1.690
   18SOL    HW1   62   1.174   1.341   1.778
   18SOL    HW2   63   1.079   1.254   1.679
   19SOL     OW   64   0.230   1.434   0.538
   19SOL    HW1   65   0.204   1.530   0.538
   19SOL    HW2   66   0.159   1.380   0.583
   20SOL     OW   67   0.240   1.091   0.886
   20SOL    HW1   68   0.254   1.007   0.938
   20SOL    HW2   69   0.185   1.155   0.941
   21SOL     OW   70   0.620   1.786   1.439
   21SOL    HW1   71   0.528   1.769   1.474
   21SOL    HW2   72   0.648   1.878   1.465
   22SOL     OW   73   0.606   0.964   0.123
   22SOL    HW1   74   0.613   1.048   0.069
   22SOL    HW2   75   0.652   0.977   0.211
   23SOL     OW   76   1.594   0.114   1.480
   23SOL    HW1   77   1.576   0.181   1.408
   23SOL    HW2   78   1.591   0.160   1.569
   24SOL     OW   79   0.122   0.643   0.563
   24SOL    HW1   80   0.077   0.555   0.580
   24SOL    HW2   81   0.121   0.697   0.647
   25SOL     OW   82   1.842   1.767   0.359
   25SOL    HW1   83   1.896   1.738   0.439
   25SOL    HW2   84   1.872   1.857   0.330
   26SOL     OW   85   0.027   1.596   0.117
   26SOL    HW1   86   0.008   1.500   0.138
   26SOL    HW2   87  -0.006   1.654   0.192
   27SOL     OW   88   1.689   0.922   0.612
   27SOL    HW1   89   1.784   0.893   0.620
   27SOL    HW2   90   1.681   0.987   0.537
   28SOL     OW   91   1.641   1.108   0.432
   28SOL    HW1   92   1.727   1.110   0.380
   28SOL    HW2   93   1.655   1.155   0.520
   29SOL     OW   94   0.113   0.737   1.597
   29SOL    HW1   95   0.201   0.724   1.642
   29SOL    HW2   96   0.100   0.834   1.575
   30SOL     OW   97   0.613   1.365   0.726
   30SOL    HW1   98   0.564   1.278   0.735
   30SOL    HW2   99   0.590   1.408   0.639
   31SOL     OW  100   1.293   1.228   1.423
   31SOL    HW1  101   1.330   1.155   1.365
   31SOL    HW2  102   1.345   1.233   1.508
   32SOL     OW  103   0.809   0.004   0.502
   32SOL    HW1  104   0.849   0.095   0.493
   32SOL    HW2  105   0.709   0.012   0.508
   33SOL     OW  106   0.197   0.976   1.264
   33SOL    HW1  107   0.286   0.931   1.250
   33SOL    HW2  108   0.124   0.911   1.245
   34SOL     OW  109   1.525   0.999   0.190
   34SOL    HW1  110   1.462   0.923   0.203
   34SOL    HW2  111   1.573   1.017   0.276
   35SOL     OW  112   1.187   1.792   1.616
   35SOL    HW1  113   1.211   1.852   1.540
   35SOL    HW2  114   1.194   1.697   1.586
   36SOL     OW  115   0.317   0.251   1.801
   36SOL    HW1  116   0.388   0.322   1.807
   36SOL    HW2  117   0.229   0.290   1.829
   37SOL     OW  118   1.466   1.417   0.953
   37SOL    HW1  119   1.407   1.423   1.033
   37SOL    HW2  120   1.451   1.329   0.907
   38SOL     OW  121   1.667   1.714   0.572
   38SOL    HW1  122   1.626   1.691   0.484
   38SOL    HW2  123   1.649   1.640   0.637
   39SOL     OW  124   0.598   0.729   0.270
   39SOL    HW1  125   0.622   0.798   0.202
   39SOL    HW2  126   0.520   0.762   0.324
   40SOL     OW  127   1.281   0.345   0.944
   40SOL    HW1  128   1.195   0.295   0.931
   40SOL    HW2  129   1.343   0.291   1.000
   41SOL     OW  130   1.576   1.662   0.307
   41SOL    HW1  131   1.665   1.708   0.310
   41SOL    HW2  132   1.555   1.638   0.212
   42SOL     OW  133   0.807   0.605   1.465
   42SOL    HW1  134   0.760   0.602   1.554
   42SOL    HW2  135   0.756   0.550   1.399
   43SOL     OW  136   1.394   0.469   1.674
   43SOL    HW1  137   1.374   0.512   1.762
   43SOL    HW2  138   1.472   0.407   1.683
   44SOL     OW  139   0.973   0.890   1.572
   44SOL    HW1  140   1.019   0.806   1.543
   44SOL    HW2  141   0.917   0.924   1.497
   45SOL     OW  142   0.991   0.410   1.242
   45SOL    HW1  143   0.914   0.444   1.296
   45SOL    HW2  144   0.957   0.359   1.163
   46SOL     OW  145   1.041   0.701   0.429
   46SOL    HW1  146   1.067   0.697   0.525
   46SOL    HW2  147   0.956   0.650   0.415
   47SOL     OW  148   0.076   0.811   0.789
   47SOL    HW1  149   0.175   0.799   0.798
   47SOL    HW2  150   0.052   0.906   0.810
   48SOL     OW  151   0.130   1.821   1.571
   48SOL    HW1  152   0.120   1.806   1.670
   48SOL    HW2  153   0.044   1.857   1.535
   49SOL     OW  154   0.865   0.348   0.195
   49SOL    HW1  155   0.924   0.411   0.146
   49SOL    HW2  156   0.884   0.254   0.166
   50SOL     OW  157   1.719   0.585   1.831
   50SOL    HW1  158   1.693   0.674   1.795
   50SOL    HW2  159   1.717   0.517   1.758
   51SOL     OW  160   1.362   1.144   0.545
   51SOL    HW1  161   1.445   1.115   0.497
   51SOL    HW2  162   1.313   1.211   0.489
   52SOL     OW  163   0.550   0.196   0.885
   52SOL    HW1  164   0.545   0.191   0.985
   52SOL    HW2  165   0.552   0.292   0.856
   53SOL     OW  166   1.008   1.456   0.477
   53SOL    HW1  167   0.962   1.528   0.425
   53SOL    HW2  168   1.004   1.476   0.575
   54SOL     OW  169   0.351   1.801   0.853
   54SOL    HW1  170   0.401   1.715   0.859
   54SOL    HW2  171   0.416   1.878   0.850
   55SOL     OW  172   1.795   1.066   0.873
   55SOL    HW1  173   1.733   1.051   0.797
   55SOL    HW2  174   1.743   1.077   0.958
   56SOL     OW  175   1.227   1.550   1.506
   56SOL    HW1  176   1.233   1.473   1.570
   56SOL    HW2  177   1.175   1.524   1.426
   57SOL     OW  178   0.321   0.943   0.242
   57SOL    HW1  179   0.403   0.982   0.200
   57SOL    HW2  180   0.294   0.861   0.193
   58SOL     OW  181   1.458   0.735   0.728
   58SOL    HW1  182   1.453   0.670   0.803
   58SOL    HW2  183   1.538   0.794   0.741
   59SOL     OW  184   0.461   1.266   1.727
   59SOL    HW1  185   0.411   1.267   1.641
   59SOL    HW2  186   0.398   1.248   1.803
   60SOL     OW  187   1.111   1.776   0.237
   60SOL    HW1  188   1.051   1.714   0.287
   60SOL    HW2  189   1.142   1.732   0.152
   61SOL     OW  190   0.202   0.285   1.498
   61SOL    HW1  191   0.122   0.345   1.485
   61SOL    HW2  192   0.192   0.236   1.584
   62SOL     OW  193   1.632   1.377   0.081
   62SOL    HW1  194   1.600   1.471   0.071
   62SOL    HW2  195   1.556   1.314   0.069
   63SOL     OW  196   0.464   1.743   0.323
   63SOL    HW1  197   0.497   1.782   0.409
   63SOL    HW2  198   0.540   1.736   0.258
   64SOL     OW  199   1.400   0.107   0.426
   64SOL    HW1  200   1.376   0.070   0.336
   64SOL    HW2  201   1.499   0.123   0.430
   65SOL     OW  202   0.249   1.785   1.241
   65SOL    HW1  203   0.306   1.720   1.291
   65SOL    HW2  204   0.233   1.752   1.148
   66SOL     OW  205   0.940   1.698   0.904
   66SOL    HW1  206   1.020   1.641   0.925
   66SOL    HW2  207   0.891   1.658   0.827
   67SOL     OW  208   0.382   0.700   0.480
   67SOL    HW1  209   0.427   0.610   0.477
   67SOL    HW2  210   0.288   0.689   0.513
   68SOL     OW  211   1.547   0.222   1.729
   68SOL    HW1  212   1.542   0.259   1.821
   68SOL    HW2  213   1.475   0.153   1.717
   69SOL     OW  214   0.614   0.122   0.117
   69SOL    HW1  215   0.712   0.100   0.124
   69SOL    HW2  216   0.583   0.105   0.024
   70SOL     OW  217   0.781   0.264   1.749
   70SOL    HW1  218   0.848   0.203   1.792
   70SOL    HW2  219   0.708   0.283   1.814
   71SOL     OW  220   0.888   1.514   1.195
   71SOL    HW1  221   0.865   1.489   1.101
   71SOL    HW2  222   0.949   1.445   1.234
   72SOL     OW  223   1.351   0.590   1.433
   72SOL    HW1  224   1.379   0.547   1.518
   72SOL    HW2  225   1.376   0.686   1.434
   73SOL     OW  226   0.803   1.402   0.924
   73SOL    HW1  227   0.893   1.416   0.882
   73SOL    HW2  228   0.732   1.404   0.853
   74SOL     OW  229   0.922   0.503   0.899
   74SOL    HW1  230   0.897   0.494   0.803
   74SOL    HW2  231   0.970   0.421   0.930
   75SOL     OW  232   0.539   0.064   0.512
   75SOL    HW1  233   0.458   0.065   0.570
   75SOL    HW2  234   0.542   0.147   0.457
   76SOL     OW  235   1.434   1.188   0.041
   76SOL    HW1  236   1.466   1.112   0.098
   76SOL    HW2  237   1.342   1.215   0.071
   77SOL     OW  238   0.297   0.035   0.171
   77SOL    HW1  239   0.346   0.119   0.150
   77SOL    HW2  240   0.359  -0.030   0.216
   78SOL     OW  241   0.935   0.236   0.480
   78SOL    HW1  242   0.887   0.277   0.402
   78SOL    HW2  243   1.034   0.234   0.461
   79SOL     OW  244   1.076   0.683   1.464
   79SOL    HW1  245   0.996   0.622   1.467
   79SOL    HW2  246   1.157   0.630   1.440
   80SOL     OW  247   1.227   1.570   0.793
   80SOL    HW1  248   1.248   1.644   0.728
   80SOL    HW2  249   1.295   1.570   0.866
   81SOL     OW  250   0.459   1.152   0.741
   81SOL    HW1  251   0.388   1.125   0.806
   81SOL    HW2  252   0.433   1.124   0.648
   82SOL     OW  253   1.271   1.797   0.591
   82SOL    HW1  254   1.315   1.861   0.527
   82SOL    HW2  255   1.221   1.849   0.661
   83SOL     OW  256   1.032   0.549   0.016
   83SOL    HW1  257   0.991   0.631  -0.023
   83SOL    HW2  258   1.096   0.575   0.089
   84SOL     OW  259   0.078   0.556   1.386
   84SOL    HW1  260   0.170   0.555   1.345
   84SOL    HW2  261   0.072   0.630   1.453
   85SOL     OW  262   0.561   0.222   1.147
   85SOL    HW1  263   0.599   0.138   1.184
   85SOL    HW2  264   0.473   0.241   1.191
   86SOL     OW  265   0.866   0.454   0.642
   86SOL    HW1  266   0.834   0.526   0.580
   86SOL    HW2  267   0.890   0.373   0.589
   87SOL     OW  268   1.017   0.039   0.753
   87SOL    HW1  269   0.945   0.044   0.684
   87SOL    HW2  270   0.993  -0.030   0.822
   88SOL     OW  271   1.429   1.173   0.867
   88SOL    HW1  272   1.374   1.089   0.860
   88SOL    HW2  273   1.455   1.202   0.775
   89SOL     OW  274   1.466   0.590   0.992
   89SOL    HW1  275   1.436   0.495   0.999
   89SOL    HW2  276   1.539   0.606   1.058
   90SOL     OW  277   1.857   0.833   0.377
   90SOL    HW1  278   1.899   0.769   0.441
   90SOL    HW2  279   1.819   0.782   0.299
   91SOL     OW  280   0.488   1.385   0.174
   91SOL    HW1  281   0.401   1.370   0.221
   91SOL    HW2  282   0.471   1.411   0.079
   92SOL     OW  283   1.664   1.280   0.657
   92SOL    HW1  284   1.763   1.288   0.671
   92SOL    HW2  285   1.619   1.364   0.688
   93SOL     OW  286   1.390   0.575   0.078
   93SOL    HW1  287   1.336   0.554   0.159
   93SOL    HW2  288   1.481   0.534   0.087
   94SOL     OW  289   0.527   0.256   0.328
   94SOL    HW1  290   0.554   0.197   0.253
   94SOL    HW2  291   0.527   0.351   0.297
   95SOL     OW  292   1.754   1.223   1.588
   95SOL    HW1  293   1.845   1.184   1.575
   95SOL    HW2  294   1.762   1.319   1.612
   96SOL     OW  295   1.064   1.347   1.340
   96SOL    HW1  296   0.984   1.324   1.395
   96SOL    HW2  297   1.147   1.321   1.389
   97SOL     OW  298   1.592   1.629   1.625
   97SOL    HW1  299   1.619   1.663   1.535
   97SOL    HW2  300   1.671   1.591   1.671
   98SOL     OW  301   1.111   1.195   1.100
   98SOL    HW1  302   1.071   1.239   1.181
   98SOL    HW2  303   1.070   1.232   1.017
   99SOL     OW  304   1.638   1.099   1.079
   99SOL    HW1  305   1.643   1.180   1.138
   99SOL    HW2  306   1.552   1.101   1.028
  100SOL     OW  307   0.915   0.089   1.402
  100SOL    HW1  308   0.940   0.069   1.307
  100SOL    HW2  309   0.987   0.145   1.444
  101SOL     OW  310   0.980   1.116   1.719
  101SOL    HW1  311   0.881   1.122   1.729
  101SOL    HW2  312   1.003   1.036   1.663
  102SOL     OW  313   0.705   1.050   0.368
  102SOL    HW1  314   0.691   1.057   0.467
  102SOL    HW2  315   0.789   0.999   0.350
  103SOL     OW  316   0.410   0.813   1.251
  103SOL    HW1  317   0.496   0.825   1.301
  103SOL    HW2  318   0.368   0.726   1.278
  104SOL     OW  319   1.274   0.386   1.262
  104SOL    HW1  320   1.295   0.460   1.326
  104SOL    HW2  321   1.185   0.403   1.219
  105SOL     OW  322   0.064   1.564   1.331
  105SOL    HW1  323   0.018   1.646   1.297
  105SOL    HW2  324   0.162   1.583   1.340
  106SOL     OW  325   0.367   1.100   0.501
  106SOL    HW1  326   0.360   1.183   0.445
  106SOL    HW2  327   0.371   1.020   0.441
  107SOL     OW  328   0.566   0.537   0.865
  107SOL    HW1  329   0.578   0.603   0.791
  107SOL    HW2  330   0.612   0.571   0.948
  108SOL     OW  331   1.252   1.348   0.388
  108SOL    HW1  332   1.302   1.425   0.428
  108SOL    HW2  333   1.157   1.350   0.420
  109SOL     OW  334   1.272   1.445   1.142
  109SOL    HW1  335   1.319   1.458   1.229
  109SOL    HW2  336   1.206   1.371   1.151
  110SOL     OW  337   1.582   0.639   0.472
  110SOL    HW1  338   1.551   0.700   0.545
  110SOL    HW2  339   1.632   0.691   0.403
  111SOL     OW  340   0.354   1.510   1.329
  111SOL    HW1  341   0.333   1.466   1.242
  111SOL    HW2  342   0.451   1.536   1.332
  112SOL     OW  343   0.402   0.751   1.598
  112SOL    HW1  344   0.470   0.806   1.551
  112SOL    HW2  345   0.442   0.663   1.625
  113SOL     OW  346   1.587   0.779   1.670
  113SOL    HW1  347   1.495   0.817   1.665
  113SOL    HW2  348   1.647   0.826   1.605
  114SOL     OW  349   1.013   0.105   1.770
  114SOL    HW1  350   1.019   0.190   1.718
  114SOL    HW2  351   1.045   0.029   1.713
  115SOL     OW  352   0.504   0.050   1.740
  115SOL    HW1  353   0.462  -0.007   1.670
  115SOL    HW2  354   0.438   0.119   1.772
  116SOL     OW  355   0.573   0.870   1.029
  116SOL    HW1  356   0.617   0.959   1.020
  116SOL    HW2  357   0.510   0.870   1.106
  117SOL     OW  358   1.360   0.862   1.045
  117SOL    HW1  359   1.285   0.862   0.979
  117SOL    HW2  360   1.397   0.770   1.054
  118SOL     OW  361   1.209   0.525   0.275
  118SOL    HW1  362   1.222   0.441   0.329
  118SOL    HW2  363   1.180   0.599   0.335
  119SOL     OW  364   0.307   0.213   1.231
  119SOL    HW1  365   0.284   0.250   1.321
  119SOL    HW2  366   0.277   0.118   1.225
  120SOL     OW  367   0.037   1.310   1.282
  120SOL    HW1  368   0.090   1.261   1.350
  120SOL    HW2  369   0.059   1.408   1.287
  121SOL     OW  370   0.732   0.634   1.064
  121SOL    HW1  371   0.791   0.608   0.988
  121SOL    HW2  372   0.704   0.730   1.053
  122SOL     OW  373   1.728   0.935   1.854
  122SOL    HW1  374   1.682   0.928   1.765
  122SOL    HW2  375   1.666   0.979   1.920
  123SOL     OW  376   0.307   0.063   0.618
  123SOL    HW1  377   0.296   0.157   0.651
  123SOL    HW2  378   0.302   0.000   0.695
  124SOL     OW  379   1.622   0.367   0.374
  124SOL    HW1  380   1.624   0.291   0.438
  124SOL    HW2  381   1.574   0.444   0.414
  125SOL     OW  382   1.023   0.766   0.966
  125SOL    HW1  383   1.038   0.787   1.062
  125SOL    HW2  384   0.993   0.671   0.957
  126SOL     OW  385   0.980   1.573   1.700
  126SOL    HW1  386   0.960   1.617   1.612
  126SOL    HW2  387   1.019   1.482   1.684
  127SOL     OW  388   1.859   1.518   1.605
  127SOL    HW1  389   1.873   1.545   1.510
  127SOL    HW2  390   1.942   1.540   1.658
  128SOL     OW  391   0.350   0.898   1.804
  128SOL    HW1  392   0.426   0.942   1.852
  128SOL    HW2  393   0.385   0.851   1.722
  129SOL     OW  394   1.540   0.274   0.125
  129SOL    HW1  395   1.479   0.199   0.148
  129SOL    HW2  396   1.562   0.326   0.208
  130SOL     OW  397   1.303   0.838   0.042
  130SOL    HW1  398   1.337   0.745   0.057
  130SOL    HW2  399   1.321   0.865  -0.053
  131SOL     OW  400   1.068   1.333   0.849
  131SOL    HW1  401   1.075   1.249   0.794
  131SOL    HW2  402   1.130   1.402   0.813
  132SOL     OW  403   0.319   0.810   0.949
  132SOL    HW1  404   0.412   0.846   0.954
  132SOL    HW2  405   0.313   0.725   1.001
  133SOL     OW  406   0.339   0.509   1.006
  133SOL    HW1  407   0.287   0.426   0.989
  133SOL    HW2  408   0.416   0.514   0.942
  134SOL     OW  409   1.138   0.380   1.678
  134SOL    HW1  410   1.093   0.443   1.742
  134SOL    HW2  411   1.231   0.411   1.661
  135SOL     OW  412   1.160   0.207   1.477
  135SOL    HW1  413   1.160   0.271   1.554
  135SOL    HW2  414   1.188   0.255   1.394
  136SOL     OW  415   0.008   1.326   0.200
  136SOL    HW1  416  -0.085   1.347   0.169
  136SOL    HW2  417   0.018   1.227   0.213
  137SOL     OW  418   0.088   1.801   0.927
  137SOL    HW1  419   0.046   1.715   0.900
  137SOL    HW2  420   0.182   1.804   0.893
  138SOL     OW  421   0.504   1.568   0.910
  138SOL    HW1  422   0.570   1.642   0.919
  138SOL    HW2  423   0.548   1.489   0.868
  139SOL     OW  424   1.002   0.796   1.238
  139SOL    HW1  425   1.043   0.764   1.324
  139SOL    HW2  426   0.906   0.769   1.235
  140SOL     OW  427   0.040   0.544   1.114
  140SOL    HW1  428   0.125   0.511   1.073
  140SOL    HW2  429   0.053   0.559   1.212
  141SOL     OW  430   0.189   0.520   1.722
  141SOL    HW1  431   0.248   0.480   1.652
  141SOL    HW2  432   0.131   0.591   1.681
  142SOL     OW  433   1.369   0.950   1.660
  142SOL    HW1  434   1.408   1.039   1.680
  142SOL    HW2  435   1.379   0.930   1.563
  143SOL     OW  436   0.815   0.572   0.325
  143SOL    HW1  437   0.822   0.483   0.279
  143SOL    HW2  438   0.721   0.606   0.317
  144SOL     OW  439   1.657   0.604   1.206
  144SOL    HW1  440   1.619   0.535   1.268
  144SOL    HW2  441   1.739   0.568   1.162
  145SOL     OW  442   0.252   1.564   1.744
  145SOL    HW1  443   0.222   1.621   1.820
  145SOL    HW2  444   0.245   1.467   1.770
  146SOL     OW  445   0.671   0.464   1.269
  146SOL    HW1  446   0.637   0.375   1.239
  146SOL    HW2  447   0.697   0.518   1.189
  147SOL     OW  448   0.930   1.678   1.465
  147SOL    HW1  449   0.906   1.660   1.370
  147SOL    HW2  450   0.960   1.772   1.475
  148SOL     OW  451   0.473   0.500   0.191
  148SOL    HW1  452   0.534   0.580   0.195
  148SOL    HW2  453   0.378   0.531   0.198
  149SOL     OW  454   0.159   1.137   1.466
  149SOL    HW1  455   0.181   1.076   1.542
  149SOL    HW2  456   0.169   1.088   1.380
  150SOL     OW  457   1.347   1.059   1.234
  150SOL    HW1  458   1.371   0.996   1.160
  150SOL    HW2  459   1.257   1.099   1.216
  151SOL     OW  460   1.302   0.855   0.309
  151SOL    HW1  461   1.216   0.824   0.351
  151SOL    HW2  462   1.298   0.841   0.210
  152SOL     OW  463   1.759   1.747   1.154
  152SOL    HW1  464   1.820   1.777   1.081
  152SOL    HW2  465   1.721   1.658   1.132
  153SOL     OW  466   1.252   1.731   1.128
  153SOL    HW1  467   1.336   1.736   1.074
  153SOL    HW2  468   1.229   1.635   1.146
  154SOL     OW  469   0.083   1.258   1.022
  154SOL    HW1  470   0.078   1.257   1.122
  154SOL    HW2  471   0.000   1.217   0.984
  155SOL     OW  472   0.688   1.662   1.716
  155SOL    HW1  473   0.632   1.743   1.725
  155SOL    HW2  474   0.740   1.666   1.630
  156SOL     OW  475   0.903   0.086   0.133
  156SOL    HW1  476   0.954   0.087   0.047
  156SOL    HW2  477   0.959   0.044   0.204
  157SOL     OW  478   1.726   0.135   0.523
  157SOL    HW1  479   1.799   0.118   0.456
  157SOL    HW2  480   1.695   0.048   0.561
  158SOL     OW  481   1.388   1.573   0.477
  158SOL    HW1  482   1.455   1.585   0.403
  158SOL    HW2  483   1.348   1.662   0.500
  159SOL     OW  484   0.130   1.794   1.851
  159SOL    HW1  485   0.089   1.720   1.904
  159SOL    HW2  486   0.194   1.845   1.909
  160SOL     OW  487   1.280   0.927   0.672
  160SOL    HW1  488   1.340   0.846   0.674
  160SOL    HW2  489   1.320   0.996   0.612
  161SOL     OW  490   0.830   1.273   1.422
  161SOL    HW1  491   0.825   1.306   1.517
  161SOL    HW2  492   0.744   1.292   1.376
  162SOL     OW  493   0.672   1.616   0.154
  162SOL    HW1  494   0.681   1.626   0.055
  162SOL    HW2  495   0.632   1.527   0.175
  163SOL     OW  496   1.650   1.720   1.394
  163SOL    HW1  497   1.703   1.730   1.310
  163SOL    HW2  498   1.623   1.810   1.428
  164SOL     OW  499   1.841   0.175   0.963
  164SOL    HW1  500   1.880   0.090   0.927
  164SOL    HW2  501   1.743   0.177   0.944
  165SOL     OW  502   0.263   0.326   0.720
  165SOL    HW1  503   0.184   0.377   0.686
  165SOL    HW2  504   0.254   0.311   0.818
  166SOL     OW  505   1.194   1.612   0.031
  166SOL    HW1  506   1.200   1.519   0.068
  166SOL    HW2  507   1.135   1.612  -0.049
  167SOL     OW  508   0.822   1.002   1.372
  167SOL    HW1  509   0.862   1.001   1.280
  167SOL    HW2  510   0.832   1.094   1.412
  168SOL     OW  511   0.916   0.910   0.291
  168SOL    HW1  512   0.979   0.948   0.223
  168SOL    HW2  513   0.956   0.827   0.330
  169SOL     OW  514   1.504   1.607   0.044
  169SOL    HW1  515   1.412   1.644   0.051
  169SOL    HW2  516   1.542   1.627  -0.046
  170SOL     OW  517   0.372   1.288   1.490
  170SOL    HW1  518   0.359   1.381   1.456
  170SOL    HW2  519   0.288   1.236   1.477
  171SOL     OW  520   1.614   1.292   1.289
  171SOL    HW1  521   1.674   1.295   1.369
  171SOL    HW2  522   1.539   1.356   1.302
  172SOL     OW  523   1.039   1.098   0.696
  172SOL    HW1  524   0.969   1.051   0.750
  172SOL    HW2  525   1.098   1.030   0.653
  173SOL     OW  526   1.014   0.236   0.971
  173SOL    HW1  527   1.006   0.200   0.878
  173SOL    HW2  528   1.012   0.160   1.036
  174SOL     OW  529   0.590   1.487   0.491
  174SOL    HW1  530   0.632   1.429   0.421
  174SOL    HW2  531   0.546   1.566   0.447
  175SOL     OW  532   1.709   0.385   1.381
  175SOL    HW1  533   1.782   0.454   1.385
  175SOL    HW2  534   1.737   0.310   1.322
  176SOL     OW  535   0.255   1.348   0.290
  176SOL    HW1  536   0.159   1.349   0.263
  176SOL    HW2  537   0.267   1.401   0.374
  177SOL     OW  538   0.105   1.013   1.726
  177SOL    HW1  539   0.028   0.980   1.780
  177SOL    HW2  540   0.190   0.983   1.768
  178SOL     OW  541   0.672   0.203   1.489
  178SOL    HW1  542   0.762   0.187   1.449
  178SOL    HW2  543   0.680   0.208   1.588
  179SOL     OW  544   0.075   0.345   0.033
  179SOL    HW1  545  -0.017   0.317   0.004
  179SOL    HW2  546   0.106   0.422  -0.023
  180SOL     OW  547   1.440   0.856   1.398
  180SOL    HW1  548   1.383   0.908   1.335
  180SOL    HW2  549   1.536   0.868   1.374
  181SOL     OW  550   0.072   0.166   0.318
  181SOL    HW1  551   0.055   0.249   0.264
  181SOL    HW2  552   0.162   0.129   0.296
  182SOL     OW  553   1.183   1.335   0.119
  182SOL    HW1  554   1.084   1.324   0.121
  182SOL    HW2  555   1.217   1.350   0.212
  183SOL     OW  556   0.613   0.842   1.431
  183SOL    HW1  557   0.669   0.923   1.414
  183SOL    HW2  558   0.672   0.762   1.434
  184SOL     OW  559   1.493   1.767   0.959
  184SOL    HW1  560   1.526   1.831   0.890
  184SOL    HW2  561   1.559   1.761   1.034
  185SOL     OW  562   0.716   0.565   1.708
  185SOL    HW1  563   0.735   0.630   1.782
  185SOL    HW2  564   0.776   0.485   1.717
  186SOL     OW  565   1.450   1.220   1.633
  186SOL    HW1  566   1.441   1.210   1.732
  186SOL    HW2  567   1.546   1.213   1.607
  187SOL     OW  568   0.390   1.741   1.560
  187SOL    HW1  569   0.299   1.782   1.558
  187SOL    HW2  570   0.383   1.647   1.592
  188SOL     OW  571   1.674   0.883   1.254
  188SOL    HW1  572   1.647   0.794   1.217
  188SOL    HW2  573   1.675   0.951   1.181
  189SOL     OW  574   1.225   0.325   0.449
  189SOL    HW1  575   1.290   0.251   0.438
  189SOL    HW2  576   1.245   0.375   0.533
  190SOL     OW  577   0.594   0.745   0.652
  190SOL    HW1  578   0.644   0.830   0.633
  190SOL    HW2  579   0.506   0.747   0.604
  191SOL     OW  580   1.777   0.342   1.642
  191SOL    HW1  581   1.760   0.373   1.548
  191SOL    HW2  582   1.693   0.305   1.680
  192SOL     OW  583   1.730   0.934   1.517
  192SOL    HW1  584   1.768   1.025   1.532
  192SOL    HW2  585   1.722   0.917   1.418
  193SOL     OW  586   0.859   1.374   0.016
  193SOL    HW1  587   0.813   1.389   0.104
  193SOL    HW2  588   0.903   1.459  -0.014
  194SOL     OW  589   0.661   1.790   0.953
  194SOL    HW1  590   0.615   1.878   0.940
  194SOL    HW2  591   0.760   1.802   0.946
  195SOL     OW  592   0.859   0.956   0.861
  195SOL    HW1  593   0.913   0.887   0.909
  195SOL    HW2  594   0.827   1.025   0.927
  196SOL     OW  595   1.083   0.984   0.087
  196SOL    HW1  596   1.060   1.037   0.005
  196SOL    HW2  597   1.164   0.928   0.068
  197SOL     OW  598   1.861   1.569   0.851
  197SOL    HW1  599   1.790   1.557   0.781
  197SOL    HW2  600   1.862   1.490   0.911
  198SOL     OW  601   0.221   1.314   1.844
  198SOL    HW1  602   0.156   1.241   1.823
  198SOL    HW2  603   0.225   1.328   1.942
  199SOL     OW  604   0.079   1.240   0.653
  199SOL    HW1  605   0.078   1.193   0.741
  199SOL    HW2  606   0.161   1.212   0.602
  200SOL     OW  607   0.672   1.391   1.624
  200SOL    HW1  608   0.594   1.341   1.662
  200SOL    HW2  609   0.669   1.486   1.655
  201SOL     OW  610   1.824   0.192   1.227
  201SOL    HW1  611   1.820   0.102   1.271
  201SOL    HW2  612   1.827   0.181   1.128
  202SOL     OW  613   0.428   0.424   0.520
  202SOL    HW1  614   0.458   0.352   0.458
  202SOL    HW2  615   0.389   0.384   0.603
  203SOL     OW  616   1.705   1.487   1.104
  203SOL    HW1  617   1.612   1.462   1.077
  203SOL    HW2  618   1.731   1.437   1.186
  204SOL     OW  619   0.317   0.547   1.280
  204SOL    HW1  620   0.355   0.488   1.352
  204SOL    HW2  621   0.357   0.521   1.192
  205SOL     OW  622   0.812   1.586   0.687
  205SOL    HW1  623   0.844   1.596   0.593
  205SOL    HW2  624   0.733   1.524   0.689
  206SOL     OW  625   1.424   0.214   1.112
  206SOL    HW1  626   1.476   0.149   1.167
  206SOL    HW2  627   1.375   0.277   1.173
  207SOL     OW  628   1.001   0.034   1.154
  207SOL    HW1  629   0.938  -0.038   1.123
  207SOL    HW2  630   1.094  -0.002   1.154
  208SOL     OW  631   0.770   1.330   0.301
  208SOL    HW1  632   0.724   1.243   0.318
  208SOL    HW2  633   0.861   1.327   0.342
  209SOL     OW  634   0.618   1.567   1.284
  209SOL    HW1  635   0.613   1.649   1.341
  209SOL    HW2  636   0.707   1.564   1.239
  210SOL     OW  637   1.352   0.052   0.168
  210SOL    HW1  638   1.387   0.011   0.084
  210SOL    HW2  639   1.262   0.014   0.188
  211SOL     OW  640   1.300   0.453   0.691
  211SOL    HW1  641   1.241   0.533   0.695
  211SOL    HW2  642   1.315   0.418   0.784
  212SOL     OW  643   1.593   0.221   0.882
  212SOL    HW1  644   1.509   0.220   0.936
  212SOL    HW2  645   1.595   0.304   0.826
  213SOL     OW  646   0.039   1.077   0.300
  213SOL    HW1  647   0.138   1.066   0.291
  213SOL    HW2  648  -0.001   0.991   0.332
  214SOL     OW  649   0.875   1.646   0.337
  214SOL    HW1  650   0.798   1.611   0.283
  214SOL    HW2  651   0.843   1.717   0.399
  215SOL     OW  652   0.230   0.628   1.975
  215SOL    HW1  653   0.137   0.626   2.012
  215SOL    HW2  654   0.231   0.589   1.883
  216SOL     OW  655   0.225   0.275   2.858
  216SOL    HW1  656   0.260   0.258   2.950
  216SOL    HW2  657   0.137   0.230   2.846
  217SOL     OW  658   0.019   0.368   2.509
  217SOL    HW1  659  -0.063   0.411   2.548
  217SOL    HW2  660  -0.009   0.295   2.446
  218SOL     OW  661   0.569   1.275   3.027
  218SOL    HW1  662   0.476   1.268   2.990
  218SOL    HW2  663   0.580   1.364   3.071
  219SOL     OW  664   1.555   1.511   2.565
  219SOL    HW1  665   1.498   1.495   2.646
  219SOL    HW2  666   1.496   1.521   2.485
  220SOL     OW  667   1.135   0.703   2.579
  220SOL    HW1  668   1.192   0.781   2.554
  220SOL    HW2  669   1.075   0.729   2.655
  221SOL     OW  670   1.755   0.607   2.093
  221SOL    HW1  671   1.743   0.594   1.994
  221SOL    HW2  672   1.725   0.526   2.142
  222SOL     OW  673   0.768   1.144   2.885
  222SOL    HW1  674   0.690   1.161   2.945
  222SOL    HW2  675   0.802   1.231   2.849
  223SOL     OW  676   0.850   0.798   3.685
  223SOL    HW1  677   0.846   0.874   3.750
  223SOL    HW2  678   0.872   0.834   3.594
  224SOL     OW  679   0.685   1.012   2.527
  224SOL    HW1  680   0.754   0.996   2.597
  224SOL    HW2  681   0.612   1.069   2.565
  225SOL     OW  682   0.686   1.161   3.665
  225SOL    HW1  683   0.746   1.240   3.679
  225SOL    HW2  684   0.600   1.192   3.624
  226SOL     OW  685   0.335   1.435   2.923
  226SOL    HW1  686   0.257   1.404   2.870
  226SOL    HW2  687   0.393   1.493   2.866
  227SOL     OW  688   1.460   1.505   3.201
  227SOL    HW1  689   1.484   1.599   3.227
  227SOL    HW2  690   1.444   1.451   3.283
  228SOL     OW  691   0.438   0.392   3.361
  228SOL    HW1  692   0.520   0.336   3.370
  228SOL    HW2  693   0.357   0.334   3.365
  229SOL     OW  694   1.603   0.447   2.599
  229SOL    HW1  695   1.529   0.493   2.549
  229SOL    HW2  696   1.654   0.515   2.652
  230SOL     OW  697   0.231   1.713   2.345
  230SOL    HW1  698   0.265   1.790   2.399
  230SOL    HW2  699   0.275   1.713   2.255
  231SOL     OW  700   1.127   1.341   3.552
  231SOL    HW1  701   1.174   1.341   3.640
  231SOL    HW2  702   1.079   1.254   3.541
  232SOL     OW  703   0.230   1.434   2.400
  232SOL    HW1  704   0.204   1.530   2.400
  232SOL    HW2  705   0.159   1.380   2.445
  233SOL     OW  706   0.240   1.091   2.748
  233SOL    HW1  707   0.254   1.007   2.800
  233SOL    HW2  708   0.185   1.155   2.803
  234SOL     OW  709   0.620   1.786   3.301
  234SOL    HW1  710   0.528   1.769   3.336
  234SOL    HW2  711   0.648   1.878   3.327
  235SOL     OW  712   0.606   0.964   1.985
  235SOL    HW1  713   0.613   1.048   1.931
  235SOL    HW2  714   0.652   0.977   2.073
  236SOL     OW  715   1.594   0.114   3.342
  236SOL    HW1  716   1.576   0.181   3.270
  236SOL    HW2  717   1.591   0.160   3.431
  237SOL     OW  718   0.122   0.643   2.425
  237SOL    HW1  719   0.077   0.555   2.442
  237SOL    HW2  720   0.121   0.697   2.509
  238SOL     OW  721   1.842   1.767   2.221
  238SOL    HW1  722   1.896   1.738   2.301
  238SOL    HW2  723   1.872   1.857   2.192
  239SOL     OW  724   0.027   1.596   1.979
  239SOL    HW1  725   0.008   1.500   2.000
  239SOL    HW2  726  -0.006   1.654   2.054
  240SOL     OW  727   1.689   0.922   2.474
  240SOL    HW1  728   1.784   0.893   2.482
  240SOL    HW2  729   1.681   0.987   2.399
  241SOL     OW  730   1.641   1.108   2.294
  241SOL    HW1  731   1.727   1.110   2.242
  241SOL    HW2  732   1.655   1.155   2.382
  242SOL     OW  733   0.113   0.737   3.459
  242SOL    HW1  734   0.201   0.724   3.504
  242SOL    HW2  735   0.100   0.834   3.437
  243SOL     OW  736   0.613   1.365   2.588
  243SOL    HW1  737   0.564   1.278   2.597
  243SOL    HW2  738   0.590   1.408   2.501
  244SOL     OW  739   1.293   1.228   3.285
  244SOL    HW1  740   1.330   1.155   3.227
  244SOL    HW2  741   1.345   1.233   3.370
  245SOL     OW  742   0.809   0.004   2.364
  245SOL    HW1  743   0.849   0.095   2.355
  245SOL    HW2  744   0.709   0.012   2.370
  246SOL     OW  745   0.197   0.976   3.126
  246SOL    HW1  746   0.286   0.931   3.112
  246SOL    HW2  747   0.124   0.911   3.107
  247SOL     OW  748   1.525   0.999   2.052
  247SOL    HW1  749   1.462   0.923   2.065
  247SOL    HW2  750   1.573   1.017   2.138
  248SOL     OW  751   1.187   1.792   3.478
  248SOL    HW1  752   1.211   1.852   3.402
  248SOL    HW2  753   1.194   1.697   3.448
  249SOL     OW  754   0.317   0.251   3.663
  249SOL    HW1  755   0.388   0.322   3.669
  249SOL    HW2  756   0.229   0.290   3.691
  250SOL     OW  757   1.466   1.417   2.815
  250SOL    HW1  758   1.407   1.423   2.895
  250SOL    HW2  759   1.451   1.329   2.769
  251SOL     OW  760   1.667   1.714   2.434
  251SOL    HW1  761   1.626   1.691   2.346
  251SOL    HW2  762   1.649   1.640   2.499
  252SOL     OW  763   0.598   0.729   2.132
  252SOL    HW1  764   0.622   0.798   2.064
  252SOL    HW2  765   0.520   0.762   2.186
  253SOL     OW  766   1.281   0.345   2.806
  253SOL    HW1  767   1.195   0.295   2.793
  253SOL    HW2  768   1.343   0.291   2.862
  254SOL     OW  769   1.576   1.662   2.169
  254SOL    HW1  770   1.665   1.708   2.172
  254SOL    HW2  771   1.555   1.638   2.074
  255SOL     OW  772   0.807   0.605   3.327
  255SOL    HW1  773   0.760   0.602   3.416
  255SOL    HW2  774   0.756   0.550   3.261
  256SOL     OW  775   1.394   0.469   3.536
  256SOL    HW1  776   1.374   0.512   3.624
  256SOL    HW2  777   1.472   0.407   3.545
  257SOL     OW  778   0.973   0.890   3.434
  257SOL    HW1  779   1.019   0.806   3.405
  257SOL    HW2  780   0.917   0.924   3.359
  258SOL     OW  781   0.991   0.410   3.104
  258SOL    HW1  782   0.914   0.444   3.158
  258SOL    HW2  783   0.957   0.359   3.025
  259SOL     OW  784   1.041   0.701   2.291
  259SOL    HW1  785   1.067   0.697   2.387
  259SOL    HW2  786   0.956   0.650   2.277
  260SOL     OW  787   0.076   0.811   2.651
  260SOL    HW1  788   0.175   0.799   2.660
  260SOL    HW2  789   0.052   0.906   2.672
  261SOL     OW  790   0.130   1.821   3.433
  261SOL    HW1  791   0.120   1.806   3.532
  261SOL    HW2  792   0.044   1.857   3.397
  262SOL     OW  793   0.865   0.348   2.057
  262SOL    HW1  794   0.924   0.411   2.008
  262SOL    HW2  795   0.884   0.254   2.028
  263SOL     OW  796   1.719   0.585   3.693
  263SOL    HW1  797   1.693   0.674   3.657
  263SOL    HW2  798   1.717   0.517   3.620
  264SOL     OW  799   1.362   1.144   2.407
  264SOL    HW1  800   1.445   1.115   2.359
  264SOL    HW2  801   1.313   1.211   2.351
  265SOL     OW  802   0.550   0.196   2.747
  265SOL    HW1  803   0.545   0.191   2.847
  265SOL    HW2  804   0.552   0.292   2.718
  266SOL     OW  805   1.008   1.456   2.339
  266SOL    HW1  806   0.962   1.528   2.287
  266SOL    HW2  807   1.004   1.476   2.437
  267SOL     OW  808   0.351   1.801   2.715
  267SOL    HW1  809   0.401   1.715   2.721
  267SOL    HW2  810   0.416   1.878   2.712
  268SOL     OW  811   1.795   1.066   2.735
  268SOL    HW1  812   1.733   1.051   2.659
  268SOL    HW2  813   1.743   1.077   2.820
  269SOL     OW  814   1.227   1.550   3.368
  269SOL    HW1  815   1.233   1.473   3.432
  269SOL    HW2  816   1.175   1.524   3.288
  270SOL     OW  817   0.321   0.943   2.104
  270SOL    HW1  818   0.403   0.982   2.062
  270SOL    HW2  819   0.294   0.861   2.055
  271SOL     OW  820   1.458   0.735   2.590
  271SOL    HW1  821   1.453   0.670   2.665
  271SOL    HW2  822   1.538   0.794   2.603
  272SOL     OW  823   0.461   1.266   3.589
  272SOL    HW1  824   0.411   1.267   3.503
  272SOL    HW2  825   0.398   1.248   3.665
  273SOL     OW  826   1.111   1.776   2.099
  273SOL    HW1  827   1.051   1.714   2.149
  273SOL    HW2  828   1.142   1.732   2.014
  274SOL     OW  829   0.202   0.285   3.360
  274SOL    HW1  830   0.122   0.345   3.347
  274SOL    HW2  831   0.192   0.236   3.446
  275SOL     OW  832   1.632   1.377   1.943
  275SOL    HW1  833   1.600   1.471   1.933
  275SOL    HW2  834   1.556   1.314   1.931
  276SOL     OW  835   0.464   1.743   2.185
  276SOL    HW1  836   0.497   1.782   2.271
  276SOL    HW2  837   0.540   1.736   2.120
  277SOL     OW  838   1.400   0.107   2.288
  277SOL    HW1  839   1.376   0.070   2.198
  277SOL    HW2  840   1.499   0.123   2.292
  278SOL     OW  841   0.249   1.785   3.103
  278SOL    HW1  842   0.306   1.720   3.153
  278SOL    HW2  843   0.233   1.752   3.010
  279SOL     OW  844   0.940   1.698   2.766
  279SOL    HW1  845   1.020   1.641   2.787
  279SOL    HW2  846   0.891   1.658   2.689
  280SOL     OW  847   0.382   0.700   2.342
  280SOL    HW1  848   0.427   0.610   2.339
  280SOL    HW2  849   0.288   0.689   2.375
  281SOL     OW  850   1.547   0.222   3.591
  281SOL    HW1  851   1.542   0.259   3.683
  281SOL    HW2  852   1.475   0.153   3.579
  282SOL     OW  853   0.614   0.122   1.979
  282SOL    HW1  854   0.712   0.100   1.986
  282SOL    HW2  855   0.583   0.105   1.886
  283SOL     OW  856   0.781   0.264   3.611
  283SOL    HW1  857   0.848   0.203   3.654
  283SOL    HW2  858   0.708   0.283   3.676
  284SOL     OW  859   0.888   1.514   3.057
  284SOL    HW1  860   0.865   1.489   2.963
  284SOL    HW2  861   0.949   1.445   3.096
  285SOL     OW  862   1.351   0.590   3.295
  285SOL    HW1  863   1.379   0.547   3.380
  285SOL    HW2  864   1.376   0.686   3.296
  286SOL     OW  865   0.803   1.402   2.786
  286SOL    HW1  866   0.893   1.416   2.744
  286SOL    HW2  867   0.732   1.404   2.715
  287SOL     OW  868   0.922   0.503   2.761
  287SOL    HW1  869   0.897   0.494   2.665
  287SOL    HW2  870   0.970   0.421   2.792
  288SOL     OW  871   0.539   0.064   2.374
  288SOL    HW1  872   0.458   0.065   2.432
  288SOL    HW2  873   0.542   0.147   2.319
  289SOL     OW  874   1.434   1.188   1.903
  289SOL    HW1  875   1.466   1.112   1.960
  289SOL    HW2  876   1.342   1.215   1.933
  290SOL     OW  877   0.297   0.035   2.033
  290SOL    HW1  878   0.346   0.119   2.012
  290SOL    HW2  879   0.359  -0.030   2.078
  291SOL     OW  880   0.935   0.236   2.342
  291SOL    HW1  881   0.887   0.277   2.264
  291SOL    HW2  882   1.034   0.234   2.323
  292SOL     OW  883   1.076   0.683   3.326
  292SOL    HW1  884   0.996   0.622   3.329
  292SOL    HW2  885   1.157   0.630   3.302
  293SOL     OW  886   1.227   1.570   2.655
  293SOL    HW1  887   1.248   1.644   2.590
  293SOL    HW2  888   1.295   1.570   2.728
  294SOL     OW  889   0.459   1.152   2.603
  294SOL    HW1  890   0.388   1.125   2.668
  294SOL    HW2  891   0.433   1.124   2.510
  295SOL     OW  892   1.271   1.797   2.453
  295SOL    HW1  893   1.315   1.861   2.389
  295SOL    HW2  894   1.221   1.849   2.523
  296SOL     OW  895   1.032   0.549   1.878
  296SOL    HW1  896   0.991   0.631   1.839
  296SOL    HW2  897   1.096   0.575   1.951
  297SOL     OW  898   0.078   0.556   3.248
  297SOL    HW1  899   0.170   0.555   3.207
  297SOL    HW2  900   0.072   0.630   3.315
  298SOL     OW  901   0.561   0.222   3.009
  298SOL    HW1  902   0.599   0.138   3.046
  298SOL    HW2  903   0.473   0.241   3.053
  299SOL     OW  904   0.866   0.454   2.504
  299SOL    HW1  905   0.834   0.526   2.442
  299SOL    HW2  906   0.890   0.373   2.451
  300SOL     OW  907   1.017   0.039   2.615
  300SOL    HW1  908   0.945   0.044   2.546
  300SOL    HW2  909   0.993  -0.030   2.684
  301SOL     OW  910   1.429   1.173   2.729
  301SOL    HW1  911   1.374   1.089   2.722
  301SOL    HW2  912   1.455   1.202   2.637
  302SOL     OW  913   1.466   0.590   2.854
  302SOL    HW1  914   1.436   0.495   2.861
  302SOL    HW2  915   1.539   0.606   2.920
  303SOL     OW  916   1.857   0.833   2.239
  303SOL    HW1  917   1.899   0.769   2.303
  303SOL    HW2  918   1.819   0.782   2.161
  304SOL     OW  919   0.488   1.385   2.036
  304SOL    HW1  920   0.401   1.370   2.083
  304SOL    HW2  921   0.471   1.411   1.941
  305SOL     OW  922   1.664   1.280   2.519
  305SOL    HW1  923   1.763   1.288   2.533
  305SOL    HW2  924   1.619   1.364   2.550
  306SOL     OW  925   1.390   0.575   1.940
  306SOL    HW1  926   1.336   0.554   2.021
  306SOL    HW2  927   1.481   0.534   1.949
  307SOL     OW  928   0.527   0.256   2.190
  307SOL    HW1  929   0.554   0.197   2.115
  307SOL    HW2  930   0.527   0.351   2.159
  308SOL     OW  931   1.754   1.223   3.450
  308SOL    HW1  932   1.845   1.184   3.437
  308SOL    HW2  933   1.762   1.319   3.474
  309SOL     OW  934   1.064   1.347   3.202
  309SOL    HW1  935   0.984   1.324   3.257
  309SOL    HW2  936   1.147   1.321   3.251
  310SOL     OW  937   1.592   1.629   3.487
  310SOL    HW1  938   1.619   1.663   3.397
  310SOL    HW2  939   1.671   1.591   3.533
  311SOL     OW  940   1.111   1.195   2.962
  311SOL    HW1  941   1.071   1.239   3.043
  311SOL    HW2  942   1.070   1.232   2.879
  312SOL     OW  943   1.638   1.099   2.941
  312SOL    HW1  944   1.643   1.180   3.000
  312SOL    HW2  945   1.552   1.101   2.890
  313SOL     OW  946   0.915   0.089   3.264
  313SOL    HW1  947   0.940   0.069   3.169
  313SOL    HW2  948   0.987   0.145   3.306
  314SOL     OW  949   0.980   1.116   3.581
  314SOL    HW1  950   0.881   1.122   3.591
  314SOL    HW2  951   1.003   1.036   3.525
  315SOL     OW  952   0.705   1.050   2.230
  315SOL    HW1  953   0.691   1.057   2.329
  315SOL    HW2  954   0.789   0.999   2.212
  316SOL     OW  955   0.410   0.813   3.113
  316SOL    HW1  956   0.496   0.825   3.163
  316SOL    HW2  957   0.368   0.726   3.140
  317SOL     OW  958   1.274   0.386   3.124
  317SOL    HW1  959   1.295   0.460   3.188
  317SOL    HW2  960   1.185   0.403   3.081
  318SOL     OW  961   0.064   1.564   3.193
  318SOL    HW1  962   0.018   1.646   3.159
  318SOL    HW2  963   0.162   1.583   3.202
  319SOL     OW  964   0.367   1.100   2.363
  319SOL    HW1  965   0.360   1.183   2.307
  319SOL    HW2  966   0.371   1.020   2.303
  320SOL     OW  967   0.566   0.537   2.727
  320SOL    HW1  968   0.578   0.603   2.653
  320SOL    HW2  969   0.612   0.571   2.810
  321SOL     OW  970   1.252   1.348   2.250
  321SOL    HW1  971   1.302   1.425   2.290
  321SOL    HW2  972   1.157   1.350   2.282
  322SOL     OW  973   1.272   1.445   3.004
  322SOL    HW1  974   1.319   1.458   3.091
  322SOL    HW2  975   1.206   1.371   3.013
  323SOL     OW  976   1.582   0.639   2.334
  323SOL    HW1  977   1.551   0.700   2.407
  323SOL    HW2  978   1.632   0.691   2.265
  324SOL     OW  979   0.354   1.510   3.191
  324SOL    HW1  980   0.333   1.466   3.104
  324SOL    HW2  981   0.451   1.536   3.194
  325SOL     OW  982   0.402   0.751   3.460
  325SOL    HW1  983   0.470   0.806   3.413
  325SOL    HW2  984   0.442   0.663   3.487
  326SOL     OW  985   1.587   0.779   3.532
  326SOL    HW1  986   1.495   0.817   3.527
  326SOL    HW2  987   1.647   0.826   3.467
  327SOL     OW  988   1.013   0.105   3.632
  327SOL    HW1  989   1.019   0.190   3.580
  327SOL    HW2  990   1.045   0.029   3.575
  328SOL     OW  991   0.504   0.050   3.602
  328SOL    HW1  992   0.462  -0.007   3.532
  328SOL    HW2  993   0.438   0.119   3.634
  329SOL     OW  994   0.573   0.870   2.891
  329SOL    HW1  995   0.617   0.959   2.882
  329SOL    HW2  996   0.510   0.870   2.968
  330SOL     OW  997   1.360   0.862   2.907
  330SOL    HW1  998   1.285   0.862   2.841
  330SOL    HW2  999   1.397   0.770   2.916
  331SOL     OW 1000   1.209   0.525   2.137
  331SOL    HW1 1001   1.222   0.441   2.191
  331SOL    HW2 1002   1.180   0.599   2.197
  332SOL     OW 1003   0.307   0.213   3.093
  332SOL    HW1 1004   0.284   0.250   3.183
  332SOL    HW2 1005   0.277   0.118   3.087
  333SOL     OW 1006   0.037   1.310   3.144
  333SOL    HW1 1007   0.090   1.261   3.212
  333SOL    HW2 1008   0.059   1.408   3.149
  334SOL     OW 1009   0.732   0.634   2.926
  334SOL    HW1 1010   0.791   0.608   2.850
  334SOL    HW2 1011   0.704   0.730   2.915
  335SOL     OW 1012   1.728   0.935   3.716
  335SOL    HW1 1013   1.682   0.928   3.627
  335SOL    HW2 1014   1.666   0.979   3.782
  336SOL     OW 1015   0.307   0.063   2.480
  336SOL    HW1 1016   0.296   0.157   2.513
  336SOL    HW2 1017   0.302   0.000   2.557
  337SOL     OW 1018   1.622   0.367   2.236
  337SOL    HW1 1019   1.624   0.291   2.300
  337SOL    HW2 1020   1.574   0.444   2.276
  338SOL     OW 1021   1.023   0.766   2.828
  338SOL    HW1 1022   1.038   0.787   2.924
  338SOL    HW2 1023   0.993   0.671   2.819
  339SOL     OW 1024   0.980   1.573   3.562
  339SOL    HW1 1025   0.960   1.617   3.474
  339SOL    HW2 1026   1.019   1.482   3.546
  340SOL     OW 1027   1.859   1.518   3.467
  340SOL    HW1 1028   1.873   1.545   3.372
  340SOL    HW2 1029   1.942   1.540   3.520
  341SOL     OW 1030   0.350   0.898   3.666
  341SOL    HW1 1031   0.426   0.942   3.714
  341SOL    HW2 1032   0.385   0.851   3.584
  342SOL     OW 1033   1.540   0.274   1.987
  342SOL    HW1 1034   1.479   0.199   2.010
  342SOL    HW2 1035   1.562   0.326   2.070
  343SOL     OW 1036   1.303   0.838   1.904
  343SOL    HW1 1037   1.337   0.745   1.919
  343SOL    HW2 1038   1.321   0.865   1.809
  344SOL     OW 1039   1.068   1.333   2.711
  344SOL    HW1 1040   1.075   1.249   2.656
  344SOL    HW2 1041   1.130   1.402   2.675
  345SOL     OW 1042   0.319   0.810   2.811
  345SOL    HW1 1043   0.412   0.846   2.816
  345SOL    HW2 1044   0.313   0.725   2.863
  346SOL     OW 1045   0.339   0.509   2.868
  346SOL    HW1 1046   0.287   0.426   2.851
  346SOL    HW2 1047   0.416   0.514   2.804
  347SOL     OW 1048   1.138   0.380   3.540
  347SOL    HW1 1049   1.093   0.443   3.604
  347SOL    HW2 1050   1.231   0.411   3.523
  348SOL     OW 1051   1.160   0.207   3.339
  348SOL    HW1 1052   1.160   0.271   3.416
  348SOL    HW2 1053   1.188   0.255   3.256
  349SOL     OW 1054   0.008   1.326   2.062
  349SOL    HW1 1055  -0.085   1.347   2.031
  349SOL    HW2 1056   0.018   1.227   2.075
  350SOL     OW 1057   0.088   1.801   2.789
  350SOL    HW1 1058   0.046   1.715   2.762
  350SOL    HW2 1059   0.182   1.804   2.755
  351SOL     OW 1060   0.504   1.568   2.772
  351SOL    HW1 1061   0.570   1.642   2.781
  351SOL    HW2 1062   0.548   1.489   2.730
  352SOL     OW 1063   1.002   0.796   3.100
  352SOL    HW1 1064   1.043   0.764   3.186
  352SOL    HW2 1065   0.906   0.769   3.097
  353SOL     OW 1066   0.040   0.544   2.976
  353SOL    HW1 1067   0.125   0.511   2.935
  353SOL    HW2 1068   0.053   0.559   3.074
  354SOL     OW 1069   0.189   0.520   3.584
  354SOL    HW1 1070   0.248   0.480   3.514
  354SOL    HW2 1071   0.131   0.591   3.543
  355SOL     OW 1072   1.369   0.950   3.522
  355SOL    HW1 1073   1.408   1.039   3.542
  355SOL    HW2 1074   1.379   0.930   3.425
  356SOL     OW 1075   0.815   0.572   2.187
  356SOL    HW1 1076   0.822   0.483   2.141
  356SOL    HW2 1077   0.721   0.606   2.179
  357SOL     OW 1078   1.657   0.604   3.068
  357SOL    HW1 1079   1.619   0.535   3.130
  357SOL    HW2 1080   1.739   0.568   3.024
  358SOL     OW 1081   0.252   1.564   3.606
  358SOL    HW1 1082   0.222   1.621   3.682
  358SOL    HW2 1083   0.245   1.467   3.632
  359SOL     OW 1084   0.671   0.464   3.131
  359SOL    HW1 1085   0.637   0.375   3.101
  359SOL    HW2 1086   0.697   0.518   3.051
  360SOL     OW 1087   0.930   1.678   3.327
  360SOL    HW1 1088   0.906   1.660   3.232
  360SOL    HW2 1089   0.960   1.772   3.337
  361SOL     OW 1090   0.473   0.500   2.053
  361SOL    HW1 1091   0.534   0.580   2.057
  361SOL    HW2 1092   0.378   0.531   2.060
  362SOL     OW 1093   0.159   1.137   3.328
  362SOL    HW1 1094   0.181   1.076   3.404
  362SOL    HW2 1095   0.169   1.088   3.242
  363SOL     OW 1096   1.347   1.059   3.096
  363SOL    HW1 1097   1.371   0.996   3.022
  363SOL    HW2 1098   1.257   1.099   3.078
  364SOL     OW 1099   1.302   0.855   2.171
  364SOL    HW1 1100   1.216   0.824   2.213
  364SOL    HW2 1101   1.298   0.841   2.072
  365SOL     OW 1102   1.759   1.747   3.016
  365SOL    HW1 1103   1.820   1.777   2.943
  365SOL    HW2 1104   1.721   1.658   2.994
  366SOL     OW 1105   1.252   1.731   2.990
  366SOL    HW1 1106   1.336   1.736   2.936
  366SOL    HW2 1107   1.229   1.635   3.008
  367SOL     OW 1108   0.083   1.258   2.884
  367SOL    HW1 1109   0.078   1.257   2.984
  367SOL    HW2 1110   0.000   1.217   2.846
  368SOL     OW 1111   0.688   1.662   3.578
  368SOL    HW1 1112   0.632   1.743   3.587
  368SOL    HW2 1113   0.740   1.666   3.492
  369SOL     OW 1114   1.726   0.135   2.385
  369SOL    HW1 1115   1.799   0.118   2.318
  369SOL    HW2 1116   1.695   0.048   2.423
  370SOL     OW 1117   1.388   1.573   2.339
  370SOL    HW1 1118   1.455   1.585   2.265
  370SOL    HW2 1119   1.348   1.662   2.362
  371SOL     OW 1120   0.130   1.794   3.713
  371SOL    HW1 1121   0.089   1.720   3.766
  371SOL    HW2 1122   0.194   1.845   3.771
  372SOL     OW 1123   1.280   0.927   2.534
  372SOL    HW1 1124   1.340   0.846   2.536
  372SOL    HW2 1125   1.320   0.996   2.474
  373SOL     OW 1126   0.830   1.273   3.284
  373SOL    HW1 1127   0.825   1.306   3.379
  373SOL    HW2 1128   0.744   1.292   3.238
  374SOL     OW 1129   0.672   1.616   2.016
  374SOL    HW1 1130   0.681   1.626   1.917
  374SOL    HW2 1131   0.632   1.527   2.037
  375SOL     OW 1132   1.650   1.720   3.256
  375SOL    HW1 1133   1.703   1.730   3.172
  375SOL    HW2 1134   1.623   1.810   3.290
  376SOL     OW 1135   1.841   0.175   2.825
  376SOL    HW1 1136   1.880   0.090   2.789
  376SOL    HW2 1137   1.743   0.177   2.806
  377SOL     OW 1138   0.263   0.326   2.582
  377SOL    HW1 1139   0.184   0.377   2.548
  377SOL    HW2 1140   0.254   0.311   2.680
  378SOL     OW 1141   1.194   1.612   1.893
  378SOL    HW1 1142   1.200   1.519   1.930
  378SOL    HW2 1143   1.135   1.612   1.813
  379SOL     OW 1144   0.822   1.002   3.234
  379SOL    HW1 1145   0.862   1.001   3.142
  379SOL    HW2 1146   0.832   1.094   3.274
  380SOL     OW 1147   0.916   0.910   2.153
  380SOL    HW1 1148   0.979   0.948   2.085
  380SOL    HW2 1149   0.956   0.827   2.192
  381SOL     OW 1150   1.504   1.607   1.906
  381SOL    HW1 1151   1.412   1.644   1.913
  381SOL    HW2 1152   1.542   1.627   1.816
  382SOL     OW 1153   0.372   1.288   3.352
  382SOL    HW1 1154   0.359   1.381   3.318
  382SOL    HW2 1155   0.288   1.236   3.339
  383SOL     OW 1156   1.614   1.292   3.151
  383SOL    HW1 1157   1.674   1.295   3.231
  383SOL    HW2 1158   1.539   1.356   3.164
  384SOL     OW 1159   1.039   1.098   2.558
  384SOL    HW1 1160   0.969   1.051   2.612
  384SOL    HW2 1161   1.098   1.030   2.515
  385SOL     OW 1162   1.014   0.236   2.833
  385SOL    HW1 1163   1.006   0.200   2.740
  385SOL    HW2 1164   1.012   0.160   2.898
  386SOL     OW 1165   0.590   1.487   2.353
  386SOL    HW1 1166   0.632   1.429   2.283
  386SOL    HW2 1167   0.546   1.566   2.309
  387SOL     OW 1168   1.709   0.385   3.243
  387SOL    HW1 1169   1.782   0.454   3.247
  387SOL    HW2 1170   1.737   0.310   3.184
  388SOL     OW 1171   0.255   1.348   2.152
  388SOL    HW1 1172   0.159   1.349   2.125
  388SOL    HW2 1173   0.267   1.401   2.236
  389SOL     OW 1174   0.105   1.013   3.588
  389SOL    HW1 1175   0.028   0.980   3.642
  389SOL    HW2 1176   0.190   0.983   3.630
  390SOL     OW 1177   0.672   0.203   3.351
  390SOL    HW1 1178   0.762   0.187   3.311
  390SOL    HW2 1179   0.680   0.208   3.450
  391SOL     OW 1180   0.075   0.345   1.895
  391SOL    HW1 1181  -0.017   0.317   1.866
  391SOL    HW2 1182   0.106   0.422   1.839
  392SOL     OW 1183   1.440   0.856   3.260
  392SOL    HW1 1184   1.383   0.908   3.197
  392SOL    HW2 1185   1.536   0.868   3.236
  393SOL     OW 1186   0.072   0.166   2.180
  393SOL    HW1 1187   0.055   0.249   2.126
  393SOL    HW2 1188   0.162   0.129   2.158
  394SOL     OW 1189   1.183   1.335   1.981
  394SOL    HW1 1190   1.084   1.324   1.983
  394SOL    HW2 1191   1.217   1.350   2.074
  395SOL     OW 1192   0.613   0.842   3.293
  395SOL    HW1 1193   0.669   0.923   3.276
  395SOL    HW2 1194   0.672   0.762   3.296
  396SOL     OW 1195   1.493   1.767   2.821
  396SOL    HW1 1196   1.526   1.831   2.752
  396SOL    HW2 1197   1.559   1.761   2.896
  397SOL     OW 1198   0.716   0.565   3.570
  397SOL    HW1 1199   0.735   0.630   3.644
  397SOL    HW2 1200   0.776   0.485   3.579
  398SOL     OW 1201   1.450   1.220   3.495
  398SOL    HW1 1202   1.441   1.210   3.594
  398SOL    HW2 1203   1.546   1.213   3.469
  399SOL     OW 1204   0.390   1.741   3.422
  399SOL    HW1 1205   0.299   1.782   3.420
  399SOL    HW2 1206   0.383   1.647   3.454
  400SOL     OW 1207   1.674   0.883   3.116
  400SOL    HW1 1208   1.647   0.794   3.079
  400SOL    HW2 1209   1.675   0.951   3.043
  401SOL     OW 1210   1.225   0.325   2.311
  401SOL    HW1 1211   1.290   0.251   2.300
  401SOL    HW2 1212   1.245   0.375   2.395
  402SOL     OW 1213   0.594   0.745   2.514
  402SOL    HW1 1214   0.644   0.830   2.495
  402SOL    HW2 1215   0.506   0.747   2.466
  403SOL     OW 1216   1.777   0.342   3.504
  403SOL    HW1 1217   1.760   0.373   3.410
  403SOL    HW2 1218   1.693   0.305   3.542
  404SOL     OW 1219   1.730   0.934   3.379
  404SOL    HW1 1220   1.768   1.025   3.394
  404SOL    HW2 1221   1.722   0.917   3.280
  405SOL     OW 1222   0.859   1.374   1.878
  405SOL    HW1 1223   0.813   1.389   1.966
  405SOL    HW2 1224   0.903   1.459   1.848
  406SOL     OW 1225   0.661   1.790   2.815
  406SOL    HW1 1226   0.615   1.878   2.802
  406SOL    HW2 1227   0.760   1.802   2.808
  407SOL     OW 1228   0.859   0.956   2.723
  407SOL    HW1 1229   0.913   0.887   2.771
  407SOL    HW2 1230   0.827   1.025   2.789
  408SOL     OW 1231   1.083   0.984   1.949
  408SOL    HW1 1232   1.060   1.037   1.867
  408SOL    HW2 1233   1.164   0.928   1.930
  409SOL     OW 1234   1.861   1.569   2.713
  409SOL    HW1 1235   1.790   1.557   2.643
  409SOL    HW2 1236   1.862   1.490   2.773
  410SOL     OW 1237   0.221   1.314   3.706
  410SOL    HW1 1238   0.156   1.241   3.685
  410SOL    HW2 1239   0.225   1.328   3.804
  411SOL     OW 1240   0.079   1.240   2.515
  411SOL    HW1 1241   0.078   1.193   2.603
  411SOL    HW2 1242   0.161   1.212   2.464
  412SOL     OW 1243   0.672   1.391   3.486
  412SOL    HW1 1244   0.594   1.341   3.524
  412SOL    HW2 1245   0.669   1.486   3.517
  413SOL     OW 1246   1.824   0.192   3.089
  413SOL    HW1 1247   1.820   0.102   3.133
  413SOL    HW2 1248   1.827   0.181   2.990
  414SOL     OW 1249   0.428   0.424   2.382
  414SOL    HW1 1250   0.458   0.352   2.320
  414SOL    HW2 1251   0.389   0.384   2.465
  415SOL     OW 1252   1.705   1.487   2.966
  415SOL    HW1 1253   1.612   1.462   2.939
  415SOL    HW2 1254   1.731   1.437   3.048
  416SOL     OW 1255   0.317   0.547   3.142
  416SOL    HW1 1256   0.355   0.488   3.214
  416SOL    HW2 1257   0.357   0.521   3.054
  417SOL     OW 1258   0.812   1.586   2.549
  417SOL    HW1 1259   0.844   1.596   2.455
  417SOL    HW2 1260   0.733   1.524   2.551
  418SOL     OW 1261   1.424   0.214   2.974
  418SOL    HW1 1262   1.476   0.149   3.029
  418SOL    HW2 1263   1.375   0.277   3.035
  419SOL     OW 1264   1.001   0.034   3.016
  419SOL    HW1 1265   0.938  -0.038   2.985
  419SOL    HW2 1266   1.094  -0.002   3.016
  420SOL     OW 1267   0.770   1.330   2.163
  420SOL    HW1 1268   0.724   1.243   2.180
  420SOL    HW2 1269   0.861   1.327   2.204
  421SOL     OW 1270   0.618   1.567   3.146
  421SOL    HW1 1271   0.613   1.649   3.203
  421SOL    HW2 1272   0.707   1.564   3.101
  422SOL     OW 1273   1.352   0.052   2.030
  422SOL    HW1 1274   1.387   0.011   1.946
  422SOL    HW2 1275   1.262   0.014   2.050
  423SOL     OW 1276   1.300   0.453   2.553
  423SOL    HW1 1277   1.241   0.533   2.557
  423SOL    HW2 1278   1.315   0.418   2.646
  424SOL     OW 1279   1.593   0.221   2.744
  424SOL    HW1 1280   1.509   0.220   2.798
  424SOL    HW2 1281   1.595   0.304   2.688
  425SOL     OW 1282   0.039   1.077   2.162
  425SOL    HW1 1283   0.138   1.066   2.153
  425SOL    HW2 1284  -0.001   0.991   2.194
  426SOL     OW 1285   0.875   1.646   2.199
  426SOL    HW1 1286   0.798   1.611   2.145
  426SOL    HW2 1287   0.843   1.717   2.261
  427SOL     OW 1288   0.230   0.628   3.837
  427SOL    HW1 1289   0.137   0.626   3.874
  427SOL    HW2 1290   0.231   0.589   3.745
  428SOL     OW 1291   1.755   0.607   3.955
  428SOL    HW1 1292   1.743   0.594   3.856
  428SOL    HW2 1293   1.725   0.526   4.004
  429SOL     OW 1294   0.231   1.713   4.207
  429SOL    HW1 1295   0.265   1.790   4.261
  429SOL    HW2 1296   0.275   1.713   4.117
  430SOL     OW 1297   0.230   1.434   4.262
  430SOL    HW1 1298   0.204   1.530   4.262
  430SOL    HW2 1299   0.159   1.380   4.307
  431SOL     OW 1300   0.606   0.964   3.847
  431SOL    HW1 1301   0.613   1.048   3.793
  431SOL    HW2 1302   0.652   0.977   3.935
  432SOL     OW 1303   0.122   0.643   4.287
  432SOL    HW1 1304   0.077   0.555   4.304
  432SOL    HW2 1305   0.121   0.697   4.371
  433SOL     OW 1306   1.842   1.767   4.083
  433SOL    HW1 1307   1.896   1.738   4.163
  433SOL    HW2 1308   1.872   1.857   4.054
  434SOL     OW 1309   0.027   1.596   3.841
  434SOL    HW1 1310   0.008   1.500   3.862
  434SOL    HW2 1311  -0.006   1.654   3.916
  435SOL     OW 1312   1.689   0.922   4.336
  435SOL    HW1 1313   1.784   0.893   4.344
  435SOL    HW2 1314   1.681   0.987   4.261
  436SOL     OW 1315   1.641   1.108   4.156
  436SOL    HW1 1316   1.727   1.110   4.104
  436SOL    HW2 1317   1.655   1.155   4.244
  437SOL     OW 1318   0.613   1.365   4.450
  437SOL    HW1 1319   0.564   1.278   4.459
  437SOL    HW2 1320   0.590   1.408   4.363
  438SOL     OW 1321   0.809   0.004   4.226
  438SOL    HW1 1322   0.849   0.095   4.217
  438SOL    HW2 1323   0.709   0.012   4.232
  439SOL     OW 1324   1.525   0.999   3.914
  439SOL    HW1 1325   1.462   0.923   3.927
  439SOL    HW2 1326   1.573   1.017   4.000
  440SOL     OW 1327   1.466   1.417   4.677
  440SOL    HW1 1328   1.407   1.423   4.757
  440SOL    HW2 1329   1.451   1.329   4.631
  441SOL     OW 1330   0.598   0.729   3.994
  441SOL    HW1 1331   0.622   0.798   3.926
  441SOL    HW2 1332   0.520   0.762   4.048
  442SOL     OW 1333   1.576   1.662   4.031
  442SOL    HW1 1334   1.665   1.708   4.034
  442SOL    HW2 1335   1.555   1.638   3.936
  443SOL     OW 1336   1.041   0.701   4.153
  443SOL    HW1 1337   1.067   0.697   4.249
  443SOL    HW2 1338   0.956   0.650   4.139
  444SOL     OW 1339   0.076   0.811   4.513
  444SOL    HW1 1340   0.175   0.799   4.522
  444SOL    HW2 1341   0.052   0.906   4.534
  445SOL     OW 1342   0.865   0.348   3.919
  445SOL    HW1 1343   0.924   0.411   3.870
  445SOL    HW2 1344   0.884   0.254   3.890
  446SOL     OW 1345   1.362   1.144   4.269
  446SOL    HW1 1346   1.445   1.115   4.221
  446SOL    HW2 1347   1.313   1.211   4.213
  447SOL     OW 1348   1.008   1.456   4.201
  447SOL    HW1 1349   0.962   1.528   4.149
  447SOL    HW2 1350   1.004   1.476   4.299
  448SOL     OW 1351   0.351   1.801   4.577
  448SOL    HW1 1352   0.401   1.715   4.583
  448SOL    HW2 1353   0.416   1.878   4.574
  449SOL     OW 1354   0.321   0.943   3.966
  449SOL    HW1 1355   0.403   0.982   3.924
  449SOL    HW2 1356   0.294   0.861   3.917
  450SOL     OW 1357   1.111   1.776   3.961
  450SOL    HW1 1358   1.051   1.714   4.011
  450SOL    HW2 1359   1.142   1.732   3.876
  451SOL     OW 1360   1.632   1.377   3.805
  451SOL    HW1 1361   1.600   1.471   3.795
  451SOL    HW2 1362   1.556   1.314   3.793
  452SOL     OW 1363   0.464   1.743   4.047
  452SOL    HW1 1364   0.497   1.782   4.133
  452SOL    HW2 1365   0.540   1.736   3.982
  453SOL     OW 1366   1.400   0.107   4.150
  453SOL    HW1 1367   1.376   0.070   4.060
  453SOL    HW2 1368   1.499   0.123   4.154
  454SOL     OW 1369   0.382   0.700   4.204
  454SOL    HW1 1370   0.427   0.610   4.201
  454SOL    HW2 1371   0.288   0.689   4.237
  455SOL     OW 1372   0.614   0.122   3.841
  455SOL    HW1 1373   0.712   0.100   3.848
  455SOL    HW2 1374   0.583   0.105   3.748
  456SOL     OW 1375   0.539   0.064   4.236
  456SOL    HW1 1376   0.458   0.065   4.294
  456SOL    HW2 1377   0.542   0.147   4.181
  457SOL     OW 1378   1.434   1.188   3.765
  457SOL    HW1 1379   1.466   1.112   3.822
  457SOL    HW2 1380   1.342   1.215   3.795
  458SOL     OW 1381   0.297   0.035   3.895
  458SOL    HW1 1382   0.346   0.119   3.874
  458SOL    HW2 1383   0.359  -0.030   3.940
  459SOL     OW 1384   0.935   0.236   4.204
  459SOL    HW1 1385   0.887   0.277   4.126
  459SOL    HW2 1386   1.034   0.234   4.185
  460SOL     OW 1387   0.459   1.152   4.465
  460SOL    HW1 1388   0.388   1.125   4.530
  460SOL    HW2 1389   0.433   1.124   4.372
  461SOL     OW 1390   1.271   1.797   4.315
  461SOL    HW1 1391   1.315   1.861   4.251
  461SOL    HW2 1392   1.221   1.849   4.385
  462SOL     OW 1393   1.032   0.549   3.740
  462SOL    HW1 1394   0.991   0.631   3.701
  462SOL    HW2 1395   1.096   0.575   3.813
  463SOL     OW 1396   0.866   0.454   4.366
  463SOL    HW1 1397   0.834   0.526   4.304
  463SOL    HW2 1398   0.890   0.373   4.313
  464SOL     OW 1399   1.857   0.833   4.101
  464SOL    HW1 1400   1.899   0.769   4.165
  464SOL    HW2 1401   1.819   0.782   4.023
  465SOL     OW 1402   0.488   1.385   3.898
  465SOL    HW1 1403   0.401   1.370   3.945
  465SOL    HW2 1404   0.471   1.411   3.803
  466SOL     OW 1405   1.390   0.575   3.802
  466SOL    HW1 1406   1.336   0.554   3.883
  466SOL    HW2 1407   1.481   0.534   3.811
  467SOL     OW 1408   0.527   0.256   4.052
  467SOL    HW1 1409   0.554   0.197   3.977
  467SOL    HW2 1410   0.527   0.351   4.021
  468SOL     OW 1411   0.705   1.050   4.092
  468SOL    HW1 1412   0.691   1.057   4.191
  468SOL    HW2 1413   0.789   0.999   4.074
  469SOL     OW 1414   0.367   1.100   4.225
  469SOL    HW1 1415   0.360   1.183   4.169
  469SOL    HW2 1416   0.371   1.020   4.165
  470SOL     OW 1417   1.252   1.348   4.112
  470SOL    HW1 1418   1.302   1.425   4.152
  470SOL    HW2 1419   1.157   1.350   4.144
  471SOL     OW 1420   1.582   0.639   4.196
  471SOL    HW1 1421   1.551   0.700   4.269
  471SOL    HW2 1422   1.632   0.691   4.127
  472SOL     OW 1423   1.209   0.525   3.999
  472SOL    HW1 1424   1.222   0.441   4.053
  472SOL    HW2 1425   1.180   0.599   4.059
  473SOL     OW 1426   0.307   0.063   4.342
  473SOL    HW1 1427   0.296   0.157   4.375
  473SOL    HW2 1428   0.302   0.000   4.419
  474SOL     OW 1429   1.622   0.367   4.098
  474SOL    HW1 1430   1.624   0.291   4.162
  474SOL    HW2 1431   1.574   0.444   4.138
  475SOL     OW 1432   1.540   0.274   3.849
  475SOL    HW1 1433   1.479   0.199   3.872
  475SOL    HW2 1434   1.562   0.326   3.932
  476SOL     OW 1435   1.303   0.838   3.766
  476SOL    HW1 1436   1.337   0.745   3.781
  476SOL    HW2 1437   1.321   0.865   3.671
  477SOL     OW 1438   0.008   1.326   3.924
  477SOL    HW1 1439  -0.085   1.347   3.893
  477SOL    HW2 1440   0.018   1.227   3.937
  478SOL     OW 1441   0.815   0.572   4.049
  478SOL    HW1 1442   0.822   0.483   4.003
  478SOL    HW2 1443   0.721   0.606   4.041
  479SOL     OW 1444   0.473   0.500   3.915
  479SOL    HW1 1445   0.534   0.580   3.919
  479SOL    HW2 1446   0.378   0.531   3.922
  480SOL     OW 1447   1.302   0.855   4.033
  480SOL    HW1 1448   1.216   0.824   4.075
  480SOL    HW2 1449   1.298   0.841   3.934
  481SOL     OW 1450   1.726   0.135   4.247
  481SOL    HW1 1451   1.799   0.118   4.180
  481SOL    HW2 1452   1.695   0.048   4.285
  482SOL     OW 1453   1.388   1.573   4.201
  482SOL    HW1 1454   1.455   1.585   4.127
  482SOL    HW2 1455   1.348   1.662   4.224
  483SOL     OW 1456   0.672   1.616   3.878
  483SOL    HW1 1457   0.681   1.626   3.779
  483SOL    HW2 1458   0.632   1.527   3.899
  484SOL     OW 1459   1.841   0.175   4.687
  484SOL    HW1 1460   1.880   0.090   4.651
  484SOL    HW2 1461   1.743   0.177   4.668
  485SOL     OW 1462   1.194   1.612   3.755
  485SOL    HW1 1463   1.200   1.519   3.792
  485SOL    HW2 1464   1.135   1.612   3.675
  486SOL     OW 1465   0.916   0.910   4.015
  486SOL    HW1 1466   0.979   0.948   3.947
  486SOL    HW2 1467   0.956   0.827   4.054
  487SOL     OW 1468   1.504   1.607   3.768
  487SOL    HW1 1469   1.412   1.644   3.775
  487SOL    HW2 1470   1.542   1.627   3.678
  488SOL     OW 1471   0.590   1.487   4.215
  488SOL    HW1 1472   0.632   1.429   4.145
  488SOL    HW2 1473   0.546   1.566   4.171
  489SOL     OW 1474   0.255   1.348   4.014
  489SOL    HW1 1475   0.159   1.349   3.987
  489SOL    HW2 1476   0.267   1.401   4.098
  490SOL     OW 1477   0.075   0.345   3.757
  490SOL    HW1 1478  -0.017   0.317   3.728
  490SOL    HW2 1479   0.106   0.422   3.701
  491SOL     OW 1480   0.072   0.166   4.042
  491SOL    HW1 1481   0.055   0.249   3.988
  491SOL    HW2 1482   0.162   0.129   4.020
  492SOL     OW 1483   1.183   1.335   3.843
  492SOL    HW1 1484   1.084   1.324   3.845
  492SOL    HW2 1485   1.217   1.350   3.936
  493SOL     OW 1486   1.225   0.325   4.173
  493SOL    HW1 1487   1.290   0.251   4.162
  493SOL    HW2 1488   1.245   0.375   4.257
  494SOL     OW 1489   0.594   0.745   4.376
  494SOL    HW1 1490   0.644   0.830   4.357
  494SOL    HW2 1491   0.506   0.747   4.328
  495SOL     OW 1492   0.859   1.374   3.740
  495SOL    HW1 1493   0.813   1.389   3.828
  495SOL    HW2 1494   0.903   1.459   3.710
  496SOL     OW 1495   1.083   0.984   3.811
  496SOL    HW1 1496   1.060   1.037   3.729
  496SOL    HW2 1497   1.164   0.928   3.792
  497SOL     OW 1498   0.079   1.240   4.377
  497SOL    HW1 1499   0.078   1.193   4.465
  497SOL    HW2 1500   0.161   1.212   4.326
  498SOL     OW 1501   0.428   0.424   4.244
  498SOL    HW1 1502   0.458   0.352   4.182
  498SOL    HW2 1503   0.389   0.384   4.327
  499SOL     OW 1504   0.770   1.330   4.025
  499SOL    HW1 1505   0.724   1.243   4.042
  499SOL    HW2 1506   0.861   1.327   4.066
  500SOL     OW 1507   1.352   0.052   3.892
  500SOL    HW1 1508   1.387   0.011   3.808
  500SOL    HW2 1509   1.262   0.014   3.912
  501SOL     OW 1510   1.300   0.453   4.415
  501SOL    HW1 1511   1.241   0.533   4.419
  501SOL    HW2 1512   1.315   0.418   4.508
  502SOL     OW 1513   0.039   1.077   4.024
  502SOL    HW1 1514   0.138   1.066   4.015
  502SOL    HW2 1515  -0.001   0.991   4.056
  503SOL     OW 1516   0.875   1.646   4.061
  503SOL    HW1 1517   0.798   1.611   4.007
  503SOL    HW2 1518   0.843   1.717   4.123
  504SOL     OW 1519   0.230   2.490   0.113
  504SOL    HW1 1520   0.137   2.488   0.150
  504SOL    HW2 1521   0.231   2.451   0.021
  505SOL     OW 1522   0.225   2.137   0.996
  505SOL    HW1 1523   0.260   2.120   1.088
  505SOL    HW2 1524   0.137   2.092   0.984
  506SOL     OW 1525   0.019   2.230   0.647
  506SOL    HW1 1526  -0.063   2.273   0.686
  506SOL    HW2 1527  -0.009   2.157   0.584
  507SOL     OW 1528   0.569   3.137   1.165
  507SOL    HW1 1529   0.476   3.130   1.128
  507SOL    HW2 1530   0.580   3.226   1.209
  508SOL     OW 1531   1.555   3.373   0.703
  508SOL    HW1 1532   1.498   3.357   0.784
  508SOL    HW2 1533   1.496   3.383   0.623
  509SOL     OW 1534   1.135   2.565   0.717
  509SOL    HW1 1535   1.192   2.643   0.692
  509SOL    HW2 1536   1.075   2.591   0.793
  510SOL     OW 1537   1.755   2.469   0.231
  510SOL    HW1 1538   1.743   2.456   0.132
  510SOL    HW2 1539   1.725   2.388   0.280
  511SOL     OW 1540   0.768   3.006   1.023
  511SOL    HW1 1541   0.690   3.023   1.083
  511SOL    HW2 1542   0.802   3.093   0.987
  512SOL     OW 1543   0.850   2.660   1.823
  512SOL    HW1 1544   0.846   2.736   1.888
  512SOL    HW2 1545   0.872   2.696   1.732
  513SOL     OW 1546   0.685   2.874   0.665
  513SOL    HW1 1547   0.754   2.858   0.735
  513SOL    HW2 1548   0.612   2.931   0.703
  514SOL     OW 1549   0.686   3.023   1.803
  514SOL    HW1 1550   0.746   3.102   1.817
  514SOL    HW2 1551   0.600   3.054   1.762
  515SOL     OW 1552   0.335   3.297   1.061
  515SOL    HW1 1553   0.257   3.266   1.008
  515SOL    HW2 1554   0.393   3.355   1.004
  516SOL     OW 1555   1.460   3.367   1.339
  516SOL    HW1 1556   1.484   3.461   1.365
  516SOL    HW2 1557   1.444   3.313   1.421
  517SOL     OW 1558   0.438   2.254   1.499
  517SOL    HW1 1559   0.520   2.198   1.508
  517SOL    HW2 1560   0.357   2.196   1.503
  518SOL     OW 1561   1.603   2.309   0.737
  518SOL    HW1 1562   1.529   2.355   0.687
  518SOL    HW2 1563   1.654   2.377   0.790
  519SOL     OW 1564   0.231   3.575   0.483
  519SOL    HW1 1565   0.265   3.652   0.537
  519SOL    HW2 1566   0.275   3.575   0.393
  520SOL     OW 1567   1.127   3.203   1.690
  520SOL    HW1 1568   1.174   3.203   1.778
  520SOL    HW2 1569   1.079   3.116   1.679
  521SOL     OW 1570   0.230   3.296   0.538
  521SOL    HW1 1571   0.204   3.392   0.538
  521SOL    HW2 1572   0.159   3.242   0.583
  522SOL     OW 1573   0.240   2.953   0.886
  522SOL    HW1 1574   0.254   2.869   0.938
  522SOL    HW2 1575   0.185   3.017   0.941
  523SOL     OW 1576   0.620   3.648   1.439
  523SOL    HW1 1577   0.528   3.631   1.474
  523SOL    HW2 1578   0.648   3.740   1.465
  524SOL     OW 1579   0.606   2.826   0.123
  524SOL    HW1 1580   0.613   2.910   0.069
  524SOL    HW2 1581   0.652   2.839   0.211
  525SOL     OW 1582   1.594   1.976   1.480
  525SOL    HW1 1583   1.576   2.043   1.408
  525SOL    HW2 1584   1.591   2.022   1.569
  526SOL     OW 1585   0.122   2.505   0.563
  526SOL    HW1 1586   0.077   2.417   0.580
  526SOL    HW2 1587   0.121   2.559   0.647
  527SOL     OW 1588   1.842   3.629   0.359
  527SOL    HW1 1589   1.896   3.600   0.439
  527SOL    HW2 1590   1.872   3.719   0.330
  528SOL     OW 1591   0.027   3.458   0.117
  528SOL    HW1 1592   0.008   3.362   0.138
  528SOL    HW2 1593  -0.006   3.516   0.192
  529SOL     OW 1594   1.689   2.784   0.612
  529SOL    HW1 1595   1.784   2.755   0.620
  529SOL    HW2 1596   1.681   2.849   0.537
  530SOL     OW 1597   1.641   2.970   0.432
  530SOL    HW1 1598   1.727   2.972   0.380
  530SOL    HW2 1599   1.655   3.017   0.520
  531SOL     OW 1600   0.113   2.599   1.597
  531SOL    HW1 1601   0.201   2.586   1.642
  531SOL    HW2 1602   0.100   2.696   1.575
  532SOL     OW 1603   0.613   3.227   0.726
  532SOL    HW1 1604   0.564   3.140   0.735
  532SOL    HW2 1605   0.590   3.270   0.639
  533SOL     OW 1606   1.293   3.090   1.423
  533SOL    HW1 1607   1.330   3.017   1.365
  533SOL    HW2 1608   1.345   3.095   1.508
  534SOL     OW 1609   0.809   1.866   0.502
  534SOL    HW1 1610   0.849   1.957   0.493
  534SOL    HW2 1611   0.709   1.874   0.508
  535SOL     OW 1612   0.197   2.838   1.264
  535SOL    HW1 1613   0.286   2.793   1.250
  535SOL    HW2 1614   0.124   2.773   1.245
  536SOL     OW 1615   1.525   2.861   0.190
  536SOL    HW1 1616   1.462   2.785   0.203
  536SOL    HW2 1617   1.573   2.879   0.276
  537SOL     OW 1618   1.187   3.654   1.616
  537SOL    HW1 1619   1.211   3.714   1.540
  537SOL    HW2 1620   1.194   3.559   1.586
  538SOL     OW 1621   0.317   2.113   1.801
  538SOL    HW1 1622   0.388   2.184   1.807
  538SOL    HW2 1623   0.229   2.152   1.829
  539SOL     OW 1624   1.466   3.279   0.953
  539SOL    HW1 1625   1.407   3.285   1.033
  539SOL    HW2 1626   1.451   3.191   0.907
  540SOL     OW 1627   1.667   3.576   0.572
  540SOL    HW1 1628   1.626   3.553   0.484
  540SOL    HW2 1629   1.649   3.502   0.637
  541SOL     OW 1630   0.598   2.591   0.270
  541SOL    HW1 1631   0.622   2.660   0.202
  541SOL    HW2 1632   0.520   2.624   0.324
  542SOL     OW 1633   1.281   2.207   0.944
  542SOL    HW1 1634   1.195   2.157   0.931
  542SOL    HW2 1635   1.343   2.153   1.000
  543SOL     OW 1636   1.576   3.524   0.307
  543SOL    HW1 1637   1.665   3.570   0.310
  543SOL    HW2 1638   1.555   3.500   0.212
  544SOL     OW 1639   0.807   2.467   1.465
  544SOL    HW1 1640   0.760   2.464   1.554
  544SOL    HW2 1641   0.756   2.412   1.399
  545SOL     OW 1642   1.394   2.331   1.674
  545SOL    HW1 1643   1.374   2.374   1.762
  545SOL    HW2 1644   1.472   2.269   1.683
  546SOL     OW 1645   0.973   2.752   1.572
  546SOL    HW1 1646   1.019   2.668   1.543
  546SOL    HW2 1647   0.917   2.786   1.497
  547SOL     OW 1648   0.991   2.272   1.242
  547SOL    HW1 1649   0.914   2.306   1.296
  547SOL    HW2 1650   0.957   2.221   1.163
  548SOL     OW 1651   1.041   2.563   0.429
  548SOL    HW1 1652   1.067   2.559   0.525
  548SOL    HW2 1653   0.956   2.512   0.415
  549SOL     OW 1654   0.076   2.673   0.789
  549SOL    HW1 1655   0.175   2.661   0.798
  549SOL    HW2 1656   0.052   2.768   0.810
  550SOL     OW 1657   0.130   3.683   1.571
  550SOL    HW1 1658   0.120   3.668   1.670
  550SOL    HW2 1659   0.044   3.719   1.535
  551SOL     OW 1660   0.865   2.210   0.195
  551SOL    HW1 1661   0.924   2.273   0.146
  551SOL    HW2 1662   0.884   2.116   0.166
  552SOL     OW 1663   1.719   2.447   1.831
  552SOL    HW1 1664   1.693   2.536   1.795
  552SOL    HW2 1665   1.717   2.379   1.758
  553SOL     OW 1666   1.362   3.006   0.545
  553SOL    HW1 1667   1.445   2.977   0.497
  553SOL    HW2 1668   1.313   3.073   0.489
  554SOL     OW 1669   0.550   2.058   0.885
  554SOL    HW1 1670   0.545   2.053   0.985
  554SOL    HW2 1671   0.552   2.154   0.856
  555SOL     OW 1672   1.008   3.318   0.477
  555SOL    HW1 1673   0.962   3.390   0.425
  555SOL    HW2 1674   1.004   3.338   0.575
  556SOL     OW 1675   0.351   3.663   0.853
  556SOL    HW1 1676   0.401   3.577   0.859
  556SOL    HW2 1677   0.416   3.740   0.850
  557SOL     OW 1678   1.795   2.928   0.873
  557SOL    HW1 1679   1.733   2.913   0.797
  557SOL    HW2 1680   1.743   2.939   0.958
  558SOL     OW 1681   1.227   3.412   1.506
  558SOL    HW1 1682   1.233   3.335   1.570
  558SOL    HW2 1683   1.175   3.386   1.426
  559SOL     OW 1684   0.321   2.805   0.242
  559SOL    HW1 1685   0.403   2.844   0.200
  559SOL    HW2 1686   0.294   2.723   0.193
  560SOL     OW 1687   1.458   2.597   0.728
  560SOL    HW1 1688   1.453   2.532   0.803
  560SOL    HW2 1689   1.538   2.656   0.741
  561SOL     OW 1690   0.461   3.128   1.727
  561SOL    HW1 1691   0.411   3.129   1.641
  561SOL    HW2 1692   0.398   3.110   1.803
  562SOL     OW 1693   1.111   3.638   0.237
  562SOL    HW1 1694   1.051   3.576   0.287
  562SOL    HW2 1695   1.142   3.594   0.152
  563SOL     OW 1696   0.202   2.147   1.498
  563SOL    HW1 1697   0.122   2.207   1.485
  563SOL    HW2 1698   0.192   2.098   1.584
  564SOL     OW 1699   1.632   3.239   0.081
  564SOL    HW1 1700   1.600   3.333   0.071
  564SOL    HW2 1701   1.556   3.176   0.069
  565SOL     OW 1702   0.464   3.605   0.323
  565SOL    HW1 1703   0.497   3.644   0.409
  565SOL    HW2 1704   0.540   3.598   0.258
  566SOL     OW 1705   1.400   1.969   0.426
  566SOL    HW1 1706   1.376   1.932   0.336
  566SOL    HW2 1707   1.499   1.985   0.430
  567SOL     OW 1708   0.249   3.647   1.241
  567SOL    HW1 1709   0.306   3.582   1.291
  567SOL    HW2 1710   0.233   3.614   1.148
  568SOL     OW 1711   0.940   3.560   0.904
  568SOL    HW1 1712   1.020   3.503   0.925
  568SOL    HW2 1713   0.891   3.520   0.827
  569SOL     OW 1714   0.382   2.562   0.480
  569SOL    HW1 1715   0.427   2.472   0.477
  569SOL    HW2 1716   0.288   2.551   0.513
  570SOL     OW 1717   1.547   2.084   1.729
  570SOL    HW1 1718   1.542   2.121   1.821
  570SOL    HW2 1719   1.475   2.015   1.717
  571SOL     OW 1720   0.614   1.984   0.117
  571SOL    HW1 1721   0.712   1.962   0.124
  571SOL    HW2 1722   0.583   1.967   0.024
  572SOL     OW 1723   0.781   2.126   1.749
  572SOL    HW1 1724   0.848   2.065   1.792
  572SOL    HW2 1725   0.708   2.145   1.814
  573SOL     OW 1726   0.888   3.376   1.195
  573SOL    HW1 1727   0.865   3.351   1.101
  573SOL    HW2 1728   0.949   3.307   1.234
  574SOL     OW 1729   1.351   2.452   1.433
  574SOL    HW1 1730   1.379   2.409   1.518
  574SOL    HW2 1731   1.376   2.548   1.434
  575SOL     OW 1732   0.803   3.264   0.924
  575SOL    HW1 1733   0.893   3.278   0.882
  575SOL    HW2 1734   0.732   3.266   0.853
  576SOL     OW 1735   0.922   2.365   0.899
  576SOL    HW1 1736   0.897   2.356   0.803
  576SOL    HW2 1737   0.970   2.283   0.930
  577SOL     OW 1738   0.539   1.926   0.512
  577SOL    HW1 1739   0.458   1.927   0.570
  577SOL    HW2 1740   0.542   2.009   0.457
  578SOL     OW 1741   1.434   3.050   0.041
  578SOL    HW1 1742   1.466   2.974   0.098
  578SOL    HW2 1743   1.342   3.077   0.071
  579SOL     OW 1744   0.935   2.098   0.480
  579SOL    HW1 1745   0.887   2.139   0.402
  579SOL    HW2 1746   1.034   2.096   0.461
  580SOL     OW 1747   1.076   2.545   1.464
  580SOL    HW1 1748   0.996   2.484   1.467
  580SOL    HW2 1749   1.157   2.492   1.440
  581SOL     OW 1750   1.227   3.432   0.793
  581SOL    HW1 1751   1.248   3.506   0.728
  581SOL    HW2 1752   1.295   3.432   0.866
  582SOL     OW 1753   0.459   3.014   0.741
  582SOL    HW1 1754   0.388   2.987   0.806
  582SOL    HW2 1755   0.433   2.986   0.648
  583SOL     OW 1756   1.271   3.659   0.591
  583SOL    HW1 1757   1.315   3.723   0.527
  583SOL    HW2 1758   1.221   3.711   0.661
  584SOL     OW 1759   1.032   2.411   0.016
  584SOL    HW1 1760   0.991   2.493  -0.023
  584SOL    HW2 1761   1.096   2.437   0.089
  585SOL     OW 1762   0.078   2.418   1.386
  585SOL    HW1 1763   0.170   2.417   1.345
  585SOL    HW2 1764   0.072   2.492   1.453
  586SOL     OW 1765   0.561   2.084   1.147
  586SOL    HW1 1766   0.599   2.000   1.184
  586SOL    HW2 1767   0.473   2.103   1.191
  587SOL     OW 1768   0.866   2.316   0.642
  587SOL    HW1 1769   0.834   2.388   0.580
  587SOL    HW2 1770   0.890   2.235   0.589
  588SOL     OW 1771   1.017   1.901   0.753
  588SOL    HW1 1772   0.945   1.906   0.684
  588SOL    HW2 1773   0.993   1.832   0.822
  589SOL     OW 1774   1.429   3.035   0.867
  589SOL    HW1 1775   1.374   2.951   0.860
  589SOL    HW2 1776   1.455   3.064   0.775
  590SOL     OW 1777   1.466   2.452   0.992
  590SOL    HW1 1778   1.436   2.357   0.999
  590SOL    HW2 1779   1.539   2.468   1.058
  591SOL     OW 1780   1.857   2.695   0.377
  591SOL    HW1 1781   1.899   2.631   0.441
  591SOL    HW2 1782   1.819   2.644   0.299
  592SOL     OW 1783   0.488   3.247   0.174
  592SOL    HW1 1784   0.401   3.232   0.221
  592SOL    HW2 1785   0.471   3.273   0.079
  593SOL     OW 1786   1.664   3.142   0.657
  593SOL    HW1 1787   1.763   3.150   0.671
  593SOL    HW2 1788   1.619   3.226   0.688
  594SOL     OW 1789   1.390   2.437   0.078
  594SOL    HW1 1790   1.336   2.416   0.159
  594SOL    HW2 1791   1.481   2.396   0.087
  595SOL     OW 1792   0.527   2.118   0.328
  595SOL    HW1 1793   0.554   2.059   0.253
  595SOL    HW2 1794   0.527   2.213   0.297
  596SOL     OW 1795   1.754   3.085   1.588
  596SOL    HW1 1796   1.845   3.046   1.575
  596SOL    HW2 1797   1.762   3.181   1.612
  597SOL     OW 1798   1.064   3.209   1.340
  597SOL    HW1 1799   0.984   3.186   1.395
  597SOL    HW2 1800   1.147   3.183   1.389
  598SOL     OW 1801   1.592   3.491   1.625
  598SOL    HW1 1802   1.619   3.525   1.535
  598SOL    HW2 1803   1.671   3.453   1.671
  599SOL     OW 1804   1.111   3.057   1.100
  599SOL    HW1 1805   1.071   3.101   1.181
  599SOL    HW2 1806   1.070   3.094   1.017
  600SOL     OW 1807   1.638   2.961   1.079
  600SOL    HW1 1808   1.643   3.042   1.138
  600SOL    HW2 1809   1.552   2.963   1.028
  601SOL     OW 1810   0.915   1.951   1.402
  601SOL    HW1 1811   0.940   1.931   1.307
  601SOL    HW2 1812   0.987   2.007   1.444
  602SOL     OW 1813   0.980   2.978   1.719
  602SOL    HW1 1814   0.881   2.984   1.729
  602SOL    HW2 1815   1.003   2.898   1.663
  603SOL     OW 1816   0.705   2.912   0.368
  603SOL    HW1 1817   0.691   2.919   0.467
  603SOL    HW2 1818   0.789   2.861   0.350
  604SOL     OW 1819   0.410   2.675   1.251
  604SOL    HW1 1820   0.496   2.687   1.301
  604SOL    HW2 1821   0.368   2.588   1.278
  605SOL     OW 1822   1.274   2.248   1.262
  605SOL    HW1 1823   1.295   2.322   1.326
  605SOL    HW2 1824   1.185   2.265   1.219
  606SOL     OW 1825   0.064   3.426   1.331
  606SOL    HW1 1826   0.018   3.508   1.297
  606SOL    HW2 1827   0.162   3.445   1.340
  607SOL     OW 1828   0.367   2.962   0.501
  607SOL    HW1 1829   0.360   3.045   0.445
  607SOL    HW2 1830   0.371   2.882   0.441
  608SOL     OW 1831   0.566   2.399   0.865
  608SOL    HW1 1832   0.578   2.465   0.791
  608SOL    HW2 1833   0.612   2.433   0.948
  609SOL     OW 1834   1.252   3.210   0.388
  609SOL    HW1 1835   1.302   3.287   0.428
  609SOL    HW2 1836   1.157   3.212   0.420
  610SOL     OW 1837   1.272   3.307   1.142
  610SOL    HW1 1838   1.319   3.320   1.229
  610SOL    HW2 1839   1.206   3.233   1.151
  611SOL     OW 1840   1.582   2.501   0.472
  611SOL    HW1 1841   1.551   2.562   0.545
  611SOL    HW2 1842   1.632   2.553   0.403
  612SOL     OW 1843   0.354   3.372   1.329
  612SOL    HW1 1844   0.333   3.328   1.242
  612SOL    HW2 1845   0.451   3.398   1.332
  613SOL     OW 1846   0.402   2.613   1.598
  613SOL    HW1 1847   0.470   2.668   1.551
  613SOL    HW2 1848   0.442   2.525   1.625
  614SOL     OW 1849   1.587   2.641   1.670
  614SOL    HW1 1850   1.495   2.679   1.665
  614SOL    HW2 1851   1.647   2.688   1.605
  615SOL     OW 1852   1.013   1.967   1.770
  615SOL    HW1 1853   1.019   2.052   1.718
  615SOL    HW2 1854   1.045   1.891   1.713
  616SOL     OW 1855   0.504   1.912   1.740
  616SOL    HW1 1856   0.462   1.855   1.670
  616SOL    HW2 1857   0.438   1.981   1.772
  617SOL     OW 1858   0.573   2.732   1.029
  617SOL    HW1 1859   0.617   2.821   1.020
  617SOL    HW2 1860   0.510   2.732   1.106
  618SOL     OW 1861   1.360   2.724   1.045
  618SOL    HW1 1862   1.285   2.724   0.979
  618SOL    HW2 1863   1.397   2.632   1.054
  619SOL     OW 1864   1.209   2.387   0.275
  619SOL    HW1 1865   1.222   2.303   0.329
  619SOL    HW2 1866   1.180   2.461   0.335
  620SOL     OW 1867   0.307   2.075   1.231
  620SOL    HW1 1868   0.284   2.112   1.321
  620SOL    HW2 1869   0.277   1.980   1.225
  621SOL     OW 1870   0.037   3.172   1.282
  621SOL    HW1 1871   0.090   3.123   1.350
  621SOL    HW2 1872   0.059   3.270   1.287
  622SOL     OW 1873   0.732   2.496   1.064
  622SOL    HW1 1874   0.791   2.470   0.988
  622SOL    HW2 1875   0.704   2.592   1.053
  623SOL     OW 1876   1.728   2.797   1.854
  623SOL    HW1 1877   1.682   2.790   1.765
  623SOL    HW2 1878   1.666   2.841   1.920
  624SOL     OW 1879   0.307   1.925   0.618
  624SOL    HW1 1880   0.296   2.019   0.651
  624SOL    HW2 1881   0.302   1.862   0.695
  625SOL     OW 1882   1.622   2.229   0.374
  625SOL    HW1 1883   1.624   2.153   0.438
  625SOL    HW2 1884   1.574   2.306   0.414
  626SOL     OW 1885   1.023   2.628   0.966
  626SOL    HW1 1886   1.038   2.649   1.062
  626SOL    HW2 1887   0.993   2.533   0.957
  627SOL     OW 1888   0.980   3.435   1.700
  627SOL    HW1 1889   0.960   3.479   1.612
  627SOL    HW2 1890   1.019   3.344   1.684
  628SOL     OW 1891   1.859   3.380   1.605
  628SOL    HW1 1892   1.873   3.407   1.510
  628SOL    HW2 1893   1.942   3.402   1.658
  629SOL     OW 1894   0.350   2.760   1.804
  629SOL    HW1 1895   0.426   2.804   1.852
  629SOL    HW2 1896   0.385   2.713   1.722
  630SOL     OW 1897   1.540   2.136   0.125
  630SOL    HW1 1898   1.479   2.061   0.148
  630SOL    HW2 1899   1.562   2.188   0.208
  631SOL     OW 1900   1.303   2.700   0.042
  631SOL    HW1 1901   1.337   2.607   0.057
  631SOL    HW2 1902   1.321   2.727  -0.053
  632SOL     OW 1903   1.068   3.195   0.849
  632SOL    HW1 1904   1.075   3.111   0.794
  632SOL    HW2 1905   1.130   3.264   0.813
  633SOL     OW 1906   0.319   2.672   0.949
  633SOL    HW1 1907   0.412   2.708   0.954
  633SOL    HW2 1908   0.313   2.587   1.001
  634SOL     OW 1909   0.339   2.371   1.006
  634SOL    HW1 1910   0.287   2.288   0.989
  634SOL    HW2 1911   0.416   2.376   0.942
  635SOL     OW 1912   1.138   2.242   1.678
  635SOL    HW1 1913   1.093   2.305   1.742
  635SOL    HW2 1914   1.231   2.273   1.661
  636SOL     OW 1915   1.160   2.069   1.477
  636SOL    HW1 1916   1.160   2.133   1.554
  636SOL    HW2 1917   1.188   2.117   1.394
  637SOL     OW 1918   0.008   3.188   0.200
  637SOL    HW1 1919  -0.085   3.209   0.169
  637SOL    HW2 1920   0.018   3.089   0.213
  638SOL     OW 1921   0.088   3.663   0.927
  638SOL    HW1 1922   0.046   3.577   0.900
  638SOL    HW2 1923   0.182   3.666   0.893
  639SOL     OW 1924   0.504   3.430   0.910
  639SOL    HW1 1925   0.570   3.504   0.919
  639SOL    HW2 1926   0.548   3.351   0.868
  640SOL     OW 1927   1.002   2.658   1.238
  640SOL    HW1 1928   1.043   2.626   1.324
  640SOL    HW2 1929   0.906   2.631   1.235
  641SOL     OW 1930   0.040   2.406   1.114
  641SOL    HW1 1931   0.125   2.373   1.073
  641SOL    HW2 1932   0.053   2.421   1.212
  642SOL     OW 1933   0.189   2.382   1.722
  642SOL    HW1 1934   0.248   2.342   1.652
  642SOL    HW2 1935   0.131   2.453   1.681
  643SOL     OW 1936   1.369   2.812   1.660
  643SOL    HW1 1937   1.408   2.901   1.680
  643SOL    HW2 1938   1.379   2.792   1.563
  644SOL     OW 1939   0.815   2.434   0.325
  644SOL    HW1 1940   0.822   2.345   0.279
  644SOL    HW2 1941   0.721   2.468   0.317
  645SOL     OW 1942   1.657   2.466   1.206
  645SOL    HW1 1943   1.619   2.397   1.268
  645SOL    HW2 1944   1.739   2.430   1.162
  646SOL     OW 1945   0.252   3.426   1.744
  646SOL    HW1 1946   0.222   3.483   1.820
  646SOL    HW2 1947   0.245   3.329   1.770
  647SOL     OW 1948   0.671   2.326   1.269
  647SOL    HW1 1949   0.637   2.237   1.239
  647SOL    HW2 1950   0.697   2.380   1.189
  648SOL     OW 1951   0.930   3.540   1.465
  648SOL    HW1 1952   0.906   3.522   1.370
  648SOL    HW2 1953   0.960   3.634   1.475
  649SOL     OW 1954   0.473   2.362   0.191
  649SOL    HW1 1955   0.534   2.442   0.195
  649SOL    HW2 1956   0.378   2.393   0.198
  650SOL     OW 1957   0.159   2.999   1.466
  650SOL    HW1 1958   0.181   2.938   1.542
  650SOL    HW2 1959   0.169   2.950   1.380
  651SOL     OW 1960   1.347   2.921   1.234
  651SOL    HW1 1961   1.371   2.858   1.160
  651SOL    HW2 1962   1.257   2.961   1.216
  652SOL     OW 1963   1.302   2.717   0.309
  652SOL    HW1 1964   1.216   2.686   0.351
  652SOL    HW2 1965   1.298   2.703   0.210
  653SOL     OW 1966   1.759   3.609   1.154
  653SOL    HW1 1967   1.820   3.639   1.081
  653SOL    HW2 1968   1.721   3.520   1.132
  654SOL     OW 1969   1.252   3.593   1.128
  654SOL    HW1 1970   1.336   3.598   1.074
  654SOL    HW2 1971   1.229   3.497   1.146
  655SOL     OW 1972   0.083   3.120   1.022
  655SOL    HW1 1973   0.078   3.119   1.122
  655SOL    HW2 1974   0.000   3.079   0.984
  656SOL     OW 1975   0.688   3.524   1.716
  656SOL    HW1 1976   0.632   3.605   1.725
  656SOL    HW2 1977   0.740   3.528   1.630
  657SOL     OW 1978   0.903   1.948   0.133
  657SOL    HW1 1979   0.954   1.949   0.047
  657SOL    HW2 1980   0.959   1.906   0.204
  658SOL     OW 1981   1.726   1.997   0.523
  658SOL    HW1 1982   1.799   1.980   0.456
  658SOL    HW2 1983   1.695   1.910   0.561
  659SOL     OW 1984   1.388   3.435   0.477
  659SOL    HW1 1985   1.455   3.447   0.403
  659SOL    HW2 1986   1.348   3.524   0.500
  660SOL     OW 1987   0.130   3.656   1.851
  660SOL    HW1 1988   0.089   3.582   1.904
  660SOL    HW2 1989   0.194   3.707   1.909
  661SOL     OW 1990   1.280   2.789   0.672
  661SOL    HW1 1991   1.340   2.708   0.674
  661SOL    HW2 1992   1.320   2.858   0.612
  662SOL     OW 1993   0.830   3.135   1.422
  662SOL    HW1 1994   0.825   3.168   1.517
  662SOL    HW2 1995   0.744   3.154   1.376
  663SOL     OW 1996   0.672   3.478   0.154
  663SOL    HW1 1997   0.681   3.488   0.055
  663SOL    HW2 1998   0.632   3.389   0.175
  664SOL     OW 1999   1.650   3.582   1.394
  664SOL    HW1 2000   1.703   3.592   1.310
  664SOL    HW2 2001   1.623   3.672   1.428
  665SOL     OW 2002   1.841   2.037   0.963
  665SOL    HW1 2003   1.880   1.952   0.927
  665SOL    HW2 2004   1.743   2.039   0.944
  666SOL     OW 2005   0.263   2.188   0.720
  666SOL    HW1 2006   0.184   2.239   0.686
  666SOL    HW2 2007   0.254   2.173   0.818
  667SOL     OW 2008   1.194   3.474   0.031
  667SOL    HW1 2009   1.200   3.381   0.068
  667SOL    HW2 2010   1.135   3.474  -0.049
  668SOL     OW 2011   0.822   2.864   1.372
  668SOL    HW1 2012   0.862   2.863   1.280
  668SOL    HW2 2013   0.832   2.956   1.412
  669SOL     OW 2014   0.916   2.772   0.291
  669SOL    HW1 2015   0.979   2.810   0.223
  669SOL    HW2 2016   0.956   2.689   0.330
  670SOL     OW 2017   1.504   3.469   0.044
  670SOL    HW1 2018   1.412   3.506   0.051
  670SOL    HW2 2019   1.542   3.489  -0.046
  671SOL     OW 2020   0.372   3.150   1.490
  671SOL    HW1 2021   0.359   3.243   1.456
  671SOL    HW2 2022   0.288   3.098   1.477
  672SOL     OW 2023   1.614   3.154   1.289
  672SOL    HW1 2024   1.674   3.157   1.369
  672SOL    HW2 2025   1.539   3.218   1.302
  673SOL     OW 2026   1.039   2.960   0.696
  673SOL    HW1 2027   0.969   2.913   0.750
  673SOL    HW2 2028   1.098   2.892   0.653
  674SOL     OW 2029   1.014   2.098   0.971
  674SOL    HW1 2030   1.006   2.062   0.878
  674SOL    HW2 2031   1.012   2.022   1.036
  675SOL     OW 2032   0.590   3.349   0.491
  675SOL    HW1 2033   0.632   3.291   0.421
  675SOL    HW2 2034   0.546   3.428   0.447
  676SOL     OW 2035   1.709   2.247   1.381
  676SOL    HW1 2036   1.782   2.316   1.385
  676SOL    HW2 2037   1.737   2.172   1.322
  677SOL     OW 2038   0.255   3.210   0.290
  677SOL    HW1 2039   0.159   3.211   0.263
  677SOL    HW2 2040   0.267   3.263   0.374
  678SOL     OW 2041   0.105   2.875   1.726
  678SOL    HW1 2042   0.028   2.842   1.780
  678SOL    HW2 2043   0.190   2.845   1.768
  679SOL     OW 2044   0.672   2.065   1.489
  679SOL    HW1 2045   0.762   2.049   1.449
  679SOL    HW2 2046   0.680   2.070   1.588
  680SOL     OW 2047   0.075   2.207   0.033
  680SOL    HW1 2048  -0.017   2.179   0.004
  680SOL    HW2 2049   0.106   2.284  -0.023
  681SOL     OW 2050   1.440   2.718   1.398
  681SOL    HW1 2051   1.383   2.770   1.335
  681SOL    HW2 2052   1.536   2.730   1.374
  682SOL     OW 2053   0.072   2.028   0.318
  682SOL    HW1 2054   0.055   2.111   0.264
  682SOL    HW2 2055   0.162   1.991   0.296
  683SOL     OW 2056   1.183   3.197   0.119
  683SOL    HW1 2057   1.084   3.186   0.121
  683SOL    HW2 2058   1.217   3.212   0.212
  684SOL     OW 2059   0.613   2.704   1.431
  684SOL    HW1 2060   0.669   2.785   1.414
  684SOL    HW2 2061   0.672   2.624   1.434
  685SOL     OW 2062   1.493   3.629   0.959
  685SOL    HW1 2063   1.526   3.693   0.890
  685SOL    HW2 2064   1.559   3.623   1.034
  686SOL     OW 2065   0.716   2.427   1.708
  686SOL    HW1 2066   0.735   2.492   1.782
  686SOL    HW2 2067   0.776   2.347   1.717
  687SOL     OW 2068   1.450   3.082   1.633
  687SOL    HW1 2069   1.441   3.072   1.732
  687SOL    HW2 2070   1.546   3.075   1.607
  688SOL     OW 2071   0.390   3.603   1.560
  688SOL    HW1 2072   0.299   3.644   1.558
  688SOL    HW2 2073   0.383   3.509   1.592
  689SOL     OW 2074   1.674   2.745   1.254
  689SOL    HW1 2075   1.647   2.656   1.217
  689SOL    HW2 2076   1.675   2.813   1.181
  690SOL     OW 2077   1.225   2.187   0.449
  690SOL    HW1 2078   1.290   2.113   0.438
  690SOL    HW2 2079   1.245   2.237   0.533
  691SOL     OW 2080   0.594   2.607   0.652
  691SOL    HW1 2081   0.644   2.692   0.633
  691SOL    HW2 2082   0.506   2.609   0.604
  692SOL     OW 2083   1.777   2.204   1.642
  692SOL    HW1 2084   1.760   2.235   1.548
  692SOL    HW2 2085   1.693   2.167   1.680
  693SOL     OW 2086   1.730   2.796   1.517
  693SOL    HW1 2087   1.768   2.887   1.532
  693SOL    HW2 2088   1.722   2.779   1.418
  694SOL     OW 2089   0.859   3.236   0.016
  694SOL    HW1 2090   0.813   3.251   0.104
  694SOL    HW2 2091   0.903   3.321  -0.014
  695SOL     OW 2092   0.661   3.652   0.953
  695SOL    HW1 2093   0.615   3.740   0.940
  695SOL    HW2 2094   0.760   3.664   0.946
  696SOL     OW 2095   0.859   2.818   0.861
  696SOL    HW1 2096   0.913   2.749   0.909
  696SOL    HW2 2097   0.827   2.887   0.927
  697SOL     OW 2098   1.083   2.846   0.087
  697SOL    HW1 2099   1.060   2.899   0.005
  697SOL    HW2 2100   1.164   2.790   0.068
  698SOL     OW 2101   1.861   3.431   0.851
  698SOL    HW1 2102   1.790   3.419   0.781
  698SOL    HW2 2103   1.862   3.352   0.911
  699SOL     OW 2104   0.221   3.176   1.844
  699SOL    HW1 2105   0.156   3.103   1.823
  699SOL    HW2 2106   0.225   3.190   1.942
  700SOL     OW 2107   0.079   3.102   0.653
  700SOL    HW1 2108   0.078   3.055   0.741
  700SOL    HW2 2109   0.161   3.074   0.602
  701SOL     OW 2110   0.672   3.253   1.624
  701SOL    HW1 2111   0.594   3.203   1.662
  701SOL    HW2 2112   0.669   3.348   1.655
  702SOL     OW 2113   1.824   2.054   1.227
  702SOL    HW1 2114   1.820   1.964   1.271
  702SOL    HW2 2115   1.827   2.043   1.128
  703SOL     OW 2116   0.428   2.286   0.520
  703SOL    HW1 2117   0.458   2.214   0.458
  703SOL    HW2 2118   0.389   2.246   0.603
  704SOL     OW 2119   1.705   3.349   1.104
  704SOL    HW1 2120   1.612   3.324   1.077
  704SOL    HW2 2121   1.731   3.299   1.186
  705SOL     OW 2122   0.317   2.409   1.280
  705SOL    HW1 2123   0.355   2.350   1.352
  705SOL    HW2 2124   0.357   2.383   1.192
  706SOL     OW 2125   0.812   3.448   0.687
  706SOL    HW1 2126   0.844   3.458   0.593
  706SOL    HW2 2127   0.733   3.386   0.689
  707SOL     OW 2128   1.424   2.076   1.112
  707SOL    HW1 2129   1.476   2.011   1.167
  707SOL    HW2 2130   1.375   2.139   1.173
  708SOL     OW 2131   1.001   1.896   1.154
  708SOL    HW1 2132   0.938   1.824   1.123
  708SOL    HW2 2133   1.094   1.860   1.154
  709SOL     OW 2134   0.770   3.192   0.301
  709SOL    HW1 2135   0.724   3.105   0.318
  709SOL    HW2 2136   0.861   3.189   0.342
  710SOL     OW 2137   0.618   3.429   1.284
  710SOL    HW1 2138   0.613   3.511   1.341
  710SOL    HW2 2139   0.707   3.426   1.239
  711SOL     OW 2140   1.352   1.914   0.168
  711SOL    HW1 2141   1.387   1.873   0.084
  711SOL    HW2 2142   1.262   1.876   0.188
  712SOL     OW 2143   1.300   2.315   0.691
  712SOL    HW1 2144   1.241   2.395   0.695
  712SOL    HW2 2145   1.315   2.280   0.784
  713SOL     OW 2146   1.593   2.083   0.882
  713SOL    HW1 2147   1.509   2.082   0.936
  713SOL    HW2 2148   1.595   2.166   0.826
  714SOL     OW 2149   0.039   2.939   0.300
  714SOL    HW1 2150   0.138   2.928   0.291
  714SOL    HW2 2151  -0.001   2.853   0.332
  715SOL     OW 2152   0.875   3.508   0.337
  715SOL    HW1 2153   0.798   3.473   0.283
  715SOL    HW2 2154   0.843   3.579   0.399
  716SOL     OW 2155   0.230   2.490   1.975
  716SOL    HW1 2156   0.137   2.488   2.012
  716SOL    HW2 2157   0.231   2.451   1.883
  717SOL     OW 2158   0.225   2.137   2.858
  717SOL    HW1 2159   0.260   2.120   2.950
  717SOL    HW2 2160   0.137   2.092   2.846
  718SOL     OW 2161   0.019   2.230   2.509
  718SOL    HW1 2162  -0.063   2.273   2.548
  718SOL    HW2 2163  -0.009   2.157   2.446
  719SOL     OW 2164   0.569   3.137   3.027
  719SOL    HW1 2165   0.476   3.130   2.990
  719SOL    HW2 2166   0.580   3.226   3.071
  720SOL     OW 2167   1.555   3.373   2.565
  720SOL    HW1 2168   1.498   3.357   2.646
  720SOL    HW2 2169   1.496   3.383   2.485
  721SOL     OW 2170   1.135   2.565   2.579
  721SOL    HW1 2171   1.192   2.643   2.554
  721SOL    HW2 2172   1.075   2.591   2.655
  722SOL     OW 2173   1.755   2.469   2.093
  722SOL    HW1 2174   1.743   2.456   1.994
  722SOL    HW2 2175   1.725   2.388   2.142
  723SOL     OW 2176   0.768   3.006   2.885
  723SOL    HW1 2177   0.690   3.023   2.945
  723SOL    HW2 2178   0.802   3.093   2.849
  724SOL     OW 2179   0.850   2.660   3.685
  724SOL    HW1 2180   0.846   2.736   3.750
  724SOL    HW2 2181   0.872   2.696   3.594
  725SOL     OW 2182   0.685   2.874   2.527
  725SOL    HW1 2183   0.754   2.858   2.597
  725SOL    HW2 2184   0.612   2.931   2.565
  726SOL     OW 2185   0.686   3.023   3.665
  726SOL    HW1 2186   0.746   3.102   3.679
  726SOL    HW2 2187   0.600   3.054   3.624
  727SOL     OW 2188   0.335   3.297   2.923
  727SOL    HW1 2189   0.257   3.266   2.870
  727SOL    HW2 2190   0.393   3.355   2.866
  728SOL     OW 2191   1.460   3.367   3.201
  728SOL    HW1 2192   1.484   3.461   3.227
  728SOL    HW2 2193   1.444   3.313   3.283
  729SOL     OW 2194   0.438   2.254   3.361
  729SOL    HW1 2195   0.520   2.198   3.370
  729SOL    HW2 2196   0.357   2.196   3.365
  730SOL     OW 2197   1.603   2.309   2.599
  730SOL    HW1 2198   1.529   2.355   2.549
  730SOL    HW2 2199   1.654   2.377   2.652
  731SOL     OW 2200   0.231   3.575   2.345
  731SOL    HW1 2201   0.265   3.652   2.399
  731SOL    HW2 2202   0.275   3.575   2.255
  732SOL     OW 2203   1.127   3.203   3.552
  732SOL    HW1 2204   1.174   3.203   3.640
  732SOL    HW2 2205   1.079   3.116   3.541
  733SOL     OW 2206   0.230   3.296   2.400
  733SOL    HW1 2207   0.204   3.392   2.400
  733SOL    HW2 2208   0.159   3.242   2.445
  734SOL     OW 2209   0.240   2.953   2.748
  734SOL    HW1 2210   0.254   2.869   2.800
  734SOL    HW2 2211   0.185   3.017   2.803
  735SOL     OW 2212   0.620   3.648   3.301
  735SOL    HW1 2213   0.528   3.631   3.336
  735SOL    HW2 2214   0.648   3.740   3.327
  736SOL     OW 2215   0.606   2.826   1.985
  736SOL    HW1 2216   0.613   2.910   1.931
  736SOL    HW2 2217   0.652   2.839   2.073
  737SOL     OW 2218   1.594   1.976   3.342
  737SOL    HW1 2219   1.576   2.043   3.270
  737SOL    HW2 2220   1.591   2.022   3.431
  738SOL     OW 2221   0.122   2.505   2.425
  738SOL    HW1 2222   0.077   2.417   2.442
  738SOL    HW2 2223   0.121   2.559   2.509
  739SOL     OW 2224   1.842   3.629   2.221
  739SOL    HW1 2225   1.896   3.600   2.301
  739SOL    HW2 2226   1.872   3.719   2.192
  740SOL     OW 2227   0.027   3.458   1.979
  740SOL    HW1 2228   0.008   3.362   2.000
  740SOL    HW2 2229  -0.006   3.516   2.054
  741SOL     OW 2230   1.689   2.784   2.474
  741SOL    HW1 2231   1.784   2.755   2.482
  741SOL    HW2 2232   1.681   2.849   2.399
  742SOL     OW 2233   1.641   2.970   2.294
  742SOL    HW1 2234   1.727   2.972   2.242
  742SOL    HW2 2235   1.655   3.017   2.382
  743SOL     OW 2236   0.113   2.599   3.459
  743SOL    HW1 2237   0.201   2.586   3.504
  743SOL    HW2 2238   0.100   2.696   3.437
  744SOL     OW 2239   0.613   3.227   2.588
  744SOL    HW1 2240   0.564   3.140   2.597
  744SOL    HW2 2241   0.590   3.270   2.501
  745SOL     OW 2242   1.293   3.090   3.285
  745SOL    HW1 2243   1.330   3.017   3.227
  745SOL    HW2 2244   1.345   3.095   3.370
  746SOL     OW 2245   0.809   1.866   2.364
  746SOL    HW1 2246   0.849   1.957   2.355
  746SOL    HW2 2247   0.709   1.874   2.370
  747SOL     OW 2248   0.197   2.838   3.126
  747SOL    HW1 2249   0.286   2.793   3.112
  747SOL    HW2 2250   0.124   2.773   3.107
  748SOL     OW 2251   1.525   2.861   2.052
  748SOL    HW1 2252   1.462   2.785   2.065
  748SOL    HW2 2253   1.573   2.879   2.138
  749SOL     OW 2254   1.187   3.654   3.478
  749SOL    HW1 2255   1.211   3.714   3.402
  749SOL    HW2 2256   1.194   3.559   3.448
  750SOL     OW 2257   0.317   2.113   3.663
  750SOL    HW1 2258   0.388   2.184   3.669
  750SOL    HW2 2259   0.229   2.152   3.691
  751SOL     OW 2260   1.466   3.279   2.815
  751SOL    HW1 2261   1.407   3.285   2.895
  751SOL    HW2 2262   1.451   3.191   2.769
  752SOL     OW 2263   1.667   3.576   2.434
  752SOL    HW1 2264   1.626   3.553   2.346
  752SOL    HW2 2265   1.649   3.502   2.499
  753SOL     OW 2266   0.598   2.591   2.132
  753SOL    HW1 2267   0.622   2.660   2.064
  753SOL    HW2 2268   0.520   2.624   2.186
  754SOL     OW 2269   1.281   2.207   2.806
  754SOL    HW1 2270   1.195   2.157   2.793
  754SOL    HW2 2271   1.343   2.153   2.862
  755SOL     OW 2272   1.576   3.524   2.169
  755SOL    HW1 2273   1.665   3.570   2.172
  755SOL    HW2 2274   1.555   3.500   2.074
  756SOL     OW 2275   0.807   2.467   3.327
  756SOL    HW1 2276   0.760   2.464   3.416
  756SOL    HW2 2277   0.756   2.412   3.261
  757SOL     OW 2278   1.394   2.331   3.536
  757SOL    HW1 2279   1.374   2.374   3.624
  757SOL    HW2 2280   1.472   2.269   3.545
  758SOL     OW 2281   0.973   2.752   3.434
  758SOL    HW1 2282   1.019   2.668   3.405
  758SOL    HW2 2283   0.917   2.786   3.359
  759SOL     OW 2284   0.991   2.272   3.104
  759SOL    HW1 2285   0.914   2.306   3.158
  759SOL    HW2 2286   0.957   2.221   3.025
  760SOL     OW 2287   1.041   2.563   2.291
  760SOL    HW1 2288   1.067   2.559   2.387
  760SOL    HW2 2289   0.956   2.512   2.277
  761SOL     OW 2290   0.076   2.673   2.651
  761SOL    HW1 2291   0.175   2.661   2.660
  761SOL    HW2 2292   0.052   2.768   2.672
  762SOL     OW 2293   0.130   3.683   3.433
  762SOL    HW1 2294   0.120   3.668   3.532
  762SOL    HW2 2295   0.044   3.719   3.397
  763SOL     OW 2296   0.865   2.210   2.057
  763SOL    HW1 2297   0.924   2.273   2.008
  763SOL    HW2 2298   0.884   2.116   2.028
  764SOL     OW 2299   1.719   2.447   3.693
  764SOL    HW1 2300   1.693   2.536   3.657
  764SOL    HW2 2301   1.717   2.379   3.620
  765SOL     OW 2302   1.362   3.006   2.407
  765SOL    HW1 2303   1.445   2.977   2.359
  765SOL    HW2 2304   1.313   3.073   2.351
  766SOL     OW 2305   0.550   2.058   2.747
  766SOL    HW1 2306   0.545   2.053   2.847
  766SOL    HW2 2307   0.552   2.154   2.718
  767SOL     OW 2308   1.008   3.318   2.339
  767SOL    HW1 2309   0.962   3.390   2.287
  767SOL    HW2 2310   1.004   3.338   2.437
  768SOL     OW 2311   0.351   3.663   2.715
  768SOL    HW1 2312   0.401   3.577   2.721
  768SOL    HW2 2313   0.416   3.740   2.712
  769SOL     OW 2314   1.795   2.928   2.735
  769SOL    HW1 2315   1.733   2.913   2.659
  769SOL    HW2 2316   1.743   2.939   2.820
  770SOL     OW 2317   1.227   3.412   3.368
  770SOL    HW1 2318   1.233   3.335   3.432
  770SOL    HW2 2319   1.175   3.386   3.288
  771SOL     OW 2320   0.321   2.805   2.104
  771SOL    HW1 2321   0.403   2.844   2.062
  771SOL    HW2 2322   0.294   2.723   2.055
  772SOL     OW 2323   1.458   2.597   2.590
  772SOL    HW1 2324   1.453   2.532   2.665
  772SOL    HW2 2325   1.538   2.656   2.603
  773SOL     OW 2326   0.461   3.128   3.589
  773SOL    HW1 2327   0.411   3.129   3.503
  773SOL    HW2 2328   0.398   3.110   3.665
  774SOL     OW 2329   1.111   3.638   2.099
  774SOL    HW1 2330   1.051   3.576   2.149
  774SOL    HW2 2331   1.142   3.594   2.014
  775SOL     OW 2332   0.202   2.147   3.360
  775SOL    HW1 2333   0.122   2.207   3.347
  775SOL    HW2 2334   0.192   2.098   3.446
  776SOL     OW 2335   1.632   3.239   1.943
  776SOL    HW1 2336   1.600   3.333   1.933
  776SOL    HW2 2337   1.556   3.176   1.931
  777SOL     OW 2338   0.464   3.605   2.185
  777SOL    HW1 2339   0.497   3.644   2.271
  777SOL    HW2 2340   0.540   3.598   2.120
  778SOL     OW 2341   1.400   1.969   2.288
  778SOL    HW1 2342   1.376   1.932   2.198
  778SOL    HW2 2343   1.499   1.985   2.292
  779SOL     OW 2344   0.249   3.647   3.103
  779SOL    HW1 2345   0.306   3.582   3.153
  779SOL    HW2 2346   0.233   3.614   3.010
  780SOL     OW 2347   0.940   3.560   2.766
  780SOL    HW1 2348   1.020   3.503   2.787
  780SOL    HW2 2349   0.891   3.520   2.689
  781SOL     OW 2350   0.382   2.562   2.342
  781SOL    HW1 2351   0.427   2.472   2.339
  781SOL    HW2 2352   0.288   2.551   2.375
  782SOL     OW 2353   1.547   2.084   3.591
  782SOL    HW1 2354   1.542   2.121   3.683
  782SOL    HW2 2355   1.475   2.015   3.579
  783SOL     OW 2356   0.614   1.984   1.979
  783SOL    HW1 2357   0.712   1.962   1.986
  783SOL    HW2 2358   0.583   1.967   1.886
  784SOL     OW 2359   0.781   2.126   3.611
  784SOL    HW1 2360   0.848   2.065   3.654
  784SOL    HW2 2361   0.708   2.145   3.676
  785SOL     OW 2362   0.888   3.376   3.057
  785SOL    HW1 2363   0.865   3.351   2.963
  785SOL    HW2 2364   0.949   3.307   3.096
  786SOL     OW 2365   1.351   2.452   3.295
  786SOL    HW1 2366   1.379   2.409   3.380
  786SOL    HW2 2367   1.376   2.548   3.296
  787SOL     OW 2368   0.803   3.264   2.786
  787SOL    HW1 2369   0.893   3.278   2.744
  787SOL    HW2 2370   0.732   3.266   2.715
  788SOL     OW 2371   0.922   2.365   2.761
  788SOL    HW1 2372   0.897   2.356   2.665
  788SOL    HW2 2373   0.970   2.283   2.792
  789SOL     OW 2374   0.539   1.926   2.374
  789SOL    HW1 2375   0.458   1.927   2.432
  789SOL    HW2 2376   0.542   2.009   2.319
  790SOL     OW 2377   1.434   3.050   1.903
  790SOL    HW1 2378   1.466   2.974   1.960
  790SOL    HW2 2379   1.342   3.077   1.933
  791SOL     OW 2380   0.297   1.897   2.033
  791SOL    HW1 2381   0.346   1.981   2.012
  791SOL    HW2 2382   0.359   1.832   2.078
  792SOL     OW 2383   0.935   2.098   2.342
  792SOL    HW1 2384   0.887   2.139   2.264
  792SOL    HW2 2385   1.034   2.096   2.323
  793SOL     OW 2386   1.076   2.545   3.326
  793SOL    HW1 2387   0.996   2.484   3.329
  793SOL    HW2 2388   1.157   2.492   3.302
  794SOL     OW 2389   1.227   3.432   2.655
  794SOL    HW1 2390   1.248   3.506   2.590
  794SOL    HW2 2391   1.295   3.432   2.728
  795SOL     OW 2392   0.459   3.014   2.603
  795SOL    HW1 2393   0.388   2.987   2.668
  795SOL    HW2 2394   0.433   2.986   2.510
  796SOL     OW 2395   1.271   3.659   2.453
  796SOL    HW1 2396   1.315   3.723   2.389
  796SOL    HW2 2397   1.221   3.711   2.523
  797SOL     OW 2398   1.032   2.411   1.878
  797SOL    HW1 2399   0.991   2.493   1.839
  797SOL    HW2 2400   1.096   2.437   1.951
  798SOL     OW 2401   0.078   2.418   3.248
  798SOL    HW1 2402   0.170   2.417   3.207
  798SOL    HW2 2403   0.072   2.492   3.315
  799SOL     OW 2404   0.561   2.084   3.009
  799SOL    HW1 2405   0.599   2.000   3.046
  799SOL    HW2 2406   0.473   2.103   3.053
  800SOL     OW 2407   0.866   2.316   2.504
  800SOL    HW1 2408   0.834   2.388   2.442
  800SOL    HW2 2409   0.890   2.235   2.451
  801SOL     OW 2410   1.017   1.901   2.615
  801SOL    HW1 2411   0.945   1.906   2.546
  801SOL    HW2 2412   0.993   1.832   2.684
  802SOL     OW 2413   1.429   3.035   2.729
  802SOL    HW1 2414   1.374   2.951   2.722
  802SOL    HW2 2415   1.455   3.064   2.637
  803SOL     OW 2416   1.466   2.452   2.854
  803SOL    HW1 2417   1.436   2.357   2.861
  803SOL    HW2 2418   1.539   2.468   2.920
  804SOL     OW 2419   1.857   2.695   2.239
  804SOL    HW1 2420   1.899   2.631   2.303
  804SOL    HW2 2421   1.819   2.644   2.161
  805SOL     OW 2422   0.488   3.247   2.036
  805SOL    HW1 2423   0.401   3.232   2.083
  805SOL    HW2 2424   0.471   3.273   1.941
  806SOL     OW 2425   1.664   3.142   2.519
  806SOL    HW1 2426   1.763   3.150   2.533
  806SOL    HW2 2427   1.619   3.226   2.550
  807SOL     OW 2428   1.390   2.437   1.940
  807SOL    HW1 2429   1.336   2.416   2.021
  807SOL    HW2 2430   1.481   2.396   1.949
  808SOL     OW 2431   0.527   2.118   2.190
  808SOL    HW1 2432   0.554   2.059   2.115
  808SOL    HW2 2433   0.527   2.213   2.159
  809SOL     OW 2434   1.754   3.085   3.450
  809SOL    HW1 2435   1.845   3.046   3.437
  809SOL    HW2 2436   1.762   3.181   3.474
  810SOL     OW 2437   1.064   3.209   3.202
  810SOL    HW1 2438   0.984   3.186   3.257
  810SOL    HW2 2439   1.147   3.183   3.251
  811SOL     OW 2440   1.592   3.491   3.487
  811SOL    HW1 2441   1.619   3.525   3.397
  811SOL    HW2 2442   1.671   3.453   3.533
  812SOL     OW 2443   1.111   3.057   2.962
  812SOL    HW1 2444   1.071   3.101   3.043
  812SOL    HW2 2445   1.070   3.094   2.879
  813SOL     OW 2446   1.638   2.961   2.941
  813SOL    HW1 2447   1.643   3.042   3.000
  813SOL    HW2 2448   1.552   2.963   2.890
  814SOL     OW 2449   0.915   1.951   3.264
  814SOL    HW1 2450   0.940   1.931   3.169
  814SOL    HW2 2451   0.987   2.007   3.306
  815SOL     OW 2452   0.980   2.978   3.581
  815SOL    HW1 2453   0.881   2.984   3.591
  815SOL    HW2 2454   1.003   2.898   3.525
  816SOL     OW 2455   0.705   2.912   2.230
  816SOL    HW1 2456   0.691   2.919   2.329
  816SOL    HW2 2457   0.789   2.861   2.212
  817SOL     OW 2458   0.410   2.675   3.113
  817SOL    HW1 2459   0.496   2.687   3.163
  817SOL    HW2 2460   0.368   2.588   3.140
  818SOL     OW 2461   1.274   2.248   3.124
  818SOL    HW1 2462   1.295   2.322   3.188
  818SOL    HW2 2463   1.185   2.265   3.081
  819SOL     OW 2464   0.064   3.426   3.193
  819SOL    HW1 2465   0.018   3.508   3.159
  819SOL    HW2 2466   0.162   3.445   3.202
  820SOL     OW 2467   0.367   2.962   2.363
  820SOL    HW1 2468   0.360   3.045   2.307
  820SOL    HW2 2469   0.371   2.882   2.303
  821SOL     OW 2470   0.566   2.399   2.727
  821SOL    HW1 2471   0.578   2.465   2.653
  821SOL    HW2 2472   0.612   2.433   2.810
  822SOL     OW 2473   1.252   3.210   2.250
  822SOL    HW1 2474   1.302   3.287   2.290
  822SOL    HW2 2475   1.157   3.212   2.282
  823SOL     OW 2476   1.272   3.307   3.004
  823SOL    HW1 2477   1.319   3.320   3.091
  823SOL    HW2 2478   1.206   3.233   3.013
  824SOL     OW 2479   1.582   2.501   2.334
  824SOL    HW1 2480   1.551   2.562   2.407
  824SOL    HW2 2481   1.632   2.553   2.265
  825SOL     OW 2482   0.354   3.372   3.191
  825SOL    HW1 2483   0.333   3.328   3.104
  825SOL    HW2 2484   0.451   3.398   3.194
  826SOL     OW 2485   0.402   2.613   3.460
  826SOL    HW1 2486   0.470   2.668   3.413
  826SOL    HW2 2487   0.442   2.525   3.487
  827SOL     OW 2488   1.587   2.641   3.532
  827SOL    HW1 2489   1.495   2.679   3.527
  827SOL    HW2 2490   1.647   2.688   3.467
  828SOL     OW 2491   1.013   1.967   3.632
  828SOL    HW1 2492   1.019   2.052   3.580
  828SOL    HW2 2493   1.045   1.891   3.575
  829SOL     OW 2494   0.504   1.912   3.602
  829SOL    HW1 2495   0.462   1.855   3.532
  829SOL    HW2 2496   0.438   1.981   3.634
  830SOL     OW 2497   0.573   2.732   2.891
  830SOL    HW1 2498   0.617   2.821   2.882
  830SOL    HW2 2499   0.510   2.732   2.968
  831SOL     OW 2500   1.360   2.724   2.907
  831SOL    HW1 2501   1.285   2.724   2.841
  831SOL    HW2 2502   1.397   2.632   2.916
  832SOL     OW 2503   1.209   2.387   2.137
  832SOL    HW1 2504   1.222   2.303   2.191
  832SOL    HW2 2505   1.180   2.461   2.197
  833SOL     OW 2506   0.307   2.075   3.093
  833SOL    HW1 2507   0.284   2.112   3.183
  833SOL    HW2 2508   0.277   1.980   3.087
  834SOL     OW 2509   0.037   3.172   3.144
  834SOL    HW1 2510   0.090   3.123   3.212
  834SOL    HW2 2511   0.059   3.270   3.149
  835SOL     OW 2512   0.732   2.496   2.926
  835SOL    HW1 2513   0.791   2.470   2.850
  835SOL    HW2 2514   0.704   2.592   2.915
  836SOL     OW 2515   1.728   2.797   3.716
  836SOL    HW1 2516   1.682   2.790   3.627
  836SOL    HW2 2517   1.666   2.841   3.782
  837SOL     OW 2518   0.307   1.925   2.480
  837SOL    HW1 2519   0.296   2.019   2.513
  837SOL    HW2 2520   0.302   1.862   2.557
  838SOL     OW 2521   1.622   2.229   2.236
  838SOL    HW1 2522   1.624   2.153   2.300
  838SOL    HW2 2523   1.574   2.306   2.276
  839SOL     OW 2524   1.023   2.628   2.828
  839SOL    HW1 2525   1.038   2.649   2.924
  839SOL    HW2 2526   0.993   2.533   2.819
  840SOL     OW 2527   0.980   3.435   3.562
  840SOL    HW1 2528   0.960   3.479   3.474
  840SOL    HW2 2529   1.019   3.344   3.546
  841SOL     OW 2530   1.859   3.380   3.467
  841SOL    HW1 2531   1.873   3.407   3.372
  841SOL    HW2 2532   1.942   3.402   3.520
  842SOL     OW 2533   0.350   2.760   3.666
  842SOL    HW1 2534   0.426   2.804   3.714
  842SOL    HW2 2535   0.385   2.713   3.584
  843SOL     OW 2536   1.540   2.136   1.987
  843SOL    HW1 2537   1.479   2.061   2.010
  843SOL    HW2 2538   1.562   2.188   2.070
  844SOL     OW 2539   1.303   2.700   1.904
  844SOL    HW1 2540   1.337   2.607   1.919
  844SOL    HW2 2541   1.321   2.727   1.809
  845SOL     OW 2542   1.068   3.195   2.711
  845SOL    HW1 2543   1.075   3.111   2.656
  845SOL    HW2 2544   1.130   3.264   2.675
  846SOL     OW 2545   0.319   2.672   2.811
  846SOL    HW1 2546   0.412   2.708   2.816
  846SOL    HW2 2547   0.313   2.587   2.863
  847SOL     OW 2548   0.339   2.371   2.868
  847SOL    HW1 2549   0.287   2.288   2.851
  847SOL    HW2 2550   0.416   2.376   2.804
  848SOL     OW 2551   1.138   2.242   3.540
  848SOL    HW1 2552   1.093   2.305   3.604
  848SOL    HW2 2553   1.231   2.273   3.523
  849SOL     OW 2554   1.160   2.069   3.339
  849SOL    HW1 2555   1.160   2.133   3.416
  849SOL    HW2 2556   1.188   2.117   3.256
  850SOL     OW 2557   0.008   3.188   2.062
  850SOL    HW1 2558  -0.085   3.209   2.031
  850SOL    HW2 2559   0.018   3.089   2.075
  851SOL     OW 2560   0.088   3.663   2.789
  851SOL    HW1 2561   0.046   3.577   2.762
  851SOL    HW2 2562   0.182   3.666   2.755
  852SOL     OW 2563   0.504   3.430   2.772
  852SOL    HW1 2564   0.570   3.504   2.781
  852SOL    HW2 2565   0.548   3.351   2.730
  853SOL     OW 2566   1.002   2.658   3.100
  853SOL    HW1 2567   1.043   2.626   3.186
  853SOL    HW2 2568   0.906   2.631   3.097
  854SOL     OW 2569   0.040   2.406   2.976
  854SOL    HW1 2570   0.125   2.373   2.935
  854SOL    HW2 2571   0.053   2.421   3.074
  855SOL     OW 2572   0.189   2.382   3.584
  855SOL    HW1 2573   0.248   2.342   3.514
  855SOL    HW2 2574   0.131   2.453   3.543
  856SOL     OW 2575   1.369   2.812   3.522
  856SOL    HW1 2576   1.408   2.901   3.542
  856SOL    HW2 2577   1.379   2.792   3.425
  857SOL     OW 2578   0.815   2.434   2.187
  857SOL    HW1 2579   0.822   2.345   2.141
  857SOL    HW2 2580   0.721   2.468   2.179
  858SOL     OW 2581   1.657   2.466   3.068
  858SOL    HW1 2582   1.619   2.397   3.130
  858SOL    HW2 2583   1.739   2.430   3.024
  859SOL     OW 2584   0.252   3.426   3.606
  859SOL    HW1 2585   0.222   3.483   3.682
  859SOL    HW2 2586   0.245   3.329   3.632
  860SOL     OW 2587   0.671   2.326   3.131
  860SOL    HW1 2588   0.637   2.237   3.101
  860SOL    HW2 2589   0.697   2.380   3.051
  861SOL     OW 2590   0.930   3.540   3.327
  861SOL    HW1 2591   0.906   3.522   3.232
  861SOL    HW2 2592   0.960   3.634   3.337
  862SOL     OW 2593   0.473   2.362   2.053
  862SOL    HW1 2594   0.534   2.442   2.057
  862SOL    HW2 2595   0.378   2.393   2.060
  863SOL     OW 2596   0.159   2.999   3.328
  863SOL    HW1 2597   0.181   2.938   3.404
  863SOL    HW2 2598   0.169   2.950   3.242
  864SOL     OW 2599   1.347   2.921   3.096
  864SOL    HW1 2600   1.371   2.858   3.022
  864SOL    HW2 2601   1.257   2.961   3.078
  865SOL     OW 2602   1.302   2.717   2.171
  865SOL    HW1 2603   1.216   2.686   2.213
  865SOL    HW2 2604   1.298   2.703   2.072
  866SOL     OW 2605   1.759   3.609   3.016
  866SOL    HW1 2606   1.820   3.639   2.943
  866SOL    HW2 2607   1.721   3.520   2.994
  867SOL     OW 2608   1.252   3.593   2.990
  867SOL    HW1 2609   1.336   3.598   2.936
  867SOL    HW2 2610   1.229   3.497   3.008
  868SOL     OW 2611   0.083   3.120   2.884
  868SOL    HW1 2612   0.078   3.119   2.984
  868SOL    HW2 2613   0.000   3.079   2.846
  869SOL     OW 2614   0.688   3.524   3.578
  869SOL    HW1 2615   0.632   3.605   3.587
  869SOL    HW2 2616   0.740   3.528   3.492
  870SOL     OW 2617   1.726   1.997   2.385
  870SOL    HW1 2618   1.799   1.980   2.318
  870SOL    HW2 2619   1.695   1.910   2.423
  871SOL     OW 2620   1.388   3.435   2.339
  871SOL    HW1 2621   1.455   3.447   2.265
  871SOL    HW2 2622   1.348   3.524   2.362
  872SOL     OW 2623   0.130   3.656   3.713
  872SOL    HW1 2624   0.089   3.582   3.766
  872SOL    HW2 2625   0.194   3.707   3.771
  873SOL     OW 2626   1.280   2.789   2.534
  873SOL    HW1 2627   1.340   2.708   2.536
  873SOL    HW2 2628   1.320   2.858   2.474
  874SOL     OW 2629   0.830   3.135   3.284
  874SOL    HW1 2630   0.825   3.168   3.379
  874SOL    HW2 2631   0.744   3.154   3.238
  875SOL     OW 2632   0.672   3.478   2.016
  875SOL    HW1 2633   0.681   3.488   1.917
  875SOL    HW2 2634   0.632   3.389   2.037
  876SOL     OW 2635   1.650   3.582   3.256
  876SOL    HW1 2636   1.703   3.592   3.172
  876SOL    HW2 2637   1.623   3.672   3.290
  877SOL     OW 2638   1.841   2.037   2.825
  877SOL    HW1 2639   1.880   1.952   2.789
  877SOL    HW2 2640   1.743   2.039   2.806
  878SOL     OW 2641   0.263   2.188   2.582
  878SOL    HW1 2642   0.184   2.239   2.548
  878SOL    HW2 2643   0.254   2.173   2.680
  879SOL     OW 2644   1.194   3.474   1.893
  879SOL    HW1 2645   1.200   3.381   1.930
  879SOL    HW2 2646   1.135   3.474   1.813
  880SOL     OW 2647   0.822   2.864   3.234
  880SOL    HW1 2648   0.862   2.863   3.142
  880SOL    HW2 2649   0.832   2.956   3.274
  881SOL     OW 2650   0.916   2.772   2.153
  881SOL    HW1 2651   0.979   2.810   2.085
  881SOL    HW2 2652   0.956   2.689   2.192
  882SOL     OW 2653   1.504   3.469   1.906
  882SOL    HW1 2654   1.412   3.506   1.913
  882SOL    HW2 2655   1.542   3.489   1.816
  883SOL     OW 2656   0.372   3.150   3.352
  883SOL    HW1 2657   0.359   3.243   3.318
  883SOL    HW2 2658   0.288   3.098   3.339
  884SOL     OW 2659   1.614   3.154   3.151
  884SOL    HW1 2660   1.674   3.157   3.231
  884SOL    HW2 2661   1.539   3.218   3.164
  885SOL     OW 2662   1.039   2.960   2.558
  885SOL    HW1 2663   0.969   2.913   2.612
  885SOL    HW2 2664   1.098   2.892   2.515
  886SOL     OW 2665   1.014   2.098   2.833
  886SOL    HW1 2666   1.006   2.062   2.740
  886SOL    HW2 2667   1.012   2.022   2.898
  887SOL     OW 2668   0.590   3.349   2.353
  887SOL    HW1 2669   0.632   3.291   2.283
  887SOL    HW2 2670   0.546   3.428   2.309
  888SOL     OW 2671   1.709   2.247   3.243
  888SOL    HW1 2672   1.782   2.316   3.247
  888SOL    HW2 2673   1.737   2.172   3.184
  889SOL     OW 2674   0.255   3.210   2.152
  889SOL    HW1 2675   0.159   3.211   2.125
  889SOL    HW2 2676   0.267   3.263   2.236
  890SOL     OW 2677   0.105   2.875   3.588
  890SOL    HW1 2678   0.028   2.842   3.642
  890SOL    HW2 2679   0.190   2.845   3.630
  891SOL     OW 2680   0.672   2.065   3.351
  891SOL    HW1 2681   0.762   2.049   3.311
  891SOL    HW2 2682   0.680   2.070   3.450
  892SOL     OW 2683   0.075   2.207   1.895
  892SOL    HW1 2684  -0.017   2.179   1.866
  892SOL    HW2 2685   0.106   2.284   1.839
  893SOL     OW 2686   1.440   2.718   3.260
  893SOL    HW1 2687   1.383   2.770   3.197
  893SOL    HW2 2688   1.536   2.730   3.236
  894SOL     OW 2689   0.072   2.028   2.180
  894SOL    HW1 2690   0.055   2.111   2.126
  894SOL    HW2 2691   0.162   1.991   2.158
  895SOL     OW 2692   1.183   3.197   1.981
  895SOL    HW1 2693   1.084   3.186   1.983
  895SOL    HW2 2694   1.217   3.212   2.074
  896SOL     OW 2695   0.613   2.704   3.293
  896SOL    HW1 2696   0.669   2.785   3.276
  896SOL    HW2 2697   0.672   2.624   3.296
  897SOL     OW 2698   1.493   3.629   2.821
  897SOL    HW1 2699   1.526   3.693   2.752
  897SOL    HW2 2700   1.559   3.623   2.896
  898SOL     OW 2701   0.716   2.427   3.570
  898SOL    HW1 2702   0.735   2.492   3.644
  898SOL    HW2 2703   0.776   2.347   3.579
  899SOL     OW 2704   1.450   3.082   3.495
  899SOL    HW1 2705   1.441   3.072   3.594
  899SOL    HW2 2706   1.546   3.075   3.469
  900SOL     OW 2707   0.390   3.603   3.422
  900SOL    HW1 2708   0.299   3.644   3.420
  900SOL    HW2 2709   0.383   3.509   3.454
  901SOL     OW 2710   1.674   2.745   3.116
  901SOL    HW1 2711   1.647   2.656   3.079
  901SOL    HW2 2712   1.675   2.813   3.043
  902SOL     OW 2713   1.225   2.187   2.311
  902SOL    HW1 2714   1.290   2.113   2.300
  902SOL    HW2 2715   1.245   2.237   2.395
  903SOL     OW 2716   0.594   2.607   2.514
  903SOL    HW1 2717   0.644   2.692   2.495
  903SOL    HW2 2718   0.506   2.609   2.466
  904SOL     OW 2719   1.777   2.204   3.504
  904SOL    HW1 2720   1.760   2.235   3.410
  904SOL    HW2 2721   1.693   2.167   3.542
  905SOL     OW 2722   1.730   2.796   3.379
  905SOL    HW1 2723   1.768   2.887   3.394
  905SOL    HW2 2724   1.722   2.779   3.280
  906SOL     OW 2725   0.859   3.236   1.878
  906SOL    HW1 2726   0.813   3.251   1.966
  906SOL    HW2 2727   0.903   3.321   1.848
  907SOL     OW 2728   0.661   3.652   2.815
  907SOL    HW1 2729   0.615   3.740   2.802
  907SOL    HW2 2730   0.760   3.664   2.808
  908SOL     OW 2731   0.859   2.818   2.723
  908SOL    HW1 2732   0.913   2.749   2.771
  908SOL    HW2 2733   0.827   2.887   2.789
  909SOL     OW 2734   1.083   2.846   1.949
  909SOL    HW1 2735   1.060   2.899   1.867
  909SOL    HW2 2736   1.164   2.790   1.930
  910SOL     OW 2737   1.861   3.431   2.713
  910SOL    HW1 2738   1.790   3.419   2.643
  910SOL    HW2 2739   1.862   3.352   2.773
  911SOL     OW 2740   0.221   3.176   3.706
  911SOL    HW1 2741   0.156   3.103   3.685
  911SOL    HW2 2742   0.225   3.190   3.804
  912SOL     OW 2743   0.079   3.102   2.515
  912SOL    HW1 2744   0.078   3.055   2.603
  912SOL    HW2 2745   0.161   3.074   2.464
  913SOL     OW 2746   0.672   3.253   3.486
  913SOL    HW1 2747   0.594   3.203   3.524
  913SOL    HW2 2748   0.669   3.348   3.517
  914SOL     OW 2749   1.824   2.054   3.089
  914SOL    HW1 2750   1.820   1.964   3.133
  914SOL    HW2 2751   1.827   2.043   2.990
  915SOL     OW 2752   0.428   2.286   2.382
  915SOL    HW1 2753   0.458   2.214   2.320
  915SOL    HW2 2754   0.389   2.246   2.465
  916SOL     OW 2755   1.705   3.349   2.966
  916SOL    HW1 2756   1.612   3.324   2.939
  916SOL    HW2 2757   1.731   3.299   3.048
  917SOL     OW 2758   0.317   2.409   3.142
  917SOL    HW1 2759   0.355   2.350   3.214
  917SOL    HW2 2760   0.357   2.383   3.054
  918SOL     OW 2761   0.812   3.448   2.549
  918SOL    HW1 2762   0.844   3.458   2.455
  918SOL    HW2 2763   0.733   3.386   2.551
  919SOL     OW 2764   1.424   2.076   2.974
  919SOL    HW1 2765   1.476   2.011   3.029
  919SOL    HW2 2766   1.375   2.139   3.035
  920SOL     OW 2767   1.001   1.896   3.016
  920SOL    HW1 2768   0.938   1.824   2.985
  920SOL    HW2 2769   1.094   1.860   3.016
  921SOL     OW 2770   0.770   3.192   2.163
  921SOL    HW1 2771   0.724   3.105   2.180
  921SOL    HW2 2772   0.861   3.189   2.204
  922SOL     OW 2773   0.618   3.429   3.146
  922SOL    HW1 2774   0.613   3.511   3.203
  922SOL    HW2 2775   0.707   3.426   3.101
  923SOL     OW 2776   1.352   1.914   2.030
  923SOL    HW1 2777   1.387   1.873   1.946
  923SOL    HW2 2778   1.262   1.876   2.050
  924SOL     OW 2779   1.300   2.315   2.553
  924SOL    HW1 2780   1.241   2.395   2.557
  924SOL    HW2 2781   1.315   2.280   2.646
  925SOL     OW 2782   1.593   2.083   2.744
  925SOL    HW1 2783   1.509   2.082   2.798
  925SOL    HW2 2784   1.595   2.166   2.688
  926SOL     OW 2785   0.039   2.939   2.162
  926SOL    HW1 2786   0.138   2.928   2.153
  926SOL    HW2 2787  -0.001   2.853   2.194
  927SOL     OW 2788   0.875   3.508   2.199
  927SOL    HW1 2789   0.798   3.473   2.145
  927SOL    HW2 2790   0.843   3.579   2.261
  928SOL     OW 2791   0.230   2.490   3.837
  928SOL    HW1 2792   0.137   2.488   3.874
  928SOL    HW2 2793   0.231   2.451   3.745
  929SOL     OW 2794   1.755   2.469   3.955
  929SOL    HW1 2795   1.743   2.456   3.856
  929SOL    HW2 2796   1.725   2.388   4.004
  930SOL     OW 2797   0.231   3.575   4.207
  930SOL    HW1 2798   0.265   3.652   4.261
  930SOL    HW2 2799   0.275   3.575   4.117
  931SOL     OW 2800   0.230   3.296   4.262
  931SOL    HW1 2801   0.204   3.392   4.262
  931SOL    HW2 2802   0.159   3.242   4.307
  932SOL     OW 2803   0.606   2.826   3.847
  932SOL    HW1 2804   0.613   2.910   3.793
  932SOL    HW2 2805   0.652   2.839   3.935
  933SOL     OW 2806   0.122   2.505   4.287
  933SOL    HW1 2807   0.077   2.417   4.304
  933SOL    HW2 2808   0.121   2.559   4.371
  934SOL     OW 2809   1.842   3.629   4.083
  934SOL    HW1 2810   1.896   3.600   4.163
  934SOL    HW2 2811   1.872   3.719   4.054
  935SOL     OW 2812   0.027   3.458   3.841
  935SOL    HW1 2813   0.008   3.362   3.862
  935SOL    HW2 2814  -0.006   3.516   3.916
  936SOL     OW 2815   1.689   2.784   4.336
  936SOL    HW1 2816   1.784   2.755   4.344
  936SOL    HW2 2817   1.681   2.849   4.261
  937SOL     OW 2818   1.641   2.970   4.156
  937SOL    HW1 2819   1.727   2.972   4.104
  937SOL    HW2 2820   1.655   3.017   4.244
  938SOL     OW 2821   0.613   3.227   4.450
  938SOL    HW1 2822   0.564   3.140   4.459
  938SOL    HW2 2823   0.590   3.270   4.363
  939SOL     OW 2824   0.809   1.866   4.226
  939SOL    HW1 2825   0.849   1.957   4.217
  939SOL    HW2 2826   0.709   1.874   4.232
  940SOL     OW 2827   1.525   2.861   3.914
  940SOL    HW1 2828   1.462   2.785   3.927
  940SOL    HW2 2829   1.573   2.879   4.000
  941SOL     OW 2830   1.466   3.279   4.677
  941SOL    HW1 2831   1.407   3.285   4.757
  941SOL    HW2 2832   1.451   3.191   4.631
  942SOL     OW 2833   0.598   2.591   3.994
  942SOL    HW1 2834   0.622   2.660   3.926
  942SOL    HW2 2835   0.520   2.624   4.048
  943SOL     OW 2836   1.576   3.524   4.031
  943SOL    HW1 2837   1.665   3.570   4.034
  943SOL    HW2 2838   1.555   3.500   3.936
  944SOL     OW 2839   1.041   2.563   4.153
  944SOL    HW1 2840   1.067   2.559   4.249
  944SOL    HW2 2841   0.956   2.512   4.139
  945SOL     OW 2842   0.076   2.673   4.513
  945SOL    HW1 2843   0.175   2.661   4.522
  945SOL    HW2 2844   0.052   2.768   4.534
  946SOL     OW 2845   0.865   2.210   3.919
  946SOL    HW1 2846   0.924   2.273   3.870
  946SOL    HW2 2847   0.884   2.116   3.890
  947SOL     OW 2848   1.362   3.006   4.269
  947SOL    HW1 2849   1.445   2.977   4.221
  947SOL    HW2 2850   1.313   3.073   4.213
  948SOL     OW 2851   1.008   3.318   4.201
  948SOL    HW1 2852   0.962   3.390   4.149
  948SOL    HW2 2853   1.004   3.338   4.299
  949SOL     OW 2854   0.351   3.663   4.577
  949SOL    HW1 2855   0.401   3.577   4.583
  949SOL    HW2 2856   0.416   3.740   4.574
  950SOL     OW 2857   0.321   2.805   3.966
  950SOL    HW1 2858   0.403   2.844   3.924
  950SOL    HW2 2859   0.294   2.723   3.917
  951SOL     OW 2860   1.111   3.638   3.961
  951SOL    HW1 2861   1.051   3.576   4.011
  951SOL    HW2 2862   1.142   3.594   3.876
  952SOL     OW 2863   1.632   3.239   3.805
  952SOL    HW1 2864   1.600   3.333   3.795
  952SOL    HW2 2865   1.556   3.176   3.793
  953SOL     OW 2866   0.464   3.605   4.047
  953SOL    HW1 2867   0.497   3.644   4.133
  953SOL    HW2 2868   0.540   3.598   3.982
  954SOL     OW 2869   1.400   1.969   4.150
  954SOL    HW1 2870   1.376   1.932   4.060
  954SOL    HW2 2871   1.499   1.985   4.154
  955SOL     OW 2872   0.382   2.562   4.204
  955SOL    HW1 2873   0.427   2.472   4.201
  955SOL    HW2 2874   0.288   2.551   4.237
  956SOL     OW 2875   0.614   1.984   3.841
  956SOL    HW1 2876   0.712   1.962   3.848
  956SOL    HW2 2877   0.583   1.967   3.748
  957SOL     OW 2878   0.539   1.926   4.236
  957SOL    HW1 2879   0.458   1.927   4.294
  957SOL    HW2 2880   0.542   2.009   4.181
  958SOL     OW 2881   1.434   3.050   3.765
  958SOL    HW1 2882   1.466   2.974   3.822
  958SOL    HW2 2883   1.342   3.077   3.795
  959SOL     OW 2884   0.297   1.897   3.895
  959SOL    HW1 2885   0.346   1.981   3.874
  959SOL    HW2 2886   0.359   1.832   3.940
  960SOL     OW 2887   0.935   2.098   4.204
  960SOL    HW1 2888   0.887   2.139   4.126
  960SOL    HW2 2889   1.034   2.096   4.185
  961SOL     OW 2890   0.459   3.014   4.465
  961SOL    HW1 2891   0.388   2.987   4.530
  961SOL    HW2 2892   0.433   2.986   4.372
  962SOL     OW 2893   1.271   3.659   4.315
  962SOL    HW1 2894   1.315   3.723   4.251
  962SOL    HW2 2895   1.221   3.711   4.385
  963SOL     OW 2896   1.032   2.411   3.740
  963SOL    HW1 2897   0.991   2.493   3.701
  963SOL    HW2 2898   1.096   2.437   3.813
  964SOL     OW 2899   0.866   2.316   4.366
  964SOL    HW1 2900   0.834   2.388   4.304
  964SOL    HW2 2901   0.890   2.235   4.313
  965SOL     OW 2902   1.857   2.695   4.101
  965SOL    HW1 2903   1.899   2.631   4.165
  965SOL    HW2 2904   1.819   2.644   4.023
  966SOL     OW 2905   0.488   3.247   3.898
  966SOL    HW1 2906   0.401   3.232   3.945
  966SOL    HW2 2907   0.471   3.273   3.803
  967SOL     OW 2908   1.390   2.437   3.802
  967SOL    HW1 2909   1.336   2.416   3.883
  967SOL    HW2 2910   1.481   2.396   3.811
  968SOL     OW 2911   0.527   2.118   4.052
  968SOL    HW1 2912   0.554   2.059   3.977
  968SOL    HW2 2913   0.527   2.213   4.021
  969SOL     OW 2914   0.705   2.912   4.092
  969SOL    HW1 2915   0.691   2.919   4.191
  969SOL    HW2 2916   0.789   2.861   4.074
  970SOL     OW 2917   0.367   2.962   4.225
  970SOL    HW1 2918   0.360   3.045   4.169
  970SOL    HW2 2919   0.371   2.882   4.165
  971SOL     OW 2920   1.252   3.210   4.112
  971SOL    HW1 2921   1.302   3.287   4.152
  971SOL    HW2 2922   1.157   3.212   4.144
  972SOL     OW 2923   1.582   2.501   4.196
  972SOL    HW1 2924   1.551   2.562   4.269
  972SOL    HW2 2925   1.632   2.553   4.127
  973SOL     OW 2926   1.209   2.387   3.999
  973SOL    HW1 2927   1.222   2.303   4.053
  973SOL    HW2 2928   1.180   2.461   4.059
  974SOL     OW 2929   0.307   1.925   4.342
  974SOL    HW1 2930   0.296   2.019   4.375
  974SOL    HW2 2931   0.302   1.862   4.419
  975SOL     OW 2932   1.622   2.229   4.098
  975SOL    HW1 2933   1.624   2.153   4.162
  975SOL    HW2 2934   1.574   2.306   4.138
  976SOL     OW 2935   1.540   2.136   3.849
  976SOL    HW1 2936   1.479   2.061   3.872
  976SOL    HW2 2937   1.562   2.188   3.932
  977SOL     OW 2938   1.303   2.700   3.766
  977SOL    HW1 2939   1.337   2.607   3.781
  977SOL    HW2 2940   1.321   2.727   3.671
  978SOL     OW 2941   0.008   3.188   3.924
  978SOL    HW1 2942  -0.085   3.209   3.893
  978SOL    HW2 2943   0.018   3.089   3.937
  979SOL     OW 2944   0.815   2.434   4.049
  979SOL    HW1 2945   0.822   2.345   4.003
  979SOL    HW2 2946   0.721   2.468   4.041
  980SOL     OW 2947   0.473   2.362   3.915
  980SOL    HW1 2948   0.534   2.442   3.919
  980SOL    HW2 2949   0.378   2.393   3.922
  981SOL     OW 2950   1.302   2.717   4.033
  981SOL    HW1 2951   1.216   2.686   4.075
  981SOL    HW2 2952   1.298   2.703   3.934
  982SOL     OW 2953   1.726   1.997   4.247
  982SOL    HW1 2954   1.799   1.980   4.180
  982SOL    HW2 2955   1.695   1.910   4.285
  983SOL     OW 2956   1.388   3.435   4.201
  983SOL    HW1 2957   1.455   3.447   4.127
  983SOL    HW2 2958   1.348   3.524   4.224
  984SOL     OW 2959   0.672   3.478   3.878
  984SOL    HW1 2960   0.681   3.488   3.779
  984SOL    HW2 2961   0.632   3.389   3.899
  985SOL     OW 2962   1.841   2.037   4.687
  985SOL    HW1 2963   1.880   1.952   4.651
  985SOL    HW2 2964   1.743   2.039   4.668
  986SOL     OW 2965   1.194   3.474   3.755
  986SOL    HW1 2966   1.200   3.381   3.792
  986SOL    HW2 2967   1.135   3.474   3.675
  987SOL     OW 2968   0.916   2.772   4.015
  987SOL    HW1 2969   0.979   2.810   3.947
  987SOL    HW2 2970   0.956   2.689   4.054
  988SOL     OW 2971   1.504   3.469   3.768
  988SOL    HW1 2972   1.412   3.506   3.775
  988SOL    HW2 2973   1.542   3.489   3.678
  989SOL     OW 2974   0.590   3.349   4.215
  989SOL    HW1 2975   0.632   3.291   4.145
  989SOL    HW2 2976   0.546   3.428   4.171
  990SOL     OW 2977   0.255   3.210   4.014
  990SOL    HW1 2978   0.159   3.211   3.987
  990SOL    HW2 2979   0.267   3.263   4.098
  991SOL     OW 2980   0.075   2.207   3.757
  991SOL    HW1 2981  -0.017   2.179   3.728
  991SOL    HW2 2982   0.106   2.284   3.701
  992SOL     OW 2983   0.072   2.028   4.042
  992SOL    HW1 2984   0.055   2.111   3.988
  992SOL    HW2 2985   0.162   1.991   4.020
  993SOL     OW 2986   1.183   3.197   3.843
  993SOL    HW1 2987   1.084   3.186   3.845
  993SOL    HW2 2988   1.217   3.212   3.936
  994SOL     OW 2989   1.225   2.187   4.173
  994SOL    HW1 2990   1.290   2.113   4.162
  994SOL    HW2 2991   1.245   2.237   4.257
  995SOL     OW 2992   0.594   2.607   4.376
  995SOL    HW1 2993   0.644   2.692   4.357
  995SOL    HW2 2994   0.506   2.609   4.328
  996SOL     OW 2995   0.859   3.236   3.740
  996SOL    HW1 2996   0.813   3.251   3.828
  996SOL    HW2 2997   0.903   3.321   3.710
  997SOL     OW 2998   1.083   2.846   3.811
  997SOL    HW1 2999   1.060   2.899   3.729
  997SOL    HW2 3000   1.164   2.790   3.792
  998SOL     OW 3001   0.079   3.102   4.377
  998SOL    HW1 3002   0.078   3.055   4.465
  998SOL    HW2 3003   0.161   3.074   4.326
  999SOL     OW 3004   0.428   2.286   4.244
  999SOL    HW1 3005   0.458   2.214   4.182
  999SOL    HW2 3006   0.389   2.246   4.327
 1000SOL     OW 3007   0.770   3.192   4.025
 1000SOL    HW1 3008   0.724   3.105   4.042
 1000SOL    HW2 3009   0.861   3.189   4.066
 1001SOL     OW 3010   1.352   1.914   3.892
 1001SOL    HW1 3011   1.387   1.873   3.808
 1001SOL    HW2 3012   1.262   1.876   3.912
 1002SOL     OW 3013   1.300   2.315   4.415
 1002SOL    HW1 3014   1.241   2.395   4.419
 1002SOL    HW2 3015   1.315   2.280   4.508
 1003SOL     OW 3016   0.039   2.939   4.024
 1003SOL    HW1 3017   0.138   2.928   4.015
 1003SOL    HW2 3018  -0.001   2.853   4.056
 1004SOL     OW 3019   0.875   3.508   4.061
 1004SOL    HW1 3020   0.798   3.473   4.007
 1004SOL    HW2 3021   0.843   3.579   4.123
 1005SOL     OW 3022   0.225   3.999   0.996
 1005SOL    HW1 3023   0.260   3.982   1.088
 1005SOL    HW2 3024   0.137   3.954   0.984
 1006SOL     OW 3025   0.019   4.092   0.647
 1006SOL    HW1 3026  -0.063   4.135   0.686
 1006SOL    HW2 3027  -0.009   4.019   0.584
 1007SOL     OW 3028   1.755   4.331   0.231
 1007SOL    HW1 3029   1.743   4.318   0.132
 1007SOL    HW2 3030   1.725   4.250   0.280
 1008SOL     OW 3031   0.438   4.116   1.499
 1008SOL    HW1 3032   0.520   4.060   1.508
 1008SOL    HW2 3033   0.357   4.058   1.503
 1009SOL     OW 3034   1.603   4.171   0.737
 1009SOL    HW1 3035   1.529   4.217   0.687
 1009SOL    HW2 3036   1.654   4.239   0.790
 1010SOL     OW 3037   1.594   3.838   1.480
 1010SOL    HW1 3038   1.576   3.905   1.408
 1010SOL    HW2 3039   1.591   3.884   1.569
 1011SOL     OW 3040   0.122   4.367   0.563
 1011SOL    HW1 3041   0.077   4.279   0.580
 1011SOL    HW2 3042   0.121   4.421   0.647
 1012SOL     OW 3043   0.113   4.461   1.597
 1012SOL    HW1 3044   0.201   4.448   1.642
 1012SOL    HW2 3045   0.100   4.558   1.575
 1013SOL     OW 3046   0.809   3.728   0.502
 1013SOL    HW1 3047   0.849   3.819   0.493
 1013SOL    HW2 3048   0.709   3.736   0.508
 1014SOL     OW 3049   0.317   3.975   1.801
 1014SOL    HW1 3050   0.388   4.046   1.807
 1014SOL    HW2 3051   0.229   4.014   1.829
 1015SOL     OW 3052   1.281   4.069   0.944
 1015SOL    HW1 3053   1.195   4.019   0.931
 1015SOL    HW2 3054   1.343   4.015   1.000
 1016SOL     OW 3055   0.807   4.329   1.465
 1016SOL    HW1 3056   0.760   4.326   1.554
 1016SOL    HW2 3057   0.756   4.274   1.399
 1017SOL     OW 3058   1.394   4.193   1.674
 1017SOL    HW1 3059   1.374   4.236   1.762
 1017SOL    HW2 3060   1.472   4.131   1.683
 1018SOL     OW 3061   0.991   4.134   1.242
 1018SOL    HW1 3062   0.914   4.168   1.296
 1018SOL    HW2 3063   0.957   4.083   1.163
 1019SOL     OW 3064   1.041   4.425   0.429
 1019SOL    HW1 3065   1.067   4.421   0.525
 1019SOL    HW2 3066   0.956   4.374   0.415
 1020SOL     OW 3067   0.076   4.535   0.789
 1020SOL    HW1 3068   0.175   4.523   0.798
 1020SOL    HW2 3069   0.052   4.630   0.810
 1021SOL     OW 3070   0.865   4.072   0.195
 1021SOL    HW1 3071   0.924   4.135   0.146
 1021SOL    HW2 3072   0.884   3.978   0.166
 1022SOL     OW 3073   1.719   4.309   1.831
 1022SOL    HW1 3074   1.693   4.398   1.795
 1022SOL    HW2 3075   1.717   4.241   1.758
 1023SOL     OW 3076   0.550   3.920   0.885
 1023SOL    HW1 3077   0.545   3.915   0.985
 1023SOL    HW2 3078   0.552   4.016   0.856
 1024SOL     OW 3079   1.458   4.459   0.728
 1024SOL    HW1 3080   1.453   4.394   0.803
 1024SOL    HW2 3081   1.538   4.518   0.741
 1025SOL     OW 3082   0.202   4.009   1.498
 1025SOL    HW1 3083   0.122   4.069   1.485
 1025SOL    HW2 3084   0.192   3.960   1.584
 1026SOL     OW 3085   1.400   3.831   0.426
 1026SOL    HW1 3086   1.376   3.794   0.336
 1026SOL    HW2 3087   1.499   3.847   0.430
 1027SOL     OW 3088   1.547   3.946   1.729
 1027SOL    HW1 3089   1.542   3.983   1.821
 1027SOL    HW2 3090   1.475   3.877   1.717
 1028SOL     OW 3091   0.614   3.846   0.117
 1028SOL    HW1 3092   0.712   3.824   0.124
 1028SOL    HW2 3093   0.583   3.829   0.024
 1029SOL     OW 3094   0.781   3.988   1.749
 1029SOL    HW1 3095   0.848   3.927   1.792
 1029SOL    HW2 3096   0.708   4.007   1.814
 1030SOL     OW 3097   1.351   4.314   1.433
 1030SOL    HW1 3098   1.379   4.271   1.518
 1030SOL    HW2 3099   1.376   4.410   1.434
 1031SOL     OW 3100   0.922   4.227   0.899
 1031SOL    HW1 3101   0.897   4.218   0.803
 1031SOL    HW2 3102   0.970   4.145   0.930
 1032SOL     OW 3103   0.539   3.788   0.512
 1032SOL    HW1 3104   0.458   3.789   0.570
 1032SOL    HW2 3105   0.542   3.871   0.457
 1033SOL     OW 3106   0.935   3.960   0.480
 1033SOL    HW1 3107   0.887   4.001   0.402
 1033SOL    HW2 3108   1.034   3.958   0.461
 1034SOL     OW 3109   1.076   4.407   1.464
 1034SOL    HW1 3110   0.996   4.346   1.467
 1034SOL    HW2 3111   1.157   4.354   1.440
 1035SOL     OW 3112   1.032   4.273   0.016
 1035SOL    HW1 3113   0.991   4.355  -0.023
 1035SOL    HW2 3114   1.096   4.299   0.089
 1036SOL     OW 3115   0.078   4.280   1.386
 1036SOL    HW1 3116   0.170   4.279   1.345
 1036SOL    HW2 3117   0.072   4.354   1.453
 1037SOL     OW 3118   0.561   3.946   1.147
 1037SOL    HW1 3119   0.599   3.862   1.184
 1037SOL    HW2 3120   0.473   3.965   1.191
 1038SOL     OW 3121   0.866   4.178   0.642
 1038SOL    HW1 3122   0.834   4.250   0.580
 1038SOL    HW2 3123   0.890   4.097   0.589
 1039SOL     OW 3124   1.017   3.763   0.753
 1039SOL    HW1 3125   0.945   3.768   0.684
 1039SOL    HW2 3126   0.993   3.694   0.822
 1040SOL     OW 3127   1.466   4.314   0.992
 1040SOL    HW1 3128   1.436   4.219   0.999
 1040SOL    HW2 3129   1.539   4.330   1.058
 1041SOL     OW 3130   0.527   3.980   0.328
 1041SOL    HW1 3131   0.554   3.921   0.253
 1041SOL    HW2 3132   0.527   4.075   0.297
 1042SOL     OW 3133   0.915   3.813   1.402
 1042SOL    HW1 3134   0.940   3.793   1.307
 1042SOL    HW2 3135   0.987   3.869   1.444
 1043SOL     OW 3136   1.274   4.110   1.262
 1043SOL    HW1 3137   1.295   4.184   1.326
 1043SOL    HW2 3138   1.185   4.127   1.219
 1044SOL     OW 3139   0.566   4.261   0.865
 1044SOL    HW1 3140   0.578   4.327   0.791
 1044SOL    HW2 3141   0.612   4.295   0.948
 1045SOL     OW 3142   1.582   4.363   0.472
 1045SOL    HW1 3143   1.551   4.424   0.545
 1045SOL    HW2 3144   1.632   4.415   0.403
 1046SOL     OW 3145   1.013   3.829   1.770
 1046SOL    HW1 3146   1.019   3.914   1.718
 1046SOL    HW2 3147   1.045   3.753   1.713
 1047SOL     OW 3148   0.504   3.774   1.740
 1047SOL    HW1 3149   0.462   3.717   1.670
 1047SOL    HW2 3150   0.438   3.843   1.772
 1048SOL     OW 3151   1.209   4.249   0.275
 1048SOL    HW1 3152   1.222   4.165   0.329
 1048SOL    HW2 3153   1.180   4.323   0.335
 1049SOL     OW 3154   0.307   3.937   1.231
 1049SOL    HW1 3155   0.284   3.974   1.321
 1049SOL    HW2 3156   0.277   3.842   1.225
 1050SOL     OW 3157   0.732   4.358   1.064
 1050SOL    HW1 3158   0.791   4.332   0.988
 1050SOL    HW2 3159   0.704   4.454   1.053
 1051SOL     OW 3160   0.307   3.787   0.618
 1051SOL    HW1 3161   0.296   3.881   0.651
 1051SOL    HW2 3162   0.302   3.724   0.695
 1052SOL     OW 3163   1.622   4.091   0.374
 1052SOL    HW1 3164   1.624   4.015   0.438
 1052SOL    HW2 3165   1.574   4.168   0.414
 1053SOL     OW 3166   1.540   3.998   0.125
 1053SOL    HW1 3167   1.479   3.923   0.148
 1053SOL    HW2 3168   1.562   4.050   0.208
 1054SOL     OW 3169   0.319   4.534   0.949
 1054SOL    HW1 3170   0.412   4.570   0.954
 1054SOL    HW2 3171   0.313   4.449   1.001
 1055SOL     OW 3172   0.339   4.233   1.006
 1055SOL    HW1 3173   0.287   4.150   0.989
 1055SOL    HW2 3174   0.416   4.238   0.942
 1056SOL     OW 3175   1.138   4.104   1.678
 1056SOL    HW1 3176   1.093   4.167   1.742
 1056SOL    HW2 3177   1.231   4.135   1.661
 1057SOL     OW 3178   1.160   3.931   1.477
 1057SOL    HW1 3179   1.160   3.995   1.554
 1057SOL    HW2 3180   1.188   3.979   1.394
 1058SOL     OW 3181   0.040   4.268   1.114
 1058SOL    HW1 3182   0.125   4.235   1.073
 1058SOL    HW2 3183   0.053   4.283   1.212
 1059SOL     OW 3184   0.189   4.244   1.722
 1059SOL    HW1 3185   0.248   4.204   1.652
 1059SOL    HW2 3186   0.131   4.315   1.681
 1060SOL     OW 3187   0.815   4.296   0.325
 1060SOL    HW1 3188   0.822   4.207   0.279
 1060SOL    HW2 3189   0.721   4.330   0.317
 1061SOL     OW 3190   1.657   4.328   1.206
 1061SOL    HW1 3191   1.619   4.259   1.268
 1061SOL    HW2 3192   1.739   4.292   1.162
 1062SOL     OW 3193   0.671   4.188   1.269
 1062SOL    HW1 3194   0.637   4.099   1.239
 1062SOL    HW2 3195   0.697   4.242   1.189
 1063SOL     OW 3196   0.473   4.224   0.191
 1063SOL    HW1 3197   0.534   4.304   0.195
 1063SOL    HW2 3198   0.378   4.255   0.198
 1064SOL     OW 3199   0.903   3.810   0.133
 1064SOL    HW1 3200   0.954   3.811   0.047
 1064SOL    HW2 3201   0.959   3.768   0.204
 1065SOL     OW 3202   1.726   3.859   0.523
 1065SOL    HW1 3203   1.799   3.842   0.456
 1065SOL    HW2 3204   1.695   3.772   0.561
 1066SOL     OW 3205   1.280   4.651   0.672
 1066SOL    HW1 3206   1.340   4.570   0.674
 1066SOL    HW2 3207   1.320   4.720   0.612
 1067SOL     OW 3208   1.841   3.899   0.963
 1067SOL    HW1 3209   1.880   3.814   0.927
 1067SOL    HW2 3210   1.743   3.901   0.944
 1068SOL     OW 3211   0.263   4.050   0.720
 1068SOL    HW1 3212   0.184   4.101   0.686
 1068SOL    HW2 3213   0.254   4.035   0.818
 1069SOL     OW 3214   1.014   3.960   0.971
 1069SOL    HW1 3215   1.006   3.924   0.878
 1069SOL    HW2 3216   1.012   3.884   1.036
 1070SOL     OW 3217   1.709   4.109   1.381
 1070SOL    HW1 3218   1.782   4.178   1.385
 1070SOL    HW2 3219   1.737   4.034   1.322
 1071SOL     OW 3220   0.672   3.927   1.489
 1071SOL    HW1 3221   0.762   3.911   1.449
 1071SOL    HW2 3222   0.680   3.932   1.588
 1072SOL     OW 3223   0.075   4.069   0.033
 1072SOL    HW1 3224  -0.017   4.041   0.004
 1072SOL    HW2 3225   0.106   4.146  -0.023
 1073SOL     OW 3226   0.072   3.890   0.318
 1073SOL    HW1 3227   0.055   3.973   0.264
 1073SOL    HW2 3228   0.162   3.853   0.296
 1074SOL     OW 3229   0.716   4.289   1.708
 1074SOL    HW1 3230   0.735   4.354   1.782
 1074SOL    HW2 3231   0.776   4.209   1.717
 1075SOL     OW 3232   1.225   4.049   0.449
 1075SOL    HW1 3233   1.290   3.975   0.438
 1075SOL    HW2 3234   1.245   4.099   0.533
 1076SOL     OW 3235   1.777   4.066   1.642
 1076SOL    HW1 3236   1.760   4.097   1.548
 1076SOL    HW2 3237   1.693   4.029   1.680
 1077SOL     OW 3238   1.083   4.708   0.087
 1077SOL    HW1 3239   1.060   4.761   0.005
 1077SOL    HW2 3240   1.164   4.652   0.068
 1078SOL     OW 3241   1.824   3.916   1.227
 1078SOL    HW1 3242   1.820   3.826   1.271
 1078SOL    HW2 3243   1.827   3.905   1.128
 1079SOL     OW 3244   0.428   4.148   0.520
 1079SOL    HW1 3245   0.458   4.076   0.458
 1079SOL    HW2 3246   0.389   4.108   0.603
 1080SOL     OW 3247   0.317   4.271   1.280
 1080SOL    HW1 3248   0.355   4.212   1.352
 1080SOL    HW2 3249   0.357   4.245   1.192
 1081SOL     OW 3250   1.424   3.938   1.112
 1081SOL    HW1 3251   1.476   3.873   1.167
 1081SOL    HW2 3252   1.375   4.001   1.173
 1082SOL     OW 3253   1.001   3.758   1.154
 1082SOL    HW1 3254   0.938   3.686   1.123
 1082SOL    HW2 3255   1.094   3.722   1.154
 1083SOL     OW 3256   1.352   3.776   0.168
 1083SOL    HW1 3257   1.387   3.735   0.084
 1083SOL    HW2 3258   1.262   3.738   0.188
 1084SOL     OW 3259   1.300   4.177   0.691
 1084SOL    HW1 3260   1.241   4.257   0.695
 1084SOL    HW2 3261   1.315   4.142   0.784
 1085SOL     OW 3262   1.593   3.945   0.882
 1085SOL    HW1 3263   1.509   3.944   0.936
 1085SOL    HW2 3264   1.595   4.028   0.826
 1086SOL     OW 3265   0.225   3.999   2.858
 1086SOL    HW1 3266   0.260   3.982   2.950
 1086SOL    HW2 3267   0.137   3.954   2.846
 1087SOL     OW 3268   0.019   4.092   2.509
 1087SOL    HW1 3269  -0.063   4.135   2.548
 1087SOL    HW2 3270  -0.009   4.019   2.446
 1088SOL     OW 3271   1.755   4.331   2.093
 1088SOL    HW1 3272   1.743   4.318   1.994
 1088SOL    HW2 3273   1.725   4.250   2.142
 1089SOL     OW 3274   0.438   4.116   3.361
 1089SOL    HW1 3275   0.520   4.060   3.370
 1089SOL    HW2 3276   0.357   4.058   3.365
 1090SOL     OW 3277   1.603   4.171   2.599
 1090SOL    HW1 3278   1.529   4.217   2.549
 1090SOL    HW2 3279   1.654   4.239   2.652
 1091SOL     OW 3280   1.594   3.838   3.342
 1091SOL    HW1 3281   1.576   3.905   3.270
 1091SOL    HW2 3282   1.591   3.884   3.431
 1092SOL     OW 3283   0.122   4.367   2.425
 1092SOL    HW1 3284   0.077   4.279   2.442
 1092SOL    HW2 3285   0.121   4.421   2.509
 1093SOL     OW 3286   0.113   4.461   3.459
 1093SOL    HW1 3287   0.201   4.448   3.504
 1093SOL    HW2 3288   0.100   4.558   3.437
 1094SOL     OW 3289   0.809   3.728   2.364
 1094SOL    HW1 3290   0.849   3.819   2.355
 1094SOL    HW2 3291   0.709   3.736   2.370
 1095SOL     OW 3292   0.317   3.975   3.663
 1095SOL    HW1 3293   0.388   4.046   3.669
 1095SOL    HW2 3294   0.229   4.014   3.691
 1096SOL     OW 3295   1.281   4.069   2.806
 1096SOL    HW1 3296   1.195   4.019   2.793
 1096SOL    HW2 3297   1.343   4.015   2.862
 1097SOL     OW 3298   0.807   4.329   3.327
 1097SOL    HW1 3299   0.760   4.326   3.416
 1097SOL    HW2 3300   0.756   4.274   3.261
 1098SOL     OW 3301   1.394   4.193   3.536
 1098SOL    HW1 3302   1.374   4.236   3.624
 1098SOL    HW2 3303   1.472   4.131   3.545
 1099SOL     OW 3304   0.991   4.134   3.104
 1099SOL    HW1 3305   0.914   4.168   3.158
 1099SOL    HW2 3306   0.957   4.083   3.025
 1100SOL     OW 3307   1.041   4.425   2.291
 1100SOL    HW1 3308   1.067   4.421   2.387
 1100SOL    HW2 3309   0.956   4.374   2.277
 1101SOL     OW 3310   0.076   4.535   2.651
 1101SOL    HW1 3311   0.175   4.523   2.660
 1101SOL    HW2 3312   0.052   4.630   2.672
 1102SOL     OW 3313   0.865   4.072   2.057
 1102SOL    HW1 3314   0.924   4.135   2.008
 1102SOL    HW2 3315   0.884   3.978   2.028
 1103SOL     OW 3316   1.719   4.309   3.693
 1103SOL    HW1 3317   1.693   4.398   3.657
 1103SOL    HW2 3318   1.717   4.241   3.620
 1104SOL     OW 3319   0.550   3.920   2.747
 1104SOL    HW1 3320   0.545   3.915   2.847
 1104SOL    HW2 3321   0.552   4.016   2.718
 1105SOL     OW 3322   1.458   4.459   2.590
 1105SOL    HW1 3323   1.453   4.394   2.665
 1105SOL    HW2 3324   1.538   4.518   2.603
 1106SOL     OW 3325   0.202   4.009   3.360
 1106SOL    HW1 3326   0.122   4.069   3.347
 1106SOL    HW2 3327   0.192   3.960   3.446
 1107SOL     OW 3328   1.400   3.831   2.288
 1107SOL    HW1 3329   1.376   3.794   2.198
 1107SOL    HW2 3330   1.499   3.847   2.292
 1108SOL     OW 3331   1.547   3.946   3.591
 1108SOL    HW1 3332   1.542   3.983   3.683
 1108SOL    HW2 3333   1.475   3.877   3.579
 1109SOL     OW 3334   0.614   3.846   1.979
 1109SOL    HW1 3335   0.712   3.824   1.986
 1109SOL    HW2 3336   0.583   3.829   1.886
 1110SOL     OW 3337   0.781   3.988   3.611
 1110SOL    HW1 3338   0.848   3.927   3.654
 1110SOL    HW2 3339   0.708   4.007   3.676
 1111SOL     OW 3340   1.351   4.314   3.295
 1111SOL    HW1 3341   1.379   4.271   3.380
 1111SOL    HW2 3342   1.376   4.410   3.296
 1112SOL     OW 3343   0.922   4.227   2.761
 1112SOL    HW1 3344   0.897   4.218   2.665
 1112SOL    HW2 3345   0.970   4.145   2.792
 1113SOL     OW 3346   0.539   3.788   2.374
 1113SOL    HW1 3347   0.458   3.789   2.432
 1113SOL    HW2 3348   0.542   3.871   2.319
 1114SOL     OW 3349   0.297   3.759   2.033
 1114SOL    HW1 3350   0.346   3.843   2.012
 1114SOL    HW2 3351   0.359   3.694   2.078
 1115SOL     OW 3352   0.935   3.960   2.342
 1115SOL    HW1 3353   0.887   4.001   2.264
 1115SOL    HW2 3354   1.034   3.958   2.323
 1116SOL     OW 3355   1.076   4.407   3.326
 1116SOL    HW1 3356   0.996   4.346   3.329
 1116SOL    HW2 3357   1.157   4.354   3.302
 1117SOL     OW 3358   1.032   4.273   1.878
 1117SOL    HW1 3359   0.991   4.355   1.839
 1117SOL    HW2 3360   1.096   4.299   1.951
 1118SOL     OW 3361   0.078   4.280   3.248
 1118SOL    HW1 3362   0.170   4.279   3.207
 1118SOL    HW2 3363   0.072   4.354   3.315
 1119SOL     OW 3364   0.561   3.946   3.009
 1119SOL    HW1 3365   0.599   3.862   3.046
 1119SOL    HW2 3366   0.473   3.965   3.053
 1120SOL     OW 3367   0.866   4.178   2.504
 1120SOL    HW1 3368   0.834   4.250   2.442
 1120SOL    HW2 3369   0.890   4.097   2.451
 1121SOL     OW 3370   1.017   3.763   2.615
 1121SOL    HW1 3371   0.945   3.768   2.546
 1121SOL    HW2 3372   0.993   3.694   2.684
 1122SOL     OW 3373   1.466   4.314   2.854
 1122SOL    HW1 3374   1.436   4.219   2.861
 1122SOL    HW2 3375   1.539   4.330   2.920
 1123SOL     OW 3376   0.527   3.980   2.190
 1123SOL    HW1 3377   0.554   3.921   2.115
 1123SOL    HW2 3378   0.527   4.075   2.159
 1124SOL     OW 3379   0.915   3.813   3.264
 1124SOL    HW1 3380   0.940   3.793   3.169
 1124SOL    HW2 3381   0.987   3.869   3.306
 1125SOL     OW 3382   1.274   4.110   3.124
 1125SOL    HW1 3383   1.295   4.184   3.188
 1125SOL    HW2 3384   1.185   4.127   3.081
 1126SOL     OW 3385   0.566   4.261   2.727
 1126SOL    HW1 3386   0.578   4.327   2.653
 1126SOL    HW2 3387   0.612   4.295   2.810
 1127SOL     OW 3388   1.582   4.363   2.334
 1127SOL    HW1 3389   1.551   4.424   2.407
 1127SOL    HW2 3390   1.632   4.415   2.265
 1128SOL     OW 3391   1.013   3.829   3.632
 1128SOL    HW1 3392   1.019   3.914   3.580
 1128SOL    HW2 3393   1.045   3.753   3.575
 1129SOL     OW 3394   0.504   3.774   3.602
 1129SOL    HW1 3395   0.462   3.717   3.532
 1129SOL    HW2 3396   0.438   3.843   3.634
 1130SOL     OW 3397   1.209   4.249   2.137
 1130SOL    HW1 3398   1.222   4.165   2.191
 1130SOL    HW2 3399   1.180   4.323   2.197
 1131SOL     OW 3400   0.307   3.937   3.093
 1131SOL    HW1 3401   0.284   3.974   3.183
 1131SOL    HW2 3402   0.277   3.842   3.087
 1132SOL     OW 3403   0.732   4.358   2.926
 1132SOL    HW1 3404   0.791   4.332   2.850
 1132SOL    HW2 3405   0.704   4.454   2.915
 1133SOL     OW 3406   0.307   3.787   2.480
 1133SOL    HW1 3407   0.296   3.881   2.513
 1133SOL    HW2 3408   0.302   3.724   2.557
 1134SOL     OW 3409   1.622   4.091   2.236
 1134SOL    HW1 3410   1.624   4.015   2.300
 1134SOL    HW2 3411   1.574   4.168   2.276
 1135SOL     OW 3412   1.540   3.998   1.987
 1135SOL    HW1 3413   1.479   3.923   2.010
 1135SOL    HW2 3414   1.562   4.050   2.070
 1136SOL     OW 3415   0.319   4.534   2.811
 1136SOL    HW1 3416   0.412   4.570   2.816
 1136SOL    HW2 3417   0.313   4.449   2.863
 1137SOL     OW 3418   0.339   4.233   2.868
 1137SOL    HW1 3419   0.287   4.150   2.851
 1137SOL    HW2 3420   0.416   4.238   2.804
 1138SOL     OW 3421   1.138   4.104   3.540
 1138SOL    HW1 3422   1.093   4.167   3.604
 1138SOL    HW2 3423   1.231   4.135   3.523
 1139SOL     OW 3424   1.160   3.931   3.339
 1139SOL    HW1 3425   1.160   3.995   3.416
 1139SOL    HW2 3426   1.188   3.979   3.256
 1140SOL     OW 3427   0.040   4.268   2.976
 1140SOL    HW1 3428   0.125   4.235   2.935
 1140SOL    HW2 3429   0.053   4.283   3.074
 1141SOL     OW 3430   0.189   4.244   3.584
 1141SOL    HW1 3431   0.248   4.204   3.514
 1141SOL    HW2 3432   0.131   4.315   3.543
 1142SOL     OW 3433   0.815   4.296   2.187
 1142SOL    HW1 3434   0.822   4.207   2.141
 1142SOL    HW2 3435   0.721   4.330   2.179
 1143SOL     OW 3436   1.657   4.328   3.068
 1143SOL    HW1 3437   1.619   4.259   3.130
 1143SOL    HW2 3438   1.739   4.292   3.024
 1144SOL     OW 3439   0.671   4.188   3.131
 1144SOL    HW1 3440   0.637   4.099   3.101
 1144SOL    HW2 3441   0.697   4.242   3.051
 1145SOL     OW 3442   0.473   4.224   2.053
 1145SOL    HW1 3443   0.534   4.304   2.057
 1145SOL    HW2 3444   0.378   4.255   2.060
 1146SOL     OW 3445   1.726   3.859   2.385
 1146SOL    HW1 3446   1.799   3.842   2.318
 1146SOL    HW2 3447   1.695   3.772   2.423
 1147SOL     OW 3448   1.280   4.651   2.534
 1147SOL    HW1 3449   1.340   4.570   2.536
 1147SOL    HW2 3450   1.320   4.720   2.474
 1148SOL     OW 3451   1.841   3.899   2.825
 1148SOL    HW1 3452   1.880   3.814   2.789
 1148SOL    HW2 3453   1.743   3.901   2.806
 1149SOL     OW 3454   0.263   4.050   2.582
 1149SOL    HW1 3455   0.184   4.101   2.548
 1149SOL    HW2 3456   0.254   4.035   2.680
 1150SOL     OW 3457   1.014   3.960   2.833
 1150SOL    HW1 3458   1.006   3.924   2.740
 1150SOL    HW2 3459   1.012   3.884   2.898
 1151SOL     OW 3460   1.709   4.109   3.243
 1151SOL    HW1 3461   1.782   4.178   3.247
 1151SOL    HW2 3462   1.737   4.034   3.184
 1152SOL     OW 3463   0.672   3.927   3.351
 1152SOL    HW1 3464   0.762   3.911   3.311
 1152SOL    HW2 3465   0.680   3.932   3.450
 1153SOL     OW 3466   0.075   4.069   1.895
 1153SOL    HW1 3467  -0.017   4.041   1.866
 1153SOL    HW2 3468   0.106   4.146   1.839
 1154SOL     OW 3469   0.072   3.890   2.180
 1154SOL    HW1 3470   0.055   3.973   2.126
 1154SOL    HW2 3471   0.162   3.853   2.158
 1155SOL     OW 3472   0.716   4.289   3.570
 1155SOL    HW1 3473   0.735   4.354   3.644
 1155SOL    HW2 3474   0.776   4.209   3.579
 1156SOL     OW 3475   1.225   4.049   2.311
 1156SOL    HW1 3476   1.290   3.975   2.300
 1156SOL    HW2 3477   1.245   4.099   2.395
 1157SOL     OW 3478   1.777   4.066   3.504
 1157SOL    HW1 3479   1.760   4.097   3.410
 1157SOL    HW2 3480   1.693   4.029   3.542
 1158SOL     OW 3481   1.083   4.708   1.949
 1158SOL    HW1 3482   1.060   4.761   1.867
 1158SOL    HW2 3483   1.164   4.652   1.930
 1159SOL     OW 3484   1.824   3.916   3.089
 1159SOL    HW1 3485   1.820   3.826   3.133
 1159SOL    HW2 3486   1.827   3.905   2.990
 1160SOL     OW 3487   0.428   4.148   2.382
 1160SOL    HW1 3488   0.458   4.076   2.320
 1160SOL    HW2 3489   0.389   4.108   2.465
 1161SOL     OW 3490   0.317   4.271   3.142
 1161SOL    HW1 3491   0.355   4.212   3.214
 1161SOL    HW2 3492   0.357   4.245   3.054
 1162SOL     OW 3493   1.424   3.938   2.974
 1162SOL    HW1 3494   1.476   3.873   3.029
 1162SOL    HW2 3495   1.375   4.001   3.035
 1163SOL     OW 3496   1.001   3.758   3.016
 1163SOL    HW1 3497   0.938   3.686   2.985
 1163SOL    HW2 3498   1.094   3.722   3.016
 1164SOL     OW 3499   1.352   3.776   2.030
 1164SOL    HW1 3500   1.387   3.735   1.946
 1164SOL    HW2 3501   1.262   3.738   2.050
 1165SOL     OW 3502   1.300   4.177   2.553
 1165SOL    HW1 3503   1.241   4.257   2.557
 1165SOL    HW2 3504   1.315   4.142   2.646
 1166SOL     OW 3505   1.593   3.945   2.744
 1166SOL    HW1 3506   1.509   3.944   2.798
 1166SOL    HW2 3507   1.595   4.028   2.688
 1167SOL     OW 3508   1.135   4.427   4.441
 1167SOL    HW1 3509   1.192   4.505   4.416
 1167SOL    HW2 3510   1.075   4.453   4.517
 1168SOL     OW 3511   1.755   4.331   3.955
 1168SOL    HW1 3512   1.743   4.318   3.856
 1168SOL    HW2 3513   1.725   4.250   4.004
 1169SOL     OW 3514   0.122   4.367   4.287
 1169SOL    HW1 3515   0.077   4.279   4.304
 1169SOL    HW2 3516   0.121   4.421   4.371
 1170SOL     OW 3517   0.809   3.728   4.226
 1170SOL    HW1 3518   0.849   3.819   4.217
 1170SOL    HW2 3519   0.709   3.736   4.232
 1171SOL     OW 3520   1.041   4.425   4.153
 1171SOL    HW1 3521   1.067   4.421   4.249
 1171SOL    HW2 3522   0.956   4.374   4.139
 1172SOL     OW 3523   0.076   4.535   4.513
 1172SOL    HW1 3524   0.175   4.523   4.522
 1172SOL    HW2 3525   0.052   4.630   4.534
 1173SOL     OW 3526   0.865   4.072   3.919
 1173SOL    HW1 3527   0.924   4.135   3.870
 1173SOL    HW2 3528   0.884   3.978   3.890
 1174SOL     OW 3529   1.400   3.831   4.150
 1174SOL    HW1 3530   1.376   3.794   4.060
 1174SOL    HW2 3531   1.499   3.847   4.154
 1175SOL     OW 3532   0.614   3.846   3.841
 1175SOL    HW1 3533   0.712   3.824   3.848
 1175SOL    HW2 3534   0.583   3.829   3.748
 1176SOL     OW 3535   0.539   3.788   4.236
 1176SOL    HW1 3536   0.458   3.789   4.294
 1176SOL    HW2 3537   0.542   3.871   4.181
 1177SOL     OW 3538   0.297   3.759   3.895
 1177SOL    HW1 3539   0.346   3.843   3.874
 1177SOL    HW2 3540   0.359   3.694   3.940
 1178SOL     OW 3541   0.935   3.960   4.204
 1178SOL    HW1 3542   0.887   4.001   4.126
 1178SOL    HW2 3543   1.034   3.958   4.185
 1179SOL     OW 3544   1.032   4.273   3.740
 1179SOL    HW1 3545   0.991   4.355   3.701
 1179SOL    HW2 3546   1.096   4.299   3.813
 1180SOL     OW 3547   0.866   4.178   4.366
 1180SOL    HW1 3548   0.834   4.250   4.304
 1180SOL    HW2 3549   0.890   4.097   4.313
 1181SOL     OW 3550   0.527   3.980   4.052
 1181SOL    HW1 3551   0.554   3.921   3.977
 1181SOL    HW2 3552   0.527   4.075   4.021
 1182SOL     OW 3553   1.582   4.363   4.196
 1182SOL    HW1 3554   1.551   4.424   4.269
 1182SOL    HW2 3555   1.632   4.415   4.127
 1183SOL     OW 3556   1.209   4.249   3.999
 1183SOL    HW1 3557   1.222   4.165   4.053
 1183SOL    HW2 3558   1.180   4.323   4.059
 1184SOL     OW 3559   0.307   3.787   4.342
 1184SOL    HW1 3560   0.296   3.881   4.375
 1184SOL    HW2 3561   0.302   3.724   4.419
 1185SOL     OW 3562   1.622   4.091   4.098
 1185SOL    HW1 3563   1.624   4.015   4.162
 1185SOL    HW2 3564   1.574   4.168   4.138
 1186SOL     OW 3565   1.540   3.998   3.849
 1186SOL    HW1 3566   1.479   3.923   3.872
 1186SOL    HW2 3567   1.562   4.050   3.932
 1187SOL     OW 3568   0.815   4.296   4.049
 1187SOL    HW1 3569   0.822   4.207   4.003
 1187SOL    HW2 3570   0.721   4.330   4.041
 1188SOL     OW 3571   0.473   4.224   3.915
 1188SOL    HW1 3572   0.534   4.304   3.919
 1188SOL    HW2 3573   0.378   4.255   3.922
 1189SOL     OW 3574   1.726   3.859   4.247
 1189SOL    HW1 3575   1.799   3.842   4.180
 1189SOL    HW2 3576   1.695   3.772   4.285
 1190SOL     OW 3577   1.841   3.899   4.687
 1190SOL    HW1 3578   1.880   3.814   4.651
 1190SOL    HW2 3579   1.743   3.901   4.668
 1191SOL     OW 3580   0.075   4.069   3.757
 1191SOL    HW1 3581  -0.017   4.041   3.728
 1191SOL    HW2 3582   0.106   4.146   3.701
 1192SOL     OW 3583   0.072   3.890   4.042
 1192SOL    HW1 3584   0.055   3.973   3.988
 1192SOL    HW2 3585   0.162   3.853   4.020
 1193SOL     OW 3586   1.225   4.049   4.173
 1193SOL    HW1 3587   1.290   3.975   4.162
 1193SOL    HW2 3588   1.245   4.099   4.257
 1194SOL     OW 3589   1.083   4.708   3.811
 1194SOL    HW1 3590   1.060   4.761   3.729
 1194SOL    HW2 3591   1.164   4.652   3.792
 1195SOL     OW 3592   0.428   4.148   4.244
 1195SOL    HW1 3593   0.458   4.076   4.182
 1195SOL    HW2 3594   0.389   4.108   4.327
 1196SOL     OW 3595   1.352   3.776   3.892
 1196SOL    HW1 3596   1.387   3.735   3.808
 1196SOL    HW2 3597   1.262   3.738   3.912
 1197SOL     OW 3598   1.300   4.177   4.415
 1197SOL    HW1 3599   1.241   4.257   4.419
 1197SOL    HW2 3600   1.315   4.142   4.508
 1198SOL     OW 3601   2.092   0.628   0.113
 1198SOL    HW1 3602   1.999   0.626   0.150
 1198SOL    HW2 3603   2.093   0.589   0.021
 1199SOL     OW 3604   2.087   0.275   0.996
 1199SOL    HW1 3605   2.122   0.258   1.088
 1199SOL    HW2 3606   1.999   0.230   0.984
 1200SOL     OW 3607   1.881   0.368   0.647
 1200SOL    HW1 3608   1.799   0.411   0.686
 1200SOL    HW2 3609   1.853   0.295   0.584
 1201SOL     OW 3610   2.431   1.275   1.165
 1201SOL    HW1 3611   2.338   1.268   1.128
 1201SOL    HW2 3612   2.442   1.364   1.209
 1202SOL     OW 3613   3.417   1.511   0.703
 1202SOL    HW1 3614   3.360   1.495   0.784
 1202SOL    HW2 3615   3.358   1.521   0.623
 1203SOL     OW 3616   2.997   0.703   0.717
 1203SOL    HW1 3617   3.054   0.781   0.692
 1203SOL    HW2 3618   2.937   0.729   0.793
 1204SOL     OW 3619   3.617   0.607   0.231
 1204SOL    HW1 3620   3.605   0.594   0.132
 1204SOL    HW2 3621   3.587   0.526   0.280
 1205SOL     OW 3622   2.630   1.144   1.023
 1205SOL    HW1 3623   2.552   1.161   1.083
 1205SOL    HW2 3624   2.664   1.231   0.987
 1206SOL     OW 3625   2.712   0.798   1.823
 1206SOL    HW1 3626   2.708   0.874   1.888
 1206SOL    HW2 3627   2.734   0.834   1.732
 1207SOL     OW 3628   2.547   1.012   0.665
 1207SOL    HW1 3629   2.616   0.996   0.735
 1207SOL    HW2 3630   2.474   1.069   0.703
 1208SOL     OW 3631   2.548   1.161   1.803
 1208SOL    HW1 3632   2.608   1.240   1.817
 1208SOL    HW2 3633   2.462   1.192   1.762
 1209SOL     OW 3634   2.197   1.435   1.061
 1209SOL    HW1 3635   2.119   1.404   1.008
 1209SOL    HW2 3636   2.255   1.493   1.004
 1210SOL     OW 3637   3.322   1.505   1.339
 1210SOL    HW1 3638   3.346   1.599   1.365
 1210SOL    HW2 3639   3.306   1.451   1.421
 1211SOL     OW 3640   2.300   0.392   1.499
 1211SOL    HW1 3641   2.382   0.336   1.508
 1211SOL    HW2 3642   2.219   0.334   1.503
 1212SOL     OW 3643   3.465   0.447   0.737
 1212SOL    HW1 3644   3.391   0.493   0.687
 1212SOL    HW2 3645   3.516   0.515   0.790
 1213SOL     OW 3646   2.093   1.713   0.483
 1213SOL    HW1 3647   2.127   1.790   0.537
 1213SOL    HW2 3648   2.137   1.713   0.393
 1214SOL     OW 3649   2.989   1.341   1.690
 1214SOL    HW1 3650   3.036   1.341   1.778
 1214SOL    HW2 3651   2.941   1.254   1.679
 1215SOL     OW 3652   2.092   1.434   0.538
 1215SOL    HW1 3653   2.066   1.530   0.538
 1215SOL    HW2 3654   2.021   1.380   0.583
 1216SOL     OW 3655   2.102   1.091   0.886
 1216SOL    HW1 3656   2.116   1.007   0.938
 1216SOL    HW2 3657   2.047   1.155   0.941
 1217SOL     OW 3658   2.482   1.786   1.439
 1217SOL    HW1 3659   2.390   1.769   1.474
 1217SOL    HW2 3660   2.510   1.878   1.465
 1218SOL     OW 3661   2.468   0.964   0.123
 1218SOL    HW1 3662   2.475   1.048   0.069
 1218SOL    HW2 3663   2.514   0.977   0.211
 1219SOL     OW 3664   3.456   0.114   1.480
 1219SOL    HW1 3665   3.438   0.181   1.408
 1219SOL    HW2 3666   3.453   0.160   1.569
 1220SOL     OW 3667   1.984   0.643   0.563
 1220SOL    HW1 3668   1.939   0.555   0.580
 1220SOL    HW2 3669   1.983   0.697   0.647
 1221SOL     OW 3670   3.704   1.767   0.359
 1221SOL    HW1 3671   3.758   1.738   0.439
 1221SOL    HW2 3672   3.734   1.857   0.330
 1222SOL     OW 3673   1.889   1.596   0.117
 1222SOL    HW1 3674   1.870   1.500   0.138
 1222SOL    HW2 3675   1.856   1.654   0.192
 1223SOL     OW 3676   3.551   0.922   0.612
 1223SOL    HW1 3677   3.646   0.893   0.620
 1223SOL    HW2 3678   3.543   0.987   0.537
 1224SOL     OW 3679   3.503   1.108   0.432
 1224SOL    HW1 3680   3.589   1.110   0.380
 1224SOL    HW2 3681   3.517   1.155   0.520
 1225SOL     OW 3682   1.975   0.737   1.597
 1225SOL    HW1 3683   2.063   0.724   1.642
 1225SOL    HW2 3684   1.962   0.834   1.575
 1226SOL     OW 3685   2.475   1.365   0.726
 1226SOL    HW1 3686   2.426   1.278   0.735
 1226SOL    HW2 3687   2.452   1.408   0.639
 1227SOL     OW 3688   3.155   1.228   1.423
 1227SOL    HW1 3689   3.192   1.155   1.365
 1227SOL    HW2 3690   3.207   1.233   1.508
 1228SOL     OW 3691   2.671   0.004   0.502
 1228SOL    HW1 3692   2.711   0.095   0.493
 1228SOL    HW2 3693   2.571   0.012   0.508
 1229SOL     OW 3694   2.059   0.976   1.264
 1229SOL    HW1 3695   2.148   0.931   1.250
 1229SOL    HW2 3696   1.986   0.911   1.245
 1230SOL     OW 3697   3.387   0.999   0.190
 1230SOL    HW1 3698   3.324   0.923   0.203
 1230SOL    HW2 3699   3.435   1.017   0.276
 1231SOL     OW 3700   3.049   1.792   1.616
 1231SOL    HW1 3701   3.073   1.852   1.540
 1231SOL    HW2 3702   3.056   1.697   1.586
 1232SOL     OW 3703   2.179   0.251   1.801
 1232SOL    HW1 3704   2.250   0.322   1.807
 1232SOL    HW2 3705   2.091   0.290   1.829
 1233SOL     OW 3706   3.328   1.417   0.953
 1233SOL    HW1 3707   3.269   1.423   1.033
 1233SOL    HW2 3708   3.313   1.329   0.907
 1234SOL     OW 3709   3.529   1.714   0.572
 1234SOL    HW1 3710   3.488   1.691   0.484
 1234SOL    HW2 3711   3.511   1.640   0.637
 1235SOL     OW 3712   2.460   0.729   0.270
 1235SOL    HW1 3713   2.484   0.798   0.202
 1235SOL    HW2 3714   2.382   0.762   0.324
 1236SOL     OW 3715   3.143   0.345   0.944
 1236SOL    HW1 3716   3.057   0.295   0.931
 1236SOL    HW2 3717   3.205   0.291   1.000
 1237SOL     OW 3718   3.438   1.662   0.307
 1237SOL    HW1 3719   3.527   1.708   0.310
 1237SOL    HW2 3720   3.417   1.638   0.212
 1238SOL     OW 3721   2.669   0.605   1.465
 1238SOL    HW1 3722   2.622   0.602   1.554
 1238SOL    HW2 3723   2.618   0.550   1.399
 1239SOL     OW 3724   3.256   0.469   1.674
 1239SOL    HW1 3725   3.236   0.512   1.762
 1239SOL    HW2 3726   3.334   0.407   1.683
 1240SOL     OW 3727   2.835   0.890   1.572
 1240SOL    HW1 3728   2.881   0.806   1.543
 1240SOL    HW2 3729   2.779   0.924   1.497
 1241SOL     OW 3730   2.853   0.410   1.242
 1241SOL    HW1 3731   2.776   0.444   1.296
 1241SOL    HW2 3732   2.819   0.359   1.163
 1242SOL     OW 3733   2.903   0.701   0.429
 1242SOL    HW1 3734   2.929   0.697   0.525
 1242SOL    HW2 3735   2.818   0.650   0.415
 1243SOL     OW 3736   1.938   0.811   0.789
 1243SOL    HW1 3737   2.037   0.799   0.798
 1243SOL    HW2 3738   1.914   0.906   0.810
 1244SOL     OW 3739   1.992   1.821   1.571
 1244SOL    HW1 3740   1.982   1.806   1.670
 1244SOL    HW2 3741   1.906   1.857   1.535
 1245SOL     OW 3742   2.727   0.348   0.195
 1245SOL    HW1 3743   2.786   0.411   0.146
 1245SOL    HW2 3744   2.746   0.254   0.166
 1246SOL     OW 3745   3.581   0.585   1.831
 1246SOL    HW1 3746   3.555   0.674   1.795
 1246SOL    HW2 3747   3.579   0.517   1.758
 1247SOL     OW 3748   3.224   1.144   0.545
 1247SOL    HW1 3749   3.307   1.115   0.497
 1247SOL    HW2 3750   3.175   1.211   0.489
 1248SOL     OW 3751   2.412   0.196   0.885
 1248SOL    HW1 3752   2.407   0.191   0.985
 1248SOL    HW2 3753   2.414   0.292   0.856
 1249SOL     OW 3754   2.870   1.456   0.477
 1249SOL    HW1 3755   2.824   1.528   0.425
 1249SOL    HW2 3756   2.866   1.476   0.575
 1250SOL     OW 3757   2.213   1.801   0.853
 1250SOL    HW1 3758   2.263   1.715   0.859
 1250SOL    HW2 3759   2.278   1.878   0.850
 1251SOL     OW 3760   3.657   1.066   0.873
 1251SOL    HW1 3761   3.595   1.051   0.797
 1251SOL    HW2 3762   3.605   1.077   0.958
 1252SOL     OW 3763   3.089   1.550   1.506
 1252SOL    HW1 3764   3.095   1.473   1.570
 1252SOL    HW2 3765   3.037   1.524   1.426
 1253SOL     OW 3766   2.183   0.943   0.242
 1253SOL    HW1 3767   2.265   0.982   0.200
 1253SOL    HW2 3768   2.156   0.861   0.193
 1254SOL     OW 3769   3.320   0.735   0.728
 1254SOL    HW1 3770   3.315   0.670   0.803
 1254SOL    HW2 3771   3.400   0.794   0.741
 1255SOL     OW 3772   2.323   1.266   1.727
 1255SOL    HW1 3773   2.273   1.267   1.641
 1255SOL    HW2 3774   2.260   1.248   1.803
 1256SOL     OW 3775   2.973   1.776   0.237
 1256SOL    HW1 3776   2.913   1.714   0.287
 1256SOL    HW2 3777   3.004   1.732   0.152
 1257SOL     OW 3778   2.064   0.285   1.498
 1257SOL    HW1 3779   1.984   0.345   1.485
 1257SOL    HW2 3780   2.054   0.236   1.584
 1258SOL     OW 3781   3.494   1.377   0.081
 1258SOL    HW1 3782   3.462   1.471   0.071
 1258SOL    HW2 3783   3.418   1.314   0.069
 1259SOL     OW 3784   2.326   1.743   0.323
 1259SOL    HW1 3785   2.359   1.782   0.409
 1259SOL    HW2 3786   2.402   1.736   0.258
 1260SOL     OW 3787   3.262   0.107   0.426
 1260SOL    HW1 3788   3.238   0.070   0.336
 1260SOL    HW2 3789   3.361   0.123   0.430
 1261SOL     OW 3790   2.111   1.785   1.241
 1261SOL    HW1 3791   2.168   1.720   1.291
 1261SOL    HW2 3792   2.095   1.752   1.148
 1262SOL     OW 3793   2.802   1.698   0.904
 1262SOL    HW1 3794   2.882   1.641   0.925
 1262SOL    HW2 3795   2.753   1.658   0.827
 1263SOL     OW 3796   2.244   0.700   0.480
 1263SOL    HW1 3797   2.289   0.610   0.477
 1263SOL    HW2 3798   2.150   0.689   0.513
 1264SOL     OW 3799   3.409   0.222   1.729
 1264SOL    HW1 3800   3.404   0.259   1.821
 1264SOL    HW2 3801   3.337   0.153   1.717
 1265SOL     OW 3802   2.476   0.122   0.117
 1265SOL    HW1 3803   2.574   0.100   0.124
 1265SOL    HW2 3804   2.445   0.105   0.024
 1266SOL     OW 3805   2.643   0.264   1.749
 1266SOL    HW1 3806   2.710   0.203   1.792
 1266SOL    HW2 3807   2.570   0.283   1.814
 1267SOL     OW 3808   2.750   1.514   1.195
 1267SOL    HW1 3809   2.727   1.489   1.101
 1267SOL    HW2 3810   2.811   1.445   1.234
 1268SOL     OW 3811   3.213   0.590   1.433
 1268SOL    HW1 3812   3.241   0.547   1.518
 1268SOL    HW2 3813   3.238   0.686   1.434
 1269SOL     OW 3814   2.665   1.402   0.924
 1269SOL    HW1 3815   2.755   1.416   0.882
 1269SOL    HW2 3816   2.594   1.404   0.853
 1270SOL     OW 3817   2.784   0.503   0.899
 1270SOL    HW1 3818   2.759   0.494   0.803
 1270SOL    HW2 3819   2.832   0.421   0.930
 1271SOL     OW 3820   2.401   0.064   0.512
 1271SOL    HW1 3821   2.320   0.065   0.570
 1271SOL    HW2 3822   2.404   0.147   0.457
 1272SOL     OW 3823   3.296   1.188   0.041
 1272SOL    HW1 3824   3.328   1.112   0.098
 1272SOL    HW2 3825   3.204   1.215   0.071
 1273SOL     OW 3826   2.159   0.035   0.171
 1273SOL    HW1 3827   2.208   0.119   0.150
 1273SOL    HW2 3828   2.221  -0.030   0.216
 1274SOL     OW 3829   2.797   0.236   0.480
 1274SOL    HW1 3830   2.749   0.277   0.402
 1274SOL    HW2 3831   2.896   0.234   0.461
 1275SOL     OW 3832   2.938   0.683   1.464
 1275SOL    HW1 3833   2.858   0.622   1.467
 1275SOL    HW2 3834   3.019   0.630   1.440
 1276SOL     OW 3835   3.089   1.570   0.793
 1276SOL    HW1 3836   3.110   1.644   0.728
 1276SOL    HW2 3837   3.157   1.570   0.866
 1277SOL     OW 3838   2.321   1.152   0.741
 1277SOL    HW1 3839   2.250   1.125   0.806
 1277SOL    HW2 3840   2.295   1.124   0.648
 1278SOL     OW 3841   3.133   1.797   0.591
 1278SOL    HW1 3842   3.177   1.861   0.527
 1278SOL    HW2 3843   3.083   1.849   0.661
 1279SOL     OW 3844   2.894   0.549   0.016
 1279SOL    HW1 3845   2.853   0.631  -0.023
 1279SOL    HW2 3846   2.958   0.575   0.089
 1280SOL     OW 3847   1.940   0.556   1.386
 1280SOL    HW1 3848   2.032   0.555   1.345
 1280SOL    HW2 3849   1.934   0.630   1.453
 1281SOL     OW 3850   2.423   0.222   1.147
 1281SOL    HW1 3851   2.461   0.138   1.184
 1281SOL    HW2 3852   2.335   0.241   1.191
 1282SOL     OW 3853   2.728   0.454   0.642
 1282SOL    HW1 3854   2.696   0.526   0.580
 1282SOL    HW2 3855   2.752   0.373   0.589
 1283SOL     OW 3856   2.879   0.039   0.753
 1283SOL    HW1 3857   2.807   0.044   0.684
 1283SOL    HW2 3858   2.855  -0.030   0.822
 1284SOL     OW 3859   3.291   1.173   0.867
 1284SOL    HW1 3860   3.236   1.089   0.860
 1284SOL    HW2 3861   3.317   1.202   0.775
 1285SOL     OW 3862   3.328   0.590   0.992
 1285SOL    HW1 3863   3.298   0.495   0.999
 1285SOL    HW2 3864   3.401   0.606   1.058
 1286SOL     OW 3865   3.719   0.833   0.377
 1286SOL    HW1 3866   3.761   0.769   0.441
 1286SOL    HW2 3867   3.681   0.782   0.299
 1287SOL     OW 3868   2.350   1.385   0.174
 1287SOL    HW1 3869   2.263   1.370   0.221
 1287SOL    HW2 3870   2.333   1.411   0.079
 1288SOL     OW 3871   3.526   1.280   0.657
 1288SOL    HW1 3872   3.625   1.288   0.671
 1288SOL    HW2 3873   3.481   1.364   0.688
 1289SOL     OW 3874   3.252   0.575   0.078
 1289SOL    HW1 3875   3.198   0.554   0.159
 1289SOL    HW2 3876   3.343   0.534   0.087
 1290SOL     OW 3877   2.389   0.256   0.328
 1290SOL    HW1 3878   2.416   0.197   0.253
 1290SOL    HW2 3879   2.389   0.351   0.297
 1291SOL     OW 3880   3.616   1.223   1.588
 1291SOL    HW1 3881   3.707   1.184   1.575
 1291SOL    HW2 3882   3.624   1.319   1.612
 1292SOL     OW 3883   2.926   1.347   1.340
 1292SOL    HW1 3884   2.846   1.324   1.395
 1292SOL    HW2 3885   3.009   1.321   1.389
 1293SOL     OW 3886   3.454   1.629   1.625
 1293SOL    HW1 3887   3.481   1.663   1.535
 1293SOL    HW2 3888   3.533   1.591   1.671
 1294SOL     OW 3889   2.973   1.195   1.100
 1294SOL    HW1 3890   2.933   1.239   1.181
 1294SOL    HW2 3891   2.932   1.232   1.017
 1295SOL     OW 3892   3.500   1.099   1.079
 1295SOL    HW1 3893   3.505   1.180   1.138
 1295SOL    HW2 3894   3.414   1.101   1.028
 1296SOL     OW 3895   2.777   0.089   1.402
 1296SOL    HW1 3896   2.802   0.069   1.307
 1296SOL    HW2 3897   2.849   0.145   1.444
 1297SOL     OW 3898   2.842   1.116   1.719
 1297SOL    HW1 3899   2.743   1.122   1.729
 1297SOL    HW2 3900   2.865   1.036   1.663
 1298SOL     OW 3901   2.567   1.050   0.368
 1298SOL    HW1 3902   2.553   1.057   0.467
 1298SOL    HW2 3903   2.651   0.999   0.350
 1299SOL     OW 3904   2.272   0.813   1.251
 1299SOL    HW1 3905   2.358   0.825   1.301
 1299SOL    HW2 3906   2.230   0.726   1.278
 1300SOL     OW 3907   3.136   0.386   1.262
 1300SOL    HW1 3908   3.157   0.460   1.326
 1300SOL    HW2 3909   3.047   0.403   1.219
 1301SOL     OW 3910   1.926   1.564   1.331
 1301SOL    HW1 3911   1.880   1.646   1.297
 1301SOL    HW2 3912   2.024   1.583   1.340
 1302SOL     OW 3913   2.229   1.100   0.501
 1302SOL    HW1 3914   2.222   1.183   0.445
 1302SOL    HW2 3915   2.233   1.020   0.441
 1303SOL     OW 3916   2.428   0.537   0.865
 1303SOL    HW1 3917   2.440   0.603   0.791
 1303SOL    HW2 3918   2.474   0.571   0.948
 1304SOL     OW 3919   3.114   1.348   0.388
 1304SOL    HW1 3920   3.164   1.425   0.428
 1304SOL    HW2 3921   3.019   1.350   0.420
 1305SOL     OW 3922   3.134   1.445   1.142
 1305SOL    HW1 3923   3.181   1.458   1.229
 1305SOL    HW2 3924   3.068   1.371   1.151
 1306SOL     OW 3925   3.444   0.639   0.472
 1306SOL    HW1 3926   3.413   0.700   0.545
 1306SOL    HW2 3927   3.494   0.691   0.403
 1307SOL     OW 3928   2.216   1.510   1.329
 1307SOL    HW1 3929   2.195   1.466   1.242
 1307SOL    HW2 3930   2.313   1.536   1.332
 1308SOL     OW 3931   2.264   0.751   1.598
 1308SOL    HW1 3932   2.332   0.806   1.551
 1308SOL    HW2 3933   2.304   0.663   1.625
 1309SOL     OW 3934   3.449   0.779   1.670
 1309SOL    HW1 3935   3.357   0.817   1.665
 1309SOL    HW2 3936   3.509   0.826   1.605
 1310SOL     OW 3937   2.875   0.105   1.770
 1310SOL    HW1 3938   2.881   0.190   1.718
 1310SOL    HW2 3939   2.907   0.029   1.713
 1311SOL     OW 3940   2.366   0.050   1.740
 1311SOL    HW1 3941   2.324  -0.007   1.670
 1311SOL    HW2 3942   2.300   0.119   1.772
 1312SOL     OW 3943   2.435   0.870   1.029
 1312SOL    HW1 3944   2.479   0.959   1.020
 1312SOL    HW2 3945   2.372   0.870   1.106
 1313SOL     OW 3946   3.222   0.862   1.045
 1313SOL    HW1 3947   3.147   0.862   0.979
 1313SOL    HW2 3948   3.259   0.770   1.054
 1314SOL     OW 3949   3.071   0.525   0.275
 1314SOL    HW1 3950   3.084   0.441   0.329
 1314SOL    HW2 3951   3.042   0.599   0.335
 1315SOL     OW 3952   2.169   0.213   1.231
 1315SOL    HW1 3953   2.146   0.250   1.321
 1315SOL    HW2 3954   2.139   0.118   1.225
 1316SOL     OW 3955   1.899   1.310   1.282
 1316SOL    HW1 3956   1.952   1.261   1.350
 1316SOL    HW2 3957   1.921   1.408   1.287
 1317SOL     OW 3958   2.594   0.634   1.064
 1317SOL    HW1 3959   2.653   0.608   0.988
 1317SOL    HW2 3960   2.566   0.730   1.053
 1318SOL     OW 3961   3.590   0.935   1.854
 1318SOL    HW1 3962   3.544   0.928   1.765
 1318SOL    HW2 3963   3.528   0.979   1.920
 1319SOL     OW 3964   2.169   0.063   0.618
 1319SOL    HW1 3965   2.158   0.157   0.651
 1319SOL    HW2 3966   2.164   0.000   0.695
 1320SOL     OW 3967   3.484   0.367   0.374
 1320SOL    HW1 3968   3.486   0.291   0.438
 1320SOL    HW2 3969   3.436   0.444   0.414
 1321SOL     OW 3970   2.885   0.766   0.966
 1321SOL    HW1 3971   2.900   0.787   1.062
 1321SOL    HW2 3972   2.855   0.671   0.957
 1322SOL     OW 3973   2.842   1.573   1.700
 1322SOL    HW1 3974   2.822   1.617   1.612
 1322SOL    HW2 3975   2.881   1.482   1.684
 1323SOL     OW 3976   3.721   1.518   1.605
 1323SOL    HW1 3977   3.735   1.545   1.510
 1323SOL    HW2 3978   3.804   1.540   1.658
 1324SOL     OW 3979   2.212   0.898   1.804
 1324SOL    HW1 3980   2.288   0.942   1.852
 1324SOL    HW2 3981   2.247   0.851   1.722
 1325SOL     OW 3982   3.402   0.274   0.125
 1325SOL    HW1 3983   3.341   0.199   0.148
 1325SOL    HW2 3984   3.424   0.326   0.208
 1326SOL     OW 3985   3.165   0.838   0.042
 1326SOL    HW1 3986   3.199   0.745   0.057
 1326SOL    HW2 3987   3.183   0.865  -0.053
 1327SOL     OW 3988   2.930   1.333   0.849
 1327SOL    HW1 3989   2.937   1.249   0.794
 1327SOL    HW2 3990   2.992   1.402   0.813
 1328SOL     OW 3991   2.181   0.810   0.949
 1328SOL    HW1 3992   2.274   0.846   0.954
 1328SOL    HW2 3993   2.175   0.725   1.001
 1329SOL     OW 3994   2.201   0.509   1.006
 1329SOL    HW1 3995   2.149   0.426   0.989
 1329SOL    HW2 3996   2.278   0.514   0.942
 1330SOL     OW 3997   3.000   0.380   1.678
 1330SOL    HW1 3998   2.955   0.443   1.742
 1330SOL    HW2 3999   3.093   0.411   1.661
 1331SOL     OW 4000   3.022   0.207   1.477
 1331SOL    HW1 4001   3.022   0.271   1.554
 1331SOL    HW2 4002   3.050   0.255   1.394
 1332SOL     OW 4003   1.870   1.326   0.200
 1332SOL    HW1 4004   1.777   1.347   0.169
 1332SOL    HW2 4005   1.880   1.227   0.213
 1333SOL     OW 4006   1.950   1.801   0.927
 1333SOL    HW1 4007   1.908   1.715   0.900
 1333SOL    HW2 4008   2.044   1.804   0.893
 1334SOL     OW 4009   2.366   1.568   0.910
 1334SOL    HW1 4010   2.432   1.642   0.919
 1334SOL    HW2 4011   2.410   1.489   0.868
 1335SOL     OW 4012   2.864   0.796   1.238
 1335SOL    HW1 4013   2.905   0.764   1.324
 1335SOL    HW2 4014   2.768   0.769   1.235
 1336SOL     OW 4015   1.902   0.544   1.114
 1336SOL    HW1 4016   1.987   0.511   1.073
 1336SOL    HW2 4017   1.915   0.559   1.212
 1337SOL     OW 4018   2.051   0.520   1.722
 1337SOL    HW1 4019   2.110   0.480   1.652
 1337SOL    HW2 4020   1.993   0.591   1.681
 1338SOL     OW 4021   3.231   0.950   1.660
 1338SOL    HW1 4022   3.270   1.039   1.680
 1338SOL    HW2 4023   3.241   0.930   1.563
 1339SOL     OW 4024   2.677   0.572   0.325
 1339SOL    HW1 4025   2.684   0.483   0.279
 1339SOL    HW2 4026   2.583   0.606   0.317
 1340SOL     OW 4027   3.519   0.604   1.206
 1340SOL    HW1 4028   3.481   0.535   1.268
 1340SOL    HW2 4029   3.601   0.568   1.162
 1341SOL     OW 4030   2.114   1.564   1.744
 1341SOL    HW1 4031   2.084   1.621   1.820
 1341SOL    HW2 4032   2.107   1.467   1.770
 1342SOL     OW 4033   2.533   0.464   1.269
 1342SOL    HW1 4034   2.499   0.375   1.239
 1342SOL    HW2 4035   2.559   0.518   1.189
 1343SOL     OW 4036   2.792   1.678   1.465
 1343SOL    HW1 4037   2.768   1.660   1.370
 1343SOL    HW2 4038   2.822   1.772   1.475
 1344SOL     OW 4039   2.335   0.500   0.191
 1344SOL    HW1 4040   2.396   0.580   0.195
 1344SOL    HW2 4041   2.240   0.531   0.198
 1345SOL     OW 4042   2.021   1.137   1.466
 1345SOL    HW1 4043   2.043   1.076   1.542
 1345SOL    HW2 4044   2.031   1.088   1.380
 1346SOL     OW 4045   3.209   1.059   1.234
 1346SOL    HW1 4046   3.233   0.996   1.160
 1346SOL    HW2 4047   3.119   1.099   1.216
 1347SOL     OW 4048   3.164   0.855   0.309
 1347SOL    HW1 4049   3.078   0.824   0.351
 1347SOL    HW2 4050   3.160   0.841   0.210
 1348SOL     OW 4051   3.621   1.747   1.154
 1348SOL    HW1 4052   3.682   1.777   1.081
 1348SOL    HW2 4053   3.583   1.658   1.132
 1349SOL     OW 4054   3.114   1.731   1.128
 1349SOL    HW1 4055   3.198   1.736   1.074
 1349SOL    HW2 4056   3.091   1.635   1.146
 1350SOL     OW 4057   1.945   1.258   1.022
 1350SOL    HW1 4058   1.940   1.257   1.122
 1350SOL    HW2 4059   1.862   1.217   0.984
 1351SOL     OW 4060   2.550   1.662   1.716
 1351SOL    HW1 4061   2.494   1.743   1.725
 1351SOL    HW2 4062   2.602   1.666   1.630
 1352SOL     OW 4063   2.765   0.086   0.133
 1352SOL    HW1 4064   2.816   0.087   0.047
 1352SOL    HW2 4065   2.821   0.044   0.204
 1353SOL     OW 4066   3.588   0.135   0.523
 1353SOL    HW1 4067   3.661   0.118   0.456
 1353SOL    HW2 4068   3.557   0.048   0.561
 1354SOL     OW 4069   3.250   1.573   0.477
 1354SOL    HW1 4070   3.317   1.585   0.403
 1354SOL    HW2 4071   3.210   1.662   0.500
 1355SOL     OW 4072   1.992   1.794   1.851
 1355SOL    HW1 4073   1.951   1.720   1.904
 1355SOL    HW2 4074   2.056   1.845   1.909
 1356SOL     OW 4075   3.142   0.927   0.672
 1356SOL    HW1 4076   3.202   0.846   0.674
 1356SOL    HW2 4077   3.182   0.996   0.612
 1357SOL     OW 4078   2.692   1.273   1.422
 1357SOL    HW1 4079   2.687   1.306   1.517
 1357SOL    HW2 4080   2.606   1.292   1.376
 1358SOL     OW 4081   2.534   1.616   0.154
 1358SOL    HW1 4082   2.543   1.626   0.055
 1358SOL    HW2 4083   2.494   1.527   0.175
 1359SOL     OW 4084   3.512   1.720   1.394
 1359SOL    HW1 4085   3.565   1.730   1.310
 1359SOL    HW2 4086   3.485   1.810   1.428
 1360SOL     OW 4087   3.703   0.175   0.963
 1360SOL    HW1 4088   3.742   0.090   0.927
 1360SOL    HW2 4089   3.605   0.177   0.944
 1361SOL     OW 4090   2.125   0.326   0.720
 1361SOL    HW1 4091   2.046   0.377   0.686
 1361SOL    HW2 4092   2.116   0.311   0.818
 1362SOL     OW 4093   3.056   1.612   0.031
 1362SOL    HW1 4094   3.062   1.519   0.068
 1362SOL    HW2 4095   2.997   1.612  -0.049
 1363SOL     OW 4096   2.684   1.002   1.372
 1363SOL    HW1 4097   2.724   1.001   1.280
 1363SOL    HW2 4098   2.694   1.094   1.412
 1364SOL     OW 4099   2.778   0.910   0.291
 1364SOL    HW1 4100   2.841   0.948   0.223
 1364SOL    HW2 4101   2.818   0.827   0.330
 1365SOL     OW 4102   3.366   1.607   0.044
 1365SOL    HW1 4103   3.274   1.644   0.051
 1365SOL    HW2 4104   3.404   1.627  -0.046
 1366SOL     OW 4105   2.234   1.288   1.490
 1366SOL    HW1 4106   2.221   1.381   1.456
 1366SOL    HW2 4107   2.150   1.236   1.477
 1367SOL     OW 4108   3.476   1.292   1.289
 1367SOL    HW1 4109   3.536   1.295   1.369
 1367SOL    HW2 4110   3.401   1.356   1.302
 1368SOL     OW 4111   2.901   1.098   0.696
 1368SOL    HW1 4112   2.831   1.051   0.750
 1368SOL    HW2 4113   2.960   1.030   0.653
 1369SOL     OW 4114   2.876   0.236   0.971
 1369SOL    HW1 4115   2.868   0.200   0.878
 1369SOL    HW2 4116   2.874   0.160   1.036
 1370SOL     OW 4117   2.452   1.487   0.491
 1370SOL    HW1 4118   2.494   1.429   0.421
 1370SOL    HW2 4119   2.408   1.566   0.447
 1371SOL     OW 4120   3.571   0.385   1.381
 1371SOL    HW1 4121   3.644   0.454   1.385
 1371SOL    HW2 4122   3.599   0.310   1.322
 1372SOL     OW 4123   2.117   1.348   0.290
 1372SOL    HW1 4124   2.021   1.349   0.263
 1372SOL    HW2 4125   2.129   1.401   0.374
 1373SOL     OW 4126   1.967   1.013   1.726
 1373SOL    HW1 4127   1.890   0.980   1.780
 1373SOL    HW2 4128   2.052   0.983   1.768
 1374SOL     OW 4129   2.534   0.203   1.489
 1374SOL    HW1 4130   2.624   0.187   1.449
 1374SOL    HW2 4131   2.542   0.208   1.588
 1375SOL     OW 4132   1.937   0.345   0.033
 1375SOL    HW1 4133   1.845   0.317   0.004
 1375SOL    HW2 4134   1.968   0.422  -0.023
 1376SOL     OW 4135   3.302   0.856   1.398
 1376SOL    HW1 4136   3.245   0.908   1.335
 1376SOL    HW2 4137   3.398   0.868   1.374
 1377SOL     OW 4138   3.045   1.335   0.119
 1377SOL    HW1 4139   2.946   1.324   0.121
 1377SOL    HW2 4140   3.079   1.350   0.212
 1378SOL     OW 4141   2.475   0.842   1.431
 1378SOL    HW1 4142   2.531   0.923   1.414
 1378SOL    HW2 4143   2.534   0.762   1.434
 1379SOL     OW 4144   3.355   1.767   0.959
 1379SOL    HW1 4145   3.388   1.831   0.890
 1379SOL    HW2 4146   3.421   1.761   1.034
 1380SOL     OW 4147   2.578   0.565   1.708
 1380SOL    HW1 4148   2.597   0.630   1.782
 1380SOL    HW2 4149   2.638   0.485   1.717
 1381SOL     OW 4150   3.312   1.220   1.633
 1381SOL    HW1 4151   3.303   1.210   1.732
 1381SOL    HW2 4152   3.408   1.213   1.607
 1382SOL     OW 4153   2.252   1.741   1.560
 1382SOL    HW1 4154   2.161   1.782   1.558
 1382SOL    HW2 4155   2.245   1.647   1.592
 1383SOL     OW 4156   3.536   0.883   1.254
 1383SOL    HW1 4157   3.509   0.794   1.217
 1383SOL    HW2 4158   3.537   0.951   1.181
 1384SOL     OW 4159   3.087   0.325   0.449
 1384SOL    HW1 4160   3.152   0.251   0.438
 1384SOL    HW2 4161   3.107   0.375   0.533
 1385SOL     OW 4162   2.456   0.745   0.652
 1385SOL    HW1 4163   2.506   0.830   0.633
 1385SOL    HW2 4164   2.368   0.747   0.604
 1386SOL     OW 4165   3.639   0.342   1.642
 1386SOL    HW1 4166   3.622   0.373   1.548
 1386SOL    HW2 4167   3.555   0.305   1.680
 1387SOL     OW 4168   3.592   0.934   1.517
 1387SOL    HW1 4169   3.630   1.025   1.532
 1387SOL    HW2 4170   3.584   0.917   1.418
 1388SOL     OW 4171   2.721   1.374   0.016
 1388SOL    HW1 4172   2.675   1.389   0.104
 1388SOL    HW2 4173   2.765   1.459  -0.014
 1389SOL     OW 4174   2.523   1.790   0.953
 1389SOL    HW1 4175   2.477   1.878   0.940
 1389SOL    HW2 4176   2.622   1.802   0.946
 1390SOL     OW 4177   2.721   0.956   0.861
 1390SOL    HW1 4178   2.775   0.887   0.909
 1390SOL    HW2 4179   2.689   1.025   0.927
 1391SOL     OW 4180   2.945   0.984   0.087
 1391SOL    HW1 4181   2.922   1.037   0.005
 1391SOL    HW2 4182   3.026   0.928   0.068
 1392SOL     OW 4183   3.723   1.569   0.851
 1392SOL    HW1 4184   3.652   1.557   0.781
 1392SOL    HW2 4185   3.724   1.490   0.911
 1393SOL     OW 4186   2.083   1.314   1.844
 1393SOL    HW1 4187   2.018   1.241   1.823
 1393SOL    HW2 4188   2.087   1.328   1.942
 1394SOL     OW 4189   1.941   1.240   0.653
 1394SOL    HW1 4190   1.940   1.193   0.741
 1394SOL    HW2 4191   2.023   1.212   0.602
 1395SOL     OW 4192   2.534   1.391   1.624
 1395SOL    HW1 4193   2.456   1.341   1.662
 1395SOL    HW2 4194   2.531   1.486   1.655
 1396SOL     OW 4195   3.686   0.192   1.227
 1396SOL    HW1 4196   3.682   0.102   1.271
 1396SOL    HW2 4197   3.689   0.181   1.128
 1397SOL     OW 4198   2.290   0.424   0.520
 1397SOL    HW1 4199   2.320   0.352   0.458
 1397SOL    HW2 4200   2.251   0.384   0.603
 1398SOL     OW 4201   3.567   1.487   1.104
 1398SOL    HW1 4202   3.474   1.462   1.077
 1398SOL    HW2 4203   3.593   1.437   1.186
 1399SOL     OW 4204   2.179   0.547   1.280
 1399SOL    HW1 4205   2.217   0.488   1.352
 1399SOL    HW2 4206   2.219   0.521   1.192
 1400SOL     OW 4207   2.674   1.586   0.687
 1400SOL    HW1 4208   2.706   1.596   0.593
 1400SOL    HW2 4209   2.595   1.524   0.689
 1401SOL     OW 4210   3.286   0.214   1.112
 1401SOL    HW1 4211   3.338   0.149   1.167
 1401SOL    HW2 4212   3.237   0.277   1.173
 1402SOL     OW 4213   2.863   0.034   1.154
 1402SOL    HW1 4214   2.800  -0.038   1.123
 1402SOL    HW2 4215   2.956  -0.002   1.154
 1403SOL     OW 4216   2.632   1.330   0.301
 1403SOL    HW1 4217   2.586   1.243   0.318
 1403SOL    HW2 4218   2.723   1.327   0.342
 1404SOL     OW 4219   2.480   1.567   1.284
 1404SOL    HW1 4220   2.475   1.649   1.341
 1404SOL    HW2 4221   2.569   1.564   1.239
 1405SOL     OW 4222   3.214   0.052   0.168
 1405SOL    HW1 4223   3.249   0.011   0.084
 1405SOL    HW2 4224   3.124   0.014   0.188
 1406SOL     OW 4225   3.162   0.453   0.691
 1406SOL    HW1 4226   3.103   0.533   0.695
 1406SOL    HW2 4227   3.177   0.418   0.784
 1407SOL     OW 4228   3.455   0.221   0.882
 1407SOL    HW1 4229   3.371   0.220   0.936
 1407SOL    HW2 4230   3.457   0.304   0.826
 1408SOL     OW 4231   1.901   1.077   0.300
 1408SOL    HW1 4232   2.000   1.066   0.291
 1408SOL    HW2 4233   1.861   0.991   0.332
 1409SOL     OW 4234   2.737   1.646   0.337
 1409SOL    HW1 4235   2.660   1.611   0.283
 1409SOL    HW2 4236   2.705   1.717   0.399
 1410SOL     OW 4237   2.092   0.628   1.975
 1410SOL    HW1 4238   1.999   0.626   2.012
 1410SOL    HW2 4239   2.093   0.589   1.883
 1411SOL     OW 4240   2.087   0.275   2.858
 1411SOL    HW1 4241   2.122   0.258   2.950
 1411SOL    HW2 4242   1.999   0.230   2.846
 1412SOL     OW 4243   1.881   0.368   2.509
 1412SOL    HW1 4244   1.799   0.411   2.548
 1412SOL    HW2 4245   1.853   0.295   2.446
 1413SOL     OW 4246   2.431   1.275   3.027
 1413SOL    HW1 4247   2.338   1.268   2.990
 1413SOL    HW2 4248   2.442   1.364   3.071
 1414SOL     OW 4249   3.417   1.511   2.565
 1414SOL    HW1 4250   3.360   1.495   2.646
 1414SOL    HW2 4251   3.358   1.521   2.485
 1415SOL     OW 4252   2.997   0.703   2.579
 1415SOL    HW1 4253   3.054   0.781   2.554
 1415SOL    HW2 4254   2.937   0.729   2.655
 1416SOL     OW 4255   3.617   0.607   2.093
 1416SOL    HW1 4256   3.605   0.594   1.994
 1416SOL    HW2 4257   3.587   0.526   2.142
 1417SOL     OW 4258   2.630   1.144   2.885
 1417SOL    HW1 4259   2.552   1.161   2.945
 1417SOL    HW2 4260   2.664   1.231   2.849
 1418SOL     OW 4261   2.712   0.798   3.685
 1418SOL    HW1 4262   2.708   0.874   3.750
 1418SOL    HW2 4263   2.734   0.834   3.594
 1419SOL     OW 4264   2.547   1.012   2.527
 1419SOL    HW1 4265   2.616   0.996   2.597
 1419SOL    HW2 4266   2.474   1.069   2.565
 1420SOL     OW 4267   2.548   1.161   3.665
 1420SOL    HW1 4268   2.608   1.240   3.679
 1420SOL    HW2 4269   2.462   1.192   3.624
 1421SOL     OW 4270   2.197   1.435   2.923
 1421SOL    HW1 4271   2.119   1.404   2.870
 1421SOL    HW2 4272   2.255   1.493   2.866
 1422SOL     OW 4273   3.322   1.505   3.201
 1422SOL    HW1 4274   3.346   1.599   3.227
 1422SOL    HW2 4275   3.306   1.451   3.283
 1423SOL     OW 4276   2.300   0.392   3.361
 1423SOL    HW1 4277   2.382   0.336   3.370
 1423SOL    HW2 4278   2.219   0.334   3.365
 1424SOL     OW 4279   3.465   0.447   2.599
 1424SOL    HW1 4280   3.391   0.493   2.549
 1424SOL    HW2 4281   3.516   0.515   2.652
 1425SOL     OW 4282   2.093   1.713   2.345
 1425SOL    HW1 4283   2.127   1.790   2.399
 1425SOL    HW2 4284   2.137   1.713   2.255
 1426SOL     OW 4285   2.989   1.341   3.552
 1426SOL    HW1 4286   3.036   1.341   3.640
 1426SOL    HW2 4287   2.941   1.254   3.541
 1427SOL     OW 4288   2.092   1.434   2.400
 1427SOL    HW1 4289   2.066   1.530   2.400
 1427SOL    HW2 4290   2.021   1.380   2.445
 1428SOL     OW 4291   2.102   1.091   2.748
 1428SOL    HW1 4292   2.116   1.007   2.800
 1428SOL    HW2 4293   2.047   1.155   2.803
 1429SOL     OW 4294   2.482   1.786   3.301
 1429SOL    HW1 4295   2.390   1.769   3.336
 1429SOL    HW2 4296   2.510   1.878   3.327
 1430SOL     OW 4297   2.468   0.964   1.985
 1430SOL    HW1 4298   2.475   1.048   1.931
 1430SOL    HW2 4299   2.514   0.977   2.073
 1431SOL     OW 4300   3.456   0.114   3.342
 1431SOL    HW1 4301   3.438   0.181   3.270
 1431SOL    HW2 4302   3.453   0.160   3.431
 1432SOL     OW 4303   1.984   0.643   2.425
 1432SOL    HW1 4304   1.939   0.555   2.442
 1432SOL    HW2 4305   1.983   0.697   2.509
 1433SOL     OW 4306   3.704   1.767   2.221
 1433SOL    HW1 4307   3.758   1.738   2.301
 1433SOL    HW2 4308   3.734   1.857   2.192
 1434SOL     OW 4309   1.889   1.596   1.979
 1434SOL    HW1 4310   1.870   1.500   2.000
 1434SOL    HW2 4311   1.856   1.654   2.054
 1435SOL     OW 4312   3.551   0.922   2.474
 1435SOL    HW1 4313   3.646   0.893   2.482
 1435SOL    HW2 4314   3.543   0.987   2.399
 1436SOL     OW 4315   3.503   1.108   2.294
 1436SOL    HW1 4316   3.589   1.110   2.242
 1436SOL    HW2 4317   3.517   1.155   2.382
 1437SOL     OW 4318   1.975   0.737   3.459
 1437SOL    HW1 4319   2.063   0.724   3.504
 1437SOL    HW2 4320   1.962   0.834   3.437
 1438SOL     OW 4321   2.475   1.365   2.588
 1438SOL    HW1 4322   2.426   1.278   2.597
 1438SOL    HW2 4323   2.452   1.408   2.501
 1439SOL     OW 4324   3.155   1.228   3.285
 1439SOL    HW1 4325   3.192   1.155   3.227
 1439SOL    HW2 4326   3.207   1.233   3.370
 1440SOL     OW 4327   2.671   0.004   2.364
 1440SOL    HW1 4328   2.711   0.095   2.355
 1440SOL    HW2 4329   2.571   0.012   2.370
 1441SOL     OW 4330   2.059   0.976   3.126
 1441SOL    HW1 4331   2.148   0.931   3.112
 1441SOL    HW2 4332   1.986   0.911   3.107
 1442SOL     OW 4333   3.387   0.999   2.052
 1442SOL    HW1 4334   3.324   0.923   2.065
 1442SOL    HW2 4335   3.435   1.017   2.138
 1443SOL     OW 4336   3.049   1.792   3.478
 1443SOL    HW1 4337   3.073   1.852   3.402
 1443SOL    HW2 4338   3.056   1.697   3.448
 1444SOL     OW 4339   2.179   0.251   3.663
 1444SOL    HW1 4340   2.250   0.322   3.669
 1444SOL    HW2 4341   2.091   0.290   3.691
 1445SOL     OW 4342   3.328   1.417   2.815
 1445SOL    HW1 4343   3.269   1.423   2.895
 1445SOL    HW2 4344   3.313   1.329   2.769
 1446SOL     OW 4345   3.529   1.714   2.434
 1446SOL    HW1 4346   3.488   1.691   2.346
 1446SOL    HW2 4347   3.511   1.640   2.499
 1447SOL     OW 4348   2.460   0.729   2.132
 1447SOL    HW1 4349   2.484   0.798   2.064
 1447SOL    HW2 4350   2.382   0.762   2.186
 1448SOL     OW 4351   3.143   0.345   2.806
 1448SOL    HW1 4352   3.057   0.295   2.793
 1448SOL    HW2 4353   3.205   0.291   2.862
 1449SOL     OW 4354   3.438   1.662   2.169
 1449SOL    HW1 4355   3.527   1.708   2.172
 1449SOL    HW2 4356   3.417   1.638   2.074
 1450SOL     OW 4357   2.669   0.605   3.327
 1450SOL    HW1 4358   2.622   0.602   3.416
 1450SOL    HW2 4359   2.618   0.550   3.261
 1451SOL     OW 4360   3.256   0.469   3.536
 1451SOL    HW1 4361   3.236   0.512   3.624
 1451SOL    HW2 4362   3.334   0.407   3.545
 1452SOL     OW 4363   2.835   0.890   3.434
 1452SOL    HW1 4364   2.881   0.806   3.405
 1452SOL    HW2 4365   2.779   0.924   3.359
 1453SOL     OW 4366   2.853   0.410   3.104
 1453SOL    HW1 4367   2.776   0.444   3.158
 1453SOL    HW2 4368   2.819   0.359   3.025
 1454SOL     OW 4369   2.903   0.701   2.291
 1454SOL    HW1 4370   2.929   0.697   2.387
 1454SOL    HW2 4371   2.818   0.650   2.277
 1455SOL     OW 4372   1.938   0.811   2.651
 1455SOL    HW1 4373   2.037   0.799   2.660
 1455SOL    HW2 4374   1.914   0.906   2.672
 1456SOL     OW 4375   1.992   1.821   3.433
 1456SOL    HW1 4376   1.982   1.806   3.532
 1456SOL    HW2 4377   1.906   1.857   3.397
 1457SOL     OW 4378   2.727   0.348   2.057
 1457SOL    HW1 4379   2.786   0.411   2.008
 1457SOL    HW2 4380   2.746   0.254   2.028
 1458SOL     OW 4381   3.581   0.585   3.693
 1458SOL    HW1 4382   3.555   0.674   3.657
 1458SOL    HW2 4383   3.579   0.517   3.620
 1459SOL     OW 4384   3.224   1.144   2.407
 1459SOL    HW1 4385   3.307   1.115   2.359
 1459SOL    HW2 4386   3.175   1.211   2.351
 1460SOL     OW 4387   2.412   0.196   2.747
 1460SOL    HW1 4388   2.407   0.191   2.847
 1460SOL    HW2 4389   2.414   0.292   2.718
 1461SOL     OW 4390   2.870   1.456   2.339
 1461SOL    HW1 4391   2.824   1.528   2.287
 1461SOL    HW2 4392   2.866   1.476   2.437
 1462SOL     OW 4393   2.213   1.801   2.715
 1462SOL    HW1 4394   2.263   1.715   2.721
 1462SOL    HW2 4395   2.278   1.878   2.712
 1463SOL     OW 4396   3.657   1.066   2.735
 1463SOL    HW1 4397   3.595   1.051   2.659
 1463SOL    HW2 4398   3.605   1.077   2.820
 1464SOL     OW 4399   3.089   1.550   3.368
 1464SOL    HW1 4400   3.095   1.473   3.432
 1464SOL    HW2 4401   3.037   1.524   3.288
 1465SOL     OW 4402   2.183   0.943   2.104
 1465SOL    HW1 4403   2.265   0.982   2.062
 1465SOL    HW2 4404   2.156   0.861   2.055
 1466SOL     OW 4405   3.320   0.735   2.590
 1466SOL    HW1 4406   3.315   0.670   2.665
 1466SOL    HW2 4407   3.400   0.794   2.603
 1467SOL     OW 4408   2.323   1.266   3.589
 1467SOL    HW1 4409   2.273   1.267   3.503
 1467SOL    HW2 4410   2.260   1.248   3.665
 1468SOL     OW 4411   2.973   1.776   2.099
 1468SOL    HW1 4412   2.913   1.714   2.149
 1468SOL    HW2 4413   3.004   1.732   2.014
 1469SOL     OW 4414   2.064   0.285   3.360
 1469SOL    HW1 4415   1.984   0.345   3.347
 1469SOL    HW2 4416   2.054   0.236   3.446
 1470SOL     OW 4417   3.494   1.377   1.943
 1470SOL    HW1 4418   3.462   1.471   1.933
 1470SOL    HW2 4419   3.418   1.314   1.931
 1471SOL     OW 4420   2.326   1.743   2.185
 1471SOL    HW1 4421   2.359   1.782   2.271
 1471SOL    HW2 4422   2.402   1.736   2.120
 1472SOL     OW 4423   3.262   0.107   2.288
 1472SOL    HW1 4424   3.238   0.070   2.198
 1472SOL    HW2 4425   3.361   0.123   2.292
 1473SOL     OW 4426   2.111   1.785   3.103
 1473SOL    HW1 4427   2.168   1.720   3.153
 1473SOL    HW2 4428   2.095   1.752   3.010
 1474SOL     OW 4429   2.802   1.698   2.766
 1474SOL    HW1 4430   2.882   1.641   2.787
 1474SOL    HW2 4431   2.753   1.658   2.689
 1475SOL     OW 4432   2.244   0.700   2.342
 1475SOL    HW1 4433   2.289   0.610   2.339
 1475SOL    HW2 4434   2.150   0.689   2.375
 1476SOL     OW 4435   3.409   0.222   3.591
 1476SOL    HW1 4436   3.404   0.259   3.683
 1476SOL    HW2 4437   3.337   0.153   3.579
 1477SOL     OW 4438   2.476   0.122   1.979
 1477SOL    HW1 4439   2.574   0.100   1.986
 1477SOL    HW2 4440   2.445   0.105   1.886
 1478SOL     OW 4441   2.643   0.264   3.611
 1478SOL    HW1 4442   2.710   0.203   3.654
 1478SOL    HW2 4443   2.570   0.283   3.676
 1479SOL     OW 4444   2.750   1.514   3.057
 1479SOL    HW1 4445   2.727   1.489   2.963
 1479SOL    HW2 4446   2.811   1.445   3.096
 1480SOL     OW 4447   3.213   0.590   3.295
 1480SOL    HW1 4448   3.241   0.547   3.380
 1480SOL    HW2 4449   3.238   0.686   3.296
 1481SOL     OW 4450   2.665   1.402   2.786
 1481SOL    HW1 4451   2.755   1.416   2.744
 1481SOL    HW2 4452   2.594   1.404   2.715
 1482SOL     OW 4453   2.784   0.503   2.761
 1482SOL    HW1 4454   2.759   0.494   2.665
 1482SOL    HW2 4455   2.832   0.421   2.792
 1483SOL     OW 4456   2.401   0.064   2.374
 1483SOL    HW1 4457   2.320   0.065   2.432
 1483SOL    HW2 4458   2.404   0.147   2.319
 1484SOL     OW 4459   3.296   1.188   1.903
 1484SOL    HW1 4460   3.328   1.112   1.960
 1484SOL    HW2 4461   3.204   1.215   1.933
 1485SOL     OW 4462   2.159   0.035   2.033
 1485SOL    HW1 4463   2.208   0.119   2.012
 1485SOL    HW2 4464   2.221  -0.030   2.078
 1486SOL     OW 4465   2.797   0.236   2.342
 1486SOL    HW1 4466   2.749   0.277   2.264
 1486SOL    HW2 4467   2.896   0.234   2.323
 1487SOL     OW 4468   2.938   0.683   3.326
 1487SOL    HW1 4469   2.858   0.622   3.329
 1487SOL    HW2 4470   3.019   0.630   3.302
 1488SOL     OW 4471   3.089   1.570   2.655
 1488SOL    HW1 4472   3.110   1.644   2.590
 1488SOL    HW2 4473   3.157   1.570   2.728
 1489SOL     OW 4474   2.321   1.152   2.603
 1489SOL    HW1 4475   2.250   1.125   2.668
 1489SOL    HW2 4476   2.295   1.124   2.510
 1490SOL     OW 4477   3.133   1.797   2.453
 1490SOL    HW1 4478   3.177   1.861   2.389
 1490SOL    HW2 4479   3.083   1.849   2.523
 1491SOL     OW 4480   2.894   0.549   1.878
 1491SOL    HW1 4481   2.853   0.631   1.839
 1491SOL    HW2 4482   2.958   0.575   1.951
 1492SOL     OW 4483   1.940   0.556   3.248
 1492SOL    HW1 4484   2.032   0.555   3.207
 1492SOL    HW2 4485   1.934   0.630   3.315
 1493SOL     OW 4486   2.423   0.222   3.009
 1493SOL    HW1 4487   2.461   0.138   3.046
 1493SOL    HW2 4488   2.335   0.241   3.053
 1494SOL     OW 4489   2.728   0.454   2.504
 1494SOL    HW1 4490   2.696   0.526   2.442
 1494SOL    HW2 4491   2.752   0.373   2.451
 1495SOL     OW 4492   2.879   0.039   2.615
 1495SOL    HW1 4493   2.807   0.044   2.546
 1495SOL    HW2 4494   2.855  -0.030   2.684
 1496SOL     OW 4495   3.291   1.173   2.729
 1496SOL    HW1 4496   3.236   1.089   2.722
 1496SOL    HW2 4497   3.317   1.202   2.637
 1497SOL     OW 4498   3.328   0.590   2.854
 1497SOL    HW1 4499   3.298   0.495   2.861
 1497SOL    HW2 4500   3.401   0.606   2.920
 1498SOL     OW 4501   3.719   0.833   2.239
 1498SOL    HW1 4502   3.761   0.769   2.303
 1498SOL    HW2 4503   3.681   0.782   2.161
 1499SOL     OW 4504   2.350   1.385   2.036
 1499SOL    HW1 4505   2.263   1.370   2.083
 1499SOL    HW2 4506   2.333   1.411   1.941
 1500SOL     OW 4507   3.526   1.280   2.519
 1500SOL    HW1 4508   3.625   1.288   2.533
 1500SOL    HW2 4509   3.481   1.364   2.550
 1501SOL     OW 4510   3.252   0.575   1.940
 1501SOL    HW1 4511   3.198   0.554   2.021
 1501SOL    HW2 4512   3.343   0.534   1.949
 1502SOL     OW 4513   2.389   0.256   2.190
 1502SOL    HW1 4514   2.416   0.197   2.115
 1502SOL    HW2 4515   2.389   0.351   2.159
 1503SOL     OW 4516   3.616   1.223   3.450
 1503SOL    HW1 4517   3.707   1.184   3.437
 1503SOL    HW2 4518   3.624   1.319   3.474
 1504SOL     OW 4519   2.926   1.347   3.202
 1504SOL    HW1 4520   2.846   1.324   3.257
 1504SOL    HW2 4521   3.009   1.321   3.251
 1505SOL     OW 4522   3.454   1.629   3.487
 1505SOL    HW1 4523   3.481   1.663   3.397
 1505SOL    HW2 4524   3.533   1.591   3.533
 1506SOL     OW 4525   2.973   1.195   2.962
 1506SOL    HW1 4526   2.933   1.239   3.043
 1506SOL    HW2 4527   2.932   1.232   2.879
 1507SOL     OW 4528   3.500   1.099   2.941
 1507SOL    HW1 4529   3.505   1.180   3.000
 1507SOL    HW2 4530   3.414   1.101   2.890
 1508SOL     OW 4531   2.777   0.089   3.264
 1508SOL    HW1 4532   2.802   0.069   3.169
 1508SOL    HW2 4533   2.849   0.145   3.306
 1509SOL     OW 4534   2.842   1.116   3.581
 1509SOL    HW1 4535   2.743   1.122   3.591
 1509SOL    HW2 4536   2.865   1.036   3.525
 1510SOL     OW 4537   2.567   1.050   2.230
 1510SOL    HW1 4538   2.553   1.057   2.329
 1510SOL    HW2 4539   2.651   0.999   2.212
 1511SOL     OW 4540   2.272   0.813   3.113
 1511SOL    HW1 4541   2.358   0.825   3.163
 1511SOL    HW2 4542   2.230   0.726   3.140
 1512SOL     OW 4543   3.136   0.386   3.124
 1512SOL    HW1 4544   3.157   0.460   3.188
 1512SOL    HW2 4545   3.047   0.403   3.081
 1513SOL     OW 4546   1.926   1.564   3.193
 1513SOL    HW1 4547   1.880   1.646   3.159
 1513SOL    HW2 4548   2.024   1.583   3.202
 1514SOL     OW 4549   2.229   1.100   2.363
 1514SOL    HW1 4550   2.222   1.183   2.307
 1514SOL    HW2 4551   2.233   1.020   2.303
 1515SOL     OW 4552   2.428   0.537   2.727
 1515SOL    HW1 4553   2.440   0.603   2.653
 1515SOL    HW2 4554   2.474   0.571   2.810
 1516SOL     OW 4555   3.114   1.348   2.250
 1516SOL    HW1 4556   3.164   1.425   2.290
 1516SOL    HW2 4557   3.019   1.350   2.282
 1517SOL     OW 4558   3.134   1.445   3.004
 1517SOL    HW1 4559   3.181   1.458   3.091
 1517SOL    HW2 4560   3.068   1.371   3.013
 1518SOL     OW 4561   3.444   0.639   2.334
 1518SOL    HW1 4562   3.413   0.700   2.407
 1518SOL    HW2 4563   3.494   0.691   2.265
 1519SOL     OW 4564   2.216   1.510   3.191
 1519SOL    HW1 4565   2.195   1.466   3.104
 1519SOL    HW2 4566   2.313   1.536   3.194
 1520SOL     OW 4567   2.264   0.751   3.460
 1520SOL    HW1 4568   2.332   0.806   3.413
 1520SOL    HW2 4569   2.304   0.663   3.487
 1521SOL     OW 4570   3.449   0.779   3.532
 1521SOL    HW1 4571   3.357   0.817   3.527
 1521SOL    HW2 4572   3.509   0.826   3.467
 1522SOL     OW 4573   2.875   0.105   3.632
 1522SOL    HW1 4574   2.881   0.190   3.580
 1522SOL    HW2 4575   2.907   0.029   3.575
 1523SOL     OW 4576   2.366   0.050   3.602
 1523SOL    HW1 4577   2.324  -0.007   3.532
 1523SOL    HW2 4578   2.300   0.119   3.634
 1524SOL     OW 4579   2.435   0.870   2.891
 1524SOL    HW1 4580   2.479   0.959   2.882
 1524SOL    HW2 4581   2.372   0.870   2.968
 1525SOL     OW 4582   3.222   0.862   2.907
 1525SOL    HW1 4583   3.147   0.862   2.841
 1525SOL    HW2 4584   3.259   0.770   2.916
 1526SOL     OW 4585   3.071   0.525   2.137
 1526SOL    HW1 4586   3.084   0.441   2.191
 1526SOL    HW2 4587   3.042   0.599   2.197
 1527SOL     OW 4588   2.169   0.213   3.093
 1527SOL    HW1 4589   2.146   0.250   3.183
 1527SOL    HW2 4590   2.139   0.118   3.087
 1528SOL     OW 4591   1.899   1.310   3.144
 1528SOL    HW1 4592   1.952   1.261   3.212
 1528SOL    HW2 4593   1.921   1.408   3.149
 1529SOL     OW 4594   2.594   0.634   2.926
 1529SOL    HW1 4595   2.653   0.608   2.850
 1529SOL    HW2 4596   2.566   0.730   2.915
 1530SOL     OW 4597   3.590   0.935   3.716
 1530SOL    HW1 4598   3.544   0.928   3.627
 1530SOL    HW2 4599   3.528   0.979   3.782
 1531SOL     OW 4600   2.169   0.063   2.480
 1531SOL    HW1 4601   2.158   0.157   2.513
 1531SOL    HW2 4602   2.164   0.000   2.557
 1532SOL     OW 4603   3.484   0.367   2.236
 1532SOL    HW1 4604   3.486   0.291   2.300
 1532SOL    HW2 4605   3.436   0.444   2.276
 1533SOL     OW 4606   2.885   0.766   2.828
 1533SOL    HW1 4607   2.900   0.787   2.924
 1533SOL    HW2 4608   2.855   0.671   2.819
 1534SOL     OW 4609   2.842   1.573   3.562
 1534SOL    HW1 4610   2.822   1.617   3.474
 1534SOL    HW2 4611   2.881   1.482   3.546
 1535SOL     OW 4612   3.721   1.518   3.467
 1535SOL    HW1 4613   3.735   1.545   3.372
 1535SOL    HW2 4614   3.804   1.540   3.520
 1536SOL     OW 4615   2.212   0.898   3.666
 1536SOL    HW1 4616   2.288   0.942   3.714
 1536SOL    HW2 4617   2.247   0.851   3.584
 1537SOL     OW 4618   3.402   0.274   1.987
 1537SOL    HW1 4619   3.341   0.199   2.010
 1537SOL    HW2 4620   3.424   0.326   2.070
 1538SOL     OW 4621   3.165   0.838   1.904
 1538SOL    HW1 4622   3.199   0.745   1.919
 1538SOL    HW2 4623   3.183   0.865   1.809
 1539SOL     OW 4624   2.930   1.333   2.711
 1539SOL    HW1 4625   2.937   1.249   2.656
 1539SOL    HW2 4626   2.992   1.402   2.675
 1540SOL     OW 4627   2.181   0.810   2.811
 1540SOL    HW1 4628   2.274   0.846   2.816
 1540SOL    HW2 4629   2.175   0.725   2.863
 1541SOL     OW 4630   2.201   0.509   2.868
 1541SOL    HW1 4631   2.149   0.426   2.851
 1541SOL    HW2 4632   2.278   0.514   2.804
 1542SOL     OW 4633   3.000   0.380   3.540
 1542SOL    HW1 4634   2.955   0.443   3.604
 1542SOL    HW2 4635   3.093   0.411   3.523
 1543SOL     OW 4636   3.022   0.207   3.339
 1543SOL    HW1 4637   3.022   0.271   3.416
 1543SOL    HW2 4638   3.050   0.255   3.256
 1544SOL     OW 4639   1.870   1.326   2.062
 1544SOL    HW1 4640   1.777   1.347   2.031
 1544SOL    HW2 4641   1.880   1.227   2.075
 1545SOL     OW 4642   1.950   1.801   2.789
 1545SOL    HW1 4643   1.908   1.715   2.762
 1545SOL    HW2 4644   2.044   1.804   2.755
 1546SOL     OW 4645   2.366   1.568   2.772
 1546SOL    HW1 4646   2.432   1.642   2.781
 1546SOL    HW2 4647   2.410   1.489   2.730
 1547SOL     OW 4648   2.864   0.796   3.100
 1547SOL    HW1 4649   2.905   0.764   3.186
 1547SOL    HW2 4650   2.768   0.769   3.097
 1548SOL     OW 4651   1.902   0.544   2.976
 1548SOL    HW1 4652   1.987   0.511   2.935
 1548SOL    HW2 4653   1.915   0.559   3.074
 1549SOL     OW 4654   2.051   0.520   3.584
 1549SOL    HW1 4655   2.110   0.480   3.514
 1549SOL    HW2 4656   1.993   0.591   3.543
 1550SOL     OW 4657   3.231   0.950   3.522
 1550SOL    HW1 4658   3.270   1.039   3.542
 1550SOL    HW2 4659   3.241   0.930   3.425
 1551SOL     OW 4660   2.677   0.572   2.187
 1551SOL    HW1 4661   2.684   0.483   2.141
 1551SOL    HW2 4662   2.583   0.606   2.179
 1552SOL     OW 4663   3.519   0.604   3.068
 1552SOL    HW1 4664   3.481   0.535   3.130
 1552SOL    HW2 4665   3.601   0.568   3.024
 1553SOL     OW 4666   2.114   1.564   3.606
 1553SOL    HW1 4667   2.084   1.621   3.682
 1553SOL    HW2 4668   2.107   1.467   3.632
 1554SOL     OW 4669   2.533   0.464   3.131
 1554SOL    HW1 4670   2.499   0.375   3.101
 1554SOL    HW2 4671   2.559   0.518   3.051
 1555SOL     OW 4672   2.792   1.678   3.327
 1555SOL    HW1 4673   2.768   1.660   3.232
 1555SOL    HW2 4674   2.822   1.772   3.337
 1556SOL     OW 4675   2.335   0.500   2.053
 1556SOL    HW1 4676   2.396   0.580   2.057
 1556SOL    HW2 4677   2.240   0.531   2.060
 1557SOL     OW 4678   2.021   1.137   3.328
 1557SOL    HW1 4679   2.043   1.076   3.404
 1557SOL    HW2 4680   2.031   1.088   3.242
 1558SOL     OW 4681   3.209   1.059   3.096
 1558SOL    HW1 4682   3.233   0.996   3.022
 1558SOL    HW2 4683   3.119   1.099   3.078
 1559SOL     OW 4684   3.164   0.855   2.171
 1559SOL    HW1 4685   3.078   0.824   2.213
 1559SOL    HW2 4686   3.160   0.841   2.072
 1560SOL     OW 4687   3.621   1.747   3.016
 1560SOL    HW1 4688   3.682   1.777   2.943
 1560SOL    HW2 4689   3.583   1.658   2.994
 1561SOL     OW 4690   3.114   1.731   2.990
 1561SOL    HW1 4691   3.198   1.736   2.936
 1561SOL    HW2 4692   3.091   1.635   3.008
 1562SOL     OW 4693   1.945   1.258   2.884
 1562SOL    HW1 4694   1.940   1.257   2.984
 1562SOL    HW2 4695   1.862   1.217   2.846
 1563SOL     OW 4696   2.550   1.662   3.578
 1563SOL    HW1 4697   2.494   1.743   3.587
 1563SOL    HW2 4698   2.602   1.666   3.492
 1564SOL     OW 4699   3.588   0.135   2.385
 1564SOL    HW1 4700   3.661   0.118   2.318
 1564SOL    HW2 4701   3.557   0.048   2.423
 1565SOL     OW 4702   3.250   1.573   2.339
 1565SOL    HW1 4703   3.317   1.585   2.265
 1565SOL    HW2 4704   3.210   1.662   2.362
 1566SOL     OW 4705   1.992   1.794   3.713
 1566SOL    HW1 4706   1.951   1.720   3.766
 1566SOL    HW2 4707   2.056   1.845   3.771
 1567SOL     OW 4708   3.142   0.927   2.534
 1567SOL    HW1 4709   3.202   0.846   2.536
 1567SOL    HW2 4710   3.182   0.996   2.474
 1568SOL     OW 4711   2.692   1.273   3.284
 1568SOL    HW1 4712   2.687   1.306   3.379
 1568SOL    HW2 4713   2.606   1.292   3.238
 1569SOL     OW 4714   2.534   1.616   2.016
 1569SOL    HW1 4715   2.543   1.626   1.917
 1569SOL    HW2 4716   2.494   1.527   2.037
 1570SOL     OW 4717   3.512   1.720   3.256
 1570SOL    HW1 4718   3.565   1.730   3.172
 1570SOL    HW2 4719   3.485   1.810   3.290
 1571SOL     OW 4720   3.703   0.175   2.825
 1571SOL    HW1 4721   3.742   0.090   2.789
 1571SOL    HW2 4722   3.605   0.177   2.806
 1572SOL     OW 4723   2.125   0.326   2.582
 1572SOL    HW1 4724   2.046   0.377   2.548
 1572SOL    HW2 4725   2.116   0.311   2.680
 1573SOL     OW 4726   3.056   1.612   1.893
 1573SOL    HW1 4727   3.062   1.519   1.930
 1573SOL    HW2 4728   2.997   1.612   1.813
 1574SOL     OW 4729   2.684   1.002   3.234
 1574SOL    HW1 4730   2.724   1.001   3.142
 1574SOL    HW2 4731   2.694   1.094   3.274
 1575SOL     OW 4732   2.778   0.910   2.153
 1575SOL    HW1 4733   2.841   0.948   2.085
 1575SOL    HW2 4734   2.818   0.827   2.192
 1576SOL     OW 4735   3.366   1.607   1.906
 1576SOL    HW1 4736   3.274   1.644   1.913
 1576SOL    HW2 4737   3.404   1.627   1.816
 1577SOL     OW 4738   2.234   1.288   3.352
 1577SOL    HW1 4739   2.221   1.381   3.318
 1577SOL    HW2 4740   2.150   1.236   3.339
 1578SOL     OW 4741   3.476   1.292   3.151
 1578SOL    HW1 4742   3.536   1.295   3.231
 1578SOL    HW2 4743   3.401   1.356   3.164
 1579SOL     OW 4744   2.901   1.098   2.558
 1579SOL    HW1 4745   2.831   1.051   2.612
 1579SOL    HW2 4746   2.960   1.030   2.515
 1580SOL     OW 4747   2.876   0.236   2.833
 1580SOL    HW1 4748   2.868   0.200   2.740
 1580SOL    HW2 4749   2.874   0.160   2.898
 1581SOL     OW 4750   2.452   1.487   2.353
 1581SOL    HW1 4751   2.494   1.429   2.283
 1581SOL    HW2 4752   2.408   1.566   2.309
 1582SOL     OW 4753   3.571   0.385   3.243
 1582SOL    HW1 4754   3.644   0.454   3.247
 1582SOL    HW2 4755   3.599   0.310   3.184
 1583SOL     OW 4756   2.117   1.348   2.152
 1583SOL    HW1 4757   2.021   1.349   2.125
 1583SOL    HW2 4758   2.129   1.401   2.236
 1584SOL     OW 4759   1.967   1.013   3.588
 1584SOL    HW1 4760   1.890   0.980   3.642
 1584SOL    HW2 4761   2.052   0.983   3.630
 1585SOL     OW 4762   2.534   0.203   3.351
 1585SOL    HW1 4763   2.624   0.187   3.311
 1585SOL    HW2 4764   2.542   0.208   3.450
 1586SOL     OW 4765   1.937   0.345   1.895
 1586SOL    HW1 4766   1.845   0.317   1.866
 1586SOL    HW2 4767   1.968   0.422   1.839
 1587SOL     OW 4768   3.302   0.856   3.260
 1587SOL    HW1 4769   3.245   0.908   3.197
 1587SOL    HW2 4770   3.398   0.868   3.236
 1588SOL     OW 4771   1.934   0.166   2.180
 1588SOL    HW1 4772   1.917   0.249   2.126
 1588SOL    HW2 4773   2.024   0.129   2.158
 1589SOL     OW 4774   3.045   1.335   1.981
 1589SOL    HW1 4775   2.946   1.324   1.983
 1589SOL    HW2 4776   3.079   1.350   2.074
 1590SOL     OW 4777   2.475   0.842   3.293
 1590SOL    HW1 4778   2.531   0.923   3.276
 1590SOL    HW2 4779   2.534   0.762   3.296
 1591SOL     OW 4780   3.355   1.767   2.821
 1591SOL    HW1 4781   3.388   1.831   2.752
 1591SOL    HW2 4782   3.421   1.761   2.896
 1592SOL     OW 4783   2.578   0.565   3.570
 1592SOL    HW1 4784   2.597   0.630   3.644
 1592SOL    HW2 4785   2.638   0.485   3.579
 1593SOL     OW 4786   3.312   1.220   3.495
 1593SOL    HW1 4787   3.303   1.210   3.594
 1593SOL    HW2 4788   3.408   1.213   3.469
 1594SOL     OW 4789   2.252   1.741   3.422
 1594SOL    HW1 4790   2.161   1.782   3.420
 1594SOL    HW2 4791   2.245   1.647   3.454
 1595SOL     OW 4792   3.536   0.883   3.116
 1595SOL    HW1 4793   3.509   0.794   3.079
 1595SOL    HW2 4794   3.537   0.951   3.043
 1596SOL     OW 4795   3.087   0.325   2.311
 1596SOL    HW1 4796   3.152   0.251   2.300
 1596SOL    HW2 4797   3.107   0.375   2.395
 1597SOL     OW 4798   2.456   0.745   2.514
 1597SOL    HW1 4799   2.506   0.830   2.495
 1597SOL    HW2 4800   2.368   0.747   2.466
 1598SOL     OW 4801   3.639   0.342   3.504
 1598SOL    HW1 4802   3.622   0.373   3.410
 1598SOL    HW2 4803   3.555   0.305   3.542
 1599SOL     OW 4804   3.592   0.934   3.379
 1599SOL    HW1 4805   3.630   1.025   3.394
 1599SOL    HW2 4806   3.584   0.917   3.280
 1600SOL     OW 4807   2.721   1.374   1.878
 1600SOL    HW1 4808   2.675   1.389   1.966
 1600SOL    HW2 4809   2.765   1.459   1.848
 1601SOL     OW 4810   2.523   1.790   2.815
 1601SOL    HW1 4811   2.477   1.878   2.802
 1601SOL    HW2 4812   2.622   1.802   2.808
 1602SOL     OW 4813   2.721   0.956   2.723
 1602SOL    HW1 4814   2.775   0.887   2.771
 1602SOL    HW2 4815   2.689   1.025   2.789
 1603SOL     OW 4816   2.945   0.984   1.949
 1603SOL    HW1 4817   2.922   1.037   1.867
 1603SOL    HW2 4818   3.026   0.928   1.930
 1604SOL     OW 4819   3.723   1.569   2.713
 1604SOL    HW1 4820   3.652   1.557   2.643
 1604SOL    HW2 4821   3.724   1.490   2.773
 1605SOL     OW 4822   2.083   1.314   3.706
 1605SOL    HW1 4823   2.018   1.241   3.685
 1605SOL    HW2 4824   2.087   1.328   3.804
 1606SOL     OW 4825   1.941   1.240   2.515
 1606SOL    HW1 4826   1.940   1.193   2.603
 1606SOL    HW2 4827   2.023   1.212   2.464
 1607SOL     OW 4828   2.534   1.391   3.486
 1607SOL    HW1 4829   2.456   1.341   3.524
 1607SOL    HW2 4830   2.531   1.486   3.517
 1608SOL     OW 4831   3.686   0.192   3.089
 1608SOL    HW1 4832   3.682   0.102   3.133
 1608SOL    HW2 4833   3.689   0.181   2.990
 1609SOL     OW 4834   2.290   0.424   2.382
 1609SOL    HW1 4835   2.320   0.352   2.320
 1609SOL    HW2 4836   2.251   0.384   2.465
 1610SOL     OW 4837   3.567   1.487   2.966
 1610SOL    HW1 4838   3.474   1.462   2.939
 1610SOL    HW2 4839   3.593   1.437   3.048
 1611SOL     OW 4840   2.179   0.547   3.142
 1611SOL    HW1 4841   2.217   0.488   3.214
 1611SOL    HW2 4842   2.219   0.521   3.054
 1612SOL     OW 4843   2.674   1.586   2.549
 1612SOL    HW1 4844   2.706   1.596   2.455
 1612SOL    HW2 4845   2.595   1.524   2.551
 1613SOL     OW 4846   3.286   0.214   2.974
 1613SOL    HW1 4847   3.338   0.149   3.029
 1613SOL    HW2 4848   3.237   0.277   3.035
 1614SOL     OW 4849   2.863   0.034   3.016
 1614SOL    HW1 4850   2.800  -0.038   2.985
 1614SOL    HW2 4851   2.956  -0.002   3.016
 1615SOL     OW 4852   2.632   1.330   2.163
 1615SOL    HW1 4853   2.586   1.243   2.180
 1615SOL    HW2 4854   2.723   1.327   2.204
 1616SOL     OW 4855   2.480   1.567   3.146
 1616SOL    HW1 4856   2.475   1.649   3.203
 1616SOL    HW2 4857   2.569   1.564   3.101
 1617SOL     OW 4858   3.214   0.052   2.030
 1617SOL    HW1 4859   3.249   0.011   1.946
 1617SOL    HW2 4860   3.124   0.014   2.050
 1618SOL     OW 4861   3.162   0.453   2.553
 1618SOL    HW1 4862   3.103   0.533   2.557
 1618SOL    HW2 4863   3.177   0.418   2.646
 1619SOL     OW 4864   3.455   0.221   2.744
 1619SOL    HW1 4865   3.371   0.220   2.798
 1619SOL    HW2 4866   3.457   0.304   2.688
 1620SOL     OW 4867   1.901   1.077   2.162
 1620SOL    HW1 4868   2.000   1.066   2.153
 1620SOL    HW2 4869   1.861   0.991   2.194
 1621SOL     OW 4870   2.737   1.646   2.199
 1621SOL    HW1 4871   2.660   1.611   2.145
 1621SOL    HW2 4872   2.705   1.717   2.261
 1622SOL     OW 4873   2.092   0.628   3.837
 1622SOL    HW1 4874   1.999   0.626   3.874
 1622SOL    HW2 4875   2.093   0.589   3.745
 1623SOL     OW 4876   3.617   0.607   3.955
 1623SOL    HW1 4877   3.605   0.594   3.856
 1623SOL    HW2 4878   3.587   0.526   4.004
 1624SOL     OW 4879   2.093   1.713   4.207
 1624SOL    HW1 4880   2.127   1.790   4.261
 1624SOL    HW2 4881   2.137   1.713   4.117
 1625SOL     OW 4882   2.092   1.434   4.262
 1625SOL    HW1 4883   2.066   1.530   4.262
 1625SOL    HW2 4884   2.021   1.380   4.307
 1626SOL     OW 4885   2.468   0.964   3.847
 1626SOL    HW1 4886   2.475   1.048   3.793
 1626SOL    HW2 4887   2.514   0.977   3.935
 1627SOL     OW 4888   1.984   0.643   4.287
 1627SOL    HW1 4889   1.939   0.555   4.304
 1627SOL    HW2 4890   1.983   0.697   4.371
 1628SOL     OW 4891   3.704   1.767   4.083
 1628SOL    HW1 4892   3.758   1.738   4.163
 1628SOL    HW2 4893   3.734   1.857   4.054
 1629SOL     OW 4894   1.889   1.596   3.841
 1629SOL    HW1 4895   1.870   1.500   3.862
 1629SOL    HW2 4896   1.856   1.654   3.916
 1630SOL     OW 4897   3.551   0.922   4.336
 1630SOL    HW1 4898   3.646   0.893   4.344
 1630SOL    HW2 4899   3.543   0.987   4.261
 1631SOL     OW 4900   3.503   1.108   4.156
 1631SOL    HW1 4901   3.589   1.110   4.104
 1631SOL    HW2 4902   3.517   1.155   4.244
 1632SOL     OW 4903   2.475   1.365   4.450
 1632SOL    HW1 4904   2.426   1.278   4.459
 1632SOL    HW2 4905   2.452   1.408   4.363
 1633SOL     OW 4906   2.671   0.004   4.226
 1633SOL    HW1 4907   2.711   0.095   4.217
 1633SOL    HW2 4908   2.571   0.012   4.232
 1634SOL     OW 4909   3.387   0.999   3.914
 1634SOL    HW1 4910   3.324   0.923   3.927
 1634SOL    HW2 4911   3.435   1.017   4.000
 1635SOL     OW 4912   3.328   1.417   4.677
 1635SOL    HW1 4913   3.269   1.423   4.757
 1635SOL    HW2 4914   3.313   1.329   4.631
 1636SOL     OW 4915   2.460   0.729   3.994
 1636SOL    HW1 4916   2.484   0.798   3.926
 1636SOL    HW2 4917   2.382   0.762   4.048
 1637SOL     OW 4918   3.438   1.662   4.031
 1637SOL    HW1 4919   3.527   1.708   4.034
 1637SOL    HW2 4920   3.417   1.638   3.936
 1638SOL     OW 4921   2.903   0.701   4.153
 1638SOL    HW1 4922   2.929   0.697   4.249
 1638SOL    HW2 4923   2.818   0.650   4.139
 1639SOL     OW 4924   1.938   0.811   4.513
 1639SOL    HW1 4925   2.037   0.799   4.522
 1639SOL    HW2 4926   1.914   0.906   4.534
 1640SOL     OW 4927   2.727   0.348   3.919
 1640SOL    HW1 4928   2.786   0.411   3.870
 1640SOL    HW2 4929   2.746   0.254   3.890
 1641SOL     OW 4930   3.224   1.144   4.269
 1641SOL    HW1 4931   3.307   1.115   4.221
 1641SOL    HW2 4932   3.175   1.211   4.213
 1642SOL     OW 4933   2.870   1.456   4.201
 1642SOL    HW1 4934   2.824   1.528   4.149
 1642SOL    HW2 4935   2.866   1.476   4.299
 1643SOL     OW 4936   2.213   1.801   4.577
 1643SOL    HW1 4937   2.263   1.715   4.583
 1643SOL    HW2 4938   2.278   1.878   4.574
 1644SOL     OW 4939   2.183   0.943   3.966
 1644SOL    HW1 4940   2.265   0.982   3.924
 1644SOL    HW2 4941   2.156   0.861   3.917
 1645SOL     OW 4942   2.973   1.776   3.961
 1645SOL    HW1 4943   2.913   1.714   4.011
 1645SOL    HW2 4944   3.004   1.732   3.876
 1646SOL     OW 4945   3.494   1.377   3.805
 1646SOL    HW1 4946   3.462   1.471   3.795
 1646SOL    HW2 4947   3.418   1.314   3.793
 1647SOL     OW 4948   2.326   1.743   4.047
 1647SOL    HW1 4949   2.359   1.782   4.133
 1647SOL    HW2 4950   2.402   1.736   3.982
 1648SOL     OW 4951   3.262   0.107   4.150
 1648SOL    HW1 4952   3.238   0.070   4.060
 1648SOL    HW2 4953   3.361   0.123   4.154
 1649SOL     OW 4954   2.244   0.700   4.204
 1649SOL    HW1 4955   2.289   0.610   4.201
 1649SOL    HW2 4956   2.150   0.689   4.237
 1650SOL     OW 4957   2.476   0.122   3.841
 1650SOL    HW1 4958   2.574   0.100   3.848
 1650SOL    HW2 4959   2.445   0.105   3.748
 1651SOL     OW 4960   2.401   0.064   4.236
 1651SOL    HW1 4961   2.320   0.065   4.294
 1651SOL    HW2 4962   2.404   0.147   4.181
 1652SOL     OW 4963   3.296   1.188   3.765
 1652SOL    HW1 4964   3.328   1.112   3.822
 1652SOL    HW2 4965   3.204   1.215   3.795
 1653SOL     OW 4966   2.159   0.035   3.895
 1653SOL    HW1 4967   2.208   0.119   3.874
 1653SOL    HW2 4968   2.221  -0.030   3.940
 1654SOL     OW 4969   2.797   0.236   4.204
 1654SOL    HW1 4970   2.749   0.277   4.126
 1654SOL    HW2 4971   2.896   0.234   4.185
 1655SOL     OW 4972   2.321   1.152   4.465
 1655SOL    HW1 4973   2.250   1.125   4.530
 1655SOL    HW2 4974   2.295   1.124   4.372
 1656SOL     OW 4975   3.133   1.797   4.315
 1656SOL    HW1 4976   3.177   1.861   4.251
 1656SOL    HW2 4977   3.083   1.849   4.385
 1657SOL     OW 4978   2.894   0.549   3.740
 1657SOL    HW1 4979   2.853   0.631   3.701
 1657SOL    HW2 4980   2.958   0.575   3.813
 1658SOL     OW 4981   2.728   0.454   4.366
 1658SOL    HW1 4982   2.696   0.526   4.304
 1658SOL    HW2 4983   2.752   0.373   4.313
 1659SOL     OW 4984   3.719   0.833   4.101
 1659SOL    HW1 4985   3.761   0.769   4.165
 1659SOL    HW2 4986   3.681   0.782   4.023
 1660SOL     OW 4987   2.350   1.385   3.898
 1660SOL    HW1 4988   2.263   1.370   3.945
 1660SOL    HW2 4989   2.333   1.411   3.803
 1661SOL     OW 4990   3.252   0.575   3.802
 1661SOL    HW1 4991   3.198   0.554   3.883
 1661SOL    HW2 4992   3.343   0.534   3.811
 1662SOL     OW 4993   2.389   0.256   4.052
 1662SOL    HW1 4994   2.416   0.197   3.977
 1662SOL    HW2 4995   2.389   0.351   4.021
 1663SOL     OW 4996   2.567   1.050   4.092
 1663SOL    HW1 4997   2.553   1.057   4.191
 1663SOL    HW2 4998   2.651   0.999   4.074
 1664SOL     OW 4999   2.229   1.100   4.225
 1664SOL    HW1 5000   2.222   1.183   4.169
 1664SOL    HW2 5001   2.233   1.020   4.165
 1665SOL     OW 5002   3.114   1.348   4.112
 1665SOL    HW1 5003   3.164   1.425   4.152
 1665SOL    HW2 5004   3.019   1.350   4.144
 1666SOL     OW 5005   3.444   0.639   4.196
 1666SOL    HW1 5006   3.413   0.700   4.269
 1666SOL    HW2 5007   3.494   0.691   4.127
 1667SOL     OW 5008   3.071   0.525   3.999
 1667SOL    HW1 5009   3.084   0.441   4.053
 1667SOL    HW2 5010   3.042   0.599   4.059
 1668SOL     OW 5011   2.169   0.063   4.342
 1668SOL    HW1 5012   2.158   0.157   4.375
 1668SOL    HW2 5013   2.164   0.000   4.419
 1669SOL     OW 5014   3.484   0.367   4.098
 1669SOL    HW1 5015   3.486   0.291   4.162
 1669SOL    HW2 5016   3.436   0.444   4.138
 1670SOL     OW 5017   3.402   0.274   3.849
 1670SOL    HW1 5018   3.341   0.199   3.872
 1670SOL    HW2 5019   3.424   0.326   3.932
 1671SOL     OW 5020   3.165   0.838   3.766
 1671SOL    HW1 5021   3.199   0.745   3.781
 1671SOL    HW2 5022   3.183   0.865   3.671
 1672SOL     OW 5023   1.870   1.326   3.924
 1672SOL    HW1 5024   1.777   1.347   3.893
 1672SOL    HW2 5025   1.880   1.227   3.937
 1673SOL     OW 5026   2.677   0.572   4.049
 1673SOL    HW1 5027   2.684   0.483   4.003
 1673SOL    HW2 5028   2.583   0.606   4.041
 1674SOL     OW 5029   2.335   0.500   3.915
 1674SOL    HW1 5030   2.396   0.580   3.919
 1674SOL    HW2 5031   2.240   0.531   3.922
 1675SOL     OW 5032   3.164   0.855   4.033
 1675SOL    HW1 5033   3.078   0.824   4.075
 1675SOL    HW2 5034   3.160   0.841   3.934
 1676SOL     OW 5035   3.588   0.135   4.247
 1676SOL    HW1 5036   3.661   0.118   4.180
 1676SOL    HW2 5037   3.557   0.048   4.285
 1677SOL     OW 5038   3.250   1.573   4.201
 1677SOL    HW1 5039   3.317   1.585   4.127
 1677SOL    HW2 5040   3.210   1.662   4.224
 1678SOL     OW 5041   2.534   1.616   3.878
 1678SOL    HW1 5042   2.543   1.626   3.779
 1678SOL    HW2 5043   2.494   1.527   3.899
 1679SOL     OW 5044   3.703   0.175   4.687
 1679SOL    HW1 5045   3.742   0.090   4.651
 1679SOL    HW2 5046   3.605   0.177   4.668
 1680SOL     OW 5047   3.056   1.612   3.755
 1680SOL    HW1 5048   3.062   1.519   3.792
 1680SOL    HW2 5049   2.997   1.612   3.675
 1681SOL     OW 5050   2.778   0.910   4.015
 1681SOL    HW1 5051   2.841   0.948   3.947
 1681SOL    HW2 5052   2.818   0.827   4.054
 1682SOL     OW 5053   3.366   1.607   3.768
 1682SOL    HW1 5054   3.274   1.644   3.775
 1682SOL    HW2 5055   3.404   1.627   3.678
 1683SOL     OW 5056   2.452   1.487   4.215
 1683SOL    HW1 5057   2.494   1.429   4.145
 1683SOL    HW2 5058   2.408   1.566   4.171
 1684SOL     OW 5059   2.117   1.348   4.014
 1684SOL    HW1 5060   2.021   1.349   3.987
 1684SOL    HW2 5061   2.129   1.401   4.098
 1685SOL     OW 5062   1.937   0.345   3.757
 1685SOL    HW1 5063   1.845   0.317   3.728
 1685SOL    HW2 5064   1.968   0.422   3.701
 1686SOL     OW 5065   1.934   0.166   4.042
 1686SOL    HW1 5066   1.917   0.249   3.988
 1686SOL    HW2 5067   2.024   0.129   4.020
 1687SOL     OW 5068   3.045   1.335   3.843
 1687SOL    HW1 5069   2.946   1.324   3.845
 1687SOL    HW2 5070   3.079   1.350   3.936
 1688SOL     OW 5071   3.087   0.325   4.173
 1688SOL    HW1 5072   3.152   0.251   4.162
 1688SOL    HW2 5073   3.107   0.375   4.257
 1689SOL     OW 5074   2.456   0.745   4.376
 1689SOL    HW1 5075   2.506   0.830   4.357
 1689SOL    HW2 5076   2.368   0.747   4.328
 1690SOL     OW 5077   2.721   1.374   3.740
 1690SOL    HW1 5078   2.675   1.389   3.828
 1690SOL    HW2 5079   2.765   1.459   3.710
 1691SOL     OW 5080   2.945   0.984   3.811
 1691SOL    HW1 5081   2.922   1.037   3.729
 1691SOL    HW2 5082   3.026   0.928   3.792
 1692SOL     OW 5083   1.941   1.240   4.377
 1692SOL    HW1 5084   1.940   1.193   4.465
 1692SOL    HW2 5085   2.023   1.212   4.326
 1693SOL     OW 5086   2.290   0.424   4.244
 1693SOL    HW1 5087   2.320   0.352   4.182
 1693SOL    HW2 5088   2.251   0.384   4.327
 1694SOL     OW 5089   2.632   1.330   4.025
 1694SOL    HW1 5090   2.586   1.243   4.042
 1694SOL    HW2 5091   2.723   1.327   4.066
 1695SOL     OW 5092   3.214   0.052   3.892
 1695SOL    HW1 5093   3.249   0.011   3.808
 1695SOL    HW2 5094   3.124   0.014   3.912
 1696SOL     OW 5095   3.162   0.453   4.415
 1696SOL    HW1 5096   3.103   0.533   4.419
 1696SOL    HW2 5097   3.177   0.418   4.508
 1697SOL     OW 5098   1.901   1.077   4.024
 1697SOL    HW1 5099   2.000   1.066   4.015
 1697SOL    HW2 5100   1.861   0.991   4.056
 1698SOL     OW 5101   2.737   1.646   4.061
 1698SOL    HW1 5102   2.660   1.611   4.007
 1698SOL    HW2 5103   2.705   1.717   4.123
 1699SOL     OW 5104   2.092   2.490   0.113
 1699SOL    HW1 5105   1.999   2.488   0.150
 1699SOL    HW2 5106   2.093   2.451   0.021
 1700SOL     OW 5107   2.087   2.137   0.996
 1700SOL    HW1 5108   2.122   2.120   1.088
 1700SOL    HW2 5109   1.999   2.092   0.984
 1701SOL     OW 5110   1.881   2.230   0.647
 1701SOL    HW1 5111   1.799   2.273   0.686
 1701SOL    HW2 5112   1.853   2.157   0.584
 1702SOL     OW 5113   2.431   3.137   1.165
 1702SOL    HW1 5114   2.338   3.130   1.128
 1702SOL    HW2 5115   2.442   3.226   1.209
 1703SOL     OW 5116   3.417   3.373   0.703
 1703SOL    HW1 5117   3.360   3.357   0.784
 1703SOL    HW2 5118   3.358   3.383   0.623
 1704SOL     OW 5119   2.997   2.565   0.717
 1704SOL    HW1 5120   3.054   2.643   0.692
 1704SOL    HW2 5121   2.937   2.591   0.793
 1705SOL     OW 5122   3.617   2.469   0.231
 1705SOL    HW1 5123   3.605   2.456   0.132
 1705SOL    HW2 5124   3.587   2.388   0.280
 1706SOL     OW 5125   2.630   3.006   1.023
 1706SOL    HW1 5126   2.552   3.023   1.083
 1706SOL    HW2 5127   2.664   3.093   0.987
 1707SOL     OW 5128   2.712   2.660   1.823
 1707SOL    HW1 5129   2.708   2.736   1.888
 1707SOL    HW2 5130   2.734   2.696   1.732
 1708SOL     OW 5131   2.547   2.874   0.665
 1708SOL    HW1 5132   2.616   2.858   0.735
 1708SOL    HW2 5133   2.474   2.931   0.703
 1709SOL     OW 5134   2.548   3.023   1.803
 1709SOL    HW1 5135   2.608   3.102   1.817
 1709SOL    HW2 5136   2.462   3.054   1.762
 1710SOL     OW 5137   2.197   3.297   1.061
 1710SOL    HW1 5138   2.119   3.266   1.008
 1710SOL    HW2 5139   2.255   3.355   1.004
 1711SOL     OW 5140   3.322   3.367   1.339
 1711SOL    HW1 5141   3.346   3.461   1.365
 1711SOL    HW2 5142   3.306   3.313   1.421
 1712SOL     OW 5143   2.300   2.254   1.499
 1712SOL    HW1 5144   2.382   2.198   1.508
 1712SOL    HW2 5145   2.219   2.196   1.503
 1713SOL     OW 5146   3.465   2.309   0.737
 1713SOL    HW1 5147   3.391   2.355   0.687
 1713SOL    HW2 5148   3.516   2.377   0.790
 1714SOL     OW 5149   2.093   3.575   0.483
 1714SOL    HW1 5150   2.127   3.652   0.537
 1714SOL    HW2 5151   2.137   3.575   0.393
 1715SOL     OW 5152   2.989   3.203   1.690
 1715SOL    HW1 5153   3.036   3.203   1.778
 1715SOL    HW2 5154   2.941   3.116   1.679
 1716SOL     OW 5155   2.092   3.296   0.538
 1716SOL    HW1 5156   2.066   3.392   0.538
 1716SOL    HW2 5157   2.021   3.242   0.583
 1717SOL     OW 5158   2.102   2.953   0.886
 1717SOL    HW1 5159   2.116   2.869   0.938
 1717SOL    HW2 5160   2.047   3.017   0.941
 1718SOL     OW 5161   2.482   3.648   1.439
 1718SOL    HW1 5162   2.390   3.631   1.474
 1718SOL    HW2 5163   2.510   3.740   1.465
 1719SOL     OW 5164   2.468   2.826   0.123
 1719SOL    HW1 5165   2.475   2.910   0.069
 1719SOL    HW2 5166   2.514   2.839   0.211
 1720SOL     OW 5167   3.456   1.976   1.480
 1720SOL    HW1 5168   3.438   2.043   1.408
 1720SOL    HW2 5169   3.453   2.022   1.569
 1721SOL     OW 5170   1.984   2.505   0.563
 1721SOL    HW1 5171   1.939   2.417   0.580
 1721SOL    HW2 5172   1.983   2.559   0.647
 1722SOL     OW 5173   3.704   3.629   0.359
 1722SOL    HW1 5174   3.758   3.600   0.439
 1722SOL    HW2 5175   3.734   3.719   0.330
 1723SOL     OW 5176   1.889   3.458   0.117
 1723SOL    HW1 5177   1.870   3.362   0.138
 1723SOL    HW2 5178   1.856   3.516   0.192
 1724SOL     OW 5179   3.551   2.784   0.612
 1724SOL    HW1 5180   3.646   2.755   0.620
 1724SOL    HW2 5181   3.543   2.849   0.537
 1725SOL     OW 5182   3.503   2.970   0.432
 1725SOL    HW1 5183   3.589   2.972   0.380
 1725SOL    HW2 5184   3.517   3.017   0.520
 1726SOL     OW 5185   1.975   2.599   1.597
 1726SOL    HW1 5186   2.063   2.586   1.642
 1726SOL    HW2 5187   1.962   2.696   1.575
 1727SOL     OW 5188   2.475   3.227   0.726
 1727SOL    HW1 5189   2.426   3.140   0.735
 1727SOL    HW2 5190   2.452   3.270   0.639
 1728SOL     OW 5191   3.155   3.090   1.423
 1728SOL    HW1 5192   3.192   3.017   1.365
 1728SOL    HW2 5193   3.207   3.095   1.508
 1729SOL     OW 5194   2.671   1.866   0.502
 1729SOL    HW1 5195   2.711   1.957   0.493
 1729SOL    HW2 5196   2.571   1.874   0.508
 1730SOL     OW 5197   2.059   2.838   1.264
 1730SOL    HW1 5198   2.148   2.793   1.250
 1730SOL    HW2 5199   1.986   2.773   1.245
 1731SOL     OW 5200   3.387   2.861   0.190
 1731SOL    HW1 5201   3.324   2.785   0.203
 1731SOL    HW2 5202   3.435   2.879   0.276
 1732SOL     OW 5203   3.049   3.654   1.616
 1732SOL    HW1 5204   3.073   3.714   1.540
 1732SOL    HW2 5205   3.056   3.559   1.586
 1733SOL     OW 5206   2.179   2.113   1.801
 1733SOL    HW1 5207   2.250   2.184   1.807
 1733SOL    HW2 5208   2.091   2.152   1.829
 1734SOL     OW 5209   3.328   3.279   0.953
 1734SOL    HW1 5210   3.269   3.285   1.033
 1734SOL    HW2 5211   3.313   3.191   0.907
 1735SOL     OW 5212   3.529   3.576   0.572
 1735SOL    HW1 5213   3.488   3.553   0.484
 1735SOL    HW2 5214   3.511   3.502   0.637
 1736SOL     OW 5215   2.460   2.591   0.270
 1736SOL    HW1 5216   2.484   2.660   0.202
 1736SOL    HW2 5217   2.382   2.624   0.324
 1737SOL     OW 5218   3.143   2.207   0.944
 1737SOL    HW1 5219   3.057   2.157   0.931
 1737SOL    HW2 5220   3.205   2.153   1.000
 1738SOL     OW 5221   3.438   3.524   0.307
 1738SOL    HW1 5222   3.527   3.570   0.310
 1738SOL    HW2 5223   3.417   3.500   0.212
 1739SOL     OW 5224   2.669   2.467   1.465
 1739SOL    HW1 5225   2.622   2.464   1.554
 1739SOL    HW2 5226   2.618   2.412   1.399
 1740SOL     OW 5227   3.256   2.331   1.674
 1740SOL    HW1 5228   3.236   2.374   1.762
 1740SOL    HW2 5229   3.334   2.269   1.683
 1741SOL     OW 5230   2.835   2.752   1.572
 1741SOL    HW1 5231   2.881   2.668   1.543
 1741SOL    HW2 5232   2.779   2.786   1.497
 1742SOL     OW 5233   2.853   2.272   1.242
 1742SOL    HW1 5234   2.776   2.306   1.296
 1742SOL    HW2 5235   2.819   2.221   1.163
 1743SOL     OW 5236   2.903   2.563   0.429
 1743SOL    HW1 5237   2.929   2.559   0.525
 1743SOL    HW2 5238   2.818   2.512   0.415
 1744SOL     OW 5239   1.938   2.673   0.789
 1744SOL    HW1 5240   2.037   2.661   0.798
 1744SOL    HW2 5241   1.914   2.768   0.810
 1745SOL     OW 5242   1.992   3.683   1.571
 1745SOL    HW1 5243   1.982   3.668   1.670
 1745SOL    HW2 5244   1.906   3.719   1.535
 1746SOL     OW 5245   2.727   2.210   0.195
 1746SOL    HW1 5246   2.786   2.273   0.146
 1746SOL    HW2 5247   2.746   2.116   0.166
 1747SOL     OW 5248   3.581   2.447   1.831
 1747SOL    HW1 5249   3.555   2.536   1.795
 1747SOL    HW2 5250   3.579   2.379   1.758
 1748SOL     OW 5251   3.224   3.006   0.545
 1748SOL    HW1 5252   3.307   2.977   0.497
 1748SOL    HW2 5253   3.175   3.073   0.489
 1749SOL     OW 5254   2.412   2.058   0.885
 1749SOL    HW1 5255   2.407   2.053   0.985
 1749SOL    HW2 5256   2.414   2.154   0.856
 1750SOL     OW 5257   2.870   3.318   0.477
 1750SOL    HW1 5258   2.824   3.390   0.425
 1750SOL    HW2 5259   2.866   3.338   0.575
 1751SOL     OW 5260   2.213   3.663   0.853
 1751SOL    HW1 5261   2.263   3.577   0.859
 1751SOL    HW2 5262   2.278   3.740   0.850
 1752SOL     OW 5263   3.657   2.928   0.873
 1752SOL    HW1 5264   3.595   2.913   0.797
 1752SOL    HW2 5265   3.605   2.939   0.958
 1753SOL     OW 5266   3.089   3.412   1.506
 1753SOL    HW1 5267   3.095   3.335   1.570
 1753SOL    HW2 5268   3.037   3.386   1.426
 1754SOL     OW 5269   2.183   2.805   0.242
 1754SOL    HW1 5270   2.265   2.844   0.200
 1754SOL    HW2 5271   2.156   2.723   0.193
 1755SOL     OW 5272   3.320   2.597   0.728
 1755SOL    HW1 5273   3.315   2.532   0.803
 1755SOL    HW2 5274   3.400   2.656   0.741
 1756SOL     OW 5275   2.323   3.128   1.727
 1756SOL    HW1 5276   2.273   3.129   1.641
 1756SOL    HW2 5277   2.260   3.110   1.803
 1757SOL     OW 5278   2.973   3.638   0.237
 1757SOL    HW1 5279   2.913   3.576   0.287
 1757SOL    HW2 5280   3.004   3.594   0.152
 1758SOL     OW 5281   2.064   2.147   1.498
 1758SOL    HW1 5282   1.984   2.207   1.485
 1758SOL    HW2 5283   2.054   2.098   1.584
 1759SOL     OW 5284   3.494   3.239   0.081
 1759SOL    HW1 5285   3.462   3.333   0.071
 1759SOL    HW2 5286   3.418   3.176   0.069
 1760SOL     OW 5287   2.326   3.605   0.323
 1760SOL    HW1 5288   2.359   3.644   0.409
 1760SOL    HW2 5289   2.402   3.598   0.258
 1761SOL     OW 5290   3.262   1.969   0.426
 1761SOL    HW1 5291   3.238   1.932   0.336
 1761SOL    HW2 5292   3.361   1.985   0.430
 1762SOL     OW 5293   2.111   3.647   1.241
 1762SOL    HW1 5294   2.168   3.582   1.291
 1762SOL    HW2 5295   2.095   3.614   1.148
 1763SOL     OW 5296   2.802   3.560   0.904
 1763SOL    HW1 5297   2.882   3.503   0.925
 1763SOL    HW2 5298   2.753   3.520   0.827
 1764SOL     OW 5299   2.244   2.562   0.480
 1764SOL    HW1 5300   2.289   2.472   0.477
 1764SOL    HW2 5301   2.150   2.551   0.513
 1765SOL     OW 5302   3.409   2.084   1.729
 1765SOL    HW1 5303   3.404   2.121   1.821
 1765SOL    HW2 5304   3.337   2.015   1.717
 1766SOL     OW 5305   2.476   1.984   0.117
 1766SOL    HW1 5306   2.574   1.962   0.124
 1766SOL    HW2 5307   2.445   1.967   0.024
 1767SOL     OW 5308   2.643   2.126   1.749
 1767SOL    HW1 5309   2.710   2.065   1.792
 1767SOL    HW2 5310   2.570   2.145   1.814
 1768SOL     OW 5311   2.750   3.376   1.195
 1768SOL    HW1 5312   2.727   3.351   1.101
 1768SOL    HW2 5313   2.811   3.307   1.234
 1769SOL     OW 5314   3.213   2.452   1.433
 1769SOL    HW1 5315   3.241   2.409   1.518
 1769SOL    HW2 5316   3.238   2.548   1.434
 1770SOL     OW 5317   2.665   3.264   0.924
 1770SOL    HW1 5318   2.755   3.278   0.882
 1770SOL    HW2 5319   2.594   3.266   0.853
 1771SOL     OW 5320   2.784   2.365   0.899
 1771SOL    HW1 5321   2.759   2.356   0.803
 1771SOL    HW2 5322   2.832   2.283   0.930
 1772SOL     OW 5323   2.401   1.926   0.512
 1772SOL    HW1 5324   2.320   1.927   0.570
 1772SOL    HW2 5325   2.404   2.009   0.457
 1773SOL     OW 5326   3.296   3.050   0.041
 1773SOL    HW1 5327   3.328   2.974   0.098
 1773SOL    HW2 5328   3.204   3.077   0.071
 1774SOL     OW 5329   2.797   2.098   0.480
 1774SOL    HW1 5330   2.749   2.139   0.402
 1774SOL    HW2 5331   2.896   2.096   0.461
 1775SOL     OW 5332   2.938   2.545   1.464
 1775SOL    HW1 5333   2.858   2.484   1.467
 1775SOL    HW2 5334   3.019   2.492   1.440
 1776SOL     OW 5335   3.089   3.432   0.793
 1776SOL    HW1 5336   3.110   3.506   0.728
 1776SOL    HW2 5337   3.157   3.432   0.866
 1777SOL     OW 5338   2.321   3.014   0.741
 1777SOL    HW1 5339   2.250   2.987   0.806
 1777SOL    HW2 5340   2.295   2.986   0.648
 1778SOL     OW 5341   3.133   3.659   0.591
 1778SOL    HW1 5342   3.177   3.723   0.527
 1778SOL    HW2 5343   3.083   3.711   0.661
 1779SOL     OW 5344   2.894   2.411   0.016
 1779SOL    HW1 5345   2.853   2.493  -0.023
 1779SOL    HW2 5346   2.958   2.437   0.089
 1780SOL     OW 5347   1.940   2.418   1.386
 1780SOL    HW1 5348   2.032   2.417   1.345
 1780SOL    HW2 5349   1.934   2.492   1.453
 1781SOL     OW 5350   2.423   2.084   1.147
 1781SOL    HW1 5351   2.461   2.000   1.184
 1781SOL    HW2 5352   2.335   2.103   1.191
 1782SOL     OW 5353   2.728   2.316   0.642
 1782SOL    HW1 5354   2.696   2.388   0.580
 1782SOL    HW2 5355   2.752   2.235   0.589
 1783SOL     OW 5356   2.879   1.901   0.753
 1783SOL    HW1 5357   2.807   1.906   0.684
 1783SOL    HW2 5358   2.855   1.832   0.822
 1784SOL     OW 5359   3.291   3.035   0.867
 1784SOL    HW1 5360   3.236   2.951   0.860
 1784SOL    HW2 5361   3.317   3.064   0.775
 1785SOL     OW 5362   3.328   2.452   0.992
 1785SOL    HW1 5363   3.298   2.357   0.999
 1785SOL    HW2 5364   3.401   2.468   1.058
 1786SOL     OW 5365   3.719   2.695   0.377
 1786SOL    HW1 5366   3.761   2.631   0.441
 1786SOL    HW2 5367   3.681   2.644   0.299
 1787SOL     OW 5368   2.350   3.247   0.174
 1787SOL    HW1 5369   2.263   3.232   0.221
 1787SOL    HW2 5370   2.333   3.273   0.079
 1788SOL     OW 5371   3.526   3.142   0.657
 1788SOL    HW1 5372   3.625   3.150   0.671
 1788SOL    HW2 5373   3.481   3.226   0.688
 1789SOL     OW 5374   3.252   2.437   0.078
 1789SOL    HW1 5375   3.198   2.416   0.159
 1789SOL    HW2 5376   3.343   2.396   0.087
 1790SOL     OW 5377   2.389   2.118   0.328
 1790SOL    HW1 5378   2.416   2.059   0.253
 1790SOL    HW2 5379   2.389   2.213   0.297
 1791SOL     OW 5380   3.616   3.085   1.588
 1791SOL    HW1 5381   3.707   3.046   1.575
 1791SOL    HW2 5382   3.624   3.181   1.612
 1792SOL     OW 5383   2.926   3.209   1.340
 1792SOL    HW1 5384   2.846   3.186   1.395
 1792SOL    HW2 5385   3.009   3.183   1.389
 1793SOL     OW 5386   3.454   3.491   1.625
 1793SOL    HW1 5387   3.481   3.525   1.535
 1793SOL    HW2 5388   3.533   3.453   1.671
 1794SOL     OW 5389   2.973   3.057   1.100
 1794SOL    HW1 5390   2.933   3.101   1.181
 1794SOL    HW2 5391   2.932   3.094   1.017
 1795SOL     OW 5392   3.500   2.961   1.079
 1795SOL    HW1 5393   3.505   3.042   1.138
 1795SOL    HW2 5394   3.414   2.963   1.028
 1796SOL     OW 5395   2.777   1.951   1.402
 1796SOL    HW1 5396   2.802   1.931   1.307
 1796SOL    HW2 5397   2.849   2.007   1.444
 1797SOL     OW 5398   2.842   2.978   1.719
 1797SOL    HW1 5399   2.743   2.984   1.729
 1797SOL    HW2 5400   2.865   2.898   1.663
 1798SOL     OW 5401   2.567   2.912   0.368
 1798SOL    HW1 5402   2.553   2.919   0.467
 1798SOL    HW2 5403   2.651   2.861   0.350
 1799SOL     OW 5404   2.272   2.675   1.251
 1799SOL    HW1 5405   2.358   2.687   1.301
 1799SOL    HW2 5406   2.230   2.588   1.278
 1800SOL     OW 5407   3.136   2.248   1.262
 1800SOL    HW1 5408   3.157   2.322   1.326
 1800SOL    HW2 5409   3.047   2.265   1.219
 1801SOL     OW 5410   1.926   3.426   1.331
 1801SOL    HW1 5411   1.880   3.508   1.297
 1801SOL    HW2 5412   2.024   3.445   1.340
 1802SOL     OW 5413   2.229   2.962   0.501
 1802SOL    HW1 5414   2.222   3.045   0.445
 1802SOL    HW2 5415   2.233   2.882   0.441
 1803SOL     OW 5416   2.428   2.399   0.865
 1803SOL    HW1 5417   2.440   2.465   0.791
 1803SOL    HW2 5418   2.474   2.433   0.948
 1804SOL     OW 5419   3.114   3.210   0.388
 1804SOL    HW1 5420   3.164   3.287   0.428
 1804SOL    HW2 5421   3.019   3.212   0.420
 1805SOL     OW 5422   3.134   3.307   1.142
 1805SOL    HW1 5423   3.181   3.320   1.229
 1805SOL    HW2 5424   3.068   3.233   1.151
 1806SOL     OW 5425   3.444   2.501   0.472
 1806SOL    HW1 5426   3.413   2.562   0.545
 1806SOL    HW2 5427   3.494   2.553   0.403
 1807SOL     OW 5428   2.216   3.372   1.329
 1807SOL    HW1 5429   2.195   3.328   1.242
 1807SOL    HW2 5430   2.313   3.398   1.332
 1808SOL     OW 5431   2.264   2.613   1.598
 1808SOL    HW1 5432   2.332   2.668   1.551
 1808SOL    HW2 5433   2.304   2.525   1.625
 1809SOL     OW 5434   3.449   2.641   1.670
 1809SOL    HW1 5435   3.357   2.679   1.665
 1809SOL    HW2 5436   3.509   2.688   1.605
 1810SOL     OW 5437   2.875   1.967   1.770
 1810SOL    HW1 5438   2.881   2.052   1.718
 1810SOL    HW2 5439   2.907   1.891   1.713
 1811SOL     OW 5440   2.366   1.912   1.740
 1811SOL    HW1 5441   2.324   1.855   1.670
 1811SOL    HW2 5442   2.300   1.981   1.772
 1812SOL     OW 5443   2.435   2.732   1.029
 1812SOL    HW1 5444   2.479   2.821   1.020
 1812SOL    HW2 5445   2.372   2.732   1.106
 1813SOL     OW 5446   3.222   2.724   1.045
 1813SOL    HW1 5447   3.147   2.724   0.979
 1813SOL    HW2 5448   3.259   2.632   1.054
 1814SOL     OW 5449   3.071   2.387   0.275
 1814SOL    HW1 5450   3.084   2.303   0.329
 1814SOL    HW2 5451   3.042   2.461   0.335
 1815SOL     OW 5452   2.169   2.075   1.231
 1815SOL    HW1 5453   2.146   2.112   1.321
 1815SOL    HW2 5454   2.139   1.980   1.225
 1816SOL     OW 5455   1.899   3.172   1.282
 1816SOL    HW1 5456   1.952   3.123   1.350
 1816SOL    HW2 5457   1.921   3.270   1.287
 1817SOL     OW 5458   2.594   2.496   1.064
 1817SOL    HW1 5459   2.653   2.470   0.988
 1817SOL    HW2 5460   2.566   2.592   1.053
 1818SOL     OW 5461   3.590   2.797   1.854
 1818SOL    HW1 5462   3.544   2.790   1.765
 1818SOL    HW2 5463   3.528   2.841   1.920
 1819SOL     OW 5464   2.169   1.925   0.618
 1819SOL    HW1 5465   2.158   2.019   0.651
 1819SOL    HW2 5466   2.164   1.862   0.695
 1820SOL     OW 5467   3.484   2.229   0.374
 1820SOL    HW1 5468   3.486   2.153   0.438
 1820SOL    HW2 5469   3.436   2.306   0.414
 1821SOL     OW 5470   2.885   2.628   0.966
 1821SOL    HW1 5471   2.900   2.649   1.062
 1821SOL    HW2 5472   2.855   2.533   0.957
 1822SOL     OW 5473   2.842   3.435   1.700
 1822SOL    HW1 5474   2.822   3.479   1.612
 1822SOL    HW2 5475   2.881   3.344   1.684
 1823SOL     OW 5476   3.721   3.380   1.605
 1823SOL    HW1 5477   3.735   3.407   1.510
 1823SOL    HW2 5478   3.804   3.402   1.658
 1824SOL     OW 5479   2.212   2.760   1.804
 1824SOL    HW1 5480   2.288   2.804   1.852
 1824SOL    HW2 5481   2.247   2.713   1.722
 1825SOL     OW 5482   3.402   2.136   0.125
 1825SOL    HW1 5483   3.341   2.061   0.148
 1825SOL    HW2 5484   3.424   2.188   0.208
 1826SOL     OW 5485   3.165   2.700   0.042
 1826SOL    HW1 5486   3.199   2.607   0.057
 1826SOL    HW2 5487   3.183   2.727  -0.053
 1827SOL     OW 5488   2.930   3.195   0.849
 1827SOL    HW1 5489   2.937   3.111   0.794
 1827SOL    HW2 5490   2.992   3.264   0.813
 1828SOL     OW 5491   2.181   2.672   0.949
 1828SOL    HW1 5492   2.274   2.708   0.954
 1828SOL    HW2 5493   2.175   2.587   1.001
 1829SOL     OW 5494   2.201   2.371   1.006
 1829SOL    HW1 5495   2.149   2.288   0.989
 1829SOL    HW2 5496   2.278   2.376   0.942
 1830SOL     OW 5497   3.000   2.242   1.678
 1830SOL    HW1 5498   2.955   2.305   1.742
 1830SOL    HW2 5499   3.093   2.273   1.661
 1831SOL     OW 5500   3.022   2.069   1.477
 1831SOL    HW1 5501   3.022   2.133   1.554
 1831SOL    HW2 5502   3.050   2.117   1.394
 1832SOL     OW 5503   1.870   3.188   0.200
 1832SOL    HW1 5504   1.777   3.209   0.169
 1832SOL    HW2 5505   1.880   3.089   0.213
 1833SOL     OW 5506   1.950   3.663   0.927
 1833SOL    HW1 5507   1.908   3.577   0.900
 1833SOL    HW2 5508   2.044   3.666   0.893
 1834SOL     OW 5509   2.366   3.430   0.910
 1834SOL    HW1 5510   2.432   3.504   0.919
 1834SOL    HW2 5511   2.410   3.351   0.868
 1835SOL     OW 5512   2.864   2.658   1.238
 1835SOL    HW1 5513   2.905   2.626   1.324
 1835SOL    HW2 5514   2.768   2.631   1.235
 1836SOL     OW 5515   1.902   2.406   1.114
 1836SOL    HW1 5516   1.987   2.373   1.073
 1836SOL    HW2 5517   1.915   2.421   1.212
 1837SOL     OW 5518   2.051   2.382   1.722
 1837SOL    HW1 5519   2.110   2.342   1.652
 1837SOL    HW2 5520   1.993   2.453   1.681
 1838SOL     OW 5521   3.231   2.812   1.660
 1838SOL    HW1 5522   3.270   2.901   1.680
 1838SOL    HW2 5523   3.241   2.792   1.563
 1839SOL     OW 5524   2.677   2.434   0.325
 1839SOL    HW1 5525   2.684   2.345   0.279
 1839SOL    HW2 5526   2.583   2.468   0.317
 1840SOL     OW 5527   3.519   2.466   1.206
 1840SOL    HW1 5528   3.481   2.397   1.268
 1840SOL    HW2 5529   3.601   2.430   1.162
 1841SOL     OW 5530   2.114   3.426   1.744
 1841SOL    HW1 5531   2.084   3.483   1.820
 1841SOL    HW2 5532   2.107   3.329   1.770
 1842SOL     OW 5533   2.533   2.326   1.269
 1842SOL    HW1 5534   2.499   2.237   1.239
 1842SOL    HW2 5535   2.559   2.380   1.189
 1843SOL     OW 5536   2.792   3.540   1.465
 1843SOL    HW1 5537   2.768   3.522   1.370
 1843SOL    HW2 5538   2.822   3.634   1.475
 1844SOL     OW 5539   2.335   2.362   0.191
 1844SOL    HW1 5540   2.396   2.442   0.195
 1844SOL    HW2 5541   2.240   2.393   0.198
 1845SOL     OW 5542   2.021   2.999   1.466
 1845SOL    HW1 5543   2.043   2.938   1.542
 1845SOL    HW2 5544   2.031   2.950   1.380
 1846SOL     OW 5545   3.209   2.921   1.234
 1846SOL    HW1 5546   3.233   2.858   1.160
 1846SOL    HW2 5547   3.119   2.961   1.216
 1847SOL     OW 5548   3.164   2.717   0.309
 1847SOL    HW1 5549   3.078   2.686   0.351
 1847SOL    HW2 5550   3.160   2.703   0.210
 1848SOL     OW 5551   3.621   3.609   1.154
 1848SOL    HW1 5552   3.682   3.639   1.081
 1848SOL    HW2 5553   3.583   3.520   1.132
 1849SOL     OW 5554   3.114   3.593   1.128
 1849SOL    HW1 5555   3.198   3.598   1.074
 1849SOL    HW2 5556   3.091   3.497   1.146
 1850SOL     OW 5557   1.945   3.120   1.022
 1850SOL    HW1 5558   1.940   3.119   1.122
 1850SOL    HW2 5559   1.862   3.079   0.984
 1851SOL     OW 5560   2.550   3.524   1.716
 1851SOL    HW1 5561   2.494   3.605   1.725
 1851SOL    HW2 5562   2.602   3.528   1.630
 1852SOL     OW 5563   2.765   1.948   0.133
 1852SOL    HW1 5564   2.816   1.949   0.047
 1852SOL    HW2 5565   2.821   1.906   0.204
 1853SOL     OW 5566   3.588   1.997   0.523
 1853SOL    HW1 5567   3.661   1.980   0.456
 1853SOL    HW2 5568   3.557   1.910   0.561
 1854SOL     OW 5569   3.250   3.435   0.477
 1854SOL    HW1 5570   3.317   3.447   0.403
 1854SOL    HW2 5571   3.210   3.524   0.500
 1855SOL     OW 5572   1.992   3.656   1.851
 1855SOL    HW1 5573   1.951   3.582   1.904
 1855SOL    HW2 5574   2.056   3.707   1.909
 1856SOL     OW 5575   3.142   2.789   0.672
 1856SOL    HW1 5576   3.202   2.708   0.674
 1856SOL    HW2 5577   3.182   2.858   0.612
 1857SOL     OW 5578   2.692   3.135   1.422
 1857SOL    HW1 5579   2.687   3.168   1.517
 1857SOL    HW2 5580   2.606   3.154   1.376
 1858SOL     OW 5581   2.534   3.478   0.154
 1858SOL    HW1 5582   2.543   3.488   0.055
 1858SOL    HW2 5583   2.494   3.389   0.175
 1859SOL     OW 5584   3.512   3.582   1.394
 1859SOL    HW1 5585   3.565   3.592   1.310
 1859SOL    HW2 5586   3.485   3.672   1.428
 1860SOL     OW 5587   3.703   2.037   0.963
 1860SOL    HW1 5588   3.742   1.952   0.927
 1860SOL    HW2 5589   3.605   2.039   0.944
 1861SOL     OW 5590   2.125   2.188   0.720
 1861SOL    HW1 5591   2.046   2.239   0.686
 1861SOL    HW2 5592   2.116   2.173   0.818
 1862SOL     OW 5593   3.056   3.474   0.031
 1862SOL    HW1 5594   3.062   3.381   0.068
 1862SOL    HW2 5595   2.997   3.474  -0.049
 1863SOL     OW 5596   2.684   2.864   1.372
 1863SOL    HW1 5597   2.724   2.863   1.280
 1863SOL    HW2 5598   2.694   2.956   1.412
 1864SOL     OW 5599   2.778   2.772   0.291
 1864SOL    HW1 5600   2.841   2.810   0.223
 1864SOL    HW2 5601   2.818   2.689   0.330
 1865SOL     OW 5602   3.366   3.469   0.044
 1865SOL    HW1 5603   3.274   3.506   0.051
 1865SOL    HW2 5604   3.404   3.489  -0.046
 1866SOL     OW 5605   2.234   3.150   1.490
 1866SOL    HW1 5606   2.221   3.243   1.456
 1866SOL    HW2 5607   2.150   3.098   1.477
 1867SOL     OW 5608   3.476   3.154   1.289
 1867SOL    HW1 5609   3.536   3.157   1.369
 1867SOL    HW2 5610   3.401   3.218   1.302
 1868SOL     OW 5611   2.901   2.960   0.696
 1868SOL    HW1 5612   2.831   2.913   0.750
 1868SOL    HW2 5613   2.960   2.892   0.653
 1869SOL     OW 5614   2.876   2.098   0.971
 1869SOL    HW1 5615   2.868   2.062   0.878
 1869SOL    HW2 5616   2.874   2.022   1.036
 1870SOL     OW 5617   2.452   3.349   0.491
 1870SOL    HW1 5618   2.494   3.291   0.421
 1870SOL    HW2 5619   2.408   3.428   0.447
 1871SOL     OW 5620   3.571   2.247   1.381
 1871SOL    HW1 5621   3.644   2.316   1.385
 1871SOL    HW2 5622   3.599   2.172   1.322
 1872SOL     OW 5623   2.117   3.210   0.290
 1872SOL    HW1 5624   2.021   3.211   0.263
 1872SOL    HW2 5625   2.129   3.263   0.374
 1873SOL     OW 5626   1.967   2.875   1.726
 1873SOL    HW1 5627   1.890   2.842   1.780
 1873SOL    HW2 5628   2.052   2.845   1.768
 1874SOL     OW 5629   2.534   2.065   1.489
 1874SOL    HW1 5630   2.624   2.049   1.449
 1874SOL    HW2 5631   2.542   2.070   1.588
 1875SOL     OW 5632   1.937   2.207   0.033
 1875SOL    HW1 5633   1.845   2.179   0.004
 1875SOL    HW2 5634   1.968   2.284  -0.023
 1876SOL     OW 5635   3.302   2.718   1.398
 1876SOL    HW1 5636   3.245   2.770   1.335
 1876SOL    HW2 5637   3.398   2.730   1.374
 1877SOL     OW 5638   3.045   3.197   0.119
 1877SOL    HW1 5639   2.946   3.186   0.121
 1877SOL    HW2 5640   3.079   3.212   0.212
 1878SOL     OW 5641   2.475   2.704   1.431
 1878SOL    HW1 5642   2.531   2.785   1.414
 1878SOL    HW2 5643   2.534   2.624   1.434
 1879SOL     OW 5644   3.355   3.629   0.959
 1879SOL    HW1 5645   3.388   3.693   0.890
 1879SOL    HW2 5646   3.421   3.623   1.034
 1880SOL     OW 5647   2.578   2.427   1.708
 1880SOL    HW1 5648   2.597   2.492   1.782
 1880SOL    HW2 5649   2.638   2.347   1.717
 1881SOL     OW 5650   3.312   3.082   1.633
 1881SOL    HW1 5651   3.303   3.072   1.732
 1881SOL    HW2 5652   3.408   3.075   1.607
 1882SOL     OW 5653   2.252   3.603   1.560
 1882SOL    HW1 5654   2.161   3.644   1.558
 1882SOL    HW2 5655   2.245   3.509   1.592
 1883SOL     OW 5656   3.536   2.745   1.254
 1883SOL    HW1 5657   3.509   2.656   1.217
 1883SOL    HW2 5658   3.537   2.813   1.181
 1884SOL     OW 5659   3.087   2.187   0.449
 1884SOL    HW1 5660   3.152   2.113   0.438
 1884SOL    HW2 5661   3.107   2.237   0.533
 1885SOL     OW 5662   2.456   2.607   0.652
 1885SOL    HW1 5663   2.506   2.692   0.633
 1885SOL    HW2 5664   2.368   2.609   0.604
 1886SOL     OW 5665   3.639   2.204   1.642
 1886SOL    HW1 5666   3.622   2.235   1.548
 1886SOL    HW2 5667   3.555   2.167   1.680
 1887SOL     OW 5668   3.592   2.796   1.517
 1887SOL    HW1 5669   3.630   2.887   1.532
 1887SOL    HW2 5670   3.584   2.779   1.418
 1888SOL     OW 5671   2.721   3.236   0.016
 1888SOL    HW1 5672   2.675   3.251   0.104
 1888SOL    HW2 5673   2.765   3.321  -0.014
 1889SOL     OW 5674   2.523   3.652   0.953
 1889SOL    HW1 5675   2.477   3.740   0.940
 1889SOL    HW2 5676   2.622   3.664   0.946
 1890SOL     OW 5677   2.721   2.818   0.861
 1890SOL    HW1 5678   2.775   2.749   0.909
 1890SOL    HW2 5679   2.689   2.887   0.927
 1891SOL     OW 5680   2.945   2.846   0.087
 1891SOL    HW1 5681   2.922   2.899   0.005
 1891SOL    HW2 5682   3.026   2.790   0.068
 1892SOL     OW 5683   3.723   3.431   0.851
 1892SOL    HW1 5684   3.652   3.419   0.781
 1892SOL    HW2 5685   3.724   3.352   0.911
 1893SOL     OW 5686   2.083   3.176   1.844
 1893SOL    HW1 5687   2.018   3.103   1.823
 1893SOL    HW2 5688   2.087   3.190   1.942
 1894SOL     OW 5689   1.941   3.102   0.653
 1894SOL    HW1 5690   1.940   3.055   0.741
 1894SOL    HW2 5691   2.023   3.074   0.602
 1895SOL     OW 5692   2.534   3.253   1.624
 1895SOL    HW1 5693   2.456   3.203   1.662
 1895SOL    HW2 5694   2.531   3.348   1.655
 1896SOL     OW 5695   3.686   2.054   1.227
 1896SOL    HW1 5696   3.682   1.964   1.271
 1896SOL    HW2 5697   3.689   2.043   1.128
 1897SOL     OW 5698   2.290   2.286   0.520
 1897SOL    HW1 5699   2.320   2.214   0.458
 1897SOL    HW2 5700   2.251   2.246   0.603
 1898SOL     OW 5701   3.567   3.349   1.104
 1898SOL    HW1 5702   3.474   3.324   1.077
 1898SOL    HW2 5703   3.593   3.299   1.186
 1899SOL     OW 5704   2.179   2.409   1.280
 1899SOL    HW1 5705   2.217   2.350   1.352
 1899SOL    HW2 5706   2.219   2.383   1.192
 1900SOL     OW 5707   2.674   3.448   0.687
 1900SOL    HW1 5708   2.706   3.458   0.593
 1900SOL    HW2 5709   2.595   3.386   0.689
 1901SOL     OW 5710   3.286   2.076   1.112
 1901SOL    HW1 5711   3.338   2.011   1.167
 1901SOL    HW2 5712   3.237   2.139   1.173
 1902SOL     OW 5713   2.863   1.896   1.154
 1902SOL    HW1 5714   2.800   1.824   1.123
 1902SOL    HW2 5715   2.956   1.860   1.154
 1903SOL     OW 5716   2.632   3.192   0.301
 1903SOL    HW1 5717   2.586   3.105   0.318
 1903SOL    HW2 5718   2.723   3.189   0.342
 1904SOL     OW 5719   2.480   3.429   1.284
 1904SOL    HW1 5720   2.475   3.511   1.341
 1904SOL    HW2 5721   2.569   3.426   1.239
 1905SOL     OW 5722   3.214   1.914   0.168
 1905SOL    HW1 5723   3.249   1.873   0.084
 1905SOL    HW2 5724   3.124   1.876   0.188
 1906SOL     OW 5725   3.162   2.315   0.691
 1906SOL    HW1 5726   3.103   2.395   0.695
 1906SOL    HW2 5727   3.177   2.280   0.784
 1907SOL     OW 5728   3.455   2.083   0.882
 1907SOL    HW1 5729   3.371   2.082   0.936
 1907SOL    HW2 5730   3.457   2.166   0.826
 1908SOL     OW 5731   1.901   2.939   0.300
 1908SOL    HW1 5732   2.000   2.928   0.291
 1908SOL    HW2 5733   1.861   2.853   0.332
 1909SOL     OW 5734   2.737   3.508   0.337
 1909SOL    HW1 5735   2.660   3.473   0.283
 1909SOL    HW2 5736   2.705   3.579   0.399
 1910SOL     OW 5737   2.092   2.490   1.975
 1910SOL    HW1 5738   1.999   2.488   2.012
 1910SOL    HW2 5739   2.093   2.451   1.883
 1911SOL     OW 5740   2.087   2.137   2.858
 1911SOL    HW1 5741   2.122   2.120   2.950
 1911SOL    HW2 5742   1.999   2.092   2.846
 1912SOL     OW 5743   1.881   2.230   2.509
 1912SOL    HW1 5744   1.799   2.273   2.548
 1912SOL    HW2 5745   1.853   2.157   2.446
 1913SOL     OW 5746   2.431   3.137   3.027
 1913SOL    HW1 5747   2.338   3.130   2.990
 1913SOL    HW2 5748   2.442   3.226   3.071
 1914SOL     OW 5749   3.417   3.373   2.565
 1914SOL    HW1 5750   3.360   3.357   2.646
 1914SOL    HW2 5751   3.358   3.383   2.485
 1915SOL     OW 5752   2.997   2.565   2.579
 1915SOL    HW1 5753   3.054   2.643   2.554
 1915SOL    HW2 5754   2.937   2.591   2.655
 1916SOL     OW 5755   3.617   2.469   2.093
 1916SOL    HW1 5756   3.605   2.456   1.994
 1916SOL    HW2 5757   3.587   2.388   2.142
 1917SOL     OW 5758   2.630   3.006   2.885
 1917SOL    HW1 5759   2.552   3.023   2.945
 1917SOL    HW2 5760   2.664   3.093   2.849
 1918SOL     OW 5761   2.712   2.660   3.685
 1918SOL    HW1 5762   2.708   2.736   3.750
 1918SOL    HW2 5763   2.734   2.696   3.594
 1919SOL     OW 5764   2.547   2.874   2.527
 1919SOL    HW1 5765   2.616   2.858   2.597
 1919SOL    HW2 5766   2.474   2.931   2.565
 1920SOL     OW 5767   2.548   3.023   3.665
 1920SOL    HW1 5768   2.608   3.102   3.679
 1920SOL    HW2 5769   2.462   3.054   3.624
 1921SOL     OW 5770   2.197   3.297   2.923
 1921SOL    HW1 5771   2.119   3.266   2.870
 1921SOL    HW2 5772   2.255   3.355   2.866
 1922SOL     OW 5773   3.322   3.367   3.201
 1922SOL    HW1 5774   3.346   3.461   3.227
 1922SOL    HW2 5775   3.306   3.313   3.283
 1923SOL     OW 5776   2.300   2.254   3.361
 1923SOL    HW1 5777   2.382   2.198   3.370
 1923SOL    HW2 5778   2.219   2.196   3.365
 1924SOL     OW 5779   3.465   2.309   2.599
 1924SOL    HW1 5780   3.391   2.355   2.549
 1924SOL    HW2 5781   3.516   2.377   2.652
 1925SOL     OW 5782   2.093   3.575   2.345
 1925SOL    HW1 5783   2.127   3.652   2.399
 1925SOL    HW2 5784   2.137   3.575   2.255
 1926SOL     OW 5785   2.989   3.203   3.552
 1926SOL    HW1 5786   3.036   3.203   3.640
 1926SOL    HW2 5787   2.941   3.116   3.541
 1927SOL     OW 5788   2.092   3.296   2.400
 1927SOL    HW1 5789   2.066   3.392   2.400
 1927SOL    HW2 5790   2.021   3.242   2.445
 1928SOL     OW 5791   2.102   2.953   2.748
 1928SOL    HW1 5792   2.116   2.869   2.800
 1928SOL    HW2 5793   2.047   3.017   2.803
 1929SOL     OW 5794   2.482   3.648   3.301
 1929SOL    HW1 5795   2.390   3.631   3.336
 1929SOL    HW2 5796   2.510   3.740   3.327
 1930SOL     OW 5797   2.468   2.826   1.985
 1930SOL    HW1 5798   2.475   2.910   1.931
 1930SOL    HW2 5799   2.514   2.839   2.073
 1931SOL     OW 5800   3.456   1.976   3.342
 1931SOL    HW1 5801   3.438   2.043   3.270
 1931SOL    HW2 5802   3.453   2.022   3.431
 1932SOL     OW 5803   1.984   2.505   2.425
 1932SOL    HW1 5804   1.939   2.417   2.442
 1932SOL    HW2 5805   1.983   2.559   2.509
 1933SOL     OW 5806   3.704   3.629   2.221
 1933SOL    HW1 5807   3.758   3.600   2.301
 1933SOL    HW2 5808   3.734   3.719   2.192
 1934SOL     OW 5809   1.889   3.458   1.979
 1934SOL    HW1 5810   1.870   3.362   2.000
 1934SOL    HW2 5811   1.856   3.516   2.054
 1935SOL     OW 5812   3.551   2.784   2.474
 1935SOL    HW1 5813   3.646   2.755   2.482
 1935SOL    HW2 5814   3.543   2.849   2.399
 1936SOL     OW 5815   3.503   2.970   2.294
 1936SOL    HW1 5816   3.589   2.972   2.242
 1936SOL    HW2 5817   3.517   3.017   2.382
 1937SOL     OW 5818   1.975   2.599   3.459
 1937SOL    HW1 5819   2.063   2.586   3.504
 1937SOL    HW2 5820   1.962   2.696   3.437
 1938SOL     OW 5821   2.475   3.227   2.588
 1938SOL    HW1 5822   2.426   3.140   2.597
 1938SOL    HW2 5823   2.452   3.270   2.501
 1939SOL     OW 5824   3.155   3.090   3.285
 1939SOL    HW1 5825   3.192   3.017   3.227
 1939SOL    HW2 5826   3.207   3.095   3.370
 1940SOL     OW 5827   2.671   1.866   2.364
 1940SOL    HW1 5828   2.711   1.957   2.355
 1940SOL    HW2 5829   2.571   1.874   2.370
 1941SOL     OW 5830   2.059   2.838   3.126
 1941SOL    HW1 5831   2.148   2.793   3.112
 1941SOL    HW2 5832   1.986   2.773   3.107
 1942SOL     OW 5833   3.387   2.861   2.052
 1942SOL    HW1 5834   3.324   2.785   2.065
 1942SOL    HW2 5835   3.435   2.879   2.138
 1943SOL     OW 5836   3.049   3.654   3.478
 1943SOL    HW1 5837   3.073   3.714   3.402
 1943SOL    HW2 5838   3.056   3.559   3.448
 1944SOL     OW 5839   2.179   2.113   3.663
 1944SOL    HW1 5840   2.250   2.184   3.669
 1944SOL    HW2 5841   2.091   2.152   3.691
 1945SOL     OW 5842   3.328   3.279   2.815
 1945SOL    HW1 5843   3.269   3.285   2.895
 1945SOL    HW2 5844   3.313   3.191   2.769
 1946SOL     OW 5845   3.529   3.576   2.434
 1946SOL    HW1 5846   3.488   3.553   2.346
 1946SOL    HW2 5847   3.511   3.502   2.499
 1947SOL     OW 5848   2.460   2.591   2.132
 1947SOL    HW1 5849   2.484   2.660   2.064
 1947SOL    HW2 5850   2.382   2.624   2.186
 1948SOL     OW 5851   3.143   2.207   2.806
 1948SOL    HW1 5852   3.057   2.157   2.793
 1948SOL    HW2 5853   3.205   2.153   2.862
 1949SOL     OW 5854   3.438   3.524   2.169
 1949SOL    HW1 5855   3.527   3.570   2.172
 1949SOL    HW2 5856   3.417   3.500   2.074
 1950SOL     OW 5857   2.669   2.467   3.327
 1950SOL    HW1 5858   2.622   2.464   3.416
 1950SOL    HW2 5859   2.618   2.412   3.261
 1951SOL     OW 5860   3.256   2.331   3.536
 1951SOL    HW1 5861   3.236   2.374   3.624
 1951SOL    HW2 5862   3.334   2.269   3.545
 1952SOL     OW 5863   2.835   2.752   3.434
 1952SOL    HW1 5864   2.881   2.668   3.405
 1952SOL    HW2 5865   2.779   2.786   3.359
 1953SOL     OW 5866   2.853   2.272   3.104
 1953SOL    HW1 5867   2.776   2.306   3.158
 1953SOL    HW2 5868   2.819   2.221   3.025
 1954SOL     OW 5869   2.903   2.563   2.291
 1954SOL    HW1 5870   2.929   2.559   2.387
 1954SOL    HW2 5871   2.818   2.512   2.277
 1955SOL     OW 5872   1.938   2.673   2.651
 1955SOL    HW1 5873   2.037   2.661   2.660
 1955SOL    HW2 5874   1.914   2.768   2.672
 1956SOL     OW 5875   1.992   3.683   3.433
 1956SOL    HW1 5876   1.982   3.668   3.532
 1956SOL    HW2 5877   1.906   3.719   3.397
 1957SOL     OW 5878   2.727   2.210   2.057
 1957SOL    HW1 5879   2.786   2.273   2.008
 1957SOL    HW2 5880   2.746   2.116   2.028
 1958SOL     OW 5881   3.581   2.447   3.693
 1958SOL    HW1 5882   3.555   2.536   3.657
 1958SOL    HW2 5883   3.579   2.379   3.620
 1959SOL     OW 5884   3.224   3.006   2.407
 1959SOL    HW1 5885   3.307   2.977   2.359
 1959SOL    HW2 5886   3.175   3.073   2.351
 1960SOL     OW 5887   2.412   2.058   2.747
 1960SOL    HW1 5888   2.407   2.053   2.847
 1960SOL    HW2 5889   2.414   2.154   2.718
 1961SOL     OW 5890   2.870   3.318   2.339
 1961SOL    HW1 5891   2.824   3.390   2.287
 1961SOL    HW2 5892   2.866   3.338   2.437
 1962SOL     OW 5893   2.213   3.663   2.715
 1962SOL    HW1 5894   2.263   3.577   2.721
 1962SOL    HW2 5895   2.278   3.740   2.712
 1963SOL     OW 5896   3.657   2.928   2.735
 1963SOL    HW1 5897   3.595   2.913   2.659
 1963SOL    HW2 5898   3.605   2.939   2.820
 1964SOL     OW 5899   3.089   3.412   3.368
 1964SOL    HW1 5900   3.095   3.335   3.432
 1964SOL    HW2 5901   3.037   3.386   3.288
 1965SOL     OW 5902   2.183   2.805   2.104
 1965SOL    HW1 5903   2.265   2.844   2.062
 1965SOL    HW2 5904   2.156   2.723   2.055
 1966SOL     OW 5905   3.320   2.597   2.590
 1966SOL    HW1 5906   3.315   2.532   2.665
 1966SOL    HW2 5907   3.400   2.656   2.603
 1967SOL     OW 5908   2.323   3.128   3.589
 1967SOL    HW1 5909   2.273   3.129   3.503
 1967SOL    HW2 5910   2.260   3.110   3.665
 1968SOL     OW 5911   2.973   3.638   2.099
 1968SOL    HW1 5912   2.913   3.576   2.149
 1968SOL    HW2 5913   3.004   3.594   2.014
 1969SOL     OW 5914   2.064   2.147   3.360
 1969SOL    HW1 5915   1.984   2.207   3.347
 1969SOL    HW2 5916   2.054   2.098   3.446
 1970SOL     OW 5917   3.494   3.239   1.943
 1970SOL    HW1 5918   3.462   3.333   1.933
 1970SOL    HW2 5919   3.418   3.176   1.931
 1971SOL     OW 5920   2.326   3.605   2.185
 1971SOL    HW1 5921   2.359   3.644   2.271
 1971SOL    HW2 5922   2.402   3.598   2.120
 1972SOL     OW 5923   3.262   1.969   2.288
 1972SOL    HW1 5924   3.238   1.932   2.198
 1972SOL    HW2 5925   3.361   1.985   2.292
 1973SOL     OW 5926   2.111   3.647   3.103
 1973SOL    HW1 5927   2.168   3.582   3.153
 1973SOL    HW2 5928   2.095   3.614   3.010
 1974SOL     OW 5929   2.802   3.560   2.766
 1974SOL    HW1 5930   2.882   3.503   2.787
 1974SOL    HW2 5931   2.753   3.520   2.689
 1975SOL     OW 5932   3.409   2.084   3.591
 1975SOL    HW1 5933   3.404   2.121   3.683
 1975SOL    HW2 5934   3.337   2.015   3.579
 1976SOL     OW 5935   2.476   1.984   1.979
 1976SOL    HW1 5936   2.574   1.962   1.986
 1976SOL    HW2 5937   2.445   1.967   1.886
 1977SOL     OW 5938   2.643   2.126   3.611
 1977SOL    HW1 5939   2.710   2.065   3.654
 1977SOL    HW2 5940   2.570   2.145   3.676
 1978SOL     OW 5941   2.750   3.376   3.057
 1978SOL    HW1 5942   2.727   3.351   2.963
 1978SOL    HW2 5943   2.811   3.307   3.096
 1979SOL     OW 5944   3.213   2.452   3.295
 1979SOL    HW1 5945   3.241   2.409   3.380
 1979SOL    HW2 5946   3.238   2.548   3.296
 1980SOL     OW 5947   2.665   3.264   2.786
 1980SOL    HW1 5948   2.755   3.278   2.744
 1980SOL    HW2 5949   2.594   3.266   2.715
 1981SOL     OW 5950   2.784   2.365   2.761
 1981SOL    HW1 5951   2.759   2.356   2.665
 1981SOL    HW2 5952   2.832   2.283   2.792
 1982SOL     OW 5953   3.296   3.050   1.903
 1982SOL    HW1 5954   3.328   2.974   1.960
 1982SOL    HW2 5955   3.204   3.077   1.933
 1983SOL     OW 5956   2.159   1.897   2.033
 1983SOL    HW1 5957   2.208   1.981   2.012
 1983SOL    HW2 5958   2.221   1.832   2.078
 1984SOL     OW 5959   2.797   2.098   2.342
 1984SOL    HW1 5960   2.749   2.139   2.264
 1984SOL    HW2 5961   2.896   2.096   2.323
 1985SOL     OW 5962   2.938   2.545   3.326
 1985SOL    HW1 5963   2.858   2.484   3.329
 1985SOL    HW2 5964   3.019   2.492   3.302
 1986SOL     OW 5965   3.089   3.432   2.655
 1986SOL    HW1 5966   3.110   3.506   2.590
 1986SOL    HW2 5967   3.157   3.432   2.728
 1987SOL     OW 5968   2.321   3.014   2.603
 1987SOL    HW1 5969   2.250   2.987   2.668
 1987SOL    HW2 5970   2.295   2.986   2.510
 1988SOL     OW 5971   3.133   3.659   2.453
 1988SOL    HW1 5972   3.177   3.723   2.389
 1988SOL    HW2 5973   3.083   3.711   2.523
 1989SOL     OW 5974   2.894   2.411   1.878
 1989SOL    HW1 5975   2.853   2.493   1.839
 1989SOL    HW2 5976   2.958   2.437   1.951
 1990SOL     OW 5977   1.940   2.418   3.248
 1990SOL    HW1 5978   2.032   2.417   3.207
 1990SOL    HW2 5979   1.934   2.492   3.315
 1991SOL     OW 5980   2.423   2.084   3.009
 1991SOL    HW1 5981   2.461   2.000   3.046
 1991SOL    HW2 5982   2.335   2.103   3.053
 1992SOL     OW 5983   2.728   2.316   2.504
 1992SOL    HW1 5984   2.696   2.388   2.442
 1992SOL    HW2 5985   2.752   2.235   2.451
 1993SOL     OW 5986   2.879   1.901   2.615
 1993SOL    HW1 5987   2.807   1.906   2.546
 1993SOL    HW2 5988   2.855   1.832   2.684
 1994SOL     OW 5989   3.291   3.035   2.729
 1994SOL    HW1 5990   3.236   2.951   2.722
 1994SOL    HW2 5991   3.317   3.064   2.637
 1995SOL     OW 5992   3.328   2.452   2.854
 1995SOL    HW1 5993   3.298   2.357   2.861
 1995SOL    HW2 5994   3.401   2.468   2.920
 1996SOL     OW 5995   3.719   2.695   2.239
 1996SOL    HW1 5996   3.761   2.631   2.303
 1996SOL    HW2 5997   3.681   2.644   2.161
 1997SOL     OW 5998   2.350   3.247   2.036
 1997SOL    HW1 5999   2.263   3.232   2.083
 1997SOL    HW2 6000   2.333   3.273   1.941
 1998SOL     OW 6001   3.526   3.142   2.519
 1998SOL    HW1 6002   3.625   3.150   2.533
 1998SOL    HW2 6003   3.481   3.226   2.550
 1999SOL     OW 6004   3.252   2.437   1.940
 1999SOL    HW1 6005   3.198   2.416   2.021
 1999SOL    HW2 6006   3.343   2.396   1.949
 2000SOL     OW 6007   3.616   3.085   3.450
 2000SOL    HW1 6008   3.707   3.046   3.437
 2000SOL    HW2 6009   3.624   3.181   3.474
 2001SOL     OW 6010   2.926   3.209   3.202
 2001SOL    HW1 6011   2.846   3.186   3.257
 2001SOL    HW2 6012   3.009   3.183   3.251
 2002SOL     OW 6013   3.454   3.491   3.487
 2002SOL    HW1 6014   3.481   3.525   3.397
 2002SOL    HW2 6015   3.533   3.453   3.533
 2003SOL     OW 6016   2.973   3.057   2.962
 2003SOL    HW1 6017   2.933   3.101   3.043
 2003SOL    HW2 6018   2.932   3.094   2.879
 2004SOL     OW 6019   3.500   2.961   2.941
 2004SOL    HW1 6020   3.505   3.042   3.000
 2004SOL    HW2 6021   3.414   2.963   2.890
 2005SOL     OW 6022   2.777   1.951   3.264
 2005SOL    HW1 6023   2.802   1.931   3.169
 2005SOL    HW2 6024   2.849   2.007   3.306
 2006SOL     OW 6025   2.842   2.978   3.581
 2006SOL    HW1 6026   2.743   2.984   3.591
 2006SOL    HW2 6027   2.865   2.898   3.525
 2007SOL     OW 6028   2.567   2.912   2.230
 2007SOL    HW1 6029   2.553   2.919   2.329
 2007SOL    HW2 6030   2.651   2.861   2.212
 2008SOL     OW 6031   2.272   2.675   3.113
 2008SOL    HW1 6032   2.358   2.687   3.163
 2008SOL    HW2 6033   2.230   2.588   3.140
 2009SOL     OW 6034   3.136   2.248   3.124
 2009SOL    HW1 6035   3.157   2.322   3.188
 2009SOL    HW2 6036   3.047   2.265   3.081
 2010SOL     OW 6037   1.926   3.426   3.193
 2010SOL    HW1 6038   1.880   3.508   3.159
 2010SOL    HW2 6039   2.024   3.445   3.202
 2011SOL     OW 6040   2.229   2.962   2.363
 2011SOL    HW1 6041   2.222   3.045   2.307
 2011SOL    HW2 6042   2.233   2.882   2.303
 2012SOL     OW 6043   2.428   2.399   2.727
 2012SOL    HW1 6044   2.440   2.465   2.653
 2012SOL    HW2 6045   2.474   2.433   2.810
 2013SOL     OW 6046   3.114   3.210   2.250
 2013SOL    HW1 6047   3.164   3.287   2.290
 2013SOL    HW2 6048   3.019   3.212   2.282
 2014SOL     OW 6049   3.134   3.307   3.004
 2014SOL    HW1 6050   3.181   3.320   3.091
 2014SOL    HW2 6051   3.068   3.233   3.013
 2015SOL     OW 6052   3.444   2.501   2.334
 2015SOL    HW1 6053   3.413   2.562   2.407
 2015SOL    HW2 6054   3.494   2.553   2.265
 2016SOL     OW 6055   2.216   3.372   3.191
 2016SOL    HW1 6056   2.195   3.328   3.104
 2016SOL    HW2 6057   2.313   3.398   3.194
 2017SOL     OW 6058   2.264   2.613   3.460
 2017SOL    HW1 6059   2.332   2.668   3.413
 2017SOL    HW2 6060   2.304   2.525   3.487
 2018SOL     OW 6061   3.449   2.641   3.532
 2018SOL    HW1 6062   3.357   2.679   3.527
 2018SOL    HW2 6063   3.509   2.688   3.467
 2019SOL     OW 6064   2.875   1.967   3.632
 2019SOL    HW1 6065   2.881   2.052   3.580
 2019SOL    HW2 6066   2.907   1.891   3.575
 2020SOL     OW 6067   2.366   1.912   3.602
 2020SOL    HW1 6068   2.324   1.855   3.532
 2020SOL    HW2 6069   2.300   1.981   3.634
 2021SOL     OW 6070   2.435   2.732   2.891
 2021SOL    HW1 6071   2.479   2.821   2.882
 2021SOL    HW2 6072   2.372   2.732   2.968
 2022SOL     OW 6073   3.222   2.724   2.907
 2022SOL    HW1 6074   3.147   2.724   2.841
 2022SOL    HW2 6075   3.259   2.632   2.916
 2023SOL     OW 6076   3.071   2.387   2.137
 2023SOL    HW1 6077   3.084   2.303   2.191
 2023SOL    HW2 6078   3.042   2.461   2.197
 2024SOL     OW 6079   2.169   2.075   3.093
 2024SOL    HW1 6080   2.146   2.112   3.183
 2024SOL    HW2 6081   2.139   1.980   3.087
 2025SOL     OW 6082   1.899   3.172   3.144
 2025SOL    HW1 6083   1.952   3.123   3.212
 2025SOL    HW2 6084   1.921   3.270   3.149
 2026SOL     OW 6085   2.594   2.496   2.926
 2026SOL    HW1 6086   2.653   2.470   2.850
 2026SOL    HW2 6087   2.566   2.592   2.915
 2027SOL     OW 6088   3.590   2.797   3.716
 2027SOL    HW1 6089   3.544   2.790   3.627
 2027SOL    HW2 6090   3.528   2.841   3.782
 2028SOL     OW 6091   2.169   1.925   2.480
 2028SOL    HW1 6092   2.158   2.019   2.513
 2028SOL    HW2 6093   2.164   1.862   2.557
 2029SOL     OW 6094   3.484   2.229   2.236
 2029SOL    HW1 6095   3.486   2.153   2.300
 2029SOL    HW2 6096   3.436   2.306   2.276
 2030SOL     OW 6097   2.885   2.628   2.828
 2030SOL    HW1 6098   2.900   2.649   2.924
 2030SOL    HW2 6099   2.855   2.533   2.819
 2031SOL     OW 6100   2.842   3.435   3.562
 2031SOL    HW1 6101   2.822   3.479   3.474
 2031SOL    HW2 6102   2.881   3.344   3.546
 2032SOL     OW 6103   3.721   3.380   3.467
 2032SOL    HW1 6104   3.735   3.407   3.372
 2032SOL    HW2 6105   3.804   3.402   3.520
 2033SOL     OW 6106   2.212   2.760   3.666
 2033SOL    HW1 6107   2.288   2.804   3.714
 2033SOL    HW2 6108   2.247   2.713   3.584
 2034SOL     OW 6109   3.402   2.136   1.987
 2034SOL    HW1 6110   3.341   2.061   2.010
 2034SOL    HW2 6111   3.424   2.188   2.070
 2035SOL     OW 6112   3.165   2.700   1.904
 2035SOL    HW1 6113   3.199   2.607   1.919
 2035SOL    HW2 6114   3.183   2.727   1.809
 2036SOL     OW 6115   2.930   3.195   2.711
 2036SOL    HW1 6116   2.937   3.111   2.656
 2036SOL    HW2 6117   2.992   3.264   2.675
 2037SOL     OW 6118   2.181   2.672   2.811
 2037SOL    HW1 6119   2.274   2.708   2.816
 2037SOL    HW2 6120   2.175   2.587   2.863
 2038SOL     OW 6121   2.201   2.371   2.868
 2038SOL    HW1 6122   2.149   2.288   2.851
 2038SOL    HW2 6123   2.278   2.376   2.804
 2039SOL     OW 6124   3.000   2.242   3.540
 2039SOL    HW1 6125   2.955   2.305   3.604
 2039SOL    HW2 6126   3.093   2.273   3.523
 2040SOL     OW 6127   3.022   2.069   3.339
 2040SOL    HW1 6128   3.022   2.133   3.416
 2040SOL    HW2 6129   3.050   2.117   3.256
 2041SOL     OW 6130   1.870   3.188   2.062
 2041SOL    HW1 6131   1.777   3.209   2.031
 2041SOL    HW2 6132   1.880   3.089   2.075
 2042SOL     OW 6133   1.950   3.663   2.789
 2042SOL    HW1 6134   1.908   3.577   2.762
 2042SOL    HW2 6135   2.044   3.666   2.755
 2043SOL     OW 6136   2.366   3.430   2.772
 2043SOL    HW1 6137   2.432   3.504   2.781
 2043SOL    HW2 6138   2.410   3.351   2.730
 2044SOL     OW 6139   2.864   2.658   3.100
 2044SOL    HW1 6140   2.905   2.626   3.186
 2044SOL    HW2 6141   2.768   2.631   3.097
 2045SOL     OW 6142   1.902   2.406   2.976
 2045SOL    HW1 6143   1.987   2.373   2.935
 2045SOL    HW2 6144   1.915   2.421   3.074
 2046SOL     OW 6145   2.051   2.382   3.584
 2046SOL    HW1 6146   2.110   2.342   3.514
 2046SOL    HW2 6147   1.993   2.453   3.543
 2047SOL     OW 6148   3.231   2.812   3.522
 2047SOL    HW1 6149   3.270   2.901   3.542
 2047SOL    HW2 6150   3.241   2.792   3.425
 2048SOL     OW 6151   2.677   2.434   2.187
 2048SOL    HW1 6152   2.684   2.345   2.141
 2048SOL    HW2 6153   2.583   2.468   2.179
 2049SOL     OW 6154   3.519   2.466   3.068
 2049SOL    HW1 6155   3.481   2.397   3.130
 2049SOL    HW2 6156   3.601   2.430   3.024
 2050SOL     OW 6157   2.114   3.426   3.606
 2050SOL    HW1 6158   2.084   3.483   3.682
 2050SOL    HW2 6159   2.107   3.329   3.632
 2051SOL     OW 6160   2.533   2.326   3.131
 2051SOL    HW1 6161   2.499   2.237   3.101
 2051SOL    HW2 6162   2.559   2.380   3.051
 2052SOL     OW 6163   2.792   3.540   3.327
 2052SOL    HW1 6164   2.768   3.522   3.232
 2052SOL    HW2 6165   2.822   3.634   3.337
 2053SOL     OW 6166   2.021   2.999   3.328
 2053SOL    HW1 6167   2.043   2.938   3.404
 2053SOL    HW2 6168   2.031   2.950   3.242
 2054SOL     OW 6169   3.209   2.921   3.096
 2054SOL    HW1 6170   3.233   2.858   3.022
 2054SOL    HW2 6171   3.119   2.961   3.078
 2055SOL     OW 6172   3.164   2.717   2.171
 2055SOL    HW1 6173   3.078   2.686   2.213
 2055SOL    HW2 6174   3.160   2.703   2.072
 2056SOL     OW 6175   3.621   3.609   3.016
 2056SOL    HW1 6176   3.682   3.639   2.943
 2056SOL    HW2 6177   3.583   3.520   2.994
 2057SOL     OW 6178   3.114   3.593   2.990
 2057SOL    HW1 6179   3.198   3.598   2.936
 2057SOL    HW2 6180   3.091   3.497   3.008
 2058SOL     OW 6181   1.945   3.120   2.884
 2058SOL    HW1 6182   1.940   3.119   2.984
 2058SOL    HW2 6183   1.862   3.079   2.846
 2059SOL     OW 6184   2.550   3.524   3.578
 2059SOL    HW1 6185   2.494   3.605   3.587
 2059SOL    HW2 6186   2.602   3.528   3.492
 2060SOL     OW 6187   3.588   1.997   2.385
 2060SOL    HW1 6188   3.661   1.980   2.318
 2060SOL    HW2 6189   3.557   1.910   2.423
 2061SOL     OW 6190   3.250   3.435   2.339
 2061SOL    HW1 6191   3.317   3.447   2.265
 2061SOL    HW2 6192   3.210   3.524   2.362
 2062SOL     OW 6193   1.992   3.656   3.713
 2062SOL    HW1 6194   1.951   3.582   3.766
 2062SOL    HW2 6195   2.056   3.707   3.771
 2063SOL     OW 6196   3.142   2.789   2.534
 2063SOL    HW1 6197   3.202   2.708   2.536
 2063SOL    HW2 6198   3.182   2.858   2.474
 2064SOL     OW 6199   2.692   3.135   3.284
 2064SOL    HW1 6200   2.687   3.168   3.379
 2064SOL    HW2 6201   2.606   3.154   3.238
 2065SOL     OW 6202   2.534   3.478   2.016
 2065SOL    HW1 6203   2.543   3.488   1.917
 2065SOL    HW2 6204   2.494   3.389   2.037
 2066SOL     OW 6205   3.512   3.582   3.256
 2066SOL    HW1 6206   3.565   3.592   3.172
 2066SOL    HW2 6207   3.485   3.672   3.290
 2067SOL     OW 6208   3.703   2.037   2.825
 2067SOL    HW1 6209   3.742   1.952   2.789
 2067SOL    HW2 6210   3.605   2.039   2.806
 2068SOL     OW 6211   2.125   2.188   2.582
 2068SOL    HW1 6212   2.046   2.239   2.548
 2068SOL    HW2 6213   2.116   2.173   2.680
 2069SOL     OW 6214   3.056   3.474   1.893
 2069SOL    HW1 6215   3.062   3.381   1.930
 2069SOL    HW2 6216   2.997   3.474   1.813
 2070SOL     OW 6217   2.684   2.864   3.234
 2070SOL    HW1 6218   2.724   2.863   3.142
 2070SOL    HW2 6219   2.694   2.956   3.274
 2071SOL     OW 6220   2.778   2.772   2.153
 2071SOL    HW1 6221   2.841   2.810   2.085
 2071SOL    HW2 6222   2.818   2.689   2.192
 2072SOL     OW 6223   3.366   3.469   1.906
 2072SOL    HW1 6224   3.274   3.506   1.913
 2072SOL    HW2 6225   3.404   3.489   1.816
 2073SOL     OW 6226   2.234   3.150   3.352
 2073SOL    HW1 6227   2.221   3.243   3.318
 2073SOL    HW2 6228   2.150   3.098   3.339
 2074SOL     OW 6229   3.476   3.154   3.151
 2074SOL    HW1 6230   3.536   3.157   3.231
 2074SOL    HW2 6231   3.401   3.218   3.164
 2075SOL     OW 6232   2.901   2.960   2.558
 2075SOL    HW1 6233   2.831   2.913   2.612
 2075SOL    HW2 6234   2.960   2.892   2.515
 2076SOL     OW 6235   2.876   2.098   2.833
 2076SOL    HW1 6236   2.868   2.062   2.740
 2076SOL    HW2 6237   2.874   2.022   2.898
 2077SOL     OW 6238   2.452   3.349   2.353
 2077SOL    HW1 6239   2.494   3.291   2.283
 2077SOL    HW2 6240   2.408   3.428   2.309
 2078SOL     OW 6241   3.571   2.247   3.243
 2078SOL    HW1 6242   3.644   2.316   3.247
 2078SOL    HW2 6243   3.599   2.172   3.184
 2079SOL     OW 6244   2.117   3.210   2.152
 2079SOL    HW1 6245   2.021   3.211   2.125
 2079SOL    HW2 6246   2.129   3.263   2.236
 2080SOL     OW 6247   1.967   2.875   3.588
 2080SOL    HW1 6248   1.890   2.842   3.642
 2080SOL    HW2 6249   2.052   2.845   3.630
 2081SOL     OW 6250   2.534   2.065   3.351
 2081SOL    HW1 6251   2.624   2.049   3.311
 2081SOL    HW2 6252   2.542   2.070   3.450
 2082SOL     OW 6253   1.937   2.207   1.895
 2082SOL    HW1 6254   1.845   2.179   1.866
 2082SOL    HW2 6255   1.968   2.284   1.839
 2083SOL     OW 6256   3.302   2.718   3.260
 2083SOL    HW1 6257   3.245   2.770   3.197
 2083SOL    HW2 6258   3.398   2.730   3.236
 2084SOL     OW 6259   1.934   2.028   2.180
 2084SOL    HW1 6260   1.917   2.111   2.126
 2084SOL    HW2 6261   2.024   1.991   2.158
 2085SOL     OW 6262   3.045   3.197   1.981
 2085SOL    HW1 6263   2.946   3.186   1.983
 2085SOL    HW2 6264   3.079   3.212   2.074
 2086SOL     OW 6265   2.475   2.704   3.293
 2086SOL    HW1 6266   2.531   2.785   3.276
 2086SOL    HW2 6267   2.534   2.624   3.296
 2087SOL     OW 6268   3.355   3.629   2.821
 2087SOL    HW1 6269   3.388   3.693   2.752
 2087SOL    HW2 6270   3.421   3.623   2.896
 2088SOL     OW 6271   2.578   2.427   3.570
 2088SOL    HW1 6272   2.597   2.492   3.644
 2088SOL    HW2 6273   2.638   2.347   3.579
 2089SOL     OW 6274   3.312   3.082   3.495
 2089SOL    HW1 6275   3.303   3.072   3.594
 2089SOL    HW2 6276   3.408   3.075   3.469
 2090SOL     OW 6277   2.252   3.603   3.422
 2090SOL    HW1 6278   2.161   3.644   3.420
 2090SOL    HW2 6279   2.245   3.509   3.454
 2091SOL     OW 6280   3.536   2.745   3.116
 2091SOL    HW1 6281   3.509   2.656   3.079
 2091SOL    HW2 6282   3.537   2.813   3.043
 2092SOL     OW 6283   3.087   2.187   2.311
 2092SOL    HW1 6284   3.152   2.113   2.300
 2092SOL    HW2 6285   3.107   2.237   2.395
 2093SOL     OW 6286   2.456   2.607   2.514
 2093SOL    HW1 6287   2.506   2.692   2.495
 2093SOL    HW2 6288   2.368   2.609   2.466
 2094SOL     OW 6289   3.639   2.204   3.504
 2094SOL    HW1 6290   3.622   2.235   3.410
 2094SOL    HW2 6291   3.555   2.167   3.542
 2095SOL     OW 6292   3.592   2.796   3.379
 2095SOL    HW1 6293   3.630   2.887   3.394
 2095SOL    HW2 6294   3.584   2.779   3.280
 2096SOL     OW 6295   2.721   3.236   1.878
 2096SOL    HW1 6296   2.675   3.251   1.966
 2096SOL    HW2 6297   2.765   3.321   1.848
 2097SOL     OW 6298   2.523   3.652   2.815
 2097SOL    HW1 6299   2.477   3.740   2.802
 2097SOL    HW2 6300   2.622   3.664   2.808
 2098SOL     OW 6301   2.721   2.818   2.723
 2098SOL    HW1 6302   2.775   2.749   2.771
 2098SOL    HW2 6303   2.689   2.887   2.789
 2099SOL     OW 6304   2.945   2.846   1.949
 2099SOL    HW1 6305   2.922   2.899   1.867
 2099SOL    HW2 6306   3.026   2.790   1.930
 2100SOL     OW 6307   3.723   3.431   2.713
 2100SOL    HW1 6308   3.652   3.419   2.643
 2100SOL    HW2 6309   3.724   3.352   2.773
 2101SOL     OW 6310   2.083   3.176   3.706
 2101SOL    HW1 6311   2.018   3.103   3.685
 2101SOL    HW2 6312   2.087   3.190   3.804
 2102SOL     OW 6313   1.941   3.102   2.515
 2102SOL    HW1 6314   1.940   3.055   2.603
 2102SOL    HW2 6315   2.023   3.074   2.464
 2103SOL     OW 6316   2.534   3.253   3.486
 2103SOL    HW1 6317   2.456   3.203   3.524
 2103SOL    HW2 6318   2.531   3.348   3.517
 2104SOL     OW 6319   3.686   2.054   3.089
 2104SOL    HW1 6320   3.682   1.964   3.133
 2104SOL    HW2 6321   3.689   2.043   2.990
 2105SOL     OW 6322   3.567   3.349   2.966
 2105SOL    HW1 6323   3.474   3.324   2.939
 2105SOL    HW2 6324   3.593   3.299   3.048
 2106SOL     OW 6325   2.179   2.409   3.142
 2106SOL    HW1 6326   2.217   2.350   3.214
 2106SOL    HW2 6327   2.219   2.383   3.054
 2107SOL     OW 6328   2.674   3.448   2.549
 2107SOL    HW1 6329   2.706   3.458   2.455
 2107SOL    HW2 6330   2.595   3.386   2.551
 2108SOL     OW 6331   3.286   2.076   2.974
 2108SOL    HW1 6332   3.338   2.011   3.029
 2108SOL    HW2 6333   3.237   2.139   3.035
 2109SOL     OW 6334   2.863   1.896   3.016
 2109SOL    HW1 6335   2.800   1.824   2.985
 2109SOL    HW2 6336   2.956   1.860   3.016
 2110SOL     OW 6337   2.632   3.192   2.163
 2110SOL    HW1 6338   2.586   3.105   2.180
 2110SOL    HW2 6339   2.723   3.189   2.204
 2111SOL     OW 6340   2.480   3.429   3.146
 2111SOL    HW1 6341   2.475   3.511   3.203
 2111SOL    HW2 6342   2.569   3.426   3.101
 2112SOL     OW 6343   3.214   1.914   2.030
 2112SOL    HW1 6344   3.249   1.873   1.946
 2112SOL    HW2 6345   3.124   1.876   2.050
 2113SOL     OW 6346   3.162   2.315   2.553
 2113SOL    HW1 6347   3.103   2.395   2.557
 2113SOL    HW2 6348   3.177   2.280   2.646
 2114SOL     OW 6349   3.455   2.083   2.744
 2114SOL    HW1 6350   3.371   2.082   2.798
 2114SOL    HW2 6351   3.457   2.166   2.688
 2115SOL     OW 6352   1.901   2.939   2.162
 2115SOL    HW1 6353   2.000   2.928   2.153
 2115SOL    HW2 6354   1.861   2.853   2.194
 2116SOL     OW 6355   2.737   3.508   2.199
 2116SOL    HW1 6356   2.660   3.473   2.145
 2116SOL    HW2 6357   2.705   3.579   2.261
 2117SOL     OW 6358   2.092   2.490   3.837
 2117SOL    HW1 6359   1.999   2.488   3.874
 2117SOL    HW2 6360   2.093   2.451   3.745
 2118SOL     OW 6361   3.617   2.469   3.955
 2118SOL    HW1 6362   3.605   2.456   3.856
 2118SOL    HW2 6363   3.587   2.388   4.004
 2119SOL     OW 6364   2.093   3.575   4.207
 2119SOL    HW1 6365   2.127   3.652   4.261
 2119SOL    HW2 6366   2.137   3.575   4.117
 2120SOL     OW 6367   2.092   3.296   4.262
 2120SOL    HW1 6368   2.066   3.392   4.262
 2120SOL    HW2 6369   2.021   3.242   4.307
 2121SOL     OW 6370   2.468   2.826   3.847
 2121SOL    HW1 6371   2.475   2.910   3.793
 2121SOL    HW2 6372   2.514   2.839   3.935
 2122SOL     OW 6373   1.984   2.505   4.287
 2122SOL    HW1 6374   1.939   2.417   4.304
 2122SOL    HW2 6375   1.983   2.559   4.371
 2123SOL     OW 6376   3.704   3.629   4.083
 2123SOL    HW1 6377   3.758   3.600   4.163
 2123SOL    HW2 6378   3.734   3.719   4.054
 2124SOL     OW 6379   1.889   3.458   3.841
 2124SOL    HW1 6380   1.870   3.362   3.862
 2124SOL    HW2 6381   1.856   3.516   3.916
 2125SOL     OW 6382   3.551   2.784   4.336
 2125SOL    HW1 6383   3.646   2.755   4.344
 2125SOL    HW2 6384   3.543   2.849   4.261
 2126SOL     OW 6385   3.503   2.970   4.156
 2126SOL    HW1 6386   3.589   2.972   4.104
 2126SOL    HW2 6387   3.517   3.017   4.244
 2127SOL     OW 6388   2.475   3.227   4.450
 2127SOL    HW1 6389   2.426   3.140   4.459
 2127SOL    HW2 6390   2.452   3.270   4.363
 2128SOL     OW 6391   2.671   1.866   4.226
 2128SOL    HW1 6392   2.711   1.957   4.217
 2128SOL    HW2 6393   2.571   1.874   4.232
 2129SOL     OW 6394   3.387   2.861   3.914
 2129SOL    HW1 6395   3.324   2.785   3.927
 2129SOL    HW2 6396   3.435   2.879   4.000
 2130SOL     OW 6397   3.328   3.279   4.677
 2130SOL    HW1 6398   3.269   3.285   4.757
 2130SOL    HW2 6399   3.313   3.191   4.631
 2131SOL     OW 6400   2.460   2.591   3.994
 2131SOL    HW1 6401   2.484   2.660   3.926
 2131SOL    HW2 6402   2.382   2.624   4.048
 2132SOL     OW 6403   3.438   3.524   4.031
 2132SOL    HW1 6404   3.527   3.570   4.034
 2132SOL    HW2 6405   3.417   3.500   3.936
 2133SOL     OW 6406   2.903   2.563   4.153
 2133SOL    HW1 6407   2.929   2.559   4.249
 2133SOL    HW2 6408   2.818   2.512   4.139
 2134SOL     OW 6409   1.938   2.673   4.513
 2134SOL    HW1 6410   2.037   2.661   4.522
 2134SOL    HW2 6411   1.914   2.768   4.534
 2135SOL     OW 6412   2.727   2.210   3.919
 2135SOL    HW1 6413   2.786   2.273   3.870
 2135SOL    HW2 6414   2.746   2.116   3.890
 2136SOL     OW 6415   3.224   3.006   4.269
 2136SOL    HW1 6416   3.307   2.977   4.221
 2136SOL    HW2 6417   3.175   3.073   4.213
 2137SOL     OW 6418   2.870   3.318   4.201
 2137SOL    HW1 6419   2.824   3.390   4.149
 2137SOL    HW2 6420   2.866   3.338   4.299
 2138SOL     OW 6421   2.213   3.663   4.577
 2138SOL    HW1 6422   2.263   3.577   4.583
 2138SOL    HW2 6423   2.278   3.740   4.574
 2139SOL     OW 6424   2.183   2.805   3.966
 2139SOL    HW1 6425   2.265   2.844   3.924
 2139SOL    HW2 6426   2.156   2.723   3.917
 2140SOL     OW 6427   2.973   3.638   3.961
 2140SOL    HW1 6428   2.913   3.576   4.011
 2140SOL    HW2 6429   3.004   3.594   3.876
 2141SOL     OW 6430   3.494   3.239   3.805
 2141SOL    HW1 6431   3.462   3.333   3.795
 2141SOL    HW2 6432   3.418   3.176   3.793
 2142SOL     OW 6433   2.326   3.605   4.047
 2142SOL    HW1 6434   2.359   3.644   4.133
 2142SOL    HW2 6435   2.402   3.598   3.982
 2143SOL     OW 6436   3.262   1.969   4.150
 2143SOL    HW1 6437   3.238   1.932   4.060
 2143SOL    HW2 6438   3.361   1.985   4.154
 2144SOL     OW 6439   2.244   2.562   4.204
 2144SOL    HW1 6440   2.289   2.472   4.201
 2144SOL    HW2 6441   2.150   2.551   4.237
 2145SOL     OW 6442   2.476   1.984   3.841
 2145SOL    HW1 6443   2.574   1.962   3.848
 2145SOL    HW2 6444   2.445   1.967   3.748
 2146SOL     OW 6445   2.401   1.926   4.236
 2146SOL    HW1 6446   2.320   1.927   4.294
 2146SOL    HW2 6447   2.404   2.009   4.181
 2147SOL     OW 6448   3.296   3.050   3.765
 2147SOL    HW1 6449   3.328   2.974   3.822
 2147SOL    HW2 6450   3.204   3.077   3.795
 2148SOL     OW 6451   2.159   1.897   3.895
 2148SOL    HW1 6452   2.208   1.981   3.874
 2148SOL    HW2 6453   2.221   1.832   3.940
 2149SOL     OW 6454   2.797   2.098   4.204
 2149SOL    HW1 6455   2.749   2.139   4.126
 2149SOL    HW2 6456   2.896   2.096   4.185
 2150SOL     OW 6457   2.321   3.014   4.465
 2150SOL    HW1 6458   2.250   2.987   4.530
 2150SOL    HW2 6459   2.295   2.986   4.372
 2151SOL     OW 6460   3.133   3.659   4.315
 2151SOL    HW1 6461   3.177   3.723   4.251
 2151SOL    HW2 6462   3.083   3.711   4.385
 2152SOL     OW 6463   2.894   2.411   3.740
 2152SOL    HW1 6464   2.853   2.493   3.701
 2152SOL    HW2 6465   2.958   2.437   3.813
 2153SOL     OW 6466   2.728   2.316   4.366
 2153SOL    HW1 6467   2.696   2.388   4.304
 2153SOL    HW2 6468   2.752   2.235   4.313
 2154SOL     OW 6469   3.719   2.695   4.101
 2154SOL    HW1 6470   3.761   2.631   4.165
 2154SOL    HW2 6471   3.681   2.644   4.023
 2155SOL     OW 6472   2.350   3.247   3.898
 2155SOL    HW1 6473   2.263   3.232   3.945
 2155SOL    HW2 6474   2.333   3.273   3.803
 2156SOL     OW 6475   3.252   2.437   3.802
 2156SOL    HW1 6476   3.198   2.416   3.883
 2156SOL    HW2 6477   3.343   2.396   3.811
 2157SOL     OW 6478   2.389   2.118   4.052
 2157SOL    HW1 6479   2.416   2.059   3.977
 2157SOL    HW2 6480   2.389   2.213   4.021
 2158SOL     OW 6481   2.567   2.912   4.092
 2158SOL    HW1 6482   2.553   2.919   4.191
 2158SOL    HW2 6483   2.651   2.861   4.074
 2159SOL     OW 6484   2.229   2.962   4.225
 2159SOL    HW1 6485   2.222   3.045   4.169
 2159SOL    HW2 6486   2.233   2.882   4.165
 2160SOL     OW 6487   3.114   3.210   4.112
 2160SOL    HW1 6488   3.164   3.287   4.152
 2160SOL    HW2 6489   3.019   3.212   4.144
 2161SOL     OW 6490   3.444   2.501   4.196
 2161SOL    HW1 6491   3.413   2.562   4.269
 2161SOL    HW2 6492   3.494   2.553   4.127
 2162SOL     OW 6493   3.071   2.387   3.999
 2162SOL    HW1 6494   3.084   2.303   4.053
 2162SOL    HW2 6495   3.042   2.461   4.059
 2163SOL     OW 6496   2.169   1.925   4.342
 2163SOL    HW1 6497   2.158   2.019   4.375
 2163SOL    HW2 6498   2.164   1.862   4.419
 2164SOL     OW 6499   3.484   2.229   4.098
 2164SOL    HW1 6500   3.486   2.153   4.162
 2164SOL    HW2 6501   3.436   2.306   4.138
 2165SOL     OW 6502   3.402   2.136   3.849
 2165SOL    HW1 6503   3.341   2.061   3.872
 2165SOL    HW2 6504   3.424   2.188   3.932
 2166SOL     OW 6505   3.165   2.700   3.766
 2166SOL    HW1 6506   3.199   2.607   3.781
 2166SOL    HW2 6507   3.183   2.727   3.671
 2167SOL     OW 6508   1.870   3.188   3.924
 2167SOL    HW1 6509   1.777   3.209   3.893
 2167SOL    HW2 6510   1.880   3.089   3.937
 2168SOL     OW 6511   2.677   2.434   4.049
 2168SOL    HW1 6512   2.684   2.345   4.003
 2168SOL    HW2 6513   2.583   2.468   4.041
 2169SOL     OW 6514   2.335   2.362   3.915
 2169SOL    HW1 6515   2.396   2.442   3.919
 2169SOL    HW2 6516   2.240   2.393   3.922
 2170SOL     OW 6517   3.164   2.717   4.033
 2170SOL    HW1 6518   3.078   2.686   4.075
 2170SOL    HW2 6519   3.160   2.703   3.934
 2171SOL     OW 6520   3.588   1.997   4.247
 2171SOL    HW1 6521   3.661   1.980   4.180
 2171SOL    HW2 6522   3.557   1.910   4.285
 2172SOL     OW 6523   3.250   3.435   4.201
 2172SOL    HW1 6524   3.317   3.447   4.127
 2172SOL    HW2 6525   3.210   3.524   4.224
 2173SOL     OW 6526   2.534   3.478   3.878
 2173SOL    HW1 6527   2.543   3.488   3.779
 2173SOL    HW2 6528   2.494   3.389   3.899
 2174SOL     OW 6529   3.703   2.037   4.687
 2174SOL    HW1 6530   3.742   1.952   4.651
 2174SOL    HW2 6531   3.605   2.039   4.668
 2175SOL     OW 6532   3.056   3.474   3.755
 2175SOL    HW1 6533   3.062   3.381   3.792
 2175SOL    HW2 6534   2.997   3.474   3.675
 2176SOL     OW 6535   2.778   2.772   4.015
 2176SOL    HW1 6536   2.841   2.810   3.947
 2176SOL    HW2 6537   2.818   2.689   4.054
 2177SOL     OW 6538   3.366   3.469   3.768
 2177SOL    HW1 6539   3.274   3.506   3.775
 2177SOL    HW2 6540   3.404   3.489   3.678
 2178SOL     OW 6541   2.452   3.349   4.215
 2178SOL    HW1 6542   2.494   3.291   4.145
 2178SOL    HW2 6543   2.408   3.428   4.171
 2179SOL     OW 6544   2.117   3.210   4.014
 2179SOL    HW1 6545   2.021   3.211   3.987
 2179SOL    HW2 6546   2.129   3.263   4.098
 2180SOL     OW 6547   1.937   2.207   3.757
 2180SOL    HW1 6548   1.845   2.179   3.728
 2180SOL    HW2 6549   1.968   2.284   3.701
 2181SOL     OW 6550   1.934   2.028   4.042
 2181SOL    HW1 6551   1.917   2.111   3.988
 2181SOL    HW2 6552   2.024   1.991   4.020
 2182SOL     OW 6553   3.045   3.197   3.843
 2182SOL    HW1 6554   2.946   3.186   3.845
 2182SOL    HW2 6555   3.079   3.212   3.936
 2183SOL     OW 6556   3.087   2.187   4.173
 2183SOL    HW1 6557   3.152   2.113   4.162
 2183SOL    HW2 6558   3.107   2.237   4.257
 2184SOL     OW 6559   2.456   2.607   4.376
 2184SOL    HW1 6560   2.506   2.692   4.357
 2184SOL    HW2 6561   2.368   2.609   4.328
 2185SOL     OW 6562   2.721   3.236   3.740
 2185SOL    HW1 6563   2.675   3.251   3.828
 2185SOL    HW2 6564   2.765   3.321   3.710
 2186SOL     OW 6565   2.945   2.846   3.811
 2186SOL    HW1 6566   2.922   2.899   3.729
 2186SOL    HW2 6567   3.026   2.790   3.792
 2187SOL     OW 6568   1.941   3.102   4.377
 2187SOL    HW1 6569   1.940   3.055   4.465
 2187SOL    HW2 6570   2.023   3.074   4.326
 2188SOL     OW 6571   2.290   2.286   4.244
 2188SOL    HW1 6572   2.320   2.214   4.182
 2188SOL    HW2 6573   2.251   2.246   4.327
 2189SOL     OW 6574   2.632   3.192   4.025
 2189SOL    HW1 6575   2.586   3.105   4.042
 2189SOL    HW2 6576   2.723   3.189   4.066
 2190SOL     OW 6577   3.214   1.914   3.892
 2190SOL    HW1 6578   3.249   1.873   3.808
 2190SOL    HW2 6579   3.124   1.876   3.912
 2191SOL     OW 6580   3.162   2.315   4.415
 2191SOL    HW1 6581   3.103   2.395   4.419
 2191SOL    HW2 6582   3.177   2.280   4.508
 2192SOL     OW 6583   1.901   2.939   4.024
 2192SOL    HW1 6584   2.000   2.928   4.015
 2192SOL    HW2 6585   1.861   2.853   4.056
 2193SOL     OW 6586   2.737   3.508   4.061
 2193SOL    HW1 6587   2.660   3.473   4.007
 2193SOL    HW2 6588   2.705   3.579   4.123
 2194SOL     OW 6589   2.087   3.999   0.996
 2194SOL    HW1 6590   2.122   3.982   1.088
 2194SOL    HW2 6591   1.999   3.954   0.984
 2195SOL     OW 6592   1.881   4.092   0.647
 2195SOL    HW1 6593   1.799   4.135   0.686
 2195SOL    HW2 6594   1.853   4.019   0.584
 2196SOL     OW 6595   3.617   4.331   0.231
 2196SOL    HW1 6596   3.605   4.318   0.132
 2196SOL    HW2 6597   3.587   4.250   0.280
 2197SOL     OW 6598   2.300   4.116   1.499
 2197SOL    HW1 6599   2.382   4.060   1.508
 2197SOL    HW2 6600   2.219   4.058   1.503
 2198SOL     OW 6601   3.465   4.171   0.737
 2198SOL    HW1 6602   3.391   4.217   0.687
 2198SOL    HW2 6603   3.516   4.239   0.790
 2199SOL     OW 6604   3.456   3.838   1.480
 2199SOL    HW1 6605   3.438   3.905   1.408
 2199SOL    HW2 6606   3.453   3.884   1.569
 2200SOL     OW 6607   1.984   4.367   0.563
 2200SOL    HW1 6608   1.939   4.279   0.580
 2200SOL    HW2 6609   1.983   4.421   0.647
 2201SOL     OW 6610   1.975   4.461   1.597
 2201SOL    HW1 6611   2.063   4.448   1.642
 2201SOL    HW2 6612   1.962   4.558   1.575
 2202SOL     OW 6613   2.671   3.728   0.502
 2202SOL    HW1 6614   2.711   3.819   0.493
 2202SOL    HW2 6615   2.571   3.736   0.508
 2203SOL     OW 6616   2.179   3.975   1.801
 2203SOL    HW1 6617   2.250   4.046   1.807
 2203SOL    HW2 6618   2.091   4.014   1.829
 2204SOL     OW 6619   3.143   4.069   0.944
 2204SOL    HW1 6620   3.057   4.019   0.931
 2204SOL    HW2 6621   3.205   4.015   1.000
 2205SOL     OW 6622   2.669   4.329   1.465
 2205SOL    HW1 6623   2.622   4.326   1.554
 2205SOL    HW2 6624   2.618   4.274   1.399
 2206SOL     OW 6625   3.256   4.193   1.674
 2206SOL    HW1 6626   3.236   4.236   1.762
 2206SOL    HW2 6627   3.334   4.131   1.683
 2207SOL     OW 6628   2.853   4.134   1.242
 2207SOL    HW1 6629   2.776   4.168   1.296
 2207SOL    HW2 6630   2.819   4.083   1.163
 2208SOL     OW 6631   2.903   4.425   0.429
 2208SOL    HW1 6632   2.929   4.421   0.525
 2208SOL    HW2 6633   2.818   4.374   0.415
 2209SOL     OW 6634   2.727   4.072   0.195
 2209SOL    HW1 6635   2.786   4.135   0.146
 2209SOL    HW2 6636   2.746   3.978   0.166
 2210SOL     OW 6637   3.581   4.309   1.831
 2210SOL    HW1 6638   3.555   4.398   1.795
 2210SOL    HW2 6639   3.579   4.241   1.758
 2211SOL     OW 6640   2.412   3.920   0.885
 2211SOL    HW1 6641   2.407   3.915   0.985
 2211SOL    HW2 6642   2.414   4.016   0.856
 2212SOL     OW 6643   3.320   4.459   0.728
 2212SOL    HW1 6644   3.315   4.394   0.803
 2212SOL    HW2 6645   3.400   4.518   0.741
 2213SOL     OW 6646   2.064   4.009   1.498
 2213SOL    HW1 6647   1.984   4.069   1.485
 2213SOL    HW2 6648   2.054   3.960   1.584
 2214SOL     OW 6649   3.262   3.831   0.426
 2214SOL    HW1 6650   3.238   3.794   0.336
 2214SOL    HW2 6651   3.361   3.847   0.430
 2215SOL     OW 6652   3.409   3.946   1.729
 2215SOL    HW1 6653   3.404   3.983   1.821
 2215SOL    HW2 6654   3.337   3.877   1.717
 2216SOL     OW 6655   2.476   3.846   0.117
 2216SOL    HW1 6656   2.574   3.824   0.124
 2216SOL    HW2 6657   2.445   3.829   0.024
 2217SOL     OW 6658   2.643   3.988   1.749
 2217SOL    HW1 6659   2.710   3.927   1.792
 2217SOL    HW2 6660   2.570   4.007   1.814
 2218SOL     OW 6661   3.213   4.314   1.433
 2218SOL    HW1 6662   3.241   4.271   1.518
 2218SOL    HW2 6663   3.238   4.410   1.434
 2219SOL     OW 6664   2.784   4.227   0.899
 2219SOL    HW1 6665   2.759   4.218   0.803
 2219SOL    HW2 6666   2.832   4.145   0.930
 2220SOL     OW 6667   2.401   3.788   0.512
 2220SOL    HW1 6668   2.320   3.789   0.570
 2220SOL    HW2 6669   2.404   3.871   0.457
 2221SOL     OW 6670   2.797   3.960   0.480
 2221SOL    HW1 6671   2.749   4.001   0.402
 2221SOL    HW2 6672   2.896   3.958   0.461
 2222SOL     OW 6673   2.938   4.407   1.464
 2222SOL    HW1 6674   2.858   4.346   1.467
 2222SOL    HW2 6675   3.019   4.354   1.440
 2223SOL     OW 6676   2.894   4.273   0.016
 2223SOL    HW1 6677   2.853   4.355  -0.023
 2223SOL    HW2 6678   2.958   4.299   0.089
 2224SOL     OW 6679   1.940   4.280   1.386
 2224SOL    HW1 6680   2.032   4.279   1.345
 2224SOL    HW2 6681   1.934   4.354   1.453
 2225SOL     OW 6682   2.423   3.946   1.147
 2225SOL    HW1 6683   2.461   3.862   1.184
 2225SOL    HW2 6684   2.335   3.965   1.191
 2226SOL     OW 6685   2.728   4.178   0.642
 2226SOL    HW1 6686   2.696   4.250   0.580
 2226SOL    HW2 6687   2.752   4.097   0.589
 2227SOL     OW 6688   2.879   3.763   0.753
 2227SOL    HW1 6689   2.807   3.768   0.684
 2227SOL    HW2 6690   2.855   3.694   0.822
 2228SOL     OW 6691   3.328   4.314   0.992
 2228SOL    HW1 6692   3.298   4.219   0.999
 2228SOL    HW2 6693   3.401   4.330   1.058
 2229SOL     OW 6694   2.389   3.980   0.328
 2229SOL    HW1 6695   2.416   3.921   0.253
 2229SOL    HW2 6696   2.389   4.075   0.297
 2230SOL     OW 6697   2.777   3.813   1.402
 2230SOL    HW1 6698   2.802   3.793   1.307
 2230SOL    HW2 6699   2.849   3.869   1.444
 2231SOL     OW 6700   3.136   4.110   1.262
 2231SOL    HW1 6701   3.157   4.184   1.326
 2231SOL    HW2 6702   3.047   4.127   1.219
 2232SOL     OW 6703   2.428   4.261   0.865
 2232SOL    HW1 6704   2.440   4.327   0.791
 2232SOL    HW2 6705   2.474   4.295   0.948
 2233SOL     OW 6706   3.444   4.363   0.472
 2233SOL    HW1 6707   3.413   4.424   0.545
 2233SOL    HW2 6708   3.494   4.415   0.403
 2234SOL     OW 6709   2.875   3.829   1.770
 2234SOL    HW1 6710   2.881   3.914   1.718
 2234SOL    HW2 6711   2.907   3.753   1.713
 2235SOL     OW 6712   2.366   3.774   1.740
 2235SOL    HW1 6713   2.324   3.717   1.670
 2235SOL    HW2 6714   2.300   3.843   1.772
 2236SOL     OW 6715   3.071   4.249   0.275
 2236SOL    HW1 6716   3.084   4.165   0.329
 2236SOL    HW2 6717   3.042   4.323   0.335
 2237SOL     OW 6718   2.169   3.937   1.231
 2237SOL    HW1 6719   2.146   3.974   1.321
 2237SOL    HW2 6720   2.139   3.842   1.225
 2238SOL     OW 6721   2.594   4.358   1.064
 2238SOL    HW1 6722   2.653   4.332   0.988
 2238SOL    HW2 6723   2.566   4.454   1.053
 2239SOL     OW 6724   2.169   3.787   0.618
 2239SOL    HW1 6725   2.158   3.881   0.651
 2239SOL    HW2 6726   2.164   3.724   0.695
 2240SOL     OW 6727   3.484   4.091   0.374
 2240SOL    HW1 6728   3.486   4.015   0.438
 2240SOL    HW2 6729   3.436   4.168   0.414
 2241SOL     OW 6730   3.402   3.998   0.125
 2241SOL    HW1 6731   3.341   3.923   0.148
 2241SOL    HW2 6732   3.424   4.050   0.208
 2242SOL     OW 6733   2.181   4.534   0.949
 2242SOL    HW1 6734   2.274   4.570   0.954
 2242SOL    HW2 6735   2.175   4.449   1.001
 2243SOL     OW 6736   2.201   4.233   1.006
 2243SOL    HW1 6737   2.149   4.150   0.989
 2243SOL    HW2 6738   2.278   4.238   0.942
 2244SOL     OW 6739   3.000   4.104   1.678
 2244SOL    HW1 6740   2.955   4.167   1.742
 2244SOL    HW2 6741   3.093   4.135   1.661
 2245SOL     OW 6742   3.022   3.931   1.477
 2245SOL    HW1 6743   3.022   3.995   1.554
 2245SOL    HW2 6744   3.050   3.979   1.394
 2246SOL     OW 6745   1.902   4.268   1.114
 2246SOL    HW1 6746   1.987   4.235   1.073
 2246SOL    HW2 6747   1.915   4.283   1.212
 2247SOL     OW 6748   2.051   4.244   1.722
 2247SOL    HW1 6749   2.110   4.204   1.652
 2247SOL    HW2 6750   1.993   4.315   1.681
 2248SOL     OW 6751   2.677   4.296   0.325
 2248SOL    HW1 6752   2.684   4.207   0.279
 2248SOL    HW2 6753   2.583   4.330   0.317
 2249SOL     OW 6754   3.519   4.328   1.206
 2249SOL    HW1 6755   3.481   4.259   1.268
 2249SOL    HW2 6756   3.601   4.292   1.162
 2250SOL     OW 6757   2.533   4.188   1.269
 2250SOL    HW1 6758   2.499   4.099   1.239
 2250SOL    HW2 6759   2.559   4.242   1.189
 2251SOL     OW 6760   2.335   4.224   0.191
 2251SOL    HW1 6761   2.396   4.304   0.195
 2251SOL    HW2 6762   2.240   4.255   0.198
 2252SOL     OW 6763   2.765   3.810   0.133
 2252SOL    HW1 6764   2.816   3.811   0.047
 2252SOL    HW2 6765   2.821   3.768   0.204
 2253SOL     OW 6766   3.588   3.859   0.523
 2253SOL    HW1 6767   3.661   3.842   0.456
 2253SOL    HW2 6768   3.557   3.772   0.561
 2254SOL     OW 6769   3.142   4.651   0.672
 2254SOL    HW1 6770   3.202   4.570   0.674
 2254SOL    HW2 6771   3.182   4.720   0.612
 2255SOL     OW 6772   3.703   3.899   0.963
 2255SOL    HW1 6773   3.742   3.814   0.927
 2255SOL    HW2 6774   3.605   3.901   0.944
 2256SOL     OW 6775   2.125   4.050   0.720
 2256SOL    HW1 6776   2.046   4.101   0.686
 2256SOL    HW2 6777   2.116   4.035   0.818
 2257SOL     OW 6778   2.876   3.960   0.971
 2257SOL    HW1 6779   2.868   3.924   0.878
 2257SOL    HW2 6780   2.874   3.884   1.036
 2258SOL     OW 6781   3.571   4.109   1.381
 2258SOL    HW1 6782   3.644   4.178   1.385
 2258SOL    HW2 6783   3.599   4.034   1.322
 2259SOL     OW 6784   2.534   3.927   1.489
 2259SOL    HW1 6785   2.624   3.911   1.449
 2259SOL    HW2 6786   2.542   3.932   1.588
 2260SOL     OW 6787   1.937   4.069   0.033
 2260SOL    HW1 6788   1.845   4.041   0.004
 2260SOL    HW2 6789   1.968   4.146  -0.023
 2261SOL     OW 6790   2.578   4.289   1.708
 2261SOL    HW1 6791   2.597   4.354   1.782
 2261SOL    HW2 6792   2.638   4.209   1.717
 2262SOL     OW 6793   3.087   4.049   0.449
 2262SOL    HW1 6794   3.152   3.975   0.438
 2262SOL    HW2 6795   3.107   4.099   0.533
 2263SOL     OW 6796   3.639   4.066   1.642
 2263SOL    HW1 6797   3.622   4.097   1.548
 2263SOL    HW2 6798   3.555   4.029   1.680
 2264SOL     OW 6799   2.945   4.708   0.087
 2264SOL    HW1 6800   2.922   4.761   0.005
 2264SOL    HW2 6801   3.026   4.652   0.068
 2265SOL     OW 6802   3.686   3.916   1.227
 2265SOL    HW1 6803   3.682   3.826   1.271
 2265SOL    HW2 6804   3.689   3.905   1.128
 2266SOL     OW 6805   2.290   4.148   0.520
 2266SOL    HW1 6806   2.320   4.076   0.458
 2266SOL    HW2 6807   2.251   4.108   0.603
 2267SOL     OW 6808   2.179   4.271   1.280
 2267SOL    HW1 6809   2.217   4.212   1.352
 2267SOL    HW2 6810   2.219   4.245   1.192
 2268SOL     OW 6811   3.286   3.938   1.112
 2268SOL    HW1 6812   3.338   3.873   1.167
 2268SOL    HW2 6813   3.237   4.001   1.173
 2269SOL     OW 6814   2.863   3.758   1.154
 2269SOL    HW1 6815   2.800   3.686   1.123
 2269SOL    HW2 6816   2.956   3.722   1.154
 2270SOL     OW 6817   3.214   3.776   0.168
 2270SOL    HW1 6818   3.249   3.735   0.084
 2270SOL    HW2 6819   3.124   3.738   0.188
 2271SOL     OW 6820   3.162   4.177   0.691
 2271SOL    HW1 6821   3.103   4.257   0.695
 2271SOL    HW2 6822   3.177   4.142   0.784
 2272SOL     OW 6823   3.455   3.945   0.882
 2272SOL    HW1 6824   3.371   3.944   0.936
 2272SOL    HW2 6825   3.457   4.028   0.826
 2273SOL     OW 6826   2.087   3.999   2.858
 2273SOL    HW1 6827   2.122   3.982   2.950
 2273SOL    HW2 6828   1.999   3.954   2.846
 2274SOL     OW 6829   1.881   4.092   2.509
 2274SOL    HW1 6830   1.799   4.135   2.548
 2274SOL    HW2 6831   1.853   4.019   2.446
 2275SOL     OW 6832   3.617   4.331   2.093
 2275SOL    HW1 6833   3.605   4.318   1.994
 2275SOL    HW2 6834   3.587   4.250   2.142
 2276SOL     OW 6835   2.300   4.116   3.361
 2276SOL    HW1 6836   2.382   4.060   3.370
 2276SOL    HW2 6837   2.219   4.058   3.365
 2277SOL     OW 6838   3.465   4.171   2.599
 2277SOL    HW1 6839   3.391   4.217   2.549
 2277SOL    HW2 6840   3.516   4.239   2.652
 2278SOL     OW 6841   3.456   3.838   3.342
 2278SOL    HW1 6842   3.438   3.905   3.270
 2278SOL    HW2 6843   3.453   3.884   3.431
 2279SOL     OW 6844   1.984   4.367   2.425
 2279SOL    HW1 6845   1.939   4.279   2.442
 2279SOL    HW2 6846   1.983   4.421   2.509
 2280SOL     OW 6847   1.975   4.461   3.459
 2280SOL    HW1 6848   2.063   4.448   3.504
 2280SOL    HW2 6849   1.962   4.558   3.437
 2281SOL     OW 6850   2.671   3.728   2.364
 2281SOL    HW1 6851   2.711   3.819   2.355
 2281SOL    HW2 6852   2.571   3.736   2.370
 2282SOL     OW 6853   2.179   3.975   3.663
 2282SOL    HW1 6854   2.250   4.046   3.669
 2282SOL    HW2 6855   2.091   4.014   3.691
 2283SOL     OW 6856   3.143   4.069   2.806
 2283SOL    HW1 6857   3.057   4.019   2.793
 2283SOL    HW2 6858   3.205   4.015   2.862
 2284SOL     OW 6859   2.669   4.329   3.327
 2284SOL    HW1 6860   2.622   4.326   3.416
 2284SOL    HW2 6861   2.618   4.274   3.261
 2285SOL     OW 6862   3.256   4.193   3.536
 2285SOL    HW1 6863   3.236   4.236   3.624
 2285SOL    HW2 6864   3.334   4.131   3.545
 2286SOL     OW 6865   2.853   4.134   3.104
 2286SOL    HW1 6866   2.776   4.168   3.158
 2286SOL    HW2 6867   2.819   4.083   3.025
 2287SOL     OW 6868   2.903   4.425   2.291
 2287SOL    HW1 6869   2.929   4.421   2.387
 2287SOL    HW2 6870   2.818   4.374   2.277
 2288SOL     OW 6871   2.727   4.072   2.057
 2288SOL    HW1 6872   2.786   4.135   2.008
 2288SOL    HW2 6873   2.746   3.978   2.028
 2289SOL     OW 6874   3.581   4.309   3.693
 2289SOL    HW1 6875   3.555   4.398   3.657
 2289SOL    HW2 6876   3.579   4.241   3.620
 2290SOL     OW 6877   2.412   3.920   2.747
 2290SOL    HW1 6878   2.407   3.915   2.847
 2290SOL    HW2 6879   2.414   4.016   2.718
 2291SOL     OW 6880   3.320   4.459   2.590
 2291SOL    HW1 6881   3.315   4.394   2.665
 2291SOL    HW2 6882   3.400   4.518   2.603
 2292SOL     OW 6883   2.064   4.009   3.360
 2292SOL    HW1 6884   1.984   4.069   3.347
 2292SOL    HW2 6885   2.054   3.960   3.446
 2293SOL     OW 6886   3.262   3.831   2.288
 2293SOL    HW1 6887   3.238   3.794   2.198
 2293SOL    HW2 6888   3.361   3.847   2.292
 2294SOL     OW 6889   3.409   3.946   3.591
 2294SOL    HW1 6890   3.404   3.983   3.683
 2294SOL    HW2 6891   3.337   3.877   3.579
 2295SOL     OW 6892   2.476   3.846   1.979
 2295SOL    HW1 6893   2.574   3.824   1.986
 2295SOL    HW2 6894   2.445   3.829   1.886
 2296SOL     OW 6895   2.643   3.988   3.611
 2296SOL    HW1 6896   2.710   3.927   3.654
 2296SOL    HW2 6897   2.570   4.007   3.676
 2297SOL     OW 6898   3.213   4.314   3.295
 2297SOL    HW1 6899   3.241   4.271   3.380
 2297SOL    HW2 6900   3.238   4.410   3.296
 2298SOL     OW 6901   2.784   4.227   2.761
 2298SOL    HW1 6902   2.759   4.218   2.665
 2298SOL    HW2 6903   2.832   4.145   2.792
 2299SOL     OW 6904   2.401   3.788   2.374
 2299SOL    HW1 6905   2.320   3.789   2.432
 2299SOL    HW2 6906   2.404   3.871   2.319
 2300SOL     OW 6907   2.159   3.759   2.033
 2300SOL    HW1 6908   2.208   3.843   2.012
 2300SOL    HW2 6909   2.221   3.694   2.078
 2301SOL     OW 6910   2.797   3.960   2.342
 2301SOL    HW1 6911   2.749   4.001   2.264
 2301SOL    HW2 6912   2.896   3.958   2.323
 2302SOL     OW 6913   2.938   4.407   3.326
 2302SOL    HW1 6914   2.858   4.346   3.329
 2302SOL    HW2 6915   3.019   4.354   3.302
 2303SOL     OW 6916   2.894   4.273   1.878
 2303SOL    HW1 6917   2.853   4.355   1.839
 2303SOL    HW2 6918   2.958   4.299   1.951
 2304SOL     OW 6919   1.940   4.280   3.248
 2304SOL    HW1 6920   2.032   4.279   3.207
 2304SOL    HW2 6921   1.934   4.354   3.315
 2305SOL     OW 6922   2.423   3.946   3.009
 2305SOL    HW1 6923   2.461   3.862   3.046
 2305SOL    HW2 6924   2.335   3.965   3.053
 2306SOL     OW 6925   2.728   4.178   2.504
 2306SOL    HW1 6926   2.696   4.250   2.442
 2306SOL    HW2 6927   2.752   4.097   2.451
 2307SOL     OW 6928   2.879   3.763   2.615
 2307SOL    HW1 6929   2.807   3.768   2.546
 2307SOL    HW2 6930   2.855   3.694   2.684
 2308SOL     OW 6931   3.328   4.314   2.854
 2308SOL    HW1 6932   3.298   4.219   2.861
 2308SOL    HW2 6933   3.401   4.330   2.920
 2309SOL     OW 6934   2.389   3.980   2.190
 2309SOL    HW1 6935   2.416   3.921   2.115
 2309SOL    HW2 6936   2.389   4.075   2.159
 2310SOL     OW 6937   2.777   3.813   3.264
 2310SOL    HW1 6938   2.802   3.793   3.169
 2310SOL    HW2 6939   2.849   3.869   3.306
 2311SOL     OW 6940   3.136   4.110   3.124
 2311SOL    HW1 6941   3.157   4.184   3.188
 2311SOL    HW2 6942   3.047   4.127   3.081
 2312SOL     OW 6943   2.428   4.261   2.727
 2312SOL    HW1 6944   2.440   4.327   2.653
 2312SOL    HW2 6945   2.474   4.295   2.810
 2313SOL     OW 6946   3.444   4.363   2.334
 2313SOL    HW1 6947   3.413   4.424   2.407
 2313SOL    HW2 6948   3.494   4.415   2.265
 2314SOL     OW 6949   2.875   3.829   3.632
 2314SOL    HW1 6950   2.881   3.914   3.580
 2314SOL    HW2 6951   2.907   3.753   3.575
 2315SOL     OW 6952   2.366   3.774   3.602
 2315SOL    HW1 6953   2.324   3.717   3.532
 2315SOL    HW2 6954   2.300   3.843   3.634
 2316SOL     OW 6955   3.071   4.249   2.137
 2316SOL    HW1 6956   3.084   4.165   2.191
 2316SOL    HW2 6957   3.042   4.323   2.197
 2317SOL     OW 6958   2.169   3.937   3.093
 2317SOL    HW1 6959   2.146   3.974   3.183
 2317SOL    HW2 6960   2.139   3.842   3.087
 2318SOL     OW 6961   2.594   4.358   2.926
 2318SOL    HW1 6962   2.653   4.332   2.850
 2318SOL    HW2 6963   2.566   4.454   2.915
 2319SOL     OW 6964   2.169   3.787   2.480
 2319SOL    HW1 6965   2.158   3.881   2.513
 2319SOL    HW2 6966   2.164   3.724   2.557
 2320SOL     OW 6967   3.484   4.091   2.236
 2320SOL    HW1 6968   3.486   4.015   2.300
 2320SOL    HW2 6969   3.436   4.168   2.276
 2321SOL     OW 6970   3.402   3.998   1.987
 2321SOL    HW1 6971   3.341   3.923   2.010
 2321SOL    HW2 6972   3.424   4.050   2.070
 2322SOL     OW 6973   2.181   4.534   2.811
 2322SOL    HW1 6974   2.274   4.570   2.816
 2322SOL    HW2 6975   2.175   4.449   2.863
 2323SOL     OW 6976   2.201   4.233   2.868
 2323SOL    HW1 6977   2.149   4.150   2.851
 2323SOL    HW2 6978   2.278   4.238   2.804
 2324SOL     OW 6979   3.000   4.104   3.540
 2324SOL    HW1 6980   2.955   4.167   3.604
 2324SOL    HW2 6981   3.093   4.135   3.523
 2325SOL     OW 6982   3.022   3.931   3.339
 2325SOL    HW1 6983   3.022   3.995   3.416
 2325SOL    HW2 6984   3.050   3.979   3.256
 2326SOL     OW 6985   1.902   4.268   2.976
 2326SOL    HW1 6986   1.987   4.235   2.935
 2326SOL    HW2 6987   1.915   4.283   3.074
 2327SOL     OW 6988   2.051   4.244   3.584
 2327SOL    HW1 6989   2.110   4.204   3.514
 2327SOL    HW2 6990   1.993   4.315   3.543
 2328SOL     OW 6991   2.677   4.296   2.187
 2328SOL    HW1 6992   2.684   4.207   2.141
 2328SOL    HW2 6993   2.583   4.330   2.179
 2329SOL     OW 6994   3.519   4.328   3.068
 2329SOL    HW1 6995   3.481   4.259   3.130
 2329SOL    HW2 6996   3.601   4.292   3.024
 2330SOL     OW 6997   2.533   4.188   3.131
 2330SOL    HW1 6998   2.499   4.099   3.101
 2330SOL    HW2 6999   2.559   4.242   3.051
 2331SOL     OW 7000   2.335   4.224   2.053
 2331SOL    HW1 7001   2.396   4.304   2.057
 2331SOL    HW2 7002   2.240   4.255   2.060
 2332SOL     OW 7003   3.588   3.859   2.385
 2332SOL    HW1 7004   3.661   3.842   2.318
 2332SOL    HW2 7005   3.557   3.772   2.423
 2333SOL     OW 7006   3.142   4.651   2.534
 2333SOL    HW1 7007   3.202   4.570   2.536
 2333SOL    HW2 7008   3.182   4.720   2.474
 2334SOL     OW 7009   3.703   3.899   2.825
 2334SOL    HW1 7010   3.742   3.814   2.789
 2334SOL    HW2 7011   3.605   3.901   2.806
 2335SOL     OW 7012   2.125   4.050   2.582
 2335SOL    HW1 7013   2.046   4.101   2.548
 2335SOL    HW2 7014   2.116   4.035   2.680
 2336SOL     OW 7015   2.876   3.960   2.833
 2336SOL    HW1 7016   2.868   3.924   2.740
 2336SOL    HW2 7017   2.874   3.884   2.898
 2337SOL     OW 7018   3.571   4.109   3.243
 2337SOL    HW1 7019   3.644   4.178   3.247
 2337SOL    HW2 7020   3.599   4.034   3.184
 2338SOL     OW 7021   2.534   3.927   3.351
 2338SOL    HW1 7022   2.624   3.911   3.311
 2338SOL    HW2 7023   2.542   3.932   3.450
 2339SOL     OW 7024   1.937   4.069   1.895
 2339SOL    HW1 7025   1.845   4.041   1.866
 2339SOL    HW2 7026   1.968   4.146   1.839
 2340SOL     OW 7027   1.934   3.890   2.180
 2340SOL    HW1 7028   1.917   3.973   2.126
 2340SOL    HW2 7029   2.024   3.853   2.158
 2341SOL     OW 7030   2.578   4.289   3.570
 2341SOL    HW1 7031   2.597   4.354   3.644
 2341SOL    HW2 7032   2.638   4.209   3.579
 2342SOL     OW 7033   3.087   4.049   2.311
 2342SOL    HW1 7034   3.152   3.975   2.300
 2342SOL    HW2 7035   3.107   4.099   2.395
 2343SOL     OW 7036   3.639   4.066   3.504
 2343SOL    HW1 7037   3.622   4.097   3.410
 2343SOL    HW2 7038   3.555   4.029   3.542
 2344SOL     OW 7039   2.945   4.708   1.949
 2344SOL    HW1 7040   2.922   4.761   1.867
 2344SOL    HW2 7041   3.026   4.652   1.930
 2345SOL     OW 7042   3.686   3.916   3.089
 2345SOL    HW1 7043   3.682   3.826   3.133
 2345SOL    HW2 7044   3.689   3.905   2.990
 2346SOL     OW 7045   2.290   4.148   2.382
 2346SOL    HW1 7046   2.320   4.076   2.320
 2346SOL    HW2 7047   2.251   4.108   2.465
 2347SOL     OW 7048   2.179   4.271   3.142
 2347SOL    HW1 7049   2.217   4.212   3.214
 2347SOL    HW2 7050   2.219   4.245   3.054
 2348SOL     OW 7051   3.286   3.938   2.974
 2348SOL    HW1 7052   3.338   3.873   3.029
 2348SOL    HW2 7053   3.237   4.001   3.035
 2349SOL     OW 7054   2.863   3.758   3.016
 2349SOL    HW1 7055   2.800   3.686   2.985
 2349SOL    HW2 7056   2.956   3.722   3.016
 2350SOL     OW 7057   3.214   3.776   2.030
 2350SOL    HW1 7058   3.249   3.735   1.946
 2350SOL    HW2 7059   3.124   3.738   2.050
 2351SOL     OW 7060   3.162   4.177   2.553
 2351SOL    HW1 7061   3.103   4.257   2.557
 2351SOL    HW2 7062   3.177   4.142   2.646
 2352SOL     OW 7063   3.455   3.945   2.744
 2352SOL    HW1 7064   3.371   3.944   2.798
 2352SOL    HW2 7065   3.457   4.028   2.688
 2353SOL     OW 7066   2.997   4.427   4.441
 2353SOL    HW1 7067   3.054   4.505   4.416
 2353SOL    HW2 7068   2.937   4.453   4.517
 2354SOL     OW 7069   3.617   4.331   3.955
 2354SOL    HW1 7070   3.605   4.318   3.856
 2354SOL    HW2 7071   3.587   4.250   4.004
 2355SOL     OW 7072   1.984   4.367   4.287
 2355SOL    HW1 7073   1.939   4.279   4.304
 2355SOL    HW2 7074   1.983   4.421   4.371
 2356SOL     OW 7075   2.671   3.728   4.226
 2356SOL    HW1 7076   2.711   3.819   4.217
 2356SOL    HW2 7077   2.571   3.736   4.232
 2357SOL     OW 7078   2.903   4.425   4.153
 2357SOL    HW1 7079   2.929   4.421   4.249
 2357SOL    HW2 7080   2.818   4.374   4.139
 2358SOL     OW 7081   2.727   4.072   3.919
 2358SOL    HW1 7082   2.786   4.135   3.870
 2358SOL    HW2 7083   2.746   3.978   3.890
 2359SOL     OW 7084   3.262   3.831   4.150
 2359SOL    HW1 7085   3.238   3.794   4.060
 2359SOL    HW2 7086   3.361   3.847   4.154
 2360SOL     OW 7087   2.476   3.846   3.841
 2360SOL    HW1 7088   2.574   3.824   3.848
 2360SOL    HW2 7089   2.445   3.829   3.748
 2361SOL     OW 7090   2.401   3.788   4.236
 2361SOL    HW1 7091   2.320   3.789   4.294
 2361SOL    HW2 7092   2.404   3.871   4.181
 2362SOL     OW 7093   2.159   3.759   3.895
 2362SOL    HW1 7094   2.208   3.843   3.874
 2362SOL    HW2 7095   2.221   3.694   3.940
 2363SOL     OW 7096   2.797   3.960   4.204
 2363SOL    HW1 7097   2.749   4.001   4.126
 2363SOL    HW2 7098   2.896   3.958   4.185
 2364SOL     OW 7099   2.894   4.273   3.740
 2364SOL    HW1 7100   2.853   4.355   3.701
 2364SOL    HW2 7101   2.958   4.299   3.813
 2365SOL     OW 7102   2.728   4.178   4.366
 2365SOL    HW1 7103   2.696   4.250   4.304
 2365SOL    HW2 7104   2.752   4.097   4.313
 2366SOL     OW 7105   2.389   3.980   4.052
 2366SOL    HW1 7106   2.416   3.921   3.977
 2366SOL    HW2 7107   2.389   4.075   4.021
 2367SOL     OW 7108   3.444   4.363   4.196
 2367SOL    HW1 7109   3.413   4.424   4.269
 2367SOL    HW2 7110   3.494   4.415   4.127
 2368SOL     OW 7111   3.071   4.249   3.999
 2368SOL    HW1 7112   3.084   4.165   4.053
 2368SOL    HW2 7113   3.042   4.323   4.059
 2369SOL     OW 7114   2.169   3.787   4.342
 2369SOL    HW1 7115   2.158   3.881   4.375
 2369SOL    HW2 7116   2.164   3.724   4.419
 2370SOL     OW 7117   3.484   4.091   4.098
 2370SOL    HW1 7118   3.486   4.015   4.162
 2370SOL    HW2 7119   3.436   4.168   4.138
 2371SOL     OW 7120   3.402   3.998   3.849
 2371SOL    HW1 7121   3.341   3.923   3.872
 2371SOL    HW2 7122   3.424   4.050   3.932
 2372SOL     OW 7123   2.677   4.296   4.049
 2372SOL    HW1 7124   2.684   4.207   4.003
 2372SOL    HW2 7125   2.583   4.330   4.041
 2373SOL     OW 7126   2.335   4.224   3.915
 2373SOL    HW1 7127   2.396   4.304   3.919
 2373SOL    HW2 7128   2.240   4.255   3.922
 2374SOL     OW 7129   3.588   3.859   4.247
 2374SOL    HW1 7130   3.661   3.842   4.180
 2374SOL    HW2 7131   3.557   3.772   4.285
 2375SOL     OW 7132   3.703   3.899   4.687
 2375SOL    HW1 7133   3.742   3.814   4.651
 2375SOL    HW2 7134   3.605   3.901   4.668
 2376SOL     OW 7135   1.937   4.069   3.757
 2376SOL    HW1 7136   1.845   4.041   3.728
 2376SOL    HW2 7137   1.968   4.146   3.701
 2377SOL     OW 7138   1.934   3.890   4.042
 2377SOL    HW1 7139   1.917   3.973   3.988
 2377SOL    HW2 7140   2.024   3.853   4.020
 2378SOL     OW 7141   3.087   4.049   4.173
 2378SOL    HW1 7142   3.152   3.975   4.162
 2378SOL    HW2 7143   3.107   4.099   4.257
 2379SOL     OW 7144   2.945   4.708   3.811
 2379SOL    HW1 7145   2.922   4.761   3.729
 2379SOL    HW2 7146   3.026   4.652   3.792
 2380SOL     OW 7147   2.290   4.148   4.244
 2380SOL    HW1 7148   2.320   4.076   4.182
 2380SOL    HW2 7149   2.251   4.108   4.327
 2381SOL     OW 7150   3.214   3.776   3.892
 2381SOL    HW1 7151   3.249   3.735   3.808
 2381SOL    HW2 7152   3.124   3.738   3.912
 2382SOL     OW 7153   3.162   4.177   4.415
 2382SOL    HW1 7154   3.103   4.257   4.419
 2382SOL    HW2 7155   3.177   4.142   4.508
 2383SOL     OW 7156   3.954   0.628   0.113
 2383SOL    HW1 7157   3.861   0.626   0.150
 2383SOL    HW2 7158   3.955   0.589   0.021
 2384SOL     OW 7159   3.949   0.275   0.996
 2384SOL    HW1 7160   3.984   0.258   1.088
 2384SOL    HW2 7161   3.861   0.230   0.984
 2385SOL     OW 7162   3.743   0.368   0.647
 2385SOL    HW1 7163   3.661   0.411   0.686
 2385SOL    HW2 7164   3.715   0.295   0.584
 2386SOL     OW 7165   4.293   1.275   1.165
 2386SOL    HW1 7166   4.200   1.268   1.128
 2386SOL    HW2 7167   4.304   1.364   1.209
 2387SOL     OW 7168   4.574   0.798   1.823
 2387SOL    HW1 7169   4.570   0.874   1.888
 2387SOL    HW2 7170   4.596   0.834   1.732
 2388SOL     OW 7171   4.059   1.435   1.061
 2388SOL    HW1 7172   3.981   1.404   1.008
 2388SOL    HW2 7173   4.117   1.493   1.004
 2389SOL     OW 7174   4.162   0.392   1.499
 2389SOL    HW1 7175   4.244   0.336   1.508
 2389SOL    HW2 7176   4.081   0.334   1.503
 2390SOL     OW 7177   3.955   1.713   0.483
 2390SOL    HW1 7178   3.989   1.790   0.537
 2390SOL    HW2 7179   3.999   1.713   0.393
 2391SOL     OW 7180   3.954   1.434   0.538
 2391SOL    HW1 7181   3.928   1.530   0.538
 2391SOL    HW2 7182   3.883   1.380   0.583
 2392SOL     OW 7183   3.964   1.091   0.886
 2392SOL    HW1 7184   3.978   1.007   0.938
 2392SOL    HW2 7185   3.909   1.155   0.941
 2393SOL     OW 7186   3.846   0.643   0.563
 2393SOL    HW1 7187   3.801   0.555   0.580
 2393SOL    HW2 7188   3.845   0.697   0.647
 2394SOL     OW 7189   3.751   1.596   0.117
 2394SOL    HW1 7190   3.732   1.500   0.138
 2394SOL    HW2 7191   3.718   1.654   0.192
 2395SOL     OW 7192   3.837   0.737   1.597
 2395SOL    HW1 7193   3.925   0.724   1.642
 2395SOL    HW2 7194   3.824   0.834   1.575
 2396SOL     OW 7195   4.337   1.365   0.726
 2396SOL    HW1 7196   4.288   1.278   0.735
 2396SOL    HW2 7197   4.314   1.408   0.639
 2397SOL     OW 7198   3.921   0.976   1.264
 2397SOL    HW1 7199   4.010   0.931   1.250
 2397SOL    HW2 7200   3.848   0.911   1.245
 2398SOL     OW 7201   4.041   0.251   1.801
 2398SOL    HW1 7202   4.112   0.322   1.807
 2398SOL    HW2 7203   3.953   0.290   1.829
 2399SOL     OW 7204   4.322   0.729   0.270
 2399SOL    HW1 7205   4.346   0.798   0.202
 2399SOL    HW2 7206   4.244   0.762   0.324
 2400SOL     OW 7207   3.800   0.811   0.789
 2400SOL    HW1 7208   3.899   0.799   0.798
 2400SOL    HW2 7209   3.776   0.906   0.810
 2401SOL     OW 7210   3.854   1.821   1.571
 2401SOL    HW1 7211   3.844   1.806   1.670
 2401SOL    HW2 7212   3.768   1.857   1.535
 2402SOL     OW 7213   4.589   0.348   0.195
 2402SOL    HW1 7214   4.648   0.411   0.146
 2402SOL    HW2 7215   4.608   0.254   0.166
 2403SOL     OW 7216   4.274   0.196   0.885
 2403SOL    HW1 7217   4.269   0.191   0.985
 2403SOL    HW2 7218   4.276   0.292   0.856
 2404SOL     OW 7219   4.075   1.801   0.853
 2404SOL    HW1 7220   4.125   1.715   0.859
 2404SOL    HW2 7221   4.140   1.878   0.850
 2405SOL     OW 7222   4.045   0.943   0.242
 2405SOL    HW1 7223   4.127   0.982   0.200
 2405SOL    HW2 7224   4.018   0.861   0.193
 2406SOL     OW 7225   4.185   1.266   1.727
 2406SOL    HW1 7226   4.135   1.267   1.641
 2406SOL    HW2 7227   4.122   1.248   1.803
 2407SOL     OW 7228   3.926   0.285   1.498
 2407SOL    HW1 7229   3.846   0.345   1.485
 2407SOL    HW2 7230   3.916   0.236   1.584
 2408SOL     OW 7231   4.188   1.743   0.323
 2408SOL    HW1 7232   4.221   1.782   0.409
 2408SOL    HW2 7233   4.264   1.736   0.258
 2409SOL     OW 7234   3.973   1.785   1.241
 2409SOL    HW1 7235   4.030   1.720   1.291
 2409SOL    HW2 7236   3.957   1.752   1.148
 2410SOL     OW 7237   4.106   0.700   0.480
 2410SOL    HW1 7238   4.151   0.610   0.477
 2410SOL    HW2 7239   4.012   0.689   0.513
 2411SOL     OW 7240   4.527   1.402   0.924
 2411SOL    HW1 7241   4.617   1.416   0.882
 2411SOL    HW2 7242   4.456   1.404   0.853
 2412SOL     OW 7243   4.263   0.064   0.512
 2412SOL    HW1 7244   4.182   0.065   0.570
 2412SOL    HW2 7245   4.266   0.147   0.457
 2413SOL     OW 7246   4.021   0.035   0.171
 2413SOL    HW1 7247   4.070   0.119   0.150
 2413SOL    HW2 7248   4.083  -0.030   0.216
 2414SOL     OW 7249   4.659   0.236   0.480
 2414SOL    HW1 7250   4.611   0.277   0.402
 2414SOL    HW2 7251   4.758   0.234   0.461
 2415SOL     OW 7252   4.183   1.152   0.741
 2415SOL    HW1 7253   4.112   1.125   0.806
 2415SOL    HW2 7254   4.157   1.124   0.648
 2416SOL     OW 7255   3.802   0.556   1.386
 2416SOL    HW1 7256   3.894   0.555   1.345
 2416SOL    HW2 7257   3.796   0.630   1.453
 2417SOL     OW 7258   4.285   0.222   1.147
 2417SOL    HW1 7259   4.323   0.138   1.184
 2417SOL    HW2 7260   4.197   0.241   1.191
 2418SOL     OW 7261   4.251   0.256   0.328
 2418SOL    HW1 7262   4.278   0.197   0.253
 2418SOL    HW2 7263   4.251   0.351   0.297
 2419SOL     OW 7264   4.134   0.813   1.251
 2419SOL    HW1 7265   4.220   0.825   1.301
 2419SOL    HW2 7266   4.092   0.726   1.278
 2420SOL     OW 7267   3.788   1.564   1.331
 2420SOL    HW1 7268   3.742   1.646   1.297
 2420SOL    HW2 7269   3.886   1.583   1.340
 2421SOL     OW 7270   4.091   1.100   0.501
 2421SOL    HW1 7271   4.084   1.183   0.445
 2421SOL    HW2 7272   4.095   1.020   0.441
 2422SOL     OW 7273   4.290   0.537   0.865
 2422SOL    HW1 7274   4.302   0.603   0.791
 2422SOL    HW2 7275   4.336   0.571   0.948
 2423SOL     OW 7276   4.078   1.510   1.329
 2423SOL    HW1 7277   4.057   1.466   1.242
 2423SOL    HW2 7278   4.175   1.536   1.332
 2424SOL     OW 7279   4.126   0.751   1.598
 2424SOL    HW1 7280   4.194   0.806   1.551
 2424SOL    HW2 7281   4.166   0.663   1.625
 2425SOL     OW 7282   4.228   0.050   1.740
 2425SOL    HW1 7283   4.186  -0.007   1.670
 2425SOL    HW2 7284   4.162   0.119   1.772
 2426SOL     OW 7285   4.297   0.870   1.029
 2426SOL    HW1 7286   4.341   0.959   1.020
 2426SOL    HW2 7287   4.234   0.870   1.106
 2427SOL     OW 7288   4.031   0.213   1.231
 2427SOL    HW1 7289   4.008   0.250   1.321
 2427SOL    HW2 7290   4.001   0.118   1.225
 2428SOL     OW 7291   3.761   1.310   1.282
 2428SOL    HW1 7292   3.814   1.261   1.350
 2428SOL    HW2 7293   3.783   1.408   1.287
 2429SOL     OW 7294   4.031   0.063   0.618
 2429SOL    HW1 7295   4.020   0.157   0.651
 2429SOL    HW2 7296   4.026   0.000   0.695
 2430SOL     OW 7297   4.074   0.898   1.804
 2430SOL    HW1 7298   4.150   0.942   1.852
 2430SOL    HW2 7299   4.109   0.851   1.722
 2431SOL     OW 7300   4.043   0.810   0.949
 2431SOL    HW1 7301   4.136   0.846   0.954
 2431SOL    HW2 7302   4.037   0.725   1.001
 2432SOL     OW 7303   4.063   0.509   1.006
 2432SOL    HW1 7304   4.011   0.426   0.989
 2432SOL    HW2 7305   4.140   0.514   0.942
 2433SOL     OW 7306   3.732   1.326   0.200
 2433SOL    HW1 7307   3.639   1.347   0.169
 2433SOL    HW2 7308   3.742   1.227   0.213
 2434SOL     OW 7309   3.812   1.801   0.927
 2434SOL    HW1 7310   3.770   1.715   0.900
 2434SOL    HW2 7311   3.906   1.804   0.893
 2435SOL     OW 7312   4.228   1.568   0.910
 2435SOL    HW1 7313   4.294   1.642   0.919
 2435SOL    HW2 7314   4.272   1.489   0.868
 2436SOL     OW 7315   3.764   0.544   1.114
 2436SOL    HW1 7316   3.849   0.511   1.073
 2436SOL    HW2 7317   3.777   0.559   1.212
 2437SOL     OW 7318   3.913   0.520   1.722
 2437SOL    HW1 7319   3.972   0.480   1.652
 2437SOL    HW2 7320   3.855   0.591   1.681
 2438SOL     OW 7321   4.539   0.572   0.325
 2438SOL    HW1 7322   4.546   0.483   0.279
 2438SOL    HW2 7323   4.445   0.606   0.317
 2439SOL     OW 7324   3.976   1.564   1.744
 2439SOL    HW1 7325   3.946   1.621   1.820
 2439SOL    HW2 7326   3.969   1.467   1.770
 2440SOL     OW 7327   4.197   0.500   0.191
 2440SOL    HW1 7328   4.258   0.580   0.195
 2440SOL    HW2 7329   4.102   0.531   0.198
 2441SOL     OW 7330   3.883   1.137   1.466
 2441SOL    HW1 7331   3.905   1.076   1.542
 2441SOL    HW2 7332   3.893   1.088   1.380
 2442SOL     OW 7333   3.807   1.258   1.022
 2442SOL    HW1 7334   3.802   1.257   1.122
 2442SOL    HW2 7335   3.724   1.217   0.984
 2443SOL     OW 7336   4.412   1.662   1.716
 2443SOL    HW1 7337   4.356   1.743   1.725
 2443SOL    HW2 7338   4.464   1.666   1.630
 2444SOL     OW 7339   3.854   1.794   1.851
 2444SOL    HW1 7340   3.813   1.720   1.904
 2444SOL    HW2 7341   3.918   1.845   1.909
 2445SOL     OW 7342   3.987   0.326   0.720
 2445SOL    HW1 7343   3.908   0.377   0.686
 2445SOL    HW2 7344   3.978   0.311   0.818
 2446SOL     OW 7345   4.096   1.288   1.490
 2446SOL    HW1 7346   4.083   1.381   1.456
 2446SOL    HW2 7347   4.012   1.236   1.477
 2447SOL     OW 7348   4.314   1.487   0.491
 2447SOL    HW1 7349   4.356   1.429   0.421
 2447SOL    HW2 7350   4.270   1.566   0.447
 2448SOL     OW 7351   3.979   1.348   0.290
 2448SOL    HW1 7352   3.883   1.349   0.263
 2448SOL    HW2 7353   3.991   1.401   0.374
 2449SOL     OW 7354   3.829   1.013   1.726
 2449SOL    HW1 7355   3.752   0.980   1.780
 2449SOL    HW2 7356   3.914   0.983   1.768
 2450SOL     OW 7357   4.396   0.203   1.489
 2450SOL    HW1 7358   4.486   0.187   1.449
 2450SOL    HW2 7359   4.404   0.208   1.588
 2451SOL     OW 7360   3.799   0.345   0.033
 2451SOL    HW1 7361   3.707   0.317   0.004
 2451SOL    HW2 7362   3.830   0.422  -0.023
 2452SOL     OW 7363   4.337   0.842   1.431
 2452SOL    HW1 7364   4.393   0.923   1.414
 2452SOL    HW2 7365   4.396   0.762   1.434
 2453SOL     OW 7366   4.114   1.741   1.560
 2453SOL    HW1 7367   4.023   1.782   1.558
 2453SOL    HW2 7368   4.107   1.647   1.592
 2454SOL     OW 7369   4.318   0.745   0.652
 2454SOL    HW1 7370   4.368   0.830   0.633
 2454SOL    HW2 7371   4.230   0.747   0.604
 2455SOL     OW 7372   3.945   1.314   1.844
 2455SOL    HW1 7373   3.880   1.241   1.823
 2455SOL    HW2 7374   3.949   1.328   1.942
 2456SOL     OW 7375   3.803   1.240   0.653
 2456SOL    HW1 7376   3.802   1.193   0.741
 2456SOL    HW2 7377   3.885   1.212   0.602
 2457SOL     OW 7378   4.396   1.391   1.624
 2457SOL    HW1 7379   4.318   1.341   1.662
 2457SOL    HW2 7380   4.393   1.486   1.655
 2458SOL     OW 7381   4.152   0.424   0.520
 2458SOL    HW1 7382   4.182   0.352   0.458
 2458SOL    HW2 7383   4.113   0.384   0.603
 2459SOL     OW 7384   4.041   0.547   1.280
 2459SOL    HW1 7385   4.079   0.488   1.352
 2459SOL    HW2 7386   4.081   0.521   1.192
 2460SOL     OW 7387   3.763   1.077   0.300
 2460SOL    HW1 7388   3.862   1.066   0.291
 2460SOL    HW2 7389   3.723   0.991   0.332
 2461SOL     OW 7390   3.954   0.628   1.975
 2461SOL    HW1 7391   3.861   0.626   2.012
 2461SOL    HW2 7392   3.955   0.589   1.883
 2462SOL     OW 7393   3.949   0.275   2.858
 2462SOL    HW1 7394   3.984   0.258   2.950
 2462SOL    HW2 7395   3.861   0.230   2.846
 2463SOL     OW 7396   3.743   0.368   2.509
 2463SOL    HW1 7397   3.661   0.411   2.548
 2463SOL    HW2 7398   3.715   0.295   2.446
 2464SOL     OW 7399   4.293   1.275   3.027
 2464SOL    HW1 7400   4.200   1.268   2.990
 2464SOL    HW2 7401   4.304   1.364   3.071
 2465SOL     OW 7402   4.574   0.798   3.685
 2465SOL    HW1 7403   4.570   0.874   3.750
 2465SOL    HW2 7404   4.596   0.834   3.594
 2466SOL     OW 7405   4.059   1.435   2.923
 2466SOL    HW1 7406   3.981   1.404   2.870
 2466SOL    HW2 7407   4.117   1.493   2.866
 2467SOL     OW 7408   4.162   0.392   3.361
 2467SOL    HW1 7409   4.244   0.336   3.370
 2467SOL    HW2 7410   4.081   0.334   3.365
 2468SOL     OW 7411   3.955   1.713   2.345
 2468SOL    HW1 7412   3.989   1.790   2.399
 2468SOL    HW2 7413   3.999   1.713   2.255
 2469SOL     OW 7414   3.954   1.434   2.400
 2469SOL    HW1 7415   3.928   1.530   2.400
 2469SOL    HW2 7416   3.883   1.380   2.445
 2470SOL     OW 7417   3.964   1.091   2.748
 2470SOL    HW1 7418   3.978   1.007   2.800
 2470SOL    HW2 7419   3.909   1.155   2.803
 2471SOL     OW 7420   3.846   0.643   2.425
 2471SOL    HW1 7421   3.801   0.555   2.442
 2471SOL    HW2 7422   3.845   0.697   2.509
 2472SOL     OW 7423   3.751   1.596   1.979
 2472SOL    HW1 7424   3.732   1.500   2.000
 2472SOL    HW2 7425   3.718   1.654   2.054
 2473SOL     OW 7426   3.837   0.737   3.459
 2473SOL    HW1 7427   3.925   0.724   3.504
 2473SOL    HW2 7428   3.824   0.834   3.437
 2474SOL     OW 7429   4.337   1.365   2.588
 2474SOL    HW1 7430   4.288   1.278   2.597
 2474SOL    HW2 7431   4.314   1.408   2.501
 2475SOL     OW 7432   3.921   0.976   3.126
 2475SOL    HW1 7433   4.010   0.931   3.112
 2475SOL    HW2 7434   3.848   0.911   3.107
 2476SOL     OW 7435   4.041   0.251   3.663
 2476SOL    HW1 7436   4.112   0.322   3.669
 2476SOL    HW2 7437   3.953   0.290   3.691
 2477SOL     OW 7438   4.322   0.729   2.132
 2477SOL    HW1 7439   4.346   0.798   2.064
 2477SOL    HW2 7440   4.244   0.762   2.186
 2478SOL     OW 7441   3.800   0.811   2.651
 2478SOL    HW1 7442   3.899   0.799   2.660
 2478SOL    HW2 7443   3.776   0.906   2.672
 2479SOL     OW 7444   3.854   1.821   3.433
 2479SOL    HW1 7445   3.844   1.806   3.532
 2479SOL    HW2 7446   3.768   1.857   3.397
 2480SOL     OW 7447   4.589   0.348   2.057
 2480SOL    HW1 7448   4.648   0.411   2.008
 2480SOL    HW2 7449   4.608   0.254   2.028
 2481SOL     OW 7450   4.274   0.196   2.747
 2481SOL    HW1 7451   4.269   0.191   2.847
 2481SOL    HW2 7452   4.276   0.292   2.718
 2482SOL     OW 7453   4.075   1.801   2.715
 2482SOL    HW1 7454   4.125   1.715   2.721
 2482SOL    HW2 7455   4.140   1.878   2.712
 2483SOL     OW 7456   4.045   0.943   2.104
 2483SOL    HW1 7457   4.127   0.982   2.062
 2483SOL    HW2 7458   4.018   0.861   2.055
 2484SOL     OW 7459   4.185   1.266   3.589
 2484SOL    HW1 7460   4.135   1.267   3.503
 2484SOL    HW2 7461   4.122   1.248   3.665
 2485SOL     OW 7462   3.926   0.285   3.360
 2485SOL    HW1 7463   3.846   0.345   3.347
 2485SOL    HW2 7464   3.916   0.236   3.446
 2486SOL     OW 7465   4.188   1.743   2.185
 2486SOL    HW1 7466   4.221   1.782   2.271
 2486SOL    HW2 7467   4.264   1.736   2.120
 2487SOL     OW 7468   3.973   1.785   3.103
 2487SOL    HW1 7469   4.030   1.720   3.153
 2487SOL    HW2 7470   3.957   1.752   3.010
 2488SOL     OW 7471   4.106   0.700   2.342
 2488SOL    HW1 7472   4.151   0.610   2.339
 2488SOL    HW2 7473   4.012   0.689   2.375
 2489SOL     OW 7474   4.338   0.122   1.979
 2489SOL    HW1 7475   4.436   0.100   1.986
 2489SOL    HW2 7476   4.307   0.105   1.886
 2490SOL     OW 7477   4.527   1.402   2.786
 2490SOL    HW1 7478   4.617   1.416   2.744
 2490SOL    HW2 7479   4.456   1.404   2.715
 2491SOL     OW 7480   4.263   0.064   2.374
 2491SOL    HW1 7481   4.182   0.065   2.432
 2491SOL    HW2 7482   4.266   0.147   2.319
 2492SOL     OW 7483   4.021   0.035   2.033
 2492SOL    HW1 7484   4.070   0.119   2.012
 2492SOL    HW2 7485   4.083  -0.030   2.078
 2493SOL     OW 7486   4.659   0.236   2.342
 2493SOL    HW1 7487   4.611   0.277   2.264
 2493SOL    HW2 7488   4.758   0.234   2.323
 2494SOL     OW 7489   4.183   1.152   2.603
 2494SOL    HW1 7490   4.112   1.125   2.668
 2494SOL    HW2 7491   4.157   1.124   2.510
 2495SOL     OW 7492   3.802   0.556   3.248
 2495SOL    HW1 7493   3.894   0.555   3.207
 2495SOL    HW2 7494   3.796   0.630   3.315
 2496SOL     OW 7495   4.285   0.222   3.009
 2496SOL    HW1 7496   4.323   0.138   3.046
 2496SOL    HW2 7497   4.197   0.241   3.053
 2497SOL     OW 7498   4.251   0.256   2.190
 2497SOL    HW1 7499   4.278   0.197   2.115
 2497SOL    HW2 7500   4.251   0.351   2.159
 2498SOL     OW 7501   4.134   0.813   3.113
 2498SOL    HW1 7502   4.220   0.825   3.163
 2498SOL    HW2 7503   4.092   0.726   3.140
 2499SOL     OW 7504   3.788   1.564   3.193
 2499SOL    HW1 7505   3.742   1.646   3.159
 2499SOL    HW2 7506   3.886   1.583   3.202
 2500SOL     OW 7507   4.091   1.100   2.363
 2500SOL    HW1 7508   4.084   1.183   2.307
 2500SOL    HW2 7509   4.095   1.020   2.303
 2501SOL     OW 7510   4.290   0.537   2.727
 2501SOL    HW1 7511   4.302   0.603   2.653
 2501SOL    HW2 7512   4.336   0.571   2.810
 2502SOL     OW 7513   4.078   1.510   3.191
 2502SOL    HW1 7514   4.057   1.466   3.104
 2502SOL    HW2 7515   4.175   1.536   3.194
 2503SOL     OW 7516   4.126   0.751   3.460
 2503SOL    HW1 7517   4.194   0.806   3.413
 2503SOL    HW2 7518   4.166   0.663   3.487
 2504SOL     OW 7519   4.228   0.050   3.602
 2504SOL    HW1 7520   4.186  -0.007   3.532
 2504SOL    HW2 7521   4.162   0.119   3.634
 2505SOL     OW 7522   4.297   0.870   2.891
 2505SOL    HW1 7523   4.341   0.959   2.882
 2505SOL    HW2 7524   4.234   0.870   2.968
 2506SOL     OW 7525   4.031   0.213   3.093
 2506SOL    HW1 7526   4.008   0.250   3.183
 2506SOL    HW2 7527   4.001   0.118   3.087
 2507SOL     OW 7528   3.761   1.310   3.144
 2507SOL    HW1 7529   3.814   1.261   3.212
 2507SOL    HW2 7530   3.783   1.408   3.149
 2508SOL     OW 7531   4.031   0.063   2.480
 2508SOL    HW1 7532   4.020   0.157   2.513
 2508SOL    HW2 7533   4.026   0.000   2.557
 2509SOL     OW 7534   4.074   0.898   3.666
 2509SOL    HW1 7535   4.150   0.942   3.714
 2509SOL    HW2 7536   4.109   0.851   3.584
 2510SOL     OW 7537   4.043   0.810   2.811
 2510SOL    HW1 7538   4.136   0.846   2.816
 2510SOL    HW2 7539   4.037   0.725   2.863
 2511SOL     OW 7540   4.063   0.509   2.868
 2511SOL    HW1 7541   4.011   0.426   2.851
 2511SOL    HW2 7542   4.140   0.514   2.804
 2512SOL     OW 7543   3.732   1.326   2.062
 2512SOL    HW1 7544   3.639   1.347   2.031
 2512SOL    HW2 7545   3.742   1.227   2.075
 2513SOL     OW 7546   3.812   1.801   2.789
 2513SOL    HW1 7547   3.770   1.715   2.762
 2513SOL    HW2 7548   3.906   1.804   2.755
 2514SOL     OW 7549   4.228   1.568   2.772
 2514SOL    HW1 7550   4.294   1.642   2.781
 2514SOL    HW2 7551   4.272   1.489   2.730
 2515SOL     OW 7552   3.764   0.544   2.976
 2515SOL    HW1 7553   3.849   0.511   2.935
 2515SOL    HW2 7554   3.777   0.559   3.074
 2516SOL     OW 7555   3.913   0.520   3.584
 2516SOL    HW1 7556   3.972   0.480   3.514
 2516SOL    HW2 7557   3.855   0.591   3.543
 2517SOL     OW 7558   4.539   0.572   2.187
 2517SOL    HW1 7559   4.546   0.483   2.141
 2517SOL    HW2 7560   4.445   0.606   2.179
 2518SOL     OW 7561   3.976   1.564   3.606
 2518SOL    HW1 7562   3.946   1.621   3.682
 2518SOL    HW2 7563   3.969   1.467   3.632
 2519SOL     OW 7564   4.197   0.500   2.053
 2519SOL    HW1 7565   4.258   0.580   2.057
 2519SOL    HW2 7566   4.102   0.531   2.060
 2520SOL     OW 7567   3.883   1.137   3.328
 2520SOL    HW1 7568   3.905   1.076   3.404
 2520SOL    HW2 7569   3.893   1.088   3.242
 2521SOL     OW 7570   3.807   1.258   2.884
 2521SOL    HW1 7571   3.802   1.257   2.984
 2521SOL    HW2 7572   3.724   1.217   2.846
 2522SOL     OW 7573   4.412   1.662   3.578
 2522SOL    HW1 7574   4.356   1.743   3.587
 2522SOL    HW2 7575   4.464   1.666   3.492
 2523SOL     OW 7576   3.854   1.794   3.713
 2523SOL    HW1 7577   3.813   1.720   3.766
 2523SOL    HW2 7578   3.918   1.845   3.771
 2524SOL     OW 7579   3.987   0.326   2.582
 2524SOL    HW1 7580   3.908   0.377   2.548
 2524SOL    HW2 7581   3.978   0.311   2.680
 2525SOL     OW 7582   4.096   1.288   3.352
 2525SOL    HW1 7583   4.083   1.381   3.318
 2525SOL    HW2 7584   4.012   1.236   3.339
 2526SOL     OW 7585   4.314   1.487   2.353
 2526SOL    HW1 7586   4.356   1.429   2.283
 2526SOL    HW2 7587   4.270   1.566   2.309
 2527SOL     OW 7588   3.979   1.348   2.152
 2527SOL    HW1 7589   3.883   1.349   2.125
 2527SOL    HW2 7590   3.991   1.401   2.236
 2528SOL     OW 7591   3.829   1.013   3.588
 2528SOL    HW1 7592   3.752   0.980   3.642
 2528SOL    HW2 7593   3.914   0.983   3.630
 2529SOL     OW 7594   4.396   0.203   3.351
 2529SOL    HW1 7595   4.486   0.187   3.311
 2529SOL    HW2 7596   4.404   0.208   3.450
 2530SOL     OW 7597   3.799   0.345   1.895
 2530SOL    HW1 7598   3.707   0.317   1.866
 2530SOL    HW2 7599   3.830   0.422   1.839
 2531SOL     OW 7600   3.796   0.166   2.180
 2531SOL    HW1 7601   3.779   0.249   2.126
 2531SOL    HW2 7602   3.886   0.129   2.158
 2532SOL     OW 7603   4.337   0.842   3.293
 2532SOL    HW1 7604   4.393   0.923   3.276
 2532SOL    HW2 7605   4.396   0.762   3.296
 2533SOL     OW 7606   4.114   1.741   3.422
 2533SOL    HW1 7607   4.023   1.782   3.420
 2533SOL    HW2 7608   4.107   1.647   3.454
 2534SOL     OW 7609   4.318   0.745   2.514
 2534SOL    HW1 7610   4.368   0.830   2.495
 2534SOL    HW2 7611   4.230   0.747   2.466
 2535SOL     OW 7612   3.945   1.314   3.706
 2535SOL    HW1 7613   3.880   1.241   3.685
 2535SOL    HW2 7614   3.949   1.328   3.804
 2536SOL     OW 7615   3.803   1.240   2.515
 2536SOL    HW1 7616   3.802   1.193   2.603
 2536SOL    HW2 7617   3.885   1.212   2.464
 2537SOL     OW 7618   4.396   1.391   3.486
 2537SOL    HW1 7619   4.318   1.341   3.524
 2537SOL    HW2 7620   4.393   1.486   3.517
 2538SOL     OW 7621   4.152   0.424   2.382
 2538SOL    HW1 7622   4.182   0.352   2.320
 2538SOL    HW2 7623   4.113   0.384   2.465
 2539SOL     OW 7624   4.041   0.547   3.142
 2539SOL    HW1 7625   4.079   0.488   3.214
 2539SOL    HW2 7626   4.081   0.521   3.054
 2540SOL     OW 7627   3.763   1.077   2.162
 2540SOL    HW1 7628   3.862   1.066   2.153
 2540SOL    HW2 7629   3.723   0.991   2.194
 2541SOL     OW 7630   3.954   0.628   3.837
 2541SOL    HW1 7631   3.861   0.626   3.874
 2541SOL    HW2 7632   3.955   0.589   3.745
 2542SOL     OW 7633   3.955   1.713   4.207
 2542SOL    HW1 7634   3.989   1.790   4.261
 2542SOL    HW2 7635   3.999   1.713   4.117
 2543SOL     OW 7636   3.954   1.434   4.262
 2543SOL    HW1 7637   3.928   1.530   4.262
 2543SOL    HW2 7638   3.883   1.380   4.307
 2544SOL     OW 7639   3.846   0.643   4.287
 2544SOL    HW1 7640   3.801   0.555   4.304
 2544SOL    HW2 7641   3.845   0.697   4.371
 2545SOL     OW 7642   3.751   1.596   3.841
 2545SOL    HW1 7643   3.732   1.500   3.862
 2545SOL    HW2 7644   3.718   1.654   3.916
 2546SOL     OW 7645   4.322   0.729   3.994
 2546SOL    HW1 7646   4.346   0.798   3.926
 2546SOL    HW2 7647   4.244   0.762   4.048
 2547SOL     OW 7648   3.800   0.811   4.513
 2547SOL    HW1 7649   3.899   0.799   4.522
 2547SOL    HW2 7650   3.776   0.906   4.534
 2548SOL     OW 7651   4.589   0.348   3.919
 2548SOL    HW1 7652   4.648   0.411   3.870
 2548SOL    HW2 7653   4.608   0.254   3.890
 2549SOL     OW 7654   4.075   1.801   4.577
 2549SOL    HW1 7655   4.125   1.715   4.583
 2549SOL    HW2 7656   4.140   1.878   4.574
 2550SOL     OW 7657   4.045   0.943   3.966
 2550SOL    HW1 7658   4.127   0.982   3.924
 2550SOL    HW2 7659   4.018   0.861   3.917
 2551SOL     OW 7660   4.188   1.743   4.047
 2551SOL    HW1 7661   4.221   1.782   4.133
 2551SOL    HW2 7662   4.264   1.736   3.982
 2552SOL     OW 7663   4.106   0.700   4.204
 2552SOL    HW1 7664   4.151   0.610   4.201
 2552SOL    HW2 7665   4.012   0.689   4.237
 2553SOL     OW 7666   4.338   0.122   3.841
 2553SOL    HW1 7667   4.436   0.100   3.848
 2553SOL    HW2 7668   4.307   0.105   3.748
 2554SOL     OW 7669   4.263   0.064   4.236
 2554SOL    HW1 7670   4.182   0.065   4.294
 2554SOL    HW2 7671   4.266   0.147   4.181
 2555SOL     OW 7672   4.021   0.035   3.895
 2555SOL    HW1 7673   4.070   0.119   3.874
 2555SOL    HW2 7674   4.083  -0.030   3.940
 2556SOL     OW 7675   4.659   0.236   4.204
 2556SOL    HW1 7676   4.611   0.277   4.126
 2556SOL    HW2 7677   4.758   0.234   4.185
 2557SOL     OW 7678   4.183   1.152   4.465
 2557SOL    HW1 7679   4.112   1.125   4.530
 2557SOL    HW2 7680   4.157   1.124   4.372
 2558SOL     OW 7681   4.251   0.256   4.052
 2558SOL    HW1 7682   4.278   0.197   3.977
 2558SOL    HW2 7683   4.251   0.351   4.021
 2559SOL     OW 7684   4.091   1.100   4.225
 2559SOL    HW1 7685   4.084   1.183   4.169
 2559SOL    HW2 7686   4.095   1.020   4.165
 2560SOL     OW 7687   4.031   0.063   4.342
 2560SOL    HW1 7688   4.020   0.157   4.375
 2560SOL    HW2 7689   4.026   0.000   4.419
 2561SOL     OW 7690   3.732   1.326   3.924
 2561SOL    HW1 7691   3.639   1.347   3.893
 2561SOL    HW2 7692   3.742   1.227   3.937
 2562SOL     OW 7693   4.539   0.572   4.049
 2562SOL    HW1 7694   4.546   0.483   4.003
 2562SOL    HW2 7695   4.445   0.606   4.041
 2563SOL     OW 7696   4.197   0.500   3.915
 2563SOL    HW1 7697   4.258   0.580   3.919
 2563SOL    HW2 7698   4.102   0.531   3.922
 2564SOL     OW 7699   4.314   1.487   4.215
 2564SOL    HW1 7700   4.356   1.429   4.145
 2564SOL    HW2 7701   4.270   1.566   4.171
 2565SOL     OW 7702   3.979   1.348   4.014
 2565SOL    HW1 7703   3.883   1.349   3.987
 2565SOL    HW2 7704   3.991   1.401   4.098
 2566SOL     OW 7705   3.799   0.345   3.757
 2566SOL    HW1 7706   3.707   0.317   3.728
 2566SOL    HW2 7707   3.830   0.422   3.701
 2567SOL     OW 7708   3.796   0.166   4.042
 2567SOL    HW1 7709   3.779   0.249   3.988
 2567SOL    HW2 7710   3.886   0.129   4.020
 2568SOL     OW 7711   4.318   0.745   4.376
 2568SOL    HW1 7712   4.368   0.830   4.357
 2568SOL    HW2 7713   4.230   0.747   4.328
 2569SOL     OW 7714   3.803   1.240   4.377
 2569SOL    HW1 7715   3.802   1.193   4.465
 2569SOL    HW2 7716   3.885   1.212   4.326
 2570SOL     OW 7717   4.152   0.424   4.244
 2570SOL    HW1 7718   4.182   0.352   4.182
 2570SOL    HW2 7719   4.113   0.384   4.327
 2571SOL     OW 7720   3.763   1.077   4.024
 2571SOL    HW1 7721   3.862   1.066   4.015
 2571SOL    HW2 7722   3.723   0.991   4.056
 2572SOL     OW 7723   3.954   2.490   0.113
 2572SOL    HW1 7724   3.861   2.488   0.150
 2572SOL    HW2 7725   3.955   2.451   0.021
 2573SOL     OW 7726   3.949   2.137   0.996
 2573SOL    HW1 7727   3.984   2.120   1.088
 2573SOL    HW2 7728   3.861   2.092   0.984
 2574SOL     OW 7729   3.743   2.230   0.647
 2574SOL    HW1 7730   3.661   2.273   0.686
 2574SOL    HW2 7731   3.715   2.157   0.584
 2575SOL     OW 7732   4.293   3.137   1.165
 2575SOL    HW1 7733   4.200   3.130   1.128
 2575SOL    HW2 7734   4.304   3.226   1.209
 2576SOL     OW 7735   4.574   2.660   1.823
 2576SOL    HW1 7736   4.570   2.736   1.888
 2576SOL    HW2 7737   4.596   2.696   1.732
 2577SOL     OW 7738   4.059   3.297   1.061
 2577SOL    HW1 7739   3.981   3.266   1.008
 2577SOL    HW2 7740   4.117   3.355   1.004
 2578SOL     OW 7741   4.162   2.254   1.499
 2578SOL    HW1 7742   4.244   2.198   1.508
 2578SOL    HW2 7743   4.081   2.196   1.503
 2579SOL     OW 7744   3.955   3.575   0.483
 2579SOL    HW1 7745   3.989   3.652   0.537
 2579SOL    HW2 7746   3.999   3.575   0.393
 2580SOL     OW 7747   3.954   3.296   0.538
 2580SOL    HW1 7748   3.928   3.392   0.538
 2580SOL    HW2 7749   3.883   3.242   0.583
 2581SOL     OW 7750   3.964   2.953   0.886
 2581SOL    HW1 7751   3.978   2.869   0.938
 2581SOL    HW2 7752   3.909   3.017   0.941
 2582SOL     OW 7753   3.846   2.505   0.563
 2582SOL    HW1 7754   3.801   2.417   0.580
 2582SOL    HW2 7755   3.845   2.559   0.647
 2583SOL     OW 7756   3.751   3.458   0.117
 2583SOL    HW1 7757   3.732   3.362   0.138
 2583SOL    HW2 7758   3.718   3.516   0.192
 2584SOL     OW 7759   3.837   2.599   1.597
 2584SOL    HW1 7760   3.925   2.586   1.642
 2584SOL    HW2 7761   3.824   2.696   1.575
 2585SOL     OW 7762   4.337   3.227   0.726
 2585SOL    HW1 7763   4.288   3.140   0.735
 2585SOL    HW2 7764   4.314   3.270   0.639
 2586SOL     OW 7765   4.533   1.866   0.502
 2586SOL    HW1 7766   4.573   1.957   0.493
 2586SOL    HW2 7767   4.433   1.874   0.508
 2587SOL     OW 7768   3.921   2.838   1.264
 2587SOL    HW1 7769   4.010   2.793   1.250
 2587SOL    HW2 7770   3.848   2.773   1.245
 2588SOL     OW 7771   4.041   2.113   1.801
 2588SOL    HW1 7772   4.112   2.184   1.807
 2588SOL    HW2 7773   3.953   2.152   1.829
 2589SOL     OW 7774   4.322   2.591   0.270
 2589SOL    HW1 7775   4.346   2.660   0.202
 2589SOL    HW2 7776   4.244   2.624   0.324
 2590SOL     OW 7777   3.800   2.673   0.789
 2590SOL    HW1 7778   3.899   2.661   0.798
 2590SOL    HW2 7779   3.776   2.768   0.810
 2591SOL     OW 7780   3.854   3.683   1.571
 2591SOL    HW1 7781   3.844   3.668   1.670
 2591SOL    HW2 7782   3.768   3.719   1.535
 2592SOL     OW 7783   4.589   2.210   0.195
 2592SOL    HW1 7784   4.648   2.273   0.146
 2592SOL    HW2 7785   4.608   2.116   0.166
 2593SOL     OW 7786   4.274   2.058   0.885
 2593SOL    HW1 7787   4.269   2.053   0.985
 2593SOL    HW2 7788   4.276   2.154   0.856
 2594SOL     OW 7789   4.075   3.663   0.853
 2594SOL    HW1 7790   4.125   3.577   0.859
 2594SOL    HW2 7791   4.140   3.740   0.850
 2595SOL     OW 7792   4.045   2.805   0.242
 2595SOL    HW1 7793   4.127   2.844   0.200
 2595SOL    HW2 7794   4.018   2.723   0.193
 2596SOL     OW 7795   4.185   3.128   1.727
 2596SOL    HW1 7796   4.135   3.129   1.641
 2596SOL    HW2 7797   4.122   3.110   1.803
 2597SOL     OW 7798   3.926   2.147   1.498
 2597SOL    HW1 7799   3.846   2.207   1.485
 2597SOL    HW2 7800   3.916   2.098   1.584
 2598SOL     OW 7801   4.188   3.605   0.323
 2598SOL    HW1 7802   4.221   3.644   0.409
 2598SOL    HW2 7803   4.264   3.598   0.258
 2599SOL     OW 7804   3.973   3.647   1.241
 2599SOL    HW1 7805   4.030   3.582   1.291
 2599SOL    HW2 7806   3.957   3.614   1.148
 2600SOL     OW 7807   4.106   2.562   0.480
 2600SOL    HW1 7808   4.151   2.472   0.477
 2600SOL    HW2 7809   4.012   2.551   0.513
 2601SOL     OW 7810   4.338   1.984   0.117
 2601SOL    HW1 7811   4.436   1.962   0.124
 2601SOL    HW2 7812   4.307   1.967   0.024
 2602SOL     OW 7813   4.527   3.264   0.924
 2602SOL    HW1 7814   4.617   3.278   0.882
 2602SOL    HW2 7815   4.456   3.266   0.853
 2603SOL     OW 7816   4.263   1.926   0.512
 2603SOL    HW1 7817   4.182   1.927   0.570
 2603SOL    HW2 7818   4.266   2.009   0.457
 2604SOL     OW 7819   4.659   2.098   0.480
 2604SOL    HW1 7820   4.611   2.139   0.402
 2604SOL    HW2 7821   4.758   2.096   0.461
 2605SOL     OW 7822   4.183   3.014   0.741
 2605SOL    HW1 7823   4.112   2.987   0.806
 2605SOL    HW2 7824   4.157   2.986   0.648
 2606SOL     OW 7825   3.802   2.418   1.386
 2606SOL    HW1 7826   3.894   2.417   1.345
 2606SOL    HW2 7827   3.796   2.492   1.453
 2607SOL     OW 7828   4.285   2.084   1.147
 2607SOL    HW1 7829   4.323   2.000   1.184
 2607SOL    HW2 7830   4.197   2.103   1.191
 2608SOL     OW 7831   4.251   2.118   0.328
 2608SOL    HW1 7832   4.278   2.059   0.253
 2608SOL    HW2 7833   4.251   2.213   0.297
 2609SOL     OW 7834   4.134   2.675   1.251
 2609SOL    HW1 7835   4.220   2.687   1.301
 2609SOL    HW2 7836   4.092   2.588   1.278
 2610SOL     OW 7837   3.788   3.426   1.331
 2610SOL    HW1 7838   3.742   3.508   1.297
 2610SOL    HW2 7839   3.886   3.445   1.340
 2611SOL     OW 7840   4.091   2.962   0.501
 2611SOL    HW1 7841   4.084   3.045   0.445
 2611SOL    HW2 7842   4.095   2.882   0.441
 2612SOL     OW 7843   4.290   2.399   0.865
 2612SOL    HW1 7844   4.302   2.465   0.791
 2612SOL    HW2 7845   4.336   2.433   0.948
 2613SOL     OW 7846   4.078   3.372   1.329
 2613SOL    HW1 7847   4.057   3.328   1.242
 2613SOL    HW2 7848   4.175   3.398   1.332
 2614SOL     OW 7849   4.126   2.613   1.598
 2614SOL    HW1 7850   4.194   2.668   1.551
 2614SOL    HW2 7851   4.166   2.525   1.625
 2615SOL     OW 7852   4.228   1.912   1.740
 2615SOL    HW1 7853   4.186   1.855   1.670
 2615SOL    HW2 7854   4.162   1.981   1.772
 2616SOL     OW 7855   4.297   2.732   1.029
 2616SOL    HW1 7856   4.341   2.821   1.020
 2616SOL    HW2 7857   4.234   2.732   1.106
 2617SOL     OW 7858   4.031   2.075   1.231
 2617SOL    HW1 7859   4.008   2.112   1.321
 2617SOL    HW2 7860   4.001   1.980   1.225
 2618SOL     OW 7861   3.761   3.172   1.282
 2618SOL    HW1 7862   3.814   3.123   1.350
 2618SOL    HW2 7863   3.783   3.270   1.287
 2619SOL     OW 7864   4.031   1.925   0.618
 2619SOL    HW1 7865   4.020   2.019   0.651
 2619SOL    HW2 7866   4.026   1.862   0.695
 2620SOL     OW 7867   4.074   2.760   1.804
 2620SOL    HW1 7868   4.150   2.804   1.852
 2620SOL    HW2 7869   4.109   2.713   1.722
 2621SOL     OW 7870   4.043   2.672   0.949
 2621SOL    HW1 7871   4.136   2.708   0.954
 2621SOL    HW2 7872   4.037   2.587   1.001
 2622SOL     OW 7873   4.063   2.371   1.006
 2622SOL    HW1 7874   4.011   2.288   0.989
 2622SOL    HW2 7875   4.140   2.376   0.942
 2623SOL     OW 7876   3.732   3.188   0.200
 2623SOL    HW1 7877   3.639   3.209   0.169
 2623SOL    HW2 7878   3.742   3.089   0.213
 2624SOL     OW 7879   3.812   3.663   0.927
 2624SOL    HW1 7880   3.770   3.577   0.900
 2624SOL    HW2 7881   3.906   3.666   0.893
 2625SOL     OW 7882   4.228   3.430   0.910
 2625SOL    HW1 7883   4.294   3.504   0.919
 2625SOL    HW2 7884   4.272   3.351   0.868
 2626SOL     OW 7885   3.764   2.406   1.114
 2626SOL    HW1 7886   3.849   2.373   1.073
 2626SOL    HW2 7887   3.777   2.421   1.212
 2627SOL     OW 7888   3.913   2.382   1.722
 2627SOL    HW1 7889   3.972   2.342   1.652
 2627SOL    HW2 7890   3.855   2.453   1.681
 2628SOL     OW 7891   4.539   2.434   0.325
 2628SOL    HW1 7892   4.546   2.345   0.279
 2628SOL    HW2 7893   4.445   2.468   0.317
 2629SOL     OW 7894   3.976   3.426   1.744
 2629SOL    HW1 7895   3.946   3.483   1.820
 2629SOL    HW2 7896   3.969   3.329   1.770
 2630SOL     OW 7897   4.197   2.362   0.191
 2630SOL    HW1 7898   4.258   2.442   0.195
 2630SOL    HW2 7899   4.102   2.393   0.198
 2631SOL     OW 7900   3.883   2.999   1.466
 2631SOL    HW1 7901   3.905   2.938   1.542
 2631SOL    HW2 7902   3.893   2.950   1.380
 2632SOL     OW 7903   3.807   3.120   1.022
 2632SOL    HW1 7904   3.802   3.119   1.122
 2632SOL    HW2 7905   3.724   3.079   0.984
 2633SOL     OW 7906   4.412   3.524   1.716
 2633SOL    HW1 7907   4.356   3.605   1.725
 2633SOL    HW2 7908   4.464   3.528   1.630
 2634SOL     OW 7909   3.854   3.656   1.851
 2634SOL    HW1 7910   3.813   3.582   1.904
 2634SOL    HW2 7911   3.918   3.707   1.909
 2635SOL     OW 7912   3.987   2.188   0.720
 2635SOL    HW1 7913   3.908   2.239   0.686
 2635SOL    HW2 7914   3.978   2.173   0.818
 2636SOL     OW 7915   4.096   3.150   1.490
 2636SOL    HW1 7916   4.083   3.243   1.456
 2636SOL    HW2 7917   4.012   3.098   1.477
 2637SOL     OW 7918   4.314   3.349   0.491
 2637SOL    HW1 7919   4.356   3.291   0.421
 2637SOL    HW2 7920   4.270   3.428   0.447
 2638SOL     OW 7921   3.979   3.210   0.290
 2638SOL    HW1 7922   3.883   3.211   0.263
 2638SOL    HW2 7923   3.991   3.263   0.374
 2639SOL     OW 7924   3.829   2.875   1.726
 2639SOL    HW1 7925   3.752   2.842   1.780
 2639SOL    HW2 7926   3.914   2.845   1.768
 2640SOL     OW 7927   4.396   2.065   1.489
 2640SOL    HW1 7928   4.486   2.049   1.449
 2640SOL    HW2 7929   4.404   2.070   1.588
 2641SOL     OW 7930   3.799   2.207   0.033
 2641SOL    HW1 7931   3.707   2.179   0.004
 2641SOL    HW2 7932   3.830   2.284  -0.023
 2642SOL     OW 7933   4.337   2.704   1.431
 2642SOL    HW1 7934   4.393   2.785   1.414
 2642SOL    HW2 7935   4.396   2.624   1.434
 2643SOL     OW 7936   4.114   3.603   1.560
 2643SOL    HW1 7937   4.023   3.644   1.558
 2643SOL    HW2 7938   4.107   3.509   1.592
 2644SOL     OW 7939   4.318   2.607   0.652
 2644SOL    HW1 7940   4.368   2.692   0.633
 2644SOL    HW2 7941   4.230   2.609   0.604
 2645SOL     OW 7942   3.945   3.176   1.844
 2645SOL    HW1 7943   3.880   3.103   1.823
 2645SOL    HW2 7944   3.949   3.190   1.942
 2646SOL     OW 7945   3.803   3.102   0.653
 2646SOL    HW1 7946   3.802   3.055   0.741
 2646SOL    HW2 7947   3.885   3.074   0.602
 2647SOL     OW 7948   4.396   3.253   1.624
 2647SOL    HW1 7949   4.318   3.203   1.662
 2647SOL    HW2 7950   4.393   3.348   1.655
 2648SOL     OW 7951   4.152   2.286   0.520
 2648SOL    HW1 7952   4.182   2.214   0.458
 2648SOL    HW2 7953   4.113   2.246   0.603
 2649SOL     OW 7954   4.041   2.409   1.280
 2649SOL    HW1 7955   4.079   2.350   1.352
 2649SOL    HW2 7956   4.081   2.383   1.192
 2650SOL     OW 7957   3.763   2.939   0.300
 2650SOL    HW1 7958   3.862   2.928   0.291
 2650SOL    HW2 7959   3.723   2.853   0.332
 2651SOL     OW 7960   3.954   2.490   1.975
 2651SOL    HW1 7961   3.861   2.488   2.012
 2651SOL    HW2 7962   3.955   2.451   1.883
 2652SOL     OW 7963   3.949   2.137   2.858
 2652SOL    HW1 7964   3.984   2.120   2.950
 2652SOL    HW2 7965   3.861   2.092   2.846
 2653SOL     OW 7966   3.743   2.230   2.509
 2653SOL    HW1 7967   3.661   2.273   2.548
 2653SOL    HW2 7968   3.715   2.157   2.446
 2654SOL     OW 7969   4.293   3.137   3.027
 2654SOL    HW1 7970   4.200   3.130   2.990
 2654SOL    HW2 7971   4.304   3.226   3.071
 2655SOL     OW 7972   4.574   2.660   3.685
 2655SOL    HW1 7973   4.570   2.736   3.750
 2655SOL    HW2 7974   4.596   2.696   3.594
 2656SOL     OW 7975   4.059   3.297   2.923
 2656SOL    HW1 7976   3.981   3.266   2.870
 2656SOL    HW2 7977   4.117   3.355   2.866
 2657SOL     OW 7978   4.162   2.254   3.361
 2657SOL    HW1 7979   4.244   2.198   3.370
 2657SOL    HW2 7980   4.081   2.196   3.365
 2658SOL     OW 7981   3.955   3.575   2.345
 2658SOL    HW1 7982   3.989   3.652   2.399
 2658SOL    HW2 7983   3.999   3.575   2.255
 2659SOL     OW 7984   3.954   3.296   2.400
 2659SOL    HW1 7985   3.928   3.392   2.400
 2659SOL    HW2 7986   3.883   3.242   2.445
 2660SOL     OW 7987   3.964   2.953   2.748
 2660SOL    HW1 7988   3.978   2.869   2.800
 2660SOL    HW2 7989   3.909   3.017   2.803
 2661SOL     OW 7990   3.846   2.505   2.425
 2661SOL    HW1 7991   3.801   2.417   2.442
 2661SOL    HW2 7992   3.845   2.559   2.509
 2662SOL     OW 7993   3.751   3.458   1.979
 2662SOL    HW1 7994   3.732   3.362   2.000
 2662SOL    HW2 7995   3.718   3.516   2.054
 2663SOL     OW 7996   3.837   2.599   3.459
 2663SOL    HW1 7997   3.925   2.586   3.504
 2663SOL    HW2 7998   3.824   2.696   3.437
 2664SOL     OW 7999   4.337   3.227   2.588
 2664SOL    HW1 8000   4.288   3.140   2.597
 2664SOL    HW2 8001   4.314   3.270   2.501
 2665SOL     OW 8002   4.533   1.866   2.364
 2665SOL    HW1 8003   4.573   1.957   2.355
 2665SOL    HW2 8004   4.433   1.874   2.370
 2666SOL     OW 8005   3.921   2.838   3.126
 2666SOL    HW1 8006   4.010   2.793   3.112
 2666SOL    HW2 8007   3.848   2.773   3.107
 2667SOL     OW 8008   4.041   2.113   3.663
 2667SOL    HW1 8009   4.112   2.184   3.669
 2667SOL    HW2 8010   3.953   2.152   3.691
 2668SOL     OW 8011   4.322   2.591   2.132
 2668SOL    HW1 8012   4.346   2.660   2.064
 2668SOL    HW2 8013   4.244   2.624   2.186
 2669SOL     OW 8014   3.800   2.673   2.651
 2669SOL    HW1 8015   3.899   2.661   2.660
 2669SOL    HW2 8016   3.776   2.768   2.672
 2670SOL     OW 8017   3.854   3.683   3.433
 2670SOL    HW1 8018   3.844   3.668   3.532
 2670SOL    HW2 8019   3.768   3.719   3.397
 2671SOL     OW 8020   4.589   2.210   2.057
 2671SOL    HW1 8021   4.648   2.273   2.008
 2671SOL    HW2 8022   4.608   2.116   2.028
 2672SOL     OW 8023   4.274   2.058   2.747
 2672SOL    HW1 8024   4.269   2.053   2.847
 2672SOL    HW2 8025   4.276   2.154   2.718
 2673SOL     OW 8026   4.075   3.663   2.715
 2673SOL    HW1 8027   4.125   3.577   2.721
 2673SOL    HW2 8028   4.140   3.740   2.712
 2674SOL     OW 8029   4.045   2.805   2.104
 2674SOL    HW1 8030   4.127   2.844   2.062
 2674SOL    HW2 8031   4.018   2.723   2.055
 2675SOL     OW 8032   4.185   3.128   3.589
 2675SOL    HW1 8033   4.135   3.129   3.503
 2675SOL    HW2 8034   4.122   3.110   3.665
 2676SOL     OW 8035   3.926   2.147   3.360
 2676SOL    HW1 8036   3.846   2.207   3.347
 2676SOL    HW2 8037   3.916   2.098   3.446
 2677SOL     OW 8038   4.188   3.605   2.185
 2677SOL    HW1 8039   4.221   3.644   2.271
 2677SOL    HW2 8040   4.264   3.598   2.120
 2678SOL     OW 8041   3.973   3.647   3.103
 2678SOL    HW1 8042   4.030   3.582   3.153
 2678SOL    HW2 8043   3.957   3.614   3.010
 2679SOL     OW 8044   4.106   2.562   2.342
 2679SOL    HW1 8045   4.151   2.472   2.339
 2679SOL    HW2 8046   4.012   2.551   2.375
 2680SOL     OW 8047   4.338   1.984   1.979
 2680SOL    HW1 8048   4.436   1.962   1.986
 2680SOL    HW2 8049   4.307   1.967   1.886
 2681SOL     OW 8050   4.527   3.264   2.786
 2681SOL    HW1 8051   4.617   3.278   2.744
 2681SOL    HW2 8052   4.456   3.266   2.715
 2682SOL     OW 8053   4.263   1.926   2.374
 2682SOL    HW1 8054   4.182   1.927   2.432
 2682SOL    HW2 8055   4.266   2.009   2.319
 2683SOL     OW 8056   4.021   1.897   2.033
 2683SOL    HW1 8057   4.070   1.981   2.012
 2683SOL    HW2 8058   4.083   1.832   2.078
 2684SOL     OW 8059   4.659   2.098   2.342
 2684SOL    HW1 8060   4.611   2.139   2.264
 2684SOL    HW2 8061   4.758   2.096   2.323
 2685SOL     OW 8062   4.183   3.014   2.603
 2685SOL    HW1 8063   4.112   2.987   2.668
 2685SOL    HW2 8064   4.157   2.986   2.510
 2686SOL     OW 8065   3.802   2.418   3.248
 2686SOL    HW1 8066   3.894   2.417   3.207
 2686SOL    HW2 8067   3.796   2.492   3.315
 2687SOL     OW 8068   4.285   2.084   3.009
 2687SOL    HW1 8069   4.323   2.000   3.046
 2687SOL    HW2 8070   4.197   2.103   3.053
 2688SOL     OW 8071   4.251   2.118   2.190
 2688SOL    HW1 8072   4.278   2.059   2.115
 2688SOL    HW2 8073   4.251   2.213   2.159
 2689SOL     OW 8074   4.134   2.675   3.113
 2689SOL    HW1 8075   4.220   2.687   3.163
 2689SOL    HW2 8076   4.092   2.588   3.140
 2690SOL     OW 8077   3.788   3.426   3.193
 2690SOL    HW1 8078   3.742   3.508   3.159
 2690SOL    HW2 8079   3.886   3.445   3.202
 2691SOL     OW 8080   4.091   2.962   2.363
 2691SOL    HW1 8081   4.084   3.045   2.307
 2691SOL    HW2 8082   4.095   2.882   2.303
 2692SOL     OW 8083   4.290   2.399   2.727
 2692SOL    HW1 8084   4.302   2.465   2.653
 2692SOL    HW2 8085   4.336   2.433   2.810
 2693SOL     OW 8086   4.078   3.372   3.191
 2693SOL    HW1 8087   4.057   3.328   3.104
 2693SOL    HW2 8088   4.175   3.398   3.194
 2694SOL     OW 8089   4.126   2.613   3.460
 2694SOL    HW1 8090   4.194   2.668   3.413
 2694SOL    HW2 8091   4.166   2.525   3.487
 2695SOL     OW 8092   4.228   1.912   3.602
 2695SOL    HW1 8093   4.186   1.855   3.532
 2695SOL    HW2 8094   4.162   1.981   3.634
 2696SOL     OW 8095   4.297   2.732   2.891
 2696SOL    HW1 8096   4.341   2.821   2.882
 2696SOL    HW2 8097   4.234   2.732   2.968
 2697SOL     OW 8098   4.031   2.075   3.093
 2697SOL    HW1 8099   4.008   2.112   3.183
 2697SOL    HW2 8100   4.001   1.980   3.087
 2698SOL     OW 8101   3.761   3.172   3.144
 2698SOL    HW1 8102   3.814   3.123   3.212
 2698SOL    HW2 8103   3.783   3.270   3.149
 2699SOL     OW 8104   4.031   1.925   2.480
 2699SOL    HW1 8105   4.020   2.019   2.513
 2699SOL    HW2 8106   4.026   1.862   2.557
 2700SOL     OW 8107   4.074   2.760   3.666
 2700SOL    HW1 8108   4.150   2.804   3.714
 2700SOL    HW2 8109   4.109   2.713   3.584
 2701SOL     OW 8110   4.043   2.672   2.811
 2701SOL    HW1 8111   4.136   2.708   2.816
 2701SOL    HW2 8112   4.037   2.587   2.863
 2702SOL     OW 8113   4.063   2.371   2.868
 2702SOL    HW1 8114   4.011   2.288   2.851
 2702SOL    HW2 8115   4.140   2.376   2.804
 2703SOL     OW 8116   3.732   3.188   2.062
 2703SOL    HW1 8117   3.639   3.209   2.031
 2703SOL    HW2 8118   3.742   3.089   2.075
 2704SOL     OW 8119   3.812   3.663   2.789
 2704SOL    HW1 8120   3.770   3.577   2.762
 2704SOL    HW2 8121   3.906   3.666   2.755
 2705SOL     OW 8122   4.228   3.430   2.772
 2705SOL    HW1 8123   4.294   3.504   2.781
 2705SOL    HW2 8124   4.272   3.351   2.730
 2706SOL     OW 8125   3.764   2.406   2.976
 2706SOL    HW1 8126   3.849   2.373   2.935
 2706SOL    HW2 8127   3.777   2.421   3.074
 2707SOL     OW 8128   3.913   2.382   3.584
 2707SOL    HW1 8129   3.972   2.342   3.514
 2707SOL    HW2 8130   3.855   2.453   3.543
 2708SOL     OW 8131   4.539   2.434   2.187
 2708SOL    HW1 8132   4.546   2.345   2.141
 2708SOL    HW2 8133   4.445   2.468   2.179
 2709SOL     OW 8134   3.976   3.426   3.606
 2709SOL    HW1 8135   3.946   3.483   3.682
 2709SOL    HW2 8136   3.969   3.329   3.632
 2710SOL     OW 8137   4.197   2.362   2.053
 2710SOL    HW1 8138   4.258   2.442   2.057
 2710SOL    HW2 8139   4.102   2.393   2.060
 2711SOL     OW 8140   3.883   2.999   3.328
 2711SOL    HW1 8141   3.905   2.938   3.404
 2711SOL    HW2 8142   3.893   2.950   3.242
 2712SOL     OW 8143   3.807   3.120   2.884
 2712SOL    HW1 8144   3.802   3.119   2.984
 2712SOL    HW2 8145   3.724   3.079   2.846
 2713SOL     OW 8146   4.412   3.524   3.578
 2713SOL    HW1 8147   4.356   3.605   3.587
 2713SOL    HW2 8148   4.464   3.528   3.492
 2714SOL     OW 8149   3.854   3.656   3.713
 2714SOL    HW1 8150   3.813   3.582   3.766
 2714SOL    HW2 8151   3.918   3.707   3.771
 2715SOL     OW 8152   3.987   2.188   2.582
 2715SOL    HW1 8153   3.908   2.239   2.548
 2715SOL    HW2 8154   3.978   2.173   2.680
 2716SOL     OW 8155   4.096   3.150   3.352
 2716SOL    HW1 8156   4.083   3.243   3.318
 2716SOL    HW2 8157   4.012   3.098   3.339
 2717SOL     OW 8158   4.314   3.349   2.353
 2717SOL    HW1 8159   4.356   3.291   2.283
 2717SOL    HW2 8160   4.270   3.428   2.309
 2718SOL     OW 8161   3.979   3.210   2.152
 2718SOL    HW1 8162   3.883   3.211   2.125
 2718SOL    HW2 8163   3.991   3.263   2.236
 2719SOL     OW 8164   3.829   2.875   3.588
 2719SOL    HW1 8165   3.752   2.842   3.642
 2719SOL    HW2 8166   3.914   2.845   3.630
 2720SOL     OW 8167   4.396   2.065   3.351
 2720SOL    HW1 8168   4.486   2.049   3.311
 2720SOL    HW2 8169   4.404   2.070   3.450
 2721SOL     OW 8170   3.799   2.207   1.895
 2721SOL    HW1 8171   3.707   2.179   1.866
 2721SOL    HW2 8172   3.830   2.284   1.839
 2722SOL     OW 8173   3.796   2.028   2.180
 2722SOL    HW1 8174   3.779   2.111   2.126
 2722SOL    HW2 8175   3.886   1.991   2.158
 2723SOL     OW 8176   4.337   2.704   3.293
 2723SOL    HW1 8177   4.393   2.785   3.276
 2723SOL    HW2 8178   4.396   2.624   3.296
 2724SOL     OW 8179   4.114   3.603   3.422
 2724SOL    HW1 8180   4.023   3.644   3.420
 2724SOL    HW2 8181   4.107   3.509   3.454
 2725SOL     OW 8182   4.318   2.607   2.514
 2725SOL    HW1 8183   4.368   2.692   2.495
 2725SOL    HW2 8184   4.230   2.609   2.466
 2726SOL     OW 8185   3.945   3.176   3.706
 2726SOL    HW1 8186   3.880   3.103   3.685
 2726SOL    HW2 8187   3.949   3.190   3.804
 2727SOL     OW 8188   3.803   3.102   2.515
 2727SOL    HW1 8189   3.802   3.055   2.603
 2727SOL    HW2 8190   3.885   3.074   2.464
 2728SOL     OW 8191   4.396   3.253   3.486
 2728SOL    HW1 8192   4.318   3.203   3.524
 2728SOL    HW2 8193   4.393   3.348   3.517
 2729SOL     OW 8194   4.152   2.286   2.382
 2729SOL    HW1 8195   4.182   2.214   2.320
 2729SOL    HW2 8196   4.113   2.246   2.465
 2730SOL     OW 8197   4.041   2.409   3.142
 2730SOL    HW1 8198   4.079   2.350   3.214
 2730SOL    HW2 8199   4.081   2.383   3.054
 2731SOL     OW 8200   3.763   2.939   2.162
 2731SOL    HW1 8201   3.862   2.928   2.153
 2731SOL    HW2 8202   3.723   2.853   2.194
 2732SOL     OW 8203   3.954   2.490   3.837
 2732SOL    HW1 8204   3.861   2.488   3.874
 2732SOL    HW2 8205   3.955   2.451   3.745
 2733SOL     OW 8206   3.955   3.575   4.207
 2733SOL    HW1 8207   3.989   3.652   4.261
 2733SOL    HW2 8208   3.999   3.575   4.117
 2734SOL     OW 8209   3.954   3.296   4.262
 2734SOL    HW1 8210   3.928   3.392   4.262
 2734SOL    HW2 8211   3.883   3.242   4.307
 2735SOL     OW 8212   3.846   2.505   4.287
 2735SOL    HW1 8213   3.801   2.417   4.304
 2735SOL    HW2 8214   3.845   2.559   4.371
 2736SOL     OW 8215   3.751   3.458   3.841
 2736SOL    HW1 8216   3.732   3.362   3.862
 2736SOL    HW2 8217   3.718   3.516   3.916
 2737SOL     OW 8218   4.533   1.866   4.226
 2737SOL    HW1 8219   4.573   1.957   4.217
 2737SOL    HW2 8220   4.433   1.874   4.232
 2738SOL     OW 8221   4.322   2.591   3.994
 2738SOL    HW1 8222   4.346   2.660   3.926
 2738SOL    HW2 8223   4.244   2.624   4.048
 2739SOL     OW 8224   3.800   2.673   4.513
 2739SOL    HW1 8225   3.899   2.661   4.522
 2739SOL    HW2 8226   3.776   2.768   4.534
 2740SOL     OW 8227   4.589   2.210   3.919
 2740SOL    HW1 8228   4.648   2.273   3.870
 2740SOL    HW2 8229   4.608   2.116   3.890
 2741SOL     OW 8230   4.075   3.663   4.577
 2741SOL    HW1 8231   4.125   3.577   4.583
 2741SOL    HW2 8232   4.140   3.740   4.574
 2742SOL     OW 8233   4.045   2.805   3.966
 2742SOL    HW1 8234   4.127   2.844   3.924
 2742SOL    HW2 8235   4.018   2.723   3.917
 2743SOL     OW 8236   4.188   3.605   4.047
 2743SOL    HW1 8237   4.221   3.644   4.133
 2743SOL    HW2 8238   4.264   3.598   3.982
 2744SOL     OW 8239   4.106   2.562   4.204
 2744SOL    HW1 8240   4.151   2.472   4.201
 2744SOL    HW2 8241   4.012   2.551   4.237
 2745SOL     OW 8242   4.338   1.984   3.841
 2745SOL    HW1 8243   4.436   1.962   3.848
 2745SOL    HW2 8244   4.307   1.967   3.748
 2746SOL     OW 8245   4.263   1.926   4.236
 2746SOL    HW1 8246   4.182   1.927   4.294
 2746SOL    HW2 8247   4.266   2.009   4.181
 2747SOL     OW 8248   4.021   1.897   3.895
 2747SOL    HW1 8249   4.070   1.981   3.874
 2747SOL    HW2 8250   4.083   1.832   3.940
 2748SOL     OW 8251   4.659   2.098   4.204
 2748SOL    HW1 8252   4.611   2.139   4.126
 2748SOL    HW2 8253   4.758   2.096   4.185
 2749SOL     OW 8254   4.183   3.014   4.465
 2749SOL    HW1 8255   4.112   2.987   4.530
 2749SOL    HW2 8256   4.157   2.986   4.372
 2750SOL     OW 8257   4.251   2.118   4.052
 2750SOL    HW1 8258   4.278   2.059   3.977
 2750SOL    HW2 8259   4.251   2.213   4.021
 2751SOL     OW 8260   4.091   2.962   4.225
 2751SOL    HW1 8261   4.084   3.045   4.169
 2751SOL    HW2 8262   4.095   2.882   4.165
 2752SOL     OW 8263   4.031   1.925   4.342
 2752SOL    HW1 8264   4.020   2.019   4.375
 2752SOL    HW2 8265   4.026   1.862   4.419
 2753SOL     OW 8266   3.732   3.188   3.924
 2753SOL    HW1 8267   3.639   3.209   3.893
 2753SOL    HW2 8268   3.742   3.089   3.937
 2754SOL     OW 8269   4.539   2.434   4.049
 2754SOL    HW1 8270   4.546   2.345   4.003
 2754SOL    HW2 8271   4.445   2.468   4.041
 2755SOL     OW 8272   4.197   2.362   3.915
 2755SOL    HW1 8273   4.258   2.442   3.919
 2755SOL    HW2 8274   4.102   2.393   3.922
 2756SOL     OW 8275   4.314   3.349   4.215
 2756SOL    HW1 8276   4.356   3.291   4.145
 2756SOL    HW2 8277   4.270   3.428   4.171
 2757SOL     OW 8278   3.979   3.210   4.014
 2757SOL    HW1 8279   3.883   3.211   3.987
 2757SOL    HW2 8280   3.991   3.263   4.098
 2758SOL     OW 8281   3.799   2.207   3.757
 2758SOL    HW1 8282   3.707   2.179   3.728
 2758SOL    HW2 8283   3.830   2.284   3.701
 2759SOL     OW 8284   3.796   2.028   4.042
 2759SOL    HW1 8285   3.779   2.111   3.988
 2759SOL    HW2 8286   3.886   1.991   4.020
 2760SOL     OW 8287   4.318   2.607   4.376
 2760SOL    HW1 8288   4.368   2.692   4.357
 2760SOL    HW2 8289   4.230   2.609   4.328
 2761SOL     OW 8290   3.803   3.102   4.377
 2761SOL    HW1 8291   3.802   3.055   4.465
 2761SOL    HW2 8292   3.885   3.074   4.326
 2762SOL     OW 8293   4.152   2.286   4.244
 2762SOL    HW1 8294   4.182   2.214   4.182
 2762SOL    HW2 8295   4.113   2.246   4.327
 2763SOL     OW 8296   3.763   2.939   4.024
 2763SOL    HW1 8297   3.862   2.928   4.015
 2763SOL    HW2 8298   3.723   2.853   4.056
 2764SOL     OW 8299   3.949   3.999   0.996
 2764SOL    HW1 8300   3.984   3.982   1.088
 2764SOL    HW2 8301   3.861   3.954   0.984
 2765SOL     OW 8302   3.743   4.092   0.647
 2765SOL    HW1 8303   3.661   4.135   0.686
 2765SOL    HW2 8304   3.715   4.019   0.584
 2766SOL     OW 8305   4.574   4.522   1.823
 2766SOL    HW1 8306   4.570   4.598   1.888
 2766SOL    HW2 8307   4.596   4.558   1.732
 2767SOL     OW 8308   4.162   4.116   1.499
 2767SOL    HW1 8309   4.244   4.060   1.508
 2767SOL    HW2 8310   4.081   4.058   1.503
 2768SOL     OW 8311   3.846   4.367   0.563
 2768SOL    HW1 8312   3.801   4.279   0.580
 2768SOL    HW2 8313   3.845   4.421   0.647
 2769SOL     OW 8314   3.837   4.461   1.597
 2769SOL    HW1 8315   3.925   4.448   1.642
 2769SOL    HW2 8316   3.824   4.558   1.575
 2770SOL     OW 8317   4.533   3.728   0.502
 2770SOL    HW1 8318   4.573   3.819   0.493
 2770SOL    HW2 8319   4.433   3.736   0.508
 2771SOL     OW 8320   4.041   3.975   1.801
 2771SOL    HW1 8321   4.112   4.046   1.807
 2771SOL    HW2 8322   3.953   4.014   1.829
 2772SOL     OW 8323   4.589   4.072   0.195
 2772SOL    HW1 8324   4.648   4.135   0.146
 2772SOL    HW2 8325   4.608   3.978   0.166
 2773SOL     OW 8326   4.274   3.920   0.885
 2773SOL    HW1 8327   4.269   3.915   0.985
 2773SOL    HW2 8328   4.276   4.016   0.856
 2774SOL     OW 8329   3.926   4.009   1.498
 2774SOL    HW1 8330   3.846   4.069   1.485
 2774SOL    HW2 8331   3.916   3.960   1.584
 2775SOL     OW 8332   4.338   3.846   0.117
 2775SOL    HW1 8333   4.436   3.824   0.124
 2775SOL    HW2 8334   4.307   3.829   0.024
 2776SOL     OW 8335   4.263   3.788   0.512
 2776SOL    HW1 8336   4.182   3.789   0.570
 2776SOL    HW2 8337   4.266   3.871   0.457
 2777SOL     OW 8338   4.659   3.960   0.480
 2777SOL    HW1 8339   4.611   4.001   0.402
 2777SOL    HW2 8340   4.758   3.958   0.461
 2778SOL     OW 8341   3.802   4.280   1.386
 2778SOL    HW1 8342   3.894   4.279   1.345
 2778SOL    HW2 8343   3.796   4.354   1.453
 2779SOL     OW 8344   4.285   3.946   1.147
 2779SOL    HW1 8345   4.323   3.862   1.184
 2779SOL    HW2 8346   4.197   3.965   1.191
 2780SOL     OW 8347   4.251   3.980   0.328
 2780SOL    HW1 8348   4.278   3.921   0.253
 2780SOL    HW2 8349   4.251   4.075   0.297
 2781SOL     OW 8350   4.290   4.261   0.865
 2781SOL    HW1 8351   4.302   4.327   0.791
 2781SOL    HW2 8352   4.336   4.295   0.948
 2782SOL     OW 8353   4.228   3.774   1.740
 2782SOL    HW1 8354   4.186   3.717   1.670
 2782SOL    HW2 8355   4.162   3.843   1.772
 2783SOL     OW 8356   4.031   3.937   1.231
 2783SOL    HW1 8357   4.008   3.974   1.321
 2783SOL    HW2 8358   4.001   3.842   1.225
 2784SOL     OW 8359   4.031   3.787   0.618
 2784SOL    HW1 8360   4.020   3.881   0.651
 2784SOL    HW2 8361   4.026   3.724   0.695
 2785SOL     OW 8362   4.043   4.534   0.949
 2785SOL    HW1 8363   4.136   4.570   0.954
 2785SOL    HW2 8364   4.037   4.449   1.001
 2786SOL     OW 8365   4.063   4.233   1.006
 2786SOL    HW1 8366   4.011   4.150   0.989
 2786SOL    HW2 8367   4.140   4.238   0.942
 2787SOL     OW 8368   3.764   4.268   1.114
 2787SOL    HW1 8369   3.849   4.235   1.073
 2787SOL    HW2 8370   3.777   4.283   1.212
 2788SOL     OW 8371   3.913   4.244   1.722
 2788SOL    HW1 8372   3.972   4.204   1.652
 2788SOL    HW2 8373   3.855   4.315   1.681
 2789SOL     OW 8374   4.539   4.296   0.325
 2789SOL    HW1 8375   4.546   4.207   0.279
 2789SOL    HW2 8376   4.445   4.330   0.317
 2790SOL     OW 8377   4.197   4.224   0.191
 2790SOL    HW1 8378   4.258   4.304   0.195
 2790SOL    HW2 8379   4.102   4.255   0.198
 2791SOL     OW 8380   3.987   4.050   0.720
 2791SOL    HW1 8381   3.908   4.101   0.686
 2791SOL    HW2 8382   3.978   4.035   0.818
 2792SOL     OW 8383   4.396   3.927   1.489
 2792SOL    HW1 8384   4.486   3.911   1.449
 2792SOL    HW2 8385   4.404   3.932   1.588
 2793SOL     OW 8386   3.799   4.069   0.033
 2793SOL    HW1 8387   3.707   4.041   0.004
 2793SOL    HW2 8388   3.830   4.146  -0.023
 2794SOL     OW 8389   4.152   4.148   0.520
 2794SOL    HW1 8390   4.182   4.076   0.458
 2794SOL    HW2 8391   4.113   4.108   0.603
 2795SOL     OW 8392   4.041   4.271   1.280
 2795SOL    HW1 8393   4.079   4.212   1.352
 2795SOL    HW2 8394   4.081   4.245   1.192
 2796SOL     OW 8395   3.949   3.999   2.858
 2796SOL    HW1 8396   3.984   3.982   2.950
 2796SOL    HW2 8397   3.861   3.954   2.846
 2797SOL     OW 8398   3.743   4.092   2.509
 2797SOL    HW1 8399   3.661   4.135   2.548
 2797SOL    HW2 8400   3.715   4.019   2.446
 2798SOL     OW 8401   4.574   4.522   3.685
 2798SOL    HW1 8402   4.570   4.598   3.750
 2798SOL    HW2 8403   4.596   4.558   3.594
 2799SOL     OW 8404   4.162   4.116   3.361
 2799SOL    HW1 8405   4.244   4.060   3.370
 2799SOL    HW2 8406   4.081   4.058   3.365
 2800SOL     OW 8407   3.846   4.367   2.425
 2800SOL    HW1 8408   3.801   4.279   2.442
 2800SOL    HW2 8409   3.845   4.421   2.509
 2801SOL     OW 8410   3.837   4.461   3.459
 2801SOL    HW1 8411   3.925   4.448   3.504
 2801SOL    HW2 8412   3.824   4.558   3.437
 2802SOL     OW 8413   4.533   3.728   2.364
 2802SOL    HW1 8414   4.573   3.819   2.355
 2802SOL    HW2 8415   4.433   3.736   2.370
 2803SOL     OW 8416   4.041   3.975   3.663
 2803SOL    HW1 8417   4.112   4.046   3.669
 2803SOL    HW2 8418   3.953   4.014   3.691
 2804SOL     OW 8419   4.589   4.072   2.057
 2804SOL    HW1 8420   4.648   4.135   2.008
 2804SOL    HW2 8421   4.608   3.978   2.028
 2805SOL     OW 8422   4.274   3.920   2.747
 2805SOL    HW1 8423   4.269   3.915   2.847
 2805SOL    HW2 8424   4.276   4.016   2.718
 2806SOL     OW 8425   3.926   4.009   3.360
 2806SOL    HW1 8426   3.846   4.069   3.347
 2806SOL    HW2 8427   3.916   3.960   3.446
 2807SOL     OW 8428   4.338   3.846   1.979
 2807SOL    HW1 8429   4.436   3.824   1.986
 2807SOL    HW2 8430   4.307   3.829   1.886
 2808SOL     OW 8431   4.263   3.788   2.374
 2808SOL    HW1 8432   4.182   3.789   2.432
 2808SOL    HW2 8433   4.266   3.871   2.319
 2809SOL     OW 8434   4.021   3.759   2.033
 2809SOL    HW1 8435   4.070   3.843   2.012
 2809SOL    HW2 8436   4.083   3.694   2.078
 2810SOL     OW 8437   4.659   3.960   2.342
 2810SOL    HW1 8438   4.611   4.001   2.264
 2810SOL    HW2 8439   4.758   3.958   2.323
 2811SOL     OW 8440   3.802   4.280   3.248
 2811SOL    HW1 8441   3.894   4.279   3.207
 2811SOL    HW2 8442   3.796   4.354   3.315
 2812SOL     OW 8443   4.285   3.946   3.009
 2812SOL    HW1 8444   4.323   3.862   3.046
 2812SOL    HW2 8445   4.197   3.965   3.053
 2813SOL     OW 8446   4.251   3.980   2.190
 2813SOL    HW1 8447   4.278   3.921   2.115
 2813SOL    HW2 8448   4.251   4.075   2.159
 2814SOL     OW 8449   4.290   4.261   2.727
 2814SOL    HW1 8450   4.302   4.327   2.653
 2814SOL    HW2 8451   4.336   4.295   2.810
 2815SOL     OW 8452   4.228   3.774   3.602
 2815SOL    HW1 8453   4.186   3.717   3.532
 2815SOL    HW2 8454   4.162   3.843   3.634
 2816SOL     OW 8455   4.031   3.937   3.093
 2816SOL    HW1 8456   4.008   3.974   3.183
 2816SOL    HW2 8457   4.001   3.842   3.087
 2817SOL     OW 8458   4.031   3.787   2.480
 2817SOL    HW1 8459   4.020   3.881   2.513
 2817SOL    HW2 8460   4.026   3.724   2.557
 2818SOL     OW 8461   4.043   4.534   2.811
 2818SOL    HW1 8462   4.136   4.570   2.816
 2818SOL    HW2 8463   4.037   4.449   2.863
 2819SOL     OW 8464   4.063   4.233   2.868
 2819SOL    HW1 8465   4.011   4.150   2.851
 2819SOL    HW2 8466   4.140   4.238   2.804
 2820SOL     OW 8467   3.764   4.268   2.976
 2820SOL    HW1 8468   3.849   4.235   2.935
 2820SOL    HW2 8469   3.777   4.283   3.074
 2821SOL     OW 8470   3.913   4.244   3.584
 2821SOL    HW1 8471   3.972   4.204   3.514
 2821SOL    HW2 8472   3.855   4.315   3.543
 2822SOL     OW 8473   4.539   4.296   2.187
 2822SOL    HW1 8474   4.546   4.207   2.141
 2822SOL    HW2 8475   4.445   4.330   2.179
 2823SOL     OW 8476   4.197   4.224   2.053
 2823SOL    HW1 8477   4.258   4.304   2.057
 2823SOL    HW2 8478   4.102   4.255   2.060
 2824SOL     OW 8479   3.987   4.050   2.582
 2824SOL    HW1 8480   3.908   4.101   2.548
 2824SOL    HW2 8481   3.978   4.035   2.680
 2825SOL     OW 8482   4.396   3.927   3.351
 2825SOL    HW1 8483   4.486   3.911   3.311
 2825SOL    HW2 8484   4.404   3.932   3.450
 2826SOL     OW 8485   3.799   4.069   1.895
 2826SOL    HW1 8486   3.707   4.041   1.866
 2826SOL    HW2 8487   3.830   4.146   1.839
 2827SOL     OW 8488   3.796   3.890   2.180
 2827SOL    HW1 8489   3.779   3.973   2.126
 2827SOL    HW2 8490   3.886   3.853   2.158
 2828SOL     OW 8491   4.152   4.148   2.382
 2828SOL    HW1 8492   4.182   4.076   2.320
 2828SOL    HW2 8493   4.113   4.108   2.465
 2829SOL     OW 8494   4.041   4.271   3.142
 2829SOL    HW1 8495   4.079   4.212   3.214
 2829SOL    HW2 8496   4.081   4.245   3.054
 2830SOL     OW 8497   3.846   4.367   4.287
 2830SOL    HW1 8498   3.801   4.279   4.304
 2830SOL    HW2 8499   3.845   4.421   4.371
 2831SOL     OW 8500   4.533   3.728   4.226
 2831SOL    HW1 8501   4.573   3.819   4.217
 2831SOL    HW2 8502   4.433   3.736   4.232
 2832SOL     OW 8503   4.589   4.072   3.919
 2832SOL    HW1 8504   4.648   4.135   3.870
 2832SOL    HW2 8505   4.608   3.978   3.890
 2833SOL     OW 8506   4.338   3.846   3.841
 2833SOL    HW1 8507   4.436   3.824   3.848
 2833SOL    HW2 8508   4.307   3.829   3.748
 2834SOL     OW 8509   4.263   3.788   4.236
 2834SOL    HW1 8510   4.182   3.789   4.294
 2834SOL    HW2 8511   4.266   3.871   4.181
 2835SOL     OW 8512   4.021   3.759   3.895
 2835SOL    HW1 8513   4.070   3.843   3.874
 2835SOL    HW2 8514   4.083   3.694   3.940
 2836SOL     OW 8515   4.659   3.960   4.204
 2836SOL    HW1 8516   4.611   4.001   4.126
 2836SOL    HW2 8517   4.758   3.958   4.185
 2837SOL     OW 8518   4.251   3.980   4.052
 2837SOL    HW1 8519   4.278   3.921   3.977
 2837SOL    HW2 8520   4.251   4.075   4.021
 2838SOL     OW 8521   4.031   3.787   4.342
 2838SOL    HW1 8522   4.020   3.881   4.375
 2838SOL    HW2 8523   4.026   3.724   4.419
 2839SOL     OW 8524   4.539   4.296   4.049
 2839SOL    HW1 8525   4.546   4.207   4.003
 2839SOL    HW2 8526   4.445   4.330   4.041
 2840SOL     OW 8527   4.197   4.224   3.915
 2840SOL    HW1 8528   4.258   4.304   3.919
 2840SOL    HW2 8529   4.102   4.255   3.922
 2841SOL     OW 8530   3.799   4.069   3.757
 2841SOL    HW1 8531   3.707   4.041   3.728
 2841SOL    HW2 8532   3.830   4.146   3.701
 2842SOL     OW 8533   3.796   3.890   4.042
 2842SOL    HW1 8534   3.779   3.973   3.988
 2842SOL    HW2 8535   3.886   3.853   4.020
 2843SOL     OW 8536   4.152   4.148   4.244
 2843SOL    HW1 8537   4.182   4.076   4.182
 2843SOL    HW2 8538   4.113   4.108   4.327
   4.43082   4.43082   4.43082
