mobley_4715906_GMX.gro created by acpype (v: 2023.10.27) on Thu May 21 00:01:57 2026
   24
    1MOL     C1    1   2.210   2.342   2.126
    1MOL     C2    2   2.156   2.427   2.240
    1MOL     C3    3   2.242   2.200   2.172
    1MOL     C4    4   2.249   2.427   2.361
    1MOL     C5    5   2.338   2.197   2.293
    1MOL     C6    6   2.282   2.284   2.408
    1MOL     C7    7   2.480   2.234   2.250
    1MOL     C8    8   2.373   2.287   2.530
    1MOL     H1    9   2.136   2.338   2.045
    1MOL     H2   10   2.300   2.389   2.085
    1MOL     H3   11   2.141   2.530   2.205
    1MOL     H4   12   2.058   2.390   2.270
    1MOL     H5   13   2.149   2.150   2.199
    1MOL     H6   14   2.285   2.143   2.089
    1MOL     H7   15   2.342   2.480   2.335
    1MOL     H8   16   2.203   2.483   2.443
    1MOL     H9   17   2.342   2.093   2.329
    1MOL    H10   18   2.187   2.238   2.440
    1MOL    H11   19   2.509   2.331   2.292
    1MOL    H12   20   2.552   2.159   2.286
    1MOL    H13   21   2.488   2.239   2.141
    1MOL    H14   22   2.458   2.354   2.513
    1MOL    H15   23   2.318   2.323   2.618
    1MOL    H16   24   2.411   2.187   2.552
   4.60140   4.60140   4.60140
