mobley_4715906_GMX.gro created by acpype (v: 2023.10.27) on Thu May 21 00:01:57 2026
 9522
    1MOL     C1    1   2.210   2.342   2.126
    1MOL     C2    2   2.156   2.427   2.240
    1MOL     C3    3   2.242   2.200   2.172
    1MOL     C4    4   2.249   2.427   2.361
    1MOL     C5    5   2.338   2.197   2.293
    1MOL     C6    6   2.282   2.284   2.408
    1MOL     C7    7   2.480   2.234   2.250
    1MOL     C8    8   2.373   2.287   2.530
    1MOL     H1    9   2.136   2.338   2.045
    1MOL     H2   10   2.300   2.389   2.085
    1MOL     H3   11   2.141   2.530   2.205
    1MOL     H4   12   2.058   2.390   2.270
    1MOL     H5   13   2.149   2.150   2.199
    1MOL     H6   14   2.285   2.143   2.089
    1MOL     H7   15   2.342   2.480   2.335
    1MOL     H8   16   2.203   2.483   2.443
    1MOL     H9   17   2.342   2.093   2.329
    1MOL    H10   18   2.187   2.238   2.440
    1MOL    H11   19   2.509   2.331   2.292
    1MOL    H12   20   2.552   2.159   2.286
    1MOL    H13   21   2.488   2.239   2.141
    1MOL    H14   22   2.458   2.354   2.513
    1MOL    H15   23   2.318   2.323   2.618
    1MOL    H16   24   2.411   2.187   2.552
    2SOL     OW   25   0.230   0.628   0.113
    2SOL    HW1   26   0.137   0.626   0.150
    2SOL    HW2   27   0.231   0.589   0.021
    3SOL     OW   28   0.225   0.275   0.996
    3SOL    HW1   29   0.260   0.258   1.088
    3SOL    HW2   30   0.137   0.230   0.984
    4SOL     OW   31   0.019   0.368   0.647
    4SOL    HW1   32  -0.063   0.411   0.686
    4SOL    HW2   33  -0.009   0.295   0.584
    5SOL     OW   34   0.569   1.275   1.165
    5SOL    HW1   35   0.476   1.268   1.128
    5SOL    HW2   36   0.580   1.364   1.209
    6SOL     OW   37   1.555   1.511   0.703
    6SOL    HW1   38   1.498   1.495   0.784
    6SOL    HW2   39   1.496   1.521   0.623
    7SOL     OW   40   1.135   0.703   0.717
    7SOL    HW1   41   1.192   0.781   0.692
    7SOL    HW2   42   1.075   0.729   0.793
    8SOL     OW   43   1.755   0.607   0.231
    8SOL    HW1   44   1.743   0.594   0.132
    8SOL    HW2   45   1.725   0.526   0.280
    9SOL     OW   46   0.768   1.144   1.023
    9SOL    HW1   47   0.690   1.161   1.083
    9SOL    HW2   48   0.802   1.231   0.987
   10SOL     OW   49   0.850   0.798   1.823
   10SOL    HW1   50   0.846   0.874   1.888
   10SOL    HW2   51   0.872   0.834   1.732
   11SOL     OW   52   0.685   1.012   0.665
   11SOL    HW1   53   0.754   0.996   0.735
   11SOL    HW2   54   0.612   1.069   0.703
   12SOL     OW   55   0.686   1.161   1.803
   12SOL    HW1   56   0.746   1.240   1.817
   12SOL    HW2   57   0.600   1.192   1.762
   13SOL     OW   58   0.335   1.435   1.061
   13SOL    HW1   59   0.257   1.404   1.008
   13SOL    HW2   60   0.393   1.493   1.004
   14SOL     OW   61   1.460   1.505   1.339
   14SOL    HW1   62   1.484   1.599   1.365
   14SOL    HW2   63   1.444   1.451   1.421
   15SOL     OW   64   0.438   0.392   1.499
   15SOL    HW1   65   0.520   0.336   1.508
   15SOL    HW2   66   0.357   0.334   1.503
   16SOL     OW   67   1.603   0.447   0.737
   16SOL    HW1   68   1.529   0.493   0.687
   16SOL    HW2   69   1.654   0.515   0.790
   17SOL     OW   70   0.231   1.713   0.483
   17SOL    HW1   71   0.265   1.790   0.537
   17SOL    HW2   72   0.275   1.713   0.393
   18SOL     OW   73   1.127   1.341   1.690
   18SOL    HW1   74   1.174   1.341   1.778
   18SOL    HW2   75   1.079   1.254   1.679
   19SOL     OW   76   0.230   1.434   0.538
   19SOL    HW1   77   0.204   1.530   0.538
   19SOL    HW2   78   0.159   1.380   0.583
   20SOL     OW   79   0.240   1.091   0.886
   20SOL    HW1   80   0.254   1.007   0.938
   20SOL    HW2   81   0.185   1.155   0.941
   21SOL     OW   82   0.620   1.786   1.439
   21SOL    HW1   83   0.528   1.769   1.474
   21SOL    HW2   84   0.648   1.878   1.465
   22SOL     OW   85   0.606   0.964   0.123
   22SOL    HW1   86   0.613   1.048   0.069
   22SOL    HW2   87   0.652   0.977   0.211
   23SOL     OW   88   1.594   0.114   1.480
   23SOL    HW1   89   1.576   0.181   1.408
   23SOL    HW2   90   1.591   0.160   1.569
   24SOL     OW   91   0.122   0.643   0.563
   24SOL    HW1   92   0.077   0.555   0.580
   24SOL    HW2   93   0.121   0.697   0.647
   25SOL     OW   94   1.842   1.767   0.359
   25SOL    HW1   95   1.896   1.738   0.439
   25SOL    HW2   96   1.872   1.857   0.330
   26SOL     OW   97   0.027   1.596   0.117
   26SOL    HW1   98   0.008   1.500   0.138
   26SOL    HW2   99  -0.006   1.654   0.192
   27SOL     OW  100   1.689   0.922   0.612
   27SOL    HW1  101   1.784   0.893   0.620
   27SOL    HW2  102   1.681   0.987   0.537
   28SOL     OW  103   1.641   1.108   0.432
   28SOL    HW1  104   1.727   1.110   0.380
   28SOL    HW2  105   1.655   1.155   0.520
   29SOL     OW  106   0.113   0.737   1.597
   29SOL    HW1  107   0.201   0.724   1.642
   29SOL    HW2  108   0.100   0.834   1.575
   30SOL     OW  109   0.613   1.365   0.726
   30SOL    HW1  110   0.564   1.278   0.735
   30SOL    HW2  111   0.590   1.408   0.639
   31SOL     OW  112   1.293   1.228   1.423
   31SOL    HW1  113   1.330   1.155   1.365
   31SOL    HW2  114   1.345   1.233   1.508
   32SOL     OW  115   0.809   0.004   0.502
   32SOL    HW1  116   0.849   0.095   0.493
   32SOL    HW2  117   0.709   0.012   0.508
   33SOL     OW  118   0.197   0.976   1.264
   33SOL    HW1  119   0.286   0.931   1.250
   33SOL    HW2  120   0.124   0.911   1.245
   34SOL     OW  121   1.525   0.999   0.190
   34SOL    HW1  122   1.462   0.923   0.203
   34SOL    HW2  123   1.573   1.017   0.276
   35SOL     OW  124   1.187   1.792   1.616
   35SOL    HW1  125   1.211   1.852   1.540
   35SOL    HW2  126   1.194   1.697   1.586
   36SOL     OW  127   0.317   0.251   1.801
   36SOL    HW1  128   0.388   0.322   1.807
   36SOL    HW2  129   0.229   0.290   1.829
   37SOL     OW  130   1.466   1.417   0.953
   37SOL    HW1  131   1.407   1.423   1.033
   37SOL    HW2  132   1.451   1.329   0.907
   38SOL     OW  133   1.667   1.714   0.572
   38SOL    HW1  134   1.626   1.691   0.484
   38SOL    HW2  135   1.649   1.640   0.637
   39SOL     OW  136   0.598   0.729   0.270
   39SOL    HW1  137   0.622   0.798   0.202
   39SOL    HW2  138   0.520   0.762   0.324
   40SOL     OW  139   1.281   0.345   0.944
   40SOL    HW1  140   1.195   0.295   0.931
   40SOL    HW2  141   1.343   0.291   1.000
   41SOL     OW  142   1.576   1.662   0.307
   41SOL    HW1  143   1.665   1.708   0.310
   41SOL    HW2  144   1.555   1.638   0.212
   42SOL     OW  145   0.807   0.605   1.465
   42SOL    HW1  146   0.760   0.602   1.554
   42SOL    HW2  147   0.756   0.550   1.399
   43SOL     OW  148   1.394   0.469   1.674
   43SOL    HW1  149   1.374   0.512   1.762
   43SOL    HW2  150   1.472   0.407   1.683
   44SOL     OW  151   0.973   0.890   1.572
   44SOL    HW1  152   1.019   0.806   1.543
   44SOL    HW2  153   0.917   0.924   1.497
   45SOL     OW  154   0.991   0.410   1.242
   45SOL    HW1  155   0.914   0.444   1.296
   45SOL    HW2  156   0.957   0.359   1.163
   46SOL     OW  157   1.041   0.701   0.429
   46SOL    HW1  158   1.067   0.697   0.525
   46SOL    HW2  159   0.956   0.650   0.415
   47SOL     OW  160   0.076   0.811   0.789
   47SOL    HW1  161   0.175   0.799   0.798
   47SOL    HW2  162   0.052   0.906   0.810
   48SOL     OW  163   0.130   1.821   1.571
   48SOL    HW1  164   0.120   1.806   1.670
   48SOL    HW2  165   0.044   1.857   1.535
   49SOL     OW  166   0.865   0.348   0.195
   49SOL    HW1  167   0.924   0.411   0.146
   49SOL    HW2  168   0.884   0.254   0.166
   50SOL     OW  169   1.719   0.585   1.831
   50SOL    HW1  170   1.693   0.674   1.795
   50SOL    HW2  171   1.717   0.517   1.758
   51SOL     OW  172   1.362   1.144   0.545
   51SOL    HW1  173   1.445   1.115   0.497
   51SOL    HW2  174   1.313   1.211   0.489
   52SOL     OW  175   0.550   0.196   0.885
   52SOL    HW1  176   0.545   0.191   0.985
   52SOL    HW2  177   0.552   0.292   0.856
   53SOL     OW  178   1.008   1.456   0.477
   53SOL    HW1  179   0.962   1.528   0.425
   53SOL    HW2  180   1.004   1.476   0.575
   54SOL     OW  181   0.351   1.801   0.853
   54SOL    HW1  182   0.401   1.715   0.859
   54SOL    HW2  183   0.416   1.878   0.850
   55SOL     OW  184   1.795   1.066   0.873
   55SOL    HW1  185   1.733   1.051   0.797
   55SOL    HW2  186   1.743   1.077   0.958
   56SOL     OW  187   1.227   1.550   1.506
   56SOL    HW1  188   1.233   1.473   1.570
   56SOL    HW2  189   1.175   1.524   1.426
   57SOL     OW  190   0.321   0.943   0.242
   57SOL    HW1  191   0.403   0.982   0.200
   57SOL    HW2  192   0.294   0.861   0.193
   58SOL     OW  193   1.458   0.735   0.728
   58SOL    HW1  194   1.453   0.670   0.803
   58SOL    HW2  195   1.538   0.794   0.741
   59SOL     OW  196   0.461   1.266   1.727
   59SOL    HW1  197   0.411   1.267   1.641
   59SOL    HW2  198   0.398   1.248   1.803
   60SOL     OW  199   1.111   1.776   0.237
   60SOL    HW1  200   1.051   1.714   0.287
   60SOL    HW2  201   1.142   1.732   0.152
   61SOL     OW  202   0.202   0.285   1.498
   61SOL    HW1  203   0.122   0.345   1.485
   61SOL    HW2  204   0.192   0.236   1.584
   62SOL     OW  205   1.632   1.377   0.081
   62SOL    HW1  206   1.600   1.471   0.071
   62SOL    HW2  207   1.556   1.314   0.069
   63SOL     OW  208   0.464   1.743   0.323
   63SOL    HW1  209   0.497   1.782   0.409
   63SOL    HW2  210   0.540   1.736   0.258
   64SOL     OW  211   1.400   0.107   0.426
   64SOL    HW1  212   1.376   0.070   0.336
   64SOL    HW2  213   1.499   0.123   0.430
   65SOL     OW  214   0.249   1.785   1.241
   65SOL    HW1  215   0.306   1.720   1.291
   65SOL    HW2  216   0.233   1.752   1.148
   66SOL     OW  217   0.940   1.698   0.904
   66SOL    HW1  218   1.020   1.641   0.925
   66SOL    HW2  219   0.891   1.658   0.827
   67SOL     OW  220   0.382   0.700   0.480
   67SOL    HW1  221   0.427   0.610   0.477
   67SOL    HW2  222   0.288   0.689   0.513
   68SOL     OW  223   1.547   0.222   1.729
   68SOL    HW1  224   1.542   0.259   1.821
   68SOL    HW2  225   1.475   0.153   1.717
   69SOL     OW  226   0.614   0.122   0.117
   69SOL    HW1  227   0.712   0.100   0.124
   69SOL    HW2  228   0.583   0.105   0.024
   70SOL     OW  229   0.781   0.264   1.749
   70SOL    HW1  230   0.848   0.203   1.792
   70SOL    HW2  231   0.708   0.283   1.814
   71SOL     OW  232   0.888   1.514   1.195
   71SOL    HW1  233   0.865   1.489   1.101
   71SOL    HW2  234   0.949   1.445   1.234
   72SOL     OW  235   1.351   0.590   1.433
   72SOL    HW1  236   1.379   0.547   1.518
   72SOL    HW2  237   1.376   0.686   1.434
   73SOL     OW  238   0.803   1.402   0.924
   73SOL    HW1  239   0.893   1.416   0.882
   73SOL    HW2  240   0.732   1.404   0.853
   74SOL     OW  241   0.922   0.503   0.899
   74SOL    HW1  242   0.897   0.494   0.803
   74SOL    HW2  243   0.970   0.421   0.930
   75SOL     OW  244   0.539   0.064   0.512
   75SOL    HW1  245   0.458   0.065   0.570
   75SOL    HW2  246   0.542   0.147   0.457
   76SOL     OW  247   1.434   1.188   0.041
   76SOL    HW1  248   1.466   1.112   0.098
   76SOL    HW2  249   1.342   1.215   0.071
   77SOL     OW  250   0.297   0.035   0.171
   77SOL    HW1  251   0.346   0.119   0.150
   77SOL    HW2  252   0.359  -0.030   0.216
   78SOL     OW  253   0.935   0.236   0.480
   78SOL    HW1  254   0.887   0.277   0.402
   78SOL    HW2  255   1.034   0.234   0.461
   79SOL     OW  256   1.076   0.683   1.464
   79SOL    HW1  257   0.996   0.622   1.467
   79SOL    HW2  258   1.157   0.630   1.440
   80SOL     OW  259   1.227   1.570   0.793
   80SOL    HW1  260   1.248   1.644   0.728
   80SOL    HW2  261   1.295   1.570   0.866
   81SOL     OW  262   0.459   1.152   0.741
   81SOL    HW1  263   0.388   1.125   0.806
   81SOL    HW2  264   0.433   1.124   0.648
   82SOL     OW  265   1.271   1.797   0.591
   82SOL    HW1  266   1.315   1.861   0.527
   82SOL    HW2  267   1.221   1.849   0.661
   83SOL     OW  268   1.032   0.549   0.016
   83SOL    HW1  269   0.991   0.631  -0.023
   83SOL    HW2  270   1.096   0.575   0.089
   84SOL     OW  271   0.078   0.556   1.386
   84SOL    HW1  272   0.170   0.555   1.345
   84SOL    HW2  273   0.072   0.630   1.453
   85SOL     OW  274   0.561   0.222   1.147
   85SOL    HW1  275   0.599   0.138   1.184
   85SOL    HW2  276   0.473   0.241   1.191
   86SOL     OW  277   0.866   0.454   0.642
   86SOL    HW1  278   0.834   0.526   0.580
   86SOL    HW2  279   0.890   0.373   0.589
   87SOL     OW  280   1.017   0.039   0.753
   87SOL    HW1  281   0.945   0.044   0.684
   87SOL    HW2  282   0.993  -0.030   0.822
   88SOL     OW  283   1.429   1.173   0.867
   88SOL    HW1  284   1.374   1.089   0.860
   88SOL    HW2  285   1.455   1.202   0.775
   89SOL     OW  286   1.466   0.590   0.992
   89SOL    HW1  287   1.436   0.495   0.999
   89SOL    HW2  288   1.539   0.606   1.058
   90SOL     OW  289   1.857   0.833   0.377
   90SOL    HW1  290   1.899   0.769   0.441
   90SOL    HW2  291   1.819   0.782   0.299
   91SOL     OW  292   0.488   1.385   0.174
   91SOL    HW1  293   0.401   1.370   0.221
   91SOL    HW2  294   0.471   1.411   0.079
   92SOL     OW  295   1.664   1.280   0.657
   92SOL    HW1  296   1.763   1.288   0.671
   92SOL    HW2  297   1.619   1.364   0.688
   93SOL     OW  298   1.390   0.575   0.078
   93SOL    HW1  299   1.336   0.554   0.159
   93SOL    HW2  300   1.481   0.534   0.087
   94SOL     OW  301   0.527   0.256   0.328
   94SOL    HW1  302   0.554   0.197   0.253
   94SOL    HW2  303   0.527   0.351   0.297
   95SOL     OW  304   1.754   1.223   1.588
   95SOL    HW1  305   1.845   1.184   1.575
   95SOL    HW2  306   1.762   1.319   1.612
   96SOL     OW  307   1.064   1.347   1.340
   96SOL    HW1  308   0.984   1.324   1.395
   96SOL    HW2  309   1.147   1.321   1.389
   97SOL     OW  310   1.592   1.629   1.625
   97SOL    HW1  311   1.619   1.663   1.535
   97SOL    HW2  312   1.671   1.591   1.671
   98SOL     OW  313   1.111   1.195   1.100
   98SOL    HW1  314   1.071   1.239   1.181
   98SOL    HW2  315   1.070   1.232   1.017
   99SOL     OW  316   1.638   1.099   1.079
   99SOL    HW1  317   1.643   1.180   1.138
   99SOL    HW2  318   1.552   1.101   1.028
  100SOL     OW  319   0.915   0.089   1.402
  100SOL    HW1  320   0.940   0.069   1.307
  100SOL    HW2  321   0.987   0.145   1.444
  101SOL     OW  322   0.980   1.116   1.719
  101SOL    HW1  323   0.881   1.122   1.729
  101SOL    HW2  324   1.003   1.036   1.663
  102SOL     OW  325   0.705   1.050   0.368
  102SOL    HW1  326   0.691   1.057   0.467
  102SOL    HW2  327   0.789   0.999   0.350
  103SOL     OW  328   0.410   0.813   1.251
  103SOL    HW1  329   0.496   0.825   1.301
  103SOL    HW2  330   0.368   0.726   1.278
  104SOL     OW  331   1.274   0.386   1.262
  104SOL    HW1  332   1.295   0.460   1.326
  104SOL    HW2  333   1.185   0.403   1.219
  105SOL     OW  334   0.064   1.564   1.331
  105SOL    HW1  335   0.018   1.646   1.297
  105SOL    HW2  336   0.162   1.583   1.340
  106SOL     OW  337   0.367   1.100   0.501
  106SOL    HW1  338   0.360   1.183   0.445
  106SOL    HW2  339   0.371   1.020   0.441
  107SOL     OW  340   0.566   0.537   0.865
  107SOL    HW1  341   0.578   0.603   0.791
  107SOL    HW2  342   0.612   0.571   0.948
  108SOL     OW  343   1.252   1.348   0.388
  108SOL    HW1  344   1.302   1.425   0.428
  108SOL    HW2  345   1.157   1.350   0.420
  109SOL     OW  346   1.272   1.445   1.142
  109SOL    HW1  347   1.319   1.458   1.229
  109SOL    HW2  348   1.206   1.371   1.151
  110SOL     OW  349   1.582   0.639   0.472
  110SOL    HW1  350   1.551   0.700   0.545
  110SOL    HW2  351   1.632   0.691   0.403
  111SOL     OW  352   0.354   1.510   1.329
  111SOL    HW1  353   0.333   1.466   1.242
  111SOL    HW2  354   0.451   1.536   1.332
  112SOL     OW  355   0.402   0.751   1.598
  112SOL    HW1  356   0.470   0.806   1.551
  112SOL    HW2  357   0.442   0.663   1.625
  113SOL     OW  358   1.587   0.779   1.670
  113SOL    HW1  359   1.495   0.817   1.665
  113SOL    HW2  360   1.647   0.826   1.605
  114SOL     OW  361   1.013   0.105   1.770
  114SOL    HW1  362   1.019   0.190   1.718
  114SOL    HW2  363   1.045   0.029   1.713
  115SOL     OW  364   0.504   0.050   1.740
  115SOL    HW1  365   0.462  -0.007   1.670
  115SOL    HW2  366   0.438   0.119   1.772
  116SOL     OW  367   0.573   0.870   1.029
  116SOL    HW1  368   0.617   0.959   1.020
  116SOL    HW2  369   0.510   0.870   1.106
  117SOL     OW  370   1.360   0.862   1.045
  117SOL    HW1  371   1.285   0.862   0.979
  117SOL    HW2  372   1.397   0.770   1.054
  118SOL     OW  373   1.209   0.525   0.275
  118SOL    HW1  374   1.222   0.441   0.329
  118SOL    HW2  375   1.180   0.599   0.335
  119SOL     OW  376   0.307   0.213   1.231
  119SOL    HW1  377   0.284   0.250   1.321
  119SOL    HW2  378   0.277   0.118   1.225
  120SOL     OW  379   0.037   1.310   1.282
  120SOL    HW1  380   0.090   1.261   1.350
  120SOL    HW2  381   0.059   1.408   1.287
  121SOL     OW  382   0.732   0.634   1.064
  121SOL    HW1  383   0.791   0.608   0.988
  121SOL    HW2  384   0.704   0.730   1.053
  122SOL     OW  385   1.728   0.935   1.854
  122SOL    HW1  386   1.682   0.928   1.765
  122SOL    HW2  387   1.666   0.979   1.920
  123SOL     OW  388   0.307   0.063   0.618
  123SOL    HW1  389   0.296   0.157   0.651
  123SOL    HW2  390   0.302   0.000   0.695
  124SOL     OW  391   1.622   0.367   0.374
  124SOL    HW1  392   1.624   0.291   0.438
  124SOL    HW2  393   1.574   0.444   0.414
  125SOL     OW  394   1.023   0.766   0.966
  125SOL    HW1  395   1.038   0.787   1.062
  125SOL    HW2  396   0.993   0.671   0.957
  126SOL     OW  397   0.980   1.573   1.700
  126SOL    HW1  398   0.960   1.617   1.612
  126SOL    HW2  399   1.019   1.482   1.684
  127SOL     OW  400   1.859   1.518   1.605
  127SOL    HW1  401   1.873   1.545   1.510
  127SOL    HW2  402   1.942   1.540   1.658
  128SOL     OW  403   0.350   0.898   1.804
  128SOL    HW1  404   0.426   0.942   1.852
  128SOL    HW2  405   0.385   0.851   1.722
  129SOL     OW  406   1.540   0.274   0.125
  129SOL    HW1  407   1.479   0.199   0.148
  129SOL    HW2  408   1.562   0.326   0.208
  130SOL     OW  409   1.303   0.838   0.042
  130SOL    HW1  410   1.337   0.745   0.057
  130SOL    HW2  411   1.321   0.865  -0.053
  131SOL     OW  412   1.068   1.333   0.849
  131SOL    HW1  413   1.075   1.249   0.794
  131SOL    HW2  414   1.130   1.402   0.813
  132SOL     OW  415   0.319   0.810   0.949
  132SOL    HW1  416   0.412   0.846   0.954
  132SOL    HW2  417   0.313   0.725   1.001
  133SOL     OW  418   0.339   0.509   1.006
  133SOL    HW1  419   0.287   0.426   0.989
  133SOL    HW2  420   0.416   0.514   0.942
  134SOL     OW  421   1.138   0.380   1.678
  134SOL    HW1  422   1.093   0.443   1.742
  134SOL    HW2  423   1.231   0.411   1.661
  135SOL     OW  424   1.160   0.207   1.477
  135SOL    HW1  425   1.160   0.271   1.554
  135SOL    HW2  426   1.188   0.255   1.394
  136SOL     OW  427   0.008   1.326   0.200
  136SOL    HW1  428  -0.085   1.347   0.169
  136SOL    HW2  429   0.018   1.227   0.213
  137SOL     OW  430   0.088   1.801   0.927
  137SOL    HW1  431   0.046   1.715   0.900
  137SOL    HW2  432   0.182   1.804   0.893
  138SOL     OW  433   0.504   1.568   0.910
  138SOL    HW1  434   0.570   1.642   0.919
  138SOL    HW2  435   0.548   1.489   0.868
  139SOL     OW  436   1.002   0.796   1.238
  139SOL    HW1  437   1.043   0.764   1.324
  139SOL    HW2  438   0.906   0.769   1.235
  140SOL     OW  439   0.040   0.544   1.114
  140SOL    HW1  440   0.125   0.511   1.073
  140SOL    HW2  441   0.053   0.559   1.212
  141SOL     OW  442   0.189   0.520   1.722
  141SOL    HW1  443   0.248   0.480   1.652
  141SOL    HW2  444   0.131   0.591   1.681
  142SOL     OW  445   1.369   0.950   1.660
  142SOL    HW1  446   1.408   1.039   1.680
  142SOL    HW2  447   1.379   0.930   1.563
  143SOL     OW  448   0.815   0.572   0.325
  143SOL    HW1  449   0.822   0.483   0.279
  143SOL    HW2  450   0.721   0.606   0.317
  144SOL     OW  451   1.657   0.604   1.206
  144SOL    HW1  452   1.619   0.535   1.268
  144SOL    HW2  453   1.739   0.568   1.162
  145SOL     OW  454   0.252   1.564   1.744
  145SOL    HW1  455   0.222   1.621   1.820
  145SOL    HW2  456   0.245   1.467   1.770
  146SOL     OW  457   0.671   0.464   1.269
  146SOL    HW1  458   0.637   0.375   1.239
  146SOL    HW2  459   0.697   0.518   1.189
  147SOL     OW  460   0.930   1.678   1.465
  147SOL    HW1  461   0.906   1.660   1.370
  147SOL    HW2  462   0.960   1.772   1.475
  148SOL     OW  463   0.473   0.500   0.191
  148SOL    HW1  464   0.534   0.580   0.195
  148SOL    HW2  465   0.378   0.531   0.198
  149SOL     OW  466   0.159   1.137   1.466
  149SOL    HW1  467   0.181   1.076   1.542
  149SOL    HW2  468   0.169   1.088   1.380
  150SOL     OW  469   1.347   1.059   1.234
  150SOL    HW1  470   1.371   0.996   1.160
  150SOL    HW2  471   1.257   1.099   1.216
  151SOL     OW  472   1.302   0.855   0.309
  151SOL    HW1  473   1.216   0.824   0.351
  151SOL    HW2  474   1.298   0.841   0.210
  152SOL     OW  475   1.759   1.747   1.154
  152SOL    HW1  476   1.820   1.777   1.081
  152SOL    HW2  477   1.721   1.658   1.132
  153SOL     OW  478   1.252   1.731   1.128
  153SOL    HW1  479   1.336   1.736   1.074
  153SOL    HW2  480   1.229   1.635   1.146
  154SOL     OW  481   0.083   1.258   1.022
  154SOL    HW1  482   0.078   1.257   1.122
  154SOL    HW2  483   0.000   1.217   0.984
  155SOL     OW  484   0.688   1.662   1.716
  155SOL    HW1  485   0.632   1.743   1.725
  155SOL    HW2  486   0.740   1.666   1.630
  156SOL     OW  487   0.903   0.086   0.133
  156SOL    HW1  488   0.954   0.087   0.047
  156SOL    HW2  489   0.959   0.044   0.204
  157SOL     OW  490   1.726   0.135   0.523
  157SOL    HW1  491   1.799   0.118   0.456
  157SOL    HW2  492   1.695   0.048   0.561
  158SOL     OW  493   1.388   1.573   0.477
  158SOL    HW1  494   1.455   1.585   0.403
  158SOL    HW2  495   1.348   1.662   0.500
  159SOL     OW  496   0.130   1.794   1.851
  159SOL    HW1  497   0.089   1.720   1.904
  159SOL    HW2  498   0.194   1.845   1.909
  160SOL     OW  499   1.280   0.927   0.672
  160SOL    HW1  500   1.340   0.846   0.674
  160SOL    HW2  501   1.320   0.996   0.612
  161SOL     OW  502   0.830   1.273   1.422
  161SOL    HW1  503   0.825   1.306   1.517
  161SOL    HW2  504   0.744   1.292   1.376
  162SOL     OW  505   0.672   1.616   0.154
  162SOL    HW1  506   0.681   1.626   0.055
  162SOL    HW2  507   0.632   1.527   0.175
  163SOL     OW  508   1.650   1.720   1.394
  163SOL    HW1  509   1.703   1.730   1.310
  163SOL    HW2  510   1.623   1.810   1.428
  164SOL     OW  511   1.841   0.175   0.963
  164SOL    HW1  512   1.880   0.090   0.927
  164SOL    HW2  513   1.743   0.177   0.944
  165SOL     OW  514   0.263   0.326   0.720
  165SOL    HW1  515   0.184   0.377   0.686
  165SOL    HW2  516   0.254   0.311   0.818
  166SOL     OW  517   1.194   1.612   0.031
  166SOL    HW1  518   1.200   1.519   0.068
  166SOL    HW2  519   1.135   1.612  -0.049
  167SOL     OW  520   0.822   1.002   1.372
  167SOL    HW1  521   0.862   1.001   1.280
  167SOL    HW2  522   0.832   1.094   1.412
  168SOL     OW  523   0.916   0.910   0.291
  168SOL    HW1  524   0.979   0.948   0.223
  168SOL    HW2  525   0.956   0.827   0.330
  169SOL     OW  526   1.504   1.607   0.044
  169SOL    HW1  527   1.412   1.644   0.051
  169SOL    HW2  528   1.542   1.627  -0.046
  170SOL     OW  529   0.372   1.288   1.490
  170SOL    HW1  530   0.359   1.381   1.456
  170SOL    HW2  531   0.288   1.236   1.477
  171SOL     OW  532   1.614   1.292   1.289
  171SOL    HW1  533   1.674   1.295   1.369
  171SOL    HW2  534   1.539   1.356   1.302
  172SOL     OW  535   1.039   1.098   0.696
  172SOL    HW1  536   0.969   1.051   0.750
  172SOL    HW2  537   1.098   1.030   0.653
  173SOL     OW  538   1.014   0.236   0.971
  173SOL    HW1  539   1.006   0.200   0.878
  173SOL    HW2  540   1.012   0.160   1.036
  174SOL     OW  541   0.590   1.487   0.491
  174SOL    HW1  542   0.632   1.429   0.421
  174SOL    HW2  543   0.546   1.566   0.447
  175SOL     OW  544   1.709   0.385   1.381
  175SOL    HW1  545   1.782   0.454   1.385
  175SOL    HW2  546   1.737   0.310   1.322
  176SOL     OW  547   0.255   1.348   0.290
  176SOL    HW1  548   0.159   1.349   0.263
  176SOL    HW2  549   0.267   1.401   0.374
  177SOL     OW  550   0.105   1.013   1.726
  177SOL    HW1  551   0.028   0.980   1.780
  177SOL    HW2  552   0.190   0.983   1.768
  178SOL     OW  553   0.672   0.203   1.489
  178SOL    HW1  554   0.762   0.187   1.449
  178SOL    HW2  555   0.680   0.208   1.588
  179SOL     OW  556   0.075   0.345   0.033
  179SOL    HW1  557  -0.017   0.317   0.004
  179SOL    HW2  558   0.106   0.422  -0.023
  180SOL     OW  559   1.440   0.856   1.398
  180SOL    HW1  560   1.383   0.908   1.335
  180SOL    HW2  561   1.536   0.868   1.374
  181SOL     OW  562   0.072   0.166   0.318
  181SOL    HW1  563   0.055   0.249   0.264
  181SOL    HW2  564   0.162   0.129   0.296
  182SOL     OW  565   1.183   1.335   0.119
  182SOL    HW1  566   1.084   1.324   0.121
  182SOL    HW2  567   1.217   1.350   0.212
  183SOL     OW  568   0.613   0.842   1.431
  183SOL    HW1  569   0.669   0.923   1.414
  183SOL    HW2  570   0.672   0.762   1.434
  184SOL     OW  571   1.493   1.767   0.959
  184SOL    HW1  572   1.526   1.831   0.890
  184SOL    HW2  573   1.559   1.761   1.034
  185SOL     OW  574   0.716   0.565   1.708
  185SOL    HW1  575   0.735   0.630   1.782
  185SOL    HW2  576   0.776   0.485   1.717
  186SOL     OW  577   1.450   1.220   1.633
  186SOL    HW1  578   1.441   1.210   1.732
  186SOL    HW2  579   1.546   1.213   1.607
  187SOL     OW  580   0.390   1.741   1.560
  187SOL    HW1  581   0.299   1.782   1.558
  187SOL    HW2  582   0.383   1.647   1.592
  188SOL     OW  583   1.674   0.883   1.254
  188SOL    HW1  584   1.647   0.794   1.217
  188SOL    HW2  585   1.675   0.951   1.181
  189SOL     OW  586   1.225   0.325   0.449
  189SOL    HW1  587   1.290   0.251   0.438
  189SOL    HW2  588   1.245   0.375   0.533
  190SOL     OW  589   0.594   0.745   0.652
  190SOL    HW1  590   0.644   0.830   0.633
  190SOL    HW2  591   0.506   0.747   0.604
  191SOL     OW  592   1.777   0.342   1.642
  191SOL    HW1  593   1.760   0.373   1.548
  191SOL    HW2  594   1.693   0.305   1.680
  192SOL     OW  595   1.730   0.934   1.517
  192SOL    HW1  596   1.768   1.025   1.532
  192SOL    HW2  597   1.722   0.917   1.418
  193SOL     OW  598   0.859   1.374   0.016
  193SOL    HW1  599   0.813   1.389   0.104
  193SOL    HW2  600   0.903   1.459  -0.014
  194SOL     OW  601   0.661   1.790   0.953
  194SOL    HW1  602   0.615   1.878   0.940
  194SOL    HW2  603   0.760   1.802   0.946
  195SOL     OW  604   0.859   0.956   0.861
  195SOL    HW1  605   0.913   0.887   0.909
  195SOL    HW2  606   0.827   1.025   0.927
  196SOL     OW  607   1.083   0.984   0.087
  196SOL    HW1  608   1.060   1.037   0.005
  196SOL    HW2  609   1.164   0.928   0.068
  197SOL     OW  610   1.861   1.569   0.851
  197SOL    HW1  611   1.790   1.557   0.781
  197SOL    HW2  612   1.862   1.490   0.911
  198SOL     OW  613   0.221   1.314   1.844
  198SOL    HW1  614   0.156   1.241   1.823
  198SOL    HW2  615   0.225   1.328   1.942
  199SOL     OW  616   0.079   1.240   0.653
  199SOL    HW1  617   0.078   1.193   0.741
  199SOL    HW2  618   0.161   1.212   0.602
  200SOL     OW  619   0.672   1.391   1.624
  200SOL    HW1  620   0.594   1.341   1.662
  200SOL    HW2  621   0.669   1.486   1.655
  201SOL     OW  622   1.824   0.192   1.227
  201SOL    HW1  623   1.820   0.102   1.271
  201SOL    HW2  624   1.827   0.181   1.128
  202SOL     OW  625   0.428   0.424   0.520
  202SOL    HW1  626   0.458   0.352   0.458
  202SOL    HW2  627   0.389   0.384   0.603
  203SOL     OW  628   1.705   1.487   1.104
  203SOL    HW1  629   1.612   1.462   1.077
  203SOL    HW2  630   1.731   1.437   1.186
  204SOL     OW  631   0.317   0.547   1.280
  204SOL    HW1  632   0.355   0.488   1.352
  204SOL    HW2  633   0.357   0.521   1.192
  205SOL     OW  634   0.812   1.586   0.687
  205SOL    HW1  635   0.844   1.596   0.593
  205SOL    HW2  636   0.733   1.524   0.689
  206SOL     OW  637   1.424   0.214   1.112
  206SOL    HW1  638   1.476   0.149   1.167
  206SOL    HW2  639   1.375   0.277   1.173
  207SOL     OW  640   1.001   0.034   1.154
  207SOL    HW1  641   0.938  -0.038   1.123
  207SOL    HW2  642   1.094  -0.002   1.154
  208SOL     OW  643   0.770   1.330   0.301
  208SOL    HW1  644   0.724   1.243   0.318
  208SOL    HW2  645   0.861   1.327   0.342
  209SOL     OW  646   0.618   1.567   1.284
  209SOL    HW1  647   0.613   1.649   1.341
  209SOL    HW2  648   0.707   1.564   1.239
  210SOL     OW  649   1.352   0.052   0.168
  210SOL    HW1  650   1.387   0.011   0.084
  210SOL    HW2  651   1.262   0.014   0.188
  211SOL     OW  652   1.300   0.453   0.691
  211SOL    HW1  653   1.241   0.533   0.695
  211SOL    HW2  654   1.315   0.418   0.784
  212SOL     OW  655   1.593   0.221   0.882
  212SOL    HW1  656   1.509   0.220   0.936
  212SOL    HW2  657   1.595   0.304   0.826
  213SOL     OW  658   0.039   1.077   0.300
  213SOL    HW1  659   0.138   1.066   0.291
  213SOL    HW2  660  -0.001   0.991   0.332
  214SOL     OW  661   0.875   1.646   0.337
  214SOL    HW1  662   0.798   1.611   0.283
  214SOL    HW2  663   0.843   1.717   0.399
  215SOL     OW  664   0.230   0.628   1.975
  215SOL    HW1  665   0.137   0.626   2.012
  215SOL    HW2  666   0.231   0.589   1.883
  216SOL     OW  667   0.225   0.275   2.858
  216SOL    HW1  668   0.260   0.258   2.950
  216SOL    HW2  669   0.137   0.230   2.846
  217SOL     OW  670   0.019   0.368   2.509
  217SOL    HW1  671  -0.063   0.411   2.548
  217SOL    HW2  672  -0.009   0.295   2.446
  218SOL     OW  673   0.569   1.275   3.027
  218SOL    HW1  674   0.476   1.268   2.990
  218SOL    HW2  675   0.580   1.364   3.071
  219SOL     OW  676   1.555   1.511   2.565
  219SOL    HW1  677   1.498   1.495   2.646
  219SOL    HW2  678   1.496   1.521   2.485
  220SOL     OW  679   1.135   0.703   2.579
  220SOL    HW1  680   1.192   0.781   2.554
  220SOL    HW2  681   1.075   0.729   2.655
  221SOL     OW  682   1.755   0.607   2.093
  221SOL    HW1  683   1.743   0.594   1.994
  221SOL    HW2  684   1.725   0.526   2.142
  222SOL     OW  685   0.768   1.144   2.885
  222SOL    HW1  686   0.690   1.161   2.945
  222SOL    HW2  687   0.802   1.231   2.849
  223SOL     OW  688   0.850   0.798   3.685
  223SOL    HW1  689   0.846   0.874   3.750
  223SOL    HW2  690   0.872   0.834   3.594
  224SOL     OW  691   0.685   1.012   2.527
  224SOL    HW1  692   0.754   0.996   2.597
  224SOL    HW2  693   0.612   1.069   2.565
  225SOL     OW  694   0.686   1.161   3.665
  225SOL    HW1  695   0.746   1.240   3.679
  225SOL    HW2  696   0.600   1.192   3.624
  226SOL     OW  697   0.335   1.435   2.923
  226SOL    HW1  698   0.257   1.404   2.870
  226SOL    HW2  699   0.393   1.493   2.866
  227SOL     OW  700   1.460   1.505   3.201
  227SOL    HW1  701   1.484   1.599   3.227
  227SOL    HW2  702   1.444   1.451   3.283
  228SOL     OW  703   0.438   0.392   3.361
  228SOL    HW1  704   0.520   0.336   3.370
  228SOL    HW2  705   0.357   0.334   3.365
  229SOL     OW  706   1.603   0.447   2.599
  229SOL    HW1  707   1.529   0.493   2.549
  229SOL    HW2  708   1.654   0.515   2.652
  230SOL     OW  709   0.231   1.713   2.345
  230SOL    HW1  710   0.265   1.790   2.399
  230SOL    HW2  711   0.275   1.713   2.255
  231SOL     OW  712   1.127   1.341   3.552
  231SOL    HW1  713   1.174   1.341   3.640
  231SOL    HW2  714   1.079   1.254   3.541
  232SOL     OW  715   0.230   1.434   2.400
  232SOL    HW1  716   0.204   1.530   2.400
  232SOL    HW2  717   0.159   1.380   2.445
  233SOL     OW  718   0.240   1.091   2.748
  233SOL    HW1  719   0.254   1.007   2.800
  233SOL    HW2  720   0.185   1.155   2.803
  234SOL     OW  721   0.620   1.786   3.301
  234SOL    HW1  722   0.528   1.769   3.336
  234SOL    HW2  723   0.648   1.878   3.327
  235SOL     OW  724   0.606   0.964   1.985
  235SOL    HW1  725   0.613   1.048   1.931
  235SOL    HW2  726   0.652   0.977   2.073
  236SOL     OW  727   1.594   0.114   3.342
  236SOL    HW1  728   1.576   0.181   3.270
  236SOL    HW2  729   1.591   0.160   3.431
  237SOL     OW  730   0.122   0.643   2.425
  237SOL    HW1  731   0.077   0.555   2.442
  237SOL    HW2  732   0.121   0.697   2.509
  238SOL     OW  733   1.842   1.767   2.221
  238SOL    HW1  734   1.896   1.738   2.301
  238SOL    HW2  735   1.872   1.857   2.192
  239SOL     OW  736   0.027   1.596   1.979
  239SOL    HW1  737   0.008   1.500   2.000
  239SOL    HW2  738  -0.006   1.654   2.054
  240SOL     OW  739   1.689   0.922   2.474
  240SOL    HW1  740   1.784   0.893   2.482
  240SOL    HW2  741   1.681   0.987   2.399
  241SOL     OW  742   1.641   1.108   2.294
  241SOL    HW1  743   1.727   1.110   2.242
  241SOL    HW2  744   1.655   1.155   2.382
  242SOL     OW  745   0.113   0.737   3.459
  242SOL    HW1  746   0.201   0.724   3.504
  242SOL    HW2  747   0.100   0.834   3.437
  243SOL     OW  748   0.613   1.365   2.588
  243SOL    HW1  749   0.564   1.278   2.597
  243SOL    HW2  750   0.590   1.408   2.501
  244SOL     OW  751   1.293   1.228   3.285
  244SOL    HW1  752   1.330   1.155   3.227
  244SOL    HW2  753   1.345   1.233   3.370
  245SOL     OW  754   0.809   0.004   2.364
  245SOL    HW1  755   0.849   0.095   2.355
  245SOL    HW2  756   0.709   0.012   2.370
  246SOL     OW  757   0.197   0.976   3.126
  246SOL    HW1  758   0.286   0.931   3.112
  246SOL    HW2  759   0.124   0.911   3.107
  247SOL     OW  760   1.525   0.999   2.052
  247SOL    HW1  761   1.462   0.923   2.065
  247SOL    HW2  762   1.573   1.017   2.138
  248SOL     OW  763   1.187   1.792   3.478
  248SOL    HW1  764   1.211   1.852   3.402
  248SOL    HW2  765   1.194   1.697   3.448
  249SOL     OW  766   0.317   0.251   3.663
  249SOL    HW1  767   0.388   0.322   3.669
  249SOL    HW2  768   0.229   0.290   3.691
  250SOL     OW  769   1.466   1.417   2.815
  250SOL    HW1  770   1.407   1.423   2.895
  250SOL    HW2  771   1.451   1.329   2.769
  251SOL     OW  772   1.667   1.714   2.434
  251SOL    HW1  773   1.626   1.691   2.346
  251SOL    HW2  774   1.649   1.640   2.499
  252SOL     OW  775   0.598   0.729   2.132
  252SOL    HW1  776   0.622   0.798   2.064
  252SOL    HW2  777   0.520   0.762   2.186
  253SOL     OW  778   1.281   0.345   2.806
  253SOL    HW1  779   1.195   0.295   2.793
  253SOL    HW2  780   1.343   0.291   2.862
  254SOL     OW  781   1.576   1.662   2.169
  254SOL    HW1  782   1.665   1.708   2.172
  254SOL    HW2  783   1.555   1.638   2.074
  255SOL     OW  784   0.807   0.605   3.327
  255SOL    HW1  785   0.760   0.602   3.416
  255SOL    HW2  786   0.756   0.550   3.261
  256SOL     OW  787   1.394   0.469   3.536
  256SOL    HW1  788   1.374   0.512   3.624
  256SOL    HW2  789   1.472   0.407   3.545
  257SOL     OW  790   0.973   0.890   3.434
  257SOL    HW1  791   1.019   0.806   3.405
  257SOL    HW2  792   0.917   0.924   3.359
  258SOL     OW  793   0.991   0.410   3.104
  258SOL    HW1  794   0.914   0.444   3.158
  258SOL    HW2  795   0.957   0.359   3.025
  259SOL     OW  796   1.041   0.701   2.291
  259SOL    HW1  797   1.067   0.697   2.387
  259SOL    HW2  798   0.956   0.650   2.277
  260SOL     OW  799   0.076   0.811   2.651
  260SOL    HW1  800   0.175   0.799   2.660
  260SOL    HW2  801   0.052   0.906   2.672
  261SOL     OW  802   0.130   1.821   3.433
  261SOL    HW1  803   0.120   1.806   3.532
  261SOL    HW2  804   0.044   1.857   3.397
  262SOL     OW  805   0.865   0.348   2.057
  262SOL    HW1  806   0.924   0.411   2.008
  262SOL    HW2  807   0.884   0.254   2.028
  263SOL     OW  808   1.719   0.585   3.693
  263SOL    HW1  809   1.693   0.674   3.657
  263SOL    HW2  810   1.717   0.517   3.620
  264SOL     OW  811   1.362   1.144   2.407
  264SOL    HW1  812   1.445   1.115   2.359
  264SOL    HW2  813   1.313   1.211   2.351
  265SOL     OW  814   0.550   0.196   2.747
  265SOL    HW1  815   0.545   0.191   2.847
  265SOL    HW2  816   0.552   0.292   2.718
  266SOL     OW  817   1.008   1.456   2.339
  266SOL    HW1  818   0.962   1.528   2.287
  266SOL    HW2  819   1.004   1.476   2.437
  267SOL     OW  820   0.351   1.801   2.715
  267SOL    HW1  821   0.401   1.715   2.721
  267SOL    HW2  822   0.416   1.878   2.712
  268SOL     OW  823   1.795   1.066   2.735
  268SOL    HW1  824   1.733   1.051   2.659
  268SOL    HW2  825   1.743   1.077   2.820
  269SOL     OW  826   1.227   1.550   3.368
  269SOL    HW1  827   1.233   1.473   3.432
  269SOL    HW2  828   1.175   1.524   3.288
  270SOL     OW  829   0.321   0.943   2.104
  270SOL    HW1  830   0.403   0.982   2.062
  270SOL    HW2  831   0.294   0.861   2.055
  271SOL     OW  832   1.458   0.735   2.590
  271SOL    HW1  833   1.453   0.670   2.665
  271SOL    HW2  834   1.538   0.794   2.603
  272SOL     OW  835   0.461   1.266   3.589
  272SOL    HW1  836   0.411   1.267   3.503
  272SOL    HW2  837   0.398   1.248   3.665
  273SOL     OW  838   1.111   1.776   2.099
  273SOL    HW1  839   1.051   1.714   2.149
  273SOL    HW2  840   1.142   1.732   2.014
  274SOL     OW  841   0.202   0.285   3.360
  274SOL    HW1  842   0.122   0.345   3.347
  274SOL    HW2  843   0.192   0.236   3.446
  275SOL     OW  844   1.632   1.377   1.943
  275SOL    HW1  845   1.600   1.471   1.933
  275SOL    HW2  846   1.556   1.314   1.931
  276SOL     OW  847   0.464   1.743   2.185
  276SOL    HW1  848   0.497   1.782   2.271
  276SOL    HW2  849   0.540   1.736   2.120
  277SOL     OW  850   1.400   0.107   2.288
  277SOL    HW1  851   1.376   0.070   2.198
  277SOL    HW2  852   1.499   0.123   2.292
  278SOL     OW  853   0.249   1.785   3.103
  278SOL    HW1  854   0.306   1.720   3.153
  278SOL    HW2  855   0.233   1.752   3.010
  279SOL     OW  856   0.940   1.698   2.766
  279SOL    HW1  857   1.020   1.641   2.787
  279SOL    HW2  858   0.891   1.658   2.689
  280SOL     OW  859   0.382   0.700   2.342
  280SOL    HW1  860   0.427   0.610   2.339
  280SOL    HW2  861   0.288   0.689   2.375
  281SOL     OW  862   1.547   0.222   3.591
  281SOL    HW1  863   1.542   0.259   3.683
  281SOL    HW2  864   1.475   0.153   3.579
  282SOL     OW  865   0.614   0.122   1.979
  282SOL    HW1  866   0.712   0.100   1.986
  282SOL    HW2  867   0.583   0.105   1.886
  283SOL     OW  868   0.781   0.264   3.611
  283SOL    HW1  869   0.848   0.203   3.654
  283SOL    HW2  870   0.708   0.283   3.676
  284SOL     OW  871   0.888   1.514   3.057
  284SOL    HW1  872   0.865   1.489   2.963
  284SOL    HW2  873   0.949   1.445   3.096
  285SOL     OW  874   1.351   0.590   3.295
  285SOL    HW1  875   1.379   0.547   3.380
  285SOL    HW2  876   1.376   0.686   3.296
  286SOL     OW  877   0.803   1.402   2.786
  286SOL    HW1  878   0.893   1.416   2.744
  286SOL    HW2  879   0.732   1.404   2.715
  287SOL     OW  880   0.922   0.503   2.761
  287SOL    HW1  881   0.897   0.494   2.665
  287SOL    HW2  882   0.970   0.421   2.792
  288SOL     OW  883   0.539   0.064   2.374
  288SOL    HW1  884   0.458   0.065   2.432
  288SOL    HW2  885   0.542   0.147   2.319
  289SOL     OW  886   1.434   1.188   1.903
  289SOL    HW1  887   1.466   1.112   1.960
  289SOL    HW2  888   1.342   1.215   1.933
  290SOL     OW  889   0.297   0.035   2.033
  290SOL    HW1  890   0.346   0.119   2.012
  290SOL    HW2  891   0.359  -0.030   2.078
  291SOL     OW  892   0.935   0.236   2.342
  291SOL    HW1  893   0.887   0.277   2.264
  291SOL    HW2  894   1.034   0.234   2.323
  292SOL     OW  895   1.076   0.683   3.326
  292SOL    HW1  896   0.996   0.622   3.329
  292SOL    HW2  897   1.157   0.630   3.302
  293SOL     OW  898   1.227   1.570   2.655
  293SOL    HW1  899   1.248   1.644   2.590
  293SOL    HW2  900   1.295   1.570   2.728
  294SOL     OW  901   0.459   1.152   2.603
  294SOL    HW1  902   0.388   1.125   2.668
  294SOL    HW2  903   0.433   1.124   2.510
  295SOL     OW  904   1.271   1.797   2.453
  295SOL    HW1  905   1.315   1.861   2.389
  295SOL    HW2  906   1.221   1.849   2.523
  296SOL     OW  907   1.032   0.549   1.878
  296SOL    HW1  908   0.991   0.631   1.839
  296SOL    HW2  909   1.096   0.575   1.951
  297SOL     OW  910   0.078   0.556   3.248
  297SOL    HW1  911   0.170   0.555   3.207
  297SOL    HW2  912   0.072   0.630   3.315
  298SOL     OW  913   0.561   0.222   3.009
  298SOL    HW1  914   0.599   0.138   3.046
  298SOL    HW2  915   0.473   0.241   3.053
  299SOL     OW  916   0.866   0.454   2.504
  299SOL    HW1  917   0.834   0.526   2.442
  299SOL    HW2  918   0.890   0.373   2.451
  300SOL     OW  919   1.017   0.039   2.615
  300SOL    HW1  920   0.945   0.044   2.546
  300SOL    HW2  921   0.993  -0.030   2.684
  301SOL     OW  922   1.429   1.173   2.729
  301SOL    HW1  923   1.374   1.089   2.722
  301SOL    HW2  924   1.455   1.202   2.637
  302SOL     OW  925   1.466   0.590   2.854
  302SOL    HW1  926   1.436   0.495   2.861
  302SOL    HW2  927   1.539   0.606   2.920
  303SOL     OW  928   1.857   0.833   2.239
  303SOL    HW1  929   1.899   0.769   2.303
  303SOL    HW2  930   1.819   0.782   2.161
  304SOL     OW  931   0.488   1.385   2.036
  304SOL    HW1  932   0.401   1.370   2.083
  304SOL    HW2  933   0.471   1.411   1.941
  305SOL     OW  934   1.664   1.280   2.519
  305SOL    HW1  935   1.763   1.288   2.533
  305SOL    HW2  936   1.619   1.364   2.550
  306SOL     OW  937   1.390   0.575   1.940
  306SOL    HW1  938   1.336   0.554   2.021
  306SOL    HW2  939   1.481   0.534   1.949
  307SOL     OW  940   0.527   0.256   2.190
  307SOL    HW1  941   0.554   0.197   2.115
  307SOL    HW2  942   0.527   0.351   2.159
  308SOL     OW  943   1.754   1.223   3.450
  308SOL    HW1  944   1.845   1.184   3.437
  308SOL    HW2  945   1.762   1.319   3.474
  309SOL     OW  946   1.064   1.347   3.202
  309SOL    HW1  947   0.984   1.324   3.257
  309SOL    HW2  948   1.147   1.321   3.251
  310SOL     OW  949   1.592   1.629   3.487
  310SOL    HW1  950   1.619   1.663   3.397
  310SOL    HW2  951   1.671   1.591   3.533
  311SOL     OW  952   1.111   1.195   2.962
  311SOL    HW1  953   1.071   1.239   3.043
  311SOL    HW2  954   1.070   1.232   2.879
  312SOL     OW  955   1.638   1.099   2.941
  312SOL    HW1  956   1.643   1.180   3.000
  312SOL    HW2  957   1.552   1.101   2.890
  313SOL     OW  958   0.915   0.089   3.264
  313SOL    HW1  959   0.940   0.069   3.169
  313SOL    HW2  960   0.987   0.145   3.306
  314SOL     OW  961   0.980   1.116   3.581
  314SOL    HW1  962   0.881   1.122   3.591
  314SOL    HW2  963   1.003   1.036   3.525
  315SOL     OW  964   0.705   1.050   2.230
  315SOL    HW1  965   0.691   1.057   2.329
  315SOL    HW2  966   0.789   0.999   2.212
  316SOL     OW  967   0.410   0.813   3.113
  316SOL    HW1  968   0.496   0.825   3.163
  316SOL    HW2  969   0.368   0.726   3.140
  317SOL     OW  970   1.274   0.386   3.124
  317SOL    HW1  971   1.295   0.460   3.188
  317SOL    HW2  972   1.185   0.403   3.081
  318SOL     OW  973   0.064   1.564   3.193
  318SOL    HW1  974   0.018   1.646   3.159
  318SOL    HW2  975   0.162   1.583   3.202
  319SOL     OW  976   0.367   1.100   2.363
  319SOL    HW1  977   0.360   1.183   2.307
  319SOL    HW2  978   0.371   1.020   2.303
  320SOL     OW  979   0.566   0.537   2.727
  320SOL    HW1  980   0.578   0.603   2.653
  320SOL    HW2  981   0.612   0.571   2.810
  321SOL     OW  982   1.252   1.348   2.250
  321SOL    HW1  983   1.302   1.425   2.290
  321SOL    HW2  984   1.157   1.350   2.282
  322SOL     OW  985   1.272   1.445   3.004
  322SOL    HW1  986   1.319   1.458   3.091
  322SOL    HW2  987   1.206   1.371   3.013
  323SOL     OW  988   1.582   0.639   2.334
  323SOL    HW1  989   1.551   0.700   2.407
  323SOL    HW2  990   1.632   0.691   2.265
  324SOL     OW  991   0.354   1.510   3.191
  324SOL    HW1  992   0.333   1.466   3.104
  324SOL    HW2  993   0.451   1.536   3.194
  325SOL     OW  994   0.402   0.751   3.460
  325SOL    HW1  995   0.470   0.806   3.413
  325SOL    HW2  996   0.442   0.663   3.487
  326SOL     OW  997   1.587   0.779   3.532
  326SOL    HW1  998   1.495   0.817   3.527
  326SOL    HW2  999   1.647   0.826   3.467
  327SOL     OW 1000   1.013   0.105   3.632
  327SOL    HW1 1001   1.019   0.190   3.580
  327SOL    HW2 1002   1.045   0.029   3.575
  328SOL     OW 1003   0.504   0.050   3.602
  328SOL    HW1 1004   0.462  -0.007   3.532
  328SOL    HW2 1005   0.438   0.119   3.634
  329SOL     OW 1006   0.573   0.870   2.891
  329SOL    HW1 1007   0.617   0.959   2.882
  329SOL    HW2 1008   0.510   0.870   2.968
  330SOL     OW 1009   1.360   0.862   2.907
  330SOL    HW1 1010   1.285   0.862   2.841
  330SOL    HW2 1011   1.397   0.770   2.916
  331SOL     OW 1012   1.209   0.525   2.137
  331SOL    HW1 1013   1.222   0.441   2.191
  331SOL    HW2 1014   1.180   0.599   2.197
  332SOL     OW 1015   0.307   0.213   3.093
  332SOL    HW1 1016   0.284   0.250   3.183
  332SOL    HW2 1017   0.277   0.118   3.087
  333SOL     OW 1018   0.037   1.310   3.144
  333SOL    HW1 1019   0.090   1.261   3.212
  333SOL    HW2 1020   0.059   1.408   3.149
  334SOL     OW 1021   0.732   0.634   2.926
  334SOL    HW1 1022   0.791   0.608   2.850
  334SOL    HW2 1023   0.704   0.730   2.915
  335SOL     OW 1024   1.728   0.935   3.716
  335SOL    HW1 1025   1.682   0.928   3.627
  335SOL    HW2 1026   1.666   0.979   3.782
  336SOL     OW 1027   0.307   0.063   2.480
  336SOL    HW1 1028   0.296   0.157   2.513
  336SOL    HW2 1029   0.302   0.000   2.557
  337SOL     OW 1030   1.622   0.367   2.236
  337SOL    HW1 1031   1.624   0.291   2.300
  337SOL    HW2 1032   1.574   0.444   2.276
  338SOL     OW 1033   1.023   0.766   2.828
  338SOL    HW1 1034   1.038   0.787   2.924
  338SOL    HW2 1035   0.993   0.671   2.819
  339SOL     OW 1036   0.980   1.573   3.562
  339SOL    HW1 1037   0.960   1.617   3.474
  339SOL    HW2 1038   1.019   1.482   3.546
  340SOL     OW 1039   1.859   1.518   3.467
  340SOL    HW1 1040   1.873   1.545   3.372
  340SOL    HW2 1041   1.942   1.540   3.520
  341SOL     OW 1042   0.350   0.898   3.666
  341SOL    HW1 1043   0.426   0.942   3.714
  341SOL    HW2 1044   0.385   0.851   3.584
  342SOL     OW 1045   1.540   0.274   1.987
  342SOL    HW1 1046   1.479   0.199   2.010
  342SOL    HW2 1047   1.562   0.326   2.070
  343SOL     OW 1048   1.303   0.838   1.904
  343SOL    HW1 1049   1.337   0.745   1.919
  343SOL    HW2 1050   1.321   0.865   1.809
  344SOL     OW 1051   1.068   1.333   2.711
  344SOL    HW1 1052   1.075   1.249   2.656
  344SOL    HW2 1053   1.130   1.402   2.675
  345SOL     OW 1054   0.319   0.810   2.811
  345SOL    HW1 1055   0.412   0.846   2.816
  345SOL    HW2 1056   0.313   0.725   2.863
  346SOL     OW 1057   0.339   0.509   2.868
  346SOL    HW1 1058   0.287   0.426   2.851
  346SOL    HW2 1059   0.416   0.514   2.804
  347SOL     OW 1060   1.138   0.380   3.540
  347SOL    HW1 1061   1.093   0.443   3.604
  347SOL    HW2 1062   1.231   0.411   3.523
  348SOL     OW 1063   1.160   0.207   3.339
  348SOL    HW1 1064   1.160   0.271   3.416
  348SOL    HW2 1065   1.188   0.255   3.256
  349SOL     OW 1066   0.008   1.326   2.062
  349SOL    HW1 1067  -0.085   1.347   2.031
  349SOL    HW2 1068   0.018   1.227   2.075
  350SOL     OW 1069   0.088   1.801   2.789
  350SOL    HW1 1070   0.046   1.715   2.762
  350SOL    HW2 1071   0.182   1.804   2.755
  351SOL     OW 1072   0.504   1.568   2.772
  351SOL    HW1 1073   0.570   1.642   2.781
  351SOL    HW2 1074   0.548   1.489   2.730
  352SOL     OW 1075   1.002   0.796   3.100
  352SOL    HW1 1076   1.043   0.764   3.186
  352SOL    HW2 1077   0.906   0.769   3.097
  353SOL     OW 1078   0.040   0.544   2.976
  353SOL    HW1 1079   0.125   0.511   2.935
  353SOL    HW2 1080   0.053   0.559   3.074
  354SOL     OW 1081   0.189   0.520   3.584
  354SOL    HW1 1082   0.248   0.480   3.514
  354SOL    HW2 1083   0.131   0.591   3.543
  355SOL     OW 1084   1.369   0.950   3.522
  355SOL    HW1 1085   1.408   1.039   3.542
  355SOL    HW2 1086   1.379   0.930   3.425
  356SOL     OW 1087   0.815   0.572   2.187
  356SOL    HW1 1088   0.822   0.483   2.141
  356SOL    HW2 1089   0.721   0.606   2.179
  357SOL     OW 1090   1.657   0.604   3.068
  357SOL    HW1 1091   1.619   0.535   3.130
  357SOL    HW2 1092   1.739   0.568   3.024
  358SOL     OW 1093   0.252   1.564   3.606
  358SOL    HW1 1094   0.222   1.621   3.682
  358SOL    HW2 1095   0.245   1.467   3.632
  359SOL     OW 1096   0.671   0.464   3.131
  359SOL    HW1 1097   0.637   0.375   3.101
  359SOL    HW2 1098   0.697   0.518   3.051
  360SOL     OW 1099   0.930   1.678   3.327
  360SOL    HW1 1100   0.906   1.660   3.232
  360SOL    HW2 1101   0.960   1.772   3.337
  361SOL     OW 1102   0.473   0.500   2.053
  361SOL    HW1 1103   0.534   0.580   2.057
  361SOL    HW2 1104   0.378   0.531   2.060
  362SOL     OW 1105   0.159   1.137   3.328
  362SOL    HW1 1106   0.181   1.076   3.404
  362SOL    HW2 1107   0.169   1.088   3.242
  363SOL     OW 1108   1.347   1.059   3.096
  363SOL    HW1 1109   1.371   0.996   3.022
  363SOL    HW2 1110   1.257   1.099   3.078
  364SOL     OW 1111   1.302   0.855   2.171
  364SOL    HW1 1112   1.216   0.824   2.213
  364SOL    HW2 1113   1.298   0.841   2.072
  365SOL     OW 1114   1.759   1.747   3.016
  365SOL    HW1 1115   1.820   1.777   2.943
  365SOL    HW2 1116   1.721   1.658   2.994
  366SOL     OW 1117   1.252   1.731   2.990
  366SOL    HW1 1118   1.336   1.736   2.936
  366SOL    HW2 1119   1.229   1.635   3.008
  367SOL     OW 1120   0.083   1.258   2.884
  367SOL    HW1 1121   0.078   1.257   2.984
  367SOL    HW2 1122   0.000   1.217   2.846
  368SOL     OW 1123   0.688   1.662   3.578
  368SOL    HW1 1124   0.632   1.743   3.587
  368SOL    HW2 1125   0.740   1.666   3.492
  369SOL     OW 1126   1.726   0.135   2.385
  369SOL    HW1 1127   1.799   0.118   2.318
  369SOL    HW2 1128   1.695   0.048   2.423
  370SOL     OW 1129   1.388   1.573   2.339
  370SOL    HW1 1130   1.455   1.585   2.265
  370SOL    HW2 1131   1.348   1.662   2.362
  371SOL     OW 1132   0.130   1.794   3.713
  371SOL    HW1 1133   0.089   1.720   3.766
  371SOL    HW2 1134   0.194   1.845   3.771
  372SOL     OW 1135   1.280   0.927   2.534
  372SOL    HW1 1136   1.340   0.846   2.536
  372SOL    HW2 1137   1.320   0.996   2.474
  373SOL     OW 1138   0.830   1.273   3.284
  373SOL    HW1 1139   0.825   1.306   3.379
  373SOL    HW2 1140   0.744   1.292   3.238
  374SOL     OW 1141   0.672   1.616   2.016
  374SOL    HW1 1142   0.681   1.626   1.917
  374SOL    HW2 1143   0.632   1.527   2.037
  375SOL     OW 1144   1.650   1.720   3.256
  375SOL    HW1 1145   1.703   1.730   3.172
  375SOL    HW2 1146   1.623   1.810   3.290
  376SOL     OW 1147   1.841   0.175   2.825
  376SOL    HW1 1148   1.880   0.090   2.789
  376SOL    HW2 1149   1.743   0.177   2.806
  377SOL     OW 1150   0.263   0.326   2.582
  377SOL    HW1 1151   0.184   0.377   2.548
  377SOL    HW2 1152   0.254   0.311   2.680
  378SOL     OW 1153   1.194   1.612   1.893
  378SOL    HW1 1154   1.200   1.519   1.930
  378SOL    HW2 1155   1.135   1.612   1.813
  379SOL     OW 1156   0.822   1.002   3.234
  379SOL    HW1 1157   0.862   1.001   3.142
  379SOL    HW2 1158   0.832   1.094   3.274
  380SOL     OW 1159   0.916   0.910   2.153
  380SOL    HW1 1160   0.979   0.948   2.085
  380SOL    HW2 1161   0.956   0.827   2.192
  381SOL     OW 1162   1.504   1.607   1.906
  381SOL    HW1 1163   1.412   1.644   1.913
  381SOL    HW2 1164   1.542   1.627   1.816
  382SOL     OW 1165   0.372   1.288   3.352
  382SOL    HW1 1166   0.359   1.381   3.318
  382SOL    HW2 1167   0.288   1.236   3.339
  383SOL     OW 1168   1.614   1.292   3.151
  383SOL    HW1 1169   1.674   1.295   3.231
  383SOL    HW2 1170   1.539   1.356   3.164
  384SOL     OW 1171   1.039   1.098   2.558
  384SOL    HW1 1172   0.969   1.051   2.612
  384SOL    HW2 1173   1.098   1.030   2.515
  385SOL     OW 1174   1.014   0.236   2.833
  385SOL    HW1 1175   1.006   0.200   2.740
  385SOL    HW2 1176   1.012   0.160   2.898
  386SOL     OW 1177   0.590   1.487   2.353
  386SOL    HW1 1178   0.632   1.429   2.283
  386SOL    HW2 1179   0.546   1.566   2.309
  387SOL     OW 1180   1.709   0.385   3.243
  387SOL    HW1 1181   1.782   0.454   3.247
  387SOL    HW2 1182   1.737   0.310   3.184
  388SOL     OW 1183   0.255   1.348   2.152
  388SOL    HW1 1184   0.159   1.349   2.125
  388SOL    HW2 1185   0.267   1.401   2.236
  389SOL     OW 1186   0.105   1.013   3.588
  389SOL    HW1 1187   0.028   0.980   3.642
  389SOL    HW2 1188   0.190   0.983   3.630
  390SOL     OW 1189   0.672   0.203   3.351
  390SOL    HW1 1190   0.762   0.187   3.311
  390SOL    HW2 1191   0.680   0.208   3.450
  391SOL     OW 1192   0.075   0.345   1.895
  391SOL    HW1 1193  -0.017   0.317   1.866
  391SOL    HW2 1194   0.106   0.422   1.839
  392SOL     OW 1195   1.440   0.856   3.260
  392SOL    HW1 1196   1.383   0.908   3.197
  392SOL    HW2 1197   1.536   0.868   3.236
  393SOL     OW 1198   0.072   0.166   2.180
  393SOL    HW1 1199   0.055   0.249   2.126
  393SOL    HW2 1200   0.162   0.129   2.158
  394SOL     OW 1201   1.183   1.335   1.981
  394SOL    HW1 1202   1.084   1.324   1.983
  394SOL    HW2 1203   1.217   1.350   2.074
  395SOL     OW 1204   0.613   0.842   3.293
  395SOL    HW1 1205   0.669   0.923   3.276
  395SOL    HW2 1206   0.672   0.762   3.296
  396SOL     OW 1207   1.493   1.767   2.821
  396SOL    HW1 1208   1.526   1.831   2.752
  396SOL    HW2 1209   1.559   1.761   2.896
  397SOL     OW 1210   0.716   0.565   3.570
  397SOL    HW1 1211   0.735   0.630   3.644
  397SOL    HW2 1212   0.776   0.485   3.579
  398SOL     OW 1213   1.450   1.220   3.495
  398SOL    HW1 1214   1.441   1.210   3.594
  398SOL    HW2 1215   1.546   1.213   3.469
  399SOL     OW 1216   0.390   1.741   3.422
  399SOL    HW1 1217   0.299   1.782   3.420
  399SOL    HW2 1218   0.383   1.647   3.454
  400SOL     OW 1219   1.674   0.883   3.116
  400SOL    HW1 1220   1.647   0.794   3.079
  400SOL    HW2 1221   1.675   0.951   3.043
  401SOL     OW 1222   1.225   0.325   2.311
  401SOL    HW1 1223   1.290   0.251   2.300
  401SOL    HW2 1224   1.245   0.375   2.395
  402SOL     OW 1225   0.594   0.745   2.514
  402SOL    HW1 1226   0.644   0.830   2.495
  402SOL    HW2 1227   0.506   0.747   2.466
  403SOL     OW 1228   1.777   0.342   3.504
  403SOL    HW1 1229   1.760   0.373   3.410
  403SOL    HW2 1230   1.693   0.305   3.542
  404SOL     OW 1231   1.730   0.934   3.379
  404SOL    HW1 1232   1.768   1.025   3.394
  404SOL    HW2 1233   1.722   0.917   3.280
  405SOL     OW 1234   0.859   1.374   1.878
  405SOL    HW1 1235   0.813   1.389   1.966
  405SOL    HW2 1236   0.903   1.459   1.848
  406SOL     OW 1237   0.661   1.790   2.815
  406SOL    HW1 1238   0.615   1.878   2.802
  406SOL    HW2 1239   0.760   1.802   2.808
  407SOL     OW 1240   0.859   0.956   2.723
  407SOL    HW1 1241   0.913   0.887   2.771
  407SOL    HW2 1242   0.827   1.025   2.789
  408SOL     OW 1243   1.083   0.984   1.949
  408SOL    HW1 1244   1.060   1.037   1.867
  408SOL    HW2 1245   1.164   0.928   1.930
  409SOL     OW 1246   1.861   1.569   2.713
  409SOL    HW1 1247   1.790   1.557   2.643
  409SOL    HW2 1248   1.862   1.490   2.773
  410SOL     OW 1249   0.221   1.314   3.706
  410SOL    HW1 1250   0.156   1.241   3.685
  410SOL    HW2 1251   0.225   1.328   3.804
  411SOL     OW 1252   0.079   1.240   2.515
  411SOL    HW1 1253   0.078   1.193   2.603
  411SOL    HW2 1254   0.161   1.212   2.464
  412SOL     OW 1255   0.672   1.391   3.486
  412SOL    HW1 1256   0.594   1.341   3.524
  412SOL    HW2 1257   0.669   1.486   3.517
  413SOL     OW 1258   1.824   0.192   3.089
  413SOL    HW1 1259   1.820   0.102   3.133
  413SOL    HW2 1260   1.827   0.181   2.990
  414SOL     OW 1261   0.428   0.424   2.382
  414SOL    HW1 1262   0.458   0.352   2.320
  414SOL    HW2 1263   0.389   0.384   2.465
  415SOL     OW 1264   1.705   1.487   2.966
  415SOL    HW1 1265   1.612   1.462   2.939
  415SOL    HW2 1266   1.731   1.437   3.048
  416SOL     OW 1267   0.317   0.547   3.142
  416SOL    HW1 1268   0.355   0.488   3.214
  416SOL    HW2 1269   0.357   0.521   3.054
  417SOL     OW 1270   0.812   1.586   2.549
  417SOL    HW1 1271   0.844   1.596   2.455
  417SOL    HW2 1272   0.733   1.524   2.551
  418SOL     OW 1273   1.424   0.214   2.974
  418SOL    HW1 1274   1.476   0.149   3.029
  418SOL    HW2 1275   1.375   0.277   3.035
  419SOL     OW 1276   1.001   0.034   3.016
  419SOL    HW1 1277   0.938  -0.038   2.985
  419SOL    HW2 1278   1.094  -0.002   3.016
  420SOL     OW 1279   0.770   1.330   2.163
  420SOL    HW1 1280   0.724   1.243   2.180
  420SOL    HW2 1281   0.861   1.327   2.204
  421SOL     OW 1282   0.618   1.567   3.146
  421SOL    HW1 1283   0.613   1.649   3.203
  421SOL    HW2 1284   0.707   1.564   3.101
  422SOL     OW 1285   1.352   0.052   2.030
  422SOL    HW1 1286   1.387   0.011   1.946
  422SOL    HW2 1287   1.262   0.014   2.050
  423SOL     OW 1288   1.300   0.453   2.553
  423SOL    HW1 1289   1.241   0.533   2.557
  423SOL    HW2 1290   1.315   0.418   2.646
  424SOL     OW 1291   1.593   0.221   2.744
  424SOL    HW1 1292   1.509   0.220   2.798
  424SOL    HW2 1293   1.595   0.304   2.688
  425SOL     OW 1294   0.039   1.077   2.162
  425SOL    HW1 1295   0.138   1.066   2.153
  425SOL    HW2 1296  -0.001   0.991   2.194
  426SOL     OW 1297   0.875   1.646   2.199
  426SOL    HW1 1298   0.798   1.611   2.145
  426SOL    HW2 1299   0.843   1.717   2.261
  427SOL     OW 1300   0.230   0.628   3.837
  427SOL    HW1 1301   0.137   0.626   3.874
  427SOL    HW2 1302   0.231   0.589   3.745
  428SOL     OW 1303   0.019   0.368   4.371
  428SOL    HW1 1304  -0.063   0.411   4.410
  428SOL    HW2 1305  -0.009   0.295   4.308
  429SOL     OW 1306   1.555   1.511   4.427
  429SOL    HW1 1307   1.498   1.495   4.508
  429SOL    HW2 1308   1.496   1.521   4.347
  430SOL     OW 1309   1.135   0.703   4.441
  430SOL    HW1 1310   1.192   0.781   4.416
  430SOL    HW2 1311   1.075   0.729   4.517
  431SOL     OW 1312   1.755   0.607   3.955
  431SOL    HW1 1313   1.743   0.594   3.856
  431SOL    HW2 1314   1.725   0.526   4.004
  432SOL     OW 1315   0.768   1.144   4.747
  432SOL    HW1 1316   0.690   1.161   4.807
  432SOL    HW2 1317   0.802   1.231   4.711
  433SOL     OW 1318   0.685   1.012   4.389
  433SOL    HW1 1319   0.754   0.996   4.459
  433SOL    HW2 1320   0.612   1.069   4.427
  434SOL     OW 1321   1.603   0.447   4.461
  434SOL    HW1 1322   1.529   0.493   4.411
  434SOL    HW2 1323   1.654   0.515   4.514
  435SOL     OW 1324   0.231   1.713   4.207
  435SOL    HW1 1325   0.265   1.790   4.261
  435SOL    HW2 1326   0.275   1.713   4.117
  436SOL     OW 1327   0.230   1.434   4.262
  436SOL    HW1 1328   0.204   1.530   4.262
  436SOL    HW2 1329   0.159   1.380   4.307
  437SOL     OW 1330   0.240   1.091   4.610
  437SOL    HW1 1331   0.254   1.007   4.662
  437SOL    HW2 1332   0.185   1.155   4.665
  438SOL     OW 1333   0.606   0.964   3.847
  438SOL    HW1 1334   0.613   1.048   3.793
  438SOL    HW2 1335   0.652   0.977   3.935
  439SOL     OW 1336   0.122   0.643   4.287
  439SOL    HW1 1337   0.077   0.555   4.304
  439SOL    HW2 1338   0.121   0.697   4.371
  440SOL     OW 1339   1.842   1.767   4.083
  440SOL    HW1 1340   1.896   1.738   4.163
  440SOL    HW2 1341   1.872   1.857   4.054
  441SOL     OW 1342   0.027   1.596   3.841
  441SOL    HW1 1343   0.008   1.500   3.862
  441SOL    HW2 1344  -0.006   1.654   3.916
  442SOL     OW 1345   1.689   0.922   4.336
  442SOL    HW1 1346   1.784   0.893   4.344
  442SOL    HW2 1347   1.681   0.987   4.261
  443SOL     OW 1348   1.641   1.108   4.156
  443SOL    HW1 1349   1.727   1.110   4.104
  443SOL    HW2 1350   1.655   1.155   4.244
  444SOL     OW 1351   0.613   1.365   4.450
  444SOL    HW1 1352   0.564   1.278   4.459
  444SOL    HW2 1353   0.590   1.408   4.363
  445SOL     OW 1354   0.809   0.004   4.226
  445SOL    HW1 1355   0.849   0.095   4.217
  445SOL    HW2 1356   0.709   0.012   4.232
  446SOL     OW 1357   1.525   0.999   3.914
  446SOL    HW1 1358   1.462   0.923   3.927
  446SOL    HW2 1359   1.573   1.017   4.000
  447SOL     OW 1360   1.667   1.714   4.296
  447SOL    HW1 1361   1.626   1.691   4.208
  447SOL    HW2 1362   1.649   1.640   4.361
  448SOL     OW 1363   0.598   0.729   3.994
  448SOL    HW1 1364   0.622   0.798   3.926
  448SOL    HW2 1365   0.520   0.762   4.048
  449SOL     OW 1366   1.281   0.345   4.668
  449SOL    HW1 1367   1.195   0.295   4.655
  449SOL    HW2 1368   1.343   0.291   4.724
  450SOL     OW 1369   1.576   1.662   4.031
  450SOL    HW1 1370   1.665   1.708   4.034
  450SOL    HW2 1371   1.555   1.638   3.936
  451SOL     OW 1372   1.041   0.701   4.153
  451SOL    HW1 1373   1.067   0.697   4.249
  451SOL    HW2 1374   0.956   0.650   4.139
  452SOL     OW 1375   0.076   0.811   4.513
  452SOL    HW1 1376   0.175   0.799   4.522
  452SOL    HW2 1377   0.052   0.906   4.534
  453SOL     OW 1378   0.865   0.348   3.919
  453SOL    HW1 1379   0.924   0.411   3.870
  453SOL    HW2 1380   0.884   0.254   3.890
  454SOL     OW 1381   1.362   1.144   4.269
  454SOL    HW1 1382   1.445   1.115   4.221
  454SOL    HW2 1383   1.313   1.211   4.213
  455SOL     OW 1384   1.008   1.456   4.201
  455SOL    HW1 1385   0.962   1.528   4.149
  455SOL    HW2 1386   1.004   1.476   4.299
  456SOL     OW 1387   0.351   1.801   4.577
  456SOL    HW1 1388   0.401   1.715   4.583
  456SOL    HW2 1389   0.416   1.878   4.574
  457SOL     OW 1390   1.795   1.066   4.597
  457SOL    HW1 1391   1.733   1.051   4.521
  457SOL    HW2 1392   1.743   1.077   4.682
  458SOL     OW 1393   0.321   0.943   3.966
  458SOL    HW1 1394   0.403   0.982   3.924
  458SOL    HW2 1395   0.294   0.861   3.917
  459SOL     OW 1396   1.458   0.735   4.452
  459SOL    HW1 1397   1.453   0.670   4.527
  459SOL    HW2 1398   1.538   0.794   4.465
  460SOL     OW 1399   1.111   1.776   3.961
  460SOL    HW1 1400   1.051   1.714   4.011
  460SOL    HW2 1401   1.142   1.732   3.876
  461SOL     OW 1402   1.632   1.377   3.805
  461SOL    HW1 1403   1.600   1.471   3.795
  461SOL    HW2 1404   1.556   1.314   3.793
  462SOL     OW 1405   0.464   1.743   4.047
  462SOL    HW1 1406   0.497   1.782   4.133
  462SOL    HW2 1407   0.540   1.736   3.982
  463SOL     OW 1408   1.400   0.107   4.150
  463SOL    HW1 1409   1.376   0.070   4.060
  463SOL    HW2 1410   1.499   0.123   4.154
  464SOL     OW 1411   0.940   1.698   4.628
  464SOL    HW1 1412   1.020   1.641   4.649
  464SOL    HW2 1413   0.891   1.658   4.551
  465SOL     OW 1414   0.382   0.700   4.204
  465SOL    HW1 1415   0.427   0.610   4.201
  465SOL    HW2 1416   0.288   0.689   4.237
  466SOL     OW 1417   0.614   0.122   3.841
  466SOL    HW1 1418   0.712   0.100   3.848
  466SOL    HW2 1419   0.583   0.105   3.748
  467SOL     OW 1420   0.539   0.064   4.236
  467SOL    HW1 1421   0.458   0.065   4.294
  467SOL    HW2 1422   0.542   0.147   4.181
  468SOL     OW 1423   1.434   1.188   3.765
  468SOL    HW1 1424   1.466   1.112   3.822
  468SOL    HW2 1425   1.342   1.215   3.795
  469SOL     OW 1426   0.297   0.035   3.895
  469SOL    HW1 1427   0.346   0.119   3.874
  469SOL    HW2 1428   0.359  -0.030   3.940
  470SOL     OW 1429   0.935   0.236   4.204
  470SOL    HW1 1430   0.887   0.277   4.126
  470SOL    HW2 1431   1.034   0.234   4.185
  471SOL     OW 1432   0.459   1.152   4.465
  471SOL    HW1 1433   0.388   1.125   4.530
  471SOL    HW2 1434   0.433   1.124   4.372
  472SOL     OW 1435   1.271   1.797   4.315
  472SOL    HW1 1436   1.315   1.861   4.251
  472SOL    HW2 1437   1.221   1.849   4.385
  473SOL     OW 1438   1.032   0.549   3.740
  473SOL    HW1 1439   0.991   0.631   3.701
  473SOL    HW2 1440   1.096   0.575   3.813
  474SOL     OW 1441   0.866   0.454   4.366
  474SOL    HW1 1442   0.834   0.526   4.304
  474SOL    HW2 1443   0.890   0.373   4.313
  475SOL     OW 1444   1.017   0.039   4.477
  475SOL    HW1 1445   0.945   0.044   4.408
  475SOL    HW2 1446   0.993  -0.030   4.546
  476SOL     OW 1447   1.857   0.833   4.101
  476SOL    HW1 1448   1.899   0.769   4.165
  476SOL    HW2 1449   1.819   0.782   4.023
  477SOL     OW 1450   0.488   1.385   3.898
  477SOL    HW1 1451   0.401   1.370   3.945
  477SOL    HW2 1452   0.471   1.411   3.803
  478SOL     OW 1453   1.664   1.280   4.381
  478SOL    HW1 1454   1.763   1.288   4.395
  478SOL    HW2 1455   1.619   1.364   4.412
  479SOL     OW 1456   1.390   0.575   3.802
  479SOL    HW1 1457   1.336   0.554   3.883
  479SOL    HW2 1458   1.481   0.534   3.811
  480SOL     OW 1459   0.527   0.256   4.052
  480SOL    HW1 1460   0.554   0.197   3.977
  480SOL    HW2 1461   0.527   0.351   4.021
  481SOL     OW 1462   0.705   1.050   4.092
  481SOL    HW1 1463   0.691   1.057   4.191
  481SOL    HW2 1464   0.789   0.999   4.074
  482SOL     OW 1465   0.367   1.100   4.225
  482SOL    HW1 1466   0.360   1.183   4.169
  482SOL    HW2 1467   0.371   1.020   4.165
  483SOL     OW 1468   0.566   0.537   4.589
  483SOL    HW1 1469   0.578   0.603   4.515
  483SOL    HW2 1470   0.612   0.571   4.672
  484SOL     OW 1471   1.252   1.348   4.112
  484SOL    HW1 1472   1.302   1.425   4.152
  484SOL    HW2 1473   1.157   1.350   4.144
  485SOL     OW 1474   1.582   0.639   4.196
  485SOL    HW1 1475   1.551   0.700   4.269
  485SOL    HW2 1476   1.632   0.691   4.127
  486SOL     OW 1477   1.209   0.525   3.999
  486SOL    HW1 1478   1.222   0.441   4.053
  486SOL    HW2 1479   1.180   0.599   4.059
  487SOL     OW 1480   0.307   0.063   4.342
  487SOL    HW1 1481   0.296   0.157   4.375
  487SOL    HW2 1482   0.302   0.000   4.419
  488SOL     OW 1483   1.622   0.367   4.098
  488SOL    HW1 1484   1.624   0.291   4.162
  488SOL    HW2 1485   1.574   0.444   4.138
  489SOL     OW 1486   1.540   0.274   3.849
  489SOL    HW1 1487   1.479   0.199   3.872
  489SOL    HW2 1488   1.562   0.326   3.932
  490SOL     OW 1489   1.303   0.838   3.766
  490SOL    HW1 1490   1.337   0.745   3.781
  490SOL    HW2 1491   1.321   0.865   3.671
  491SOL     OW 1492   0.008   1.326   3.924
  491SOL    HW1 1493  -0.085   1.347   3.893
  491SOL    HW2 1494   0.018   1.227   3.937
  492SOL     OW 1495   0.815   0.572   4.049
  492SOL    HW1 1496   0.822   0.483   4.003
  492SOL    HW2 1497   0.721   0.606   4.041
  493SOL     OW 1498   0.473   0.500   3.915
  493SOL    HW1 1499   0.534   0.580   3.919
  493SOL    HW2 1500   0.378   0.531   3.922
  494SOL     OW 1501   1.302   0.855   4.033
  494SOL    HW1 1502   1.216   0.824   4.075
  494SOL    HW2 1503   1.298   0.841   3.934
  495SOL     OW 1504   1.726   0.135   4.247
  495SOL    HW1 1505   1.799   0.118   4.180
  495SOL    HW2 1506   1.695   0.048   4.285
  496SOL     OW 1507   1.388   1.573   4.201
  496SOL    HW1 1508   1.455   1.585   4.127
  496SOL    HW2 1509   1.348   1.662   4.224
  497SOL     OW 1510   1.280   0.927   4.396
  497SOL    HW1 1511   1.340   0.846   4.398
  497SOL    HW2 1512   1.320   0.996   4.336
  498SOL     OW 1513   0.672   1.616   3.878
  498SOL    HW1 1514   0.681   1.626   3.779
  498SOL    HW2 1515   0.632   1.527   3.899
  499SOL     OW 1516   1.841   0.175   4.687
  499SOL    HW1 1517   1.880   0.090   4.651
  499SOL    HW2 1518   1.743   0.177   4.668
  500SOL     OW 1519   0.263   0.326   4.444
  500SOL    HW1 1520   0.184   0.377   4.410
  500SOL    HW2 1521   0.254   0.311   4.542
  501SOL     OW 1522   1.194   1.612   3.755
  501SOL    HW1 1523   1.200   1.519   3.792
  501SOL    HW2 1524   1.135   1.612   3.675
  502SOL     OW 1525   0.916   0.910   4.015
  502SOL    HW1 1526   0.979   0.948   3.947
  502SOL    HW2 1527   0.956   0.827   4.054
  503SOL     OW 1528   1.504   1.607   3.768
  503SOL    HW1 1529   1.412   1.644   3.775
  503SOL    HW2 1530   1.542   1.627   3.678
  504SOL     OW 1531   1.039   1.098   4.420
  504SOL    HW1 1532   0.969   1.051   4.474
  504SOL    HW2 1533   1.098   1.030   4.377
  505SOL     OW 1534   0.590   1.487   4.215
  505SOL    HW1 1535   0.632   1.429   4.145
  505SOL    HW2 1536   0.546   1.566   4.171
  506SOL     OW 1537   0.255   1.348   4.014
  506SOL    HW1 1538   0.159   1.349   3.987
  506SOL    HW2 1539   0.267   1.401   4.098
  507SOL     OW 1540   0.075   0.345   3.757
  507SOL    HW1 1541  -0.017   0.317   3.728
  507SOL    HW2 1542   0.106   0.422   3.701
  508SOL     OW 1543   0.072   0.166   4.042
  508SOL    HW1 1544   0.055   0.249   3.988
  508SOL    HW2 1545   0.162   0.129   4.020
  509SOL     OW 1546   1.183   1.335   3.843
  509SOL    HW1 1547   1.084   1.324   3.845
  509SOL    HW2 1548   1.217   1.350   3.936
  510SOL     OW 1549   1.225   0.325   4.173
  510SOL    HW1 1550   1.290   0.251   4.162
  510SOL    HW2 1551   1.245   0.375   4.257
  511SOL     OW 1552   0.594   0.745   4.376
  511SOL    HW1 1553   0.644   0.830   4.357
  511SOL    HW2 1554   0.506   0.747   4.328
  512SOL     OW 1555   0.859   1.374   3.740
  512SOL    HW1 1556   0.813   1.389   3.828
  512SOL    HW2 1557   0.903   1.459   3.710
  513SOL     OW 1558   0.661   1.790   4.677
  513SOL    HW1 1559   0.615   1.878   4.664
  513SOL    HW2 1560   0.760   1.802   4.670
  514SOL     OW 1561   0.859   0.956   4.585
  514SOL    HW1 1562   0.913   0.887   4.633
  514SOL    HW2 1563   0.827   1.025   4.651
  515SOL     OW 1564   1.083   0.984   3.811
  515SOL    HW1 1565   1.060   1.037   3.729
  515SOL    HW2 1566   1.164   0.928   3.792
  516SOL     OW 1567   0.079   1.240   4.377
  516SOL    HW1 1568   0.078   1.193   4.465
  516SOL    HW2 1569   0.161   1.212   4.326
  517SOL     OW 1570   0.428   0.424   4.244
  517SOL    HW1 1571   0.458   0.352   4.182
  517SOL    HW2 1572   0.389   0.384   4.327
  518SOL     OW 1573   0.812   1.586   4.411
  518SOL    HW1 1574   0.844   1.596   4.317
  518SOL    HW2 1575   0.733   1.524   4.413
  519SOL     OW 1576   0.770   1.330   4.025
  519SOL    HW1 1577   0.724   1.243   4.042
  519SOL    HW2 1578   0.861   1.327   4.066
  520SOL     OW 1579   1.352   0.052   3.892
  520SOL    HW1 1580   1.387   0.011   3.808
  520SOL    HW2 1581   1.262   0.014   3.912
  521SOL     OW 1582   1.300   0.453   4.415
  521SOL    HW1 1583   1.241   0.533   4.419
  521SOL    HW2 1584   1.315   0.418   4.508
  522SOL     OW 1585   0.039   1.077   4.024
  522SOL    HW1 1586   0.138   1.066   4.015
  522SOL    HW2 1587  -0.001   0.991   4.056
  523SOL     OW 1588   0.875   1.646   4.061
  523SOL    HW1 1589   0.798   1.611   4.007
  523SOL    HW2 1590   0.843   1.717   4.123
  524SOL     OW 1591   0.230   2.490   0.113
  524SOL    HW1 1592   0.137   2.488   0.150
  524SOL    HW2 1593   0.231   2.451   0.021
  525SOL     OW 1594   0.225   2.137   0.996
  525SOL    HW1 1595   0.260   2.120   1.088
  525SOL    HW2 1596   0.137   2.092   0.984
  526SOL     OW 1597   0.019   2.230   0.647
  526SOL    HW1 1598  -0.063   2.273   0.686
  526SOL    HW2 1599  -0.009   2.157   0.584
  527SOL     OW 1600   0.569   3.137   1.165
  527SOL    HW1 1601   0.476   3.130   1.128
  527SOL    HW2 1602   0.580   3.226   1.209
  528SOL     OW 1603   1.555   3.373   0.703
  528SOL    HW1 1604   1.498   3.357   0.784
  528SOL    HW2 1605   1.496   3.383   0.623
  529SOL     OW 1606   1.135   2.565   0.717
  529SOL    HW1 1607   1.192   2.643   0.692
  529SOL    HW2 1608   1.075   2.591   0.793
  530SOL     OW 1609   1.755   2.469   0.231
  530SOL    HW1 1610   1.743   2.456   0.132
  530SOL    HW2 1611   1.725   2.388   0.280
  531SOL     OW 1612   0.768   3.006   1.023
  531SOL    HW1 1613   0.690   3.023   1.083
  531SOL    HW2 1614   0.802   3.093   0.987
  532SOL     OW 1615   0.850   2.660   1.823
  532SOL    HW1 1616   0.846   2.736   1.888
  532SOL    HW2 1617   0.872   2.696   1.732
  533SOL     OW 1618   0.685   2.874   0.665
  533SOL    HW1 1619   0.754   2.858   0.735
  533SOL    HW2 1620   0.612   2.931   0.703
  534SOL     OW 1621   0.686   3.023   1.803
  534SOL    HW1 1622   0.746   3.102   1.817
  534SOL    HW2 1623   0.600   3.054   1.762
  535SOL     OW 1624   0.335   3.297   1.061
  535SOL    HW1 1625   0.257   3.266   1.008
  535SOL    HW2 1626   0.393   3.355   1.004
  536SOL     OW 1627   1.460   3.367   1.339
  536SOL    HW1 1628   1.484   3.461   1.365
  536SOL    HW2 1629   1.444   3.313   1.421
  537SOL     OW 1630   0.438   2.254   1.499
  537SOL    HW1 1631   0.520   2.198   1.508
  537SOL    HW2 1632   0.357   2.196   1.503
  538SOL     OW 1633   1.603   2.309   0.737
  538SOL    HW1 1634   1.529   2.355   0.687
  538SOL    HW2 1635   1.654   2.377   0.790
  539SOL     OW 1636   0.231   3.575   0.483
  539SOL    HW1 1637   0.265   3.652   0.537
  539SOL    HW2 1638   0.275   3.575   0.393
  540SOL     OW 1639   1.127   3.203   1.690
  540SOL    HW1 1640   1.174   3.203   1.778
  540SOL    HW2 1641   1.079   3.116   1.679
  541SOL     OW 1642   0.230   3.296   0.538
  541SOL    HW1 1643   0.204   3.392   0.538
  541SOL    HW2 1644   0.159   3.242   0.583
  542SOL     OW 1645   0.240   2.953   0.886
  542SOL    HW1 1646   0.254   2.869   0.938
  542SOL    HW2 1647   0.185   3.017   0.941
  543SOL     OW 1648   0.620   3.648   1.439
  543SOL    HW1 1649   0.528   3.631   1.474
  543SOL    HW2 1650   0.648   3.740   1.465
  544SOL     OW 1651   0.606   2.826   0.123
  544SOL    HW1 1652   0.613   2.910   0.069
  544SOL    HW2 1653   0.652   2.839   0.211
  545SOL     OW 1654   1.594   1.976   1.480
  545SOL    HW1 1655   1.576   2.043   1.408
  545SOL    HW2 1656   1.591   2.022   1.569
  546SOL     OW 1657   0.122   2.505   0.563
  546SOL    HW1 1658   0.077   2.417   0.580
  546SOL    HW2 1659   0.121   2.559   0.647
  547SOL     OW 1660   1.842   3.629   0.359
  547SOL    HW1 1661   1.896   3.600   0.439
  547SOL    HW2 1662   1.872   3.719   0.330
  548SOL     OW 1663   0.027   3.458   0.117
  548SOL    HW1 1664   0.008   3.362   0.138
  548SOL    HW2 1665  -0.006   3.516   0.192
  549SOL     OW 1666   1.689   2.784   0.612
  549SOL    HW1 1667   1.784   2.755   0.620
  549SOL    HW2 1668   1.681   2.849   0.537
  550SOL     OW 1669   1.641   2.970   0.432
  550SOL    HW1 1670   1.727   2.972   0.380
  550SOL    HW2 1671   1.655   3.017   0.520
  551SOL     OW 1672   0.113   2.599   1.597
  551SOL    HW1 1673   0.201   2.586   1.642
  551SOL    HW2 1674   0.100   2.696   1.575
  552SOL     OW 1675   0.613   3.227   0.726
  552SOL    HW1 1676   0.564   3.140   0.735
  552SOL    HW2 1677   0.590   3.270   0.639
  553SOL     OW 1678   1.293   3.090   1.423
  553SOL    HW1 1679   1.330   3.017   1.365
  553SOL    HW2 1680   1.345   3.095   1.508
  554SOL     OW 1681   0.809   1.866   0.502
  554SOL    HW1 1682   0.849   1.957   0.493
  554SOL    HW2 1683   0.709   1.874   0.508
  555SOL     OW 1684   0.197   2.838   1.264
  555SOL    HW1 1685   0.286   2.793   1.250
  555SOL    HW2 1686   0.124   2.773   1.245
  556SOL     OW 1687   1.525   2.861   0.190
  556SOL    HW1 1688   1.462   2.785   0.203
  556SOL    HW2 1689   1.573   2.879   0.276
  557SOL     OW 1690   1.187   3.654   1.616
  557SOL    HW1 1691   1.211   3.714   1.540
  557SOL    HW2 1692   1.194   3.559   1.586
  558SOL     OW 1693   0.317   2.113   1.801
  558SOL    HW1 1694   0.388   2.184   1.807
  558SOL    HW2 1695   0.229   2.152   1.829
  559SOL     OW 1696   1.466   3.279   0.953
  559SOL    HW1 1697   1.407   3.285   1.033
  559SOL    HW2 1698   1.451   3.191   0.907
  560SOL     OW 1699   1.667   3.576   0.572
  560SOL    HW1 1700   1.626   3.553   0.484
  560SOL    HW2 1701   1.649   3.502   0.637
  561SOL     OW 1702   0.598   2.591   0.270
  561SOL    HW1 1703   0.622   2.660   0.202
  561SOL    HW2 1704   0.520   2.624   0.324
  562SOL     OW 1705   1.281   2.207   0.944
  562SOL    HW1 1706   1.195   2.157   0.931
  562SOL    HW2 1707   1.343   2.153   1.000
  563SOL     OW 1708   1.576   3.524   0.307
  563SOL    HW1 1709   1.665   3.570   0.310
  563SOL    HW2 1710   1.555   3.500   0.212
  564SOL     OW 1711   0.807   2.467   1.465
  564SOL    HW1 1712   0.760   2.464   1.554
  564SOL    HW2 1713   0.756   2.412   1.399
  565SOL     OW 1714   1.394   2.331   1.674
  565SOL    HW1 1715   1.374   2.374   1.762
  565SOL    HW2 1716   1.472   2.269   1.683
  566SOL     OW 1717   0.973   2.752   1.572
  566SOL    HW1 1718   1.019   2.668   1.543
  566SOL    HW2 1719   0.917   2.786   1.497
  567SOL     OW 1720   0.991   2.272   1.242
  567SOL    HW1 1721   0.914   2.306   1.296
  567SOL    HW2 1722   0.957   2.221   1.163
  568SOL     OW 1723   1.041   2.563   0.429
  568SOL    HW1 1724   1.067   2.559   0.525
  568SOL    HW2 1725   0.956   2.512   0.415
  569SOL     OW 1726   0.076   2.673   0.789
  569SOL    HW1 1727   0.175   2.661   0.798
  569SOL    HW2 1728   0.052   2.768   0.810
  570SOL     OW 1729   0.130   3.683   1.571
  570SOL    HW1 1730   0.120   3.668   1.670
  570SOL    HW2 1731   0.044   3.719   1.535
  571SOL     OW 1732   0.865   2.210   0.195
  571SOL    HW1 1733   0.924   2.273   0.146
  571SOL    HW2 1734   0.884   2.116   0.166
  572SOL     OW 1735   1.719   2.447   1.831
  572SOL    HW1 1736   1.693   2.536   1.795
  572SOL    HW2 1737   1.717   2.379   1.758
  573SOL     OW 1738   1.362   3.006   0.545
  573SOL    HW1 1739   1.445   2.977   0.497
  573SOL    HW2 1740   1.313   3.073   0.489
  574SOL     OW 1741   0.550   2.058   0.885
  574SOL    HW1 1742   0.545   2.053   0.985
  574SOL    HW2 1743   0.552   2.154   0.856
  575SOL     OW 1744   1.008   3.318   0.477
  575SOL    HW1 1745   0.962   3.390   0.425
  575SOL    HW2 1746   1.004   3.338   0.575
  576SOL     OW 1747   0.351   3.663   0.853
  576SOL    HW1 1748   0.401   3.577   0.859
  576SOL    HW2 1749   0.416   3.740   0.850
  577SOL     OW 1750   1.795   2.928   0.873
  577SOL    HW1 1751   1.733   2.913   0.797
  577SOL    HW2 1752   1.743   2.939   0.958
  578SOL     OW 1753   1.227   3.412   1.506
  578SOL    HW1 1754   1.233   3.335   1.570
  578SOL    HW2 1755   1.175   3.386   1.426
  579SOL     OW 1756   0.321   2.805   0.242
  579SOL    HW1 1757   0.403   2.844   0.200
  579SOL    HW2 1758   0.294   2.723   0.193
  580SOL     OW 1759   1.458   2.597   0.728
  580SOL    HW1 1760   1.453   2.532   0.803
  580SOL    HW2 1761   1.538   2.656   0.741
  581SOL     OW 1762   0.461   3.128   1.727
  581SOL    HW1 1763   0.411   3.129   1.641
  581SOL    HW2 1764   0.398   3.110   1.803
  582SOL     OW 1765   1.111   3.638   0.237
  582SOL    HW1 1766   1.051   3.576   0.287
  582SOL    HW2 1767   1.142   3.594   0.152
  583SOL     OW 1768   0.202   2.147   1.498
  583SOL    HW1 1769   0.122   2.207   1.485
  583SOL    HW2 1770   0.192   2.098   1.584
  584SOL     OW 1771   1.632   3.239   0.081
  584SOL    HW1 1772   1.600   3.333   0.071
  584SOL    HW2 1773   1.556   3.176   0.069
  585SOL     OW 1774   0.464   3.605   0.323
  585SOL    HW1 1775   0.497   3.644   0.409
  585SOL    HW2 1776   0.540   3.598   0.258
  586SOL     OW 1777   1.400   1.969   0.426
  586SOL    HW1 1778   1.376   1.932   0.336
  586SOL    HW2 1779   1.499   1.985   0.430
  587SOL     OW 1780   0.249   3.647   1.241
  587SOL    HW1 1781   0.306   3.582   1.291
  587SOL    HW2 1782   0.233   3.614   1.148
  588SOL     OW 1783   0.940   3.560   0.904
  588SOL    HW1 1784   1.020   3.503   0.925
  588SOL    HW2 1785   0.891   3.520   0.827
  589SOL     OW 1786   0.382   2.562   0.480
  589SOL    HW1 1787   0.427   2.472   0.477
  589SOL    HW2 1788   0.288   2.551   0.513
  590SOL     OW 1789   1.547   2.084   1.729
  590SOL    HW1 1790   1.542   2.121   1.821
  590SOL    HW2 1791   1.475   2.015   1.717
  591SOL     OW 1792   0.781   2.126   1.749
  591SOL    HW1 1793   0.848   2.065   1.792
  591SOL    HW2 1794   0.708   2.145   1.814
  592SOL     OW 1795   0.888   3.376   1.195
  592SOL    HW1 1796   0.865   3.351   1.101
  592SOL    HW2 1797   0.949   3.307   1.234
  593SOL     OW 1798   1.351   2.452   1.433
  593SOL    HW1 1799   1.379   2.409   1.518
  593SOL    HW2 1800   1.376   2.548   1.434
  594SOL     OW 1801   0.803   3.264   0.924
  594SOL    HW1 1802   0.893   3.278   0.882
  594SOL    HW2 1803   0.732   3.266   0.853
  595SOL     OW 1804   0.922   2.365   0.899
  595SOL    HW1 1805   0.897   2.356   0.803
  595SOL    HW2 1806   0.970   2.283   0.930
  596SOL     OW 1807   0.539   1.926   0.512
  596SOL    HW1 1808   0.458   1.927   0.570
  596SOL    HW2 1809   0.542   2.009   0.457
  597SOL     OW 1810   1.434   3.050   0.041
  597SOL    HW1 1811   1.466   2.974   0.098
  597SOL    HW2 1812   1.342   3.077   0.071
  598SOL     OW 1813   0.297   1.897   0.171
  598SOL    HW1 1814   0.346   1.981   0.150
  598SOL    HW2 1815   0.359   1.832   0.216
  599SOL     OW 1816   0.935   2.098   0.480
  599SOL    HW1 1817   0.887   2.139   0.402
  599SOL    HW2 1818   1.034   2.096   0.461
  600SOL     OW 1819   1.076   2.545   1.464
  600SOL    HW1 1820   0.996   2.484   1.467
  600SOL    HW2 1821   1.157   2.492   1.440
  601SOL     OW 1822   1.227   3.432   0.793
  601SOL    HW1 1823   1.248   3.506   0.728
  601SOL    HW2 1824   1.295   3.432   0.866
  602SOL     OW 1825   0.459   3.014   0.741
  602SOL    HW1 1826   0.388   2.987   0.806
  602SOL    HW2 1827   0.433   2.986   0.648
  603SOL     OW 1828   1.271   3.659   0.591
  603SOL    HW1 1829   1.315   3.723   0.527
  603SOL    HW2 1830   1.221   3.711   0.661
  604SOL     OW 1831   1.032   2.411   0.016
  604SOL    HW1 1832   0.991   2.493  -0.023
  604SOL    HW2 1833   1.096   2.437   0.089
  605SOL     OW 1834   0.078   2.418   1.386
  605SOL    HW1 1835   0.170   2.417   1.345
  605SOL    HW2 1836   0.072   2.492   1.453
  606SOL     OW 1837   0.561   2.084   1.147
  606SOL    HW1 1838   0.599   2.000   1.184
  606SOL    HW2 1839   0.473   2.103   1.191
  607SOL     OW 1840   0.866   2.316   0.642
  607SOL    HW1 1841   0.834   2.388   0.580
  607SOL    HW2 1842   0.890   2.235   0.589
  608SOL     OW 1843   1.017   1.901   0.753
  608SOL    HW1 1844   0.945   1.906   0.684
  608SOL    HW2 1845   0.993   1.832   0.822
  609SOL     OW 1846   1.429   3.035   0.867
  609SOL    HW1 1847   1.374   2.951   0.860
  609SOL    HW2 1848   1.455   3.064   0.775
  610SOL     OW 1849   1.466   2.452   0.992
  610SOL    HW1 1850   1.436   2.357   0.999
  610SOL    HW2 1851   1.539   2.468   1.058
  611SOL     OW 1852   1.857   2.695   0.377
  611SOL    HW1 1853   1.899   2.631   0.441
  611SOL    HW2 1854   1.819   2.644   0.299
  612SOL     OW 1855   0.488   3.247   0.174
  612SOL    HW1 1856   0.401   3.232   0.221
  612SOL    HW2 1857   0.471   3.273   0.079
  613SOL     OW 1858   1.664   3.142   0.657
  613SOL    HW1 1859   1.763   3.150   0.671
  613SOL    HW2 1860   1.619   3.226   0.688
  614SOL     OW 1861   1.390   2.437   0.078
  614SOL    HW1 1862   1.336   2.416   0.159
  614SOL    HW2 1863   1.481   2.396   0.087
  615SOL     OW 1864   0.527   2.118   0.328
  615SOL    HW1 1865   0.554   2.059   0.253
  615SOL    HW2 1866   0.527   2.213   0.297
  616SOL     OW 1867   1.754   3.085   1.588
  616SOL    HW1 1868   1.845   3.046   1.575
  616SOL    HW2 1869   1.762   3.181   1.612
  617SOL     OW 1870   1.064   3.209   1.340
  617SOL    HW1 1871   0.984   3.186   1.395
  617SOL    HW2 1872   1.147   3.183   1.389
  618SOL     OW 1873   1.592   3.491   1.625
  618SOL    HW1 1874   1.619   3.525   1.535
  618SOL    HW2 1875   1.671   3.453   1.671
  619SOL     OW 1876   1.111   3.057   1.100
  619SOL    HW1 1877   1.071   3.101   1.181
  619SOL    HW2 1878   1.070   3.094   1.017
  620SOL     OW 1879   1.638   2.961   1.079
  620SOL    HW1 1880   1.643   3.042   1.138
  620SOL    HW2 1881   1.552   2.963   1.028
  621SOL     OW 1882   0.915   1.951   1.402
  621SOL    HW1 1883   0.940   1.931   1.307
  621SOL    HW2 1884   0.987   2.007   1.444
  622SOL     OW 1885   0.980   2.978   1.719
  622SOL    HW1 1886   0.881   2.984   1.729
  622SOL    HW2 1887   1.003   2.898   1.663
  623SOL     OW 1888   0.705   2.912   0.368
  623SOL    HW1 1889   0.691   2.919   0.467
  623SOL    HW2 1890   0.789   2.861   0.350
  624SOL     OW 1891   0.410   2.675   1.251
  624SOL    HW1 1892   0.496   2.687   1.301
  624SOL    HW2 1893   0.368   2.588   1.278
  625SOL     OW 1894   1.274   2.248   1.262
  625SOL    HW1 1895   1.295   2.322   1.326
  625SOL    HW2 1896   1.185   2.265   1.219
  626SOL     OW 1897   0.064   3.426   1.331
  626SOL    HW1 1898   0.018   3.508   1.297
  626SOL    HW2 1899   0.162   3.445   1.340
  627SOL     OW 1900   0.367   2.962   0.501
  627SOL    HW1 1901   0.360   3.045   0.445
  627SOL    HW2 1902   0.371   2.882   0.441
  628SOL     OW 1903   0.566   2.399   0.865
  628SOL    HW1 1904   0.578   2.465   0.791
  628SOL    HW2 1905   0.612   2.433   0.948
  629SOL     OW 1906   1.252   3.210   0.388
  629SOL    HW1 1907   1.302   3.287   0.428
  629SOL    HW2 1908   1.157   3.212   0.420
  630SOL     OW 1909   1.272   3.307   1.142
  630SOL    HW1 1910   1.319   3.320   1.229
  630SOL    HW2 1911   1.206   3.233   1.151
  631SOL     OW 1912   1.582   2.501   0.472
  631SOL    HW1 1913   1.551   2.562   0.545
  631SOL    HW2 1914   1.632   2.553   0.403
  632SOL     OW 1915   0.354   3.372   1.329
  632SOL    HW1 1916   0.333   3.328   1.242
  632SOL    HW2 1917   0.451   3.398   1.332
  633SOL     OW 1918   0.402   2.613   1.598
  633SOL    HW1 1919   0.470   2.668   1.551
  633SOL    HW2 1920   0.442   2.525   1.625
  634SOL     OW 1921   1.587   2.641   1.670
  634SOL    HW1 1922   1.495   2.679   1.665
  634SOL    HW2 1923   1.647   2.688   1.605
  635SOL     OW 1924   1.013   1.967   1.770
  635SOL    HW1 1925   1.019   2.052   1.718
  635SOL    HW2 1926   1.045   1.891   1.713
  636SOL     OW 1927   0.504   1.912   1.740
  636SOL    HW1 1928   0.462   1.855   1.670
  636SOL    HW2 1929   0.438   1.981   1.772
  637SOL     OW 1930   0.573   2.732   1.029
  637SOL    HW1 1931   0.617   2.821   1.020
  637SOL    HW2 1932   0.510   2.732   1.106
  638SOL     OW 1933   1.360   2.724   1.045
  638SOL    HW1 1934   1.285   2.724   0.979
  638SOL    HW2 1935   1.397   2.632   1.054
  639SOL     OW 1936   1.209   2.387   0.275
  639SOL    HW1 1937   1.222   2.303   0.329
  639SOL    HW2 1938   1.180   2.461   0.335
  640SOL     OW 1939   0.307   2.075   1.231
  640SOL    HW1 1940   0.284   2.112   1.321
  640SOL    HW2 1941   0.277   1.980   1.225
  641SOL     OW 1942   0.037   3.172   1.282
  641SOL    HW1 1943   0.090   3.123   1.350
  641SOL    HW2 1944   0.059   3.270   1.287
  642SOL     OW 1945   0.732   2.496   1.064
  642SOL    HW1 1946   0.791   2.470   0.988
  642SOL    HW2 1947   0.704   2.592   1.053
  643SOL     OW 1948   1.728   2.797   1.854
  643SOL    HW1 1949   1.682   2.790   1.765
  643SOL    HW2 1950   1.666   2.841   1.920
  644SOL     OW 1951   0.307   1.925   0.618
  644SOL    HW1 1952   0.296   2.019   0.651
  644SOL    HW2 1953   0.302   1.862   0.695
  645SOL     OW 1954   1.622   2.229   0.374
  645SOL    HW1 1955   1.624   2.153   0.438
  645SOL    HW2 1956   1.574   2.306   0.414
  646SOL     OW 1957   1.023   2.628   0.966
  646SOL    HW1 1958   1.038   2.649   1.062
  646SOL    HW2 1959   0.993   2.533   0.957
  647SOL     OW 1960   0.980   3.435   1.700
  647SOL    HW1 1961   0.960   3.479   1.612
  647SOL    HW2 1962   1.019   3.344   1.684
  648SOL     OW 1963   1.859   3.380   1.605
  648SOL    HW1 1964   1.873   3.407   1.510
  648SOL    HW2 1965   1.942   3.402   1.658
  649SOL     OW 1966   0.350   2.760   1.804
  649SOL    HW1 1967   0.426   2.804   1.852
  649SOL    HW2 1968   0.385   2.713   1.722
  650SOL     OW 1969   1.540   2.136   0.125
  650SOL    HW1 1970   1.479   2.061   0.148
  650SOL    HW2 1971   1.562   2.188   0.208
  651SOL     OW 1972   1.303   2.700   0.042
  651SOL    HW1 1973   1.337   2.607   0.057
  651SOL    HW2 1974   1.321   2.727  -0.053
  652SOL     OW 1975   1.068   3.195   0.849
  652SOL    HW1 1976   1.075   3.111   0.794
  652SOL    HW2 1977   1.130   3.264   0.813
  653SOL     OW 1978   0.319   2.672   0.949
  653SOL    HW1 1979   0.412   2.708   0.954
  653SOL    HW2 1980   0.313   2.587   1.001
  654SOL     OW 1981   0.339   2.371   1.006
  654SOL    HW1 1982   0.287   2.288   0.989
  654SOL    HW2 1983   0.416   2.376   0.942
  655SOL     OW 1984   1.138   2.242   1.678
  655SOL    HW1 1985   1.093   2.305   1.742
  655SOL    HW2 1986   1.231   2.273   1.661
  656SOL     OW 1987   1.160   2.069   1.477
  656SOL    HW1 1988   1.160   2.133   1.554
  656SOL    HW2 1989   1.188   2.117   1.394
  657SOL     OW 1990   0.008   3.188   0.200
  657SOL    HW1 1991  -0.085   3.209   0.169
  657SOL    HW2 1992   0.018   3.089   0.213
  658SOL     OW 1993   0.088   3.663   0.927
  658SOL    HW1 1994   0.046   3.577   0.900
  658SOL    HW2 1995   0.182   3.666   0.893
  659SOL     OW 1996   0.504   3.430   0.910
  659SOL    HW1 1997   0.570   3.504   0.919
  659SOL    HW2 1998   0.548   3.351   0.868
  660SOL     OW 1999   1.002   2.658   1.238
  660SOL    HW1 2000   1.043   2.626   1.324
  660SOL    HW2 2001   0.906   2.631   1.235
  661SOL     OW 2002   0.040   2.406   1.114
  661SOL    HW1 2003   0.125   2.373   1.073
  661SOL    HW2 2004   0.053   2.421   1.212
  662SOL     OW 2005   0.189   2.382   1.722
  662SOL    HW1 2006   0.248   2.342   1.652
  662SOL    HW2 2007   0.131   2.453   1.681
  663SOL     OW 2008   1.369   2.812   1.660
  663SOL    HW1 2009   1.408   2.901   1.680
  663SOL    HW2 2010   1.379   2.792   1.563
  664SOL     OW 2011   0.815   2.434   0.325
  664SOL    HW1 2012   0.822   2.345   0.279
  664SOL    HW2 2013   0.721   2.468   0.317
  665SOL     OW 2014   1.657   2.466   1.206
  665SOL    HW1 2015   1.619   2.397   1.268
  665SOL    HW2 2016   1.739   2.430   1.162
  666SOL     OW 2017   0.252   3.426   1.744
  666SOL    HW1 2018   0.222   3.483   1.820
  666SOL    HW2 2019   0.245   3.329   1.770
  667SOL     OW 2020   0.671   2.326   1.269
  667SOL    HW1 2021   0.637   2.237   1.239
  667SOL    HW2 2022   0.697   2.380   1.189
  668SOL     OW 2023   0.930   3.540   1.465
  668SOL    HW1 2024   0.906   3.522   1.370
  668SOL    HW2 2025   0.960   3.634   1.475
  669SOL     OW 2026   0.473   2.362   0.191
  669SOL    HW1 2027   0.534   2.442   0.195
  669SOL    HW2 2028   0.378   2.393   0.198
  670SOL     OW 2029   0.159   2.999   1.466
  670SOL    HW1 2030   0.181   2.938   1.542
  670SOL    HW2 2031   0.169   2.950   1.380
  671SOL     OW 2032   1.347   2.921   1.234
  671SOL    HW1 2033   1.371   2.858   1.160
  671SOL    HW2 2034   1.257   2.961   1.216
  672SOL     OW 2035   1.302   2.717   0.309
  672SOL    HW1 2036   1.216   2.686   0.351
  672SOL    HW2 2037   1.298   2.703   0.210
  673SOL     OW 2038   1.759   3.609   1.154
  673SOL    HW1 2039   1.820   3.639   1.081
  673SOL    HW2 2040   1.721   3.520   1.132
  674SOL     OW 2041   1.252   3.593   1.128
  674SOL    HW1 2042   1.336   3.598   1.074
  674SOL    HW2 2043   1.229   3.497   1.146
  675SOL     OW 2044   0.083   3.120   1.022
  675SOL    HW1 2045   0.078   3.119   1.122
  675SOL    HW2 2046   0.000   3.079   0.984
  676SOL     OW 2047   0.688   3.524   1.716
  676SOL    HW1 2048   0.632   3.605   1.725
  676SOL    HW2 2049   0.740   3.528   1.630
  677SOL     OW 2050   0.903   1.948   0.133
  677SOL    HW1 2051   0.954   1.949   0.047
  677SOL    HW2 2052   0.959   1.906   0.204
  678SOL     OW 2053   1.726   1.997   0.523
  678SOL    HW1 2054   1.799   1.980   0.456
  678SOL    HW2 2055   1.695   1.910   0.561
  679SOL     OW 2056   1.388   3.435   0.477
  679SOL    HW1 2057   1.455   3.447   0.403
  679SOL    HW2 2058   1.348   3.524   0.500
  680SOL     OW 2059   0.130   3.656   1.851
  680SOL    HW1 2060   0.089   3.582   1.904
  680SOL    HW2 2061   0.194   3.707   1.909
  681SOL     OW 2062   1.280   2.789   0.672
  681SOL    HW1 2063   1.340   2.708   0.674
  681SOL    HW2 2064   1.320   2.858   0.612
  682SOL     OW 2065   0.830   3.135   1.422
  682SOL    HW1 2066   0.825   3.168   1.517
  682SOL    HW2 2067   0.744   3.154   1.376
  683SOL     OW 2068   0.672   3.478   0.154
  683SOL    HW1 2069   0.681   3.488   0.055
  683SOL    HW2 2070   0.632   3.389   0.175
  684SOL     OW 2071   1.650   3.582   1.394
  684SOL    HW1 2072   1.703   3.592   1.310
  684SOL    HW2 2073   1.623   3.672   1.428
  685SOL     OW 2074   1.841   2.037   0.963
  685SOL    HW1 2075   1.880   1.952   0.927
  685SOL    HW2 2076   1.743   2.039   0.944
  686SOL     OW 2077   0.263   2.188   0.720
  686SOL    HW1 2078   0.184   2.239   0.686
  686SOL    HW2 2079   0.254   2.173   0.818
  687SOL     OW 2080   1.194   3.474   0.031
  687SOL    HW1 2081   1.200   3.381   0.068
  687SOL    HW2 2082   1.135   3.474  -0.049
  688SOL     OW 2083   0.822   2.864   1.372
  688SOL    HW1 2084   0.862   2.863   1.280
  688SOL    HW2 2085   0.832   2.956   1.412
  689SOL     OW 2086   0.916   2.772   0.291
  689SOL    HW1 2087   0.979   2.810   0.223
  689SOL    HW2 2088   0.956   2.689   0.330
  690SOL     OW 2089   1.504   3.469   0.044
  690SOL    HW1 2090   1.412   3.506   0.051
  690SOL    HW2 2091   1.542   3.489  -0.046
  691SOL     OW 2092   0.372   3.150   1.490
  691SOL    HW1 2093   0.359   3.243   1.456
  691SOL    HW2 2094   0.288   3.098   1.477
  692SOL     OW 2095   1.614   3.154   1.289
  692SOL    HW1 2096   1.674   3.157   1.369
  692SOL    HW2 2097   1.539   3.218   1.302
  693SOL     OW 2098   1.039   2.960   0.696
  693SOL    HW1 2099   0.969   2.913   0.750
  693SOL    HW2 2100   1.098   2.892   0.653
  694SOL     OW 2101   1.014   2.098   0.971
  694SOL    HW1 2102   1.006   2.062   0.878
  694SOL    HW2 2103   1.012   2.022   1.036
  695SOL     OW 2104   0.590   3.349   0.491
  695SOL    HW1 2105   0.632   3.291   0.421
  695SOL    HW2 2106   0.546   3.428   0.447
  696SOL     OW 2107   1.709   2.247   1.381
  696SOL    HW1 2108   1.782   2.316   1.385
  696SOL    HW2 2109   1.737   2.172   1.322
  697SOL     OW 2110   0.255   3.210   0.290
  697SOL    HW1 2111   0.159   3.211   0.263
  697SOL    HW2 2112   0.267   3.263   0.374
  698SOL     OW 2113   0.105   2.875   1.726
  698SOL    HW1 2114   0.028   2.842   1.780
  698SOL    HW2 2115   0.190   2.845   1.768
  699SOL     OW 2116   0.672   2.065   1.489
  699SOL    HW1 2117   0.762   2.049   1.449
  699SOL    HW2 2118   0.680   2.070   1.588
  700SOL     OW 2119   0.075   2.207   0.033
  700SOL    HW1 2120  -0.017   2.179   0.004
  700SOL    HW2 2121   0.106   2.284  -0.023
  701SOL     OW 2122   1.440   2.718   1.398
  701SOL    HW1 2123   1.383   2.770   1.335
  701SOL    HW2 2124   1.536   2.730   1.374
  702SOL     OW 2125   0.072   2.028   0.318
  702SOL    HW1 2126   0.055   2.111   0.264
  702SOL    HW2 2127   0.162   1.991   0.296
  703SOL     OW 2128   1.183   3.197   0.119
  703SOL    HW1 2129   1.084   3.186   0.121
  703SOL    HW2 2130   1.217   3.212   0.212
  704SOL     OW 2131   0.613   2.704   1.431
  704SOL    HW1 2132   0.669   2.785   1.414
  704SOL    HW2 2133   0.672   2.624   1.434
  705SOL     OW 2134   1.493   3.629   0.959
  705SOL    HW1 2135   1.526   3.693   0.890
  705SOL    HW2 2136   1.559   3.623   1.034
  706SOL     OW 2137   0.716   2.427   1.708
  706SOL    HW1 2138   0.735   2.492   1.782
  706SOL    HW2 2139   0.776   2.347   1.717
  707SOL     OW 2140   1.450   3.082   1.633
  707SOL    HW1 2141   1.441   3.072   1.732
  707SOL    HW2 2142   1.546   3.075   1.607
  708SOL     OW 2143   0.390   3.603   1.560
  708SOL    HW1 2144   0.299   3.644   1.558
  708SOL    HW2 2145   0.383   3.509   1.592
  709SOL     OW 2146   1.674   2.745   1.254
  709SOL    HW1 2147   1.647   2.656   1.217
  709SOL    HW2 2148   1.675   2.813   1.181
  710SOL     OW 2149   1.225   2.187   0.449
  710SOL    HW1 2150   1.290   2.113   0.438
  710SOL    HW2 2151   1.245   2.237   0.533
  711SOL     OW 2152   0.594   2.607   0.652
  711SOL    HW1 2153   0.644   2.692   0.633
  711SOL    HW2 2154   0.506   2.609   0.604
  712SOL     OW 2155   1.777   2.204   1.642
  712SOL    HW1 2156   1.760   2.235   1.548
  712SOL    HW2 2157   1.693   2.167   1.680
  713SOL     OW 2158   1.730   2.796   1.517
  713SOL    HW1 2159   1.768   2.887   1.532
  713SOL    HW2 2160   1.722   2.779   1.418
  714SOL     OW 2161   0.859   3.236   0.016
  714SOL    HW1 2162   0.813   3.251   0.104
  714SOL    HW2 2163   0.903   3.321  -0.014
  715SOL     OW 2164   0.661   3.652   0.953
  715SOL    HW1 2165   0.615   3.740   0.940
  715SOL    HW2 2166   0.760   3.664   0.946
  716SOL     OW 2167   0.859   2.818   0.861
  716SOL    HW1 2168   0.913   2.749   0.909
  716SOL    HW2 2169   0.827   2.887   0.927
  717SOL     OW 2170   1.083   2.846   0.087
  717SOL    HW1 2171   1.060   2.899   0.005
  717SOL    HW2 2172   1.164   2.790   0.068
  718SOL     OW 2173   1.861   3.431   0.851
  718SOL    HW1 2174   1.790   3.419   0.781
  718SOL    HW2 2175   1.862   3.352   0.911
  719SOL     OW 2176   0.221   3.176   1.844
  719SOL    HW1 2177   0.156   3.103   1.823
  719SOL    HW2 2178   0.225   3.190   1.942
  720SOL     OW 2179   0.079   3.102   0.653
  720SOL    HW1 2180   0.078   3.055   0.741
  720SOL    HW2 2181   0.161   3.074   0.602
  721SOL     OW 2182   0.672   3.253   1.624
  721SOL    HW1 2183   0.594   3.203   1.662
  721SOL    HW2 2184   0.669   3.348   1.655
  722SOL     OW 2185   1.824   2.054   1.227
  722SOL    HW1 2186   1.820   1.964   1.271
  722SOL    HW2 2187   1.827   2.043   1.128
  723SOL     OW 2188   0.428   2.286   0.520
  723SOL    HW1 2189   0.458   2.214   0.458
  723SOL    HW2 2190   0.389   2.246   0.603
  724SOL     OW 2191   1.705   3.349   1.104
  724SOL    HW1 2192   1.612   3.324   1.077
  724SOL    HW2 2193   1.731   3.299   1.186
  725SOL     OW 2194   0.317   2.409   1.280
  725SOL    HW1 2195   0.355   2.350   1.352
  725SOL    HW2 2196   0.357   2.383   1.192
  726SOL     OW 2197   0.812   3.448   0.687
  726SOL    HW1 2198   0.844   3.458   0.593
  726SOL    HW2 2199   0.733   3.386   0.689
  727SOL     OW 2200   1.424   2.076   1.112
  727SOL    HW1 2201   1.476   2.011   1.167
  727SOL    HW2 2202   1.375   2.139   1.173
  728SOL     OW 2203   1.001   1.896   1.154
  728SOL    HW1 2204   0.938   1.824   1.123
  728SOL    HW2 2205   1.094   1.860   1.154
  729SOL     OW 2206   0.770   3.192   0.301
  729SOL    HW1 2207   0.724   3.105   0.318
  729SOL    HW2 2208   0.861   3.189   0.342
  730SOL     OW 2209   0.618   3.429   1.284
  730SOL    HW1 2210   0.613   3.511   1.341
  730SOL    HW2 2211   0.707   3.426   1.239
  731SOL     OW 2212   1.352   1.914   0.168
  731SOL    HW1 2213   1.387   1.873   0.084
  731SOL    HW2 2214   1.262   1.876   0.188
  732SOL     OW 2215   1.300   2.315   0.691
  732SOL    HW1 2216   1.241   2.395   0.695
  732SOL    HW2 2217   1.315   2.280   0.784
  733SOL     OW 2218   1.593   2.083   0.882
  733SOL    HW1 2219   1.509   2.082   0.936
  733SOL    HW2 2220   1.595   2.166   0.826
  734SOL     OW 2221   0.039   2.939   0.300
  734SOL    HW1 2222   0.138   2.928   0.291
  734SOL    HW2 2223  -0.001   2.853   0.332
  735SOL     OW 2224   0.875   3.508   0.337
  735SOL    HW1 2225   0.798   3.473   0.283
  735SOL    HW2 2226   0.843   3.579   0.399
  736SOL     OW 2227   0.230   2.490   1.975
  736SOL    HW1 2228   0.137   2.488   2.012
  736SOL    HW2 2229   0.231   2.451   1.883
  737SOL     OW 2230   0.225   2.137   2.858
  737SOL    HW1 2231   0.260   2.120   2.950
  737SOL    HW2 2232   0.137   2.092   2.846
  738SOL     OW 2233   0.019   2.230   2.509
  738SOL    HW1 2234  -0.063   2.273   2.548
  738SOL    HW2 2235  -0.009   2.157   2.446
  739SOL     OW 2236   0.569   3.137   3.027
  739SOL    HW1 2237   0.476   3.130   2.990
  739SOL    HW2 2238   0.580   3.226   3.071
  740SOL     OW 2239   1.555   3.373   2.565
  740SOL    HW1 2240   1.498   3.357   2.646
  740SOL    HW2 2241   1.496   3.383   2.485
  741SOL     OW 2242   1.135   2.565   2.579
  741SOL    HW1 2243   1.192   2.643   2.554
  741SOL    HW2 2244   1.075   2.591   2.655
  742SOL     OW 2245   1.755   2.469   2.093
  742SOL    HW1 2246   1.743   2.456   1.994
  742SOL    HW2 2247   1.725   2.388   2.142
  743SOL     OW 2248   0.768   3.006   2.885
  743SOL    HW1 2249   0.690   3.023   2.945
  743SOL    HW2 2250   0.802   3.093   2.849
  744SOL     OW 2251   0.850   2.660   3.685
  744SOL    HW1 2252   0.846   2.736   3.750
  744SOL    HW2 2253   0.872   2.696   3.594
  745SOL     OW 2254   0.685   2.874   2.527
  745SOL    HW1 2255   0.754   2.858   2.597
  745SOL    HW2 2256   0.612   2.931   2.565
  746SOL     OW 2257   0.686   3.023   3.665
  746SOL    HW1 2258   0.746   3.102   3.679
  746SOL    HW2 2259   0.600   3.054   3.624
  747SOL     OW 2260   0.335   3.297   2.923
  747SOL    HW1 2261   0.257   3.266   2.870
  747SOL    HW2 2262   0.393   3.355   2.866
  748SOL     OW 2263   1.460   3.367   3.201
  748SOL    HW1 2264   1.484   3.461   3.227
  748SOL    HW2 2265   1.444   3.313   3.283
  749SOL     OW 2266   0.438   2.254   3.361
  749SOL    HW1 2267   0.520   2.198   3.370
  749SOL    HW2 2268   0.357   2.196   3.365
  750SOL     OW 2269   1.603   2.309   2.599
  750SOL    HW1 2270   1.529   2.355   2.549
  750SOL    HW2 2271   1.654   2.377   2.652
  751SOL     OW 2272   0.231   3.575   2.345
  751SOL    HW1 2273   0.265   3.652   2.399
  751SOL    HW2 2274   0.275   3.575   2.255
  752SOL     OW 2275   1.127   3.203   3.552
  752SOL    HW1 2276   1.174   3.203   3.640
  752SOL    HW2 2277   1.079   3.116   3.541
  753SOL     OW 2278   0.230   3.296   2.400
  753SOL    HW1 2279   0.204   3.392   2.400
  753SOL    HW2 2280   0.159   3.242   2.445
  754SOL     OW 2281   0.240   2.953   2.748
  754SOL    HW1 2282   0.254   2.869   2.800
  754SOL    HW2 2283   0.185   3.017   2.803
  755SOL     OW 2284   0.620   3.648   3.301
  755SOL    HW1 2285   0.528   3.631   3.336
  755SOL    HW2 2286   0.648   3.740   3.327
  756SOL     OW 2287   0.606   2.826   1.985
  756SOL    HW1 2288   0.613   2.910   1.931
  756SOL    HW2 2289   0.652   2.839   2.073
  757SOL     OW 2290   1.594   1.976   3.342
  757SOL    HW1 2291   1.576   2.043   3.270
  757SOL    HW2 2292   1.591   2.022   3.431
  758SOL     OW 2293   0.122   2.505   2.425
  758SOL    HW1 2294   0.077   2.417   2.442
  758SOL    HW2 2295   0.121   2.559   2.509
  759SOL     OW 2296   1.842   3.629   2.221
  759SOL    HW1 2297   1.896   3.600   2.301
  759SOL    HW2 2298   1.872   3.719   2.192
  760SOL     OW 2299   0.027   3.458   1.979
  760SOL    HW1 2300   0.008   3.362   2.000
  760SOL    HW2 2301  -0.006   3.516   2.054
  761SOL     OW 2302   1.689   2.784   2.474
  761SOL    HW1 2303   1.784   2.755   2.482
  761SOL    HW2 2304   1.681   2.849   2.399
  762SOL     OW 2305   1.641   2.970   2.294
  762SOL    HW1 2306   1.727   2.972   2.242
  762SOL    HW2 2307   1.655   3.017   2.382
  763SOL     OW 2308   0.113   2.599   3.459
  763SOL    HW1 2309   0.201   2.586   3.504
  763SOL    HW2 2310   0.100   2.696   3.437
  764SOL     OW 2311   0.613   3.227   2.588
  764SOL    HW1 2312   0.564   3.140   2.597
  764SOL    HW2 2313   0.590   3.270   2.501
  765SOL     OW 2314   1.293   3.090   3.285
  765SOL    HW1 2315   1.330   3.017   3.227
  765SOL    HW2 2316   1.345   3.095   3.370
  766SOL     OW 2317   0.809   1.866   2.364
  766SOL    HW1 2318   0.849   1.957   2.355
  766SOL    HW2 2319   0.709   1.874   2.370
  767SOL     OW 2320   0.197   2.838   3.126
  767SOL    HW1 2321   0.286   2.793   3.112
  767SOL    HW2 2322   0.124   2.773   3.107
  768SOL     OW 2323   1.525   2.861   2.052
  768SOL    HW1 2324   1.462   2.785   2.065
  768SOL    HW2 2325   1.573   2.879   2.138
  769SOL     OW 2326   1.187   3.654   3.478
  769SOL    HW1 2327   1.211   3.714   3.402
  769SOL    HW2 2328   1.194   3.559   3.448
  770SOL     OW 2329   0.317   2.113   3.663
  770SOL    HW1 2330   0.388   2.184   3.669
  770SOL    HW2 2331   0.229   2.152   3.691
  771SOL     OW 2332   1.466   3.279   2.815
  771SOL    HW1 2333   1.407   3.285   2.895
  771SOL    HW2 2334   1.451   3.191   2.769
  772SOL     OW 2335   1.667   3.576   2.434
  772SOL    HW1 2336   1.626   3.553   2.346
  772SOL    HW2 2337   1.649   3.502   2.499
  773SOL     OW 2338   0.598   2.591   2.132
  773SOL    HW1 2339   0.622   2.660   2.064
  773SOL    HW2 2340   0.520   2.624   2.186
  774SOL     OW 2341   1.281   2.207   2.806
  774SOL    HW1 2342   1.195   2.157   2.793
  774SOL    HW2 2343   1.343   2.153   2.862
  775SOL     OW 2344   1.576   3.524   2.169
  775SOL    HW1 2345   1.665   3.570   2.172
  775SOL    HW2 2346   1.555   3.500   2.074
  776SOL     OW 2347   0.807   2.467   3.327
  776SOL    HW1 2348   0.760   2.464   3.416
  776SOL    HW2 2349   0.756   2.412   3.261
  777SOL     OW 2350   1.394   2.331   3.536
  777SOL    HW1 2351   1.374   2.374   3.624
  777SOL    HW2 2352   1.472   2.269   3.545
  778SOL     OW 2353   0.973   2.752   3.434
  778SOL    HW1 2354   1.019   2.668   3.405
  778SOL    HW2 2355   0.917   2.786   3.359
  779SOL     OW 2356   0.991   2.272   3.104
  779SOL    HW1 2357   0.914   2.306   3.158
  779SOL    HW2 2358   0.957   2.221   3.025
  780SOL     OW 2359   1.041   2.563   2.291
  780SOL    HW1 2360   1.067   2.559   2.387
  780SOL    HW2 2361   0.956   2.512   2.277
  781SOL     OW 2362   0.076   2.673   2.651
  781SOL    HW1 2363   0.175   2.661   2.660
  781SOL    HW2 2364   0.052   2.768   2.672
  782SOL     OW 2365   0.130   3.683   3.433
  782SOL    HW1 2366   0.120   3.668   3.532
  782SOL    HW2 2367   0.044   3.719   3.397
  783SOL     OW 2368   0.865   2.210   2.057
  783SOL    HW1 2369   0.924   2.273   2.008
  783SOL    HW2 2370   0.884   2.116   2.028
  784SOL     OW 2371   1.719   2.447   3.693
  784SOL    HW1 2372   1.693   2.536   3.657
  784SOL    HW2 2373   1.717   2.379   3.620
  785SOL     OW 2374   1.362   3.006   2.407
  785SOL    HW1 2375   1.445   2.977   2.359
  785SOL    HW2 2376   1.313   3.073   2.351
  786SOL     OW 2377   0.550   2.058   2.747
  786SOL    HW1 2378   0.545   2.053   2.847
  786SOL    HW2 2379   0.552   2.154   2.718
  787SOL     OW 2380   1.008   3.318   2.339
  787SOL    HW1 2381   0.962   3.390   2.287
  787SOL    HW2 2382   1.004   3.338   2.437
  788SOL     OW 2383   0.351   3.663   2.715
  788SOL    HW1 2384   0.401   3.577   2.721
  788SOL    HW2 2385   0.416   3.740   2.712
  789SOL     OW 2386   1.795   2.928   2.735
  789SOL    HW1 2387   1.733   2.913   2.659
  789SOL    HW2 2388   1.743   2.939   2.820
  790SOL     OW 2389   1.227   3.412   3.368
  790SOL    HW1 2390   1.233   3.335   3.432
  790SOL    HW2 2391   1.175   3.386   3.288
  791SOL     OW 2392   0.321   2.805   2.104
  791SOL    HW1 2393   0.403   2.844   2.062
  791SOL    HW2 2394   0.294   2.723   2.055
  792SOL     OW 2395   1.458   2.597   2.590
  792SOL    HW1 2396   1.453   2.532   2.665
  792SOL    HW2 2397   1.538   2.656   2.603
  793SOL     OW 2398   0.461   3.128   3.589
  793SOL    HW1 2399   0.411   3.129   3.503
  793SOL    HW2 2400   0.398   3.110   3.665
  794SOL     OW 2401   1.111   3.638   2.099
  794SOL    HW1 2402   1.051   3.576   2.149
  794SOL    HW2 2403   1.142   3.594   2.014
  795SOL     OW 2404   0.202   2.147   3.360
  795SOL    HW1 2405   0.122   2.207   3.347
  795SOL    HW2 2406   0.192   2.098   3.446
  796SOL     OW 2407   1.632   3.239   1.943
  796SOL    HW1 2408   1.600   3.333   1.933
  796SOL    HW2 2409   1.556   3.176   1.931
  797SOL     OW 2410   0.464   3.605   2.185
  797SOL    HW1 2411   0.497   3.644   2.271
  797SOL    HW2 2412   0.540   3.598   2.120
  798SOL     OW 2413   1.400   1.969   2.288
  798SOL    HW1 2414   1.376   1.932   2.198
  798SOL    HW2 2415   1.499   1.985   2.292
  799SOL     OW 2416   0.249   3.647   3.103
  799SOL    HW1 2417   0.306   3.582   3.153
  799SOL    HW2 2418   0.233   3.614   3.010
  800SOL     OW 2419   0.940   3.560   2.766
  800SOL    HW1 2420   1.020   3.503   2.787
  800SOL    HW2 2421   0.891   3.520   2.689
  801SOL     OW 2422   0.382   2.562   2.342
  801SOL    HW1 2423   0.427   2.472   2.339
  801SOL    HW2 2424   0.288   2.551   2.375
  802SOL     OW 2425   1.547   2.084   3.591
  802SOL    HW1 2426   1.542   2.121   3.683
  802SOL    HW2 2427   1.475   2.015   3.579
  803SOL     OW 2428   0.614   1.984   1.979
  803SOL    HW1 2429   0.712   1.962   1.986
  803SOL    HW2 2430   0.583   1.967   1.886
  804SOL     OW 2431   0.781   2.126   3.611
  804SOL    HW1 2432   0.848   2.065   3.654
  804SOL    HW2 2433   0.708   2.145   3.676
  805SOL     OW 2434   0.888   3.376   3.057
  805SOL    HW1 2435   0.865   3.351   2.963
  805SOL    HW2 2436   0.949   3.307   3.096
  806SOL     OW 2437   1.351   2.452   3.295
  806SOL    HW1 2438   1.379   2.409   3.380
  806SOL    HW2 2439   1.376   2.548   3.296
  807SOL     OW 2440   0.803   3.264   2.786
  807SOL    HW1 2441   0.893   3.278   2.744
  807SOL    HW2 2442   0.732   3.266   2.715
  808SOL     OW 2443   0.922   2.365   2.761
  808SOL    HW1 2444   0.897   2.356   2.665
  808SOL    HW2 2445   0.970   2.283   2.792
  809SOL     OW 2446   0.539   1.926   2.374
  809SOL    HW1 2447   0.458   1.927   2.432
  809SOL    HW2 2448   0.542   2.009   2.319
  810SOL     OW 2449   1.434   3.050   1.903
  810SOL    HW1 2450   1.466   2.974   1.960
  810SOL    HW2 2451   1.342   3.077   1.933
  811SOL     OW 2452   0.297   1.897   2.033
  811SOL    HW1 2453   0.346   1.981   2.012
  811SOL    HW2 2454   0.359   1.832   2.078
  812SOL     OW 2455   0.935   2.098   2.342
  812SOL    HW1 2456   0.887   2.139   2.264
  812SOL    HW2 2457   1.034   2.096   2.323
  813SOL     OW 2458   1.076   2.545   3.326
  813SOL    HW1 2459   0.996   2.484   3.329
  813SOL    HW2 2460   1.157   2.492   3.302
  814SOL     OW 2461   1.227   3.432   2.655
  814SOL    HW1 2462   1.248   3.506   2.590
  814SOL    HW2 2463   1.295   3.432   2.728
  815SOL     OW 2464   0.459   3.014   2.603
  815SOL    HW1 2465   0.388   2.987   2.668
  815SOL    HW2 2466   0.433   2.986   2.510
  816SOL     OW 2467   1.271   3.659   2.453
  816SOL    HW1 2468   1.315   3.723   2.389
  816SOL    HW2 2469   1.221   3.711   2.523
  817SOL     OW 2470   1.032   2.411   1.878
  817SOL    HW1 2471   0.991   2.493   1.839
  817SOL    HW2 2472   1.096   2.437   1.951
  818SOL     OW 2473   0.078   2.418   3.248
  818SOL    HW1 2474   0.170   2.417   3.207
  818SOL    HW2 2475   0.072   2.492   3.315
  819SOL     OW 2476   0.561   2.084   3.009
  819SOL    HW1 2477   0.599   2.000   3.046
  819SOL    HW2 2478   0.473   2.103   3.053
  820SOL     OW 2479   0.866   2.316   2.504
  820SOL    HW1 2480   0.834   2.388   2.442
  820SOL    HW2 2481   0.890   2.235   2.451
  821SOL     OW 2482   1.017   1.901   2.615
  821SOL    HW1 2483   0.945   1.906   2.546
  821SOL    HW2 2484   0.993   1.832   2.684
  822SOL     OW 2485   1.429   3.035   2.729
  822SOL    HW1 2486   1.374   2.951   2.722
  822SOL    HW2 2487   1.455   3.064   2.637
  823SOL     OW 2488   1.466   2.452   2.854
  823SOL    HW1 2489   1.436   2.357   2.861
  823SOL    HW2 2490   1.539   2.468   2.920
  824SOL     OW 2491   1.857   2.695   2.239
  824SOL    HW1 2492   1.899   2.631   2.303
  824SOL    HW2 2493   1.819   2.644   2.161
  825SOL     OW 2494   0.488   3.247   2.036
  825SOL    HW1 2495   0.401   3.232   2.083
  825SOL    HW2 2496   0.471   3.273   1.941
  826SOL     OW 2497   1.664   3.142   2.519
  826SOL    HW1 2498   1.763   3.150   2.533
  826SOL    HW2 2499   1.619   3.226   2.550
  827SOL     OW 2500   1.390   2.437   1.940
  827SOL    HW1 2501   1.336   2.416   2.021
  827SOL    HW2 2502   1.481   2.396   1.949
  828SOL     OW 2503   0.527   2.118   2.190
  828SOL    HW1 2504   0.554   2.059   2.115
  828SOL    HW2 2505   0.527   2.213   2.159
  829SOL     OW 2506   1.754   3.085   3.450
  829SOL    HW1 2507   1.845   3.046   3.437
  829SOL    HW2 2508   1.762   3.181   3.474
  830SOL     OW 2509   1.064   3.209   3.202
  830SOL    HW1 2510   0.984   3.186   3.257
  830SOL    HW2 2511   1.147   3.183   3.251
  831SOL     OW 2512   1.592   3.491   3.487
  831SOL    HW1 2513   1.619   3.525   3.397
  831SOL    HW2 2514   1.671   3.453   3.533
  832SOL     OW 2515   1.111   3.057   2.962
  832SOL    HW1 2516   1.071   3.101   3.043
  832SOL    HW2 2517   1.070   3.094   2.879
  833SOL     OW 2518   1.638   2.961   2.941
  833SOL    HW1 2519   1.643   3.042   3.000
  833SOL    HW2 2520   1.552   2.963   2.890
  834SOL     OW 2521   0.915   1.951   3.264
  834SOL    HW1 2522   0.940   1.931   3.169
  834SOL    HW2 2523   0.987   2.007   3.306
  835SOL     OW 2524   0.980   2.978   3.581
  835SOL    HW1 2525   0.881   2.984   3.591
  835SOL    HW2 2526   1.003   2.898   3.525
  836SOL     OW 2527   0.705   2.912   2.230
  836SOL    HW1 2528   0.691   2.919   2.329
  836SOL    HW2 2529   0.789   2.861   2.212
  837SOL     OW 2530   0.410   2.675   3.113
  837SOL    HW1 2531   0.496   2.687   3.163
  837SOL    HW2 2532   0.368   2.588   3.140
  838SOL     OW 2533   1.274   2.248   3.124
  838SOL    HW1 2534   1.295   2.322   3.188
  838SOL    HW2 2535   1.185   2.265   3.081
  839SOL     OW 2536   0.064   3.426   3.193
  839SOL    HW1 2537   0.018   3.508   3.159
  839SOL    HW2 2538   0.162   3.445   3.202
  840SOL     OW 2539   0.367   2.962   2.363
  840SOL    HW1 2540   0.360   3.045   2.307
  840SOL    HW2 2541   0.371   2.882   2.303
  841SOL     OW 2542   0.566   2.399   2.727
  841SOL    HW1 2543   0.578   2.465   2.653
  841SOL    HW2 2544   0.612   2.433   2.810
  842SOL     OW 2545   1.252   3.210   2.250
  842SOL    HW1 2546   1.302   3.287   2.290
  842SOL    HW2 2547   1.157   3.212   2.282
  843SOL     OW 2548   1.272   3.307   3.004
  843SOL    HW1 2549   1.319   3.320   3.091
  843SOL    HW2 2550   1.206   3.233   3.013
  844SOL     OW 2551   1.582   2.501   2.334
  844SOL    HW1 2552   1.551   2.562   2.407
  844SOL    HW2 2553   1.632   2.553   2.265
  845SOL     OW 2554   0.354   3.372   3.191
  845SOL    HW1 2555   0.333   3.328   3.104
  845SOL    HW2 2556   0.451   3.398   3.194
  846SOL     OW 2557   0.402   2.613   3.460
  846SOL    HW1 2558   0.470   2.668   3.413
  846SOL    HW2 2559   0.442   2.525   3.487
  847SOL     OW 2560   1.587   2.641   3.532
  847SOL    HW1 2561   1.495   2.679   3.527
  847SOL    HW2 2562   1.647   2.688   3.467
  848SOL     OW 2563   1.013   1.967   3.632
  848SOL    HW1 2564   1.019   2.052   3.580
  848SOL    HW2 2565   1.045   1.891   3.575
  849SOL     OW 2566   0.504   1.912   3.602
  849SOL    HW1 2567   0.462   1.855   3.532
  849SOL    HW2 2568   0.438   1.981   3.634
  850SOL     OW 2569   0.573   2.732   2.891
  850SOL    HW1 2570   0.617   2.821   2.882
  850SOL    HW2 2571   0.510   2.732   2.968
  851SOL     OW 2572   1.360   2.724   2.907
  851SOL    HW1 2573   1.285   2.724   2.841
  851SOL    HW2 2574   1.397   2.632   2.916
  852SOL     OW 2575   1.209   2.387   2.137
  852SOL    HW1 2576   1.222   2.303   2.191
  852SOL    HW2 2577   1.180   2.461   2.197
  853SOL     OW 2578   0.307   2.075   3.093
  853SOL    HW1 2579   0.284   2.112   3.183
  853SOL    HW2 2580   0.277   1.980   3.087
  854SOL     OW 2581   0.037   3.172   3.144
  854SOL    HW1 2582   0.090   3.123   3.212
  854SOL    HW2 2583   0.059   3.270   3.149
  855SOL     OW 2584   0.732   2.496   2.926
  855SOL    HW1 2585   0.791   2.470   2.850
  855SOL    HW2 2586   0.704   2.592   2.915
  856SOL     OW 2587   1.728   2.797   3.716
  856SOL    HW1 2588   1.682   2.790   3.627
  856SOL    HW2 2589   1.666   2.841   3.782
  857SOL     OW 2590   0.307   1.925   2.480
  857SOL    HW1 2591   0.296   2.019   2.513
  857SOL    HW2 2592   0.302   1.862   2.557
  858SOL     OW 2593   1.622   2.229   2.236
  858SOL    HW1 2594   1.624   2.153   2.300
  858SOL    HW2 2595   1.574   2.306   2.276
  859SOL     OW 2596   1.023   2.628   2.828
  859SOL    HW1 2597   1.038   2.649   2.924
  859SOL    HW2 2598   0.993   2.533   2.819
  860SOL     OW 2599   0.980   3.435   3.562
  860SOL    HW1 2600   0.960   3.479   3.474
  860SOL    HW2 2601   1.019   3.344   3.546
  861SOL     OW 2602   1.859   3.380   3.467
  861SOL    HW1 2603   1.873   3.407   3.372
  861SOL    HW2 2604   1.942   3.402   3.520
  862SOL     OW 2605   0.350   2.760   3.666
  862SOL    HW1 2606   0.426   2.804   3.714
  862SOL    HW2 2607   0.385   2.713   3.584
  863SOL     OW 2608   1.540   2.136   1.987
  863SOL    HW1 2609   1.479   2.061   2.010
  863SOL    HW2 2610   1.562   2.188   2.070
  864SOL     OW 2611   1.303   2.700   1.904
  864SOL    HW1 2612   1.337   2.607   1.919
  864SOL    HW2 2613   1.321   2.727   1.809
  865SOL     OW 2614   1.068   3.195   2.711
  865SOL    HW1 2615   1.075   3.111   2.656
  865SOL    HW2 2616   1.130   3.264   2.675
  866SOL     OW 2617   0.319   2.672   2.811
  866SOL    HW1 2618   0.412   2.708   2.816
  866SOL    HW2 2619   0.313   2.587   2.863
  867SOL     OW 2620   0.339   2.371   2.868
  867SOL    HW1 2621   0.287   2.288   2.851
  867SOL    HW2 2622   0.416   2.376   2.804
  868SOL     OW 2623   1.138   2.242   3.540
  868SOL    HW1 2624   1.093   2.305   3.604
  868SOL    HW2 2625   1.231   2.273   3.523
  869SOL     OW 2626   1.160   2.069   3.339
  869SOL    HW1 2627   1.160   2.133   3.416
  869SOL    HW2 2628   1.188   2.117   3.256
  870SOL     OW 2629   0.008   3.188   2.062
  870SOL    HW1 2630  -0.085   3.209   2.031
  870SOL    HW2 2631   0.018   3.089   2.075
  871SOL     OW 2632   0.088   3.663   2.789
  871SOL    HW1 2633   0.046   3.577   2.762
  871SOL    HW2 2634   0.182   3.666   2.755
  872SOL     OW 2635   0.504   3.430   2.772
  872SOL    HW1 2636   0.570   3.504   2.781
  872SOL    HW2 2637   0.548   3.351   2.730
  873SOL     OW 2638   1.002   2.658   3.100
  873SOL    HW1 2639   1.043   2.626   3.186
  873SOL    HW2 2640   0.906   2.631   3.097
  874SOL     OW 2641   0.040   2.406   2.976
  874SOL    HW1 2642   0.125   2.373   2.935
  874SOL    HW2 2643   0.053   2.421   3.074
  875SOL     OW 2644   0.189   2.382   3.584
  875SOL    HW1 2645   0.248   2.342   3.514
  875SOL    HW2 2646   0.131   2.453   3.543
  876SOL     OW 2647   1.369   2.812   3.522
  876SOL    HW1 2648   1.408   2.901   3.542
  876SOL    HW2 2649   1.379   2.792   3.425
  877SOL     OW 2650   0.815   2.434   2.187
  877SOL    HW1 2651   0.822   2.345   2.141
  877SOL    HW2 2652   0.721   2.468   2.179
  878SOL     OW 2653   1.657   2.466   3.068
  878SOL    HW1 2654   1.619   2.397   3.130
  878SOL    HW2 2655   1.739   2.430   3.024
  879SOL     OW 2656   0.252   3.426   3.606
  879SOL    HW1 2657   0.222   3.483   3.682
  879SOL    HW2 2658   0.245   3.329   3.632
  880SOL     OW 2659   0.671   2.326   3.131
  880SOL    HW1 2660   0.637   2.237   3.101
  880SOL    HW2 2661   0.697   2.380   3.051
  881SOL     OW 2662   0.930   3.540   3.327
  881SOL    HW1 2663   0.906   3.522   3.232
  881SOL    HW2 2664   0.960   3.634   3.337
  882SOL     OW 2665   0.473   2.362   2.053
  882SOL    HW1 2666   0.534   2.442   2.057
  882SOL    HW2 2667   0.378   2.393   2.060
  883SOL     OW 2668   0.159   2.999   3.328
  883SOL    HW1 2669   0.181   2.938   3.404
  883SOL    HW2 2670   0.169   2.950   3.242
  884SOL     OW 2671   1.347   2.921   3.096
  884SOL    HW1 2672   1.371   2.858   3.022
  884SOL    HW2 2673   1.257   2.961   3.078
  885SOL     OW 2674   1.302   2.717   2.171
  885SOL    HW1 2675   1.216   2.686   2.213
  885SOL    HW2 2676   1.298   2.703   2.072
  886SOL     OW 2677   1.759   3.609   3.016
  886SOL    HW1 2678   1.820   3.639   2.943
  886SOL    HW2 2679   1.721   3.520   2.994
  887SOL     OW 2680   1.252   3.593   2.990
  887SOL    HW1 2681   1.336   3.598   2.936
  887SOL    HW2 2682   1.229   3.497   3.008
  888SOL     OW 2683   0.083   3.120   2.884
  888SOL    HW1 2684   0.078   3.119   2.984
  888SOL    HW2 2685   0.000   3.079   2.846
  889SOL     OW 2686   0.688   3.524   3.578
  889SOL    HW1 2687   0.632   3.605   3.587
  889SOL    HW2 2688   0.740   3.528   3.492
  890SOL     OW 2689   1.726   1.997   2.385
  890SOL    HW1 2690   1.799   1.980   2.318
  890SOL    HW2 2691   1.695   1.910   2.423
  891SOL     OW 2692   1.388   3.435   2.339
  891SOL    HW1 2693   1.455   3.447   2.265
  891SOL    HW2 2694   1.348   3.524   2.362
  892SOL     OW 2695   0.130   3.656   3.713
  892SOL    HW1 2696   0.089   3.582   3.766
  892SOL    HW2 2697   0.194   3.707   3.771
  893SOL     OW 2698   1.280   2.789   2.534
  893SOL    HW1 2699   1.340   2.708   2.536
  893SOL    HW2 2700   1.320   2.858   2.474
  894SOL     OW 2701   0.830   3.135   3.284
  894SOL    HW1 2702   0.825   3.168   3.379
  894SOL    HW2 2703   0.744   3.154   3.238
  895SOL     OW 2704   0.672   3.478   2.016
  895SOL    HW1 2705   0.681   3.488   1.917
  895SOL    HW2 2706   0.632   3.389   2.037
  896SOL     OW 2707   1.650   3.582   3.256
  896SOL    HW1 2708   1.703   3.592   3.172
  896SOL    HW2 2709   1.623   3.672   3.290
  897SOL     OW 2710   1.841   2.037   2.825
  897SOL    HW1 2711   1.880   1.952   2.789
  897SOL    HW2 2712   1.743   2.039   2.806
  898SOL     OW 2713   0.263   2.188   2.582
  898SOL    HW1 2714   0.184   2.239   2.548
  898SOL    HW2 2715   0.254   2.173   2.680
  899SOL     OW 2716   1.194   3.474   1.893
  899SOL    HW1 2717   1.200   3.381   1.930
  899SOL    HW2 2718   1.135   3.474   1.813
  900SOL     OW 2719   0.822   2.864   3.234
  900SOL    HW1 2720   0.862   2.863   3.142
  900SOL    HW2 2721   0.832   2.956   3.274
  901SOL     OW 2722   0.916   2.772   2.153
  901SOL    HW1 2723   0.979   2.810   2.085
  901SOL    HW2 2724   0.956   2.689   2.192
  902SOL     OW 2725   1.504   3.469   1.906
  902SOL    HW1 2726   1.412   3.506   1.913
  902SOL    HW2 2727   1.542   3.489   1.816
  903SOL     OW 2728   0.372   3.150   3.352
  903SOL    HW1 2729   0.359   3.243   3.318
  903SOL    HW2 2730   0.288   3.098   3.339
  904SOL     OW 2731   1.614   3.154   3.151
  904SOL    HW1 2732   1.674   3.157   3.231
  904SOL    HW2 2733   1.539   3.218   3.164
  905SOL     OW 2734   1.039   2.960   2.558
  905SOL    HW1 2735   0.969   2.913   2.612
  905SOL    HW2 2736   1.098   2.892   2.515
  906SOL     OW 2737   1.014   2.098   2.833
  906SOL    HW1 2738   1.006   2.062   2.740
  906SOL    HW2 2739   1.012   2.022   2.898
  907SOL     OW 2740   0.590   3.349   2.353
  907SOL    HW1 2741   0.632   3.291   2.283
  907SOL    HW2 2742   0.546   3.428   2.309
  908SOL     OW 2743   1.709   2.247   3.243
  908SOL    HW1 2744   1.782   2.316   3.247
  908SOL    HW2 2745   1.737   2.172   3.184
  909SOL     OW 2746   0.255   3.210   2.152
  909SOL    HW1 2747   0.159   3.211   2.125
  909SOL    HW2 2748   0.267   3.263   2.236
  910SOL     OW 2749   0.105   2.875   3.588
  910SOL    HW1 2750   0.028   2.842   3.642
  910SOL    HW2 2751   0.190   2.845   3.630
  911SOL     OW 2752   0.672   2.065   3.351
  911SOL    HW1 2753   0.762   2.049   3.311
  911SOL    HW2 2754   0.680   2.070   3.450
  912SOL     OW 2755   0.075   2.207   1.895
  912SOL    HW1 2756  -0.017   2.179   1.866
  912SOL    HW2 2757   0.106   2.284   1.839
  913SOL     OW 2758   1.440   2.718   3.260
  913SOL    HW1 2759   1.383   2.770   3.197
  913SOL    HW2 2760   1.536   2.730   3.236
  914SOL     OW 2761   0.072   2.028   2.180
  914SOL    HW1 2762   0.055   2.111   2.126
  914SOL    HW2 2763   0.162   1.991   2.158
  915SOL     OW 2764   1.183   3.197   1.981
  915SOL    HW1 2765   1.084   3.186   1.983
  915SOL    HW2 2766   1.217   3.212   2.074
  916SOL     OW 2767   0.613   2.704   3.293
  916SOL    HW1 2768   0.669   2.785   3.276
  916SOL    HW2 2769   0.672   2.624   3.296
  917SOL     OW 2770   1.493   3.629   2.821
  917SOL    HW1 2771   1.526   3.693   2.752
  917SOL    HW2 2772   1.559   3.623   2.896
  918SOL     OW 2773   0.716   2.427   3.570
  918SOL    HW1 2774   0.735   2.492   3.644
  918SOL    HW2 2775   0.776   2.347   3.579
  919SOL     OW 2776   1.450   3.082   3.495
  919SOL    HW1 2777   1.441   3.072   3.594
  919SOL    HW2 2778   1.546   3.075   3.469
  920SOL     OW 2779   0.390   3.603   3.422
  920SOL    HW1 2780   0.299   3.644   3.420
  920SOL    HW2 2781   0.383   3.509   3.454
  921SOL     OW 2782   1.674   2.745   3.116
  921SOL    HW1 2783   1.647   2.656   3.079
  921SOL    HW2 2784   1.675   2.813   3.043
  922SOL     OW 2785   1.225   2.187   2.311
  922SOL    HW1 2786   1.290   2.113   2.300
  922SOL    HW2 2787   1.245   2.237   2.395
  923SOL     OW 2788   0.594   2.607   2.514
  923SOL    HW1 2789   0.644   2.692   2.495
  923SOL    HW2 2790   0.506   2.609   2.466
  924SOL     OW 2791   1.777   2.204   3.504
  924SOL    HW1 2792   1.760   2.235   3.410
  924SOL    HW2 2793   1.693   2.167   3.542
  925SOL     OW 2794   1.730   2.796   3.379
  925SOL    HW1 2795   1.768   2.887   3.394
  925SOL    HW2 2796   1.722   2.779   3.280
  926SOL     OW 2797   0.859   3.236   1.878
  926SOL    HW1 2798   0.813   3.251   1.966
  926SOL    HW2 2799   0.903   3.321   1.848
  927SOL     OW 2800   0.661   3.652   2.815
  927SOL    HW1 2801   0.615   3.740   2.802
  927SOL    HW2 2802   0.760   3.664   2.808
  928SOL     OW 2803   0.859   2.818   2.723
  928SOL    HW1 2804   0.913   2.749   2.771
  928SOL    HW2 2805   0.827   2.887   2.789
  929SOL     OW 2806   1.083   2.846   1.949
  929SOL    HW1 2807   1.060   2.899   1.867
  929SOL    HW2 2808   1.164   2.790   1.930
  930SOL     OW 2809   1.861   3.431   2.713
  930SOL    HW1 2810   1.790   3.419   2.643
  930SOL    HW2 2811   1.862   3.352   2.773
  931SOL     OW 2812   0.221   3.176   3.706
  931SOL    HW1 2813   0.156   3.103   3.685
  931SOL    HW2 2814   0.225   3.190   3.804
  932SOL     OW 2815   0.079   3.102   2.515
  932SOL    HW1 2816   0.078   3.055   2.603
  932SOL    HW2 2817   0.161   3.074   2.464
  933SOL     OW 2818   0.672   3.253   3.486
  933SOL    HW1 2819   0.594   3.203   3.524
  933SOL    HW2 2820   0.669   3.348   3.517
  934SOL     OW 2821   1.824   2.054   3.089
  934SOL    HW1 2822   1.820   1.964   3.133
  934SOL    HW2 2823   1.827   2.043   2.990
  935SOL     OW 2824   0.428   2.286   2.382
  935SOL    HW1 2825   0.458   2.214   2.320
  935SOL    HW2 2826   0.389   2.246   2.465
  936SOL     OW 2827   1.705   3.349   2.966
  936SOL    HW1 2828   1.612   3.324   2.939
  936SOL    HW2 2829   1.731   3.299   3.048
  937SOL     OW 2830   0.317   2.409   3.142
  937SOL    HW1 2831   0.355   2.350   3.214
  937SOL    HW2 2832   0.357   2.383   3.054
  938SOL     OW 2833   0.812   3.448   2.549
  938SOL    HW1 2834   0.844   3.458   2.455
  938SOL    HW2 2835   0.733   3.386   2.551
  939SOL     OW 2836   1.424   2.076   2.974
  939SOL    HW1 2837   1.476   2.011   3.029
  939SOL    HW2 2838   1.375   2.139   3.035
  940SOL     OW 2839   1.001   1.896   3.016
  940SOL    HW1 2840   0.938   1.824   2.985
  940SOL    HW2 2841   1.094   1.860   3.016
  941SOL     OW 2842   0.770   3.192   2.163
  941SOL    HW1 2843   0.724   3.105   2.180
  941SOL    HW2 2844   0.861   3.189   2.204
  942SOL     OW 2845   0.618   3.429   3.146
  942SOL    HW1 2846   0.613   3.511   3.203
  942SOL    HW2 2847   0.707   3.426   3.101
  943SOL     OW 2848   1.352   1.914   2.030
  943SOL    HW1 2849   1.387   1.873   1.946
  943SOL    HW2 2850   1.262   1.876   2.050
  944SOL     OW 2851   1.300   2.315   2.553
  944SOL    HW1 2852   1.241   2.395   2.557
  944SOL    HW2 2853   1.315   2.280   2.646
  945SOL     OW 2854   1.593   2.083   2.744
  945SOL    HW1 2855   1.509   2.082   2.798
  945SOL    HW2 2856   1.595   2.166   2.688
  946SOL     OW 2857   0.039   2.939   2.162
  946SOL    HW1 2858   0.138   2.928   2.153
  946SOL    HW2 2859  -0.001   2.853   2.194
  947SOL     OW 2860   0.875   3.508   2.199
  947SOL    HW1 2861   0.798   3.473   2.145
  947SOL    HW2 2862   0.843   3.579   2.261
  948SOL     OW 2863   0.230   2.490   3.837
  948SOL    HW1 2864   0.137   2.488   3.874
  948SOL    HW2 2865   0.231   2.451   3.745
  949SOL     OW 2866   0.019   2.230   4.371
  949SOL    HW1 2867  -0.063   2.273   4.410
  949SOL    HW2 2868  -0.009   2.157   4.308
  950SOL     OW 2869   1.555   3.373   4.427
  950SOL    HW1 2870   1.498   3.357   4.508
  950SOL    HW2 2871   1.496   3.383   4.347
  951SOL     OW 2872   1.135   2.565   4.441
  951SOL    HW1 2873   1.192   2.643   4.416
  951SOL    HW2 2874   1.075   2.591   4.517
  952SOL     OW 2875   1.755   2.469   3.955
  952SOL    HW1 2876   1.743   2.456   3.856
  952SOL    HW2 2877   1.725   2.388   4.004
  953SOL     OW 2878   0.768   3.006   4.747
  953SOL    HW1 2879   0.690   3.023   4.807
  953SOL    HW2 2880   0.802   3.093   4.711
  954SOL     OW 2881   0.685   2.874   4.389
  954SOL    HW1 2882   0.754   2.858   4.459
  954SOL    HW2 2883   0.612   2.931   4.427
  955SOL     OW 2884   1.603   2.309   4.461
  955SOL    HW1 2885   1.529   2.355   4.411
  955SOL    HW2 2886   1.654   2.377   4.514
  956SOL     OW 2887   0.231   3.575   4.207
  956SOL    HW1 2888   0.265   3.652   4.261
  956SOL    HW2 2889   0.275   3.575   4.117
  957SOL     OW 2890   0.230   3.296   4.262
  957SOL    HW1 2891   0.204   3.392   4.262
  957SOL    HW2 2892   0.159   3.242   4.307
  958SOL     OW 2893   0.240   2.953   4.610
  958SOL    HW1 2894   0.254   2.869   4.662
  958SOL    HW2 2895   0.185   3.017   4.665
  959SOL     OW 2896   0.606   2.826   3.847
  959SOL    HW1 2897   0.613   2.910   3.793
  959SOL    HW2 2898   0.652   2.839   3.935
  960SOL     OW 2899   0.122   2.505   4.287
  960SOL    HW1 2900   0.077   2.417   4.304
  960SOL    HW2 2901   0.121   2.559   4.371
  961SOL     OW 2902   1.842   3.629   4.083
  961SOL    HW1 2903   1.896   3.600   4.163
  961SOL    HW2 2904   1.872   3.719   4.054
  962SOL     OW 2905   0.027   3.458   3.841
  962SOL    HW1 2906   0.008   3.362   3.862
  962SOL    HW2 2907  -0.006   3.516   3.916
  963SOL     OW 2908   1.689   2.784   4.336
  963SOL    HW1 2909   1.784   2.755   4.344
  963SOL    HW2 2910   1.681   2.849   4.261
  964SOL     OW 2911   1.641   2.970   4.156
  964SOL    HW1 2912   1.727   2.972   4.104
  964SOL    HW2 2913   1.655   3.017   4.244
  965SOL     OW 2914   0.613   3.227   4.450
  965SOL    HW1 2915   0.564   3.140   4.459
  965SOL    HW2 2916   0.590   3.270   4.363
  966SOL     OW 2917   0.809   1.866   4.226
  966SOL    HW1 2918   0.849   1.957   4.217
  966SOL    HW2 2919   0.709   1.874   4.232
  967SOL     OW 2920   1.525   2.861   3.914
  967SOL    HW1 2921   1.462   2.785   3.927
  967SOL    HW2 2922   1.573   2.879   4.000
  968SOL     OW 2923   1.667   3.576   4.296
  968SOL    HW1 2924   1.626   3.553   4.208
  968SOL    HW2 2925   1.649   3.502   4.361
  969SOL     OW 2926   0.598   2.591   3.994
  969SOL    HW1 2927   0.622   2.660   3.926
  969SOL    HW2 2928   0.520   2.624   4.048
  970SOL     OW 2929   1.281   2.207   4.668
  970SOL    HW1 2930   1.195   2.157   4.655
  970SOL    HW2 2931   1.343   2.153   4.724
  971SOL     OW 2932   1.576   3.524   4.031
  971SOL    HW1 2933   1.665   3.570   4.034
  971SOL    HW2 2934   1.555   3.500   3.936
  972SOL     OW 2935   1.041   2.563   4.153
  972SOL    HW1 2936   1.067   2.559   4.249
  972SOL    HW2 2937   0.956   2.512   4.139
  973SOL     OW 2938   0.076   2.673   4.513
  973SOL    HW1 2939   0.175   2.661   4.522
  973SOL    HW2 2940   0.052   2.768   4.534
  974SOL     OW 2941   0.865   2.210   3.919
  974SOL    HW1 2942   0.924   2.273   3.870
  974SOL    HW2 2943   0.884   2.116   3.890
  975SOL     OW 2944   1.362   3.006   4.269
  975SOL    HW1 2945   1.445   2.977   4.221
  975SOL    HW2 2946   1.313   3.073   4.213
  976SOL     OW 2947   0.550   2.058   4.609
  976SOL    HW1 2948   0.545   2.053   4.709
  976SOL    HW2 2949   0.552   2.154   4.580
  977SOL     OW 2950   1.008   3.318   4.201
  977SOL    HW1 2951   0.962   3.390   4.149
  977SOL    HW2 2952   1.004   3.338   4.299
  978SOL     OW 2953   0.351   3.663   4.577
  978SOL    HW1 2954   0.401   3.577   4.583
  978SOL    HW2 2955   0.416   3.740   4.574
  979SOL     OW 2956   1.795   2.928   4.597
  979SOL    HW1 2957   1.733   2.913   4.521
  979SOL    HW2 2958   1.743   2.939   4.682
  980SOL     OW 2959   0.321   2.805   3.966
  980SOL    HW1 2960   0.403   2.844   3.924
  980SOL    HW2 2961   0.294   2.723   3.917
  981SOL     OW 2962   1.458   2.597   4.452
  981SOL    HW1 2963   1.453   2.532   4.527
  981SOL    HW2 2964   1.538   2.656   4.465
  982SOL     OW 2965   1.111   3.638   3.961
  982SOL    HW1 2966   1.051   3.576   4.011
  982SOL    HW2 2967   1.142   3.594   3.876
  983SOL     OW 2968   1.632   3.239   3.805
  983SOL    HW1 2969   1.600   3.333   3.795
  983SOL    HW2 2970   1.556   3.176   3.793
  984SOL     OW 2971   0.464   3.605   4.047
  984SOL    HW1 2972   0.497   3.644   4.133
  984SOL    HW2 2973   0.540   3.598   3.982
  985SOL     OW 2974   1.400   1.969   4.150
  985SOL    HW1 2975   1.376   1.932   4.060
  985SOL    HW2 2976   1.499   1.985   4.154
  986SOL     OW 2977   0.940   3.560   4.628
  986SOL    HW1 2978   1.020   3.503   4.649
  986SOL    HW2 2979   0.891   3.520   4.551
  987SOL     OW 2980   0.382   2.562   4.204
  987SOL    HW1 2981   0.427   2.472   4.201
  987SOL    HW2 2982   0.288   2.551   4.237
  988SOL     OW 2983   0.614   1.984   3.841
  988SOL    HW1 2984   0.712   1.962   3.848
  988SOL    HW2 2985   0.583   1.967   3.748
  989SOL     OW 2986   0.539   1.926   4.236
  989SOL    HW1 2987   0.458   1.927   4.294
  989SOL    HW2 2988   0.542   2.009   4.181
  990SOL     OW 2989   1.434   3.050   3.765
  990SOL    HW1 2990   1.466   2.974   3.822
  990SOL    HW2 2991   1.342   3.077   3.795
  991SOL     OW 2992   0.297   1.897   3.895
  991SOL    HW1 2993   0.346   1.981   3.874
  991SOL    HW2 2994   0.359   1.832   3.940
  992SOL     OW 2995   0.935   2.098   4.204
  992SOL    HW1 2996   0.887   2.139   4.126
  992SOL    HW2 2997   1.034   2.096   4.185
  993SOL     OW 2998   0.459   3.014   4.465
  993SOL    HW1 2999   0.388   2.987   4.530
  993SOL    HW2 3000   0.433   2.986   4.372
  994SOL     OW 3001   1.271   3.659   4.315
  994SOL    HW1 3002   1.315   3.723   4.251
  994SOL    HW2 3003   1.221   3.711   4.385
  995SOL     OW 3004   1.032   2.411   3.740
  995SOL    HW1 3005   0.991   2.493   3.701
  995SOL    HW2 3006   1.096   2.437   3.813
  996SOL     OW 3007   0.866   2.316   4.366
  996SOL    HW1 3008   0.834   2.388   4.304
  996SOL    HW2 3009   0.890   2.235   4.313
  997SOL     OW 3010   1.017   1.901   4.477
  997SOL    HW1 3011   0.945   1.906   4.408
  997SOL    HW2 3012   0.993   1.832   4.546
  998SOL     OW 3013   1.857   2.695   4.101
  998SOL    HW1 3014   1.899   2.631   4.165
  998SOL    HW2 3015   1.819   2.644   4.023
  999SOL     OW 3016   0.488   3.247   3.898
  999SOL    HW1 3017   0.401   3.232   3.945
  999SOL    HW2 3018   0.471   3.273   3.803
 1000SOL     OW 3019   1.664   3.142   4.381
 1000SOL    HW1 3020   1.763   3.150   4.395
 1000SOL    HW2 3021   1.619   3.226   4.412
 1001SOL     OW 3022   1.390   2.437   3.802
 1001SOL    HW1 3023   1.336   2.416   3.883
 1001SOL    HW2 3024   1.481   2.396   3.811
 1002SOL     OW 3025   0.527   2.118   4.052
 1002SOL    HW1 3026   0.554   2.059   3.977
 1002SOL    HW2 3027   0.527   2.213   4.021
 1003SOL     OW 3028   0.705   2.912   4.092
 1003SOL    HW1 3029   0.691   2.919   4.191
 1003SOL    HW2 3030   0.789   2.861   4.074
 1004SOL     OW 3031   0.367   2.962   4.225
 1004SOL    HW1 3032   0.360   3.045   4.169
 1004SOL    HW2 3033   0.371   2.882   4.165
 1005SOL     OW 3034   0.566   2.399   4.589
 1005SOL    HW1 3035   0.578   2.465   4.515
 1005SOL    HW2 3036   0.612   2.433   4.672
 1006SOL     OW 3037   1.252   3.210   4.112
 1006SOL    HW1 3038   1.302   3.287   4.152
 1006SOL    HW2 3039   1.157   3.212   4.144
 1007SOL     OW 3040   1.582   2.501   4.196
 1007SOL    HW1 3041   1.551   2.562   4.269
 1007SOL    HW2 3042   1.632   2.553   4.127
 1008SOL     OW 3043   1.209   2.387   3.999
 1008SOL    HW1 3044   1.222   2.303   4.053
 1008SOL    HW2 3045   1.180   2.461   4.059
 1009SOL     OW 3046   0.307   1.925   4.342
 1009SOL    HW1 3047   0.296   2.019   4.375
 1009SOL    HW2 3048   0.302   1.862   4.419
 1010SOL     OW 3049   1.622   2.229   4.098
 1010SOL    HW1 3050   1.624   2.153   4.162
 1010SOL    HW2 3051   1.574   2.306   4.138
 1011SOL     OW 3052   1.540   2.136   3.849
 1011SOL    HW1 3053   1.479   2.061   3.872
 1011SOL    HW2 3054   1.562   2.188   3.932
 1012SOL     OW 3055   1.303   2.700   3.766
 1012SOL    HW1 3056   1.337   2.607   3.781
 1012SOL    HW2 3057   1.321   2.727   3.671
 1013SOL     OW 3058   0.008   3.188   3.924
 1013SOL    HW1 3059  -0.085   3.209   3.893
 1013SOL    HW2 3060   0.018   3.089   3.937
 1014SOL     OW 3061   0.815   2.434   4.049
 1014SOL    HW1 3062   0.822   2.345   4.003
 1014SOL    HW2 3063   0.721   2.468   4.041
 1015SOL     OW 3064   0.473   2.362   3.915
 1015SOL    HW1 3065   0.534   2.442   3.919
 1015SOL    HW2 3066   0.378   2.393   3.922
 1016SOL     OW 3067   1.302   2.717   4.033
 1016SOL    HW1 3068   1.216   2.686   4.075
 1016SOL    HW2 3069   1.298   2.703   3.934
 1017SOL     OW 3070   1.726   1.997   4.247
 1017SOL    HW1 3071   1.799   1.980   4.180
 1017SOL    HW2 3072   1.695   1.910   4.285
 1018SOL     OW 3073   1.388   3.435   4.201
 1018SOL    HW1 3074   1.455   3.447   4.127
 1018SOL    HW2 3075   1.348   3.524   4.224
 1019SOL     OW 3076   1.280   2.789   4.396
 1019SOL    HW1 3077   1.340   2.708   4.398
 1019SOL    HW2 3078   1.320   2.858   4.336
 1020SOL     OW 3079   0.672   3.478   3.878
 1020SOL    HW1 3080   0.681   3.488   3.779
 1020SOL    HW2 3081   0.632   3.389   3.899
 1021SOL     OW 3082   1.841   2.037   4.687
 1021SOL    HW1 3083   1.880   1.952   4.651
 1021SOL    HW2 3084   1.743   2.039   4.668
 1022SOL     OW 3085   0.263   2.188   4.444
 1022SOL    HW1 3086   0.184   2.239   4.410
 1022SOL    HW2 3087   0.254   2.173   4.542
 1023SOL     OW 3088   1.194   3.474   3.755
 1023SOL    HW1 3089   1.200   3.381   3.792
 1023SOL    HW2 3090   1.135   3.474   3.675
 1024SOL     OW 3091   0.916   2.772   4.015
 1024SOL    HW1 3092   0.979   2.810   3.947
 1024SOL    HW2 3093   0.956   2.689   4.054
 1025SOL     OW 3094   1.504   3.469   3.768
 1025SOL    HW1 3095   1.412   3.506   3.775
 1025SOL    HW2 3096   1.542   3.489   3.678
 1026SOL     OW 3097   1.039   2.960   4.420
 1026SOL    HW1 3098   0.969   2.913   4.474
 1026SOL    HW2 3099   1.098   2.892   4.377
 1027SOL     OW 3100   0.590   3.349   4.215
 1027SOL    HW1 3101   0.632   3.291   4.145
 1027SOL    HW2 3102   0.546   3.428   4.171
 1028SOL     OW 3103   0.255   3.210   4.014
 1028SOL    HW1 3104   0.159   3.211   3.987
 1028SOL    HW2 3105   0.267   3.263   4.098
 1029SOL     OW 3106   0.075   2.207   3.757
 1029SOL    HW1 3107  -0.017   2.179   3.728
 1029SOL    HW2 3108   0.106   2.284   3.701
 1030SOL     OW 3109   0.072   2.028   4.042
 1030SOL    HW1 3110   0.055   2.111   3.988
 1030SOL    HW2 3111   0.162   1.991   4.020
 1031SOL     OW 3112   1.183   3.197   3.843
 1031SOL    HW1 3113   1.084   3.186   3.845
 1031SOL    HW2 3114   1.217   3.212   3.936
 1032SOL     OW 3115   1.225   2.187   4.173
 1032SOL    HW1 3116   1.290   2.113   4.162
 1032SOL    HW2 3117   1.245   2.237   4.257
 1033SOL     OW 3118   0.594   2.607   4.376
 1033SOL    HW1 3119   0.644   2.692   4.357
 1033SOL    HW2 3120   0.506   2.609   4.328
 1034SOL     OW 3121   0.859   3.236   3.740
 1034SOL    HW1 3122   0.813   3.251   3.828
 1034SOL    HW2 3123   0.903   3.321   3.710
 1035SOL     OW 3124   0.661   3.652   4.677
 1035SOL    HW1 3125   0.615   3.740   4.664
 1035SOL    HW2 3126   0.760   3.664   4.670
 1036SOL     OW 3127   0.859   2.818   4.585
 1036SOL    HW1 3128   0.913   2.749   4.633
 1036SOL    HW2 3129   0.827   2.887   4.651
 1037SOL     OW 3130   1.083   2.846   3.811
 1037SOL    HW1 3131   1.060   2.899   3.729
 1037SOL    HW2 3132   1.164   2.790   3.792
 1038SOL     OW 3133   0.079   3.102   4.377
 1038SOL    HW1 3134   0.078   3.055   4.465
 1038SOL    HW2 3135   0.161   3.074   4.326
 1039SOL     OW 3136   0.428   2.286   4.244
 1039SOL    HW1 3137   0.458   2.214   4.182
 1039SOL    HW2 3138   0.389   2.246   4.327
 1040SOL     OW 3139   0.812   3.448   4.411
 1040SOL    HW1 3140   0.844   3.458   4.317
 1040SOL    HW2 3141   0.733   3.386   4.413
 1041SOL     OW 3142   0.770   3.192   4.025
 1041SOL    HW1 3143   0.724   3.105   4.042
 1041SOL    HW2 3144   0.861   3.189   4.066
 1042SOL     OW 3145   1.352   1.914   3.892
 1042SOL    HW1 3146   1.387   1.873   3.808
 1042SOL    HW2 3147   1.262   1.876   3.912
 1043SOL     OW 3148   1.300   2.315   4.415
 1043SOL    HW1 3149   1.241   2.395   4.419
 1043SOL    HW2 3150   1.315   2.280   4.508
 1044SOL     OW 3151   0.039   2.939   4.024
 1044SOL    HW1 3152   0.138   2.928   4.015
 1044SOL    HW2 3153  -0.001   2.853   4.056
 1045SOL     OW 3154   0.875   3.508   4.061
 1045SOL    HW1 3155   0.798   3.473   4.007
 1045SOL    HW2 3156   0.843   3.579   4.123
 1046SOL     OW 3157   0.230   4.352   0.113
 1046SOL    HW1 3158   0.137   4.350   0.150
 1046SOL    HW2 3159   0.231   4.313   0.021
 1047SOL     OW 3160   0.225   3.999   0.996
 1047SOL    HW1 3161   0.260   3.982   1.088
 1047SOL    HW2 3162   0.137   3.954   0.984
 1048SOL     OW 3163   0.019   4.092   0.647
 1048SOL    HW1 3164  -0.063   4.135   0.686
 1048SOL    HW2 3165  -0.009   4.019   0.584
 1049SOL     OW 3166   1.135   4.427   0.717
 1049SOL    HW1 3167   1.192   4.505   0.692
 1049SOL    HW2 3168   1.075   4.453   0.793
 1050SOL     OW 3169   1.755   4.331   0.231
 1050SOL    HW1 3170   1.743   4.318   0.132
 1050SOL    HW2 3171   1.725   4.250   0.280
 1051SOL     OW 3172   0.850   4.522   1.823
 1051SOL    HW1 3173   0.846   4.598   1.888
 1051SOL    HW2 3174   0.872   4.558   1.732
 1052SOL     OW 3175   0.685   4.736   0.665
 1052SOL    HW1 3176   0.754   4.720   0.735
 1052SOL    HW2 3177   0.612   4.793   0.703
 1053SOL     OW 3178   0.438   4.116   1.499
 1053SOL    HW1 3179   0.520   4.060   1.508
 1053SOL    HW2 3180   0.357   4.058   1.503
 1054SOL     OW 3181   1.603   4.171   0.737
 1054SOL    HW1 3182   1.529   4.217   0.687
 1054SOL    HW2 3183   1.654   4.239   0.790
 1055SOL     OW 3184   1.594   3.838   1.480
 1055SOL    HW1 3185   1.576   3.905   1.408
 1055SOL    HW2 3186   1.591   3.884   1.569
 1056SOL     OW 3187   0.122   4.367   0.563
 1056SOL    HW1 3188   0.077   4.279   0.580
 1056SOL    HW2 3189   0.121   4.421   0.647
 1057SOL     OW 3190   0.113   4.461   1.597
 1057SOL    HW1 3191   0.201   4.448   1.642
 1057SOL    HW2 3192   0.100   4.558   1.575
 1058SOL     OW 3193   0.809   3.728   0.502
 1058SOL    HW1 3194   0.849   3.819   0.493
 1058SOL    HW2 3195   0.709   3.736   0.508
 1059SOL     OW 3196   0.317   3.975   1.801
 1059SOL    HW1 3197   0.388   4.046   1.807
 1059SOL    HW2 3198   0.229   4.014   1.829
 1060SOL     OW 3199   0.598   4.453   0.270
 1060SOL    HW1 3200   0.622   4.522   0.202
 1060SOL    HW2 3201   0.520   4.486   0.324
 1061SOL     OW 3202   1.281   4.069   0.944
 1061SOL    HW1 3203   1.195   4.019   0.931
 1061SOL    HW2 3204   1.343   4.015   1.000
 1062SOL     OW 3205   0.807   4.329   1.465
 1062SOL    HW1 3206   0.760   4.326   1.554
 1062SOL    HW2 3207   0.756   4.274   1.399
 1063SOL     OW 3208   1.394   4.193   1.674
 1063SOL    HW1 3209   1.374   4.236   1.762
 1063SOL    HW2 3210   1.472   4.131   1.683
 1064SOL     OW 3211   0.991   4.134   1.242
 1064SOL    HW1 3212   0.914   4.168   1.296
 1064SOL    HW2 3213   0.957   4.083   1.163
 1065SOL     OW 3214   1.041   4.425   0.429
 1065SOL    HW1 3215   1.067   4.421   0.525
 1065SOL    HW2 3216   0.956   4.374   0.415
 1066SOL     OW 3217   0.076   4.535   0.789
 1066SOL    HW1 3218   0.175   4.523   0.798
 1066SOL    HW2 3219   0.052   4.630   0.810
 1067SOL     OW 3220   0.865   4.072   0.195
 1067SOL    HW1 3221   0.924   4.135   0.146
 1067SOL    HW2 3222   0.884   3.978   0.166
 1068SOL     OW 3223   1.719   4.309   1.831
 1068SOL    HW1 3224   1.693   4.398   1.795
 1068SOL    HW2 3225   1.717   4.241   1.758
 1069SOL     OW 3226   0.550   3.920   0.885
 1069SOL    HW1 3227   0.545   3.915   0.985
 1069SOL    HW2 3228   0.552   4.016   0.856
 1070SOL     OW 3229   1.458   4.459   0.728
 1070SOL    HW1 3230   1.453   4.394   0.803
 1070SOL    HW2 3231   1.538   4.518   0.741
 1071SOL     OW 3232   0.202   4.009   1.498
 1071SOL    HW1 3233   0.122   4.069   1.485
 1071SOL    HW2 3234   0.192   3.960   1.584
 1072SOL     OW 3235   1.400   3.831   0.426
 1072SOL    HW1 3236   1.376   3.794   0.336
 1072SOL    HW2 3237   1.499   3.847   0.430
 1073SOL     OW 3238   0.382   4.424   0.480
 1073SOL    HW1 3239   0.427   4.334   0.477
 1073SOL    HW2 3240   0.288   4.413   0.513
 1074SOL     OW 3241   1.547   3.946   1.729
 1074SOL    HW1 3242   1.542   3.983   1.821
 1074SOL    HW2 3243   1.475   3.877   1.717
 1075SOL     OW 3244   0.781   3.988   1.749
 1075SOL    HW1 3245   0.848   3.927   1.792
 1075SOL    HW2 3246   0.708   4.007   1.814
 1076SOL     OW 3247   1.351   4.314   1.433
 1076SOL    HW1 3248   1.379   4.271   1.518
 1076SOL    HW2 3249   1.376   4.410   1.434
 1077SOL     OW 3250   0.922   4.227   0.899
 1077SOL    HW1 3251   0.897   4.218   0.803
 1077SOL    HW2 3252   0.970   4.145   0.930
 1078SOL     OW 3253   0.539   3.788   0.512
 1078SOL    HW1 3254   0.458   3.789   0.570
 1078SOL    HW2 3255   0.542   3.871   0.457
 1079SOL     OW 3256   0.297   3.759   0.171
 1079SOL    HW1 3257   0.346   3.843   0.150
 1079SOL    HW2 3258   0.359   3.694   0.216
 1080SOL     OW 3259   0.935   3.960   0.480
 1080SOL    HW1 3260   0.887   4.001   0.402
 1080SOL    HW2 3261   1.034   3.958   0.461
 1081SOL     OW 3262   1.076   4.407   1.464
 1081SOL    HW1 3263   0.996   4.346   1.467
 1081SOL    HW2 3264   1.157   4.354   1.440
 1082SOL     OW 3265   1.032   4.273   0.016
 1082SOL    HW1 3266   0.991   4.355  -0.023
 1082SOL    HW2 3267   1.096   4.299   0.089
 1083SOL     OW 3268   0.078   4.280   1.386
 1083SOL    HW1 3269   0.170   4.279   1.345
 1083SOL    HW2 3270   0.072   4.354   1.453
 1084SOL     OW 3271   0.561   3.946   1.147
 1084SOL    HW1 3272   0.599   3.862   1.184
 1084SOL    HW2 3273   0.473   3.965   1.191
 1085SOL     OW 3274   0.866   4.178   0.642
 1085SOL    HW1 3275   0.834   4.250   0.580
 1085SOL    HW2 3276   0.890   4.097   0.589
 1086SOL     OW 3277   1.017   3.763   0.753
 1086SOL    HW1 3278   0.945   3.768   0.684
 1086SOL    HW2 3279   0.993   3.694   0.822
 1087SOL     OW 3280   1.466   4.314   0.992
 1087SOL    HW1 3281   1.436   4.219   0.999
 1087SOL    HW2 3282   1.539   4.330   1.058
 1088SOL     OW 3283   1.857   4.557   0.377
 1088SOL    HW1 3284   1.899   4.493   0.441
 1088SOL    HW2 3285   1.819   4.506   0.299
 1089SOL     OW 3286   1.390   4.299   0.078
 1089SOL    HW1 3287   1.336   4.278   0.159
 1089SOL    HW2 3288   1.481   4.258   0.087
 1090SOL     OW 3289   0.527   3.980   0.328
 1090SOL    HW1 3290   0.554   3.921   0.253
 1090SOL    HW2 3291   0.527   4.075   0.297
 1091SOL     OW 3292   0.915   3.813   1.402
 1091SOL    HW1 3293   0.940   3.793   1.307
 1091SOL    HW2 3294   0.987   3.869   1.444
 1092SOL     OW 3295   0.705   4.774   0.368
 1092SOL    HW1 3296   0.691   4.781   0.467
 1092SOL    HW2 3297   0.789   4.723   0.350
 1093SOL     OW 3298   0.410   4.537   1.251
 1093SOL    HW1 3299   0.496   4.549   1.301
 1093SOL    HW2 3300   0.368   4.450   1.278
 1094SOL     OW 3301   1.274   4.110   1.262
 1094SOL    HW1 3302   1.295   4.184   1.326
 1094SOL    HW2 3303   1.185   4.127   1.219
 1095SOL     OW 3304   0.566   4.261   0.865
 1095SOL    HW1 3305   0.578   4.327   0.791
 1095SOL    HW2 3306   0.612   4.295   0.948
 1096SOL     OW 3307   1.582   4.363   0.472
 1096SOL    HW1 3308   1.551   4.424   0.545
 1096SOL    HW2 3309   1.632   4.415   0.403
 1097SOL     OW 3310   1.587   4.503   1.670
 1097SOL    HW1 3311   1.495   4.541   1.665
 1097SOL    HW2 3312   1.647   4.550   1.605
 1098SOL     OW 3313   1.013   3.829   1.770
 1098SOL    HW1 3314   1.019   3.914   1.718
 1098SOL    HW2 3315   1.045   3.753   1.713
 1099SOL     OW 3316   0.504   3.774   1.740
 1099SOL    HW1 3317   0.462   3.717   1.670
 1099SOL    HW2 3318   0.438   3.843   1.772
 1100SOL     OW 3319   1.360   4.586   1.045
 1100SOL    HW1 3320   1.285   4.586   0.979
 1100SOL    HW2 3321   1.397   4.494   1.054
 1101SOL     OW 3322   1.209   4.249   0.275
 1101SOL    HW1 3323   1.222   4.165   0.329
 1101SOL    HW2 3324   1.180   4.323   0.335
 1102SOL     OW 3325   0.307   3.937   1.231
 1102SOL    HW1 3326   0.284   3.974   1.321
 1102SOL    HW2 3327   0.277   3.842   1.225
 1103SOL     OW 3328   0.732   4.358   1.064
 1103SOL    HW1 3329   0.791   4.332   0.988
 1103SOL    HW2 3330   0.704   4.454   1.053
 1104SOL     OW 3331   1.728   4.659   1.854
 1104SOL    HW1 3332   1.682   4.652   1.765
 1104SOL    HW2 3333   1.666   4.703   1.920
 1105SOL     OW 3334   0.307   3.787   0.618
 1105SOL    HW1 3335   0.296   3.881   0.651
 1105SOL    HW2 3336   0.302   3.724   0.695
 1106SOL     OW 3337   1.622   4.091   0.374
 1106SOL    HW1 3338   1.624   4.015   0.438
 1106SOL    HW2 3339   1.574   4.168   0.414
 1107SOL     OW 3340   1.540   3.998   0.125
 1107SOL    HW1 3341   1.479   3.923   0.148
 1107SOL    HW2 3342   1.562   4.050   0.208
 1108SOL     OW 3343   0.319   4.534   0.949
 1108SOL    HW1 3344   0.412   4.570   0.954
 1108SOL    HW2 3345   0.313   4.449   1.001
 1109SOL     OW 3346   0.339   4.233   1.006
 1109SOL    HW1 3347   0.287   4.150   0.989
 1109SOL    HW2 3348   0.416   4.238   0.942
 1110SOL     OW 3349   1.138   4.104   1.678
 1110SOL    HW1 3350   1.093   4.167   1.742
 1110SOL    HW2 3351   1.231   4.135   1.661
 1111SOL     OW 3352   1.160   3.931   1.477
 1111SOL    HW1 3353   1.160   3.995   1.554
 1111SOL    HW2 3354   1.188   3.979   1.394
 1112SOL     OW 3355   0.040   4.268   1.114
 1112SOL    HW1 3356   0.125   4.235   1.073
 1112SOL    HW2 3357   0.053   4.283   1.212
 1113SOL     OW 3358   0.189   4.244   1.722
 1113SOL    HW1 3359   0.248   4.204   1.652
 1113SOL    HW2 3360   0.131   4.315   1.681
 1114SOL     OW 3361   0.815   4.296   0.325
 1114SOL    HW1 3362   0.822   4.207   0.279
 1114SOL    HW2 3363   0.721   4.330   0.317
 1115SOL     OW 3364   1.657   4.328   1.206
 1115SOL    HW1 3365   1.619   4.259   1.268
 1115SOL    HW2 3366   1.739   4.292   1.162
 1116SOL     OW 3367   0.671   4.188   1.269
 1116SOL    HW1 3368   0.637   4.099   1.239
 1116SOL    HW2 3369   0.697   4.242   1.189
 1117SOL     OW 3370   0.473   4.224   0.191
 1117SOL    HW1 3371   0.534   4.304   0.195
 1117SOL    HW2 3372   0.378   4.255   0.198
 1118SOL     OW 3373   0.903   3.810   0.133
 1118SOL    HW1 3374   0.954   3.811   0.047
 1118SOL    HW2 3375   0.959   3.768   0.204
 1119SOL     OW 3376   1.726   3.859   0.523
 1119SOL    HW1 3377   1.799   3.842   0.456
 1119SOL    HW2 3378   1.695   3.772   0.561
 1120SOL     OW 3379   1.280   4.651   0.672
 1120SOL    HW1 3380   1.340   4.570   0.674
 1120SOL    HW2 3381   1.320   4.720   0.612
 1121SOL     OW 3382   1.841   3.899   0.963
 1121SOL    HW1 3383   1.880   3.814   0.927
 1121SOL    HW2 3384   1.743   3.901   0.944
 1122SOL     OW 3385   0.263   4.050   0.720
 1122SOL    HW1 3386   0.184   4.101   0.686
 1122SOL    HW2 3387   0.254   4.035   0.818
 1123SOL     OW 3388   1.014   3.960   0.971
 1123SOL    HW1 3389   1.006   3.924   0.878
 1123SOL    HW2 3390   1.012   3.884   1.036
 1124SOL     OW 3391   1.709   4.109   1.381
 1124SOL    HW1 3392   1.782   4.178   1.385
 1124SOL    HW2 3393   1.737   4.034   1.322
 1125SOL     OW 3394   0.105   4.737   1.726
 1125SOL    HW1 3395   0.028   4.704   1.780
 1125SOL    HW2 3396   0.190   4.707   1.768
 1126SOL     OW 3397   0.672   3.927   1.489
 1126SOL    HW1 3398   0.762   3.911   1.449
 1126SOL    HW2 3399   0.680   3.932   1.588
 1127SOL     OW 3400   0.075   4.069   0.033
 1127SOL    HW1 3401  -0.017   4.041   0.004
 1127SOL    HW2 3402   0.106   4.146  -0.023
 1128SOL     OW 3403   1.440   4.580   1.398
 1128SOL    HW1 3404   1.383   4.632   1.335
 1128SOL    HW2 3405   1.536   4.592   1.374
 1129SOL     OW 3406   0.072   3.890   0.318
 1129SOL    HW1 3407   0.055   3.973   0.264
 1129SOL    HW2 3408   0.162   3.853   0.296
 1130SOL     OW 3409   0.613   4.566   1.431
 1130SOL    HW1 3410   0.669   4.647   1.414
 1130SOL    HW2 3411   0.672   4.486   1.434
 1131SOL     OW 3412   0.716   4.289   1.708
 1131SOL    HW1 3413   0.735   4.354   1.782
 1131SOL    HW2 3414   0.776   4.209   1.717
 1132SOL     OW 3415   1.674   4.607   1.254
 1132SOL    HW1 3416   1.647   4.518   1.217
 1132SOL    HW2 3417   1.675   4.675   1.181
 1133SOL     OW 3418   1.225   4.049   0.449
 1133SOL    HW1 3419   1.290   3.975   0.438
 1133SOL    HW2 3420   1.245   4.099   0.533
 1134SOL     OW 3421   0.594   4.469   0.652
 1134SOL    HW1 3422   0.644   4.554   0.633
 1134SOL    HW2 3423   0.506   4.471   0.604
 1135SOL     OW 3424   1.777   4.066   1.642
 1135SOL    HW1 3425   1.760   4.097   1.548
 1135SOL    HW2 3426   1.693   4.029   1.680
 1136SOL     OW 3427   1.824   3.916   1.227
 1136SOL    HW1 3428   1.820   3.826   1.271
 1136SOL    HW2 3429   1.827   3.905   1.128
 1137SOL     OW 3430   0.428   4.148   0.520
 1137SOL    HW1 3431   0.458   4.076   0.458
 1137SOL    HW2 3432   0.389   4.108   0.603
 1138SOL     OW 3433   0.317   4.271   1.280
 1138SOL    HW1 3434   0.355   4.212   1.352
 1138SOL    HW2 3435   0.357   4.245   1.192
 1139SOL     OW 3436   1.424   3.938   1.112
 1139SOL    HW1 3437   1.476   3.873   1.167
 1139SOL    HW2 3438   1.375   4.001   1.173
 1140SOL     OW 3439   1.001   3.758   1.154
 1140SOL    HW1 3440   0.938   3.686   1.123
 1140SOL    HW2 3441   1.094   3.722   1.154
 1141SOL     OW 3442   1.352   3.776   0.168
 1141SOL    HW1 3443   1.387   3.735   0.084
 1141SOL    HW2 3444   1.262   3.738   0.188
 1142SOL     OW 3445   1.300   4.177   0.691
 1142SOL    HW1 3446   1.241   4.257   0.695
 1142SOL    HW2 3447   1.315   4.142   0.784
 1143SOL     OW 3448   1.593   3.945   0.882
 1143SOL    HW1 3449   1.509   3.944   0.936
 1143SOL    HW2 3450   1.595   4.028   0.826
 1144SOL     OW 3451   0.230   4.352   1.975
 1144SOL    HW1 3452   0.137   4.350   2.012
 1144SOL    HW2 3453   0.231   4.313   1.883
 1145SOL     OW 3454   0.225   3.999   2.858
 1145SOL    HW1 3455   0.260   3.982   2.950
 1145SOL    HW2 3456   0.137   3.954   2.846
 1146SOL     OW 3457   0.019   4.092   2.509
 1146SOL    HW1 3458  -0.063   4.135   2.548
 1146SOL    HW2 3459  -0.009   4.019   2.446
 1147SOL     OW 3460   1.135   4.427   2.579
 1147SOL    HW1 3461   1.192   4.505   2.554
 1147SOL    HW2 3462   1.075   4.453   2.655
 1148SOL     OW 3463   1.755   4.331   2.093
 1148SOL    HW1 3464   1.743   4.318   1.994
 1148SOL    HW2 3465   1.725   4.250   2.142
 1149SOL     OW 3466   0.850   4.522   3.685
 1149SOL    HW1 3467   0.846   4.598   3.750
 1149SOL    HW2 3468   0.872   4.558   3.594
 1150SOL     OW 3469   0.685   4.736   2.527
 1150SOL    HW1 3470   0.754   4.720   2.597
 1150SOL    HW2 3471   0.612   4.793   2.565
 1151SOL     OW 3472   0.438   4.116   3.361
 1151SOL    HW1 3473   0.520   4.060   3.370
 1151SOL    HW2 3474   0.357   4.058   3.365
 1152SOL     OW 3475   1.603   4.171   2.599
 1152SOL    HW1 3476   1.529   4.217   2.549
 1152SOL    HW2 3477   1.654   4.239   2.652
 1153SOL     OW 3478   1.594   3.838   3.342
 1153SOL    HW1 3479   1.576   3.905   3.270
 1153SOL    HW2 3480   1.591   3.884   3.431
 1154SOL     OW 3481   0.122   4.367   2.425
 1154SOL    HW1 3482   0.077   4.279   2.442
 1154SOL    HW2 3483   0.121   4.421   2.509
 1155SOL     OW 3484   0.113   4.461   3.459
 1155SOL    HW1 3485   0.201   4.448   3.504
 1155SOL    HW2 3486   0.100   4.558   3.437
 1156SOL     OW 3487   0.809   3.728   2.364
 1156SOL    HW1 3488   0.849   3.819   2.355
 1156SOL    HW2 3489   0.709   3.736   2.370
 1157SOL     OW 3490   0.317   3.975   3.663
 1157SOL    HW1 3491   0.388   4.046   3.669
 1157SOL    HW2 3492   0.229   4.014   3.691
 1158SOL     OW 3493   0.598   4.453   2.132
 1158SOL    HW1 3494   0.622   4.522   2.064
 1158SOL    HW2 3495   0.520   4.486   2.186
 1159SOL     OW 3496   1.281   4.069   2.806
 1159SOL    HW1 3497   1.195   4.019   2.793
 1159SOL    HW2 3498   1.343   4.015   2.862
 1160SOL     OW 3499   0.807   4.329   3.327
 1160SOL    HW1 3500   0.760   4.326   3.416
 1160SOL    HW2 3501   0.756   4.274   3.261
 1161SOL     OW 3502   1.394   4.193   3.536
 1161SOL    HW1 3503   1.374   4.236   3.624
 1161SOL    HW2 3504   1.472   4.131   3.545
 1162SOL     OW 3505   0.991   4.134   3.104
 1162SOL    HW1 3506   0.914   4.168   3.158
 1162SOL    HW2 3507   0.957   4.083   3.025
 1163SOL     OW 3508   1.041   4.425   2.291
 1163SOL    HW1 3509   1.067   4.421   2.387
 1163SOL    HW2 3510   0.956   4.374   2.277
 1164SOL     OW 3511   0.076   4.535   2.651
 1164SOL    HW1 3512   0.175   4.523   2.660
 1164SOL    HW2 3513   0.052   4.630   2.672
 1165SOL     OW 3514   0.865   4.072   2.057
 1165SOL    HW1 3515   0.924   4.135   2.008
 1165SOL    HW2 3516   0.884   3.978   2.028
 1166SOL     OW 3517   1.719   4.309   3.693
 1166SOL    HW1 3518   1.693   4.398   3.657
 1166SOL    HW2 3519   1.717   4.241   3.620
 1167SOL     OW 3520   0.550   3.920   2.747
 1167SOL    HW1 3521   0.545   3.915   2.847
 1167SOL    HW2 3522   0.552   4.016   2.718
 1168SOL     OW 3523   1.458   4.459   2.590
 1168SOL    HW1 3524   1.453   4.394   2.665
 1168SOL    HW2 3525   1.538   4.518   2.603
 1169SOL     OW 3526   0.202   4.009   3.360
 1169SOL    HW1 3527   0.122   4.069   3.347
 1169SOL    HW2 3528   0.192   3.960   3.446
 1170SOL     OW 3529   1.400   3.831   2.288
 1170SOL    HW1 3530   1.376   3.794   2.198
 1170SOL    HW2 3531   1.499   3.847   2.292
 1171SOL     OW 3532   0.382   4.424   2.342
 1171SOL    HW1 3533   0.427   4.334   2.339
 1171SOL    HW2 3534   0.288   4.413   2.375
 1172SOL     OW 3535   1.547   3.946   3.591
 1172SOL    HW1 3536   1.542   3.983   3.683
 1172SOL    HW2 3537   1.475   3.877   3.579
 1173SOL     OW 3538   0.614   3.846   1.979
 1173SOL    HW1 3539   0.712   3.824   1.986
 1173SOL    HW2 3540   0.583   3.829   1.886
 1174SOL     OW 3541   0.781   3.988   3.611
 1174SOL    HW1 3542   0.848   3.927   3.654
 1174SOL    HW2 3543   0.708   4.007   3.676
 1175SOL     OW 3544   1.351   4.314   3.295
 1175SOL    HW1 3545   1.379   4.271   3.380
 1175SOL    HW2 3546   1.376   4.410   3.296
 1176SOL     OW 3547   0.922   4.227   2.761
 1176SOL    HW1 3548   0.897   4.218   2.665
 1176SOL    HW2 3549   0.970   4.145   2.792
 1177SOL     OW 3550   0.539   3.788   2.374
 1177SOL    HW1 3551   0.458   3.789   2.432
 1177SOL    HW2 3552   0.542   3.871   2.319
 1178SOL     OW 3553   0.297   3.759   2.033
 1178SOL    HW1 3554   0.346   3.843   2.012
 1178SOL    HW2 3555   0.359   3.694   2.078
 1179SOL     OW 3556   0.935   3.960   2.342
 1179SOL    HW1 3557   0.887   4.001   2.264
 1179SOL    HW2 3558   1.034   3.958   2.323
 1180SOL     OW 3559   1.076   4.407   3.326
 1180SOL    HW1 3560   0.996   4.346   3.329
 1180SOL    HW2 3561   1.157   4.354   3.302
 1181SOL     OW 3562   1.032   4.273   1.878
 1181SOL    HW1 3563   0.991   4.355   1.839
 1181SOL    HW2 3564   1.096   4.299   1.951
 1182SOL     OW 3565   0.078   4.280   3.248
 1182SOL    HW1 3566   0.170   4.279   3.207
 1182SOL    HW2 3567   0.072   4.354   3.315
 1183SOL     OW 3568   0.561   3.946   3.009
 1183SOL    HW1 3569   0.599   3.862   3.046
 1183SOL    HW2 3570   0.473   3.965   3.053
 1184SOL     OW 3571   0.866   4.178   2.504
 1184SOL    HW1 3572   0.834   4.250   2.442
 1184SOL    HW2 3573   0.890   4.097   2.451
 1185SOL     OW 3574   1.017   3.763   2.615
 1185SOL    HW1 3575   0.945   3.768   2.546
 1185SOL    HW2 3576   0.993   3.694   2.684
 1186SOL     OW 3577   1.466   4.314   2.854
 1186SOL    HW1 3578   1.436   4.219   2.861
 1186SOL    HW2 3579   1.539   4.330   2.920
 1187SOL     OW 3580   1.857   4.557   2.239
 1187SOL    HW1 3581   1.899   4.493   2.303
 1187SOL    HW2 3582   1.819   4.506   2.161
 1188SOL     OW 3583   1.390   4.299   1.940
 1188SOL    HW1 3584   1.336   4.278   2.021
 1188SOL    HW2 3585   1.481   4.258   1.949
 1189SOL     OW 3586   0.527   3.980   2.190
 1189SOL    HW1 3587   0.554   3.921   2.115
 1189SOL    HW2 3588   0.527   4.075   2.159
 1190SOL     OW 3589   0.915   3.813   3.264
 1190SOL    HW1 3590   0.940   3.793   3.169
 1190SOL    HW2 3591   0.987   3.869   3.306
 1191SOL     OW 3592   0.705   4.774   2.230
 1191SOL    HW1 3593   0.691   4.781   2.329
 1191SOL    HW2 3594   0.789   4.723   2.212
 1192SOL     OW 3595   0.410   4.537   3.113
 1192SOL    HW1 3596   0.496   4.549   3.163
 1192SOL    HW2 3597   0.368   4.450   3.140
 1193SOL     OW 3598   1.274   4.110   3.124
 1193SOL    HW1 3599   1.295   4.184   3.188
 1193SOL    HW2 3600   1.185   4.127   3.081
 1194SOL     OW 3601   0.566   4.261   2.727
 1194SOL    HW1 3602   0.578   4.327   2.653
 1194SOL    HW2 3603   0.612   4.295   2.810
 1195SOL     OW 3604   1.582   4.363   2.334
 1195SOL    HW1 3605   1.551   4.424   2.407
 1195SOL    HW2 3606   1.632   4.415   2.265
 1196SOL     OW 3607   1.587   4.503   3.532
 1196SOL    HW1 3608   1.495   4.541   3.527
 1196SOL    HW2 3609   1.647   4.550   3.467
 1197SOL     OW 3610   1.013   3.829   3.632
 1197SOL    HW1 3611   1.019   3.914   3.580
 1197SOL    HW2 3612   1.045   3.753   3.575
 1198SOL     OW 3613   0.504   3.774   3.602
 1198SOL    HW1 3614   0.462   3.717   3.532
 1198SOL    HW2 3615   0.438   3.843   3.634
 1199SOL     OW 3616   1.360   4.586   2.907
 1199SOL    HW1 3617   1.285   4.586   2.841
 1199SOL    HW2 3618   1.397   4.494   2.916
 1200SOL     OW 3619   1.209   4.249   2.137
 1200SOL    HW1 3620   1.222   4.165   2.191
 1200SOL    HW2 3621   1.180   4.323   2.197
 1201SOL     OW 3622   0.307   3.937   3.093
 1201SOL    HW1 3623   0.284   3.974   3.183
 1201SOL    HW2 3624   0.277   3.842   3.087
 1202SOL     OW 3625   0.732   4.358   2.926
 1202SOL    HW1 3626   0.791   4.332   2.850
 1202SOL    HW2 3627   0.704   4.454   2.915
 1203SOL     OW 3628   1.728   4.659   3.716
 1203SOL    HW1 3629   1.682   4.652   3.627
 1203SOL    HW2 3630   1.666   4.703   3.782
 1204SOL     OW 3631   0.307   3.787   2.480
 1204SOL    HW1 3632   0.296   3.881   2.513
 1204SOL    HW2 3633   0.302   3.724   2.557
 1205SOL     OW 3634   1.622   4.091   2.236
 1205SOL    HW1 3635   1.624   4.015   2.300
 1205SOL    HW2 3636   1.574   4.168   2.276
 1206SOL     OW 3637   1.540   3.998   1.987
 1206SOL    HW1 3638   1.479   3.923   2.010
 1206SOL    HW2 3639   1.562   4.050   2.070
 1207SOL     OW 3640   0.319   4.534   2.811
 1207SOL    HW1 3641   0.412   4.570   2.816
 1207SOL    HW2 3642   0.313   4.449   2.863
 1208SOL     OW 3643   0.339   4.233   2.868
 1208SOL    HW1 3644   0.287   4.150   2.851
 1208SOL    HW2 3645   0.416   4.238   2.804
 1209SOL     OW 3646   1.138   4.104   3.540
 1209SOL    HW1 3647   1.093   4.167   3.604
 1209SOL    HW2 3648   1.231   4.135   3.523
 1210SOL     OW 3649   1.160   3.931   3.339
 1210SOL    HW1 3650   1.160   3.995   3.416
 1210SOL    HW2 3651   1.188   3.979   3.256
 1211SOL     OW 3652   0.040   4.268   2.976
 1211SOL    HW1 3653   0.125   4.235   2.935
 1211SOL    HW2 3654   0.053   4.283   3.074
 1212SOL     OW 3655   0.189   4.244   3.584
 1212SOL    HW1 3656   0.248   4.204   3.514
 1212SOL    HW2 3657   0.131   4.315   3.543
 1213SOL     OW 3658   0.815   4.296   2.187
 1213SOL    HW1 3659   0.822   4.207   2.141
 1213SOL    HW2 3660   0.721   4.330   2.179
 1214SOL     OW 3661   1.657   4.328   3.068
 1214SOL    HW1 3662   1.619   4.259   3.130
 1214SOL    HW2 3663   1.739   4.292   3.024
 1215SOL     OW 3664   0.671   4.188   3.131
 1215SOL    HW1 3665   0.637   4.099   3.101
 1215SOL    HW2 3666   0.697   4.242   3.051
 1216SOL     OW 3667   0.473   4.224   2.053
 1216SOL    HW1 3668   0.534   4.304   2.057
 1216SOL    HW2 3669   0.378   4.255   2.060
 1217SOL     OW 3670   1.726   3.859   2.385
 1217SOL    HW1 3671   1.799   3.842   2.318
 1217SOL    HW2 3672   1.695   3.772   2.423
 1218SOL     OW 3673   1.280   4.651   2.534
 1218SOL    HW1 3674   1.340   4.570   2.536
 1218SOL    HW2 3675   1.320   4.720   2.474
 1219SOL     OW 3676   1.841   3.899   2.825
 1219SOL    HW1 3677   1.880   3.814   2.789
 1219SOL    HW2 3678   1.743   3.901   2.806
 1220SOL     OW 3679   0.263   4.050   2.582
 1220SOL    HW1 3680   0.184   4.101   2.548
 1220SOL    HW2 3681   0.254   4.035   2.680
 1221SOL     OW 3682   0.916   4.634   2.153
 1221SOL    HW1 3683   0.979   4.672   2.085
 1221SOL    HW2 3684   0.956   4.551   2.192
 1222SOL     OW 3685   1.014   3.960   2.833
 1222SOL    HW1 3686   1.006   3.924   2.740
 1222SOL    HW2 3687   1.012   3.884   2.898
 1223SOL     OW 3688   1.709   4.109   3.243
 1223SOL    HW1 3689   1.782   4.178   3.247
 1223SOL    HW2 3690   1.737   4.034   3.184
 1224SOL     OW 3691   0.105   4.737   3.588
 1224SOL    HW1 3692   0.028   4.704   3.642
 1224SOL    HW2 3693   0.190   4.707   3.630
 1225SOL     OW 3694   0.672   3.927   3.351
 1225SOL    HW1 3695   0.762   3.911   3.311
 1225SOL    HW2 3696   0.680   3.932   3.450
 1226SOL     OW 3697   0.075   4.069   1.895
 1226SOL    HW1 3698  -0.017   4.041   1.866
 1226SOL    HW2 3699   0.106   4.146   1.839
 1227SOL     OW 3700   1.440   4.580   3.260
 1227SOL    HW1 3701   1.383   4.632   3.197
 1227SOL    HW2 3702   1.536   4.592   3.236
 1228SOL     OW 3703   0.072   3.890   2.180
 1228SOL    HW1 3704   0.055   3.973   2.126
 1228SOL    HW2 3705   0.162   3.853   2.158
 1229SOL     OW 3706   0.613   4.566   3.293
 1229SOL    HW1 3707   0.669   4.647   3.276
 1229SOL    HW2 3708   0.672   4.486   3.296
 1230SOL     OW 3709   0.716   4.289   3.570
 1230SOL    HW1 3710   0.735   4.354   3.644
 1230SOL    HW2 3711   0.776   4.209   3.579
 1231SOL     OW 3712   1.674   4.607   3.116
 1231SOL    HW1 3713   1.647   4.518   3.079
 1231SOL    HW2 3714   1.675   4.675   3.043
 1232SOL     OW 3715   1.225   4.049   2.311
 1232SOL    HW1 3716   1.290   3.975   2.300
 1232SOL    HW2 3717   1.245   4.099   2.395
 1233SOL     OW 3718   0.594   4.469   2.514
 1233SOL    HW1 3719   0.644   4.554   2.495
 1233SOL    HW2 3720   0.506   4.471   2.466
 1234SOL     OW 3721   1.777   4.066   3.504
 1234SOL    HW1 3722   1.760   4.097   3.410
 1234SOL    HW2 3723   1.693   4.029   3.542
 1235SOL     OW 3724   1.824   3.916   3.089
 1235SOL    HW1 3725   1.820   3.826   3.133
 1235SOL    HW2 3726   1.827   3.905   2.990
 1236SOL     OW 3727   0.428   4.148   2.382
 1236SOL    HW1 3728   0.458   4.076   2.320
 1236SOL    HW2 3729   0.389   4.108   2.465
 1237SOL     OW 3730   0.317   4.271   3.142
 1237SOL    HW1 3731   0.355   4.212   3.214
 1237SOL    HW2 3732   0.357   4.245   3.054
 1238SOL     OW 3733   1.424   3.938   2.974
 1238SOL    HW1 3734   1.476   3.873   3.029
 1238SOL    HW2 3735   1.375   4.001   3.035
 1239SOL     OW 3736   1.001   3.758   3.016
 1239SOL    HW1 3737   0.938   3.686   2.985
 1239SOL    HW2 3738   1.094   3.722   3.016
 1240SOL     OW 3739   1.352   3.776   2.030
 1240SOL    HW1 3740   1.387   3.735   1.946
 1240SOL    HW2 3741   1.262   3.738   2.050
 1241SOL     OW 3742   1.300   4.177   2.553
 1241SOL    HW1 3743   1.241   4.257   2.557
 1241SOL    HW2 3744   1.315   4.142   2.646
 1242SOL     OW 3745   1.593   3.945   2.744
 1242SOL    HW1 3746   1.509   3.944   2.798
 1242SOL    HW2 3747   1.595   4.028   2.688
 1243SOL     OW 3748   0.230   4.352   3.837
 1243SOL    HW1 3749   0.137   4.350   3.874
 1243SOL    HW2 3750   0.231   4.313   3.745
 1244SOL     OW 3751   0.019   4.092   4.371
 1244SOL    HW1 3752  -0.063   4.135   4.410
 1244SOL    HW2 3753  -0.009   4.019   4.308
 1245SOL     OW 3754   1.135   4.427   4.441
 1245SOL    HW1 3755   1.192   4.505   4.416
 1245SOL    HW2 3756   1.075   4.453   4.517
 1246SOL     OW 3757   1.755   4.331   3.955
 1246SOL    HW1 3758   1.743   4.318   3.856
 1246SOL    HW2 3759   1.725   4.250   4.004
 1247SOL     OW 3760   0.685   4.736   4.389
 1247SOL    HW1 3761   0.754   4.720   4.459
 1247SOL    HW2 3762   0.612   4.793   4.427
 1248SOL     OW 3763   1.603   4.171   4.461
 1248SOL    HW1 3764   1.529   4.217   4.411
 1248SOL    HW2 3765   1.654   4.239   4.514
 1249SOL     OW 3766   0.122   4.367   4.287
 1249SOL    HW1 3767   0.077   4.279   4.304
 1249SOL    HW2 3768   0.121   4.421   4.371
 1250SOL     OW 3769   0.809   3.728   4.226
 1250SOL    HW1 3770   0.849   3.819   4.217
 1250SOL    HW2 3771   0.709   3.736   4.232
 1251SOL     OW 3772   0.598   4.453   3.994
 1251SOL    HW1 3773   0.622   4.522   3.926
 1251SOL    HW2 3774   0.520   4.486   4.048
 1252SOL     OW 3775   1.281   4.069   4.668
 1252SOL    HW1 3776   1.195   4.019   4.655
 1252SOL    HW2 3777   1.343   4.015   4.724
 1253SOL     OW 3778   1.041   4.425   4.153
 1253SOL    HW1 3779   1.067   4.421   4.249
 1253SOL    HW2 3780   0.956   4.374   4.139
 1254SOL     OW 3781   0.076   4.535   4.513
 1254SOL    HW1 3782   0.175   4.523   4.522
 1254SOL    HW2 3783   0.052   4.630   4.534
 1255SOL     OW 3784   0.865   4.072   3.919
 1255SOL    HW1 3785   0.924   4.135   3.870
 1255SOL    HW2 3786   0.884   3.978   3.890
 1256SOL     OW 3787   0.550   3.920   4.609
 1256SOL    HW1 3788   0.545   3.915   4.709
 1256SOL    HW2 3789   0.552   4.016   4.580
 1257SOL     OW 3790   1.458   4.459   4.452
 1257SOL    HW1 3791   1.453   4.394   4.527
 1257SOL    HW2 3792   1.538   4.518   4.465
 1258SOL     OW 3793   1.400   3.831   4.150
 1258SOL    HW1 3794   1.376   3.794   4.060
 1258SOL    HW2 3795   1.499   3.847   4.154
 1259SOL     OW 3796   0.382   4.424   4.204
 1259SOL    HW1 3797   0.427   4.334   4.201
 1259SOL    HW2 3798   0.288   4.413   4.237
 1260SOL     OW 3799   0.614   3.846   3.841
 1260SOL    HW1 3800   0.712   3.824   3.848
 1260SOL    HW2 3801   0.583   3.829   3.748
 1261SOL     OW 3802   0.539   3.788   4.236
 1261SOL    HW1 3803   0.458   3.789   4.294
 1261SOL    HW2 3804   0.542   3.871   4.181
 1262SOL     OW 3805   0.297   3.759   3.895
 1262SOL    HW1 3806   0.346   3.843   3.874
 1262SOL    HW2 3807   0.359   3.694   3.940
 1263SOL     OW 3808   0.935   3.960   4.204
 1263SOL    HW1 3809   0.887   4.001   4.126
 1263SOL    HW2 3810   1.034   3.958   4.185
 1264SOL     OW 3811   0.459   4.876   4.465
 1264SOL    HW1 3812   0.388   4.849   4.530
 1264SOL    HW2 3813   0.433   4.848   4.372
 1265SOL     OW 3814   1.032   4.273   3.740
 1265SOL    HW1 3815   0.991   4.355   3.701
 1265SOL    HW2 3816   1.096   4.299   3.813
 1266SOL     OW 3817   0.866   4.178   4.366
 1266SOL    HW1 3818   0.834   4.250   4.304
 1266SOL    HW2 3819   0.890   4.097   4.313
 1267SOL     OW 3820   1.017   3.763   4.477
 1267SOL    HW1 3821   0.945   3.768   4.408
 1267SOL    HW2 3822   0.993   3.694   4.546
 1268SOL     OW 3823   1.429   4.897   4.591
 1268SOL    HW1 3824   1.374   4.813   4.584
 1268SOL    HW2 3825   1.455   4.926   4.499
 1269SOL     OW 3826   1.857   4.557   4.101
 1269SOL    HW1 3827   1.899   4.493   4.165
 1269SOL    HW2 3828   1.819   4.506   4.023
 1270SOL     OW 3829   1.390   4.299   3.802
 1270SOL    HW1 3830   1.336   4.278   3.883
 1270SOL    HW2 3831   1.481   4.258   3.811
 1271SOL     OW 3832   0.527   3.980   4.052
 1271SOL    HW1 3833   0.554   3.921   3.977
 1271SOL    HW2 3834   0.527   4.075   4.021
 1272SOL     OW 3835   0.705   4.774   4.092
 1272SOL    HW1 3836   0.691   4.781   4.191
 1272SOL    HW2 3837   0.789   4.723   4.074
 1273SOL     OW 3838   0.566   4.261   4.589
 1273SOL    HW1 3839   0.578   4.327   4.515
 1273SOL    HW2 3840   0.612   4.295   4.672
 1274SOL     OW 3841   1.582   4.363   4.196
 1274SOL    HW1 3842   1.551   4.424   4.269
 1274SOL    HW2 3843   1.632   4.415   4.127
 1275SOL     OW 3844   1.209   4.249   3.999
 1275SOL    HW1 3845   1.222   4.165   4.053
 1275SOL    HW2 3846   1.180   4.323   4.059
 1276SOL     OW 3847   0.307   3.787   4.342
 1276SOL    HW1 3848   0.296   3.881   4.375
 1276SOL    HW2 3849   0.302   3.724   4.419
 1277SOL     OW 3850   1.622   4.091   4.098
 1277SOL    HW1 3851   1.624   4.015   4.162
 1277SOL    HW2 3852   1.574   4.168   4.138
 1278SOL     OW 3853   1.540   3.998   3.849
 1278SOL    HW1 3854   1.479   3.923   3.872
 1278SOL    HW2 3855   1.562   4.050   3.932
 1279SOL     OW 3856   0.815   4.296   4.049
 1279SOL    HW1 3857   0.822   4.207   4.003
 1279SOL    HW2 3858   0.721   4.330   4.041
 1280SOL     OW 3859   0.473   4.224   3.915
 1280SOL    HW1 3860   0.534   4.304   3.919
 1280SOL    HW2 3861   0.378   4.255   3.922
 1281SOL     OW 3862   1.726   3.859   4.247
 1281SOL    HW1 3863   1.799   3.842   4.180
 1281SOL    HW2 3864   1.695   3.772   4.285
 1282SOL     OW 3865   1.280   4.651   4.396
 1282SOL    HW1 3866   1.340   4.570   4.398
 1282SOL    HW2 3867   1.320   4.720   4.336
 1283SOL     OW 3868   1.841   3.899   4.687
 1283SOL    HW1 3869   1.880   3.814   4.651
 1283SOL    HW2 3870   1.743   3.901   4.668
 1284SOL     OW 3871   0.263   4.050   4.444
 1284SOL    HW1 3872   0.184   4.101   4.410
 1284SOL    HW2 3873   0.254   4.035   4.542
 1285SOL     OW 3874   0.916   4.634   4.015
 1285SOL    HW1 3875   0.979   4.672   3.947
 1285SOL    HW2 3876   0.956   4.551   4.054
 1286SOL     OW 3877   0.075   4.069   3.757
 1286SOL    HW1 3878  -0.017   4.041   3.728
 1286SOL    HW2 3879   0.106   4.146   3.701
 1287SOL     OW 3880   0.072   3.890   4.042
 1287SOL    HW1 3881   0.055   3.973   3.988
 1287SOL    HW2 3882   0.162   3.853   4.020
 1288SOL     OW 3883   1.225   4.049   4.173
 1288SOL    HW1 3884   1.290   3.975   4.162
 1288SOL    HW2 3885   1.245   4.099   4.257
 1289SOL     OW 3886   0.594   4.469   4.376
 1289SOL    HW1 3887   0.644   4.554   4.357
 1289SOL    HW2 3888   0.506   4.471   4.328
 1290SOL     OW 3889   0.428   4.148   4.244
 1290SOL    HW1 3890   0.458   4.076   4.182
 1290SOL    HW2 3891   0.389   4.108   4.327
 1291SOL     OW 3892   1.352   3.776   3.892
 1291SOL    HW1 3893   1.387   3.735   3.808
 1291SOL    HW2 3894   1.262   3.738   3.912
 1292SOL     OW 3895   1.300   4.177   4.415
 1292SOL    HW1 3896   1.241   4.257   4.419
 1292SOL    HW2 3897   1.315   4.142   4.508
 1293SOL     OW 3898   2.092   0.628   0.113
 1293SOL    HW1 3899   1.999   0.626   0.150
 1293SOL    HW2 3900   2.093   0.589   0.021
 1294SOL     OW 3901   2.087   0.275   0.996
 1294SOL    HW1 3902   2.122   0.258   1.088
 1294SOL    HW2 3903   1.999   0.230   0.984
 1295SOL     OW 3904   1.881   0.368   0.647
 1295SOL    HW1 3905   1.799   0.411   0.686
 1295SOL    HW2 3906   1.853   0.295   0.584
 1296SOL     OW 3907   2.431   1.275   1.165
 1296SOL    HW1 3908   2.338   1.268   1.128
 1296SOL    HW2 3909   2.442   1.364   1.209
 1297SOL     OW 3910   3.417   1.511   0.703
 1297SOL    HW1 3911   3.360   1.495   0.784
 1297SOL    HW2 3912   3.358   1.521   0.623
 1298SOL     OW 3913   2.997   0.703   0.717
 1298SOL    HW1 3914   3.054   0.781   0.692
 1298SOL    HW2 3915   2.937   0.729   0.793
 1299SOL     OW 3916   3.617   0.607   0.231
 1299SOL    HW1 3917   3.605   0.594   0.132
 1299SOL    HW2 3918   3.587   0.526   0.280
 1300SOL     OW 3919   2.630   1.144   1.023
 1300SOL    HW1 3920   2.552   1.161   1.083
 1300SOL    HW2 3921   2.664   1.231   0.987
 1301SOL     OW 3922   2.712   0.798   1.823
 1301SOL    HW1 3923   2.708   0.874   1.888
 1301SOL    HW2 3924   2.734   0.834   1.732
 1302SOL     OW 3925   2.547   1.012   0.665
 1302SOL    HW1 3926   2.616   0.996   0.735
 1302SOL    HW2 3927   2.474   1.069   0.703
 1303SOL     OW 3928   2.548   1.161   1.803
 1303SOL    HW1 3929   2.608   1.240   1.817
 1303SOL    HW2 3930   2.462   1.192   1.762
 1304SOL     OW 3931   2.197   1.435   1.061
 1304SOL    HW1 3932   2.119   1.404   1.008
 1304SOL    HW2 3933   2.255   1.493   1.004
 1305SOL     OW 3934   3.322   1.505   1.339
 1305SOL    HW1 3935   3.346   1.599   1.365
 1305SOL    HW2 3936   3.306   1.451   1.421
 1306SOL     OW 3937   2.300   0.392   1.499
 1306SOL    HW1 3938   2.382   0.336   1.508
 1306SOL    HW2 3939   2.219   0.334   1.503
 1307SOL     OW 3940   3.465   0.447   0.737
 1307SOL    HW1 3941   3.391   0.493   0.687
 1307SOL    HW2 3942   3.516   0.515   0.790
 1308SOL     OW 3943   2.093   1.713   0.483
 1308SOL    HW1 3944   2.127   1.790   0.537
 1308SOL    HW2 3945   2.137   1.713   0.393
 1309SOL     OW 3946   2.989   1.341   1.690
 1309SOL    HW1 3947   3.036   1.341   1.778
 1309SOL    HW2 3948   2.941   1.254   1.679
 1310SOL     OW 3949   2.092   1.434   0.538
 1310SOL    HW1 3950   2.066   1.530   0.538
 1310SOL    HW2 3951   2.021   1.380   0.583
 1311SOL     OW 3952   2.102   1.091   0.886
 1311SOL    HW1 3953   2.116   1.007   0.938
 1311SOL    HW2 3954   2.047   1.155   0.941
 1312SOL     OW 3955   2.482   1.786   1.439
 1312SOL    HW1 3956   2.390   1.769   1.474
 1312SOL    HW2 3957   2.510   1.878   1.465
 1313SOL     OW 3958   2.468   0.964   0.123
 1313SOL    HW1 3959   2.475   1.048   0.069
 1313SOL    HW2 3960   2.514   0.977   0.211
 1314SOL     OW 3961   3.456   0.114   1.480
 1314SOL    HW1 3962   3.438   0.181   1.408
 1314SOL    HW2 3963   3.453   0.160   1.569
 1315SOL     OW 3964   1.984   0.643   0.563
 1315SOL    HW1 3965   1.939   0.555   0.580
 1315SOL    HW2 3966   1.983   0.697   0.647
 1316SOL     OW 3967   3.704   1.767   0.359
 1316SOL    HW1 3968   3.758   1.738   0.439
 1316SOL    HW2 3969   3.734   1.857   0.330
 1317SOL     OW 3970   1.889   1.596   0.117
 1317SOL    HW1 3971   1.870   1.500   0.138
 1317SOL    HW2 3972   1.856   1.654   0.192
 1318SOL     OW 3973   3.551   0.922   0.612
 1318SOL    HW1 3974   3.646   0.893   0.620
 1318SOL    HW2 3975   3.543   0.987   0.537
 1319SOL     OW 3976   3.503   1.108   0.432
 1319SOL    HW1 3977   3.589   1.110   0.380
 1319SOL    HW2 3978   3.517   1.155   0.520
 1320SOL     OW 3979   1.975   0.737   1.597
 1320SOL    HW1 3980   2.063   0.724   1.642
 1320SOL    HW2 3981   1.962   0.834   1.575
 1321SOL     OW 3982   2.475   1.365   0.726
 1321SOL    HW1 3983   2.426   1.278   0.735
 1321SOL    HW2 3984   2.452   1.408   0.639
 1322SOL     OW 3985   3.155   1.228   1.423
 1322SOL    HW1 3986   3.192   1.155   1.365
 1322SOL    HW2 3987   3.207   1.233   1.508
 1323SOL     OW 3988   2.671   0.004   0.502
 1323SOL    HW1 3989   2.711   0.095   0.493
 1323SOL    HW2 3990   2.571   0.012   0.508
 1324SOL     OW 3991   2.059   0.976   1.264
 1324SOL    HW1 3992   2.148   0.931   1.250
 1324SOL    HW2 3993   1.986   0.911   1.245
 1325SOL     OW 3994   3.387   0.999   0.190
 1325SOL    HW1 3995   3.324   0.923   0.203
 1325SOL    HW2 3996   3.435   1.017   0.276
 1326SOL     OW 3997   3.049   1.792   1.616
 1326SOL    HW1 3998   3.073   1.852   1.540
 1326SOL    HW2 3999   3.056   1.697   1.586
 1327SOL     OW 4000   2.179   0.251   1.801
 1327SOL    HW1 4001   2.250   0.322   1.807
 1327SOL    HW2 4002   2.091   0.290   1.829
 1328SOL     OW 4003   3.328   1.417   0.953
 1328SOL    HW1 4004   3.269   1.423   1.033
 1328SOL    HW2 4005   3.313   1.329   0.907
 1329SOL     OW 4006   3.529   1.714   0.572
 1329SOL    HW1 4007   3.488   1.691   0.484
 1329SOL    HW2 4008   3.511   1.640   0.637
 1330SOL     OW 4009   2.460   0.729   0.270
 1330SOL    HW1 4010   2.484   0.798   0.202
 1330SOL    HW2 4011   2.382   0.762   0.324
 1331SOL     OW 4012   3.143   0.345   0.944
 1331SOL    HW1 4013   3.057   0.295   0.931
 1331SOL    HW2 4014   3.205   0.291   1.000
 1332SOL     OW 4015   3.438   1.662   0.307
 1332SOL    HW1 4016   3.527   1.708   0.310
 1332SOL    HW2 4017   3.417   1.638   0.212
 1333SOL     OW 4018   2.669   0.605   1.465
 1333SOL    HW1 4019   2.622   0.602   1.554
 1333SOL    HW2 4020   2.618   0.550   1.399
 1334SOL     OW 4021   3.256   0.469   1.674
 1334SOL    HW1 4022   3.236   0.512   1.762
 1334SOL    HW2 4023   3.334   0.407   1.683
 1335SOL     OW 4024   2.835   0.890   1.572
 1335SOL    HW1 4025   2.881   0.806   1.543
 1335SOL    HW2 4026   2.779   0.924   1.497
 1336SOL     OW 4027   2.853   0.410   1.242
 1336SOL    HW1 4028   2.776   0.444   1.296
 1336SOL    HW2 4029   2.819   0.359   1.163
 1337SOL     OW 4030   2.903   0.701   0.429
 1337SOL    HW1 4031   2.929   0.697   0.525
 1337SOL    HW2 4032   2.818   0.650   0.415
 1338SOL     OW 4033   1.938   0.811   0.789
 1338SOL    HW1 4034   2.037   0.799   0.798
 1338SOL    HW2 4035   1.914   0.906   0.810
 1339SOL     OW 4036   1.992   1.821   1.571
 1339SOL    HW1 4037   1.982   1.806   1.670
 1339SOL    HW2 4038   1.906   1.857   1.535
 1340SOL     OW 4039   2.727   0.348   0.195
 1340SOL    HW1 4040   2.786   0.411   0.146
 1340SOL    HW2 4041   2.746   0.254   0.166
 1341SOL     OW 4042   3.581   0.585   1.831
 1341SOL    HW1 4043   3.555   0.674   1.795
 1341SOL    HW2 4044   3.579   0.517   1.758
 1342SOL     OW 4045   3.224   1.144   0.545
 1342SOL    HW1 4046   3.307   1.115   0.497
 1342SOL    HW2 4047   3.175   1.211   0.489
 1343SOL     OW 4048   2.412   0.196   0.885
 1343SOL    HW1 4049   2.407   0.191   0.985
 1343SOL    HW2 4050   2.414   0.292   0.856
 1344SOL     OW 4051   2.870   1.456   0.477
 1344SOL    HW1 4052   2.824   1.528   0.425
 1344SOL    HW2 4053   2.866   1.476   0.575
 1345SOL     OW 4054   2.213   1.801   0.853
 1345SOL    HW1 4055   2.263   1.715   0.859
 1345SOL    HW2 4056   2.278   1.878   0.850
 1346SOL     OW 4057   3.657   1.066   0.873
 1346SOL    HW1 4058   3.595   1.051   0.797
 1346SOL    HW2 4059   3.605   1.077   0.958
 1347SOL     OW 4060   3.089   1.550   1.506
 1347SOL    HW1 4061   3.095   1.473   1.570
 1347SOL    HW2 4062   3.037   1.524   1.426
 1348SOL     OW 4063   2.183   0.943   0.242
 1348SOL    HW1 4064   2.265   0.982   0.200
 1348SOL    HW2 4065   2.156   0.861   0.193
 1349SOL     OW 4066   3.320   0.735   0.728
 1349SOL    HW1 4067   3.315   0.670   0.803
 1349SOL    HW2 4068   3.400   0.794   0.741
 1350SOL     OW 4069   2.323   1.266   1.727
 1350SOL    HW1 4070   2.273   1.267   1.641
 1350SOL    HW2 4071   2.260   1.248   1.803
 1351SOL     OW 4072   2.973   1.776   0.237
 1351SOL    HW1 4073   2.913   1.714   0.287
 1351SOL    HW2 4074   3.004   1.732   0.152
 1352SOL     OW 4075   2.064   0.285   1.498
 1352SOL    HW1 4076   1.984   0.345   1.485
 1352SOL    HW2 4077   2.054   0.236   1.584
 1353SOL     OW 4078   3.494   1.377   0.081
 1353SOL    HW1 4079   3.462   1.471   0.071
 1353SOL    HW2 4080   3.418   1.314   0.069
 1354SOL     OW 4081   2.326   1.743   0.323
 1354SOL    HW1 4082   2.359   1.782   0.409
 1354SOL    HW2 4083   2.402   1.736   0.258
 1355SOL     OW 4084   3.262   0.107   0.426
 1355SOL    HW1 4085   3.238   0.070   0.336
 1355SOL    HW2 4086   3.361   0.123   0.430
 1356SOL     OW 4087   2.111   1.785   1.241
 1356SOL    HW1 4088   2.168   1.720   1.291
 1356SOL    HW2 4089   2.095   1.752   1.148
 1357SOL     OW 4090   2.802   1.698   0.904
 1357SOL    HW1 4091   2.882   1.641   0.925
 1357SOL    HW2 4092   2.753   1.658   0.827
 1358SOL     OW 4093   2.244   0.700   0.480
 1358SOL    HW1 4094   2.289   0.610   0.477
 1358SOL    HW2 4095   2.150   0.689   0.513
 1359SOL     OW 4096   3.409   0.222   1.729
 1359SOL    HW1 4097   3.404   0.259   1.821
 1359SOL    HW2 4098   3.337   0.153   1.717
 1360SOL     OW 4099   2.476   0.122   0.117
 1360SOL    HW1 4100   2.574   0.100   0.124
 1360SOL    HW2 4101   2.445   0.105   0.024
 1361SOL     OW 4102   2.643   0.264   1.749
 1361SOL    HW1 4103   2.710   0.203   1.792
 1361SOL    HW2 4104   2.570   0.283   1.814
 1362SOL     OW 4105   2.750   1.514   1.195
 1362SOL    HW1 4106   2.727   1.489   1.101
 1362SOL    HW2 4107   2.811   1.445   1.234
 1363SOL     OW 4108   3.213   0.590   1.433
 1363SOL    HW1 4109   3.241   0.547   1.518
 1363SOL    HW2 4110   3.238   0.686   1.434
 1364SOL     OW 4111   2.665   1.402   0.924
 1364SOL    HW1 4112   2.755   1.416   0.882
 1364SOL    HW2 4113   2.594   1.404   0.853
 1365SOL     OW 4114   2.784   0.503   0.899
 1365SOL    HW1 4115   2.759   0.494   0.803
 1365SOL    HW2 4116   2.832   0.421   0.930
 1366SOL     OW 4117   2.401   0.064   0.512
 1366SOL    HW1 4118   2.320   0.065   0.570
 1366SOL    HW2 4119   2.404   0.147   0.457
 1367SOL     OW 4120   3.296   1.188   0.041
 1367SOL    HW1 4121   3.328   1.112   0.098
 1367SOL    HW2 4122   3.204   1.215   0.071
 1368SOL     OW 4123   2.159   0.035   0.171
 1368SOL    HW1 4124   2.208   0.119   0.150
 1368SOL    HW2 4125   2.221  -0.030   0.216
 1369SOL     OW 4126   2.797   0.236   0.480
 1369SOL    HW1 4127   2.749   0.277   0.402
 1369SOL    HW2 4128   2.896   0.234   0.461
 1370SOL     OW 4129   2.938   0.683   1.464
 1370SOL    HW1 4130   2.858   0.622   1.467
 1370SOL    HW2 4131   3.019   0.630   1.440
 1371SOL     OW 4132   3.089   1.570   0.793
 1371SOL    HW1 4133   3.110   1.644   0.728
 1371SOL    HW2 4134   3.157   1.570   0.866
 1372SOL     OW 4135   2.321   1.152   0.741
 1372SOL    HW1 4136   2.250   1.125   0.806
 1372SOL    HW2 4137   2.295   1.124   0.648
 1373SOL     OW 4138   3.133   1.797   0.591
 1373SOL    HW1 4139   3.177   1.861   0.527
 1373SOL    HW2 4140   3.083   1.849   0.661
 1374SOL     OW 4141   2.894   0.549   0.016
 1374SOL    HW1 4142   2.853   0.631  -0.023
 1374SOL    HW2 4143   2.958   0.575   0.089
 1375SOL     OW 4144   1.940   0.556   1.386
 1375SOL    HW1 4145   2.032   0.555   1.345
 1375SOL    HW2 4146   1.934   0.630   1.453
 1376SOL     OW 4147   2.423   0.222   1.147
 1376SOL    HW1 4148   2.461   0.138   1.184
 1376SOL    HW2 4149   2.335   0.241   1.191
 1377SOL     OW 4150   2.728   0.454   0.642
 1377SOL    HW1 4151   2.696   0.526   0.580
 1377SOL    HW2 4152   2.752   0.373   0.589
 1378SOL     OW 4153   2.879   0.039   0.753
 1378SOL    HW1 4154   2.807   0.044   0.684
 1378SOL    HW2 4155   2.855  -0.030   0.822
 1379SOL     OW 4156   3.291   1.173   0.867
 1379SOL    HW1 4157   3.236   1.089   0.860
 1379SOL    HW2 4158   3.317   1.202   0.775
 1380SOL     OW 4159   3.328   0.590   0.992
 1380SOL    HW1 4160   3.298   0.495   0.999
 1380SOL    HW2 4161   3.401   0.606   1.058
 1381SOL     OW 4162   3.719   0.833   0.377
 1381SOL    HW1 4163   3.761   0.769   0.441
 1381SOL    HW2 4164   3.681   0.782   0.299
 1382SOL     OW 4165   2.350   1.385   0.174
 1382SOL    HW1 4166   2.263   1.370   0.221
 1382SOL    HW2 4167   2.333   1.411   0.079
 1383SOL     OW 4168   3.526   1.280   0.657
 1383SOL    HW1 4169   3.625   1.288   0.671
 1383SOL    HW2 4170   3.481   1.364   0.688
 1384SOL     OW 4171   3.252   0.575   0.078
 1384SOL    HW1 4172   3.198   0.554   0.159
 1384SOL    HW2 4173   3.343   0.534   0.087
 1385SOL     OW 4174   2.389   0.256   0.328
 1385SOL    HW1 4175   2.416   0.197   0.253
 1385SOL    HW2 4176   2.389   0.351   0.297
 1386SOL     OW 4177   3.616   1.223   1.588
 1386SOL    HW1 4178   3.707   1.184   1.575
 1386SOL    HW2 4179   3.624   1.319   1.612
 1387SOL     OW 4180   2.926   1.347   1.340
 1387SOL    HW1 4181   2.846   1.324   1.395
 1387SOL    HW2 4182   3.009   1.321   1.389
 1388SOL     OW 4183   3.454   1.629   1.625
 1388SOL    HW1 4184   3.481   1.663   1.535
 1388SOL    HW2 4185   3.533   1.591   1.671
 1389SOL     OW 4186   2.973   1.195   1.100
 1389SOL    HW1 4187   2.933   1.239   1.181
 1389SOL    HW2 4188   2.932   1.232   1.017
 1390SOL     OW 4189   3.500   1.099   1.079
 1390SOL    HW1 4190   3.505   1.180   1.138
 1390SOL    HW2 4191   3.414   1.101   1.028
 1391SOL     OW 4192   2.777   0.089   1.402
 1391SOL    HW1 4193   2.802   0.069   1.307
 1391SOL    HW2 4194   2.849   0.145   1.444
 1392SOL     OW 4195   2.842   1.116   1.719
 1392SOL    HW1 4196   2.743   1.122   1.729
 1392SOL    HW2 4197   2.865   1.036   1.663
 1393SOL     OW 4198   2.567   1.050   0.368
 1393SOL    HW1 4199   2.553   1.057   0.467
 1393SOL    HW2 4200   2.651   0.999   0.350
 1394SOL     OW 4201   2.272   0.813   1.251
 1394SOL    HW1 4202   2.358   0.825   1.301
 1394SOL    HW2 4203   2.230   0.726   1.278
 1395SOL     OW 4204   3.136   0.386   1.262
 1395SOL    HW1 4205   3.157   0.460   1.326
 1395SOL    HW2 4206   3.047   0.403   1.219
 1396SOL     OW 4207   1.926   1.564   1.331
 1396SOL    HW1 4208   1.880   1.646   1.297
 1396SOL    HW2 4209   2.024   1.583   1.340
 1397SOL     OW 4210   2.229   1.100   0.501
 1397SOL    HW1 4211   2.222   1.183   0.445
 1397SOL    HW2 4212   2.233   1.020   0.441
 1398SOL     OW 4213   2.428   0.537   0.865
 1398SOL    HW1 4214   2.440   0.603   0.791
 1398SOL    HW2 4215   2.474   0.571   0.948
 1399SOL     OW 4216   3.114   1.348   0.388
 1399SOL    HW1 4217   3.164   1.425   0.428
 1399SOL    HW2 4218   3.019   1.350   0.420
 1400SOL     OW 4219   3.134   1.445   1.142
 1400SOL    HW1 4220   3.181   1.458   1.229
 1400SOL    HW2 4221   3.068   1.371   1.151
 1401SOL     OW 4222   3.444   0.639   0.472
 1401SOL    HW1 4223   3.413   0.700   0.545
 1401SOL    HW2 4224   3.494   0.691   0.403
 1402SOL     OW 4225   2.216   1.510   1.329
 1402SOL    HW1 4226   2.195   1.466   1.242
 1402SOL    HW2 4227   2.313   1.536   1.332
 1403SOL     OW 4228   2.264   0.751   1.598
 1403SOL    HW1 4229   2.332   0.806   1.551
 1403SOL    HW2 4230   2.304   0.663   1.625
 1404SOL     OW 4231   3.449   0.779   1.670
 1404SOL    HW1 4232   3.357   0.817   1.665
 1404SOL    HW2 4233   3.509   0.826   1.605
 1405SOL     OW 4234   2.875   0.105   1.770
 1405SOL    HW1 4235   2.881   0.190   1.718
 1405SOL    HW2 4236   2.907   0.029   1.713
 1406SOL     OW 4237   2.366   0.050   1.740
 1406SOL    HW1 4238   2.324  -0.007   1.670
 1406SOL    HW2 4239   2.300   0.119   1.772
 1407SOL     OW 4240   2.435   0.870   1.029
 1407SOL    HW1 4241   2.479   0.959   1.020
 1407SOL    HW2 4242   2.372   0.870   1.106
 1408SOL     OW 4243   3.222   0.862   1.045
 1408SOL    HW1 4244   3.147   0.862   0.979
 1408SOL    HW2 4245   3.259   0.770   1.054
 1409SOL     OW 4246   3.071   0.525   0.275
 1409SOL    HW1 4247   3.084   0.441   0.329
 1409SOL    HW2 4248   3.042   0.599   0.335
 1410SOL     OW 4249   2.169   0.213   1.231
 1410SOL    HW1 4250   2.146   0.250   1.321
 1410SOL    HW2 4251   2.139   0.118   1.225
 1411SOL     OW 4252   1.899   1.310   1.282
 1411SOL    HW1 4253   1.952   1.261   1.350
 1411SOL    HW2 4254   1.921   1.408   1.287
 1412SOL     OW 4255   2.594   0.634   1.064
 1412SOL    HW1 4256   2.653   0.608   0.988
 1412SOL    HW2 4257   2.566   0.730   1.053
 1413SOL     OW 4258   3.590   0.935   1.854
 1413SOL    HW1 4259   3.544   0.928   1.765
 1413SOL    HW2 4260   3.528   0.979   1.920
 1414SOL     OW 4261   2.169   0.063   0.618
 1414SOL    HW1 4262   2.158   0.157   0.651
 1414SOL    HW2 4263   2.164   0.000   0.695
 1415SOL     OW 4264   3.484   0.367   0.374
 1415SOL    HW1 4265   3.486   0.291   0.438
 1415SOL    HW2 4266   3.436   0.444   0.414
 1416SOL     OW 4267   2.885   0.766   0.966
 1416SOL    HW1 4268   2.900   0.787   1.062
 1416SOL    HW2 4269   2.855   0.671   0.957
 1417SOL     OW 4270   2.842   1.573   1.700
 1417SOL    HW1 4271   2.822   1.617   1.612
 1417SOL    HW2 4272   2.881   1.482   1.684
 1418SOL     OW 4273   3.721   1.518   1.605
 1418SOL    HW1 4274   3.735   1.545   1.510
 1418SOL    HW2 4275   3.804   1.540   1.658
 1419SOL     OW 4276   2.212   0.898   1.804
 1419SOL    HW1 4277   2.288   0.942   1.852
 1419SOL    HW2 4278   2.247   0.851   1.722
 1420SOL     OW 4279   3.402   0.274   0.125
 1420SOL    HW1 4280   3.341   0.199   0.148
 1420SOL    HW2 4281   3.424   0.326   0.208
 1421SOL     OW 4282   3.165   0.838   0.042
 1421SOL    HW1 4283   3.199   0.745   0.057
 1421SOL    HW2 4284   3.183   0.865  -0.053
 1422SOL     OW 4285   2.930   1.333   0.849
 1422SOL    HW1 4286   2.937   1.249   0.794
 1422SOL    HW2 4287   2.992   1.402   0.813
 1423SOL     OW 4288   2.181   0.810   0.949
 1423SOL    HW1 4289   2.274   0.846   0.954
 1423SOL    HW2 4290   2.175   0.725   1.001
 1424SOL     OW 4291   2.201   0.509   1.006
 1424SOL    HW1 4292   2.149   0.426   0.989
 1424SOL    HW2 4293   2.278   0.514   0.942
 1425SOL     OW 4294   3.000   0.380   1.678
 1425SOL    HW1 4295   2.955   0.443   1.742
 1425SOL    HW2 4296   3.093   0.411   1.661
 1426SOL     OW 4297   3.022   0.207   1.477
 1426SOL    HW1 4298   3.022   0.271   1.554
 1426SOL    HW2 4299   3.050   0.255   1.394
 1427SOL     OW 4300   1.870   1.326   0.200
 1427SOL    HW1 4301   1.777   1.347   0.169
 1427SOL    HW2 4302   1.880   1.227   0.213
 1428SOL     OW 4303   1.950   1.801   0.927
 1428SOL    HW1 4304   1.908   1.715   0.900
 1428SOL    HW2 4305   2.044   1.804   0.893
 1429SOL     OW 4306   2.366   1.568   0.910
 1429SOL    HW1 4307   2.432   1.642   0.919
 1429SOL    HW2 4308   2.410   1.489   0.868
 1430SOL     OW 4309   2.864   0.796   1.238
 1430SOL    HW1 4310   2.905   0.764   1.324
 1430SOL    HW2 4311   2.768   0.769   1.235
 1431SOL     OW 4312   1.902   0.544   1.114
 1431SOL    HW1 4313   1.987   0.511   1.073
 1431SOL    HW2 4314   1.915   0.559   1.212
 1432SOL     OW 4315   2.051   0.520   1.722
 1432SOL    HW1 4316   2.110   0.480   1.652
 1432SOL    HW2 4317   1.993   0.591   1.681
 1433SOL     OW 4318   3.231   0.950   1.660
 1433SOL    HW1 4319   3.270   1.039   1.680
 1433SOL    HW2 4320   3.241   0.930   1.563
 1434SOL     OW 4321   2.677   0.572   0.325
 1434SOL    HW1 4322   2.684   0.483   0.279
 1434SOL    HW2 4323   2.583   0.606   0.317
 1435SOL     OW 4324   3.519   0.604   1.206
 1435SOL    HW1 4325   3.481   0.535   1.268
 1435SOL    HW2 4326   3.601   0.568   1.162
 1436SOL     OW 4327   2.114   1.564   1.744
 1436SOL    HW1 4328   2.084   1.621   1.820
 1436SOL    HW2 4329   2.107   1.467   1.770
 1437SOL     OW 4330   2.533   0.464   1.269
 1437SOL    HW1 4331   2.499   0.375   1.239
 1437SOL    HW2 4332   2.559   0.518   1.189
 1438SOL     OW 4333   2.792   1.678   1.465
 1438SOL    HW1 4334   2.768   1.660   1.370
 1438SOL    HW2 4335   2.822   1.772   1.475
 1439SOL     OW 4336   2.335   0.500   0.191
 1439SOL    HW1 4337   2.396   0.580   0.195
 1439SOL    HW2 4338   2.240   0.531   0.198
 1440SOL     OW 4339   2.021   1.137   1.466
 1440SOL    HW1 4340   2.043   1.076   1.542
 1440SOL    HW2 4341   2.031   1.088   1.380
 1441SOL     OW 4342   3.209   1.059   1.234
 1441SOL    HW1 4343   3.233   0.996   1.160
 1441SOL    HW2 4344   3.119   1.099   1.216
 1442SOL     OW 4345   3.164   0.855   0.309
 1442SOL    HW1 4346   3.078   0.824   0.351
 1442SOL    HW2 4347   3.160   0.841   0.210
 1443SOL     OW 4348   3.621   1.747   1.154
 1443SOL    HW1 4349   3.682   1.777   1.081
 1443SOL    HW2 4350   3.583   1.658   1.132
 1444SOL     OW 4351   3.114   1.731   1.128
 1444SOL    HW1 4352   3.198   1.736   1.074
 1444SOL    HW2 4353   3.091   1.635   1.146
 1445SOL     OW 4354   1.945   1.258   1.022
 1445SOL    HW1 4355   1.940   1.257   1.122
 1445SOL    HW2 4356   1.862   1.217   0.984
 1446SOL     OW 4357   2.550   1.662   1.716
 1446SOL    HW1 4358   2.494   1.743   1.725
 1446SOL    HW2 4359   2.602   1.666   1.630
 1447SOL     OW 4360   2.765   0.086   0.133
 1447SOL    HW1 4361   2.816   0.087   0.047
 1447SOL    HW2 4362   2.821   0.044   0.204
 1448SOL     OW 4363   3.588   0.135   0.523
 1448SOL    HW1 4364   3.661   0.118   0.456
 1448SOL    HW2 4365   3.557   0.048   0.561
 1449SOL     OW 4366   3.250   1.573   0.477
 1449SOL    HW1 4367   3.317   1.585   0.403
 1449SOL    HW2 4368   3.210   1.662   0.500
 1450SOL     OW 4369   1.992   1.794   1.851
 1450SOL    HW1 4370   1.951   1.720   1.904
 1450SOL    HW2 4371   2.056   1.845   1.909
 1451SOL     OW 4372   3.142   0.927   0.672
 1451SOL    HW1 4373   3.202   0.846   0.674
 1451SOL    HW2 4374   3.182   0.996   0.612
 1452SOL     OW 4375   2.692   1.273   1.422
 1452SOL    HW1 4376   2.687   1.306   1.517
 1452SOL    HW2 4377   2.606   1.292   1.376
 1453SOL     OW 4378   2.534   1.616   0.154
 1453SOL    HW1 4379   2.543   1.626   0.055
 1453SOL    HW2 4380   2.494   1.527   0.175
 1454SOL     OW 4381   3.512   1.720   1.394
 1454SOL    HW1 4382   3.565   1.730   1.310
 1454SOL    HW2 4383   3.485   1.810   1.428
 1455SOL     OW 4384   3.703   0.175   0.963
 1455SOL    HW1 4385   3.742   0.090   0.927
 1455SOL    HW2 4386   3.605   0.177   0.944
 1456SOL     OW 4387   2.125   0.326   0.720
 1456SOL    HW1 4388   2.046   0.377   0.686
 1456SOL    HW2 4389   2.116   0.311   0.818
 1457SOL     OW 4390   3.056   1.612   0.031
 1457SOL    HW1 4391   3.062   1.519   0.068
 1457SOL    HW2 4392   2.997   1.612  -0.049
 1458SOL     OW 4393   2.684   1.002   1.372
 1458SOL    HW1 4394   2.724   1.001   1.280
 1458SOL    HW2 4395   2.694   1.094   1.412
 1459SOL     OW 4396   2.778   0.910   0.291
 1459SOL    HW1 4397   2.841   0.948   0.223
 1459SOL    HW2 4398   2.818   0.827   0.330
 1460SOL     OW 4399   3.366   1.607   0.044
 1460SOL    HW1 4400   3.274   1.644   0.051
 1460SOL    HW2 4401   3.404   1.627  -0.046
 1461SOL     OW 4402   2.234   1.288   1.490
 1461SOL    HW1 4403   2.221   1.381   1.456
 1461SOL    HW2 4404   2.150   1.236   1.477
 1462SOL     OW 4405   3.476   1.292   1.289
 1462SOL    HW1 4406   3.536   1.295   1.369
 1462SOL    HW2 4407   3.401   1.356   1.302
 1463SOL     OW 4408   2.901   1.098   0.696
 1463SOL    HW1 4409   2.831   1.051   0.750
 1463SOL    HW2 4410   2.960   1.030   0.653
 1464SOL     OW 4411   2.876   0.236   0.971
 1464SOL    HW1 4412   2.868   0.200   0.878
 1464SOL    HW2 4413   2.874   0.160   1.036
 1465SOL     OW 4414   2.452   1.487   0.491
 1465SOL    HW1 4415   2.494   1.429   0.421
 1465SOL    HW2 4416   2.408   1.566   0.447
 1466SOL     OW 4417   3.571   0.385   1.381
 1466SOL    HW1 4418   3.644   0.454   1.385
 1466SOL    HW2 4419   3.599   0.310   1.322
 1467SOL     OW 4420   2.117   1.348   0.290
 1467SOL    HW1 4421   2.021   1.349   0.263
 1467SOL    HW2 4422   2.129   1.401   0.374
 1468SOL     OW 4423   1.967   1.013   1.726
 1468SOL    HW1 4424   1.890   0.980   1.780
 1468SOL    HW2 4425   2.052   0.983   1.768
 1469SOL     OW 4426   2.534   0.203   1.489
 1469SOL    HW1 4427   2.624   0.187   1.449
 1469SOL    HW2 4428   2.542   0.208   1.588
 1470SOL     OW 4429   1.937   0.345   0.033
 1470SOL    HW1 4430   1.845   0.317   0.004
 1470SOL    HW2 4431   1.968   0.422  -0.023
 1471SOL     OW 4432   3.302   0.856   1.398
 1471SOL    HW1 4433   3.245   0.908   1.335
 1471SOL    HW2 4434   3.398   0.868   1.374
 1472SOL     OW 4435   1.934   0.166   0.318
 1472SOL    HW1 4436   1.917   0.249   0.264
 1472SOL    HW2 4437   2.024   0.129   0.296
 1473SOL     OW 4438   3.045   1.335   0.119
 1473SOL    HW1 4439   2.946   1.324   0.121
 1473SOL    HW2 4440   3.079   1.350   0.212
 1474SOL     OW 4441   2.475   0.842   1.431
 1474SOL    HW1 4442   2.531   0.923   1.414
 1474SOL    HW2 4443   2.534   0.762   1.434
 1475SOL     OW 4444   3.355   1.767   0.959
 1475SOL    HW1 4445   3.388   1.831   0.890
 1475SOL    HW2 4446   3.421   1.761   1.034
 1476SOL     OW 4447   2.578   0.565   1.708
 1476SOL    HW1 4448   2.597   0.630   1.782
 1476SOL    HW2 4449   2.638   0.485   1.717
 1477SOL     OW 4450   3.312   1.220   1.633
 1477SOL    HW1 4451   3.303   1.210   1.732
 1477SOL    HW2 4452   3.408   1.213   1.607
 1478SOL     OW 4453   2.252   1.741   1.560
 1478SOL    HW1 4454   2.161   1.782   1.558
 1478SOL    HW2 4455   2.245   1.647   1.592
 1479SOL     OW 4456   3.536   0.883   1.254
 1479SOL    HW1 4457   3.509   0.794   1.217
 1479SOL    HW2 4458   3.537   0.951   1.181
 1480SOL     OW 4459   3.087   0.325   0.449
 1480SOL    HW1 4460   3.152   0.251   0.438
 1480SOL    HW2 4461   3.107   0.375   0.533
 1481SOL     OW 4462   2.456   0.745   0.652
 1481SOL    HW1 4463   2.506   0.830   0.633
 1481SOL    HW2 4464   2.368   0.747   0.604
 1482SOL     OW 4465   3.639   0.342   1.642
 1482SOL    HW1 4466   3.622   0.373   1.548
 1482SOL    HW2 4467   3.555   0.305   1.680
 1483SOL     OW 4468   3.592   0.934   1.517
 1483SOL    HW1 4469   3.630   1.025   1.532
 1483SOL    HW2 4470   3.584   0.917   1.418
 1484SOL     OW 4471   2.721   1.374   0.016
 1484SOL    HW1 4472   2.675   1.389   0.104
 1484SOL    HW2 4473   2.765   1.459  -0.014
 1485SOL     OW 4474   2.523   1.790   0.953
 1485SOL    HW1 4475   2.477   1.878   0.940
 1485SOL    HW2 4476   2.622   1.802   0.946
 1486SOL     OW 4477   2.721   0.956   0.861
 1486SOL    HW1 4478   2.775   0.887   0.909
 1486SOL    HW2 4479   2.689   1.025   0.927
 1487SOL     OW 4480   2.945   0.984   0.087
 1487SOL    HW1 4481   2.922   1.037   0.005
 1487SOL    HW2 4482   3.026   0.928   0.068
 1488SOL     OW 4483   3.723   1.569   0.851
 1488SOL    HW1 4484   3.652   1.557   0.781
 1488SOL    HW2 4485   3.724   1.490   0.911
 1489SOL     OW 4486   2.083   1.314   1.844
 1489SOL    HW1 4487   2.018   1.241   1.823
 1489SOL    HW2 4488   2.087   1.328   1.942
 1490SOL     OW 4489   1.941   1.240   0.653
 1490SOL    HW1 4490   1.940   1.193   0.741
 1490SOL    HW2 4491   2.023   1.212   0.602
 1491SOL     OW 4492   2.534   1.391   1.624
 1491SOL    HW1 4493   2.456   1.341   1.662
 1491SOL    HW2 4494   2.531   1.486   1.655
 1492SOL     OW 4495   3.686   0.192   1.227
 1492SOL    HW1 4496   3.682   0.102   1.271
 1492SOL    HW2 4497   3.689   0.181   1.128
 1493SOL     OW 4498   2.290   0.424   0.520
 1493SOL    HW1 4499   2.320   0.352   0.458
 1493SOL    HW2 4500   2.251   0.384   0.603
 1494SOL     OW 4501   3.567   1.487   1.104
 1494SOL    HW1 4502   3.474   1.462   1.077
 1494SOL    HW2 4503   3.593   1.437   1.186
 1495SOL     OW 4504   2.179   0.547   1.280
 1495SOL    HW1 4505   2.217   0.488   1.352
 1495SOL    HW2 4506   2.219   0.521   1.192
 1496SOL     OW 4507   2.674   1.586   0.687
 1496SOL    HW1 4508   2.706   1.596   0.593
 1496SOL    HW2 4509   2.595   1.524   0.689
 1497SOL     OW 4510   3.286   0.214   1.112
 1497SOL    HW1 4511   3.338   0.149   1.167
 1497SOL    HW2 4512   3.237   0.277   1.173
 1498SOL     OW 4513   2.863   0.034   1.154
 1498SOL    HW1 4514   2.800  -0.038   1.123
 1498SOL    HW2 4515   2.956  -0.002   1.154
 1499SOL     OW 4516   2.632   1.330   0.301
 1499SOL    HW1 4517   2.586   1.243   0.318
 1499SOL    HW2 4518   2.723   1.327   0.342
 1500SOL     OW 4519   2.480   1.567   1.284
 1500SOL    HW1 4520   2.475   1.649   1.341
 1500SOL    HW2 4521   2.569   1.564   1.239
 1501SOL     OW 4522   3.214   0.052   0.168
 1501SOL    HW1 4523   3.249   0.011   0.084
 1501SOL    HW2 4524   3.124   0.014   0.188
 1502SOL     OW 4525   3.162   0.453   0.691
 1502SOL    HW1 4526   3.103   0.533   0.695
 1502SOL    HW2 4527   3.177   0.418   0.784
 1503SOL     OW 4528   3.455   0.221   0.882
 1503SOL    HW1 4529   3.371   0.220   0.936
 1503SOL    HW2 4530   3.457   0.304   0.826
 1504SOL     OW 4531   1.901   1.077   0.300
 1504SOL    HW1 4532   2.000   1.066   0.291
 1504SOL    HW2 4533   1.861   0.991   0.332
 1505SOL     OW 4534   2.737   1.646   0.337
 1505SOL    HW1 4535   2.660   1.611   0.283
 1505SOL    HW2 4536   2.705   1.717   0.399
 1506SOL     OW 4537   2.092   0.628   1.975
 1506SOL    HW1 4538   1.999   0.626   2.012
 1506SOL    HW2 4539   2.093   0.589   1.883
 1507SOL     OW 4540   2.087   0.275   2.858
 1507SOL    HW1 4541   2.122   0.258   2.950
 1507SOL    HW2 4542   1.999   0.230   2.846
 1508SOL     OW 4543   1.881   0.368   2.509
 1508SOL    HW1 4544   1.799   0.411   2.548
 1508SOL    HW2 4545   1.853   0.295   2.446
 1509SOL     OW 4546   2.431   1.275   3.027
 1509SOL    HW1 4547   2.338   1.268   2.990
 1509SOL    HW2 4548   2.442   1.364   3.071
 1510SOL     OW 4549   3.417   1.511   2.565
 1510SOL    HW1 4550   3.360   1.495   2.646
 1510SOL    HW2 4551   3.358   1.521   2.485
 1511SOL     OW 4552   2.997   0.703   2.579
 1511SOL    HW1 4553   3.054   0.781   2.554
 1511SOL    HW2 4554   2.937   0.729   2.655
 1512SOL     OW 4555   3.617   0.607   2.093
 1512SOL    HW1 4556   3.605   0.594   1.994
 1512SOL    HW2 4557   3.587   0.526   2.142
 1513SOL     OW 4558   2.630   1.144   2.885
 1513SOL    HW1 4559   2.552   1.161   2.945
 1513SOL    HW2 4560   2.664   1.231   2.849
 1514SOL     OW 4561   2.712   0.798   3.685
 1514SOL    HW1 4562   2.708   0.874   3.750
 1514SOL    HW2 4563   2.734   0.834   3.594
 1515SOL     OW 4564   2.547   1.012   2.527
 1515SOL    HW1 4565   2.616   0.996   2.597
 1515SOL    HW2 4566   2.474   1.069   2.565
 1516SOL     OW 4567   2.548   1.161   3.665
 1516SOL    HW1 4568   2.608   1.240   3.679
 1516SOL    HW2 4569   2.462   1.192   3.624
 1517SOL     OW 4570   2.197   1.435   2.923
 1517SOL    HW1 4571   2.119   1.404   2.870
 1517SOL    HW2 4572   2.255   1.493   2.866
 1518SOL     OW 4573   3.322   1.505   3.201
 1518SOL    HW1 4574   3.346   1.599   3.227
 1518SOL    HW2 4575   3.306   1.451   3.283
 1519SOL     OW 4576   2.300   0.392   3.361
 1519SOL    HW1 4577   2.382   0.336   3.370
 1519SOL    HW2 4578   2.219   0.334   3.365
 1520SOL     OW 4579   3.465   0.447   2.599
 1520SOL    HW1 4580   3.391   0.493   2.549
 1520SOL    HW2 4581   3.516   0.515   2.652
 1521SOL     OW 4582   2.093   1.713   2.345
 1521SOL    HW1 4583   2.127   1.790   2.399
 1521SOL    HW2 4584   2.137   1.713   2.255
 1522SOL     OW 4585   2.989   1.341   3.552
 1522SOL    HW1 4586   3.036   1.341   3.640
 1522SOL    HW2 4587   2.941   1.254   3.541
 1523SOL     OW 4588   2.092   1.434   2.400
 1523SOL    HW1 4589   2.066   1.530   2.400
 1523SOL    HW2 4590   2.021   1.380   2.445
 1524SOL     OW 4591   2.102   1.091   2.748
 1524SOL    HW1 4592   2.116   1.007   2.800
 1524SOL    HW2 4593   2.047   1.155   2.803
 1525SOL     OW 4594   2.482   1.786   3.301
 1525SOL    HW1 4595   2.390   1.769   3.336
 1525SOL    HW2 4596   2.510   1.878   3.327
 1526SOL     OW 4597   2.468   0.964   1.985
 1526SOL    HW1 4598   2.475   1.048   1.931
 1526SOL    HW2 4599   2.514   0.977   2.073
 1527SOL     OW 4600   3.456   0.114   3.342
 1527SOL    HW1 4601   3.438   0.181   3.270
 1527SOL    HW2 4602   3.453   0.160   3.431
 1528SOL     OW 4603   1.984   0.643   2.425
 1528SOL    HW1 4604   1.939   0.555   2.442
 1528SOL    HW2 4605   1.983   0.697   2.509
 1529SOL     OW 4606   3.704   1.767   2.221
 1529SOL    HW1 4607   3.758   1.738   2.301
 1529SOL    HW2 4608   3.734   1.857   2.192
 1530SOL     OW 4609   1.889   1.596   1.979
 1530SOL    HW1 4610   1.870   1.500   2.000
 1530SOL    HW2 4611   1.856   1.654   2.054
 1531SOL     OW 4612   3.551   0.922   2.474
 1531SOL    HW1 4613   3.646   0.893   2.482
 1531SOL    HW2 4614   3.543   0.987   2.399
 1532SOL     OW 4615   3.503   1.108   2.294
 1532SOL    HW1 4616   3.589   1.110   2.242
 1532SOL    HW2 4617   3.517   1.155   2.382
 1533SOL     OW 4618   1.975   0.737   3.459
 1533SOL    HW1 4619   2.063   0.724   3.504
 1533SOL    HW2 4620   1.962   0.834   3.437
 1534SOL     OW 4621   2.475   1.365   2.588
 1534SOL    HW1 4622   2.426   1.278   2.597
 1534SOL    HW2 4623   2.452   1.408   2.501
 1535SOL     OW 4624   3.155   1.228   3.285
 1535SOL    HW1 4625   3.192   1.155   3.227
 1535SOL    HW2 4626   3.207   1.233   3.370
 1536SOL     OW 4627   2.671   0.004   2.364
 1536SOL    HW1 4628   2.711   0.095   2.355
 1536SOL    HW2 4629   2.571   0.012   2.370
 1537SOL     OW 4630   2.059   0.976   3.126
 1537SOL    HW1 4631   2.148   0.931   3.112
 1537SOL    HW2 4632   1.986   0.911   3.107
 1538SOL     OW 4633   3.387   0.999   2.052
 1538SOL    HW1 4634   3.324   0.923   2.065
 1538SOL    HW2 4635   3.435   1.017   2.138
 1539SOL     OW 4636   3.049   1.792   3.478
 1539SOL    HW1 4637   3.073   1.852   3.402
 1539SOL    HW2 4638   3.056   1.697   3.448
 1540SOL     OW 4639   2.179   0.251   3.663
 1540SOL    HW1 4640   2.250   0.322   3.669
 1540SOL    HW2 4641   2.091   0.290   3.691
 1541SOL     OW 4642   3.328   1.417   2.815
 1541SOL    HW1 4643   3.269   1.423   2.895
 1541SOL    HW2 4644   3.313   1.329   2.769
 1542SOL     OW 4645   3.529   1.714   2.434
 1542SOL    HW1 4646   3.488   1.691   2.346
 1542SOL    HW2 4647   3.511   1.640   2.499
 1543SOL     OW 4648   2.460   0.729   2.132
 1543SOL    HW1 4649   2.484   0.798   2.064
 1543SOL    HW2 4650   2.382   0.762   2.186
 1544SOL     OW 4651   3.143   0.345   2.806
 1544SOL    HW1 4652   3.057   0.295   2.793
 1544SOL    HW2 4653   3.205   0.291   2.862
 1545SOL     OW 4654   3.438   1.662   2.169
 1545SOL    HW1 4655   3.527   1.708   2.172
 1545SOL    HW2 4656   3.417   1.638   2.074
 1546SOL     OW 4657   2.669   0.605   3.327
 1546SOL    HW1 4658   2.622   0.602   3.416
 1546SOL    HW2 4659   2.618   0.550   3.261
 1547SOL     OW 4660   3.256   0.469   3.536
 1547SOL    HW1 4661   3.236   0.512   3.624
 1547SOL    HW2 4662   3.334   0.407   3.545
 1548SOL     OW 4663   2.835   0.890   3.434
 1548SOL    HW1 4664   2.881   0.806   3.405
 1548SOL    HW2 4665   2.779   0.924   3.359
 1549SOL     OW 4666   2.853   0.410   3.104
 1549SOL    HW1 4667   2.776   0.444   3.158
 1549SOL    HW2 4668   2.819   0.359   3.025
 1550SOL     OW 4669   2.903   0.701   2.291
 1550SOL    HW1 4670   2.929   0.697   2.387
 1550SOL    HW2 4671   2.818   0.650   2.277
 1551SOL     OW 4672   1.938   0.811   2.651
 1551SOL    HW1 4673   2.037   0.799   2.660
 1551SOL    HW2 4674   1.914   0.906   2.672
 1552SOL     OW 4675   1.992   1.821   3.433
 1552SOL    HW1 4676   1.982   1.806   3.532
 1552SOL    HW2 4677   1.906   1.857   3.397
 1553SOL     OW 4678   2.727   0.348   2.057
 1553SOL    HW1 4679   2.786   0.411   2.008
 1553SOL    HW2 4680   2.746   0.254   2.028
 1554SOL     OW 4681   3.581   0.585   3.693
 1554SOL    HW1 4682   3.555   0.674   3.657
 1554SOL    HW2 4683   3.579   0.517   3.620
 1555SOL     OW 4684   3.224   1.144   2.407
 1555SOL    HW1 4685   3.307   1.115   2.359
 1555SOL    HW2 4686   3.175   1.211   2.351
 1556SOL     OW 4687   2.412   0.196   2.747
 1556SOL    HW1 4688   2.407   0.191   2.847
 1556SOL    HW2 4689   2.414   0.292   2.718
 1557SOL     OW 4690   2.870   1.456   2.339
 1557SOL    HW1 4691   2.824   1.528   2.287
 1557SOL    HW2 4692   2.866   1.476   2.437
 1558SOL     OW 4693   2.213   1.801   2.715
 1558SOL    HW1 4694   2.263   1.715   2.721
 1558SOL    HW2 4695   2.278   1.878   2.712
 1559SOL     OW 4696   3.657   1.066   2.735
 1559SOL    HW1 4697   3.595   1.051   2.659
 1559SOL    HW2 4698   3.605   1.077   2.820
 1560SOL     OW 4699   3.089   1.550   3.368
 1560SOL    HW1 4700   3.095   1.473   3.432
 1560SOL    HW2 4701   3.037   1.524   3.288
 1561SOL     OW 4702   2.183   0.943   2.104
 1561SOL    HW1 4703   2.265   0.982   2.062
 1561SOL    HW2 4704   2.156   0.861   2.055
 1562SOL     OW 4705   3.320   0.735   2.590
 1562SOL    HW1 4706   3.315   0.670   2.665
 1562SOL    HW2 4707   3.400   0.794   2.603
 1563SOL     OW 4708   2.323   1.266   3.589
 1563SOL    HW1 4709   2.273   1.267   3.503
 1563SOL    HW2 4710   2.260   1.248   3.665
 1564SOL     OW 4711   2.973   1.776   2.099
 1564SOL    HW1 4712   2.913   1.714   2.149
 1564SOL    HW2 4713   3.004   1.732   2.014
 1565SOL     OW 4714   2.064   0.285   3.360
 1565SOL    HW1 4715   1.984   0.345   3.347
 1565SOL    HW2 4716   2.054   0.236   3.446
 1566SOL     OW 4717   3.494   1.377   1.943
 1566SOL    HW1 4718   3.462   1.471   1.933
 1566SOL    HW2 4719   3.418   1.314   1.931
 1567SOL     OW 4720   2.326   1.743   2.185
 1567SOL    HW1 4721   2.359   1.782   2.271
 1567SOL    HW2 4722   2.402   1.736   2.120
 1568SOL     OW 4723   3.262   0.107   2.288
 1568SOL    HW1 4724   3.238   0.070   2.198
 1568SOL    HW2 4725   3.361   0.123   2.292
 1569SOL     OW 4726   2.111   1.785   3.103
 1569SOL    HW1 4727   2.168   1.720   3.153
 1569SOL    HW2 4728   2.095   1.752   3.010
 1570SOL     OW 4729   2.802   1.698   2.766
 1570SOL    HW1 4730   2.882   1.641   2.787
 1570SOL    HW2 4731   2.753   1.658   2.689
 1571SOL     OW 4732   2.244   0.700   2.342
 1571SOL    HW1 4733   2.289   0.610   2.339
 1571SOL    HW2 4734   2.150   0.689   2.375
 1572SOL     OW 4735   3.409   0.222   3.591
 1572SOL    HW1 4736   3.404   0.259   3.683
 1572SOL    HW2 4737   3.337   0.153   3.579
 1573SOL     OW 4738   2.476   0.122   1.979
 1573SOL    HW1 4739   2.574   0.100   1.986
 1573SOL    HW2 4740   2.445   0.105   1.886
 1574SOL     OW 4741   2.643   0.264   3.611
 1574SOL    HW1 4742   2.710   0.203   3.654
 1574SOL    HW2 4743   2.570   0.283   3.676
 1575SOL     OW 4744   2.750   1.514   3.057
 1575SOL    HW1 4745   2.727   1.489   2.963
 1575SOL    HW2 4746   2.811   1.445   3.096
 1576SOL     OW 4747   3.213   0.590   3.295
 1576SOL    HW1 4748   3.241   0.547   3.380
 1576SOL    HW2 4749   3.238   0.686   3.296
 1577SOL     OW 4750   2.665   1.402   2.786
 1577SOL    HW1 4751   2.755   1.416   2.744
 1577SOL    HW2 4752   2.594   1.404   2.715
 1578SOL     OW 4753   2.784   0.503   2.761
 1578SOL    HW1 4754   2.759   0.494   2.665
 1578SOL    HW2 4755   2.832   0.421   2.792
 1579SOL     OW 4756   2.401   0.064   2.374
 1579SOL    HW1 4757   2.320   0.065   2.432
 1579SOL    HW2 4758   2.404   0.147   2.319
 1580SOL     OW 4759   3.296   1.188   1.903
 1580SOL    HW1 4760   3.328   1.112   1.960
 1580SOL    HW2 4761   3.204   1.215   1.933
 1581SOL     OW 4762   2.159   0.035   2.033
 1581SOL    HW1 4763   2.208   0.119   2.012
 1581SOL    HW2 4764   2.221  -0.030   2.078
 1582SOL     OW 4765   2.797   0.236   2.342
 1582SOL    HW1 4766   2.749   0.277   2.264
 1582SOL    HW2 4767   2.896   0.234   2.323
 1583SOL     OW 4768   2.938   0.683   3.326
 1583SOL    HW1 4769   2.858   0.622   3.329
 1583SOL    HW2 4770   3.019   0.630   3.302
 1584SOL     OW 4771   3.089   1.570   2.655
 1584SOL    HW1 4772   3.110   1.644   2.590
 1584SOL    HW2 4773   3.157   1.570   2.728
 1585SOL     OW 4774   2.321   1.152   2.603
 1585SOL    HW1 4775   2.250   1.125   2.668
 1585SOL    HW2 4776   2.295   1.124   2.510
 1586SOL     OW 4777   3.133   1.797   2.453
 1586SOL    HW1 4778   3.177   1.861   2.389
 1586SOL    HW2 4779   3.083   1.849   2.523
 1587SOL     OW 4780   2.894   0.549   1.878
 1587SOL    HW1 4781   2.853   0.631   1.839
 1587SOL    HW2 4782   2.958   0.575   1.951
 1588SOL     OW 4783   1.940   0.556   3.248
 1588SOL    HW1 4784   2.032   0.555   3.207
 1588SOL    HW2 4785   1.934   0.630   3.315
 1589SOL     OW 4786   2.423   0.222   3.009
 1589SOL    HW1 4787   2.461   0.138   3.046
 1589SOL    HW2 4788   2.335   0.241   3.053
 1590SOL     OW 4789   2.728   0.454   2.504
 1590SOL    HW1 4790   2.696   0.526   2.442
 1590SOL    HW2 4791   2.752   0.373   2.451
 1591SOL     OW 4792   2.879   0.039   2.615
 1591SOL    HW1 4793   2.807   0.044   2.546
 1591SOL    HW2 4794   2.855  -0.030   2.684
 1592SOL     OW 4795   3.291   1.173   2.729
 1592SOL    HW1 4796   3.236   1.089   2.722
 1592SOL    HW2 4797   3.317   1.202   2.637
 1593SOL     OW 4798   3.328   0.590   2.854
 1593SOL    HW1 4799   3.298   0.495   2.861
 1593SOL    HW2 4800   3.401   0.606   2.920
 1594SOL     OW 4801   3.719   0.833   2.239
 1594SOL    HW1 4802   3.761   0.769   2.303
 1594SOL    HW2 4803   3.681   0.782   2.161
 1595SOL     OW 4804   2.350   1.385   2.036
 1595SOL    HW1 4805   2.263   1.370   2.083
 1595SOL    HW2 4806   2.333   1.411   1.941
 1596SOL     OW 4807   3.526   1.280   2.519
 1596SOL    HW1 4808   3.625   1.288   2.533
 1596SOL    HW2 4809   3.481   1.364   2.550
 1597SOL     OW 4810   3.252   0.575   1.940
 1597SOL    HW1 4811   3.198   0.554   2.021
 1597SOL    HW2 4812   3.343   0.534   1.949
 1598SOL     OW 4813   2.389   0.256   2.190
 1598SOL    HW1 4814   2.416   0.197   2.115
 1598SOL    HW2 4815   2.389   0.351   2.159
 1599SOL     OW 4816   3.616   1.223   3.450
 1599SOL    HW1 4817   3.707   1.184   3.437
 1599SOL    HW2 4818   3.624   1.319   3.474
 1600SOL     OW 4819   2.926   1.347   3.202
 1600SOL    HW1 4820   2.846   1.324   3.257
 1600SOL    HW2 4821   3.009   1.321   3.251
 1601SOL     OW 4822   3.454   1.629   3.487
 1601SOL    HW1 4823   3.481   1.663   3.397
 1601SOL    HW2 4824   3.533   1.591   3.533
 1602SOL     OW 4825   2.973   1.195   2.962
 1602SOL    HW1 4826   2.933   1.239   3.043
 1602SOL    HW2 4827   2.932   1.232   2.879
 1603SOL     OW 4828   3.500   1.099   2.941
 1603SOL    HW1 4829   3.505   1.180   3.000
 1603SOL    HW2 4830   3.414   1.101   2.890
 1604SOL     OW 4831   2.777   0.089   3.264
 1604SOL    HW1 4832   2.802   0.069   3.169
 1604SOL    HW2 4833   2.849   0.145   3.306
 1605SOL     OW 4834   2.842   1.116   3.581
 1605SOL    HW1 4835   2.743   1.122   3.591
 1605SOL    HW2 4836   2.865   1.036   3.525
 1606SOL     OW 4837   2.567   1.050   2.230
 1606SOL    HW1 4838   2.553   1.057   2.329
 1606SOL    HW2 4839   2.651   0.999   2.212
 1607SOL     OW 4840   2.272   0.813   3.113
 1607SOL    HW1 4841   2.358   0.825   3.163
 1607SOL    HW2 4842   2.230   0.726   3.140
 1608SOL     OW 4843   3.136   0.386   3.124
 1608SOL    HW1 4844   3.157   0.460   3.188
 1608SOL    HW2 4845   3.047   0.403   3.081
 1609SOL     OW 4846   1.926   1.564   3.193
 1609SOL    HW1 4847   1.880   1.646   3.159
 1609SOL    HW2 4848   2.024   1.583   3.202
 1610SOL     OW 4849   2.229   1.100   2.363
 1610SOL    HW1 4850   2.222   1.183   2.307
 1610SOL    HW2 4851   2.233   1.020   2.303
 1611SOL     OW 4852   2.428   0.537   2.727
 1611SOL    HW1 4853   2.440   0.603   2.653
 1611SOL    HW2 4854   2.474   0.571   2.810
 1612SOL     OW 4855   3.114   1.348   2.250
 1612SOL    HW1 4856   3.164   1.425   2.290
 1612SOL    HW2 4857   3.019   1.350   2.282
 1613SOL     OW 4858   3.134   1.445   3.004
 1613SOL    HW1 4859   3.181   1.458   3.091
 1613SOL    HW2 4860   3.068   1.371   3.013
 1614SOL     OW 4861   3.444   0.639   2.334
 1614SOL    HW1 4862   3.413   0.700   2.407
 1614SOL    HW2 4863   3.494   0.691   2.265
 1615SOL     OW 4864   2.216   1.510   3.191
 1615SOL    HW1 4865   2.195   1.466   3.104
 1615SOL    HW2 4866   2.313   1.536   3.194
 1616SOL     OW 4867   2.264   0.751   3.460
 1616SOL    HW1 4868   2.332   0.806   3.413
 1616SOL    HW2 4869   2.304   0.663   3.487
 1617SOL     OW 4870   3.449   0.779   3.532
 1617SOL    HW1 4871   3.357   0.817   3.527
 1617SOL    HW2 4872   3.509   0.826   3.467
 1618SOL     OW 4873   2.875   0.105   3.632
 1618SOL    HW1 4874   2.881   0.190   3.580
 1618SOL    HW2 4875   2.907   0.029   3.575
 1619SOL     OW 4876   2.366   0.050   3.602
 1619SOL    HW1 4877   2.324  -0.007   3.532
 1619SOL    HW2 4878   2.300   0.119   3.634
 1620SOL     OW 4879   2.435   0.870   2.891
 1620SOL    HW1 4880   2.479   0.959   2.882
 1620SOL    HW2 4881   2.372   0.870   2.968
 1621SOL     OW 4882   3.222   0.862   2.907
 1621SOL    HW1 4883   3.147   0.862   2.841
 1621SOL    HW2 4884   3.259   0.770   2.916
 1622SOL     OW 4885   3.071   0.525   2.137
 1622SOL    HW1 4886   3.084   0.441   2.191
 1622SOL    HW2 4887   3.042   0.599   2.197
 1623SOL     OW 4888   2.169   0.213   3.093
 1623SOL    HW1 4889   2.146   0.250   3.183
 1623SOL    HW2 4890   2.139   0.118   3.087
 1624SOL     OW 4891   1.899   1.310   3.144
 1624SOL    HW1 4892   1.952   1.261   3.212
 1624SOL    HW2 4893   1.921   1.408   3.149
 1625SOL     OW 4894   2.594   0.634   2.926
 1625SOL    HW1 4895   2.653   0.608   2.850
 1625SOL    HW2 4896   2.566   0.730   2.915
 1626SOL     OW 4897   3.590   0.935   3.716
 1626SOL    HW1 4898   3.544   0.928   3.627
 1626SOL    HW2 4899   3.528   0.979   3.782
 1627SOL     OW 4900   2.169   0.063   2.480
 1627SOL    HW1 4901   2.158   0.157   2.513
 1627SOL    HW2 4902   2.164   0.000   2.557
 1628SOL     OW 4903   3.484   0.367   2.236
 1628SOL    HW1 4904   3.486   0.291   2.300
 1628SOL    HW2 4905   3.436   0.444   2.276
 1629SOL     OW 4906   2.885   0.766   2.828
 1629SOL    HW1 4907   2.900   0.787   2.924
 1629SOL    HW2 4908   2.855   0.671   2.819
 1630SOL     OW 4909   2.842   1.573   3.562
 1630SOL    HW1 4910   2.822   1.617   3.474
 1630SOL    HW2 4911   2.881   1.482   3.546
 1631SOL     OW 4912   3.721   1.518   3.467
 1631SOL    HW1 4913   3.735   1.545   3.372
 1631SOL    HW2 4914   3.804   1.540   3.520
 1632SOL     OW 4915   2.212   0.898   3.666
 1632SOL    HW1 4916   2.288   0.942   3.714
 1632SOL    HW2 4917   2.247   0.851   3.584
 1633SOL     OW 4918   3.402   0.274   1.987
 1633SOL    HW1 4919   3.341   0.199   2.010
 1633SOL    HW2 4920   3.424   0.326   2.070
 1634SOL     OW 4921   3.165   0.838   1.904
 1634SOL    HW1 4922   3.199   0.745   1.919
 1634SOL    HW2 4923   3.183   0.865   1.809
 1635SOL     OW 4924   2.930   1.333   2.711
 1635SOL    HW1 4925   2.937   1.249   2.656
 1635SOL    HW2 4926   2.992   1.402   2.675
 1636SOL     OW 4927   2.181   0.810   2.811
 1636SOL    HW1 4928   2.274   0.846   2.816
 1636SOL    HW2 4929   2.175   0.725   2.863
 1637SOL     OW 4930   2.201   0.509   2.868
 1637SOL    HW1 4931   2.149   0.426   2.851
 1637SOL    HW2 4932   2.278   0.514   2.804
 1638SOL     OW 4933   3.000   0.380   3.540
 1638SOL    HW1 4934   2.955   0.443   3.604
 1638SOL    HW2 4935   3.093   0.411   3.523
 1639SOL     OW 4936   3.022   0.207   3.339
 1639SOL    HW1 4937   3.022   0.271   3.416
 1639SOL    HW2 4938   3.050   0.255   3.256
 1640SOL     OW 4939   1.870   1.326   2.062
 1640SOL    HW1 4940   1.777   1.347   2.031
 1640SOL    HW2 4941   1.880   1.227   2.075
 1641SOL     OW 4942   1.950   1.801   2.789
 1641SOL    HW1 4943   1.908   1.715   2.762
 1641SOL    HW2 4944   2.044   1.804   2.755
 1642SOL     OW 4945   2.366   1.568   2.772
 1642SOL    HW1 4946   2.432   1.642   2.781
 1642SOL    HW2 4947   2.410   1.489   2.730
 1643SOL     OW 4948   2.864   0.796   3.100
 1643SOL    HW1 4949   2.905   0.764   3.186
 1643SOL    HW2 4950   2.768   0.769   3.097
 1644SOL     OW 4951   1.902   0.544   2.976
 1644SOL    HW1 4952   1.987   0.511   2.935
 1644SOL    HW2 4953   1.915   0.559   3.074
 1645SOL     OW 4954   2.051   0.520   3.584
 1645SOL    HW1 4955   2.110   0.480   3.514
 1645SOL    HW2 4956   1.993   0.591   3.543
 1646SOL     OW 4957   3.231   0.950   3.522
 1646SOL    HW1 4958   3.270   1.039   3.542
 1646SOL    HW2 4959   3.241   0.930   3.425
 1647SOL     OW 4960   2.677   0.572   2.187
 1647SOL    HW1 4961   2.684   0.483   2.141
 1647SOL    HW2 4962   2.583   0.606   2.179
 1648SOL     OW 4963   3.519   0.604   3.068
 1648SOL    HW1 4964   3.481   0.535   3.130
 1648SOL    HW2 4965   3.601   0.568   3.024
 1649SOL     OW 4966   2.114   1.564   3.606
 1649SOL    HW1 4967   2.084   1.621   3.682
 1649SOL    HW2 4968   2.107   1.467   3.632
 1650SOL     OW 4969   2.533   0.464   3.131
 1650SOL    HW1 4970   2.499   0.375   3.101
 1650SOL    HW2 4971   2.559   0.518   3.051
 1651SOL     OW 4972   2.792   1.678   3.327
 1651SOL    HW1 4973   2.768   1.660   3.232
 1651SOL    HW2 4974   2.822   1.772   3.337
 1652SOL     OW 4975   2.335   0.500   2.053
 1652SOL    HW1 4976   2.396   0.580   2.057
 1652SOL    HW2 4977   2.240   0.531   2.060
 1653SOL     OW 4978   2.021   1.137   3.328
 1653SOL    HW1 4979   2.043   1.076   3.404
 1653SOL    HW2 4980   2.031   1.088   3.242
 1654SOL     OW 4981   3.209   1.059   3.096
 1654SOL    HW1 4982   3.233   0.996   3.022
 1654SOL    HW2 4983   3.119   1.099   3.078
 1655SOL     OW 4984   3.164   0.855   2.171
 1655SOL    HW1 4985   3.078   0.824   2.213
 1655SOL    HW2 4986   3.160   0.841   2.072
 1656SOL     OW 4987   3.621   1.747   3.016
 1656SOL    HW1 4988   3.682   1.777   2.943
 1656SOL    HW2 4989   3.583   1.658   2.994
 1657SOL     OW 4990   3.114   1.731   2.990
 1657SOL    HW1 4991   3.198   1.736   2.936
 1657SOL    HW2 4992   3.091   1.635   3.008
 1658SOL     OW 4993   1.945   1.258   2.884
 1658SOL    HW1 4994   1.940   1.257   2.984
 1658SOL    HW2 4995   1.862   1.217   2.846
 1659SOL     OW 4996   2.550   1.662   3.578
 1659SOL    HW1 4997   2.494   1.743   3.587
 1659SOL    HW2 4998   2.602   1.666   3.492
 1660SOL     OW 4999   3.588   0.135   2.385
 1660SOL    HW1 5000   3.661   0.118   2.318
 1660SOL    HW2 5001   3.557   0.048   2.423
 1661SOL     OW 5002   3.250   1.573   2.339
 1661SOL    HW1 5003   3.317   1.585   2.265
 1661SOL    HW2 5004   3.210   1.662   2.362
 1662SOL     OW 5005   1.992   1.794   3.713
 1662SOL    HW1 5006   1.951   1.720   3.766
 1662SOL    HW2 5007   2.056   1.845   3.771
 1663SOL     OW 5008   3.142   0.927   2.534
 1663SOL    HW1 5009   3.202   0.846   2.536
 1663SOL    HW2 5010   3.182   0.996   2.474
 1664SOL     OW 5011   2.692   1.273   3.284
 1664SOL    HW1 5012   2.687   1.306   3.379
 1664SOL    HW2 5013   2.606   1.292   3.238
 1665SOL     OW 5014   2.534   1.616   2.016
 1665SOL    HW1 5015   2.543   1.626   1.917
 1665SOL    HW2 5016   2.494   1.527   2.037
 1666SOL     OW 5017   3.512   1.720   3.256
 1666SOL    HW1 5018   3.565   1.730   3.172
 1666SOL    HW2 5019   3.485   1.810   3.290
 1667SOL     OW 5020   3.703   0.175   2.825
 1667SOL    HW1 5021   3.742   0.090   2.789
 1667SOL    HW2 5022   3.605   0.177   2.806
 1668SOL     OW 5023   2.125   0.326   2.582
 1668SOL    HW1 5024   2.046   0.377   2.548
 1668SOL    HW2 5025   2.116   0.311   2.680
 1669SOL     OW 5026   3.056   1.612   1.893
 1669SOL    HW1 5027   3.062   1.519   1.930
 1669SOL    HW2 5028   2.997   1.612   1.813
 1670SOL     OW 5029   2.684   1.002   3.234
 1670SOL    HW1 5030   2.724   1.001   3.142
 1670SOL    HW2 5031   2.694   1.094   3.274
 1671SOL     OW 5032   2.778   0.910   2.153
 1671SOL    HW1 5033   2.841   0.948   2.085
 1671SOL    HW2 5034   2.818   0.827   2.192
 1672SOL     OW 5035   3.366   1.607   1.906
 1672SOL    HW1 5036   3.274   1.644   1.913
 1672SOL    HW2 5037   3.404   1.627   1.816
 1673SOL     OW 5038   2.234   1.288   3.352
 1673SOL    HW1 5039   2.221   1.381   3.318
 1673SOL    HW2 5040   2.150   1.236   3.339
 1674SOL     OW 5041   3.476   1.292   3.151
 1674SOL    HW1 5042   3.536   1.295   3.231
 1674SOL    HW2 5043   3.401   1.356   3.164
 1675SOL     OW 5044   2.901   1.098   2.558
 1675SOL    HW1 5045   2.831   1.051   2.612
 1675SOL    HW2 5046   2.960   1.030   2.515
 1676SOL     OW 5047   2.876   0.236   2.833
 1676SOL    HW1 5048   2.868   0.200   2.740
 1676SOL    HW2 5049   2.874   0.160   2.898
 1677SOL     OW 5050   2.452   1.487   2.353
 1677SOL    HW1 5051   2.494   1.429   2.283
 1677SOL    HW2 5052   2.408   1.566   2.309
 1678SOL     OW 5053   3.571   0.385   3.243
 1678SOL    HW1 5054   3.644   0.454   3.247
 1678SOL    HW2 5055   3.599   0.310   3.184
 1679SOL     OW 5056   2.117   1.348   2.152
 1679SOL    HW1 5057   2.021   1.349   2.125
 1679SOL    HW2 5058   2.129   1.401   2.236
 1680SOL     OW 5059   1.967   1.013   3.588
 1680SOL    HW1 5060   1.890   0.980   3.642
 1680SOL    HW2 5061   2.052   0.983   3.630
 1681SOL     OW 5062   2.534   0.203   3.351
 1681SOL    HW1 5063   2.624   0.187   3.311
 1681SOL    HW2 5064   2.542   0.208   3.450
 1682SOL     OW 5065   1.937   0.345   1.895
 1682SOL    HW1 5066   1.845   0.317   1.866
 1682SOL    HW2 5067   1.968   0.422   1.839
 1683SOL     OW 5068   3.302   0.856   3.260
 1683SOL    HW1 5069   3.245   0.908   3.197
 1683SOL    HW2 5070   3.398   0.868   3.236
 1684SOL     OW 5071   1.934   0.166   2.180
 1684SOL    HW1 5072   1.917   0.249   2.126
 1684SOL    HW2 5073   2.024   0.129   2.158
 1685SOL     OW 5074   3.045   1.335   1.981
 1685SOL    HW1 5075   2.946   1.324   1.983
 1685SOL    HW2 5076   3.079   1.350   2.074
 1686SOL     OW 5077   2.475   0.842   3.293
 1686SOL    HW1 5078   2.531   0.923   3.276
 1686SOL    HW2 5079   2.534   0.762   3.296
 1687SOL     OW 5080   3.355   1.767   2.821
 1687SOL    HW1 5081   3.388   1.831   2.752
 1687SOL    HW2 5082   3.421   1.761   2.896
 1688SOL     OW 5083   2.578   0.565   3.570
 1688SOL    HW1 5084   2.597   0.630   3.644
 1688SOL    HW2 5085   2.638   0.485   3.579
 1689SOL     OW 5086   3.312   1.220   3.495
 1689SOL    HW1 5087   3.303   1.210   3.594
 1689SOL    HW2 5088   3.408   1.213   3.469
 1690SOL     OW 5089   2.252   1.741   3.422
 1690SOL    HW1 5090   2.161   1.782   3.420
 1690SOL    HW2 5091   2.245   1.647   3.454
 1691SOL     OW 5092   3.536   0.883   3.116
 1691SOL    HW1 5093   3.509   0.794   3.079
 1691SOL    HW2 5094   3.537   0.951   3.043
 1692SOL     OW 5095   3.087   0.325   2.311
 1692SOL    HW1 5096   3.152   0.251   2.300
 1692SOL    HW2 5097   3.107   0.375   2.395
 1693SOL     OW 5098   2.456   0.745   2.514
 1693SOL    HW1 5099   2.506   0.830   2.495
 1693SOL    HW2 5100   2.368   0.747   2.466
 1694SOL     OW 5101   3.639   0.342   3.504
 1694SOL    HW1 5102   3.622   0.373   3.410
 1694SOL    HW2 5103   3.555   0.305   3.542
 1695SOL     OW 5104   3.592   0.934   3.379
 1695SOL    HW1 5105   3.630   1.025   3.394
 1695SOL    HW2 5106   3.584   0.917   3.280
 1696SOL     OW 5107   2.721   1.374   1.878
 1696SOL    HW1 5108   2.675   1.389   1.966
 1696SOL    HW2 5109   2.765   1.459   1.848
 1697SOL     OW 5110   2.523   1.790   2.815
 1697SOL    HW1 5111   2.477   1.878   2.802
 1697SOL    HW2 5112   2.622   1.802   2.808
 1698SOL     OW 5113   2.721   0.956   2.723
 1698SOL    HW1 5114   2.775   0.887   2.771
 1698SOL    HW2 5115   2.689   1.025   2.789
 1699SOL     OW 5116   2.945   0.984   1.949
 1699SOL    HW1 5117   2.922   1.037   1.867
 1699SOL    HW2 5118   3.026   0.928   1.930
 1700SOL     OW 5119   3.723   1.569   2.713
 1700SOL    HW1 5120   3.652   1.557   2.643
 1700SOL    HW2 5121   3.724   1.490   2.773
 1701SOL     OW 5122   2.083   1.314   3.706
 1701SOL    HW1 5123   2.018   1.241   3.685
 1701SOL    HW2 5124   2.087   1.328   3.804
 1702SOL     OW 5125   1.941   1.240   2.515
 1702SOL    HW1 5126   1.940   1.193   2.603
 1702SOL    HW2 5127   2.023   1.212   2.464
 1703SOL     OW 5128   2.534   1.391   3.486
 1703SOL    HW1 5129   2.456   1.341   3.524
 1703SOL    HW2 5130   2.531   1.486   3.517
 1704SOL     OW 5131   3.686   0.192   3.089
 1704SOL    HW1 5132   3.682   0.102   3.133
 1704SOL    HW2 5133   3.689   0.181   2.990
 1705SOL     OW 5134   2.290   0.424   2.382
 1705SOL    HW1 5135   2.320   0.352   2.320
 1705SOL    HW2 5136   2.251   0.384   2.465
 1706SOL     OW 5137   3.567   1.487   2.966
 1706SOL    HW1 5138   3.474   1.462   2.939
 1706SOL    HW2 5139   3.593   1.437   3.048
 1707SOL     OW 5140   2.179   0.547   3.142
 1707SOL    HW1 5141   2.217   0.488   3.214
 1707SOL    HW2 5142   2.219   0.521   3.054
 1708SOL     OW 5143   2.674   1.586   2.549
 1708SOL    HW1 5144   2.706   1.596   2.455
 1708SOL    HW2 5145   2.595   1.524   2.551
 1709SOL     OW 5146   3.286   0.214   2.974
 1709SOL    HW1 5147   3.338   0.149   3.029
 1709SOL    HW2 5148   3.237   0.277   3.035
 1710SOL     OW 5149   2.863   0.034   3.016
 1710SOL    HW1 5150   2.800  -0.038   2.985
 1710SOL    HW2 5151   2.956  -0.002   3.016
 1711SOL     OW 5152   2.632   1.330   2.163
 1711SOL    HW1 5153   2.586   1.243   2.180
 1711SOL    HW2 5154   2.723   1.327   2.204
 1712SOL     OW 5155   2.480   1.567   3.146
 1712SOL    HW1 5156   2.475   1.649   3.203
 1712SOL    HW2 5157   2.569   1.564   3.101
 1713SOL     OW 5158   3.214   0.052   2.030
 1713SOL    HW1 5159   3.249   0.011   1.946
 1713SOL    HW2 5160   3.124   0.014   2.050
 1714SOL     OW 5161   3.162   0.453   2.553
 1714SOL    HW1 5162   3.103   0.533   2.557
 1714SOL    HW2 5163   3.177   0.418   2.646
 1715SOL     OW 5164   3.455   0.221   2.744
 1715SOL    HW1 5165   3.371   0.220   2.798
 1715SOL    HW2 5166   3.457   0.304   2.688
 1716SOL     OW 5167   1.901   1.077   2.162
 1716SOL    HW1 5168   2.000   1.066   2.153
 1716SOL    HW2 5169   1.861   0.991   2.194
 1717SOL     OW 5170   2.737   1.646   2.199
 1717SOL    HW1 5171   2.660   1.611   2.145
 1717SOL    HW2 5172   2.705   1.717   2.261
 1718SOL     OW 5173   2.092   0.628   3.837
 1718SOL    HW1 5174   1.999   0.626   3.874
 1718SOL    HW2 5175   2.093   0.589   3.745
 1719SOL     OW 5176   1.881   0.368   4.371
 1719SOL    HW1 5177   1.799   0.411   4.410
 1719SOL    HW2 5178   1.853   0.295   4.308
 1720SOL     OW 5179   3.417   1.511   4.427
 1720SOL    HW1 5180   3.360   1.495   4.508
 1720SOL    HW2 5181   3.358   1.521   4.347
 1721SOL     OW 5182   2.997   0.703   4.441
 1721SOL    HW1 5183   3.054   0.781   4.416
 1721SOL    HW2 5184   2.937   0.729   4.517
 1722SOL     OW 5185   3.617   0.607   3.955
 1722SOL    HW1 5186   3.605   0.594   3.856
 1722SOL    HW2 5187   3.587   0.526   4.004
 1723SOL     OW 5188   2.630   1.144   4.747
 1723SOL    HW1 5189   2.552   1.161   4.807
 1723SOL    HW2 5190   2.664   1.231   4.711
 1724SOL     OW 5191   2.547   1.012   4.389
 1724SOL    HW1 5192   2.616   0.996   4.459
 1724SOL    HW2 5193   2.474   1.069   4.427
 1725SOL     OW 5194   3.465   0.447   4.461
 1725SOL    HW1 5195   3.391   0.493   4.411
 1725SOL    HW2 5196   3.516   0.515   4.514
 1726SOL     OW 5197   2.093   1.713   4.207
 1726SOL    HW1 5198   2.127   1.790   4.261
 1726SOL    HW2 5199   2.137   1.713   4.117
 1727SOL     OW 5200   2.092   1.434   4.262
 1727SOL    HW1 5201   2.066   1.530   4.262
 1727SOL    HW2 5202   2.021   1.380   4.307
 1728SOL     OW 5203   2.102   1.091   4.610
 1728SOL    HW1 5204   2.116   1.007   4.662
 1728SOL    HW2 5205   2.047   1.155   4.665
 1729SOL     OW 5206   2.468   0.964   3.847
 1729SOL    HW1 5207   2.475   1.048   3.793
 1729SOL    HW2 5208   2.514   0.977   3.935
 1730SOL     OW 5209   1.984   0.643   4.287
 1730SOL    HW1 5210   1.939   0.555   4.304
 1730SOL    HW2 5211   1.983   0.697   4.371
 1731SOL     OW 5212   3.704   1.767   4.083
 1731SOL    HW1 5213   3.758   1.738   4.163
 1731SOL    HW2 5214   3.734   1.857   4.054
 1732SOL     OW 5215   1.889   1.596   3.841
 1732SOL    HW1 5216   1.870   1.500   3.862
 1732SOL    HW2 5217   1.856   1.654   3.916
 1733SOL     OW 5218   3.551   0.922   4.336
 1733SOL    HW1 5219   3.646   0.893   4.344
 1733SOL    HW2 5220   3.543   0.987   4.261
 1734SOL     OW 5221   3.503   1.108   4.156
 1734SOL    HW1 5222   3.589   1.110   4.104
 1734SOL    HW2 5223   3.517   1.155   4.244
 1735SOL     OW 5224   2.475   1.365   4.450
 1735SOL    HW1 5225   2.426   1.278   4.459
 1735SOL    HW2 5226   2.452   1.408   4.363
 1736SOL     OW 5227   2.671   0.004   4.226
 1736SOL    HW1 5228   2.711   0.095   4.217
 1736SOL    HW2 5229   2.571   0.012   4.232
 1737SOL     OW 5230   3.387   0.999   3.914
 1737SOL    HW1 5231   3.324   0.923   3.927
 1737SOL    HW2 5232   3.435   1.017   4.000
 1738SOL     OW 5233   3.529   1.714   4.296
 1738SOL    HW1 5234   3.488   1.691   4.208
 1738SOL    HW2 5235   3.511   1.640   4.361
 1739SOL     OW 5236   2.460   0.729   3.994
 1739SOL    HW1 5237   2.484   0.798   3.926
 1739SOL    HW2 5238   2.382   0.762   4.048
 1740SOL     OW 5239   3.143   0.345   4.668
 1740SOL    HW1 5240   3.057   0.295   4.655
 1740SOL    HW2 5241   3.205   0.291   4.724
 1741SOL     OW 5242   3.438   1.662   4.031
 1741SOL    HW1 5243   3.527   1.708   4.034
 1741SOL    HW2 5244   3.417   1.638   3.936
 1742SOL     OW 5245   2.903   0.701   4.153
 1742SOL    HW1 5246   2.929   0.697   4.249
 1742SOL    HW2 5247   2.818   0.650   4.139
 1743SOL     OW 5248   1.938   0.811   4.513
 1743SOL    HW1 5249   2.037   0.799   4.522
 1743SOL    HW2 5250   1.914   0.906   4.534
 1744SOL     OW 5251   2.727   0.348   3.919
 1744SOL    HW1 5252   2.786   0.411   3.870
 1744SOL    HW2 5253   2.746   0.254   3.890
 1745SOL     OW 5254   3.224   1.144   4.269
 1745SOL    HW1 5255   3.307   1.115   4.221
 1745SOL    HW2 5256   3.175   1.211   4.213
 1746SOL     OW 5257   2.870   1.456   4.201
 1746SOL    HW1 5258   2.824   1.528   4.149
 1746SOL    HW2 5259   2.866   1.476   4.299
 1747SOL     OW 5260   2.213   1.801   4.577
 1747SOL    HW1 5261   2.263   1.715   4.583
 1747SOL    HW2 5262   2.278   1.878   4.574
 1748SOL     OW 5263   3.657   1.066   4.597
 1748SOL    HW1 5264   3.595   1.051   4.521
 1748SOL    HW2 5265   3.605   1.077   4.682
 1749SOL     OW 5266   2.183   0.943   3.966
 1749SOL    HW1 5267   2.265   0.982   3.924
 1749SOL    HW2 5268   2.156   0.861   3.917
 1750SOL     OW 5269   3.320   0.735   4.452
 1750SOL    HW1 5270   3.315   0.670   4.527
 1750SOL    HW2 5271   3.400   0.794   4.465
 1751SOL     OW 5272   2.973   1.776   3.961
 1751SOL    HW1 5273   2.913   1.714   4.011
 1751SOL    HW2 5274   3.004   1.732   3.876
 1752SOL     OW 5275   3.494   1.377   3.805
 1752SOL    HW1 5276   3.462   1.471   3.795
 1752SOL    HW2 5277   3.418   1.314   3.793
 1753SOL     OW 5278   2.326   1.743   4.047
 1753SOL    HW1 5279   2.359   1.782   4.133
 1753SOL    HW2 5280   2.402   1.736   3.982
 1754SOL     OW 5281   3.262   0.107   4.150
 1754SOL    HW1 5282   3.238   0.070   4.060
 1754SOL    HW2 5283   3.361   0.123   4.154
 1755SOL     OW 5284   2.802   1.698   4.628
 1755SOL    HW1 5285   2.882   1.641   4.649
 1755SOL    HW2 5286   2.753   1.658   4.551
 1756SOL     OW 5287   2.244   0.700   4.204
 1756SOL    HW1 5288   2.289   0.610   4.201
 1756SOL    HW2 5289   2.150   0.689   4.237
 1757SOL     OW 5290   2.476   0.122   3.841
 1757SOL    HW1 5291   2.574   0.100   3.848
 1757SOL    HW2 5292   2.445   0.105   3.748
 1758SOL     OW 5293   2.401   0.064   4.236
 1758SOL    HW1 5294   2.320   0.065   4.294
 1758SOL    HW2 5295   2.404   0.147   4.181
 1759SOL     OW 5296   3.296   1.188   3.765
 1759SOL    HW1 5297   3.328   1.112   3.822
 1759SOL    HW2 5298   3.204   1.215   3.795
 1760SOL     OW 5299   2.159   0.035   3.895
 1760SOL    HW1 5300   2.208   0.119   3.874
 1760SOL    HW2 5301   2.221  -0.030   3.940
 1761SOL     OW 5302   2.797   0.236   4.204
 1761SOL    HW1 5303   2.749   0.277   4.126
 1761SOL    HW2 5304   2.896   0.234   4.185
 1762SOL     OW 5305   2.321   1.152   4.465
 1762SOL    HW1 5306   2.250   1.125   4.530
 1762SOL    HW2 5307   2.295   1.124   4.372
 1763SOL     OW 5308   3.133   1.797   4.315
 1763SOL    HW1 5309   3.177   1.861   4.251
 1763SOL    HW2 5310   3.083   1.849   4.385
 1764SOL     OW 5311   2.894   0.549   3.740
 1764SOL    HW1 5312   2.853   0.631   3.701
 1764SOL    HW2 5313   2.958   0.575   3.813
 1765SOL     OW 5314   2.728   0.454   4.366
 1765SOL    HW1 5315   2.696   0.526   4.304
 1765SOL    HW2 5316   2.752   0.373   4.313
 1766SOL     OW 5317   2.879   0.039   4.477
 1766SOL    HW1 5318   2.807   0.044   4.408
 1766SOL    HW2 5319   2.855  -0.030   4.546
 1767SOL     OW 5320   3.719   0.833   4.101
 1767SOL    HW1 5321   3.761   0.769   4.165
 1767SOL    HW2 5322   3.681   0.782   4.023
 1768SOL     OW 5323   2.350   1.385   3.898
 1768SOL    HW1 5324   2.263   1.370   3.945
 1768SOL    HW2 5325   2.333   1.411   3.803
 1769SOL     OW 5326   3.526   1.280   4.381
 1769SOL    HW1 5327   3.625   1.288   4.395
 1769SOL    HW2 5328   3.481   1.364   4.412
 1770SOL     OW 5329   3.252   0.575   3.802
 1770SOL    HW1 5330   3.198   0.554   3.883
 1770SOL    HW2 5331   3.343   0.534   3.811
 1771SOL     OW 5332   2.389   0.256   4.052
 1771SOL    HW1 5333   2.416   0.197   3.977
 1771SOL    HW2 5334   2.389   0.351   4.021
 1772SOL     OW 5335   2.567   1.050   4.092
 1772SOL    HW1 5336   2.553   1.057   4.191
 1772SOL    HW2 5337   2.651   0.999   4.074
 1773SOL     OW 5338   2.229   1.100   4.225
 1773SOL    HW1 5339   2.222   1.183   4.169
 1773SOL    HW2 5340   2.233   1.020   4.165
 1774SOL     OW 5341   2.428   0.537   4.589
 1774SOL    HW1 5342   2.440   0.603   4.515
 1774SOL    HW2 5343   2.474   0.571   4.672
 1775SOL     OW 5344   3.114   1.348   4.112
 1775SOL    HW1 5345   3.164   1.425   4.152
 1775SOL    HW2 5346   3.019   1.350   4.144
 1776SOL     OW 5347   3.444   0.639   4.196
 1776SOL    HW1 5348   3.413   0.700   4.269
 1776SOL    HW2 5349   3.494   0.691   4.127
 1777SOL     OW 5350   3.071   0.525   3.999
 1777SOL    HW1 5351   3.084   0.441   4.053
 1777SOL    HW2 5352   3.042   0.599   4.059
 1778SOL     OW 5353   2.169   0.063   4.342
 1778SOL    HW1 5354   2.158   0.157   4.375
 1778SOL    HW2 5355   2.164   0.000   4.419
 1779SOL     OW 5356   3.484   0.367   4.098
 1779SOL    HW1 5357   3.486   0.291   4.162
 1779SOL    HW2 5358   3.436   0.444   4.138
 1780SOL     OW 5359   3.402   0.274   3.849
 1780SOL    HW1 5360   3.341   0.199   3.872
 1780SOL    HW2 5361   3.424   0.326   3.932
 1781SOL     OW 5362   3.165   0.838   3.766
 1781SOL    HW1 5363   3.199   0.745   3.781
 1781SOL    HW2 5364   3.183   0.865   3.671
 1782SOL     OW 5365   1.870   1.326   3.924
 1782SOL    HW1 5366   1.777   1.347   3.893
 1782SOL    HW2 5367   1.880   1.227   3.937
 1783SOL     OW 5368   2.677   0.572   4.049
 1783SOL    HW1 5369   2.684   0.483   4.003
 1783SOL    HW2 5370   2.583   0.606   4.041
 1784SOL     OW 5371   2.335   0.500   3.915
 1784SOL    HW1 5372   2.396   0.580   3.919
 1784SOL    HW2 5373   2.240   0.531   3.922
 1785SOL     OW 5374   3.164   0.855   4.033
 1785SOL    HW1 5375   3.078   0.824   4.075
 1785SOL    HW2 5376   3.160   0.841   3.934
 1786SOL     OW 5377   3.588   0.135   4.247
 1786SOL    HW1 5378   3.661   0.118   4.180
 1786SOL    HW2 5379   3.557   0.048   4.285
 1787SOL     OW 5380   3.250   1.573   4.201
 1787SOL    HW1 5381   3.317   1.585   4.127
 1787SOL    HW2 5382   3.210   1.662   4.224
 1788SOL     OW 5383   3.142   0.927   4.396
 1788SOL    HW1 5384   3.202   0.846   4.398
 1788SOL    HW2 5385   3.182   0.996   4.336
 1789SOL     OW 5386   2.534   1.616   3.878
 1789SOL    HW1 5387   2.543   1.626   3.779
 1789SOL    HW2 5388   2.494   1.527   3.899
 1790SOL     OW 5389   3.703   0.175   4.687
 1790SOL    HW1 5390   3.742   0.090   4.651
 1790SOL    HW2 5391   3.605   0.177   4.668
 1791SOL     OW 5392   2.125   0.326   4.444
 1791SOL    HW1 5393   2.046   0.377   4.410
 1791SOL    HW2 5394   2.116   0.311   4.542
 1792SOL     OW 5395   3.056   1.612   3.755
 1792SOL    HW1 5396   3.062   1.519   3.792
 1792SOL    HW2 5397   2.997   1.612   3.675
 1793SOL     OW 5398   2.778   0.910   4.015
 1793SOL    HW1 5399   2.841   0.948   3.947
 1793SOL    HW2 5400   2.818   0.827   4.054
 1794SOL     OW 5401   3.366   1.607   3.768
 1794SOL    HW1 5402   3.274   1.644   3.775
 1794SOL    HW2 5403   3.404   1.627   3.678
 1795SOL     OW 5404   2.901   1.098   4.420
 1795SOL    HW1 5405   2.831   1.051   4.474
 1795SOL    HW2 5406   2.960   1.030   4.377
 1796SOL     OW 5407   2.452   1.487   4.215
 1796SOL    HW1 5408   2.494   1.429   4.145
 1796SOL    HW2 5409   2.408   1.566   4.171
 1797SOL     OW 5410   2.117   1.348   4.014
 1797SOL    HW1 5411   2.021   1.349   3.987
 1797SOL    HW2 5412   2.129   1.401   4.098
 1798SOL     OW 5413   1.937   0.345   3.757
 1798SOL    HW1 5414   1.845   0.317   3.728
 1798SOL    HW2 5415   1.968   0.422   3.701
 1799SOL     OW 5416   1.934   0.166   4.042
 1799SOL    HW1 5417   1.917   0.249   3.988
 1799SOL    HW2 5418   2.024   0.129   4.020
 1800SOL     OW 5419   3.045   1.335   3.843
 1800SOL    HW1 5420   2.946   1.324   3.845
 1800SOL    HW2 5421   3.079   1.350   3.936
 1801SOL     OW 5422   3.087   0.325   4.173
 1801SOL    HW1 5423   3.152   0.251   4.162
 1801SOL    HW2 5424   3.107   0.375   4.257
 1802SOL     OW 5425   2.456   0.745   4.376
 1802SOL    HW1 5426   2.506   0.830   4.357
 1802SOL    HW2 5427   2.368   0.747   4.328
 1803SOL     OW 5428   2.721   1.374   3.740
 1803SOL    HW1 5429   2.675   1.389   3.828
 1803SOL    HW2 5430   2.765   1.459   3.710
 1804SOL     OW 5431   2.523   1.790   4.677
 1804SOL    HW1 5432   2.477   1.878   4.664
 1804SOL    HW2 5433   2.622   1.802   4.670
 1805SOL     OW 5434   2.721   0.956   4.585
 1805SOL    HW1 5435   2.775   0.887   4.633
 1805SOL    HW2 5436   2.689   1.025   4.651
 1806SOL     OW 5437   2.945   0.984   3.811
 1806SOL    HW1 5438   2.922   1.037   3.729
 1806SOL    HW2 5439   3.026   0.928   3.792
 1807SOL     OW 5440   1.941   1.240   4.377
 1807SOL    HW1 5441   1.940   1.193   4.465
 1807SOL    HW2 5442   2.023   1.212   4.326
 1808SOL     OW 5443   2.290   0.424   4.244
 1808SOL    HW1 5444   2.320   0.352   4.182
 1808SOL    HW2 5445   2.251   0.384   4.327
 1809SOL     OW 5446   2.674   1.586   4.411
 1809SOL    HW1 5447   2.706   1.596   4.317
 1809SOL    HW2 5448   2.595   1.524   4.413
 1810SOL     OW 5449   2.632   1.330   4.025
 1810SOL    HW1 5450   2.586   1.243   4.042
 1810SOL    HW2 5451   2.723   1.327   4.066
 1811SOL     OW 5452   3.214   0.052   3.892
 1811SOL    HW1 5453   3.249   0.011   3.808
 1811SOL    HW2 5454   3.124   0.014   3.912
 1812SOL     OW 5455   3.162   0.453   4.415
 1812SOL    HW1 5456   3.103   0.533   4.419
 1812SOL    HW2 5457   3.177   0.418   4.508
 1813SOL     OW 5458   1.901   1.077   4.024
 1813SOL    HW1 5459   2.000   1.066   4.015
 1813SOL    HW2 5460   1.861   0.991   4.056
 1814SOL     OW 5461   2.737   1.646   4.061
 1814SOL    HW1 5462   2.660   1.611   4.007
 1814SOL    HW2 5463   2.705   1.717   4.123
 1815SOL     OW 5464   2.092   2.490   0.113
 1815SOL    HW1 5465   1.999   2.488   0.150
 1815SOL    HW2 5466   2.093   2.451   0.021
 1816SOL     OW 5467   2.087   2.137   0.996
 1816SOL    HW1 5468   2.122   2.120   1.088
 1816SOL    HW2 5469   1.999   2.092   0.984
 1817SOL     OW 5470   1.881   2.230   0.647
 1817SOL    HW1 5471   1.799   2.273   0.686
 1817SOL    HW2 5472   1.853   2.157   0.584
 1818SOL     OW 5473   2.431   3.137   1.165
 1818SOL    HW1 5474   2.338   3.130   1.128
 1818SOL    HW2 5475   2.442   3.226   1.209
 1819SOL     OW 5476   3.417   3.373   0.703
 1819SOL    HW1 5477   3.360   3.357   0.784
 1819SOL    HW2 5478   3.358   3.383   0.623
 1820SOL     OW 5479   2.997   2.565   0.717
 1820SOL    HW1 5480   3.054   2.643   0.692
 1820SOL    HW2 5481   2.937   2.591   0.793
 1821SOL     OW 5482   3.617   2.469   0.231
 1821SOL    HW1 5483   3.605   2.456   0.132
 1821SOL    HW2 5484   3.587   2.388   0.280
 1822SOL     OW 5485   2.630   3.006   1.023
 1822SOL    HW1 5486   2.552   3.023   1.083
 1822SOL    HW2 5487   2.664   3.093   0.987
 1823SOL     OW 5488   2.712   2.660   1.823
 1823SOL    HW1 5489   2.708   2.736   1.888
 1823SOL    HW2 5490   2.734   2.696   1.732
 1824SOL     OW 5491   2.547   2.874   0.665
 1824SOL    HW1 5492   2.616   2.858   0.735
 1824SOL    HW2 5493   2.474   2.931   0.703
 1825SOL     OW 5494   2.548   3.023   1.803
 1825SOL    HW1 5495   2.608   3.102   1.817
 1825SOL    HW2 5496   2.462   3.054   1.762
 1826SOL     OW 5497   2.197   3.297   1.061
 1826SOL    HW1 5498   2.119   3.266   1.008
 1826SOL    HW2 5499   2.255   3.355   1.004
 1827SOL     OW 5500   3.322   3.367   1.339
 1827SOL    HW1 5501   3.346   3.461   1.365
 1827SOL    HW2 5502   3.306   3.313   1.421
 1828SOL     OW 5503   2.300   2.254   1.499
 1828SOL    HW1 5504   2.382   2.198   1.508
 1828SOL    HW2 5505   2.219   2.196   1.503
 1829SOL     OW 5506   3.465   2.309   0.737
 1829SOL    HW1 5507   3.391   2.355   0.687
 1829SOL    HW2 5508   3.516   2.377   0.790
 1830SOL     OW 5509   2.093   3.575   0.483
 1830SOL    HW1 5510   2.127   3.652   0.537
 1830SOL    HW2 5511   2.137   3.575   0.393
 1831SOL     OW 5512   2.989   3.203   1.690
 1831SOL    HW1 5513   3.036   3.203   1.778
 1831SOL    HW2 5514   2.941   3.116   1.679
 1832SOL     OW 5515   2.092   3.296   0.538
 1832SOL    HW1 5516   2.066   3.392   0.538
 1832SOL    HW2 5517   2.021   3.242   0.583
 1833SOL     OW 5518   2.102   2.953   0.886
 1833SOL    HW1 5519   2.116   2.869   0.938
 1833SOL    HW2 5520   2.047   3.017   0.941
 1834SOL     OW 5521   2.482   3.648   1.439
 1834SOL    HW1 5522   2.390   3.631   1.474
 1834SOL    HW2 5523   2.510   3.740   1.465
 1835SOL     OW 5524   2.468   2.826   0.123
 1835SOL    HW1 5525   2.475   2.910   0.069
 1835SOL    HW2 5526   2.514   2.839   0.211
 1836SOL     OW 5527   3.456   1.976   1.480
 1836SOL    HW1 5528   3.438   2.043   1.408
 1836SOL    HW2 5529   3.453   2.022   1.569
 1837SOL     OW 5530   1.984   2.505   0.563
 1837SOL    HW1 5531   1.939   2.417   0.580
 1837SOL    HW2 5532   1.983   2.559   0.647
 1838SOL     OW 5533   3.704   3.629   0.359
 1838SOL    HW1 5534   3.758   3.600   0.439
 1838SOL    HW2 5535   3.734   3.719   0.330
 1839SOL     OW 5536   1.889   3.458   0.117
 1839SOL    HW1 5537   1.870   3.362   0.138
 1839SOL    HW2 5538   1.856   3.516   0.192
 1840SOL     OW 5539   3.551   2.784   0.612
 1840SOL    HW1 5540   3.646   2.755   0.620
 1840SOL    HW2 5541   3.543   2.849   0.537
 1841SOL     OW 5542   3.503   2.970   0.432
 1841SOL    HW1 5543   3.589   2.972   0.380
 1841SOL    HW2 5544   3.517   3.017   0.520
 1842SOL     OW 5545   1.975   2.599   1.597
 1842SOL    HW1 5546   2.063   2.586   1.642
 1842SOL    HW2 5547   1.962   2.696   1.575
 1843SOL     OW 5548   2.475   3.227   0.726
 1843SOL    HW1 5549   2.426   3.140   0.735
 1843SOL    HW2 5550   2.452   3.270   0.639
 1844SOL     OW 5551   3.155   3.090   1.423
 1844SOL    HW1 5552   3.192   3.017   1.365
 1844SOL    HW2 5553   3.207   3.095   1.508
 1845SOL     OW 5554   2.671   1.866   0.502
 1845SOL    HW1 5555   2.711   1.957   0.493
 1845SOL    HW2 5556   2.571   1.874   0.508
 1846SOL     OW 5557   2.059   2.838   1.264
 1846SOL    HW1 5558   2.148   2.793   1.250
 1846SOL    HW2 5559   1.986   2.773   1.245
 1847SOL     OW 5560   3.387   2.861   0.190
 1847SOL    HW1 5561   3.324   2.785   0.203
 1847SOL    HW2 5562   3.435   2.879   0.276
 1848SOL     OW 5563   3.049   3.654   1.616
 1848SOL    HW1 5564   3.073   3.714   1.540
 1848SOL    HW2 5565   3.056   3.559   1.586
 1849SOL     OW 5566   2.179   2.113   1.801
 1849SOL    HW1 5567   2.250   2.184   1.807
 1849SOL    HW2 5568   2.091   2.152   1.829
 1850SOL     OW 5569   3.328   3.279   0.953
 1850SOL    HW1 5570   3.269   3.285   1.033
 1850SOL    HW2 5571   3.313   3.191   0.907
 1851SOL     OW 5572   3.529   3.576   0.572
 1851SOL    HW1 5573   3.488   3.553   0.484
 1851SOL    HW2 5574   3.511   3.502   0.637
 1852SOL     OW 5575   2.460   2.591   0.270
 1852SOL    HW1 5576   2.484   2.660   0.202
 1852SOL    HW2 5577   2.382   2.624   0.324
 1853SOL     OW 5578   3.143   2.207   0.944
 1853SOL    HW1 5579   3.057   2.157   0.931
 1853SOL    HW2 5580   3.205   2.153   1.000
 1854SOL     OW 5581   3.438   3.524   0.307
 1854SOL    HW1 5582   3.527   3.570   0.310
 1854SOL    HW2 5583   3.417   3.500   0.212
 1855SOL     OW 5584   2.669   2.467   1.465
 1855SOL    HW1 5585   2.622   2.464   1.554
 1855SOL    HW2 5586   2.618   2.412   1.399
 1856SOL     OW 5587   3.256   2.331   1.674
 1856SOL    HW1 5588   3.236   2.374   1.762
 1856SOL    HW2 5589   3.334   2.269   1.683
 1857SOL     OW 5590   2.835   2.752   1.572
 1857SOL    HW1 5591   2.881   2.668   1.543
 1857SOL    HW2 5592   2.779   2.786   1.497
 1858SOL     OW 5593   2.853   2.272   1.242
 1858SOL    HW1 5594   2.776   2.306   1.296
 1858SOL    HW2 5595   2.819   2.221   1.163
 1859SOL     OW 5596   2.903   2.563   0.429
 1859SOL    HW1 5597   2.929   2.559   0.525
 1859SOL    HW2 5598   2.818   2.512   0.415
 1860SOL     OW 5599   1.938   2.673   0.789
 1860SOL    HW1 5600   2.037   2.661   0.798
 1860SOL    HW2 5601   1.914   2.768   0.810
 1861SOL     OW 5602   1.992   3.683   1.571
 1861SOL    HW1 5603   1.982   3.668   1.670
 1861SOL    HW2 5604   1.906   3.719   1.535
 1862SOL     OW 5605   2.727   2.210   0.195
 1862SOL    HW1 5606   2.786   2.273   0.146
 1862SOL    HW2 5607   2.746   2.116   0.166
 1863SOL     OW 5608   3.581   2.447   1.831
 1863SOL    HW1 5609   3.555   2.536   1.795
 1863SOL    HW2 5610   3.579   2.379   1.758
 1864SOL     OW 5611   3.224   3.006   0.545
 1864SOL    HW1 5612   3.307   2.977   0.497
 1864SOL    HW2 5613   3.175   3.073   0.489
 1865SOL     OW 5614   2.412   2.058   0.885
 1865SOL    HW1 5615   2.407   2.053   0.985
 1865SOL    HW2 5616   2.414   2.154   0.856
 1866SOL     OW 5617   2.870   3.318   0.477
 1866SOL    HW1 5618   2.824   3.390   0.425
 1866SOL    HW2 5619   2.866   3.338   0.575
 1867SOL     OW 5620   2.213   3.663   0.853
 1867SOL    HW1 5621   2.263   3.577   0.859
 1867SOL    HW2 5622   2.278   3.740   0.850
 1868SOL     OW 5623   3.657   2.928   0.873
 1868SOL    HW1 5624   3.595   2.913   0.797
 1868SOL    HW2 5625   3.605   2.939   0.958
 1869SOL     OW 5626   3.089   3.412   1.506
 1869SOL    HW1 5627   3.095   3.335   1.570
 1869SOL    HW2 5628   3.037   3.386   1.426
 1870SOL     OW 5629   2.183   2.805   0.242
 1870SOL    HW1 5630   2.265   2.844   0.200
 1870SOL    HW2 5631   2.156   2.723   0.193
 1871SOL     OW 5632   3.320   2.597   0.728
 1871SOL    HW1 5633   3.315   2.532   0.803
 1871SOL    HW2 5634   3.400   2.656   0.741
 1872SOL     OW 5635   2.323   3.128   1.727
 1872SOL    HW1 5636   2.273   3.129   1.641
 1872SOL    HW2 5637   2.260   3.110   1.803
 1873SOL     OW 5638   2.973   3.638   0.237
 1873SOL    HW1 5639   2.913   3.576   0.287
 1873SOL    HW2 5640   3.004   3.594   0.152
 1874SOL     OW 5641   2.064   2.147   1.498
 1874SOL    HW1 5642   1.984   2.207   1.485
 1874SOL    HW2 5643   2.054   2.098   1.584
 1875SOL     OW 5644   3.494   3.239   0.081
 1875SOL    HW1 5645   3.462   3.333   0.071
 1875SOL    HW2 5646   3.418   3.176   0.069
 1876SOL     OW 5647   2.326   3.605   0.323
 1876SOL    HW1 5648   2.359   3.644   0.409
 1876SOL    HW2 5649   2.402   3.598   0.258
 1877SOL     OW 5650   3.262   1.969   0.426
 1877SOL    HW1 5651   3.238   1.932   0.336
 1877SOL    HW2 5652   3.361   1.985   0.430
 1878SOL     OW 5653   2.111   3.647   1.241
 1878SOL    HW1 5654   2.168   3.582   1.291
 1878SOL    HW2 5655   2.095   3.614   1.148
 1879SOL     OW 5656   2.802   3.560   0.904
 1879SOL    HW1 5657   2.882   3.503   0.925
 1879SOL    HW2 5658   2.753   3.520   0.827
 1880SOL     OW 5659   2.244   2.562   0.480
 1880SOL    HW1 5660   2.289   2.472   0.477
 1880SOL    HW2 5661   2.150   2.551   0.513
 1881SOL     OW 5662   3.409   2.084   1.729
 1881SOL    HW1 5663   3.404   2.121   1.821
 1881SOL    HW2 5664   3.337   2.015   1.717
 1882SOL     OW 5665   2.643   2.126   1.749
 1882SOL    HW1 5666   2.710   2.065   1.792
 1882SOL    HW2 5667   2.570   2.145   1.814
 1883SOL     OW 5668   2.750   3.376   1.195
 1883SOL    HW1 5669   2.727   3.351   1.101
 1883SOL    HW2 5670   2.811   3.307   1.234
 1884SOL     OW 5671   3.213   2.452   1.433
 1884SOL    HW1 5672   3.241   2.409   1.518
 1884SOL    HW2 5673   3.238   2.548   1.434
 1885SOL     OW 5674   2.665   3.264   0.924
 1885SOL    HW1 5675   2.755   3.278   0.882
 1885SOL    HW2 5676   2.594   3.266   0.853
 1886SOL     OW 5677   2.784   2.365   0.899
 1886SOL    HW1 5678   2.759   2.356   0.803
 1886SOL    HW2 5679   2.832   2.283   0.930
 1887SOL     OW 5680   2.401   1.926   0.512
 1887SOL    HW1 5681   2.320   1.927   0.570
 1887SOL    HW2 5682   2.404   2.009   0.457
 1888SOL     OW 5683   3.296   3.050   0.041
 1888SOL    HW1 5684   3.328   2.974   0.098
 1888SOL    HW2 5685   3.204   3.077   0.071
 1889SOL     OW 5686   2.159   1.897   0.171
 1889SOL    HW1 5687   2.208   1.981   0.150
 1889SOL    HW2 5688   2.221   1.832   0.216
 1890SOL     OW 5689   2.797   2.098   0.480
 1890SOL    HW1 5690   2.749   2.139   0.402
 1890SOL    HW2 5691   2.896   2.096   0.461
 1891SOL     OW 5692   2.938   2.545   1.464
 1891SOL    HW1 5693   2.858   2.484   1.467
 1891SOL    HW2 5694   3.019   2.492   1.440
 1892SOL     OW 5695   3.089   3.432   0.793
 1892SOL    HW1 5696   3.110   3.506   0.728
 1892SOL    HW2 5697   3.157   3.432   0.866
 1893SOL     OW 5698   2.321   3.014   0.741
 1893SOL    HW1 5699   2.250   2.987   0.806
 1893SOL    HW2 5700   2.295   2.986   0.648
 1894SOL     OW 5701   3.133   3.659   0.591
 1894SOL    HW1 5702   3.177   3.723   0.527
 1894SOL    HW2 5703   3.083   3.711   0.661
 1895SOL     OW 5704   2.894   2.411   0.016
 1895SOL    HW1 5705   2.853   2.493  -0.023
 1895SOL    HW2 5706   2.958   2.437   0.089
 1896SOL     OW 5707   1.940   2.418   1.386
 1896SOL    HW1 5708   2.032   2.417   1.345
 1896SOL    HW2 5709   1.934   2.492   1.453
 1897SOL     OW 5710   2.423   2.084   1.147
 1897SOL    HW1 5711   2.461   2.000   1.184
 1897SOL    HW2 5712   2.335   2.103   1.191
 1898SOL     OW 5713   2.728   2.316   0.642
 1898SOL    HW1 5714   2.696   2.388   0.580
 1898SOL    HW2 5715   2.752   2.235   0.589
 1899SOL     OW 5716   2.879   1.901   0.753
 1899SOL    HW1 5717   2.807   1.906   0.684
 1899SOL    HW2 5718   2.855   1.832   0.822
 1900SOL     OW 5719   3.291   3.035   0.867
 1900SOL    HW1 5720   3.236   2.951   0.860
 1900SOL    HW2 5721   3.317   3.064   0.775
 1901SOL     OW 5722   3.328   2.452   0.992
 1901SOL    HW1 5723   3.298   2.357   0.999
 1901SOL    HW2 5724   3.401   2.468   1.058
 1902SOL     OW 5725   3.719   2.695   0.377
 1902SOL    HW1 5726   3.761   2.631   0.441
 1902SOL    HW2 5727   3.681   2.644   0.299
 1903SOL     OW 5728   2.350   3.247   0.174
 1903SOL    HW1 5729   2.263   3.232   0.221
 1903SOL    HW2 5730   2.333   3.273   0.079
 1904SOL     OW 5731   3.526   3.142   0.657
 1904SOL    HW1 5732   3.625   3.150   0.671
 1904SOL    HW2 5733   3.481   3.226   0.688
 1905SOL     OW 5734   3.252   2.437   0.078
 1905SOL    HW1 5735   3.198   2.416   0.159
 1905SOL    HW2 5736   3.343   2.396   0.087
 1906SOL     OW 5737   2.389   2.118   0.328
 1906SOL    HW1 5738   2.416   2.059   0.253
 1906SOL    HW2 5739   2.389   2.213   0.297
 1907SOL     OW 5740   3.616   3.085   1.588
 1907SOL    HW1 5741   3.707   3.046   1.575
 1907SOL    HW2 5742   3.624   3.181   1.612
 1908SOL     OW 5743   2.926   3.209   1.340
 1908SOL    HW1 5744   2.846   3.186   1.395
 1908SOL    HW2 5745   3.009   3.183   1.389
 1909SOL     OW 5746   3.454   3.491   1.625
 1909SOL    HW1 5747   3.481   3.525   1.535
 1909SOL    HW2 5748   3.533   3.453   1.671
 1910SOL     OW 5749   2.973   3.057   1.100
 1910SOL    HW1 5750   2.933   3.101   1.181
 1910SOL    HW2 5751   2.932   3.094   1.017
 1911SOL     OW 5752   3.500   2.961   1.079
 1911SOL    HW1 5753   3.505   3.042   1.138
 1911SOL    HW2 5754   3.414   2.963   1.028
 1912SOL     OW 5755   2.777   1.951   1.402
 1912SOL    HW1 5756   2.802   1.931   1.307
 1912SOL    HW2 5757   2.849   2.007   1.444
 1913SOL     OW 5758   2.842   2.978   1.719
 1913SOL    HW1 5759   2.743   2.984   1.729
 1913SOL    HW2 5760   2.865   2.898   1.663
 1914SOL     OW 5761   2.567   2.912   0.368
 1914SOL    HW1 5762   2.553   2.919   0.467
 1914SOL    HW2 5763   2.651   2.861   0.350
 1915SOL     OW 5764   2.272   2.675   1.251
 1915SOL    HW1 5765   2.358   2.687   1.301
 1915SOL    HW2 5766   2.230   2.588   1.278
 1916SOL     OW 5767   3.136   2.248   1.262
 1916SOL    HW1 5768   3.157   2.322   1.326
 1916SOL    HW2 5769   3.047   2.265   1.219
 1917SOL     OW 5770   1.926   3.426   1.331
 1917SOL    HW1 5771   1.880   3.508   1.297
 1917SOL    HW2 5772   2.024   3.445   1.340
 1918SOL     OW 5773   2.229   2.962   0.501
 1918SOL    HW1 5774   2.222   3.045   0.445
 1918SOL    HW2 5775   2.233   2.882   0.441
 1919SOL     OW 5776   2.428   2.399   0.865
 1919SOL    HW1 5777   2.440   2.465   0.791
 1919SOL    HW2 5778   2.474   2.433   0.948
 1920SOL     OW 5779   3.114   3.210   0.388
 1920SOL    HW1 5780   3.164   3.287   0.428
 1920SOL    HW2 5781   3.019   3.212   0.420
 1921SOL     OW 5782   3.134   3.307   1.142
 1921SOL    HW1 5783   3.181   3.320   1.229
 1921SOL    HW2 5784   3.068   3.233   1.151
 1922SOL     OW 5785   3.444   2.501   0.472
 1922SOL    HW1 5786   3.413   2.562   0.545
 1922SOL    HW2 5787   3.494   2.553   0.403
 1923SOL     OW 5788   2.216   3.372   1.329
 1923SOL    HW1 5789   2.195   3.328   1.242
 1923SOL    HW2 5790   2.313   3.398   1.332
 1924SOL     OW 5791   2.264   2.613   1.598
 1924SOL    HW1 5792   2.332   2.668   1.551
 1924SOL    HW2 5793   2.304   2.525   1.625
 1925SOL     OW 5794   3.449   2.641   1.670
 1925SOL    HW1 5795   3.357   2.679   1.665
 1925SOL    HW2 5796   3.509   2.688   1.605
 1926SOL     OW 5797   2.875   1.967   1.770
 1926SOL    HW1 5798   2.881   2.052   1.718
 1926SOL    HW2 5799   2.907   1.891   1.713
 1927SOL     OW 5800   2.366   1.912   1.740
 1927SOL    HW1 5801   2.324   1.855   1.670
 1927SOL    HW2 5802   2.300   1.981   1.772
 1928SOL     OW 5803   2.435   2.732   1.029
 1928SOL    HW1 5804   2.479   2.821   1.020
 1928SOL    HW2 5805   2.372   2.732   1.106
 1929SOL     OW 5806   3.222   2.724   1.045
 1929SOL    HW1 5807   3.147   2.724   0.979
 1929SOL    HW2 5808   3.259   2.632   1.054
 1930SOL     OW 5809   3.071   2.387   0.275
 1930SOL    HW1 5810   3.084   2.303   0.329
 1930SOL    HW2 5811   3.042   2.461   0.335
 1931SOL     OW 5812   2.169   2.075   1.231
 1931SOL    HW1 5813   2.146   2.112   1.321
 1931SOL    HW2 5814   2.139   1.980   1.225
 1932SOL     OW 5815   1.899   3.172   1.282
 1932SOL    HW1 5816   1.952   3.123   1.350
 1932SOL    HW2 5817   1.921   3.270   1.287
 1933SOL     OW 5818   2.594   2.496   1.064
 1933SOL    HW1 5819   2.653   2.470   0.988
 1933SOL    HW2 5820   2.566   2.592   1.053
 1934SOL     OW 5821   3.590   2.797   1.854
 1934SOL    HW1 5822   3.544   2.790   1.765
 1934SOL    HW2 5823   3.528   2.841   1.920
 1935SOL     OW 5824   2.169   1.925   0.618
 1935SOL    HW1 5825   2.158   2.019   0.651
 1935SOL    HW2 5826   2.164   1.862   0.695
 1936SOL     OW 5827   3.484   2.229   0.374
 1936SOL    HW1 5828   3.486   2.153   0.438
 1936SOL    HW2 5829   3.436   2.306   0.414
 1937SOL     OW 5830   2.885   2.628   0.966
 1937SOL    HW1 5831   2.900   2.649   1.062
 1937SOL    HW2 5832   2.855   2.533   0.957
 1938SOL     OW 5833   2.842   3.435   1.700
 1938SOL    HW1 5834   2.822   3.479   1.612
 1938SOL    HW2 5835   2.881   3.344   1.684
 1939SOL     OW 5836   3.721   3.380   1.605
 1939SOL    HW1 5837   3.735   3.407   1.510
 1939SOL    HW2 5838   3.804   3.402   1.658
 1940SOL     OW 5839   2.212   2.760   1.804
 1940SOL    HW1 5840   2.288   2.804   1.852
 1940SOL    HW2 5841   2.247   2.713   1.722
 1941SOL     OW 5842   3.402   2.136   0.125
 1941SOL    HW1 5843   3.341   2.061   0.148
 1941SOL    HW2 5844   3.424   2.188   0.208
 1942SOL     OW 5845   3.165   2.700   0.042
 1942SOL    HW1 5846   3.199   2.607   0.057
 1942SOL    HW2 5847   3.183   2.727  -0.053
 1943SOL     OW 5848   2.930   3.195   0.849
 1943SOL    HW1 5849   2.937   3.111   0.794
 1943SOL    HW2 5850   2.992   3.264   0.813
 1944SOL     OW 5851   2.181   2.672   0.949
 1944SOL    HW1 5852   2.274   2.708   0.954
 1944SOL    HW2 5853   2.175   2.587   1.001
 1945SOL     OW 5854   2.201   2.371   1.006
 1945SOL    HW1 5855   2.149   2.288   0.989
 1945SOL    HW2 5856   2.278   2.376   0.942
 1946SOL     OW 5857   3.000   2.242   1.678
 1946SOL    HW1 5858   2.955   2.305   1.742
 1946SOL    HW2 5859   3.093   2.273   1.661
 1947SOL     OW 5860   3.022   2.069   1.477
 1947SOL    HW1 5861   3.022   2.133   1.554
 1947SOL    HW2 5862   3.050   2.117   1.394
 1948SOL     OW 5863   1.870   3.188   0.200
 1948SOL    HW1 5864   1.777   3.209   0.169
 1948SOL    HW2 5865   1.880   3.089   0.213
 1949SOL     OW 5866   1.950   3.663   0.927
 1949SOL    HW1 5867   1.908   3.577   0.900
 1949SOL    HW2 5868   2.044   3.666   0.893
 1950SOL     OW 5869   2.366   3.430   0.910
 1950SOL    HW1 5870   2.432   3.504   0.919
 1950SOL    HW2 5871   2.410   3.351   0.868
 1951SOL     OW 5872   2.864   2.658   1.238
 1951SOL    HW1 5873   2.905   2.626   1.324
 1951SOL    HW2 5874   2.768   2.631   1.235
 1952SOL     OW 5875   1.902   2.406   1.114
 1952SOL    HW1 5876   1.987   2.373   1.073
 1952SOL    HW2 5877   1.915   2.421   1.212
 1953SOL     OW 5878   2.051   2.382   1.722
 1953SOL    HW1 5879   2.110   2.342   1.652
 1953SOL    HW2 5880   1.993   2.453   1.681
 1954SOL     OW 5881   3.231   2.812   1.660
 1954SOL    HW1 5882   3.270   2.901   1.680
 1954SOL    HW2 5883   3.241   2.792   1.563
 1955SOL     OW 5884   2.677   2.434   0.325
 1955SOL    HW1 5885   2.684   2.345   0.279
 1955SOL    HW2 5886   2.583   2.468   0.317
 1956SOL     OW 5887   3.519   2.466   1.206
 1956SOL    HW1 5888   3.481   2.397   1.268
 1956SOL    HW2 5889   3.601   2.430   1.162
 1957SOL     OW 5890   2.114   3.426   1.744
 1957SOL    HW1 5891   2.084   3.483   1.820
 1957SOL    HW2 5892   2.107   3.329   1.770
 1958SOL     OW 5893   2.533   2.326   1.269
 1958SOL    HW1 5894   2.499   2.237   1.239
 1958SOL    HW2 5895   2.559   2.380   1.189
 1959SOL     OW 5896   2.792   3.540   1.465
 1959SOL    HW1 5897   2.768   3.522   1.370
 1959SOL    HW2 5898   2.822   3.634   1.475
 1960SOL     OW 5899   2.335   2.362   0.191
 1960SOL    HW1 5900   2.396   2.442   0.195
 1960SOL    HW2 5901   2.240   2.393   0.198
 1961SOL     OW 5902   2.021   2.999   1.466
 1961SOL    HW1 5903   2.043   2.938   1.542
 1961SOL    HW2 5904   2.031   2.950   1.380
 1962SOL     OW 5905   3.209   2.921   1.234
 1962SOL    HW1 5906   3.233   2.858   1.160
 1962SOL    HW2 5907   3.119   2.961   1.216
 1963SOL     OW 5908   3.164   2.717   0.309
 1963SOL    HW1 5909   3.078   2.686   0.351
 1963SOL    HW2 5910   3.160   2.703   0.210
 1964SOL     OW 5911   3.621   3.609   1.154
 1964SOL    HW1 5912   3.682   3.639   1.081
 1964SOL    HW2 5913   3.583   3.520   1.132
 1965SOL     OW 5914   3.114   3.593   1.128
 1965SOL    HW1 5915   3.198   3.598   1.074
 1965SOL    HW2 5916   3.091   3.497   1.146
 1966SOL     OW 5917   1.945   3.120   1.022
 1966SOL    HW1 5918   1.940   3.119   1.122
 1966SOL    HW2 5919   1.862   3.079   0.984
 1967SOL     OW 5920   2.550   3.524   1.716
 1967SOL    HW1 5921   2.494   3.605   1.725
 1967SOL    HW2 5922   2.602   3.528   1.630
 1968SOL     OW 5923   2.765   1.948   0.133
 1968SOL    HW1 5924   2.816   1.949   0.047
 1968SOL    HW2 5925   2.821   1.906   0.204
 1969SOL     OW 5926   3.588   1.997   0.523
 1969SOL    HW1 5927   3.661   1.980   0.456
 1969SOL    HW2 5928   3.557   1.910   0.561
 1970SOL     OW 5929   3.250   3.435   0.477
 1970SOL    HW1 5930   3.317   3.447   0.403
 1970SOL    HW2 5931   3.210   3.524   0.500
 1971SOL     OW 5932   1.992   3.656   1.851
 1971SOL    HW1 5933   1.951   3.582   1.904
 1971SOL    HW2 5934   2.056   3.707   1.909
 1972SOL     OW 5935   3.142   2.789   0.672
 1972SOL    HW1 5936   3.202   2.708   0.674
 1972SOL    HW2 5937   3.182   2.858   0.612
 1973SOL     OW 5938   2.692   3.135   1.422
 1973SOL    HW1 5939   2.687   3.168   1.517
 1973SOL    HW2 5940   2.606   3.154   1.376
 1974SOL     OW 5941   2.534   3.478   0.154
 1974SOL    HW1 5942   2.543   3.488   0.055
 1974SOL    HW2 5943   2.494   3.389   0.175
 1975SOL     OW 5944   3.512   3.582   1.394
 1975SOL    HW1 5945   3.565   3.592   1.310
 1975SOL    HW2 5946   3.485   3.672   1.428
 1976SOL     OW 5947   3.703   2.037   0.963
 1976SOL    HW1 5948   3.742   1.952   0.927
 1976SOL    HW2 5949   3.605   2.039   0.944
 1977SOL     OW 5950   2.125   2.188   0.720
 1977SOL    HW1 5951   2.046   2.239   0.686
 1977SOL    HW2 5952   2.116   2.173   0.818
 1978SOL     OW 5953   3.056   3.474   0.031
 1978SOL    HW1 5954   3.062   3.381   0.068
 1978SOL    HW2 5955   2.997   3.474  -0.049
 1979SOL     OW 5956   2.684   2.864   1.372
 1979SOL    HW1 5957   2.724   2.863   1.280
 1979SOL    HW2 5958   2.694   2.956   1.412
 1980SOL     OW 5959   2.778   2.772   0.291
 1980SOL    HW1 5960   2.841   2.810   0.223
 1980SOL    HW2 5961   2.818   2.689   0.330
 1981SOL     OW 5962   3.366   3.469   0.044
 1981SOL    HW1 5963   3.274   3.506   0.051
 1981SOL    HW2 5964   3.404   3.489  -0.046
 1982SOL     OW 5965   2.234   3.150   1.490
 1982SOL    HW1 5966   2.221   3.243   1.456
 1982SOL    HW2 5967   2.150   3.098   1.477
 1983SOL     OW 5968   3.476   3.154   1.289
 1983SOL    HW1 5969   3.536   3.157   1.369
 1983SOL    HW2 5970   3.401   3.218   1.302
 1984SOL     OW 5971   2.901   2.960   0.696
 1984SOL    HW1 5972   2.831   2.913   0.750
 1984SOL    HW2 5973   2.960   2.892   0.653
 1985SOL     OW 5974   2.876   2.098   0.971
 1985SOL    HW1 5975   2.868   2.062   0.878
 1985SOL    HW2 5976   2.874   2.022   1.036
 1986SOL     OW 5977   2.452   3.349   0.491
 1986SOL    HW1 5978   2.494   3.291   0.421
 1986SOL    HW2 5979   2.408   3.428   0.447
 1987SOL     OW 5980   3.571   2.247   1.381
 1987SOL    HW1 5981   3.644   2.316   1.385
 1987SOL    HW2 5982   3.599   2.172   1.322
 1988SOL     OW 5983   2.117   3.210   0.290
 1988SOL    HW1 5984   2.021   3.211   0.263
 1988SOL    HW2 5985   2.129   3.263   0.374
 1989SOL     OW 5986   1.967   2.875   1.726
 1989SOL    HW1 5987   1.890   2.842   1.780
 1989SOL    HW2 5988   2.052   2.845   1.768
 1990SOL     OW 5989   2.534   2.065   1.489
 1990SOL    HW1 5990   2.624   2.049   1.449
 1990SOL    HW2 5991   2.542   2.070   1.588
 1991SOL     OW 5992   1.937   2.207   0.033
 1991SOL    HW1 5993   1.845   2.179   0.004
 1991SOL    HW2 5994   1.968   2.284  -0.023
 1992SOL     OW 5995   3.302   2.718   1.398
 1992SOL    HW1 5996   3.245   2.770   1.335
 1992SOL    HW2 5997   3.398   2.730   1.374
 1993SOL     OW 5998   1.934   2.028   0.318
 1993SOL    HW1 5999   1.917   2.111   0.264
 1993SOL    HW2 6000   2.024   1.991   0.296
 1994SOL     OW 6001   3.045   3.197   0.119
 1994SOL    HW1 6002   2.946   3.186   0.121
 1994SOL    HW2 6003   3.079   3.212   0.212
 1995SOL     OW 6004   2.475   2.704   1.431
 1995SOL    HW1 6005   2.531   2.785   1.414
 1995SOL    HW2 6006   2.534   2.624   1.434
 1996SOL     OW 6007   3.355   3.629   0.959
 1996SOL    HW1 6008   3.388   3.693   0.890
 1996SOL    HW2 6009   3.421   3.623   1.034
 1997SOL     OW 6010   2.578   2.427   1.708
 1997SOL    HW1 6011   2.597   2.492   1.782
 1997SOL    HW2 6012   2.638   2.347   1.717
 1998SOL     OW 6013   3.312   3.082   1.633
 1998SOL    HW1 6014   3.303   3.072   1.732
 1998SOL    HW2 6015   3.408   3.075   1.607
 1999SOL     OW 6016   2.252   3.603   1.560
 1999SOL    HW1 6017   2.161   3.644   1.558
 1999SOL    HW2 6018   2.245   3.509   1.592
 2000SOL     OW 6019   3.536   2.745   1.254
 2000SOL    HW1 6020   3.509   2.656   1.217
 2000SOL    HW2 6021   3.537   2.813   1.181
 2001SOL     OW 6022   3.087   2.187   0.449
 2001SOL    HW1 6023   3.152   2.113   0.438
 2001SOL    HW2 6024   3.107   2.237   0.533
 2002SOL     OW 6025   2.456   2.607   0.652
 2002SOL    HW1 6026   2.506   2.692   0.633
 2002SOL    HW2 6027   2.368   2.609   0.604
 2003SOL     OW 6028   3.639   2.204   1.642
 2003SOL    HW1 6029   3.622   2.235   1.548
 2003SOL    HW2 6030   3.555   2.167   1.680
 2004SOL     OW 6031   3.592   2.796   1.517
 2004SOL    HW1 6032   3.630   2.887   1.532
 2004SOL    HW2 6033   3.584   2.779   1.418
 2005SOL     OW 6034   2.721   3.236   0.016
 2005SOL    HW1 6035   2.675   3.251   0.104
 2005SOL    HW2 6036   2.765   3.321  -0.014
 2006SOL     OW 6037   2.523   3.652   0.953
 2006SOL    HW1 6038   2.477   3.740   0.940
 2006SOL    HW2 6039   2.622   3.664   0.946
 2007SOL     OW 6040   2.721   2.818   0.861
 2007SOL    HW1 6041   2.775   2.749   0.909
 2007SOL    HW2 6042   2.689   2.887   0.927
 2008SOL     OW 6043   2.945   2.846   0.087
 2008SOL    HW1 6044   2.922   2.899   0.005
 2008SOL    HW2 6045   3.026   2.790   0.068
 2009SOL     OW 6046   3.723   3.431   0.851
 2009SOL    HW1 6047   3.652   3.419   0.781
 2009SOL    HW2 6048   3.724   3.352   0.911
 2010SOL     OW 6049   2.083   3.176   1.844
 2010SOL    HW1 6050   2.018   3.103   1.823
 2010SOL    HW2 6051   2.087   3.190   1.942
 2011SOL     OW 6052   1.941   3.102   0.653
 2011SOL    HW1 6053   1.940   3.055   0.741
 2011SOL    HW2 6054   2.023   3.074   0.602
 2012SOL     OW 6055   2.534   3.253   1.624
 2012SOL    HW1 6056   2.456   3.203   1.662
 2012SOL    HW2 6057   2.531   3.348   1.655
 2013SOL     OW 6058   3.686   2.054   1.227
 2013SOL    HW1 6059   3.682   1.964   1.271
 2013SOL    HW2 6060   3.689   2.043   1.128
 2014SOL     OW 6061   2.290   2.286   0.520
 2014SOL    HW1 6062   2.320   2.214   0.458
 2014SOL    HW2 6063   2.251   2.246   0.603
 2015SOL     OW 6064   3.567   3.349   1.104
 2015SOL    HW1 6065   3.474   3.324   1.077
 2015SOL    HW2 6066   3.593   3.299   1.186
 2016SOL     OW 6067   2.179   2.409   1.280
 2016SOL    HW1 6068   2.217   2.350   1.352
 2016SOL    HW2 6069   2.219   2.383   1.192
 2017SOL     OW 6070   2.674   3.448   0.687
 2017SOL    HW1 6071   2.706   3.458   0.593
 2017SOL    HW2 6072   2.595   3.386   0.689
 2018SOL     OW 6073   3.286   2.076   1.112
 2018SOL    HW1 6074   3.338   2.011   1.167
 2018SOL    HW2 6075   3.237   2.139   1.173
 2019SOL     OW 6076   2.863   1.896   1.154
 2019SOL    HW1 6077   2.800   1.824   1.123
 2019SOL    HW2 6078   2.956   1.860   1.154
 2020SOL     OW 6079   2.632   3.192   0.301
 2020SOL    HW1 6080   2.586   3.105   0.318
 2020SOL    HW2 6081   2.723   3.189   0.342
 2021SOL     OW 6082   2.480   3.429   1.284
 2021SOL    HW1 6083   2.475   3.511   1.341
 2021SOL    HW2 6084   2.569   3.426   1.239
 2022SOL     OW 6085   3.214   1.914   0.168
 2022SOL    HW1 6086   3.249   1.873   0.084
 2022SOL    HW2 6087   3.124   1.876   0.188
 2023SOL     OW 6088   3.162   2.315   0.691
 2023SOL    HW1 6089   3.103   2.395   0.695
 2023SOL    HW2 6090   3.177   2.280   0.784
 2024SOL     OW 6091   3.455   2.083   0.882
 2024SOL    HW1 6092   3.371   2.082   0.936
 2024SOL    HW2 6093   3.457   2.166   0.826
 2025SOL     OW 6094   1.901   2.939   0.300
 2025SOL    HW1 6095   2.000   2.928   0.291
 2025SOL    HW2 6096   1.861   2.853   0.332
 2026SOL     OW 6097   2.737   3.508   0.337
 2026SOL    HW1 6098   2.660   3.473   0.283
 2026SOL    HW2 6099   2.705   3.579   0.399
 2027SOL     OW 6100   2.092   2.490   1.975
 2027SOL    HW1 6101   1.999   2.488   2.012
 2027SOL    HW2 6102   2.093   2.451   1.883
 2028SOL     OW 6103   2.087   2.137   2.858
 2028SOL    HW1 6104   2.122   2.120   2.950
 2028SOL    HW2 6105   1.999   2.092   2.846
 2029SOL     OW 6106   1.881   2.230   2.509
 2029SOL    HW1 6107   1.799   2.273   2.548
 2029SOL    HW2 6108   1.853   2.157   2.446
 2030SOL     OW 6109   2.431   3.137   3.027
 2030SOL    HW1 6110   2.338   3.130   2.990
 2030SOL    HW2 6111   2.442   3.226   3.071
 2031SOL     OW 6112   3.417   3.373   2.565
 2031SOL    HW1 6113   3.360   3.357   2.646
 2031SOL    HW2 6114   3.358   3.383   2.485
 2032SOL     OW 6115   2.997   2.565   2.579
 2032SOL    HW1 6116   3.054   2.643   2.554
 2032SOL    HW2 6117   2.937   2.591   2.655
 2033SOL     OW 6118   3.617   2.469   2.093
 2033SOL    HW1 6119   3.605   2.456   1.994
 2033SOL    HW2 6120   3.587   2.388   2.142
 2034SOL     OW 6121   2.630   3.006   2.885
 2034SOL    HW1 6122   2.552   3.023   2.945
 2034SOL    HW2 6123   2.664   3.093   2.849
 2035SOL     OW 6124   2.712   2.660   3.685
 2035SOL    HW1 6125   2.708   2.736   3.750
 2035SOL    HW2 6126   2.734   2.696   3.594
 2036SOL     OW 6127   2.547   2.874   2.527
 2036SOL    HW1 6128   2.616   2.858   2.597
 2036SOL    HW2 6129   2.474   2.931   2.565
 2037SOL     OW 6130   2.548   3.023   3.665
 2037SOL    HW1 6131   2.608   3.102   3.679
 2037SOL    HW2 6132   2.462   3.054   3.624
 2038SOL     OW 6133   2.197   3.297   2.923
 2038SOL    HW1 6134   2.119   3.266   2.870
 2038SOL    HW2 6135   2.255   3.355   2.866
 2039SOL     OW 6136   3.322   3.367   3.201
 2039SOL    HW1 6137   3.346   3.461   3.227
 2039SOL    HW2 6138   3.306   3.313   3.283
 2040SOL     OW 6139   2.300   2.254   3.361
 2040SOL    HW1 6140   2.382   2.198   3.370
 2040SOL    HW2 6141   2.219   2.196   3.365
 2041SOL     OW 6142   3.465   2.309   2.599
 2041SOL    HW1 6143   3.391   2.355   2.549
 2041SOL    HW2 6144   3.516   2.377   2.652
 2042SOL     OW 6145   2.093   3.575   2.345
 2042SOL    HW1 6146   2.127   3.652   2.399
 2042SOL    HW2 6147   2.137   3.575   2.255
 2043SOL     OW 6148   2.989   3.203   3.552
 2043SOL    HW1 6149   3.036   3.203   3.640
 2043SOL    HW2 6150   2.941   3.116   3.541
 2044SOL     OW 6151   2.092   3.296   2.400
 2044SOL    HW1 6152   2.066   3.392   2.400
 2044SOL    HW2 6153   2.021   3.242   2.445
 2045SOL     OW 6154   2.102   2.953   2.748
 2045SOL    HW1 6155   2.116   2.869   2.800
 2045SOL    HW2 6156   2.047   3.017   2.803
 2046SOL     OW 6157   2.482   3.648   3.301
 2046SOL    HW1 6158   2.390   3.631   3.336
 2046SOL    HW2 6159   2.510   3.740   3.327
 2047SOL     OW 6160   2.468   2.826   1.985
 2047SOL    HW1 6161   2.475   2.910   1.931
 2047SOL    HW2 6162   2.514   2.839   2.073
 2048SOL     OW 6163   3.456   1.976   3.342
 2048SOL    HW1 6164   3.438   2.043   3.270
 2048SOL    HW2 6165   3.453   2.022   3.431
 2049SOL     OW 6166   1.984   2.505   2.425
 2049SOL    HW1 6167   1.939   2.417   2.442
 2049SOL    HW2 6168   1.983   2.559   2.509
 2050SOL     OW 6169   3.704   3.629   2.221
 2050SOL    HW1 6170   3.758   3.600   2.301
 2050SOL    HW2 6171   3.734   3.719   2.192
 2051SOL     OW 6172   1.889   3.458   1.979
 2051SOL    HW1 6173   1.870   3.362   2.000
 2051SOL    HW2 6174   1.856   3.516   2.054
 2052SOL     OW 6175   3.551   2.784   2.474
 2052SOL    HW1 6176   3.646   2.755   2.482
 2052SOL    HW2 6177   3.543   2.849   2.399
 2053SOL     OW 6178   3.503   2.970   2.294
 2053SOL    HW1 6179   3.589   2.972   2.242
 2053SOL    HW2 6180   3.517   3.017   2.382
 2054SOL     OW 6181   1.975   2.599   3.459
 2054SOL    HW1 6182   2.063   2.586   3.504
 2054SOL    HW2 6183   1.962   2.696   3.437
 2055SOL     OW 6184   2.475   3.227   2.588
 2055SOL    HW1 6185   2.426   3.140   2.597
 2055SOL    HW2 6186   2.452   3.270   2.501
 2056SOL     OW 6187   3.155   3.090   3.285
 2056SOL    HW1 6188   3.192   3.017   3.227
 2056SOL    HW2 6189   3.207   3.095   3.370
 2057SOL     OW 6190   2.671   1.866   2.364
 2057SOL    HW1 6191   2.711   1.957   2.355
 2057SOL    HW2 6192   2.571   1.874   2.370
 2058SOL     OW 6193   2.059   2.838   3.126
 2058SOL    HW1 6194   2.148   2.793   3.112
 2058SOL    HW2 6195   1.986   2.773   3.107
 2059SOL     OW 6196   3.387   2.861   2.052
 2059SOL    HW1 6197   3.324   2.785   2.065
 2059SOL    HW2 6198   3.435   2.879   2.138
 2060SOL     OW 6199   3.049   3.654   3.478
 2060SOL    HW1 6200   3.073   3.714   3.402
 2060SOL    HW2 6201   3.056   3.559   3.448
 2061SOL     OW 6202   2.179   2.113   3.663
 2061SOL    HW1 6203   2.250   2.184   3.669
 2061SOL    HW2 6204   2.091   2.152   3.691
 2062SOL     OW 6205   3.328   3.279   2.815
 2062SOL    HW1 6206   3.269   3.285   2.895
 2062SOL    HW2 6207   3.313   3.191   2.769
 2063SOL     OW 6208   3.529   3.576   2.434
 2063SOL    HW1 6209   3.488   3.553   2.346
 2063SOL    HW2 6210   3.511   3.502   2.499
 2064SOL     OW 6211   2.460   2.591   2.132
 2064SOL    HW1 6212   2.484   2.660   2.064
 2064SOL    HW2 6213   2.382   2.624   2.186
 2065SOL     OW 6214   3.143   2.207   2.806
 2065SOL    HW1 6215   3.057   2.157   2.793
 2065SOL    HW2 6216   3.205   2.153   2.862
 2066SOL     OW 6217   3.438   3.524   2.169
 2066SOL    HW1 6218   3.527   3.570   2.172
 2066SOL    HW2 6219   3.417   3.500   2.074
 2067SOL     OW 6220   2.669   2.467   3.327
 2067SOL    HW1 6221   2.622   2.464   3.416
 2067SOL    HW2 6222   2.618   2.412   3.261
 2068SOL     OW 6223   3.256   2.331   3.536
 2068SOL    HW1 6224   3.236   2.374   3.624
 2068SOL    HW2 6225   3.334   2.269   3.545
 2069SOL     OW 6226   2.835   2.752   3.434
 2069SOL    HW1 6227   2.881   2.668   3.405
 2069SOL    HW2 6228   2.779   2.786   3.359
 2070SOL     OW 6229   2.853   2.272   3.104
 2070SOL    HW1 6230   2.776   2.306   3.158
 2070SOL    HW2 6231   2.819   2.221   3.025
 2071SOL     OW 6232   2.903   2.563   2.291
 2071SOL    HW1 6233   2.929   2.559   2.387
 2071SOL    HW2 6234   2.818   2.512   2.277
 2072SOL     OW 6235   1.938   2.673   2.651
 2072SOL    HW1 6236   2.037   2.661   2.660
 2072SOL    HW2 6237   1.914   2.768   2.672
 2073SOL     OW 6238   1.992   3.683   3.433
 2073SOL    HW1 6239   1.982   3.668   3.532
 2073SOL    HW2 6240   1.906   3.719   3.397
 2074SOL     OW 6241   2.727   2.210   2.057
 2074SOL    HW1 6242   2.786   2.273   2.008
 2074SOL    HW2 6243   2.746   2.116   2.028
 2075SOL     OW 6244   3.581   2.447   3.693
 2075SOL    HW1 6245   3.555   2.536   3.657
 2075SOL    HW2 6246   3.579   2.379   3.620
 2076SOL     OW 6247   3.224   3.006   2.407
 2076SOL    HW1 6248   3.307   2.977   2.359
 2076SOL    HW2 6249   3.175   3.073   2.351
 2077SOL     OW 6250   2.412   2.058   2.747
 2077SOL    HW1 6251   2.407   2.053   2.847
 2077SOL    HW2 6252   2.414   2.154   2.718
 2078SOL     OW 6253   2.870   3.318   2.339
 2078SOL    HW1 6254   2.824   3.390   2.287
 2078SOL    HW2 6255   2.866   3.338   2.437
 2079SOL     OW 6256   2.213   3.663   2.715
 2079SOL    HW1 6257   2.263   3.577   2.721
 2079SOL    HW2 6258   2.278   3.740   2.712
 2080SOL     OW 6259   3.657   2.928   2.735
 2080SOL    HW1 6260   3.595   2.913   2.659
 2080SOL    HW2 6261   3.605   2.939   2.820
 2081SOL     OW 6262   3.089   3.412   3.368
 2081SOL    HW1 6263   3.095   3.335   3.432
 2081SOL    HW2 6264   3.037   3.386   3.288
 2082SOL     OW 6265   2.183   2.805   2.104
 2082SOL    HW1 6266   2.265   2.844   2.062
 2082SOL    HW2 6267   2.156   2.723   2.055
 2083SOL     OW 6268   3.320   2.597   2.590
 2083SOL    HW1 6269   3.315   2.532   2.665
 2083SOL    HW2 6270   3.400   2.656   2.603
 2084SOL     OW 6271   2.323   3.128   3.589
 2084SOL    HW1 6272   2.273   3.129   3.503
 2084SOL    HW2 6273   2.260   3.110   3.665
 2085SOL     OW 6274   2.973   3.638   2.099
 2085SOL    HW1 6275   2.913   3.576   2.149
 2085SOL    HW2 6276   3.004   3.594   2.014
 2086SOL     OW 6277   2.064   2.147   3.360
 2086SOL    HW1 6278   1.984   2.207   3.347
 2086SOL    HW2 6279   2.054   2.098   3.446
 2087SOL     OW 6280   3.494   3.239   1.943
 2087SOL    HW1 6281   3.462   3.333   1.933
 2087SOL    HW2 6282   3.418   3.176   1.931
 2088SOL     OW 6283   2.326   3.605   2.185
 2088SOL    HW1 6284   2.359   3.644   2.271
 2088SOL    HW2 6285   2.402   3.598   2.120
 2089SOL     OW 6286   3.262   1.969   2.288
 2089SOL    HW1 6287   3.238   1.932   2.198
 2089SOL    HW2 6288   3.361   1.985   2.292
 2090SOL     OW 6289   2.111   3.647   3.103
 2090SOL    HW1 6290   2.168   3.582   3.153
 2090SOL    HW2 6291   2.095   3.614   3.010
 2091SOL     OW 6292   2.802   3.560   2.766
 2091SOL    HW1 6293   2.882   3.503   2.787
 2091SOL    HW2 6294   2.753   3.520   2.689
 2092SOL     OW 6295   3.409   2.084   3.591
 2092SOL    HW1 6296   3.404   2.121   3.683
 2092SOL    HW2 6297   3.337   2.015   3.579
 2093SOL     OW 6298   2.476   1.984   1.979
 2093SOL    HW1 6299   2.574   1.962   1.986
 2093SOL    HW2 6300   2.445   1.967   1.886
 2094SOL     OW 6301   2.643   2.126   3.611
 2094SOL    HW1 6302   2.710   2.065   3.654
 2094SOL    HW2 6303   2.570   2.145   3.676
 2095SOL     OW 6304   2.750   3.376   3.057
 2095SOL    HW1 6305   2.727   3.351   2.963
 2095SOL    HW2 6306   2.811   3.307   3.096
 2096SOL     OW 6307   3.213   2.452   3.295
 2096SOL    HW1 6308   3.241   2.409   3.380
 2096SOL    HW2 6309   3.238   2.548   3.296
 2097SOL     OW 6310   2.665   3.264   2.786
 2097SOL    HW1 6311   2.755   3.278   2.744
 2097SOL    HW2 6312   2.594   3.266   2.715
 2098SOL     OW 6313   2.784   2.365   2.761
 2098SOL    HW1 6314   2.759   2.356   2.665
 2098SOL    HW2 6315   2.832   2.283   2.792
 2099SOL     OW 6316   3.296   3.050   1.903
 2099SOL    HW1 6317   3.328   2.974   1.960
 2099SOL    HW2 6318   3.204   3.077   1.933
 2100SOL     OW 6319   2.159   1.897   2.033
 2100SOL    HW1 6320   2.208   1.981   2.012
 2100SOL    HW2 6321   2.221   1.832   2.078
 2101SOL     OW 6322   2.797   2.098   2.342
 2101SOL    HW1 6323   2.749   2.139   2.264
 2101SOL    HW2 6324   2.896   2.096   2.323
 2102SOL     OW 6325   2.938   2.545   3.326
 2102SOL    HW1 6326   2.858   2.484   3.329
 2102SOL    HW2 6327   3.019   2.492   3.302
 2103SOL     OW 6328   3.089   3.432   2.655
 2103SOL    HW1 6329   3.110   3.506   2.590
 2103SOL    HW2 6330   3.157   3.432   2.728
 2104SOL     OW 6331   2.321   3.014   2.603
 2104SOL    HW1 6332   2.250   2.987   2.668
 2104SOL    HW2 6333   2.295   2.986   2.510
 2105SOL     OW 6334   3.133   3.659   2.453
 2105SOL    HW1 6335   3.177   3.723   2.389
 2105SOL    HW2 6336   3.083   3.711   2.523
 2106SOL     OW 6337   2.894   2.411   1.878
 2106SOL    HW1 6338   2.853   2.493   1.839
 2106SOL    HW2 6339   2.958   2.437   1.951
 2107SOL     OW 6340   1.940   2.418   3.248
 2107SOL    HW1 6341   2.032   2.417   3.207
 2107SOL    HW2 6342   1.934   2.492   3.315
 2108SOL     OW 6343   2.423   2.084   3.009
 2108SOL    HW1 6344   2.461   2.000   3.046
 2108SOL    HW2 6345   2.335   2.103   3.053
 2109SOL     OW 6346   2.728   2.316   2.504
 2109SOL    HW1 6347   2.696   2.388   2.442
 2109SOL    HW2 6348   2.752   2.235   2.451
 2110SOL     OW 6349   2.879   1.901   2.615
 2110SOL    HW1 6350   2.807   1.906   2.546
 2110SOL    HW2 6351   2.855   1.832   2.684
 2111SOL     OW 6352   3.291   3.035   2.729
 2111SOL    HW1 6353   3.236   2.951   2.722
 2111SOL    HW2 6354   3.317   3.064   2.637
 2112SOL     OW 6355   3.328   2.452   2.854
 2112SOL    HW1 6356   3.298   2.357   2.861
 2112SOL    HW2 6357   3.401   2.468   2.920
 2113SOL     OW 6358   3.719   2.695   2.239
 2113SOL    HW1 6359   3.761   2.631   2.303
 2113SOL    HW2 6360   3.681   2.644   2.161
 2114SOL     OW 6361   2.350   3.247   2.036
 2114SOL    HW1 6362   2.263   3.232   2.083
 2114SOL    HW2 6363   2.333   3.273   1.941
 2115SOL     OW 6364   3.526   3.142   2.519
 2115SOL    HW1 6365   3.625   3.150   2.533
 2115SOL    HW2 6366   3.481   3.226   2.550
 2116SOL     OW 6367   3.252   2.437   1.940
 2116SOL    HW1 6368   3.198   2.416   2.021
 2116SOL    HW2 6369   3.343   2.396   1.949
 2117SOL     OW 6370   3.616   3.085   3.450
 2117SOL    HW1 6371   3.707   3.046   3.437
 2117SOL    HW2 6372   3.624   3.181   3.474
 2118SOL     OW 6373   2.926   3.209   3.202
 2118SOL    HW1 6374   2.846   3.186   3.257
 2118SOL    HW2 6375   3.009   3.183   3.251
 2119SOL     OW 6376   3.454   3.491   3.487
 2119SOL    HW1 6377   3.481   3.525   3.397
 2119SOL    HW2 6378   3.533   3.453   3.533
 2120SOL     OW 6379   2.973   3.057   2.962
 2120SOL    HW1 6380   2.933   3.101   3.043
 2120SOL    HW2 6381   2.932   3.094   2.879
 2121SOL     OW 6382   3.500   2.961   2.941
 2121SOL    HW1 6383   3.505   3.042   3.000
 2121SOL    HW2 6384   3.414   2.963   2.890
 2122SOL     OW 6385   2.777   1.951   3.264
 2122SOL    HW1 6386   2.802   1.931   3.169
 2122SOL    HW2 6387   2.849   2.007   3.306
 2123SOL     OW 6388   2.842   2.978   3.581
 2123SOL    HW1 6389   2.743   2.984   3.591
 2123SOL    HW2 6390   2.865   2.898   3.525
 2124SOL     OW 6391   2.567   2.912   2.230
 2124SOL    HW1 6392   2.553   2.919   2.329
 2124SOL    HW2 6393   2.651   2.861   2.212
 2125SOL     OW 6394   2.272   2.675   3.113
 2125SOL    HW1 6395   2.358   2.687   3.163
 2125SOL    HW2 6396   2.230   2.588   3.140
 2126SOL     OW 6397   3.136   2.248   3.124
 2126SOL    HW1 6398   3.157   2.322   3.188
 2126SOL    HW2 6399   3.047   2.265   3.081
 2127SOL     OW 6400   1.926   3.426   3.193
 2127SOL    HW1 6401   1.880   3.508   3.159
 2127SOL    HW2 6402   2.024   3.445   3.202
 2128SOL     OW 6403   2.229   2.962   2.363
 2128SOL    HW1 6404   2.222   3.045   2.307
 2128SOL    HW2 6405   2.233   2.882   2.303
 2129SOL     OW 6406   2.428   2.399   2.727
 2129SOL    HW1 6407   2.440   2.465   2.653
 2129SOL    HW2 6408   2.474   2.433   2.810
 2130SOL     OW 6409   3.114   3.210   2.250
 2130SOL    HW1 6410   3.164   3.287   2.290
 2130SOL    HW2 6411   3.019   3.212   2.282
 2131SOL     OW 6412   3.134   3.307   3.004
 2131SOL    HW1 6413   3.181   3.320   3.091
 2131SOL    HW2 6414   3.068   3.233   3.013
 2132SOL     OW 6415   3.444   2.501   2.334
 2132SOL    HW1 6416   3.413   2.562   2.407
 2132SOL    HW2 6417   3.494   2.553   2.265
 2133SOL     OW 6418   2.216   3.372   3.191
 2133SOL    HW1 6419   2.195   3.328   3.104
 2133SOL    HW2 6420   2.313   3.398   3.194
 2134SOL     OW 6421   2.264   2.613   3.460
 2134SOL    HW1 6422   2.332   2.668   3.413
 2134SOL    HW2 6423   2.304   2.525   3.487
 2135SOL     OW 6424   3.449   2.641   3.532
 2135SOL    HW1 6425   3.357   2.679   3.527
 2135SOL    HW2 6426   3.509   2.688   3.467
 2136SOL     OW 6427   2.875   1.967   3.632
 2136SOL    HW1 6428   2.881   2.052   3.580
 2136SOL    HW2 6429   2.907   1.891   3.575
 2137SOL     OW 6430   2.366   1.912   3.602
 2137SOL    HW1 6431   2.324   1.855   3.532
 2137SOL    HW2 6432   2.300   1.981   3.634
 2138SOL     OW 6433   2.435   2.732   2.891
 2138SOL    HW1 6434   2.479   2.821   2.882
 2138SOL    HW2 6435   2.372   2.732   2.968
 2139SOL     OW 6436   3.222   2.724   2.907
 2139SOL    HW1 6437   3.147   2.724   2.841
 2139SOL    HW2 6438   3.259   2.632   2.916
 2140SOL     OW 6439   3.071   2.387   2.137
 2140SOL    HW1 6440   3.084   2.303   2.191
 2140SOL    HW2 6441   3.042   2.461   2.197
 2141SOL     OW 6442   2.169   2.075   3.093
 2141SOL    HW1 6443   2.146   2.112   3.183
 2141SOL    HW2 6444   2.139   1.980   3.087
 2142SOL     OW 6445   1.899   3.172   3.144
 2142SOL    HW1 6446   1.952   3.123   3.212
 2142SOL    HW2 6447   1.921   3.270   3.149
 2143SOL     OW 6448   2.594   2.496   2.926
 2143SOL    HW1 6449   2.653   2.470   2.850
 2143SOL    HW2 6450   2.566   2.592   2.915
 2144SOL     OW 6451   3.590   2.797   3.716
 2144SOL    HW1 6452   3.544   2.790   3.627
 2144SOL    HW2 6453   3.528   2.841   3.782
 2145SOL     OW 6454   2.169   1.925   2.480
 2145SOL    HW1 6455   2.158   2.019   2.513
 2145SOL    HW2 6456   2.164   1.862   2.557
 2146SOL     OW 6457   3.484   2.229   2.236
 2146SOL    HW1 6458   3.486   2.153   2.300
 2146SOL    HW2 6459   3.436   2.306   2.276
 2147SOL     OW 6460   2.885   2.628   2.828
 2147SOL    HW1 6461   2.900   2.649   2.924
 2147SOL    HW2 6462   2.855   2.533   2.819
 2148SOL     OW 6463   2.842   3.435   3.562
 2148SOL    HW1 6464   2.822   3.479   3.474
 2148SOL    HW2 6465   2.881   3.344   3.546
 2149SOL     OW 6466   3.721   3.380   3.467
 2149SOL    HW1 6467   3.735   3.407   3.372
 2149SOL    HW2 6468   3.804   3.402   3.520
 2150SOL     OW 6469   2.212   2.760   3.666
 2150SOL    HW1 6470   2.288   2.804   3.714
 2150SOL    HW2 6471   2.247   2.713   3.584
 2151SOL     OW 6472   3.402   2.136   1.987
 2151SOL    HW1 6473   3.341   2.061   2.010
 2151SOL    HW2 6474   3.424   2.188   2.070
 2152SOL     OW 6475   3.165   2.700   1.904
 2152SOL    HW1 6476   3.199   2.607   1.919
 2152SOL    HW2 6477   3.183   2.727   1.809
 2153SOL     OW 6478   2.930   3.195   2.711
 2153SOL    HW1 6479   2.937   3.111   2.656
 2153SOL    HW2 6480   2.992   3.264   2.675
 2154SOL     OW 6481   2.181   2.672   2.811
 2154SOL    HW1 6482   2.274   2.708   2.816
 2154SOL    HW2 6483   2.175   2.587   2.863
 2155SOL     OW 6484   2.201   2.371   2.868
 2155SOL    HW1 6485   2.149   2.288   2.851
 2155SOL    HW2 6486   2.278   2.376   2.804
 2156SOL     OW 6487   3.000   2.242   3.540
 2156SOL    HW1 6488   2.955   2.305   3.604
 2156SOL    HW2 6489   3.093   2.273   3.523
 2157SOL     OW 6490   3.022   2.069   3.339
 2157SOL    HW1 6491   3.022   2.133   3.416
 2157SOL    HW2 6492   3.050   2.117   3.256
 2158SOL     OW 6493   1.870   3.188   2.062
 2158SOL    HW1 6494   1.777   3.209   2.031
 2158SOL    HW2 6495   1.880   3.089   2.075
 2159SOL     OW 6496   1.950   3.663   2.789
 2159SOL    HW1 6497   1.908   3.577   2.762
 2159SOL    HW2 6498   2.044   3.666   2.755
 2160SOL     OW 6499   2.366   3.430   2.772
 2160SOL    HW1 6500   2.432   3.504   2.781
 2160SOL    HW2 6501   2.410   3.351   2.730
 2161SOL     OW 6502   2.864   2.658   3.100
 2161SOL    HW1 6503   2.905   2.626   3.186
 2161SOL    HW2 6504   2.768   2.631   3.097
 2162SOL     OW 6505   1.902   2.406   2.976
 2162SOL    HW1 6506   1.987   2.373   2.935
 2162SOL    HW2 6507   1.915   2.421   3.074
 2163SOL     OW 6508   2.051   2.382   3.584
 2163SOL    HW1 6509   2.110   2.342   3.514
 2163SOL    HW2 6510   1.993   2.453   3.543
 2164SOL     OW 6511   3.231   2.812   3.522
 2164SOL    HW1 6512   3.270   2.901   3.542
 2164SOL    HW2 6513   3.241   2.792   3.425
 2165SOL     OW 6514   2.677   2.434   2.187
 2165SOL    HW1 6515   2.684   2.345   2.141
 2165SOL    HW2 6516   2.583   2.468   2.179
 2166SOL     OW 6517   3.519   2.466   3.068
 2166SOL    HW1 6518   3.481   2.397   3.130
 2166SOL    HW2 6519   3.601   2.430   3.024
 2167SOL     OW 6520   2.114   3.426   3.606
 2167SOL    HW1 6521   2.084   3.483   3.682
 2167SOL    HW2 6522   2.107   3.329   3.632
 2168SOL     OW 6523   2.533   2.326   3.131
 2168SOL    HW1 6524   2.499   2.237   3.101
 2168SOL    HW2 6525   2.559   2.380   3.051
 2169SOL     OW 6526   2.792   3.540   3.327
 2169SOL    HW1 6527   2.768   3.522   3.232
 2169SOL    HW2 6528   2.822   3.634   3.337
 2170SOL     OW 6529   2.021   2.999   3.328
 2170SOL    HW1 6530   2.043   2.938   3.404
 2170SOL    HW2 6531   2.031   2.950   3.242
 2171SOL     OW 6532   3.209   2.921   3.096
 2171SOL    HW1 6533   3.233   2.858   3.022
 2171SOL    HW2 6534   3.119   2.961   3.078
 2172SOL     OW 6535   3.164   2.717   2.171
 2172SOL    HW1 6536   3.078   2.686   2.213
 2172SOL    HW2 6537   3.160   2.703   2.072
 2173SOL     OW 6538   3.621   3.609   3.016
 2173SOL    HW1 6539   3.682   3.639   2.943
 2173SOL    HW2 6540   3.583   3.520   2.994
 2174SOL     OW 6541   3.114   3.593   2.990
 2174SOL    HW1 6542   3.198   3.598   2.936
 2174SOL    HW2 6543   3.091   3.497   3.008
 2175SOL     OW 6544   1.945   3.120   2.884
 2175SOL    HW1 6545   1.940   3.119   2.984
 2175SOL    HW2 6546   1.862   3.079   2.846
 2176SOL     OW 6547   2.550   3.524   3.578
 2176SOL    HW1 6548   2.494   3.605   3.587
 2176SOL    HW2 6549   2.602   3.528   3.492
 2177SOL     OW 6550   3.588   1.997   2.385
 2177SOL    HW1 6551   3.661   1.980   2.318
 2177SOL    HW2 6552   3.557   1.910   2.423
 2178SOL     OW 6553   3.250   3.435   2.339
 2178SOL    HW1 6554   3.317   3.447   2.265
 2178SOL    HW2 6555   3.210   3.524   2.362
 2179SOL     OW 6556   1.992   3.656   3.713
 2179SOL    HW1 6557   1.951   3.582   3.766
 2179SOL    HW2 6558   2.056   3.707   3.771
 2180SOL     OW 6559   3.142   2.789   2.534
 2180SOL    HW1 6560   3.202   2.708   2.536
 2180SOL    HW2 6561   3.182   2.858   2.474
 2181SOL     OW 6562   2.692   3.135   3.284
 2181SOL    HW1 6563   2.687   3.168   3.379
 2181SOL    HW2 6564   2.606   3.154   3.238
 2182SOL     OW 6565   2.534   3.478   2.016
 2182SOL    HW1 6566   2.543   3.488   1.917
 2182SOL    HW2 6567   2.494   3.389   2.037
 2183SOL     OW 6568   3.512   3.582   3.256
 2183SOL    HW1 6569   3.565   3.592   3.172
 2183SOL    HW2 6570   3.485   3.672   3.290
 2184SOL     OW 6571   3.703   2.037   2.825
 2184SOL    HW1 6572   3.742   1.952   2.789
 2184SOL    HW2 6573   3.605   2.039   2.806
 2185SOL     OW 6574   2.125   2.188   2.582
 2185SOL    HW1 6575   2.046   2.239   2.548
 2185SOL    HW2 6576   2.116   2.173   2.680
 2186SOL     OW 6577   3.056   3.474   1.893
 2186SOL    HW1 6578   3.062   3.381   1.930
 2186SOL    HW2 6579   2.997   3.474   1.813
 2187SOL     OW 6580   2.684   2.864   3.234
 2187SOL    HW1 6581   2.724   2.863   3.142
 2187SOL    HW2 6582   2.694   2.956   3.274
 2188SOL     OW 6583   2.778   2.772   2.153
 2188SOL    HW1 6584   2.841   2.810   2.085
 2188SOL    HW2 6585   2.818   2.689   2.192
 2189SOL     OW 6586   3.366   3.469   1.906
 2189SOL    HW1 6587   3.274   3.506   1.913
 2189SOL    HW2 6588   3.404   3.489   1.816
 2190SOL     OW 6589   2.234   3.150   3.352
 2190SOL    HW1 6590   2.221   3.243   3.318
 2190SOL    HW2 6591   2.150   3.098   3.339
 2191SOL     OW 6592   3.476   3.154   3.151
 2191SOL    HW1 6593   3.536   3.157   3.231
 2191SOL    HW2 6594   3.401   3.218   3.164
 2192SOL     OW 6595   2.901   2.960   2.558
 2192SOL    HW1 6596   2.831   2.913   2.612
 2192SOL    HW2 6597   2.960   2.892   2.515
 2193SOL     OW 6598   2.876   2.098   2.833
 2193SOL    HW1 6599   2.868   2.062   2.740
 2193SOL    HW2 6600   2.874   2.022   2.898
 2194SOL     OW 6601   2.452   3.349   2.353
 2194SOL    HW1 6602   2.494   3.291   2.283
 2194SOL    HW2 6603   2.408   3.428   2.309
 2195SOL     OW 6604   3.571   2.247   3.243
 2195SOL    HW1 6605   3.644   2.316   3.247
 2195SOL    HW2 6606   3.599   2.172   3.184
 2196SOL     OW 6607   2.117   3.210   2.152
 2196SOL    HW1 6608   2.021   3.211   2.125
 2196SOL    HW2 6609   2.129   3.263   2.236
 2197SOL     OW 6610   1.967   2.875   3.588
 2197SOL    HW1 6611   1.890   2.842   3.642
 2197SOL    HW2 6612   2.052   2.845   3.630
 2198SOL     OW 6613   2.534   2.065   3.351
 2198SOL    HW1 6614   2.624   2.049   3.311
 2198SOL    HW2 6615   2.542   2.070   3.450
 2199SOL     OW 6616   1.937   2.207   1.895
 2199SOL    HW1 6617   1.845   2.179   1.866
 2199SOL    HW2 6618   1.968   2.284   1.839
 2200SOL     OW 6619   3.302   2.718   3.260
 2200SOL    HW1 6620   3.245   2.770   3.197
 2200SOL    HW2 6621   3.398   2.730   3.236
 2201SOL     OW 6622   1.934   2.028   2.180
 2201SOL    HW1 6623   1.917   2.111   2.126
 2201SOL    HW2 6624   2.024   1.991   2.158
 2202SOL     OW 6625   3.045   3.197   1.981
 2202SOL    HW1 6626   2.946   3.186   1.983
 2202SOL    HW2 6627   3.079   3.212   2.074
 2203SOL     OW 6628   2.475   2.704   3.293
 2203SOL    HW1 6629   2.531   2.785   3.276
 2203SOL    HW2 6630   2.534   2.624   3.296
 2204SOL     OW 6631   3.355   3.629   2.821
 2204SOL    HW1 6632   3.388   3.693   2.752
 2204SOL    HW2 6633   3.421   3.623   2.896
 2205SOL     OW 6634   2.578   2.427   3.570
 2205SOL    HW1 6635   2.597   2.492   3.644
 2205SOL    HW2 6636   2.638   2.347   3.579
 2206SOL     OW 6637   3.312   3.082   3.495
 2206SOL    HW1 6638   3.303   3.072   3.594
 2206SOL    HW2 6639   3.408   3.075   3.469
 2207SOL     OW 6640   2.252   3.603   3.422
 2207SOL    HW1 6641   2.161   3.644   3.420
 2207SOL    HW2 6642   2.245   3.509   3.454
 2208SOL     OW 6643   3.536   2.745   3.116
 2208SOL    HW1 6644   3.509   2.656   3.079
 2208SOL    HW2 6645   3.537   2.813   3.043
 2209SOL     OW 6646   3.087   2.187   2.311
 2209SOL    HW1 6647   3.152   2.113   2.300
 2209SOL    HW2 6648   3.107   2.237   2.395
 2210SOL     OW 6649   2.456   2.607   2.514
 2210SOL    HW1 6650   2.506   2.692   2.495
 2210SOL    HW2 6651   2.368   2.609   2.466
 2211SOL     OW 6652   3.639   2.204   3.504
 2211SOL    HW1 6653   3.622   2.235   3.410
 2211SOL    HW2 6654   3.555   2.167   3.542
 2212SOL     OW 6655   3.592   2.796   3.379
 2212SOL    HW1 6656   3.630   2.887   3.394
 2212SOL    HW2 6657   3.584   2.779   3.280
 2213SOL     OW 6658   2.721   3.236   1.878
 2213SOL    HW1 6659   2.675   3.251   1.966
 2213SOL    HW2 6660   2.765   3.321   1.848
 2214SOL     OW 6661   2.523   3.652   2.815
 2214SOL    HW1 6662   2.477   3.740   2.802
 2214SOL    HW2 6663   2.622   3.664   2.808
 2215SOL     OW 6664   2.721   2.818   2.723
 2215SOL    HW1 6665   2.775   2.749   2.771
 2215SOL    HW2 6666   2.689   2.887   2.789
 2216SOL     OW 6667   2.945   2.846   1.949
 2216SOL    HW1 6668   2.922   2.899   1.867
 2216SOL    HW2 6669   3.026   2.790   1.930
 2217SOL     OW 6670   3.723   3.431   2.713
 2217SOL    HW1 6671   3.652   3.419   2.643
 2217SOL    HW2 6672   3.724   3.352   2.773
 2218SOL     OW 6673   2.083   3.176   3.706
 2218SOL    HW1 6674   2.018   3.103   3.685
 2218SOL    HW2 6675   2.087   3.190   3.804
 2219SOL     OW 6676   1.941   3.102   2.515
 2219SOL    HW1 6677   1.940   3.055   2.603
 2219SOL    HW2 6678   2.023   3.074   2.464
 2220SOL     OW 6679   2.534   3.253   3.486
 2220SOL    HW1 6680   2.456   3.203   3.524
 2220SOL    HW2 6681   2.531   3.348   3.517
 2221SOL     OW 6682   3.686   2.054   3.089
 2221SOL    HW1 6683   3.682   1.964   3.133
 2221SOL    HW2 6684   3.689   2.043   2.990
 2222SOL     OW 6685   3.567   3.349   2.966
 2222SOL    HW1 6686   3.474   3.324   2.939
 2222SOL    HW2 6687   3.593   3.299   3.048
 2223SOL     OW 6688   2.179   2.409   3.142
 2223SOL    HW1 6689   2.217   2.350   3.214
 2223SOL    HW2 6690   2.219   2.383   3.054
 2224SOL     OW 6691   2.674   3.448   2.549
 2224SOL    HW1 6692   2.706   3.458   2.455
 2224SOL    HW2 6693   2.595   3.386   2.551
 2225SOL     OW 6694   3.286   2.076   2.974
 2225SOL    HW1 6695   3.338   2.011   3.029
 2225SOL    HW2 6696   3.237   2.139   3.035
 2226SOL     OW 6697   2.863   1.896   3.016
 2226SOL    HW1 6698   2.800   1.824   2.985
 2226SOL    HW2 6699   2.956   1.860   3.016
 2227SOL     OW 6700   2.632   3.192   2.163
 2227SOL    HW1 6701   2.586   3.105   2.180
 2227SOL    HW2 6702   2.723   3.189   2.204
 2228SOL     OW 6703   2.480   3.429   3.146
 2228SOL    HW1 6704   2.475   3.511   3.203
 2228SOL    HW2 6705   2.569   3.426   3.101
 2229SOL     OW 6706   3.214   1.914   2.030
 2229SOL    HW1 6707   3.249   1.873   1.946
 2229SOL    HW2 6708   3.124   1.876   2.050
 2230SOL     OW 6709   3.162   2.315   2.553
 2230SOL    HW1 6710   3.103   2.395   2.557
 2230SOL    HW2 6711   3.177   2.280   2.646
 2231SOL     OW 6712   3.455   2.083   2.744
 2231SOL    HW1 6713   3.371   2.082   2.798
 2231SOL    HW2 6714   3.457   2.166   2.688
 2232SOL     OW 6715   1.901   2.939   2.162
 2232SOL    HW1 6716   2.000   2.928   2.153
 2232SOL    HW2 6717   1.861   2.853   2.194
 2233SOL     OW 6718   2.737   3.508   2.199
 2233SOL    HW1 6719   2.660   3.473   2.145
 2233SOL    HW2 6720   2.705   3.579   2.261
 2234SOL     OW 6721   2.092   2.490   3.837
 2234SOL    HW1 6722   1.999   2.488   3.874
 2234SOL    HW2 6723   2.093   2.451   3.745
 2235SOL     OW 6724   1.881   2.230   4.371
 2235SOL    HW1 6725   1.799   2.273   4.410
 2235SOL    HW2 6726   1.853   2.157   4.308
 2236SOL     OW 6727   3.417   3.373   4.427
 2236SOL    HW1 6728   3.360   3.357   4.508
 2236SOL    HW2 6729   3.358   3.383   4.347
 2237SOL     OW 6730   2.997   2.565   4.441
 2237SOL    HW1 6731   3.054   2.643   4.416
 2237SOL    HW2 6732   2.937   2.591   4.517
 2238SOL     OW 6733   3.617   2.469   3.955
 2238SOL    HW1 6734   3.605   2.456   3.856
 2238SOL    HW2 6735   3.587   2.388   4.004
 2239SOL     OW 6736   2.630   3.006   4.747
 2239SOL    HW1 6737   2.552   3.023   4.807
 2239SOL    HW2 6738   2.664   3.093   4.711
 2240SOL     OW 6739   2.547   2.874   4.389
 2240SOL    HW1 6740   2.616   2.858   4.459
 2240SOL    HW2 6741   2.474   2.931   4.427
 2241SOL     OW 6742   3.465   2.309   4.461
 2241SOL    HW1 6743   3.391   2.355   4.411
 2241SOL    HW2 6744   3.516   2.377   4.514
 2242SOL     OW 6745   2.093   3.575   4.207
 2242SOL    HW1 6746   2.127   3.652   4.261
 2242SOL    HW2 6747   2.137   3.575   4.117
 2243SOL     OW 6748   2.092   3.296   4.262
 2243SOL    HW1 6749   2.066   3.392   4.262
 2243SOL    HW2 6750   2.021   3.242   4.307
 2244SOL     OW 6751   2.102   2.953   4.610
 2244SOL    HW1 6752   2.116   2.869   4.662
 2244SOL    HW2 6753   2.047   3.017   4.665
 2245SOL     OW 6754   2.468   2.826   3.847
 2245SOL    HW1 6755   2.475   2.910   3.793
 2245SOL    HW2 6756   2.514   2.839   3.935
 2246SOL     OW 6757   1.984   2.505   4.287
 2246SOL    HW1 6758   1.939   2.417   4.304
 2246SOL    HW2 6759   1.983   2.559   4.371
 2247SOL     OW 6760   3.704   3.629   4.083
 2247SOL    HW1 6761   3.758   3.600   4.163
 2247SOL    HW2 6762   3.734   3.719   4.054
 2248SOL     OW 6763   1.889   3.458   3.841
 2248SOL    HW1 6764   1.870   3.362   3.862
 2248SOL    HW2 6765   1.856   3.516   3.916
 2249SOL     OW 6766   3.551   2.784   4.336
 2249SOL    HW1 6767   3.646   2.755   4.344
 2249SOL    HW2 6768   3.543   2.849   4.261
 2250SOL     OW 6769   3.503   2.970   4.156
 2250SOL    HW1 6770   3.589   2.972   4.104
 2250SOL    HW2 6771   3.517   3.017   4.244
 2251SOL     OW 6772   2.475   3.227   4.450
 2251SOL    HW1 6773   2.426   3.140   4.459
 2251SOL    HW2 6774   2.452   3.270   4.363
 2252SOL     OW 6775   2.671   1.866   4.226
 2252SOL    HW1 6776   2.711   1.957   4.217
 2252SOL    HW2 6777   2.571   1.874   4.232
 2253SOL     OW 6778   3.387   2.861   3.914
 2253SOL    HW1 6779   3.324   2.785   3.927
 2253SOL    HW2 6780   3.435   2.879   4.000
 2254SOL     OW 6781   3.529   3.576   4.296
 2254SOL    HW1 6782   3.488   3.553   4.208
 2254SOL    HW2 6783   3.511   3.502   4.361
 2255SOL     OW 6784   2.460   2.591   3.994
 2255SOL    HW1 6785   2.484   2.660   3.926
 2255SOL    HW2 6786   2.382   2.624   4.048
 2256SOL     OW 6787   3.143   2.207   4.668
 2256SOL    HW1 6788   3.057   2.157   4.655
 2256SOL    HW2 6789   3.205   2.153   4.724
 2257SOL     OW 6790   3.438   3.524   4.031
 2257SOL    HW1 6791   3.527   3.570   4.034
 2257SOL    HW2 6792   3.417   3.500   3.936
 2258SOL     OW 6793   2.903   2.563   4.153
 2258SOL    HW1 6794   2.929   2.559   4.249
 2258SOL    HW2 6795   2.818   2.512   4.139
 2259SOL     OW 6796   1.938   2.673   4.513
 2259SOL    HW1 6797   2.037   2.661   4.522
 2259SOL    HW2 6798   1.914   2.768   4.534
 2260SOL     OW 6799   2.727   2.210   3.919
 2260SOL    HW1 6800   2.786   2.273   3.870
 2260SOL    HW2 6801   2.746   2.116   3.890
 2261SOL     OW 6802   3.224   3.006   4.269
 2261SOL    HW1 6803   3.307   2.977   4.221
 2261SOL    HW2 6804   3.175   3.073   4.213
 2262SOL     OW 6805   2.412   2.058   4.609
 2262SOL    HW1 6806   2.407   2.053   4.709
 2262SOL    HW2 6807   2.414   2.154   4.580
 2263SOL     OW 6808   2.870   3.318   4.201
 2263SOL    HW1 6809   2.824   3.390   4.149
 2263SOL    HW2 6810   2.866   3.338   4.299
 2264SOL     OW 6811   2.213   3.663   4.577
 2264SOL    HW1 6812   2.263   3.577   4.583
 2264SOL    HW2 6813   2.278   3.740   4.574
 2265SOL     OW 6814   3.657   2.928   4.597
 2265SOL    HW1 6815   3.595   2.913   4.521
 2265SOL    HW2 6816   3.605   2.939   4.682
 2266SOL     OW 6817   2.183   2.805   3.966
 2266SOL    HW1 6818   2.265   2.844   3.924
 2266SOL    HW2 6819   2.156   2.723   3.917
 2267SOL     OW 6820   3.320   2.597   4.452
 2267SOL    HW1 6821   3.315   2.532   4.527
 2267SOL    HW2 6822   3.400   2.656   4.465
 2268SOL     OW 6823   2.973   3.638   3.961
 2268SOL    HW1 6824   2.913   3.576   4.011
 2268SOL    HW2 6825   3.004   3.594   3.876
 2269SOL     OW 6826   3.494   3.239   3.805
 2269SOL    HW1 6827   3.462   3.333   3.795
 2269SOL    HW2 6828   3.418   3.176   3.793
 2270SOL     OW 6829   2.326   3.605   4.047
 2270SOL    HW1 6830   2.359   3.644   4.133
 2270SOL    HW2 6831   2.402   3.598   3.982
 2271SOL     OW 6832   3.262   1.969   4.150
 2271SOL    HW1 6833   3.238   1.932   4.060
 2271SOL    HW2 6834   3.361   1.985   4.154
 2272SOL     OW 6835   2.802   3.560   4.628
 2272SOL    HW1 6836   2.882   3.503   4.649
 2272SOL    HW2 6837   2.753   3.520   4.551
 2273SOL     OW 6838   2.244   2.562   4.204
 2273SOL    HW1 6839   2.289   2.472   4.201
 2273SOL    HW2 6840   2.150   2.551   4.237
 2274SOL     OW 6841   2.476   1.984   3.841
 2274SOL    HW1 6842   2.574   1.962   3.848
 2274SOL    HW2 6843   2.445   1.967   3.748
 2275SOL     OW 6844   2.401   1.926   4.236
 2275SOL    HW1 6845   2.320   1.927   4.294
 2275SOL    HW2 6846   2.404   2.009   4.181
 2276SOL     OW 6847   3.296   3.050   3.765
 2276SOL    HW1 6848   3.328   2.974   3.822
 2276SOL    HW2 6849   3.204   3.077   3.795
 2277SOL     OW 6850   2.159   1.897   3.895
 2277SOL    HW1 6851   2.208   1.981   3.874
 2277SOL    HW2 6852   2.221   1.832   3.940
 2278SOL     OW 6853   2.797   2.098   4.204
 2278SOL    HW1 6854   2.749   2.139   4.126
 2278SOL    HW2 6855   2.896   2.096   4.185
 2279SOL     OW 6856   2.321   3.014   4.465
 2279SOL    HW1 6857   2.250   2.987   4.530
 2279SOL    HW2 6858   2.295   2.986   4.372
 2280SOL     OW 6859   3.133   3.659   4.315
 2280SOL    HW1 6860   3.177   3.723   4.251
 2280SOL    HW2 6861   3.083   3.711   4.385
 2281SOL     OW 6862   2.894   2.411   3.740
 2281SOL    HW1 6863   2.853   2.493   3.701
 2281SOL    HW2 6864   2.958   2.437   3.813
 2282SOL     OW 6865   2.728   2.316   4.366
 2282SOL    HW1 6866   2.696   2.388   4.304
 2282SOL    HW2 6867   2.752   2.235   4.313
 2283SOL     OW 6868   2.879   1.901   4.477
 2283SOL    HW1 6869   2.807   1.906   4.408
 2283SOL    HW2 6870   2.855   1.832   4.546
 2284SOL     OW 6871   3.719   2.695   4.101
 2284SOL    HW1 6872   3.761   2.631   4.165
 2284SOL    HW2 6873   3.681   2.644   4.023
 2285SOL     OW 6874   2.350   3.247   3.898
 2285SOL    HW1 6875   2.263   3.232   3.945
 2285SOL    HW2 6876   2.333   3.273   3.803
 2286SOL     OW 6877   3.526   3.142   4.381
 2286SOL    HW1 6878   3.625   3.150   4.395
 2286SOL    HW2 6879   3.481   3.226   4.412
 2287SOL     OW 6880   3.252   2.437   3.802
 2287SOL    HW1 6881   3.198   2.416   3.883
 2287SOL    HW2 6882   3.343   2.396   3.811
 2288SOL     OW 6883   2.389   2.118   4.052
 2288SOL    HW1 6884   2.416   2.059   3.977
 2288SOL    HW2 6885   2.389   2.213   4.021
 2289SOL     OW 6886   2.567   2.912   4.092
 2289SOL    HW1 6887   2.553   2.919   4.191
 2289SOL    HW2 6888   2.651   2.861   4.074
 2290SOL     OW 6889   2.229   2.962   4.225
 2290SOL    HW1 6890   2.222   3.045   4.169
 2290SOL    HW2 6891   2.233   2.882   4.165
 2291SOL     OW 6892   2.428   2.399   4.589
 2291SOL    HW1 6893   2.440   2.465   4.515
 2291SOL    HW2 6894   2.474   2.433   4.672
 2292SOL     OW 6895   3.114   3.210   4.112
 2292SOL    HW1 6896   3.164   3.287   4.152
 2292SOL    HW2 6897   3.019   3.212   4.144
 2293SOL     OW 6898   3.444   2.501   4.196
 2293SOL    HW1 6899   3.413   2.562   4.269
 2293SOL    HW2 6900   3.494   2.553   4.127
 2294SOL     OW 6901   3.071   2.387   3.999
 2294SOL    HW1 6902   3.084   2.303   4.053
 2294SOL    HW2 6903   3.042   2.461   4.059
 2295SOL     OW 6904   2.169   1.925   4.342
 2295SOL    HW1 6905   2.158   2.019   4.375
 2295SOL    HW2 6906   2.164   1.862   4.419
 2296SOL     OW 6907   3.484   2.229   4.098
 2296SOL    HW1 6908   3.486   2.153   4.162
 2296SOL    HW2 6909   3.436   2.306   4.138
 2297SOL     OW 6910   3.402   2.136   3.849
 2297SOL    HW1 6911   3.341   2.061   3.872
 2297SOL    HW2 6912   3.424   2.188   3.932
 2298SOL     OW 6913   3.165   2.700   3.766
 2298SOL    HW1 6914   3.199   2.607   3.781
 2298SOL    HW2 6915   3.183   2.727   3.671
 2299SOL     OW 6916   1.870   3.188   3.924
 2299SOL    HW1 6917   1.777   3.209   3.893
 2299SOL    HW2 6918   1.880   3.089   3.937
 2300SOL     OW 6919   2.677   2.434   4.049
 2300SOL    HW1 6920   2.684   2.345   4.003
 2300SOL    HW2 6921   2.583   2.468   4.041
 2301SOL     OW 6922   2.335   2.362   3.915
 2301SOL    HW1 6923   2.396   2.442   3.919
 2301SOL    HW2 6924   2.240   2.393   3.922
 2302SOL     OW 6925   3.164   2.717   4.033
 2302SOL    HW1 6926   3.078   2.686   4.075
 2302SOL    HW2 6927   3.160   2.703   3.934
 2303SOL     OW 6928   3.588   1.997   4.247
 2303SOL    HW1 6929   3.661   1.980   4.180
 2303SOL    HW2 6930   3.557   1.910   4.285
 2304SOL     OW 6931   3.250   3.435   4.201
 2304SOL    HW1 6932   3.317   3.447   4.127
 2304SOL    HW2 6933   3.210   3.524   4.224
 2305SOL     OW 6934   3.142   2.789   4.396
 2305SOL    HW1 6935   3.202   2.708   4.398
 2305SOL    HW2 6936   3.182   2.858   4.336
 2306SOL     OW 6937   2.534   3.478   3.878
 2306SOL    HW1 6938   2.543   3.488   3.779
 2306SOL    HW2 6939   2.494   3.389   3.899
 2307SOL     OW 6940   3.703   2.037   4.687
 2307SOL    HW1 6941   3.742   1.952   4.651
 2307SOL    HW2 6942   3.605   2.039   4.668
 2308SOL     OW 6943   2.125   2.188   4.444
 2308SOL    HW1 6944   2.046   2.239   4.410
 2308SOL    HW2 6945   2.116   2.173   4.542
 2309SOL     OW 6946   3.056   3.474   3.755
 2309SOL    HW1 6947   3.062   3.381   3.792
 2309SOL    HW2 6948   2.997   3.474   3.675
 2310SOL     OW 6949   2.778   2.772   4.015
 2310SOL    HW1 6950   2.841   2.810   3.947
 2310SOL    HW2 6951   2.818   2.689   4.054
 2311SOL     OW 6952   3.366   3.469   3.768
 2311SOL    HW1 6953   3.274   3.506   3.775
 2311SOL    HW2 6954   3.404   3.489   3.678
 2312SOL     OW 6955   2.901   2.960   4.420
 2312SOL    HW1 6956   2.831   2.913   4.474
 2312SOL    HW2 6957   2.960   2.892   4.377
 2313SOL     OW 6958   2.452   3.349   4.215
 2313SOL    HW1 6959   2.494   3.291   4.145
 2313SOL    HW2 6960   2.408   3.428   4.171
 2314SOL     OW 6961   2.117   3.210   4.014
 2314SOL    HW1 6962   2.021   3.211   3.987
 2314SOL    HW2 6963   2.129   3.263   4.098
 2315SOL     OW 6964   1.937   2.207   3.757
 2315SOL    HW1 6965   1.845   2.179   3.728
 2315SOL    HW2 6966   1.968   2.284   3.701
 2316SOL     OW 6967   1.934   2.028   4.042
 2316SOL    HW1 6968   1.917   2.111   3.988
 2316SOL    HW2 6969   2.024   1.991   4.020
 2317SOL     OW 6970   3.045   3.197   3.843
 2317SOL    HW1 6971   2.946   3.186   3.845
 2317SOL    HW2 6972   3.079   3.212   3.936
 2318SOL     OW 6973   3.087   2.187   4.173
 2318SOL    HW1 6974   3.152   2.113   4.162
 2318SOL    HW2 6975   3.107   2.237   4.257
 2319SOL     OW 6976   2.456   2.607   4.376
 2319SOL    HW1 6977   2.506   2.692   4.357
 2319SOL    HW2 6978   2.368   2.609   4.328
 2320SOL     OW 6979   2.721   3.236   3.740
 2320SOL    HW1 6980   2.675   3.251   3.828
 2320SOL    HW2 6981   2.765   3.321   3.710
 2321SOL     OW 6982   2.523   3.652   4.677
 2321SOL    HW1 6983   2.477   3.740   4.664
 2321SOL    HW2 6984   2.622   3.664   4.670
 2322SOL     OW 6985   2.721   2.818   4.585
 2322SOL    HW1 6986   2.775   2.749   4.633
 2322SOL    HW2 6987   2.689   2.887   4.651
 2323SOL     OW 6988   2.945   2.846   3.811
 2323SOL    HW1 6989   2.922   2.899   3.729
 2323SOL    HW2 6990   3.026   2.790   3.792
 2324SOL     OW 6991   1.941   3.102   4.377
 2324SOL    HW1 6992   1.940   3.055   4.465
 2324SOL    HW2 6993   2.023   3.074   4.326
 2325SOL     OW 6994   2.290   2.286   4.244
 2325SOL    HW1 6995   2.320   2.214   4.182
 2325SOL    HW2 6996   2.251   2.246   4.327
 2326SOL     OW 6997   2.674   3.448   4.411
 2326SOL    HW1 6998   2.706   3.458   4.317
 2326SOL    HW2 6999   2.595   3.386   4.413
 2327SOL     OW 7000   2.632   3.192   4.025
 2327SOL    HW1 7001   2.586   3.105   4.042
 2327SOL    HW2 7002   2.723   3.189   4.066
 2328SOL     OW 7003   3.214   1.914   3.892
 2328SOL    HW1 7004   3.249   1.873   3.808
 2328SOL    HW2 7005   3.124   1.876   3.912
 2329SOL     OW 7006   3.162   2.315   4.415
 2329SOL    HW1 7007   3.103   2.395   4.419
 2329SOL    HW2 7008   3.177   2.280   4.508
 2330SOL     OW 7009   1.901   2.939   4.024
 2330SOL    HW1 7010   2.000   2.928   4.015
 2330SOL    HW2 7011   1.861   2.853   4.056
 2331SOL     OW 7012   2.737   3.508   4.061
 2331SOL    HW1 7013   2.660   3.473   4.007
 2331SOL    HW2 7014   2.705   3.579   4.123
 2332SOL     OW 7015   2.092   4.352   0.113
 2332SOL    HW1 7016   1.999   4.350   0.150
 2332SOL    HW2 7017   2.093   4.313   0.021
 2333SOL     OW 7018   2.087   3.999   0.996
 2333SOL    HW1 7019   2.122   3.982   1.088
 2333SOL    HW2 7020   1.999   3.954   0.984
 2334SOL     OW 7021   1.881   4.092   0.647
 2334SOL    HW1 7022   1.799   4.135   0.686
 2334SOL    HW2 7023   1.853   4.019   0.584
 2335SOL     OW 7024   2.997   4.427   0.717
 2335SOL    HW1 7025   3.054   4.505   0.692
 2335SOL    HW2 7026   2.937   4.453   0.793
 2336SOL     OW 7027   3.617   4.331   0.231
 2336SOL    HW1 7028   3.605   4.318   0.132
 2336SOL    HW2 7029   3.587   4.250   0.280
 2337SOL     OW 7030   2.712   4.522   1.823
 2337SOL    HW1 7031   2.708   4.598   1.888
 2337SOL    HW2 7032   2.734   4.558   1.732
 2338SOL     OW 7033   2.547   4.736   0.665
 2338SOL    HW1 7034   2.616   4.720   0.735
 2338SOL    HW2 7035   2.474   4.793   0.703
 2339SOL     OW 7036   2.300   4.116   1.499
 2339SOL    HW1 7037   2.382   4.060   1.508
 2339SOL    HW2 7038   2.219   4.058   1.503
 2340SOL     OW 7039   3.465   4.171   0.737
 2340SOL    HW1 7040   3.391   4.217   0.687
 2340SOL    HW2 7041   3.516   4.239   0.790
 2341SOL     OW 7042   3.456   3.838   1.480
 2341SOL    HW1 7043   3.438   3.905   1.408
 2341SOL    HW2 7044   3.453   3.884   1.569
 2342SOL     OW 7045   1.984   4.367   0.563
 2342SOL    HW1 7046   1.939   4.279   0.580
 2342SOL    HW2 7047   1.983   4.421   0.647
 2343SOL     OW 7048   1.975   4.461   1.597
 2343SOL    HW1 7049   2.063   4.448   1.642
 2343SOL    HW2 7050   1.962   4.558   1.575
 2344SOL     OW 7051   2.671   3.728   0.502
 2344SOL    HW1 7052   2.711   3.819   0.493
 2344SOL    HW2 7053   2.571   3.736   0.508
 2345SOL     OW 7054   2.179   3.975   1.801
 2345SOL    HW1 7055   2.250   4.046   1.807
 2345SOL    HW2 7056   2.091   4.014   1.829
 2346SOL     OW 7057   2.460   4.453   0.270
 2346SOL    HW1 7058   2.484   4.522   0.202
 2346SOL    HW2 7059   2.382   4.486   0.324
 2347SOL     OW 7060   3.143   4.069   0.944
 2347SOL    HW1 7061   3.057   4.019   0.931
 2347SOL    HW2 7062   3.205   4.015   1.000
 2348SOL     OW 7063   2.669   4.329   1.465
 2348SOL    HW1 7064   2.622   4.326   1.554
 2348SOL    HW2 7065   2.618   4.274   1.399
 2349SOL     OW 7066   3.256   4.193   1.674
 2349SOL    HW1 7067   3.236   4.236   1.762
 2349SOL    HW2 7068   3.334   4.131   1.683
 2350SOL     OW 7069   2.853   4.134   1.242
 2350SOL    HW1 7070   2.776   4.168   1.296
 2350SOL    HW2 7071   2.819   4.083   1.163
 2351SOL     OW 7072   2.903   4.425   0.429
 2351SOL    HW1 7073   2.929   4.421   0.525
 2351SOL    HW2 7074   2.818   4.374   0.415
 2352SOL     OW 7075   2.727   4.072   0.195
 2352SOL    HW1 7076   2.786   4.135   0.146
 2352SOL    HW2 7077   2.746   3.978   0.166
 2353SOL     OW 7078   3.581   4.309   1.831
 2353SOL    HW1 7079   3.555   4.398   1.795
 2353SOL    HW2 7080   3.579   4.241   1.758
 2354SOL     OW 7081   2.412   3.920   0.885
 2354SOL    HW1 7082   2.407   3.915   0.985
 2354SOL    HW2 7083   2.414   4.016   0.856
 2355SOL     OW 7084   3.320   4.459   0.728
 2355SOL    HW1 7085   3.315   4.394   0.803
 2355SOL    HW2 7086   3.400   4.518   0.741
 2356SOL     OW 7087   2.064   4.009   1.498
 2356SOL    HW1 7088   1.984   4.069   1.485
 2356SOL    HW2 7089   2.054   3.960   1.584
 2357SOL     OW 7090   3.262   3.831   0.426
 2357SOL    HW1 7091   3.238   3.794   0.336
 2357SOL    HW2 7092   3.361   3.847   0.430
 2358SOL     OW 7093   2.244   4.424   0.480
 2358SOL    HW1 7094   2.289   4.334   0.477
 2358SOL    HW2 7095   2.150   4.413   0.513
 2359SOL     OW 7096   3.409   3.946   1.729
 2359SOL    HW1 7097   3.404   3.983   1.821
 2359SOL    HW2 7098   3.337   3.877   1.717
 2360SOL     OW 7099   2.643   3.988   1.749
 2360SOL    HW1 7100   2.710   3.927   1.792
 2360SOL    HW2 7101   2.570   4.007   1.814
 2361SOL     OW 7102   3.213   4.314   1.433
 2361SOL    HW1 7103   3.241   4.271   1.518
 2361SOL    HW2 7104   3.238   4.410   1.434
 2362SOL     OW 7105   2.784   4.227   0.899
 2362SOL    HW1 7106   2.759   4.218   0.803
 2362SOL    HW2 7107   2.832   4.145   0.930
 2363SOL     OW 7108   2.401   3.788   0.512
 2363SOL    HW1 7109   2.320   3.789   0.570
 2363SOL    HW2 7110   2.404   3.871   0.457
 2364SOL     OW 7111   2.159   3.759   0.171
 2364SOL    HW1 7112   2.208   3.843   0.150
 2364SOL    HW2 7113   2.221   3.694   0.216
 2365SOL     OW 7114   2.797   3.960   0.480
 2365SOL    HW1 7115   2.749   4.001   0.402
 2365SOL    HW2 7116   2.896   3.958   0.461
 2366SOL     OW 7117   2.938   4.407   1.464
 2366SOL    HW1 7118   2.858   4.346   1.467
 2366SOL    HW2 7119   3.019   4.354   1.440
 2367SOL     OW 7120   2.894   4.273   0.016
 2367SOL    HW1 7121   2.853   4.355  -0.023
 2367SOL    HW2 7122   2.958   4.299   0.089
 2368SOL     OW 7123   1.940   4.280   1.386
 2368SOL    HW1 7124   2.032   4.279   1.345
 2368SOL    HW2 7125   1.934   4.354   1.453
 2369SOL     OW 7126   2.423   3.946   1.147
 2369SOL    HW1 7127   2.461   3.862   1.184
 2369SOL    HW2 7128   2.335   3.965   1.191
 2370SOL     OW 7129   2.728   4.178   0.642
 2370SOL    HW1 7130   2.696   4.250   0.580
 2370SOL    HW2 7131   2.752   4.097   0.589
 2371SOL     OW 7132   2.879   3.763   0.753
 2371SOL    HW1 7133   2.807   3.768   0.684
 2371SOL    HW2 7134   2.855   3.694   0.822
 2372SOL     OW 7135   3.328   4.314   0.992
 2372SOL    HW1 7136   3.298   4.219   0.999
 2372SOL    HW2 7137   3.401   4.330   1.058
 2373SOL     OW 7138   3.719   4.557   0.377
 2373SOL    HW1 7139   3.761   4.493   0.441
 2373SOL    HW2 7140   3.681   4.506   0.299
 2374SOL     OW 7141   3.252   4.299   0.078
 2374SOL    HW1 7142   3.198   4.278   0.159
 2374SOL    HW2 7143   3.343   4.258   0.087
 2375SOL     OW 7144   2.389   3.980   0.328
 2375SOL    HW1 7145   2.416   3.921   0.253
 2375SOL    HW2 7146   2.389   4.075   0.297
 2376SOL     OW 7147   2.777   3.813   1.402
 2376SOL    HW1 7148   2.802   3.793   1.307
 2376SOL    HW2 7149   2.849   3.869   1.444
 2377SOL     OW 7150   2.567   4.774   0.368
 2377SOL    HW1 7151   2.553   4.781   0.467
 2377SOL    HW2 7152   2.651   4.723   0.350
 2378SOL     OW 7153   2.272   4.537   1.251
 2378SOL    HW1 7154   2.358   4.549   1.301
 2378SOL    HW2 7155   2.230   4.450   1.278
 2379SOL     OW 7156   3.136   4.110   1.262
 2379SOL    HW1 7157   3.157   4.184   1.326
 2379SOL    HW2 7158   3.047   4.127   1.219
 2380SOL     OW 7159   2.428   4.261   0.865
 2380SOL    HW1 7160   2.440   4.327   0.791
 2380SOL    HW2 7161   2.474   4.295   0.948
 2381SOL     OW 7162   3.444   4.363   0.472
 2381SOL    HW1 7163   3.413   4.424   0.545
 2381SOL    HW2 7164   3.494   4.415   0.403
 2382SOL     OW 7165   3.449   4.503   1.670
 2382SOL    HW1 7166   3.357   4.541   1.665
 2382SOL    HW2 7167   3.509   4.550   1.605
 2383SOL     OW 7168   2.875   3.829   1.770
 2383SOL    HW1 7169   2.881   3.914   1.718
 2383SOL    HW2 7170   2.907   3.753   1.713
 2384SOL     OW 7171   2.366   3.774   1.740
 2384SOL    HW1 7172   2.324   3.717   1.670
 2384SOL    HW2 7173   2.300   3.843   1.772
 2385SOL     OW 7174   3.222   4.586   1.045
 2385SOL    HW1 7175   3.147   4.586   0.979
 2385SOL    HW2 7176   3.259   4.494   1.054
 2386SOL     OW 7177   3.071   4.249   0.275
 2386SOL    HW1 7178   3.084   4.165   0.329
 2386SOL    HW2 7179   3.042   4.323   0.335
 2387SOL     OW 7180   2.169   3.937   1.231
 2387SOL    HW1 7181   2.146   3.974   1.321
 2387SOL    HW2 7182   2.139   3.842   1.225
 2388SOL     OW 7183   2.594   4.358   1.064
 2388SOL    HW1 7184   2.653   4.332   0.988
 2388SOL    HW2 7185   2.566   4.454   1.053
 2389SOL     OW 7186   3.590   4.659   1.854
 2389SOL    HW1 7187   3.544   4.652   1.765
 2389SOL    HW2 7188   3.528   4.703   1.920
 2390SOL     OW 7189   2.169   3.787   0.618
 2390SOL    HW1 7190   2.158   3.881   0.651
 2390SOL    HW2 7191   2.164   3.724   0.695
 2391SOL     OW 7192   3.484   4.091   0.374
 2391SOL    HW1 7193   3.486   4.015   0.438
 2391SOL    HW2 7194   3.436   4.168   0.414
 2392SOL     OW 7195   3.402   3.998   0.125
 2392SOL    HW1 7196   3.341   3.923   0.148
 2392SOL    HW2 7197   3.424   4.050   0.208
 2393SOL     OW 7198   2.181   4.534   0.949
 2393SOL    HW1 7199   2.274   4.570   0.954
 2393SOL    HW2 7200   2.175   4.449   1.001
 2394SOL     OW 7201   2.201   4.233   1.006
 2394SOL    HW1 7202   2.149   4.150   0.989
 2394SOL    HW2 7203   2.278   4.238   0.942
 2395SOL     OW 7204   3.000   4.104   1.678
 2395SOL    HW1 7205   2.955   4.167   1.742
 2395SOL    HW2 7206   3.093   4.135   1.661
 2396SOL     OW 7207   3.022   3.931   1.477
 2396SOL    HW1 7208   3.022   3.995   1.554
 2396SOL    HW2 7209   3.050   3.979   1.394
 2397SOL     OW 7210   1.902   4.268   1.114
 2397SOL    HW1 7211   1.987   4.235   1.073
 2397SOL    HW2 7212   1.915   4.283   1.212
 2398SOL     OW 7213   2.051   4.244   1.722
 2398SOL    HW1 7214   2.110   4.204   1.652
 2398SOL    HW2 7215   1.993   4.315   1.681
 2399SOL     OW 7216   2.677   4.296   0.325
 2399SOL    HW1 7217   2.684   4.207   0.279
 2399SOL    HW2 7218   2.583   4.330   0.317
 2400SOL     OW 7219   3.519   4.328   1.206
 2400SOL    HW1 7220   3.481   4.259   1.268
 2400SOL    HW2 7221   3.601   4.292   1.162
 2401SOL     OW 7222   2.533   4.188   1.269
 2401SOL    HW1 7223   2.499   4.099   1.239
 2401SOL    HW2 7224   2.559   4.242   1.189
 2402SOL     OW 7225   2.335   4.224   0.191
 2402SOL    HW1 7226   2.396   4.304   0.195
 2402SOL    HW2 7227   2.240   4.255   0.198
 2403SOL     OW 7228   2.765   3.810   0.133
 2403SOL    HW1 7229   2.816   3.811   0.047
 2403SOL    HW2 7230   2.821   3.768   0.204
 2404SOL     OW 7231   3.588   3.859   0.523
 2404SOL    HW1 7232   3.661   3.842   0.456
 2404SOL    HW2 7233   3.557   3.772   0.561
 2405SOL     OW 7234   3.142   4.651   0.672
 2405SOL    HW1 7235   3.202   4.570   0.674
 2405SOL    HW2 7236   3.182   4.720   0.612
 2406SOL     OW 7237   3.703   3.899   0.963
 2406SOL    HW1 7238   3.742   3.814   0.927
 2406SOL    HW2 7239   3.605   3.901   0.944
 2407SOL     OW 7240   2.125   4.050   0.720
 2407SOL    HW1 7241   2.046   4.101   0.686
 2407SOL    HW2 7242   2.116   4.035   0.818
 2408SOL     OW 7243   2.876   3.960   0.971
 2408SOL    HW1 7244   2.868   3.924   0.878
 2408SOL    HW2 7245   2.874   3.884   1.036
 2409SOL     OW 7246   3.571   4.109   1.381
 2409SOL    HW1 7247   3.644   4.178   1.385
 2409SOL    HW2 7248   3.599   4.034   1.322
 2410SOL     OW 7249   1.967   4.737   1.726
 2410SOL    HW1 7250   1.890   4.704   1.780
 2410SOL    HW2 7251   2.052   4.707   1.768
 2411SOL     OW 7252   2.534   3.927   1.489
 2411SOL    HW1 7253   2.624   3.911   1.449
 2411SOL    HW2 7254   2.542   3.932   1.588
 2412SOL     OW 7255   1.937   4.069   0.033
 2412SOL    HW1 7256   1.845   4.041   0.004
 2412SOL    HW2 7257   1.968   4.146  -0.023
 2413SOL     OW 7258   3.302   4.580   1.398
 2413SOL    HW1 7259   3.245   4.632   1.335
 2413SOL    HW2 7260   3.398   4.592   1.374
 2414SOL     OW 7261   1.934   3.890   0.318
 2414SOL    HW1 7262   1.917   3.973   0.264
 2414SOL    HW2 7263   2.024   3.853   0.296
 2415SOL     OW 7264   2.475   4.566   1.431
 2415SOL    HW1 7265   2.531   4.647   1.414
 2415SOL    HW2 7266   2.534   4.486   1.434
 2416SOL     OW 7267   2.578   4.289   1.708
 2416SOL    HW1 7268   2.597   4.354   1.782
 2416SOL    HW2 7269   2.638   4.209   1.717
 2417SOL     OW 7270   3.536   4.607   1.254
 2417SOL    HW1 7271   3.509   4.518   1.217
 2417SOL    HW2 7272   3.537   4.675   1.181
 2418SOL     OW 7273   3.087   4.049   0.449
 2418SOL    HW1 7274   3.152   3.975   0.438
 2418SOL    HW2 7275   3.107   4.099   0.533
 2419SOL     OW 7276   2.456   4.469   0.652
 2419SOL    HW1 7277   2.506   4.554   0.633
 2419SOL    HW2 7278   2.368   4.471   0.604
 2420SOL     OW 7279   3.639   4.066   1.642
 2420SOL    HW1 7280   3.622   4.097   1.548
 2420SOL    HW2 7281   3.555   4.029   1.680
 2421SOL     OW 7282   3.686   3.916   1.227
 2421SOL    HW1 7283   3.682   3.826   1.271
 2421SOL    HW2 7284   3.689   3.905   1.128
 2422SOL     OW 7285   2.290   4.148   0.520
 2422SOL    HW1 7286   2.320   4.076   0.458
 2422SOL    HW2 7287   2.251   4.108   0.603
 2423SOL     OW 7288   2.179   4.271   1.280
 2423SOL    HW1 7289   2.217   4.212   1.352
 2423SOL    HW2 7290   2.219   4.245   1.192
 2424SOL     OW 7291   3.286   3.938   1.112
 2424SOL    HW1 7292   3.338   3.873   1.167
 2424SOL    HW2 7293   3.237   4.001   1.173
 2425SOL     OW 7294   2.863   3.758   1.154
 2425SOL    HW1 7295   2.800   3.686   1.123
 2425SOL    HW2 7296   2.956   3.722   1.154
 2426SOL     OW 7297   3.214   3.776   0.168
 2426SOL    HW1 7298   3.249   3.735   0.084
 2426SOL    HW2 7299   3.124   3.738   0.188
 2427SOL     OW 7300   3.162   4.177   0.691
 2427SOL    HW1 7301   3.103   4.257   0.695
 2427SOL    HW2 7302   3.177   4.142   0.784
 2428SOL     OW 7303   3.455   3.945   0.882
 2428SOL    HW1 7304   3.371   3.944   0.936
 2428SOL    HW2 7305   3.457   4.028   0.826
 2429SOL     OW 7306   2.092   4.352   1.975
 2429SOL    HW1 7307   1.999   4.350   2.012
 2429SOL    HW2 7308   2.093   4.313   1.883
 2430SOL     OW 7309   2.087   3.999   2.858
 2430SOL    HW1 7310   2.122   3.982   2.950
 2430SOL    HW2 7311   1.999   3.954   2.846
 2431SOL     OW 7312   1.881   4.092   2.509
 2431SOL    HW1 7313   1.799   4.135   2.548
 2431SOL    HW2 7314   1.853   4.019   2.446
 2432SOL     OW 7315   2.997   4.427   2.579
 2432SOL    HW1 7316   3.054   4.505   2.554
 2432SOL    HW2 7317   2.937   4.453   2.655
 2433SOL     OW 7318   3.617   4.331   2.093
 2433SOL    HW1 7319   3.605   4.318   1.994
 2433SOL    HW2 7320   3.587   4.250   2.142
 2434SOL     OW 7321   2.712   4.522   3.685
 2434SOL    HW1 7322   2.708   4.598   3.750
 2434SOL    HW2 7323   2.734   4.558   3.594
 2435SOL     OW 7324   2.547   4.736   2.527
 2435SOL    HW1 7325   2.616   4.720   2.597
 2435SOL    HW2 7326   2.474   4.793   2.565
 2436SOL     OW 7327   2.300   4.116   3.361
 2436SOL    HW1 7328   2.382   4.060   3.370
 2436SOL    HW2 7329   2.219   4.058   3.365
 2437SOL     OW 7330   3.465   4.171   2.599
 2437SOL    HW1 7331   3.391   4.217   2.549
 2437SOL    HW2 7332   3.516   4.239   2.652
 2438SOL     OW 7333   3.456   3.838   3.342
 2438SOL    HW1 7334   3.438   3.905   3.270
 2438SOL    HW2 7335   3.453   3.884   3.431
 2439SOL     OW 7336   1.984   4.367   2.425
 2439SOL    HW1 7337   1.939   4.279   2.442
 2439SOL    HW2 7338   1.983   4.421   2.509
 2440SOL     OW 7339   1.975   4.461   3.459
 2440SOL    HW1 7340   2.063   4.448   3.504
 2440SOL    HW2 7341   1.962   4.558   3.437
 2441SOL     OW 7342   2.671   3.728   2.364
 2441SOL    HW1 7343   2.711   3.819   2.355
 2441SOL    HW2 7344   2.571   3.736   2.370
 2442SOL     OW 7345   2.179   3.975   3.663
 2442SOL    HW1 7346   2.250   4.046   3.669
 2442SOL    HW2 7347   2.091   4.014   3.691
 2443SOL     OW 7348   2.460   4.453   2.132
 2443SOL    HW1 7349   2.484   4.522   2.064
 2443SOL    HW2 7350   2.382   4.486   2.186
 2444SOL     OW 7351   3.143   4.069   2.806
 2444SOL    HW1 7352   3.057   4.019   2.793
 2444SOL    HW2 7353   3.205   4.015   2.862
 2445SOL     OW 7354   2.669   4.329   3.327
 2445SOL    HW1 7355   2.622   4.326   3.416
 2445SOL    HW2 7356   2.618   4.274   3.261
 2446SOL     OW 7357   3.256   4.193   3.536
 2446SOL    HW1 7358   3.236   4.236   3.624
 2446SOL    HW2 7359   3.334   4.131   3.545
 2447SOL     OW 7360   2.853   4.134   3.104
 2447SOL    HW1 7361   2.776   4.168   3.158
 2447SOL    HW2 7362   2.819   4.083   3.025
 2448SOL     OW 7363   2.903   4.425   2.291
 2448SOL    HW1 7364   2.929   4.421   2.387
 2448SOL    HW2 7365   2.818   4.374   2.277
 2449SOL     OW 7366   2.727   4.072   2.057
 2449SOL    HW1 7367   2.786   4.135   2.008
 2449SOL    HW2 7368   2.746   3.978   2.028
 2450SOL     OW 7369   3.581   4.309   3.693
 2450SOL    HW1 7370   3.555   4.398   3.657
 2450SOL    HW2 7371   3.579   4.241   3.620
 2451SOL     OW 7372   2.412   3.920   2.747
 2451SOL    HW1 7373   2.407   3.915   2.847
 2451SOL    HW2 7374   2.414   4.016   2.718
 2452SOL     OW 7375   3.320   4.459   2.590
 2452SOL    HW1 7376   3.315   4.394   2.665
 2452SOL    HW2 7377   3.400   4.518   2.603
 2453SOL     OW 7378   2.064   4.009   3.360
 2453SOL    HW1 7379   1.984   4.069   3.347
 2453SOL    HW2 7380   2.054   3.960   3.446
 2454SOL     OW 7381   3.262   3.831   2.288
 2454SOL    HW1 7382   3.238   3.794   2.198
 2454SOL    HW2 7383   3.361   3.847   2.292
 2455SOL     OW 7384   2.244   4.424   2.342
 2455SOL    HW1 7385   2.289   4.334   2.339
 2455SOL    HW2 7386   2.150   4.413   2.375
 2456SOL     OW 7387   3.409   3.946   3.591
 2456SOL    HW1 7388   3.404   3.983   3.683
 2456SOL    HW2 7389   3.337   3.877   3.579
 2457SOL     OW 7390   2.476   3.846   1.979
 2457SOL    HW1 7391   2.574   3.824   1.986
 2457SOL    HW2 7392   2.445   3.829   1.886
 2458SOL     OW 7393   2.643   3.988   3.611
 2458SOL    HW1 7394   2.710   3.927   3.654
 2458SOL    HW2 7395   2.570   4.007   3.676
 2459SOL     OW 7396   3.213   4.314   3.295
 2459SOL    HW1 7397   3.241   4.271   3.380
 2459SOL    HW2 7398   3.238   4.410   3.296
 2460SOL     OW 7399   2.784   4.227   2.761
 2460SOL    HW1 7400   2.759   4.218   2.665
 2460SOL    HW2 7401   2.832   4.145   2.792
 2461SOL     OW 7402   2.401   3.788   2.374
 2461SOL    HW1 7403   2.320   3.789   2.432
 2461SOL    HW2 7404   2.404   3.871   2.319
 2462SOL     OW 7405   2.159   3.759   2.033
 2462SOL    HW1 7406   2.208   3.843   2.012
 2462SOL    HW2 7407   2.221   3.694   2.078
 2463SOL     OW 7408   2.797   3.960   2.342
 2463SOL    HW1 7409   2.749   4.001   2.264
 2463SOL    HW2 7410   2.896   3.958   2.323
 2464SOL     OW 7411   2.938   4.407   3.326
 2464SOL    HW1 7412   2.858   4.346   3.329
 2464SOL    HW2 7413   3.019   4.354   3.302
 2465SOL     OW 7414   2.894   4.273   1.878
 2465SOL    HW1 7415   2.853   4.355   1.839
 2465SOL    HW2 7416   2.958   4.299   1.951
 2466SOL     OW 7417   1.940   4.280   3.248
 2466SOL    HW1 7418   2.032   4.279   3.207
 2466SOL    HW2 7419   1.934   4.354   3.315
 2467SOL     OW 7420   2.423   3.946   3.009
 2467SOL    HW1 7421   2.461   3.862   3.046
 2467SOL    HW2 7422   2.335   3.965   3.053
 2468SOL     OW 7423   2.728   4.178   2.504
 2468SOL    HW1 7424   2.696   4.250   2.442
 2468SOL    HW2 7425   2.752   4.097   2.451
 2469SOL     OW 7426   2.879   3.763   2.615
 2469SOL    HW1 7427   2.807   3.768   2.546
 2469SOL    HW2 7428   2.855   3.694   2.684
 2470SOL     OW 7429   3.328   4.314   2.854
 2470SOL    HW1 7430   3.298   4.219   2.861
 2470SOL    HW2 7431   3.401   4.330   2.920
 2471SOL     OW 7432   3.719   4.557   2.239
 2471SOL    HW1 7433   3.761   4.493   2.303
 2471SOL    HW2 7434   3.681   4.506   2.161
 2472SOL     OW 7435   3.252   4.299   1.940
 2472SOL    HW1 7436   3.198   4.278   2.021
 2472SOL    HW2 7437   3.343   4.258   1.949
 2473SOL     OW 7438   2.389   3.980   2.190
 2473SOL    HW1 7439   2.416   3.921   2.115
 2473SOL    HW2 7440   2.389   4.075   2.159
 2474SOL     OW 7441   2.777   3.813   3.264
 2474SOL    HW1 7442   2.802   3.793   3.169
 2474SOL    HW2 7443   2.849   3.869   3.306
 2475SOL     OW 7444   2.567   4.774   2.230
 2475SOL    HW1 7445   2.553   4.781   2.329
 2475SOL    HW2 7446   2.651   4.723   2.212
 2476SOL     OW 7447   2.272   4.537   3.113
 2476SOL    HW1 7448   2.358   4.549   3.163
 2476SOL    HW2 7449   2.230   4.450   3.140
 2477SOL     OW 7450   3.136   4.110   3.124
 2477SOL    HW1 7451   3.157   4.184   3.188
 2477SOL    HW2 7452   3.047   4.127   3.081
 2478SOL     OW 7453   2.428   4.261   2.727
 2478SOL    HW1 7454   2.440   4.327   2.653
 2478SOL    HW2 7455   2.474   4.295   2.810
 2479SOL     OW 7456   3.444   4.363   2.334
 2479SOL    HW1 7457   3.413   4.424   2.407
 2479SOL    HW2 7458   3.494   4.415   2.265
 2480SOL     OW 7459   3.449   4.503   3.532
 2480SOL    HW1 7460   3.357   4.541   3.527
 2480SOL    HW2 7461   3.509   4.550   3.467
 2481SOL     OW 7462   2.875   3.829   3.632
 2481SOL    HW1 7463   2.881   3.914   3.580
 2481SOL    HW2 7464   2.907   3.753   3.575
 2482SOL     OW 7465   2.366   3.774   3.602
 2482SOL    HW1 7466   2.324   3.717   3.532
 2482SOL    HW2 7467   2.300   3.843   3.634
 2483SOL     OW 7468   3.222   4.586   2.907
 2483SOL    HW1 7469   3.147   4.586   2.841
 2483SOL    HW2 7470   3.259   4.494   2.916
 2484SOL     OW 7471   3.071   4.249   2.137
 2484SOL    HW1 7472   3.084   4.165   2.191
 2484SOL    HW2 7473   3.042   4.323   2.197
 2485SOL     OW 7474   2.169   3.937   3.093
 2485SOL    HW1 7475   2.146   3.974   3.183
 2485SOL    HW2 7476   2.139   3.842   3.087
 2486SOL     OW 7477   2.594   4.358   2.926
 2486SOL    HW1 7478   2.653   4.332   2.850
 2486SOL    HW2 7479   2.566   4.454   2.915
 2487SOL     OW 7480   3.590   4.659   3.716
 2487SOL    HW1 7481   3.544   4.652   3.627
 2487SOL    HW2 7482   3.528   4.703   3.782
 2488SOL     OW 7483   2.169   3.787   2.480
 2488SOL    HW1 7484   2.158   3.881   2.513
 2488SOL    HW2 7485   2.164   3.724   2.557
 2489SOL     OW 7486   3.484   4.091   2.236
 2489SOL    HW1 7487   3.486   4.015   2.300
 2489SOL    HW2 7488   3.436   4.168   2.276
 2490SOL     OW 7489   3.402   3.998   1.987
 2490SOL    HW1 7490   3.341   3.923   2.010
 2490SOL    HW2 7491   3.424   4.050   2.070
 2491SOL     OW 7492   2.181   4.534   2.811
 2491SOL    HW1 7493   2.274   4.570   2.816
 2491SOL    HW2 7494   2.175   4.449   2.863
 2492SOL     OW 7495   2.201   4.233   2.868
 2492SOL    HW1 7496   2.149   4.150   2.851
 2492SOL    HW2 7497   2.278   4.238   2.804
 2493SOL     OW 7498   3.000   4.104   3.540
 2493SOL    HW1 7499   2.955   4.167   3.604
 2493SOL    HW2 7500   3.093   4.135   3.523
 2494SOL     OW 7501   3.022   3.931   3.339
 2494SOL    HW1 7502   3.022   3.995   3.416
 2494SOL    HW2 7503   3.050   3.979   3.256
 2495SOL     OW 7504   1.902   4.268   2.976
 2495SOL    HW1 7505   1.987   4.235   2.935
 2495SOL    HW2 7506   1.915   4.283   3.074
 2496SOL     OW 7507   2.051   4.244   3.584
 2496SOL    HW1 7508   2.110   4.204   3.514
 2496SOL    HW2 7509   1.993   4.315   3.543
 2497SOL     OW 7510   2.677   4.296   2.187
 2497SOL    HW1 7511   2.684   4.207   2.141
 2497SOL    HW2 7512   2.583   4.330   2.179
 2498SOL     OW 7513   3.519   4.328   3.068
 2498SOL    HW1 7514   3.481   4.259   3.130
 2498SOL    HW2 7515   3.601   4.292   3.024
 2499SOL     OW 7516   2.533   4.188   3.131
 2499SOL    HW1 7517   2.499   4.099   3.101
 2499SOL    HW2 7518   2.559   4.242   3.051
 2500SOL     OW 7519   2.335   4.224   2.053
 2500SOL    HW1 7520   2.396   4.304   2.057
 2500SOL    HW2 7521   2.240   4.255   2.060
 2501SOL     OW 7522   3.588   3.859   2.385
 2501SOL    HW1 7523   3.661   3.842   2.318
 2501SOL    HW2 7524   3.557   3.772   2.423
 2502SOL     OW 7525   3.142   4.651   2.534
 2502SOL    HW1 7526   3.202   4.570   2.536
 2502SOL    HW2 7527   3.182   4.720   2.474
 2503SOL     OW 7528   3.703   3.899   2.825
 2503SOL    HW1 7529   3.742   3.814   2.789
 2503SOL    HW2 7530   3.605   3.901   2.806
 2504SOL     OW 7531   2.125   4.050   2.582
 2504SOL    HW1 7532   2.046   4.101   2.548
 2504SOL    HW2 7533   2.116   4.035   2.680
 2505SOL     OW 7534   2.778   4.634   2.153
 2505SOL    HW1 7535   2.841   4.672   2.085
 2505SOL    HW2 7536   2.818   4.551   2.192
 2506SOL     OW 7537   2.876   3.960   2.833
 2506SOL    HW1 7538   2.868   3.924   2.740
 2506SOL    HW2 7539   2.874   3.884   2.898
 2507SOL     OW 7540   3.571   4.109   3.243
 2507SOL    HW1 7541   3.644   4.178   3.247
 2507SOL    HW2 7542   3.599   4.034   3.184
 2508SOL     OW 7543   1.967   4.737   3.588
 2508SOL    HW1 7544   1.890   4.704   3.642
 2508SOL    HW2 7545   2.052   4.707   3.630
 2509SOL     OW 7546   2.534   3.927   3.351
 2509SOL    HW1 7547   2.624   3.911   3.311
 2509SOL    HW2 7548   2.542   3.932   3.450
 2510SOL     OW 7549   1.937   4.069   1.895
 2510SOL    HW1 7550   1.845   4.041   1.866
 2510SOL    HW2 7551   1.968   4.146   1.839
 2511SOL     OW 7552   3.302   4.580   3.260
 2511SOL    HW1 7553   3.245   4.632   3.197
 2511SOL    HW2 7554   3.398   4.592   3.236
 2512SOL     OW 7555   1.934   3.890   2.180
 2512SOL    HW1 7556   1.917   3.973   2.126
 2512SOL    HW2 7557   2.024   3.853   2.158
 2513SOL     OW 7558   2.475   4.566   3.293
 2513SOL    HW1 7559   2.531   4.647   3.276
 2513SOL    HW2 7560   2.534   4.486   3.296
 2514SOL     OW 7561   2.578   4.289   3.570
 2514SOL    HW1 7562   2.597   4.354   3.644
 2514SOL    HW2 7563   2.638   4.209   3.579
 2515SOL     OW 7564   3.536   4.607   3.116
 2515SOL    HW1 7565   3.509   4.518   3.079
 2515SOL    HW2 7566   3.537   4.675   3.043
 2516SOL     OW 7567   3.087   4.049   2.311
 2516SOL    HW1 7568   3.152   3.975   2.300
 2516SOL    HW2 7569   3.107   4.099   2.395
 2517SOL     OW 7570   2.456   4.469   2.514
 2517SOL    HW1 7571   2.506   4.554   2.495
 2517SOL    HW2 7572   2.368   4.471   2.466
 2518SOL     OW 7573   3.639   4.066   3.504
 2518SOL    HW1 7574   3.622   4.097   3.410
 2518SOL    HW2 7575   3.555   4.029   3.542
 2519SOL     OW 7576   3.686   3.916   3.089
 2519SOL    HW1 7577   3.682   3.826   3.133
 2519SOL    HW2 7578   3.689   3.905   2.990
 2520SOL     OW 7579   2.290   4.148   2.382
 2520SOL    HW1 7580   2.320   4.076   2.320
 2520SOL    HW2 7581   2.251   4.108   2.465
 2521SOL     OW 7582   2.179   4.271   3.142
 2521SOL    HW1 7583   2.217   4.212   3.214
 2521SOL    HW2 7584   2.219   4.245   3.054
 2522SOL     OW 7585   3.286   3.938   2.974
 2522SOL    HW1 7586   3.338   3.873   3.029
 2522SOL    HW2 7587   3.237   4.001   3.035
 2523SOL     OW 7588   2.863   3.758   3.016
 2523SOL    HW1 7589   2.800   3.686   2.985
 2523SOL    HW2 7590   2.956   3.722   3.016
 2524SOL     OW 7591   3.214   3.776   2.030
 2524SOL    HW1 7592   3.249   3.735   1.946
 2524SOL    HW2 7593   3.124   3.738   2.050
 2525SOL     OW 7594   3.162   4.177   2.553
 2525SOL    HW1 7595   3.103   4.257   2.557
 2525SOL    HW2 7596   3.177   4.142   2.646
 2526SOL     OW 7597   3.455   3.945   2.744
 2526SOL    HW1 7598   3.371   3.944   2.798
 2526SOL    HW2 7599   3.457   4.028   2.688
 2527SOL     OW 7600   2.092   4.352   3.837
 2527SOL    HW1 7601   1.999   4.350   3.874
 2527SOL    HW2 7602   2.093   4.313   3.745
 2528SOL     OW 7603   1.881   4.092   4.371
 2528SOL    HW1 7604   1.799   4.135   4.410
 2528SOL    HW2 7605   1.853   4.019   4.308
 2529SOL     OW 7606   2.997   4.427   4.441
 2529SOL    HW1 7607   3.054   4.505   4.416
 2529SOL    HW2 7608   2.937   4.453   4.517
 2530SOL     OW 7609   3.617   4.331   3.955
 2530SOL    HW1 7610   3.605   4.318   3.856
 2530SOL    HW2 7611   3.587   4.250   4.004
 2531SOL     OW 7612   2.547   4.736   4.389
 2531SOL    HW1 7613   2.616   4.720   4.459
 2531SOL    HW2 7614   2.474   4.793   4.427
 2532SOL     OW 7615   3.465   4.171   4.461
 2532SOL    HW1 7616   3.391   4.217   4.411
 2532SOL    HW2 7617   3.516   4.239   4.514
 2533SOL     OW 7618   1.984   4.367   4.287
 2533SOL    HW1 7619   1.939   4.279   4.304
 2533SOL    HW2 7620   1.983   4.421   4.371
 2534SOL     OW 7621   2.671   3.728   4.226
 2534SOL    HW1 7622   2.711   3.819   4.217
 2534SOL    HW2 7623   2.571   3.736   4.232
 2535SOL     OW 7624   2.460   4.453   3.994
 2535SOL    HW1 7625   2.484   4.522   3.926
 2535SOL    HW2 7626   2.382   4.486   4.048
 2536SOL     OW 7627   3.143   4.069   4.668
 2536SOL    HW1 7628   3.057   4.019   4.655
 2536SOL    HW2 7629   3.205   4.015   4.724
 2537SOL     OW 7630   2.903   4.425   4.153
 2537SOL    HW1 7631   2.929   4.421   4.249
 2537SOL    HW2 7632   2.818   4.374   4.139
 2538SOL     OW 7633   2.727   4.072   3.919
 2538SOL    HW1 7634   2.786   4.135   3.870
 2538SOL    HW2 7635   2.746   3.978   3.890
 2539SOL     OW 7636   2.412   3.920   4.609
 2539SOL    HW1 7637   2.407   3.915   4.709
 2539SOL    HW2 7638   2.414   4.016   4.580
 2540SOL     OW 7639   3.320   4.459   4.452
 2540SOL    HW1 7640   3.315   4.394   4.527
 2540SOL    HW2 7641   3.400   4.518   4.465
 2541SOL     OW 7642   3.262   3.831   4.150
 2541SOL    HW1 7643   3.238   3.794   4.060
 2541SOL    HW2 7644   3.361   3.847   4.154
 2542SOL     OW 7645   2.244   4.424   4.204
 2542SOL    HW1 7646   2.289   4.334   4.201
 2542SOL    HW2 7647   2.150   4.413   4.237
 2543SOL     OW 7648   2.476   3.846   3.841
 2543SOL    HW1 7649   2.574   3.824   3.848
 2543SOL    HW2 7650   2.445   3.829   3.748
 2544SOL     OW 7651   2.401   3.788   4.236
 2544SOL    HW1 7652   2.320   3.789   4.294
 2544SOL    HW2 7653   2.404   3.871   4.181
 2545SOL     OW 7654   2.159   3.759   3.895
 2545SOL    HW1 7655   2.208   3.843   3.874
 2545SOL    HW2 7656   2.221   3.694   3.940
 2546SOL     OW 7657   2.797   3.960   4.204
 2546SOL    HW1 7658   2.749   4.001   4.126
 2546SOL    HW2 7659   2.896   3.958   4.185
 2547SOL     OW 7660   2.321   4.876   4.465
 2547SOL    HW1 7661   2.250   4.849   4.530
 2547SOL    HW2 7662   2.295   4.848   4.372
 2548SOL     OW 7663   2.894   4.273   3.740
 2548SOL    HW1 7664   2.853   4.355   3.701
 2548SOL    HW2 7665   2.958   4.299   3.813
 2549SOL     OW 7666   2.728   4.178   4.366
 2549SOL    HW1 7667   2.696   4.250   4.304
 2549SOL    HW2 7668   2.752   4.097   4.313
 2550SOL     OW 7669   2.879   3.763   4.477
 2550SOL    HW1 7670   2.807   3.768   4.408
 2550SOL    HW2 7671   2.855   3.694   4.546
 2551SOL     OW 7672   3.291   4.897   4.591
 2551SOL    HW1 7673   3.236   4.813   4.584
 2551SOL    HW2 7674   3.317   4.926   4.499
 2552SOL     OW 7675   3.719   4.557   4.101
 2552SOL    HW1 7676   3.761   4.493   4.165
 2552SOL    HW2 7677   3.681   4.506   4.023
 2553SOL     OW 7678   3.252   4.299   3.802
 2553SOL    HW1 7679   3.198   4.278   3.883
 2553SOL    HW2 7680   3.343   4.258   3.811
 2554SOL     OW 7681   2.389   3.980   4.052
 2554SOL    HW1 7682   2.416   3.921   3.977
 2554SOL    HW2 7683   2.389   4.075   4.021
 2555SOL     OW 7684   2.567   4.774   4.092
 2555SOL    HW1 7685   2.553   4.781   4.191
 2555SOL    HW2 7686   2.651   4.723   4.074
 2556SOL     OW 7687   2.428   4.261   4.589
 2556SOL    HW1 7688   2.440   4.327   4.515
 2556SOL    HW2 7689   2.474   4.295   4.672
 2557SOL     OW 7690   3.444   4.363   4.196
 2557SOL    HW1 7691   3.413   4.424   4.269
 2557SOL    HW2 7692   3.494   4.415   4.127
 2558SOL     OW 7693   3.071   4.249   3.999
 2558SOL    HW1 7694   3.084   4.165   4.053
 2558SOL    HW2 7695   3.042   4.323   4.059
 2559SOL     OW 7696   2.169   3.787   4.342
 2559SOL    HW1 7697   2.158   3.881   4.375
 2559SOL    HW2 7698   2.164   3.724   4.419
 2560SOL     OW 7699   3.484   4.091   4.098
 2560SOL    HW1 7700   3.486   4.015   4.162
 2560SOL    HW2 7701   3.436   4.168   4.138
 2561SOL     OW 7702   3.402   3.998   3.849
 2561SOL    HW1 7703   3.341   3.923   3.872
 2561SOL    HW2 7704   3.424   4.050   3.932
 2562SOL     OW 7705   2.677   4.296   4.049
 2562SOL    HW1 7706   2.684   4.207   4.003
 2562SOL    HW2 7707   2.583   4.330   4.041
 2563SOL     OW 7708   2.335   4.224   3.915
 2563SOL    HW1 7709   2.396   4.304   3.919
 2563SOL    HW2 7710   2.240   4.255   3.922
 2564SOL     OW 7711   3.588   3.859   4.247
 2564SOL    HW1 7712   3.661   3.842   4.180
 2564SOL    HW2 7713   3.557   3.772   4.285
 2565SOL     OW 7714   3.142   4.651   4.396
 2565SOL    HW1 7715   3.202   4.570   4.398
 2565SOL    HW2 7716   3.182   4.720   4.336
 2566SOL     OW 7717   3.703   3.899   4.687
 2566SOL    HW1 7718   3.742   3.814   4.651
 2566SOL    HW2 7719   3.605   3.901   4.668
 2567SOL     OW 7720   2.125   4.050   4.444
 2567SOL    HW1 7721   2.046   4.101   4.410
 2567SOL    HW2 7722   2.116   4.035   4.542
 2568SOL     OW 7723   2.778   4.634   4.015
 2568SOL    HW1 7724   2.841   4.672   3.947
 2568SOL    HW2 7725   2.818   4.551   4.054
 2569SOL     OW 7726   1.937   4.069   3.757
 2569SOL    HW1 7727   1.845   4.041   3.728
 2569SOL    HW2 7728   1.968   4.146   3.701
 2570SOL     OW 7729   1.934   3.890   4.042
 2570SOL    HW1 7730   1.917   3.973   3.988
 2570SOL    HW2 7731   2.024   3.853   4.020
 2571SOL     OW 7732   3.087   4.049   4.173
 2571SOL    HW1 7733   3.152   3.975   4.162
 2571SOL    HW2 7734   3.107   4.099   4.257
 2572SOL     OW 7735   2.456   4.469   4.376
 2572SOL    HW1 7736   2.506   4.554   4.357
 2572SOL    HW2 7737   2.368   4.471   4.328
 2573SOL     OW 7738   2.290   4.148   4.244
 2573SOL    HW1 7739   2.320   4.076   4.182
 2573SOL    HW2 7740   2.251   4.108   4.327
 2574SOL     OW 7741   3.214   3.776   3.892
 2574SOL    HW1 7742   3.249   3.735   3.808
 2574SOL    HW2 7743   3.124   3.738   3.912
 2575SOL     OW 7744   3.162   4.177   4.415
 2575SOL    HW1 7745   3.103   4.257   4.419
 2575SOL    HW2 7746   3.177   4.142   4.508
 2576SOL     OW 7747   3.954   0.628   0.113
 2576SOL    HW1 7748   3.861   0.626   0.150
 2576SOL    HW2 7749   3.955   0.589   0.021
 2577SOL     OW 7750   3.949   0.275   0.996
 2577SOL    HW1 7751   3.984   0.258   1.088
 2577SOL    HW2 7752   3.861   0.230   0.984
 2578SOL     OW 7753   3.743   0.368   0.647
 2578SOL    HW1 7754   3.661   0.411   0.686
 2578SOL    HW2 7755   3.715   0.295   0.584
 2579SOL     OW 7756   4.293   1.275   1.165
 2579SOL    HW1 7757   4.200   1.268   1.128
 2579SOL    HW2 7758   4.304   1.364   1.209
 2580SOL     OW 7759   4.574   0.798   1.823
 2580SOL    HW1 7760   4.570   0.874   1.888
 2580SOL    HW2 7761   4.596   0.834   1.732
 2581SOL     OW 7762   4.409   1.012   0.665
 2581SOL    HW1 7763   4.478   0.996   0.735
 2581SOL    HW2 7764   4.336   1.069   0.703
 2582SOL     OW 7765   4.410   1.161   1.803
 2582SOL    HW1 7766   4.470   1.240   1.817
 2582SOL    HW2 7767   4.324   1.192   1.762
 2583SOL     OW 7768   4.059   1.435   1.061
 2583SOL    HW1 7769   3.981   1.404   1.008
 2583SOL    HW2 7770   4.117   1.493   1.004
 2584SOL     OW 7771   4.162   0.392   1.499
 2584SOL    HW1 7772   4.244   0.336   1.508
 2584SOL    HW2 7773   4.081   0.334   1.503
 2585SOL     OW 7774   3.955   1.713   0.483
 2585SOL    HW1 7775   3.989   1.790   0.537
 2585SOL    HW2 7776   3.999   1.713   0.393
 2586SOL     OW 7777   3.954   1.434   0.538
 2586SOL    HW1 7778   3.928   1.530   0.538
 2586SOL    HW2 7779   3.883   1.380   0.583
 2587SOL     OW 7780   3.964   1.091   0.886
 2587SOL    HW1 7781   3.978   1.007   0.938
 2587SOL    HW2 7782   3.909   1.155   0.941
 2588SOL     OW 7783   4.344   1.786   1.439
 2588SOL    HW1 7784   4.252   1.769   1.474
 2588SOL    HW2 7785   4.372   1.878   1.465
 2589SOL     OW 7786   4.330   0.964   0.123
 2589SOL    HW1 7787   4.337   1.048   0.069
 2589SOL    HW2 7788   4.376   0.977   0.211
 2590SOL     OW 7789   3.846   0.643   0.563
 2590SOL    HW1 7790   3.801   0.555   0.580
 2590SOL    HW2 7791   3.845   0.697   0.647
 2591SOL     OW 7792   3.751   1.596   0.117
 2591SOL    HW1 7793   3.732   1.500   0.138
 2591SOL    HW2 7794   3.718   1.654   0.192
 2592SOL     OW 7795   3.837   0.737   1.597
 2592SOL    HW1 7796   3.925   0.724   1.642
 2592SOL    HW2 7797   3.824   0.834   1.575
 2593SOL     OW 7798   4.337   1.365   0.726
 2593SOL    HW1 7799   4.288   1.278   0.735
 2593SOL    HW2 7800   4.314   1.408   0.639
 2594SOL     OW 7801   4.533   0.004   0.502
 2594SOL    HW1 7802   4.573   0.095   0.493
 2594SOL    HW2 7803   4.433   0.012   0.508
 2595SOL     OW 7804   3.921   0.976   1.264
 2595SOL    HW1 7805   4.010   0.931   1.250
 2595SOL    HW2 7806   3.848   0.911   1.245
 2596SOL     OW 7807   4.041   0.251   1.801
 2596SOL    HW1 7808   4.112   0.322   1.807
 2596SOL    HW2 7809   3.953   0.290   1.829
 2597SOL     OW 7810   4.322   0.729   0.270
 2597SOL    HW1 7811   4.346   0.798   0.202
 2597SOL    HW2 7812   4.244   0.762   0.324
 2598SOL     OW 7813   3.800   0.811   0.789
 2598SOL    HW1 7814   3.899   0.799   0.798
 2598SOL    HW2 7815   3.776   0.906   0.810
 2599SOL     OW 7816   3.854   1.821   1.571
 2599SOL    HW1 7817   3.844   1.806   1.670
 2599SOL    HW2 7818   3.768   1.857   1.535
 2600SOL     OW 7819   4.274   0.196   0.885
 2600SOL    HW1 7820   4.269   0.191   0.985
 2600SOL    HW2 7821   4.276   0.292   0.856
 2601SOL     OW 7822   4.075   1.801   0.853
 2601SOL    HW1 7823   4.125   1.715   0.859
 2601SOL    HW2 7824   4.140   1.878   0.850
 2602SOL     OW 7825   4.045   0.943   0.242
 2602SOL    HW1 7826   4.127   0.982   0.200
 2602SOL    HW2 7827   4.018   0.861   0.193
 2603SOL     OW 7828   4.185   1.266   1.727
 2603SOL    HW1 7829   4.135   1.267   1.641
 2603SOL    HW2 7830   4.122   1.248   1.803
 2604SOL     OW 7831   3.926   0.285   1.498
 2604SOL    HW1 7832   3.846   0.345   1.485
 2604SOL    HW2 7833   3.916   0.236   1.584
 2605SOL     OW 7834   4.188   1.743   0.323
 2605SOL    HW1 7835   4.221   1.782   0.409
 2605SOL    HW2 7836   4.264   1.736   0.258
 2606SOL     OW 7837   3.973   1.785   1.241
 2606SOL    HW1 7838   4.030   1.720   1.291
 2606SOL    HW2 7839   3.957   1.752   1.148
 2607SOL     OW 7840   4.106   0.700   0.480
 2607SOL    HW1 7841   4.151   0.610   0.477
 2607SOL    HW2 7842   4.012   0.689   0.513
 2608SOL     OW 7843   4.338   0.122   0.117
 2608SOL    HW1 7844   4.436   0.100   0.124
 2608SOL    HW2 7845   4.307   0.105   0.024
 2609SOL     OW 7846   4.527   1.402   0.924
 2609SOL    HW1 7847   4.617   1.416   0.882
 2609SOL    HW2 7848   4.456   1.404   0.853
 2610SOL     OW 7849   4.646   0.503   0.899
 2610SOL    HW1 7850   4.621   0.494   0.803
 2610SOL    HW2 7851   4.694   0.421   0.930
 2611SOL     OW 7852   4.263   0.064   0.512
 2611SOL    HW1 7853   4.182   0.065   0.570
 2611SOL    HW2 7854   4.266   0.147   0.457
 2612SOL     OW 7855   4.021   0.035   0.171
 2612SOL    HW1 7856   4.070   0.119   0.150
 2612SOL    HW2 7857   4.083  -0.030   0.216
 2613SOL     OW 7858   4.183   1.152   0.741
 2613SOL    HW1 7859   4.112   1.125   0.806
 2613SOL    HW2 7860   4.157   1.124   0.648
 2614SOL     OW 7861   3.802   0.556   1.386
 2614SOL    HW1 7862   3.894   0.555   1.345
 2614SOL    HW2 7863   3.796   0.630   1.453
 2615SOL     OW 7864   4.285   0.222   1.147
 2615SOL    HW1 7865   4.323   0.138   1.184
 2615SOL    HW2 7866   4.197   0.241   1.191
 2616SOL     OW 7867   4.212   1.385   0.174
 2616SOL    HW1 7868   4.125   1.370   0.221
 2616SOL    HW2 7869   4.195   1.411   0.079
 2617SOL     OW 7870   4.251   0.256   0.328
 2617SOL    HW1 7871   4.278   0.197   0.253
 2617SOL    HW2 7872   4.251   0.351   0.297
 2618SOL     OW 7873   4.639   0.089   1.402
 2618SOL    HW1 7874   4.664   0.069   1.307
 2618SOL    HW2 7875   4.711   0.145   1.444
 2619SOL     OW 7876   4.134   0.813   1.251
 2619SOL    HW1 7877   4.220   0.825   1.301
 2619SOL    HW2 7878   4.092   0.726   1.278
 2620SOL     OW 7879   3.788   1.564   1.331
 2620SOL    HW1 7880   3.742   1.646   1.297
 2620SOL    HW2 7881   3.886   1.583   1.340
 2621SOL     OW 7882   4.091   1.100   0.501
 2621SOL    HW1 7883   4.084   1.183   0.445
 2621SOL    HW2 7884   4.095   1.020   0.441
 2622SOL     OW 7885   4.290   0.537   0.865
 2622SOL    HW1 7886   4.302   0.603   0.791
 2622SOL    HW2 7887   4.336   0.571   0.948
 2623SOL     OW 7888   4.078   1.510   1.329
 2623SOL    HW1 7889   4.057   1.466   1.242
 2623SOL    HW2 7890   4.175   1.536   1.332
 2624SOL     OW 7891   4.126   0.751   1.598
 2624SOL    HW1 7892   4.194   0.806   1.551
 2624SOL    HW2 7893   4.166   0.663   1.625
 2625SOL     OW 7894   4.228   0.050   1.740
 2625SOL    HW1 7895   4.186  -0.007   1.670
 2625SOL    HW2 7896   4.162   0.119   1.772
 2626SOL     OW 7897   4.297   0.870   1.029
 2626SOL    HW1 7898   4.341   0.959   1.020
 2626SOL    HW2 7899   4.234   0.870   1.106
 2627SOL     OW 7900   4.031   0.213   1.231
 2627SOL    HW1 7901   4.008   0.250   1.321
 2627SOL    HW2 7902   4.001   0.118   1.225
 2628SOL     OW 7903   3.761   1.310   1.282
 2628SOL    HW1 7904   3.814   1.261   1.350
 2628SOL    HW2 7905   3.783   1.408   1.287
 2629SOL     OW 7906   4.456   0.634   1.064
 2629SOL    HW1 7907   4.515   0.608   0.988
 2629SOL    HW2 7908   4.428   0.730   1.053
 2630SOL     OW 7909   4.031   0.063   0.618
 2630SOL    HW1 7910   4.020   0.157   0.651
 2630SOL    HW2 7911   4.026   0.000   0.695
 2631SOL     OW 7912   4.747   0.766   0.966
 2631SOL    HW1 7913   4.762   0.787   1.062
 2631SOL    HW2 7914   4.717   0.671   0.957
 2632SOL     OW 7915   4.074   0.898   1.804
 2632SOL    HW1 7916   4.150   0.942   1.852
 2632SOL    HW2 7917   4.109   0.851   1.722
 2633SOL     OW 7918   4.792   1.333   0.849
 2633SOL    HW1 7919   4.799   1.249   0.794
 2633SOL    HW2 7920   4.854   1.402   0.813
 2634SOL     OW 7921   4.043   0.810   0.949
 2634SOL    HW1 7922   4.136   0.846   0.954
 2634SOL    HW2 7923   4.037   0.725   1.001
 2635SOL     OW 7924   4.063   0.509   1.006
 2635SOL    HW1 7925   4.011   0.426   0.989
 2635SOL    HW2 7926   4.140   0.514   0.942
 2636SOL     OW 7927   3.732   1.326   0.200
 2636SOL    HW1 7928   3.639   1.347   0.169
 2636SOL    HW2 7929   3.742   1.227   0.213
 2637SOL     OW 7930   3.812   1.801   0.927
 2637SOL    HW1 7931   3.770   1.715   0.900
 2637SOL    HW2 7932   3.906   1.804   0.893
 2638SOL     OW 7933   4.228   1.568   0.910
 2638SOL    HW1 7934   4.294   1.642   0.919
 2638SOL    HW2 7935   4.272   1.489   0.868
 2639SOL     OW 7936   3.764   0.544   1.114
 2639SOL    HW1 7937   3.849   0.511   1.073
 2639SOL    HW2 7938   3.777   0.559   1.212
 2640SOL     OW 7939   3.913   0.520   1.722
 2640SOL    HW1 7940   3.972   0.480   1.652
 2640SOL    HW2 7941   3.855   0.591   1.681
 2641SOL     OW 7942   4.539   0.572   0.325
 2641SOL    HW1 7943   4.546   0.483   0.279
 2641SOL    HW2 7944   4.445   0.606   0.317
 2642SOL     OW 7945   3.976   1.564   1.744
 2642SOL    HW1 7946   3.946   1.621   1.820
 2642SOL    HW2 7947   3.969   1.467   1.770
 2643SOL     OW 7948   4.395   0.464   1.269
 2643SOL    HW1 7949   4.361   0.375   1.239
 2643SOL    HW2 7950   4.421   0.518   1.189
 2644SOL     OW 7951   4.197   0.500   0.191
 2644SOL    HW1 7952   4.258   0.580   0.195
 2644SOL    HW2 7953   4.102   0.531   0.198
 2645SOL     OW 7954   3.883   1.137   1.466
 2645SOL    HW1 7955   3.905   1.076   1.542
 2645SOL    HW2 7956   3.893   1.088   1.380
 2646SOL     OW 7957   3.807   1.258   1.022
 2646SOL    HW1 7958   3.802   1.257   1.122
 2646SOL    HW2 7959   3.724   1.217   0.984
 2647SOL     OW 7960   4.412   1.662   1.716
 2647SOL    HW1 7961   4.356   1.743   1.725
 2647SOL    HW2 7962   4.464   1.666   1.630
 2648SOL     OW 7963   3.854   1.794   1.851
 2648SOL    HW1 7964   3.813   1.720   1.904
 2648SOL    HW2 7965   3.918   1.845   1.909
 2649SOL     OW 7966   4.396   1.616   0.154
 2649SOL    HW1 7967   4.405   1.626   0.055
 2649SOL    HW2 7968   4.356   1.527   0.175
 2650SOL     OW 7969   3.987   0.326   0.720
 2650SOL    HW1 7970   3.908   0.377   0.686
 2650SOL    HW2 7971   3.978   0.311   0.818
 2651SOL     OW 7972   4.546   1.002   1.372
 2651SOL    HW1 7973   4.586   1.001   1.280
 2651SOL    HW2 7974   4.556   1.094   1.412
 2652SOL     OW 7975   4.096   1.288   1.490
 2652SOL    HW1 7976   4.083   1.381   1.456
 2652SOL    HW2 7977   4.012   1.236   1.477
 2653SOL     OW 7978   4.314   1.487   0.491
 2653SOL    HW1 7979   4.356   1.429   0.421
 2653SOL    HW2 7980   4.270   1.566   0.447
 2654SOL     OW 7981   3.979   1.348   0.290
 2654SOL    HW1 7982   3.883   1.349   0.263
 2654SOL    HW2 7983   3.991   1.401   0.374
 2655SOL     OW 7984   3.829   1.013   1.726
 2655SOL    HW1 7985   3.752   0.980   1.780
 2655SOL    HW2 7986   3.914   0.983   1.768
 2656SOL     OW 7987   4.396   0.203   1.489
 2656SOL    HW1 7988   4.486   0.187   1.449
 2656SOL    HW2 7989   4.404   0.208   1.588
 2657SOL     OW 7990   3.799   0.345   0.033
 2657SOL    HW1 7991   3.707   0.317   0.004
 2657SOL    HW2 7992   3.830   0.422  -0.023
 2658SOL     OW 7993   3.796   0.166   0.318
 2658SOL    HW1 7994   3.779   0.249   0.264
 2658SOL    HW2 7995   3.886   0.129   0.296
 2659SOL     OW 7996   4.337   0.842   1.431
 2659SOL    HW1 7997   4.393   0.923   1.414
 2659SOL    HW2 7998   4.396   0.762   1.434
 2660SOL     OW 7999   4.440   0.565   1.708
 2660SOL    HW1 8000   4.459   0.630   1.782
 2660SOL    HW2 8001   4.500   0.485   1.717
 2661SOL     OW 8002   4.114   1.741   1.560
 2661SOL    HW1 8003   4.023   1.782   1.558
 2661SOL    HW2 8004   4.107   1.647   1.592
 2662SOL     OW 8005   4.318   0.745   0.652
 2662SOL    HW1 8006   4.368   0.830   0.633
 2662SOL    HW2 8007   4.230   0.747   0.604
 2663SOL     OW 8008   4.385   1.790   0.953
 2663SOL    HW1 8009   4.339   1.878   0.940
 2663SOL    HW2 8010   4.484   1.802   0.946
 2664SOL     OW 8011   3.945   1.314   1.844
 2664SOL    HW1 8012   3.880   1.241   1.823
 2664SOL    HW2 8013   3.949   1.328   1.942
 2665SOL     OW 8014   3.803   1.240   0.653
 2665SOL    HW1 8015   3.802   1.193   0.741
 2665SOL    HW2 8016   3.885   1.212   0.602
 2666SOL     OW 8017   4.396   1.391   1.624
 2666SOL    HW1 8018   4.318   1.341   1.662
 2666SOL    HW2 8019   4.393   1.486   1.655
 2667SOL     OW 8020   4.152   0.424   0.520
 2667SOL    HW1 8021   4.182   0.352   0.458
 2667SOL    HW2 8022   4.113   0.384   0.603
 2668SOL     OW 8023   4.041   0.547   1.280
 2668SOL    HW1 8024   4.079   0.488   1.352
 2668SOL    HW2 8025   4.081   0.521   1.192
 2669SOL     OW 8026   4.536   1.586   0.687
 2669SOL    HW1 8027   4.568   1.596   0.593
 2669SOL    HW2 8028   4.457   1.524   0.689
 2670SOL     OW 8029   4.725   0.034   1.154
 2670SOL    HW1 8030   4.662  -0.038   1.123
 2670SOL    HW2 8031   4.818  -0.002   1.154
 2671SOL     OW 8032   4.342   1.567   1.284
 2671SOL    HW1 8033   4.337   1.649   1.341
 2671SOL    HW2 8034   4.431   1.564   1.239
 2672SOL     OW 8035   3.763   1.077   0.300
 2672SOL    HW1 8036   3.862   1.066   0.291
 2672SOL    HW2 8037   3.723   0.991   0.332
 2673SOL     OW 8038   3.954   0.628   1.975
 2673SOL    HW1 8039   3.861   0.626   2.012
 2673SOL    HW2 8040   3.955   0.589   1.883
 2674SOL     OW 8041   3.949   0.275   2.858
 2674SOL    HW1 8042   3.984   0.258   2.950
 2674SOL    HW2 8043   3.861   0.230   2.846
 2675SOL     OW 8044   3.743   0.368   2.509
 2675SOL    HW1 8045   3.661   0.411   2.548
 2675SOL    HW2 8046   3.715   0.295   2.446
 2676SOL     OW 8047   4.293   1.275   3.027
 2676SOL    HW1 8048   4.200   1.268   2.990
 2676SOL    HW2 8049   4.304   1.364   3.071
 2677SOL     OW 8050   4.574   0.798   3.685
 2677SOL    HW1 8051   4.570   0.874   3.750
 2677SOL    HW2 8052   4.596   0.834   3.594
 2678SOL     OW 8053   4.409   1.012   2.527
 2678SOL    HW1 8054   4.478   0.996   2.597
 2678SOL    HW2 8055   4.336   1.069   2.565
 2679SOL     OW 8056   4.410   1.161   3.665
 2679SOL    HW1 8057   4.470   1.240   3.679
 2679SOL    HW2 8058   4.324   1.192   3.624
 2680SOL     OW 8059   4.059   1.435   2.923
 2680SOL    HW1 8060   3.981   1.404   2.870
 2680SOL    HW2 8061   4.117   1.493   2.866
 2681SOL     OW 8062   4.162   0.392   3.361
 2681SOL    HW1 8063   4.244   0.336   3.370
 2681SOL    HW2 8064   4.081   0.334   3.365
 2682SOL     OW 8065   3.955   1.713   2.345
 2682SOL    HW1 8066   3.989   1.790   2.399
 2682SOL    HW2 8067   3.999   1.713   2.255
 2683SOL     OW 8068   3.954   1.434   2.400
 2683SOL    HW1 8069   3.928   1.530   2.400
 2683SOL    HW2 8070   3.883   1.380   2.445
 2684SOL     OW 8071   3.964   1.091   2.748
 2684SOL    HW1 8072   3.978   1.007   2.800
 2684SOL    HW2 8073   3.909   1.155   2.803
 2685SOL     OW 8074   4.344   1.786   3.301
 2685SOL    HW1 8075   4.252   1.769   3.336
 2685SOL    HW2 8076   4.372   1.878   3.327
 2686SOL     OW 8077   4.330   0.964   1.985
 2686SOL    HW1 8078   4.337   1.048   1.931
 2686SOL    HW2 8079   4.376   0.977   2.073
 2687SOL     OW 8080   3.846   0.643   2.425
 2687SOL    HW1 8081   3.801   0.555   2.442
 2687SOL    HW2 8082   3.845   0.697   2.509
 2688SOL     OW 8083   3.751   1.596   1.979
 2688SOL    HW1 8084   3.732   1.500   2.000
 2688SOL    HW2 8085   3.718   1.654   2.054
 2689SOL     OW 8086   3.837   0.737   3.459
 2689SOL    HW1 8087   3.925   0.724   3.504
 2689SOL    HW2 8088   3.824   0.834   3.437
 2690SOL     OW 8089   4.337   1.365   2.588
 2690SOL    HW1 8090   4.288   1.278   2.597
 2690SOL    HW2 8091   4.314   1.408   2.501
 2691SOL     OW 8092   4.533   0.004   2.364
 2691SOL    HW1 8093   4.573   0.095   2.355
 2691SOL    HW2 8094   4.433   0.012   2.370
 2692SOL     OW 8095   3.921   0.976   3.126
 2692SOL    HW1 8096   4.010   0.931   3.112
 2692SOL    HW2 8097   3.848   0.911   3.107
 2693SOL     OW 8098   4.041   0.251   3.663
 2693SOL    HW1 8099   4.112   0.322   3.669
 2693SOL    HW2 8100   3.953   0.290   3.691
 2694SOL     OW 8101   4.322   0.729   2.132
 2694SOL    HW1 8102   4.346   0.798   2.064
 2694SOL    HW2 8103   4.244   0.762   2.186
 2695SOL     OW 8104   3.800   0.811   2.651
 2695SOL    HW1 8105   3.899   0.799   2.660
 2695SOL    HW2 8106   3.776   0.906   2.672
 2696SOL     OW 8107   3.854   1.821   3.433
 2696SOL    HW1 8108   3.844   1.806   3.532
 2696SOL    HW2 8109   3.768   1.857   3.397
 2697SOL     OW 8110   4.274   0.196   2.747
 2697SOL    HW1 8111   4.269   0.191   2.847
 2697SOL    HW2 8112   4.276   0.292   2.718
 2698SOL     OW 8113   4.075   1.801   2.715
 2698SOL    HW1 8114   4.125   1.715   2.721
 2698SOL    HW2 8115   4.140   1.878   2.712
 2699SOL     OW 8116   4.045   0.943   2.104
 2699SOL    HW1 8117   4.127   0.982   2.062
 2699SOL    HW2 8118   4.018   0.861   2.055
 2700SOL     OW 8119   4.185   1.266   3.589
 2700SOL    HW1 8120   4.135   1.267   3.503
 2700SOL    HW2 8121   4.122   1.248   3.665
 2701SOL     OW 8122   3.926   0.285   3.360
 2701SOL    HW1 8123   3.846   0.345   3.347
 2701SOL    HW2 8124   3.916   0.236   3.446
 2702SOL     OW 8125   4.188   1.743   2.185
 2702SOL    HW1 8126   4.221   1.782   2.271
 2702SOL    HW2 8127   4.264   1.736   2.120
 2703SOL     OW 8128   3.973   1.785   3.103
 2703SOL    HW1 8129   4.030   1.720   3.153
 2703SOL    HW2 8130   3.957   1.752   3.010
 2704SOL     OW 8131   4.106   0.700   2.342
 2704SOL    HW1 8132   4.151   0.610   2.339
 2704SOL    HW2 8133   4.012   0.689   2.375
 2705SOL     OW 8134   4.338   0.122   1.979
 2705SOL    HW1 8135   4.436   0.100   1.986
 2705SOL    HW2 8136   4.307   0.105   1.886
 2706SOL     OW 8137   4.527   1.402   2.786
 2706SOL    HW1 8138   4.617   1.416   2.744
 2706SOL    HW2 8139   4.456   1.404   2.715
 2707SOL     OW 8140   4.646   0.503   2.761
 2707SOL    HW1 8141   4.621   0.494   2.665
 2707SOL    HW2 8142   4.694   0.421   2.792
 2708SOL     OW 8143   4.263   0.064   2.374
 2708SOL    HW1 8144   4.182   0.065   2.432
 2708SOL    HW2 8145   4.266   0.147   2.319
 2709SOL     OW 8146   4.021   0.035   2.033
 2709SOL    HW1 8147   4.070   0.119   2.012
 2709SOL    HW2 8148   4.083  -0.030   2.078
 2710SOL     OW 8149   4.183   1.152   2.603
 2710SOL    HW1 8150   4.112   1.125   2.668
 2710SOL    HW2 8151   4.157   1.124   2.510
 2711SOL     OW 8152   3.802   0.556   3.248
 2711SOL    HW1 8153   3.894   0.555   3.207
 2711SOL    HW2 8154   3.796   0.630   3.315
 2712SOL     OW 8155   4.285   0.222   3.009
 2712SOL    HW1 8156   4.323   0.138   3.046
 2712SOL    HW2 8157   4.197   0.241   3.053
 2713SOL     OW 8158   4.212   1.385   2.036
 2713SOL    HW1 8159   4.125   1.370   2.083
 2713SOL    HW2 8160   4.195   1.411   1.941
 2714SOL     OW 8161   4.251   0.256   2.190
 2714SOL    HW1 8162   4.278   0.197   2.115
 2714SOL    HW2 8163   4.251   0.351   2.159
 2715SOL     OW 8164   4.639   0.089   3.264
 2715SOL    HW1 8165   4.664   0.069   3.169
 2715SOL    HW2 8166   4.711   0.145   3.306
 2716SOL     OW 8167   4.134   0.813   3.113
 2716SOL    HW1 8168   4.220   0.825   3.163
 2716SOL    HW2 8169   4.092   0.726   3.140
 2717SOL     OW 8170   3.788   1.564   3.193
 2717SOL    HW1 8171   3.742   1.646   3.159
 2717SOL    HW2 8172   3.886   1.583   3.202
 2718SOL     OW 8173   4.091   1.100   2.363
 2718SOL    HW1 8174   4.084   1.183   2.307
 2718SOL    HW2 8175   4.095   1.020   2.303
 2719SOL     OW 8176   4.290   0.537   2.727
 2719SOL    HW1 8177   4.302   0.603   2.653
 2719SOL    HW2 8178   4.336   0.571   2.810
 2720SOL     OW 8179   4.078   1.510   3.191
 2720SOL    HW1 8180   4.057   1.466   3.104
 2720SOL    HW2 8181   4.175   1.536   3.194
 2721SOL     OW 8182   4.126   0.751   3.460
 2721SOL    HW1 8183   4.194   0.806   3.413
 2721SOL    HW2 8184   4.166   0.663   3.487
 2722SOL     OW 8185   4.228   0.050   3.602
 2722SOL    HW1 8186   4.186  -0.007   3.532
 2722SOL    HW2 8187   4.162   0.119   3.634
 2723SOL     OW 8188   4.297   0.870   2.891
 2723SOL    HW1 8189   4.341   0.959   2.882
 2723SOL    HW2 8190   4.234   0.870   2.968
 2724SOL     OW 8191   4.031   0.213   3.093
 2724SOL    HW1 8192   4.008   0.250   3.183
 2724SOL    HW2 8193   4.001   0.118   3.087
 2725SOL     OW 8194   3.761   1.310   3.144
 2725SOL    HW1 8195   3.814   1.261   3.212
 2725SOL    HW2 8196   3.783   1.408   3.149
 2726SOL     OW 8197   4.456   0.634   2.926
 2726SOL    HW1 8198   4.515   0.608   2.850
 2726SOL    HW2 8199   4.428   0.730   2.915
 2727SOL     OW 8200   4.031   0.063   2.480
 2727SOL    HW1 8201   4.020   0.157   2.513
 2727SOL    HW2 8202   4.026   0.000   2.557
 2728SOL     OW 8203   4.747   0.766   2.828
 2728SOL    HW1 8204   4.762   0.787   2.924
 2728SOL    HW2 8205   4.717   0.671   2.819
 2729SOL     OW 8206   4.074   0.898   3.666
 2729SOL    HW1 8207   4.150   0.942   3.714
 2729SOL    HW2 8208   4.109   0.851   3.584
 2730SOL     OW 8209   4.792   1.333   2.711
 2730SOL    HW1 8210   4.799   1.249   2.656
 2730SOL    HW2 8211   4.854   1.402   2.675
 2731SOL     OW 8212   4.043   0.810   2.811
 2731SOL    HW1 8213   4.136   0.846   2.816
 2731SOL    HW2 8214   4.037   0.725   2.863
 2732SOL     OW 8215   4.063   0.509   2.868
 2732SOL    HW1 8216   4.011   0.426   2.851
 2732SOL    HW2 8217   4.140   0.514   2.804
 2733SOL     OW 8218   3.732   1.326   2.062
 2733SOL    HW1 8219   3.639   1.347   2.031
 2733SOL    HW2 8220   3.742   1.227   2.075
 2734SOL     OW 8221   3.812   1.801   2.789
 2734SOL    HW1 8222   3.770   1.715   2.762
 2734SOL    HW2 8223   3.906   1.804   2.755
 2735SOL     OW 8224   4.228   1.568   2.772
 2735SOL    HW1 8225   4.294   1.642   2.781
 2735SOL    HW2 8226   4.272   1.489   2.730
 2736SOL     OW 8227   3.764   0.544   2.976
 2736SOL    HW1 8228   3.849   0.511   2.935
 2736SOL    HW2 8229   3.777   0.559   3.074
 2737SOL     OW 8230   3.913   0.520   3.584
 2737SOL    HW1 8231   3.972   0.480   3.514
 2737SOL    HW2 8232   3.855   0.591   3.543
 2738SOL     OW 8233   4.539   0.572   2.187
 2738SOL    HW1 8234   4.546   0.483   2.141
 2738SOL    HW2 8235   4.445   0.606   2.179
 2739SOL     OW 8236   3.976   1.564   3.606
 2739SOL    HW1 8237   3.946   1.621   3.682
 2739SOL    HW2 8238   3.969   1.467   3.632
 2740SOL     OW 8239   4.395   0.464   3.131
 2740SOL    HW1 8240   4.361   0.375   3.101
 2740SOL    HW2 8241   4.421   0.518   3.051
 2741SOL     OW 8242   4.197   0.500   2.053
 2741SOL    HW1 8243   4.258   0.580   2.057
 2741SOL    HW2 8244   4.102   0.531   2.060
 2742SOL     OW 8245   3.883   1.137   3.328
 2742SOL    HW1 8246   3.905   1.076   3.404
 2742SOL    HW2 8247   3.893   1.088   3.242
 2743SOL     OW 8248   3.807   1.258   2.884
 2743SOL    HW1 8249   3.802   1.257   2.984
 2743SOL    HW2 8250   3.724   1.217   2.846
 2744SOL     OW 8251   4.412   1.662   3.578
 2744SOL    HW1 8252   4.356   1.743   3.587
 2744SOL    HW2 8253   4.464   1.666   3.492
 2745SOL     OW 8254   4.627   0.086   1.995
 2745SOL    HW1 8255   4.678   0.087   1.909
 2745SOL    HW2 8256   4.683   0.044   2.066
 2746SOL     OW 8257   3.854   1.794   3.713
 2746SOL    HW1 8258   3.813   1.720   3.766
 2746SOL    HW2 8259   3.918   1.845   3.771
 2747SOL     OW 8260   4.396   1.616   2.016
 2747SOL    HW1 8261   4.405   1.626   1.917
 2747SOL    HW2 8262   4.356   1.527   2.037
 2748SOL     OW 8263   3.987   0.326   2.582
 2748SOL    HW1 8264   3.908   0.377   2.548
 2748SOL    HW2 8265   3.978   0.311   2.680
 2749SOL     OW 8266   4.546   1.002   3.234
 2749SOL    HW1 8267   4.586   1.001   3.142
 2749SOL    HW2 8268   4.556   1.094   3.274
 2750SOL     OW 8269   4.096   1.288   3.352
 2750SOL    HW1 8270   4.083   1.381   3.318
 2750SOL    HW2 8271   4.012   1.236   3.339
 2751SOL     OW 8272   4.314   1.487   2.353
 2751SOL    HW1 8273   4.356   1.429   2.283
 2751SOL    HW2 8274   4.270   1.566   2.309
 2752SOL     OW 8275   3.979   1.348   2.152
 2752SOL    HW1 8276   3.883   1.349   2.125
 2752SOL    HW2 8277   3.991   1.401   2.236
 2753SOL     OW 8278   3.829   1.013   3.588
 2753SOL    HW1 8279   3.752   0.980   3.642
 2753SOL    HW2 8280   3.914   0.983   3.630
 2754SOL     OW 8281   4.396   0.203   3.351
 2754SOL    HW1 8282   4.486   0.187   3.311
 2754SOL    HW2 8283   4.404   0.208   3.450
 2755SOL     OW 8284   3.799   0.345   1.895
 2755SOL    HW1 8285   3.707   0.317   1.866
 2755SOL    HW2 8286   3.830   0.422   1.839
 2756SOL     OW 8287   3.796   0.166   2.180
 2756SOL    HW1 8288   3.779   0.249   2.126
 2756SOL    HW2 8289   3.886   0.129   2.158
 2757SOL     OW 8290   4.337   0.842   3.293
 2757SOL    HW1 8291   4.393   0.923   3.276
 2757SOL    HW2 8292   4.396   0.762   3.296
 2758SOL     OW 8293   4.440   0.565   3.570
 2758SOL    HW1 8294   4.459   0.630   3.644
 2758SOL    HW2 8295   4.500   0.485   3.579
 2759SOL     OW 8296   4.114   1.741   3.422
 2759SOL    HW1 8297   4.023   1.782   3.420
 2759SOL    HW2 8298   4.107   1.647   3.454
 2760SOL     OW 8299   4.318   0.745   2.514
 2760SOL    HW1 8300   4.368   0.830   2.495
 2760SOL    HW2 8301   4.230   0.747   2.466
 2761SOL     OW 8302   4.385   1.790   2.815
 2761SOL    HW1 8303   4.339   1.878   2.802
 2761SOL    HW2 8304   4.484   1.802   2.808
 2762SOL     OW 8305   3.945   1.314   3.706
 2762SOL    HW1 8306   3.880   1.241   3.685
 2762SOL    HW2 8307   3.949   1.328   3.804
 2763SOL     OW 8308   3.803   1.240   2.515
 2763SOL    HW1 8309   3.802   1.193   2.603
 2763SOL    HW2 8310   3.885   1.212   2.464
 2764SOL     OW 8311   4.396   1.391   3.486
 2764SOL    HW1 8312   4.318   1.341   3.524
 2764SOL    HW2 8313   4.393   1.486   3.517
 2765SOL     OW 8314   4.152   0.424   2.382
 2765SOL    HW1 8315   4.182   0.352   2.320
 2765SOL    HW2 8316   4.113   0.384   2.465
 2766SOL     OW 8317   4.041   0.547   3.142
 2766SOL    HW1 8318   4.079   0.488   3.214
 2766SOL    HW2 8319   4.081   0.521   3.054
 2767SOL     OW 8320   4.536   1.586   2.549
 2767SOL    HW1 8321   4.568   1.596   2.455
 2767SOL    HW2 8322   4.457   1.524   2.551
 2768SOL     OW 8323   4.725   0.034   3.016
 2768SOL    HW1 8324   4.662  -0.038   2.985
 2768SOL    HW2 8325   4.818  -0.002   3.016
 2769SOL     OW 8326   4.342   1.567   3.146
 2769SOL    HW1 8327   4.337   1.649   3.203
 2769SOL    HW2 8328   4.431   1.564   3.101
 2770SOL     OW 8329   3.763   1.077   2.162
 2770SOL    HW1 8330   3.862   1.066   2.153
 2770SOL    HW2 8331   3.723   0.991   2.194
 2771SOL     OW 8332   3.954   0.628   3.837
 2771SOL    HW1 8333   3.861   0.626   3.874
 2771SOL    HW2 8334   3.955   0.589   3.745
 2772SOL     OW 8335   3.743   0.368   4.371
 2772SOL    HW1 8336   3.661   0.411   4.410
 2772SOL    HW2 8337   3.715   0.295   4.308
 2773SOL     OW 8338   4.409   1.012   4.389
 2773SOL    HW1 8339   4.478   0.996   4.459
 2773SOL    HW2 8340   4.336   1.069   4.427
 2774SOL     OW 8341   3.955   1.713   4.207
 2774SOL    HW1 8342   3.989   1.790   4.261
 2774SOL    HW2 8343   3.999   1.713   4.117
 2775SOL     OW 8344   3.954   1.434   4.262
 2775SOL    HW1 8345   3.928   1.530   4.262
 2775SOL    HW2 8346   3.883   1.380   4.307
 2776SOL     OW 8347   3.964   1.091   4.610
 2776SOL    HW1 8348   3.978   1.007   4.662
 2776SOL    HW2 8349   3.909   1.155   4.665
 2777SOL     OW 8350   4.330   0.964   3.847
 2777SOL    HW1 8351   4.337   1.048   3.793
 2777SOL    HW2 8352   4.376   0.977   3.935
 2778SOL     OW 8353   3.846   0.643   4.287
 2778SOL    HW1 8354   3.801   0.555   4.304
 2778SOL    HW2 8355   3.845   0.697   4.371
 2779SOL     OW 8356   3.751   1.596   3.841
 2779SOL    HW1 8357   3.732   1.500   3.862
 2779SOL    HW2 8358   3.718   1.654   3.916
 2780SOL     OW 8359   4.337   1.365   4.450
 2780SOL    HW1 8360   4.288   1.278   4.459
 2780SOL    HW2 8361   4.314   1.408   4.363
 2781SOL     OW 8362   4.533   0.004   4.226
 2781SOL    HW1 8363   4.573   0.095   4.217
 2781SOL    HW2 8364   4.433   0.012   4.232
 2782SOL     OW 8365   4.322   0.729   3.994
 2782SOL    HW1 8366   4.346   0.798   3.926
 2782SOL    HW2 8367   4.244   0.762   4.048
 2783SOL     OW 8368   3.800   0.811   4.513
 2783SOL    HW1 8369   3.899   0.799   4.522
 2783SOL    HW2 8370   3.776   0.906   4.534
 2784SOL     OW 8371   4.075   1.801   4.577
 2784SOL    HW1 8372   4.125   1.715   4.583
 2784SOL    HW2 8373   4.140   1.878   4.574
 2785SOL     OW 8374   4.045   0.943   3.966
 2785SOL    HW1 8375   4.127   0.982   3.924
 2785SOL    HW2 8376   4.018   0.861   3.917
 2786SOL     OW 8377   4.188   1.743   4.047
 2786SOL    HW1 8378   4.221   1.782   4.133
 2786SOL    HW2 8379   4.264   1.736   3.982
 2787SOL     OW 8380   4.106   0.700   4.204
 2787SOL    HW1 8381   4.151   0.610   4.201
 2787SOL    HW2 8382   4.012   0.689   4.237
 2788SOL     OW 8383   4.338   0.122   3.841
 2788SOL    HW1 8384   4.436   0.100   3.848
 2788SOL    HW2 8385   4.307   0.105   3.748
 2789SOL     OW 8386   4.263   0.064   4.236
 2789SOL    HW1 8387   4.182   0.065   4.294
 2789SOL    HW2 8388   4.266   0.147   4.181
 2790SOL     OW 8389   4.021   0.035   3.895
 2790SOL    HW1 8390   4.070   0.119   3.874
 2790SOL    HW2 8391   4.083  -0.030   3.940
 2791SOL     OW 8392   4.183   1.152   4.465
 2791SOL    HW1 8393   4.112   1.125   4.530
 2791SOL    HW2 8394   4.157   1.124   4.372
 2792SOL     OW 8395   4.212   1.385   3.898
 2792SOL    HW1 8396   4.125   1.370   3.945
 2792SOL    HW2 8397   4.195   1.411   3.803
 2793SOL     OW 8398   4.251   0.256   4.052
 2793SOL    HW1 8399   4.278   0.197   3.977
 2793SOL    HW2 8400   4.251   0.351   4.021
 2794SOL     OW 8401   4.091   1.100   4.225
 2794SOL    HW1 8402   4.084   1.183   4.169
 2794SOL    HW2 8403   4.095   1.020   4.165
 2795SOL     OW 8404   4.290   0.537   4.589
 2795SOL    HW1 8405   4.302   0.603   4.515
 2795SOL    HW2 8406   4.336   0.571   4.672
 2796SOL     OW 8407   4.031   0.063   4.342
 2796SOL    HW1 8408   4.020   0.157   4.375
 2796SOL    HW2 8409   4.026   0.000   4.419
 2797SOL     OW 8410   4.792   1.333   4.573
 2797SOL    HW1 8411   4.799   1.249   4.518
 2797SOL    HW2 8412   4.854   1.402   4.537
 2798SOL     OW 8413   3.732   1.326   3.924
 2798SOL    HW1 8414   3.639   1.347   3.893
 2798SOL    HW2 8415   3.742   1.227   3.937
 2799SOL     OW 8416   4.539   0.572   4.049
 2799SOL    HW1 8417   4.546   0.483   4.003
 2799SOL    HW2 8418   4.445   0.606   4.041
 2800SOL     OW 8419   4.197   0.500   3.915
 2800SOL    HW1 8420   4.258   0.580   3.919
 2800SOL    HW2 8421   4.102   0.531   3.922
 2801SOL     OW 8422   4.627   0.086   3.857
 2801SOL    HW1 8423   4.678   0.087   3.771
 2801SOL    HW2 8424   4.683   0.044   3.928
 2802SOL     OW 8425   4.396   1.616   3.878
 2802SOL    HW1 8426   4.405   1.626   3.779
 2802SOL    HW2 8427   4.356   1.527   3.899
 2803SOL     OW 8428   3.987   0.326   4.444
 2803SOL    HW1 8429   3.908   0.377   4.410
 2803SOL    HW2 8430   3.978   0.311   4.542
 2804SOL     OW 8431   4.314   1.487   4.215
 2804SOL    HW1 8432   4.356   1.429   4.145
 2804SOL    HW2 8433   4.270   1.566   4.171
 2805SOL     OW 8434   3.979   1.348   4.014
 2805SOL    HW1 8435   3.883   1.349   3.987
 2805SOL    HW2 8436   3.991   1.401   4.098
 2806SOL     OW 8437   3.799   0.345   3.757
 2806SOL    HW1 8438   3.707   0.317   3.728
 2806SOL    HW2 8439   3.830   0.422   3.701
 2807SOL     OW 8440   3.796   0.166   4.042
 2807SOL    HW1 8441   3.779   0.249   3.988
 2807SOL    HW2 8442   3.886   0.129   4.020
 2808SOL     OW 8443   4.318   0.745   4.376
 2808SOL    HW1 8444   4.368   0.830   4.357
 2808SOL    HW2 8445   4.230   0.747   4.328
 2809SOL     OW 8446   4.385   1.790   4.677
 2809SOL    HW1 8447   4.339   1.878   4.664
 2809SOL    HW2 8448   4.484   1.802   4.670
 2810SOL     OW 8449   3.803   1.240   4.377
 2810SOL    HW1 8450   3.802   1.193   4.465
 2810SOL    HW2 8451   3.885   1.212   4.326
 2811SOL     OW 8452   4.152   0.424   4.244
 2811SOL    HW1 8453   4.182   0.352   4.182
 2811SOL    HW2 8454   4.113   0.384   4.327
 2812SOL     OW 8455   4.536   1.586   4.411
 2812SOL    HW1 8456   4.568   1.596   4.317
 2812SOL    HW2 8457   4.457   1.524   4.413
 2813SOL     OW 8458   3.763   1.077   4.024
 2813SOL    HW1 8459   3.862   1.066   4.015
 2813SOL    HW2 8460   3.723   0.991   4.056
 2814SOL     OW 8461   3.954   2.490   0.113
 2814SOL    HW1 8462   3.861   2.488   0.150
 2814SOL    HW2 8463   3.955   2.451   0.021
 2815SOL     OW 8464   3.949   2.137   0.996
 2815SOL    HW1 8465   3.984   2.120   1.088
 2815SOL    HW2 8466   3.861   2.092   0.984
 2816SOL     OW 8467   3.743   2.230   0.647
 2816SOL    HW1 8468   3.661   2.273   0.686
 2816SOL    HW2 8469   3.715   2.157   0.584
 2817SOL     OW 8470   4.293   3.137   1.165
 2817SOL    HW1 8471   4.200   3.130   1.128
 2817SOL    HW2 8472   4.304   3.226   1.209
 2818SOL     OW 8473   4.574   2.660   1.823
 2818SOL    HW1 8474   4.570   2.736   1.888
 2818SOL    HW2 8475   4.596   2.696   1.732
 2819SOL     OW 8476   4.409   2.874   0.665
 2819SOL    HW1 8477   4.478   2.858   0.735
 2819SOL    HW2 8478   4.336   2.931   0.703
 2820SOL     OW 8479   4.410   3.023   1.803
 2820SOL    HW1 8480   4.470   3.102   1.817
 2820SOL    HW2 8481   4.324   3.054   1.762
 2821SOL     OW 8482   4.059   3.297   1.061
 2821SOL    HW1 8483   3.981   3.266   1.008
 2821SOL    HW2 8484   4.117   3.355   1.004
 2822SOL     OW 8485   4.162   2.254   1.499
 2822SOL    HW1 8486   4.244   2.198   1.508
 2822SOL    HW2 8487   4.081   2.196   1.503
 2823SOL     OW 8488   3.955   3.575   0.483
 2823SOL    HW1 8489   3.989   3.652   0.537
 2823SOL    HW2 8490   3.999   3.575   0.393
 2824SOL     OW 8491   3.954   3.296   0.538
 2824SOL    HW1 8492   3.928   3.392   0.538
 2824SOL    HW2 8493   3.883   3.242   0.583
 2825SOL     OW 8494   3.964   2.953   0.886
 2825SOL    HW1 8495   3.978   2.869   0.938
 2825SOL    HW2 8496   3.909   3.017   0.941
 2826SOL     OW 8497   4.344   3.648   1.439
 2826SOL    HW1 8498   4.252   3.631   1.474
 2826SOL    HW2 8499   4.372   3.740   1.465
 2827SOL     OW 8500   4.330   2.826   0.123
 2827SOL    HW1 8501   4.337   2.910   0.069
 2827SOL    HW2 8502   4.376   2.839   0.211
 2828SOL     OW 8503   3.846   2.505   0.563
 2828SOL    HW1 8504   3.801   2.417   0.580
 2828SOL    HW2 8505   3.845   2.559   0.647
 2829SOL     OW 8506   3.751   3.458   0.117
 2829SOL    HW1 8507   3.732   3.362   0.138
 2829SOL    HW2 8508   3.718   3.516   0.192
 2830SOL     OW 8509   3.837   2.599   1.597
 2830SOL    HW1 8510   3.925   2.586   1.642
 2830SOL    HW2 8511   3.824   2.696   1.575
 2831SOL     OW 8512   4.337   3.227   0.726
 2831SOL    HW1 8513   4.288   3.140   0.735
 2831SOL    HW2 8514   4.314   3.270   0.639
 2832SOL     OW 8515   4.533   1.866   0.502
 2832SOL    HW1 8516   4.573   1.957   0.493
 2832SOL    HW2 8517   4.433   1.874   0.508
 2833SOL     OW 8518   3.921   2.838   1.264
 2833SOL    HW1 8519   4.010   2.793   1.250
 2833SOL    HW2 8520   3.848   2.773   1.245
 2834SOL     OW 8521   4.041   2.113   1.801
 2834SOL    HW1 8522   4.112   2.184   1.807
 2834SOL    HW2 8523   3.953   2.152   1.829
 2835SOL     OW 8524   4.322   2.591   0.270
 2835SOL    HW1 8525   4.346   2.660   0.202
 2835SOL    HW2 8526   4.244   2.624   0.324
 2836SOL     OW 8527   3.800   2.673   0.789
 2836SOL    HW1 8528   3.899   2.661   0.798
 2836SOL    HW2 8529   3.776   2.768   0.810
 2837SOL     OW 8530   3.854   3.683   1.571
 2837SOL    HW1 8531   3.844   3.668   1.670
 2837SOL    HW2 8532   3.768   3.719   1.535
 2838SOL     OW 8533   4.274   2.058   0.885
 2838SOL    HW1 8534   4.269   2.053   0.985
 2838SOL    HW2 8535   4.276   2.154   0.856
 2839SOL     OW 8536   4.075   3.663   0.853
 2839SOL    HW1 8537   4.125   3.577   0.859
 2839SOL    HW2 8538   4.140   3.740   0.850
 2840SOL     OW 8539   4.045   2.805   0.242
 2840SOL    HW1 8540   4.127   2.844   0.200
 2840SOL    HW2 8541   4.018   2.723   0.193
 2841SOL     OW 8542   4.185   3.128   1.727
 2841SOL    HW1 8543   4.135   3.129   1.641
 2841SOL    HW2 8544   4.122   3.110   1.803
 2842SOL     OW 8545   3.926   2.147   1.498
 2842SOL    HW1 8546   3.846   2.207   1.485
 2842SOL    HW2 8547   3.916   2.098   1.584
 2843SOL     OW 8548   4.188   3.605   0.323
 2843SOL    HW1 8549   4.221   3.644   0.409
 2843SOL    HW2 8550   4.264   3.598   0.258
 2844SOL     OW 8551   3.973   3.647   1.241
 2844SOL    HW1 8552   4.030   3.582   1.291
 2844SOL    HW2 8553   3.957   3.614   1.148
 2845SOL     OW 8554   4.106   2.562   0.480
 2845SOL    HW1 8555   4.151   2.472   0.477
 2845SOL    HW2 8556   4.012   2.551   0.513
 2846SOL     OW 8557   4.527   3.264   0.924
 2846SOL    HW1 8558   4.617   3.278   0.882
 2846SOL    HW2 8559   4.456   3.266   0.853
 2847SOL     OW 8560   4.646   2.365   0.899
 2847SOL    HW1 8561   4.621   2.356   0.803
 2847SOL    HW2 8562   4.694   2.283   0.930
 2848SOL     OW 8563   4.263   1.926   0.512
 2848SOL    HW1 8564   4.182   1.927   0.570
 2848SOL    HW2 8565   4.266   2.009   0.457
 2849SOL     OW 8566   4.021   1.897   0.171
 2849SOL    HW1 8567   4.070   1.981   0.150
 2849SOL    HW2 8568   4.083   1.832   0.216
 2850SOL     OW 8569   4.183   3.014   0.741
 2850SOL    HW1 8570   4.112   2.987   0.806
 2850SOL    HW2 8571   4.157   2.986   0.648
 2851SOL     OW 8572   3.802   2.418   1.386
 2851SOL    HW1 8573   3.894   2.417   1.345
 2851SOL    HW2 8574   3.796   2.492   1.453
 2852SOL     OW 8575   4.285   2.084   1.147
 2852SOL    HW1 8576   4.323   2.000   1.184
 2852SOL    HW2 8577   4.197   2.103   1.191
 2853SOL     OW 8578   4.212   3.247   0.174
 2853SOL    HW1 8579   4.125   3.232   0.221
 2853SOL    HW2 8580   4.195   3.273   0.079
 2854SOL     OW 8581   4.251   2.118   0.328
 2854SOL    HW1 8582   4.278   2.059   0.253
 2854SOL    HW2 8583   4.251   2.213   0.297
 2855SOL     OW 8584   4.639   1.951   1.402
 2855SOL    HW1 8585   4.664   1.931   1.307
 2855SOL    HW2 8586   4.711   2.007   1.444
 2856SOL     OW 8587   4.134   2.675   1.251
 2856SOL    HW1 8588   4.220   2.687   1.301
 2856SOL    HW2 8589   4.092   2.588   1.278
 2857SOL     OW 8590   3.788   3.426   1.331
 2857SOL    HW1 8591   3.742   3.508   1.297
 2857SOL    HW2 8592   3.886   3.445   1.340
 2858SOL     OW 8593   4.091   2.962   0.501
 2858SOL    HW1 8594   4.084   3.045   0.445
 2858SOL    HW2 8595   4.095   2.882   0.441
 2859SOL     OW 8596   4.290   2.399   0.865
 2859SOL    HW1 8597   4.302   2.465   0.791
 2859SOL    HW2 8598   4.336   2.433   0.948
 2860SOL     OW 8599   4.078   3.372   1.329
 2860SOL    HW1 8600   4.057   3.328   1.242
 2860SOL    HW2 8601   4.175   3.398   1.332
 2861SOL     OW 8602   4.126   2.613   1.598
 2861SOL    HW1 8603   4.194   2.668   1.551
 2861SOL    HW2 8604   4.166   2.525   1.625
 2862SOL     OW 8605   4.228   1.912   1.740
 2862SOL    HW1 8606   4.186   1.855   1.670
 2862SOL    HW2 8607   4.162   1.981   1.772
 2863SOL     OW 8608   4.297   2.732   1.029
 2863SOL    HW1 8609   4.341   2.821   1.020
 2863SOL    HW2 8610   4.234   2.732   1.106
 2864SOL     OW 8611   4.031   2.075   1.231
 2864SOL    HW1 8612   4.008   2.112   1.321
 2864SOL    HW2 8613   4.001   1.980   1.225
 2865SOL     OW 8614   3.761   3.172   1.282
 2865SOL    HW1 8615   3.814   3.123   1.350
 2865SOL    HW2 8616   3.783   3.270   1.287
 2866SOL     OW 8617   4.456   2.496   1.064
 2866SOL    HW1 8618   4.515   2.470   0.988
 2866SOL    HW2 8619   4.428   2.592   1.053
 2867SOL     OW 8620   4.031   1.925   0.618
 2867SOL    HW1 8621   4.020   2.019   0.651
 2867SOL    HW2 8622   4.026   1.862   0.695
 2868SOL     OW 8623   4.747   2.628   0.966
 2868SOL    HW1 8624   4.762   2.649   1.062
 2868SOL    HW2 8625   4.717   2.533   0.957
 2869SOL     OW 8626   4.074   2.760   1.804
 2869SOL    HW1 8627   4.150   2.804   1.852
 2869SOL    HW2 8628   4.109   2.713   1.722
 2870SOL     OW 8629   4.792   3.195   0.849
 2870SOL    HW1 8630   4.799   3.111   0.794
 2870SOL    HW2 8631   4.854   3.264   0.813
 2871SOL     OW 8632   4.043   2.672   0.949
 2871SOL    HW1 8633   4.136   2.708   0.954
 2871SOL    HW2 8634   4.037   2.587   1.001
 2872SOL     OW 8635   4.063   2.371   1.006
 2872SOL    HW1 8636   4.011   2.288   0.989
 2872SOL    HW2 8637   4.140   2.376   0.942
 2873SOL     OW 8638   3.732   3.188   0.200
 2873SOL    HW1 8639   3.639   3.209   0.169
 2873SOL    HW2 8640   3.742   3.089   0.213
 2874SOL     OW 8641   3.812   3.663   0.927
 2874SOL    HW1 8642   3.770   3.577   0.900
 2874SOL    HW2 8643   3.906   3.666   0.893
 2875SOL     OW 8644   4.228   3.430   0.910
 2875SOL    HW1 8645   4.294   3.504   0.919
 2875SOL    HW2 8646   4.272   3.351   0.868
 2876SOL     OW 8647   3.764   2.406   1.114
 2876SOL    HW1 8648   3.849   2.373   1.073
 2876SOL    HW2 8649   3.777   2.421   1.212
 2877SOL     OW 8650   3.913   2.382   1.722
 2877SOL    HW1 8651   3.972   2.342   1.652
 2877SOL    HW2 8652   3.855   2.453   1.681
 2878SOL     OW 8653   4.539   2.434   0.325
 2878SOL    HW1 8654   4.546   2.345   0.279
 2878SOL    HW2 8655   4.445   2.468   0.317
 2879SOL     OW 8656   3.976   3.426   1.744
 2879SOL    HW1 8657   3.946   3.483   1.820
 2879SOL    HW2 8658   3.969   3.329   1.770
 2880SOL     OW 8659   4.395   2.326   1.269
 2880SOL    HW1 8660   4.361   2.237   1.239
 2880SOL    HW2 8661   4.421   2.380   1.189
 2881SOL     OW 8662   4.197   2.362   0.191
 2881SOL    HW1 8663   4.258   2.442   0.195
 2881SOL    HW2 8664   4.102   2.393   0.198
 2882SOL     OW 8665   3.883   2.999   1.466
 2882SOL    HW1 8666   3.905   2.938   1.542
 2882SOL    HW2 8667   3.893   2.950   1.380
 2883SOL     OW 8668   3.807   3.120   1.022
 2883SOL    HW1 8669   3.802   3.119   1.122
 2883SOL    HW2 8670   3.724   3.079   0.984
 2884SOL     OW 8671   4.412   3.524   1.716
 2884SOL    HW1 8672   4.356   3.605   1.725
 2884SOL    HW2 8673   4.464   3.528   1.630
 2885SOL     OW 8674   4.627   1.948   0.133
 2885SOL    HW1 8675   4.678   1.949   0.047
 2885SOL    HW2 8676   4.683   1.906   0.204
 2886SOL     OW 8677   3.854   3.656   1.851
 2886SOL    HW1 8678   3.813   3.582   1.904
 2886SOL    HW2 8679   3.918   3.707   1.909
 2887SOL     OW 8680   4.396   3.478   0.154
 2887SOL    HW1 8681   4.405   3.488   0.055
 2887SOL    HW2 8682   4.356   3.389   0.175
 2888SOL     OW 8683   3.987   2.188   0.720
 2888SOL    HW1 8684   3.908   2.239   0.686
 2888SOL    HW2 8685   3.978   2.173   0.818
 2889SOL     OW 8686   4.546   2.864   1.372
 2889SOL    HW1 8687   4.586   2.863   1.280
 2889SOL    HW2 8688   4.556   2.956   1.412
 2890SOL     OW 8689   4.096   3.150   1.490
 2890SOL    HW1 8690   4.083   3.243   1.456
 2890SOL    HW2 8691   4.012   3.098   1.477
 2891SOL     OW 8692   4.314   3.349   0.491
 2891SOL    HW1 8693   4.356   3.291   0.421
 2891SOL    HW2 8694   4.270   3.428   0.447
 2892SOL     OW 8695   3.979   3.210   0.290
 2892SOL    HW1 8696   3.883   3.211   0.263
 2892SOL    HW2 8697   3.991   3.263   0.374
 2893SOL     OW 8698   3.829   2.875   1.726
 2893SOL    HW1 8699   3.752   2.842   1.780
 2893SOL    HW2 8700   3.914   2.845   1.768
 2894SOL     OW 8701   4.396   2.065   1.489
 2894SOL    HW1 8702   4.486   2.049   1.449
 2894SOL    HW2 8703   4.404   2.070   1.588
 2895SOL     OW 8704   3.799   2.207   0.033
 2895SOL    HW1 8705   3.707   2.179   0.004
 2895SOL    HW2 8706   3.830   2.284  -0.023
 2896SOL     OW 8707   3.796   2.028   0.318
 2896SOL    HW1 8708   3.779   2.111   0.264
 2896SOL    HW2 8709   3.886   1.991   0.296
 2897SOL     OW 8710   4.337   2.704   1.431
 2897SOL    HW1 8711   4.393   2.785   1.414
 2897SOL    HW2 8712   4.396   2.624   1.434
 2898SOL     OW 8713   4.440   2.427   1.708
 2898SOL    HW1 8714   4.459   2.492   1.782
 2898SOL    HW2 8715   4.500   2.347   1.717
 2899SOL     OW 8716   4.114   3.603   1.560
 2899SOL    HW1 8717   4.023   3.644   1.558
 2899SOL    HW2 8718   4.107   3.509   1.592
 2900SOL     OW 8719   4.318   2.607   0.652
 2900SOL    HW1 8720   4.368   2.692   0.633
 2900SOL    HW2 8721   4.230   2.609   0.604
 2901SOL     OW 8722   4.385   3.652   0.953
 2901SOL    HW1 8723   4.339   3.740   0.940
 2901SOL    HW2 8724   4.484   3.664   0.946
 2902SOL     OW 8725   3.945   3.176   1.844
 2902SOL    HW1 8726   3.880   3.103   1.823
 2902SOL    HW2 8727   3.949   3.190   1.942
 2903SOL     OW 8728   3.803   3.102   0.653
 2903SOL    HW1 8729   3.802   3.055   0.741
 2903SOL    HW2 8730   3.885   3.074   0.602
 2904SOL     OW 8731   4.396   3.253   1.624
 2904SOL    HW1 8732   4.318   3.203   1.662
 2904SOL    HW2 8733   4.393   3.348   1.655
 2905SOL     OW 8734   4.152   2.286   0.520
 2905SOL    HW1 8735   4.182   2.214   0.458
 2905SOL    HW2 8736   4.113   2.246   0.603
 2906SOL     OW 8737   4.041   2.409   1.280
 2906SOL    HW1 8738   4.079   2.350   1.352
 2906SOL    HW2 8739   4.081   2.383   1.192
 2907SOL     OW 8740   4.536   3.448   0.687
 2907SOL    HW1 8741   4.568   3.458   0.593
 2907SOL    HW2 8742   4.457   3.386   0.689
 2908SOL     OW 8743   4.342   3.429   1.284
 2908SOL    HW1 8744   4.337   3.511   1.341
 2908SOL    HW2 8745   4.431   3.426   1.239
 2909SOL     OW 8746   3.763   2.939   0.300
 2909SOL    HW1 8747   3.862   2.928   0.291
 2909SOL    HW2 8748   3.723   2.853   0.332
 2910SOL     OW 8749   3.954   2.490   1.975
 2910SOL    HW1 8750   3.861   2.488   2.012
 2910SOL    HW2 8751   3.955   2.451   1.883
 2911SOL     OW 8752   3.949   2.137   2.858
 2911SOL    HW1 8753   3.984   2.120   2.950
 2911SOL    HW2 8754   3.861   2.092   2.846
 2912SOL     OW 8755   3.743   2.230   2.509
 2912SOL    HW1 8756   3.661   2.273   2.548
 2912SOL    HW2 8757   3.715   2.157   2.446
 2913SOL     OW 8758   4.293   3.137   3.027
 2913SOL    HW1 8759   4.200   3.130   2.990
 2913SOL    HW2 8760   4.304   3.226   3.071
 2914SOL     OW 8761   4.574   2.660   3.685
 2914SOL    HW1 8762   4.570   2.736   3.750
 2914SOL    HW2 8763   4.596   2.696   3.594
 2915SOL     OW 8764   4.409   2.874   2.527
 2915SOL    HW1 8765   4.478   2.858   2.597
 2915SOL    HW2 8766   4.336   2.931   2.565
 2916SOL     OW 8767   4.410   3.023   3.665
 2916SOL    HW1 8768   4.470   3.102   3.679
 2916SOL    HW2 8769   4.324   3.054   3.624
 2917SOL     OW 8770   4.059   3.297   2.923
 2917SOL    HW1 8771   3.981   3.266   2.870
 2917SOL    HW2 8772   4.117   3.355   2.866
 2918SOL     OW 8773   4.162   2.254   3.361
 2918SOL    HW1 8774   4.244   2.198   3.370
 2918SOL    HW2 8775   4.081   2.196   3.365
 2919SOL     OW 8776   3.955   3.575   2.345
 2919SOL    HW1 8777   3.989   3.652   2.399
 2919SOL    HW2 8778   3.999   3.575   2.255
 2920SOL     OW 8779   3.954   3.296   2.400
 2920SOL    HW1 8780   3.928   3.392   2.400
 2920SOL    HW2 8781   3.883   3.242   2.445
 2921SOL     OW 8782   3.964   2.953   2.748
 2921SOL    HW1 8783   3.978   2.869   2.800
 2921SOL    HW2 8784   3.909   3.017   2.803
 2922SOL     OW 8785   4.344   3.648   3.301
 2922SOL    HW1 8786   4.252   3.631   3.336
 2922SOL    HW2 8787   4.372   3.740   3.327
 2923SOL     OW 8788   4.330   2.826   1.985
 2923SOL    HW1 8789   4.337   2.910   1.931
 2923SOL    HW2 8790   4.376   2.839   2.073
 2924SOL     OW 8791   3.846   2.505   2.425
 2924SOL    HW1 8792   3.801   2.417   2.442
 2924SOL    HW2 8793   3.845   2.559   2.509
 2925SOL     OW 8794   3.751   3.458   1.979
 2925SOL    HW1 8795   3.732   3.362   2.000
 2925SOL    HW2 8796   3.718   3.516   2.054
 2926SOL     OW 8797   3.837   2.599   3.459
 2926SOL    HW1 8798   3.925   2.586   3.504
 2926SOL    HW2 8799   3.824   2.696   3.437
 2927SOL     OW 8800   4.337   3.227   2.588
 2927SOL    HW1 8801   4.288   3.140   2.597
 2927SOL    HW2 8802   4.314   3.270   2.501
 2928SOL     OW 8803   4.533   1.866   2.364
 2928SOL    HW1 8804   4.573   1.957   2.355
 2928SOL    HW2 8805   4.433   1.874   2.370
 2929SOL     OW 8806   3.921   2.838   3.126
 2929SOL    HW1 8807   4.010   2.793   3.112
 2929SOL    HW2 8808   3.848   2.773   3.107
 2930SOL     OW 8809   4.041   2.113   3.663
 2930SOL    HW1 8810   4.112   2.184   3.669
 2930SOL    HW2 8811   3.953   2.152   3.691
 2931SOL     OW 8812   4.322   2.591   2.132
 2931SOL    HW1 8813   4.346   2.660   2.064
 2931SOL    HW2 8814   4.244   2.624   2.186
 2932SOL     OW 8815   3.800   2.673   2.651
 2932SOL    HW1 8816   3.899   2.661   2.660
 2932SOL    HW2 8817   3.776   2.768   2.672
 2933SOL     OW 8818   3.854   3.683   3.433
 2933SOL    HW1 8819   3.844   3.668   3.532
 2933SOL    HW2 8820   3.768   3.719   3.397
 2934SOL     OW 8821   4.274   2.058   2.747
 2934SOL    HW1 8822   4.269   2.053   2.847
 2934SOL    HW2 8823   4.276   2.154   2.718
 2935SOL     OW 8824   4.075   3.663   2.715
 2935SOL    HW1 8825   4.125   3.577   2.721
 2935SOL    HW2 8826   4.140   3.740   2.712
 2936SOL     OW 8827   4.045   2.805   2.104
 2936SOL    HW1 8828   4.127   2.844   2.062
 2936SOL    HW2 8829   4.018   2.723   2.055
 2937SOL     OW 8830   4.185   3.128   3.589
 2937SOL    HW1 8831   4.135   3.129   3.503
 2937SOL    HW2 8832   4.122   3.110   3.665
 2938SOL     OW 8833   3.926   2.147   3.360
 2938SOL    HW1 8834   3.846   2.207   3.347
 2938SOL    HW2 8835   3.916   2.098   3.446
 2939SOL     OW 8836   4.188   3.605   2.185
 2939SOL    HW1 8837   4.221   3.644   2.271
 2939SOL    HW2 8838   4.264   3.598   2.120
 2940SOL     OW 8839   3.973   3.647   3.103
 2940SOL    HW1 8840   4.030   3.582   3.153
 2940SOL    HW2 8841   3.957   3.614   3.010
 2941SOL     OW 8842   4.106   2.562   2.342
 2941SOL    HW1 8843   4.151   2.472   2.339
 2941SOL    HW2 8844   4.012   2.551   2.375
 2942SOL     OW 8845   4.338   1.984   1.979
 2942SOL    HW1 8846   4.436   1.962   1.986
 2942SOL    HW2 8847   4.307   1.967   1.886
 2943SOL     OW 8848   4.527   3.264   2.786
 2943SOL    HW1 8849   4.617   3.278   2.744
 2943SOL    HW2 8850   4.456   3.266   2.715
 2944SOL     OW 8851   4.646   2.365   2.761
 2944SOL    HW1 8852   4.621   2.356   2.665
 2944SOL    HW2 8853   4.694   2.283   2.792
 2945SOL     OW 8854   4.263   1.926   2.374
 2945SOL    HW1 8855   4.182   1.927   2.432
 2945SOL    HW2 8856   4.266   2.009   2.319
 2946SOL     OW 8857   4.021   1.897   2.033
 2946SOL    HW1 8858   4.070   1.981   2.012
 2946SOL    HW2 8859   4.083   1.832   2.078
 2947SOL     OW 8860   4.183   3.014   2.603
 2947SOL    HW1 8861   4.112   2.987   2.668
 2947SOL    HW2 8862   4.157   2.986   2.510
 2948SOL     OW 8863   3.802   2.418   3.248
 2948SOL    HW1 8864   3.894   2.417   3.207
 2948SOL    HW2 8865   3.796   2.492   3.315
 2949SOL     OW 8866   4.285   2.084   3.009
 2949SOL    HW1 8867   4.323   2.000   3.046
 2949SOL    HW2 8868   4.197   2.103   3.053
 2950SOL     OW 8869   4.212   3.247   2.036
 2950SOL    HW1 8870   4.125   3.232   2.083
 2950SOL    HW2 8871   4.195   3.273   1.941
 2951SOL     OW 8872   4.251   2.118   2.190
 2951SOL    HW1 8873   4.278   2.059   2.115
 2951SOL    HW2 8874   4.251   2.213   2.159
 2952SOL     OW 8875   4.639   1.951   3.264
 2952SOL    HW1 8876   4.664   1.931   3.169
 2952SOL    HW2 8877   4.711   2.007   3.306
 2953SOL     OW 8878   4.134   2.675   3.113
 2953SOL    HW1 8879   4.220   2.687   3.163
 2953SOL    HW2 8880   4.092   2.588   3.140
 2954SOL     OW 8881   3.788   3.426   3.193
 2954SOL    HW1 8882   3.742   3.508   3.159
 2954SOL    HW2 8883   3.886   3.445   3.202
 2955SOL     OW 8884   4.091   2.962   2.363
 2955SOL    HW1 8885   4.084   3.045   2.307
 2955SOL    HW2 8886   4.095   2.882   2.303
 2956SOL     OW 8887   4.290   2.399   2.727
 2956SOL    HW1 8888   4.302   2.465   2.653
 2956SOL    HW2 8889   4.336   2.433   2.810
 2957SOL     OW 8890   4.078   3.372   3.191
 2957SOL    HW1 8891   4.057   3.328   3.104
 2957SOL    HW2 8892   4.175   3.398   3.194
 2958SOL     OW 8893   4.126   2.613   3.460
 2958SOL    HW1 8894   4.194   2.668   3.413
 2958SOL    HW2 8895   4.166   2.525   3.487
 2959SOL     OW 8896   4.228   1.912   3.602
 2959SOL    HW1 8897   4.186   1.855   3.532
 2959SOL    HW2 8898   4.162   1.981   3.634
 2960SOL     OW 8899   4.297   2.732   2.891
 2960SOL    HW1 8900   4.341   2.821   2.882
 2960SOL    HW2 8901   4.234   2.732   2.968
 2961SOL     OW 8902   4.031   2.075   3.093
 2961SOL    HW1 8903   4.008   2.112   3.183
 2961SOL    HW2 8904   4.001   1.980   3.087
 2962SOL     OW 8905   3.761   3.172   3.144
 2962SOL    HW1 8906   3.814   3.123   3.212
 2962SOL    HW2 8907   3.783   3.270   3.149
 2963SOL     OW 8908   4.456   2.496   2.926
 2963SOL    HW1 8909   4.515   2.470   2.850
 2963SOL    HW2 8910   4.428   2.592   2.915
 2964SOL     OW 8911   4.031   1.925   2.480
 2964SOL    HW1 8912   4.020   2.019   2.513
 2964SOL    HW2 8913   4.026   1.862   2.557
 2965SOL     OW 8914   4.747   2.628   2.828
 2965SOL    HW1 8915   4.762   2.649   2.924
 2965SOL    HW2 8916   4.717   2.533   2.819
 2966SOL     OW 8917   4.074   2.760   3.666
 2966SOL    HW1 8918   4.150   2.804   3.714
 2966SOL    HW2 8919   4.109   2.713   3.584
 2967SOL     OW 8920   4.792   3.195   2.711
 2967SOL    HW1 8921   4.799   3.111   2.656
 2967SOL    HW2 8922   4.854   3.264   2.675
 2968SOL     OW 8923   4.043   2.672   2.811
 2968SOL    HW1 8924   4.136   2.708   2.816
 2968SOL    HW2 8925   4.037   2.587   2.863
 2969SOL     OW 8926   4.063   2.371   2.868
 2969SOL    HW1 8927   4.011   2.288   2.851
 2969SOL    HW2 8928   4.140   2.376   2.804
 2970SOL     OW 8929   3.732   3.188   2.062
 2970SOL    HW1 8930   3.639   3.209   2.031
 2970SOL    HW2 8931   3.742   3.089   2.075
 2971SOL     OW 8932   3.812   3.663   2.789
 2971SOL    HW1 8933   3.770   3.577   2.762
 2971SOL    HW2 8934   3.906   3.666   2.755
 2972SOL     OW 8935   4.228   3.430   2.772
 2972SOL    HW1 8936   4.294   3.504   2.781
 2972SOL    HW2 8937   4.272   3.351   2.730
 2973SOL     OW 8938   3.764   2.406   2.976
 2973SOL    HW1 8939   3.849   2.373   2.935
 2973SOL    HW2 8940   3.777   2.421   3.074
 2974SOL     OW 8941   3.913   2.382   3.584
 2974SOL    HW1 8942   3.972   2.342   3.514
 2974SOL    HW2 8943   3.855   2.453   3.543
 2975SOL     OW 8944   4.539   2.434   2.187
 2975SOL    HW1 8945   4.546   2.345   2.141
 2975SOL    HW2 8946   4.445   2.468   2.179
 2976SOL     OW 8947   3.976   3.426   3.606
 2976SOL    HW1 8948   3.946   3.483   3.682
 2976SOL    HW2 8949   3.969   3.329   3.632
 2977SOL     OW 8950   4.395   2.326   3.131
 2977SOL    HW1 8951   4.361   2.237   3.101
 2977SOL    HW2 8952   4.421   2.380   3.051
 2978SOL     OW 8953   4.197   2.362   2.053
 2978SOL    HW1 8954   4.258   2.442   2.057
 2978SOL    HW2 8955   4.102   2.393   2.060
 2979SOL     OW 8956   3.883   2.999   3.328
 2979SOL    HW1 8957   3.905   2.938   3.404
 2979SOL    HW2 8958   3.893   2.950   3.242
 2980SOL     OW 8959   3.807   3.120   2.884
 2980SOL    HW1 8960   3.802   3.119   2.984
 2980SOL    HW2 8961   3.724   3.079   2.846
 2981SOL     OW 8962   4.412   3.524   3.578
 2981SOL    HW1 8963   4.356   3.605   3.587
 2981SOL    HW2 8964   4.464   3.528   3.492
 2982SOL     OW 8965   4.627   1.948   1.995
 2982SOL    HW1 8966   4.678   1.949   1.909
 2982SOL    HW2 8967   4.683   1.906   2.066
 2983SOL     OW 8968   3.854   3.656   3.713
 2983SOL    HW1 8969   3.813   3.582   3.766
 2983SOL    HW2 8970   3.918   3.707   3.771
 2984SOL     OW 8971   4.396   3.478   2.016
 2984SOL    HW1 8972   4.405   3.488   1.917
 2984SOL    HW2 8973   4.356   3.389   2.037
 2985SOL     OW 8974   3.987   2.188   2.582
 2985SOL    HW1 8975   3.908   2.239   2.548
 2985SOL    HW2 8976   3.978   2.173   2.680
 2986SOL     OW 8977   4.546   2.864   3.234
 2986SOL    HW1 8978   4.586   2.863   3.142
 2986SOL    HW2 8979   4.556   2.956   3.274
 2987SOL     OW 8980   4.096   3.150   3.352
 2987SOL    HW1 8981   4.083   3.243   3.318
 2987SOL    HW2 8982   4.012   3.098   3.339
 2988SOL     OW 8983   4.314   3.349   2.353
 2988SOL    HW1 8984   4.356   3.291   2.283
 2988SOL    HW2 8985   4.270   3.428   2.309
 2989SOL     OW 8986   3.979   3.210   2.152
 2989SOL    HW1 8987   3.883   3.211   2.125
 2989SOL    HW2 8988   3.991   3.263   2.236
 2990SOL     OW 8989   3.829   2.875   3.588
 2990SOL    HW1 8990   3.752   2.842   3.642
 2990SOL    HW2 8991   3.914   2.845   3.630
 2991SOL     OW 8992   4.396   2.065   3.351
 2991SOL    HW1 8993   4.486   2.049   3.311
 2991SOL    HW2 8994   4.404   2.070   3.450
 2992SOL     OW 8995   3.799   2.207   1.895
 2992SOL    HW1 8996   3.707   2.179   1.866
 2992SOL    HW2 8997   3.830   2.284   1.839
 2993SOL     OW 8998   3.796   2.028   2.180
 2993SOL    HW1 8999   3.779   2.111   2.126
 2993SOL    HW2 9000   3.886   1.991   2.158
 2994SOL     OW 9001   4.337   2.704   3.293
 2994SOL    HW1 9002   4.393   2.785   3.276
 2994SOL    HW2 9003   4.396   2.624   3.296
 2995SOL     OW 9004   4.440   2.427   3.570
 2995SOL    HW1 9005   4.459   2.492   3.644
 2995SOL    HW2 9006   4.500   2.347   3.579
 2996SOL     OW 9007   4.114   3.603   3.422
 2996SOL    HW1 9008   4.023   3.644   3.420
 2996SOL    HW2 9009   4.107   3.509   3.454
 2997SOL     OW 9010   4.318   2.607   2.514
 2997SOL    HW1 9011   4.368   2.692   2.495
 2997SOL    HW2 9012   4.230   2.609   2.466
 2998SOL     OW 9013   4.385   3.652   2.815
 2998SOL    HW1 9014   4.339   3.740   2.802
 2998SOL    HW2 9015   4.484   3.664   2.808
 2999SOL     OW 9016   3.945   3.176   3.706
 2999SOL    HW1 9017   3.880   3.103   3.685
 2999SOL    HW2 9018   3.949   3.190   3.804
 3000SOL     OW 9019   3.803   3.102   2.515
 3000SOL    HW1 9020   3.802   3.055   2.603
 3000SOL    HW2 9021   3.885   3.074   2.464
 3001SOL     OW 9022   4.396   3.253   3.486
 3001SOL    HW1 9023   4.318   3.203   3.524
 3001SOL    HW2 9024   4.393   3.348   3.517
 3002SOL     OW 9025   4.152   2.286   2.382
 3002SOL    HW1 9026   4.182   2.214   2.320
 3002SOL    HW2 9027   4.113   2.246   2.465
 3003SOL     OW 9028   4.041   2.409   3.142
 3003SOL    HW1 9029   4.079   2.350   3.214
 3003SOL    HW2 9030   4.081   2.383   3.054
 3004SOL     OW 9031   4.536   3.448   2.549
 3004SOL    HW1 9032   4.568   3.458   2.455
 3004SOL    HW2 9033   4.457   3.386   2.551
 3005SOL     OW 9034   4.342   3.429   3.146
 3005SOL    HW1 9035   4.337   3.511   3.203
 3005SOL    HW2 9036   4.431   3.426   3.101
 3006SOL     OW 9037   3.763   2.939   2.162
 3006SOL    HW1 9038   3.862   2.928   2.153
 3006SOL    HW2 9039   3.723   2.853   2.194
 3007SOL     OW 9040   3.954   2.490   3.837
 3007SOL    HW1 9041   3.861   2.488   3.874
 3007SOL    HW2 9042   3.955   2.451   3.745
 3008SOL     OW 9043   3.743   2.230   4.371
 3008SOL    HW1 9044   3.661   2.273   4.410
 3008SOL    HW2 9045   3.715   2.157   4.308
 3009SOL     OW 9046   4.409   2.874   4.389
 3009SOL    HW1 9047   4.478   2.858   4.459
 3009SOL    HW2 9048   4.336   2.931   4.427
 3010SOL     OW 9049   3.955   3.575   4.207
 3010SOL    HW1 9050   3.989   3.652   4.261
 3010SOL    HW2 9051   3.999   3.575   4.117
 3011SOL     OW 9052   3.954   3.296   4.262
 3011SOL    HW1 9053   3.928   3.392   4.262
 3011SOL    HW2 9054   3.883   3.242   4.307
 3012SOL     OW 9055   3.964   2.953   4.610
 3012SOL    HW1 9056   3.978   2.869   4.662
 3012SOL    HW2 9057   3.909   3.017   4.665
 3013SOL     OW 9058   4.330   2.826   3.847
 3013SOL    HW1 9059   4.337   2.910   3.793
 3013SOL    HW2 9060   4.376   2.839   3.935
 3014SOL     OW 9061   3.846   2.505   4.287
 3014SOL    HW1 9062   3.801   2.417   4.304
 3014SOL    HW2 9063   3.845   2.559   4.371
 3015SOL     OW 9064   3.751   3.458   3.841
 3015SOL    HW1 9065   3.732   3.362   3.862
 3015SOL    HW2 9066   3.718   3.516   3.916
 3016SOL     OW 9067   4.337   3.227   4.450
 3016SOL    HW1 9068   4.288   3.140   4.459
 3016SOL    HW2 9069   4.314   3.270   4.363
 3017SOL     OW 9070   4.533   1.866   4.226
 3017SOL    HW1 9071   4.573   1.957   4.217
 3017SOL    HW2 9072   4.433   1.874   4.232
 3018SOL     OW 9073   4.322   2.591   3.994
 3018SOL    HW1 9074   4.346   2.660   3.926
 3018SOL    HW2 9075   4.244   2.624   4.048
 3019SOL     OW 9076   3.800   2.673   4.513
 3019SOL    HW1 9077   3.899   2.661   4.522
 3019SOL    HW2 9078   3.776   2.768   4.534
 3020SOL     OW 9079   4.274   2.058   4.609
 3020SOL    HW1 9080   4.269   2.053   4.709
 3020SOL    HW2 9081   4.276   2.154   4.580
 3021SOL     OW 9082   4.075   3.663   4.577
 3021SOL    HW1 9083   4.125   3.577   4.583
 3021SOL    HW2 9084   4.140   3.740   4.574
 3022SOL     OW 9085   4.045   2.805   3.966
 3022SOL    HW1 9086   4.127   2.844   3.924
 3022SOL    HW2 9087   4.018   2.723   3.917
 3023SOL     OW 9088   4.188   3.605   4.047
 3023SOL    HW1 9089   4.221   3.644   4.133
 3023SOL    HW2 9090   4.264   3.598   3.982
 3024SOL     OW 9091   4.106   2.562   4.204
 3024SOL    HW1 9092   4.151   2.472   4.201
 3024SOL    HW2 9093   4.012   2.551   4.237
 3025SOL     OW 9094   4.338   1.984   3.841
 3025SOL    HW1 9095   4.436   1.962   3.848
 3025SOL    HW2 9096   4.307   1.967   3.748
 3026SOL     OW 9097   4.263   1.926   4.236
 3026SOL    HW1 9098   4.182   1.927   4.294
 3026SOL    HW2 9099   4.266   2.009   4.181
 3027SOL     OW 9100   4.021   1.897   3.895
 3027SOL    HW1 9101   4.070   1.981   3.874
 3027SOL    HW2 9102   4.083   1.832   3.940
 3028SOL     OW 9103   4.183   3.014   4.465
 3028SOL    HW1 9104   4.112   2.987   4.530
 3028SOL    HW2 9105   4.157   2.986   4.372
 3029SOL     OW 9106   4.741   1.901   4.477
 3029SOL    HW1 9107   4.669   1.906   4.408
 3029SOL    HW2 9108   4.717   1.832   4.546
 3030SOL     OW 9109   4.212   3.247   3.898
 3030SOL    HW1 9110   4.125   3.232   3.945
 3030SOL    HW2 9111   4.195   3.273   3.803
 3031SOL     OW 9112   4.251   2.118   4.052
 3031SOL    HW1 9113   4.278   2.059   3.977
 3031SOL    HW2 9114   4.251   2.213   4.021
 3032SOL     OW 9115   4.091   2.962   4.225
 3032SOL    HW1 9116   4.084   3.045   4.169
 3032SOL    HW2 9117   4.095   2.882   4.165
 3033SOL     OW 9118   4.290   2.399   4.589
 3033SOL    HW1 9119   4.302   2.465   4.515
 3033SOL    HW2 9120   4.336   2.433   4.672
 3034SOL     OW 9121   4.031   1.925   4.342
 3034SOL    HW1 9122   4.020   2.019   4.375
 3034SOL    HW2 9123   4.026   1.862   4.419
 3035SOL     OW 9124   4.792   3.195   4.573
 3035SOL    HW1 9125   4.799   3.111   4.518
 3035SOL    HW2 9126   4.854   3.264   4.537
 3036SOL     OW 9127   3.732   3.188   3.924
 3036SOL    HW1 9128   3.639   3.209   3.893
 3036SOL    HW2 9129   3.742   3.089   3.937
 3037SOL     OW 9130   4.539   2.434   4.049
 3037SOL    HW1 9131   4.546   2.345   4.003
 3037SOL    HW2 9132   4.445   2.468   4.041
 3038SOL     OW 9133   4.197   2.362   3.915
 3038SOL    HW1 9134   4.258   2.442   3.919
 3038SOL    HW2 9135   4.102   2.393   3.922
 3039SOL     OW 9136   4.627   1.948   3.857
 3039SOL    HW1 9137   4.678   1.949   3.771
 3039SOL    HW2 9138   4.683   1.906   3.928
 3040SOL     OW 9139   4.396   3.478   3.878
 3040SOL    HW1 9140   4.405   3.488   3.779
 3040SOL    HW2 9141   4.356   3.389   3.899
 3041SOL     OW 9142   3.987   2.188   4.444
 3041SOL    HW1 9143   3.908   2.239   4.410
 3041SOL    HW2 9144   3.978   2.173   4.542
 3042SOL     OW 9145   4.314   3.349   4.215
 3042SOL    HW1 9146   4.356   3.291   4.145
 3042SOL    HW2 9147   4.270   3.428   4.171
 3043SOL     OW 9148   3.979   3.210   4.014
 3043SOL    HW1 9149   3.883   3.211   3.987
 3043SOL    HW2 9150   3.991   3.263   4.098
 3044SOL     OW 9151   3.799   2.207   3.757
 3044SOL    HW1 9152   3.707   2.179   3.728
 3044SOL    HW2 9153   3.830   2.284   3.701
 3045SOL     OW 9154   3.796   2.028   4.042
 3045SOL    HW1 9155   3.779   2.111   3.988
 3045SOL    HW2 9156   3.886   1.991   4.020
 3046SOL     OW 9157   4.318   2.607   4.376
 3046SOL    HW1 9158   4.368   2.692   4.357
 3046SOL    HW2 9159   4.230   2.609   4.328
 3047SOL     OW 9160   4.385   3.652   4.677
 3047SOL    HW1 9161   4.339   3.740   4.664
 3047SOL    HW2 9162   4.484   3.664   4.670
 3048SOL     OW 9163   3.803   3.102   4.377
 3048SOL    HW1 9164   3.802   3.055   4.465
 3048SOL    HW2 9165   3.885   3.074   4.326
 3049SOL     OW 9166   4.152   2.286   4.244
 3049SOL    HW1 9167   4.182   2.214   4.182
 3049SOL    HW2 9168   4.113   2.246   4.327
 3050SOL     OW 9169   4.536   3.448   4.411
 3050SOL    HW1 9170   4.568   3.458   4.317
 3050SOL    HW2 9171   4.457   3.386   4.413
 3051SOL     OW 9172   3.763   2.939   4.024
 3051SOL    HW1 9173   3.862   2.928   4.015
 3051SOL    HW2 9174   3.723   2.853   4.056
 3052SOL     OW 9175   3.954   4.352   0.113
 3052SOL    HW1 9176   3.861   4.350   0.150
 3052SOL    HW2 9177   3.955   4.313   0.021
 3053SOL     OW 9178   3.949   3.999   0.996
 3053SOL    HW1 9179   3.984   3.982   1.088
 3053SOL    HW2 9180   3.861   3.954   0.984
 3054SOL     OW 9181   3.743   4.092   0.647
 3054SOL    HW1 9182   3.661   4.135   0.686
 3054SOL    HW2 9183   3.715   4.019   0.584
 3055SOL     OW 9184   4.409   4.736   0.665
 3055SOL    HW1 9185   4.478   4.720   0.735
 3055SOL    HW2 9186   4.336   4.793   0.703
 3056SOL     OW 9187   4.162   4.116   1.499
 3056SOL    HW1 9188   4.244   4.060   1.508
 3056SOL    HW2 9189   4.081   4.058   1.503
 3057SOL     OW 9190   3.846   4.367   0.563
 3057SOL    HW1 9191   3.801   4.279   0.580
 3057SOL    HW2 9192   3.845   4.421   0.647
 3058SOL     OW 9193   3.837   4.461   1.597
 3058SOL    HW1 9194   3.925   4.448   1.642
 3058SOL    HW2 9195   3.824   4.558   1.575
 3059SOL     OW 9196   4.533   3.728   0.502
 3059SOL    HW1 9197   4.573   3.819   0.493
 3059SOL    HW2 9198   4.433   3.736   0.508
 3060SOL     OW 9199   4.041   3.975   1.801
 3060SOL    HW1 9200   4.112   4.046   1.807
 3060SOL    HW2 9201   3.953   4.014   1.829
 3061SOL     OW 9202   4.322   4.453   0.270
 3061SOL    HW1 9203   4.346   4.522   0.202
 3061SOL    HW2 9204   4.244   4.486   0.324
 3062SOL     OW 9205   4.274   3.920   0.885
 3062SOL    HW1 9206   4.269   3.915   0.985
 3062SOL    HW2 9207   4.276   4.016   0.856
 3063SOL     OW 9208   3.926   4.009   1.498
 3063SOL    HW1 9209   3.846   4.069   1.485
 3063SOL    HW2 9210   3.916   3.960   1.584
 3064SOL     OW 9211   4.106   4.424   0.480
 3064SOL    HW1 9212   4.151   4.334   0.477
 3064SOL    HW2 9213   4.012   4.413   0.513
 3065SOL     OW 9214   4.646   4.227   0.899
 3065SOL    HW1 9215   4.621   4.218   0.803
 3065SOL    HW2 9216   4.694   4.145   0.930
 3066SOL     OW 9217   4.263   3.788   0.512
 3066SOL    HW1 9218   4.182   3.789   0.570
 3066SOL    HW2 9219   4.266   3.871   0.457
 3067SOL     OW 9220   4.021   3.759   0.171
 3067SOL    HW1 9221   4.070   3.843   0.150
 3067SOL    HW2 9222   4.083   3.694   0.216
 3068SOL     OW 9223   3.802   4.280   1.386
 3068SOL    HW1 9224   3.894   4.279   1.345
 3068SOL    HW2 9225   3.796   4.354   1.453
 3069SOL     OW 9226   4.285   3.946   1.147
 3069SOL    HW1 9227   4.323   3.862   1.184
 3069SOL    HW2 9228   4.197   3.965   1.191
 3070SOL     OW 9229   4.251   3.980   0.328
 3070SOL    HW1 9230   4.278   3.921   0.253
 3070SOL    HW2 9231   4.251   4.075   0.297
 3071SOL     OW 9232   4.639   3.813   1.402
 3071SOL    HW1 9233   4.664   3.793   1.307
 3071SOL    HW2 9234   4.711   3.869   1.444
 3072SOL     OW 9235   4.429   4.774   0.368
 3072SOL    HW1 9236   4.415   4.781   0.467
 3072SOL    HW2 9237   4.513   4.723   0.350
 3073SOL     OW 9238   4.134   4.537   1.251
 3073SOL    HW1 9239   4.220   4.549   1.301
 3073SOL    HW2 9240   4.092   4.450   1.278
 3074SOL     OW 9241   4.290   4.261   0.865
 3074SOL    HW1 9242   4.302   4.327   0.791
 3074SOL    HW2 9243   4.336   4.295   0.948
 3075SOL     OW 9244   4.228   3.774   1.740
 3075SOL    HW1 9245   4.186   3.717   1.670
 3075SOL    HW2 9246   4.162   3.843   1.772
 3076SOL     OW 9247   4.031   3.937   1.231
 3076SOL    HW1 9248   4.008   3.974   1.321
 3076SOL    HW2 9249   4.001   3.842   1.225
 3077SOL     OW 9250   4.456   4.358   1.064
 3077SOL    HW1 9251   4.515   4.332   0.988
 3077SOL    HW2 9252   4.428   4.454   1.053
 3078SOL     OW 9253   4.031   3.787   0.618
 3078SOL    HW1 9254   4.020   3.881   0.651
 3078SOL    HW2 9255   4.026   3.724   0.695
 3079SOL     OW 9256   4.043   4.534   0.949
 3079SOL    HW1 9257   4.136   4.570   0.954
 3079SOL    HW2 9258   4.037   4.449   1.001
 3080SOL     OW 9259   4.063   4.233   1.006
 3080SOL    HW1 9260   4.011   4.150   0.989
 3080SOL    HW2 9261   4.140   4.238   0.942
 3081SOL     OW 9262   3.764   4.268   1.114
 3081SOL    HW1 9263   3.849   4.235   1.073
 3081SOL    HW2 9264   3.777   4.283   1.212
 3082SOL     OW 9265   3.913   4.244   1.722
 3082SOL    HW1 9266   3.972   4.204   1.652
 3082SOL    HW2 9267   3.855   4.315   1.681
 3083SOL     OW 9268   4.539   4.296   0.325
 3083SOL    HW1 9269   4.546   4.207   0.279
 3083SOL    HW2 9270   4.445   4.330   0.317
 3084SOL     OW 9271   4.395   4.188   1.269
 3084SOL    HW1 9272   4.361   4.099   1.239
 3084SOL    HW2 9273   4.421   4.242   1.189
 3085SOL     OW 9274   4.197   4.224   0.191
 3085SOL    HW1 9275   4.258   4.304   0.195
 3085SOL    HW2 9276   4.102   4.255   0.198
 3086SOL     OW 9277   4.627   3.810   0.133
 3086SOL    HW1 9278   4.678   3.811   0.047
 3086SOL    HW2 9279   4.683   3.768   0.204
 3087SOL     OW 9280   3.987   4.050   0.720
 3087SOL    HW1 9281   3.908   4.101   0.686
 3087SOL    HW2 9282   3.978   4.035   0.818
 3088SOL     OW 9283   3.829   4.737   1.726
 3088SOL    HW1 9284   3.752   4.704   1.780
 3088SOL    HW2 9285   3.914   4.707   1.768
 3089SOL     OW 9286   4.396   3.927   1.489
 3089SOL    HW1 9287   4.486   3.911   1.449
 3089SOL    HW2 9288   4.404   3.932   1.588
 3090SOL     OW 9289   3.799   4.069   0.033
 3090SOL    HW1 9290   3.707   4.041   0.004
 3090SOL    HW2 9291   3.830   4.146  -0.023
 3091SOL     OW 9292   3.796   3.890   0.318
 3091SOL    HW1 9293   3.779   3.973   0.264
 3091SOL    HW2 9294   3.886   3.853   0.296
 3092SOL     OW 9295   4.337   4.566   1.431
 3092SOL    HW1 9296   4.393   4.647   1.414
 3092SOL    HW2 9297   4.396   4.486   1.434
 3093SOL     OW 9298   4.440   4.289   1.708
 3093SOL    HW1 9299   4.459   4.354   1.782
 3093SOL    HW2 9300   4.500   4.209   1.717
 3094SOL     OW 9301   4.318   4.469   0.652
 3094SOL    HW1 9302   4.368   4.554   0.633
 3094SOL    HW2 9303   4.230   4.471   0.604
 3095SOL     OW 9304   4.152   4.148   0.520
 3095SOL    HW1 9305   4.182   4.076   0.458
 3095SOL    HW2 9306   4.113   4.108   0.603
 3096SOL     OW 9307   4.041   4.271   1.280
 3096SOL    HW1 9308   4.079   4.212   1.352
 3096SOL    HW2 9309   4.081   4.245   1.192
 3097SOL     OW 9310   3.954   4.352   1.975
 3097SOL    HW1 9311   3.861   4.350   2.012
 3097SOL    HW2 9312   3.955   4.313   1.883
 3098SOL     OW 9313   3.949   3.999   2.858
 3098SOL    HW1 9314   3.984   3.982   2.950
 3098SOL    HW2 9315   3.861   3.954   2.846
 3099SOL     OW 9316   3.743   4.092   2.509
 3099SOL    HW1 9317   3.661   4.135   2.548
 3099SOL    HW2 9318   3.715   4.019   2.446
 3100SOL     OW 9319   4.409   4.736   2.527
 3100SOL    HW1 9320   4.478   4.720   2.597
 3100SOL    HW2 9321   4.336   4.793   2.565
 3101SOL     OW 9322   4.162   4.116   3.361
 3101SOL    HW1 9323   4.244   4.060   3.370
 3101SOL    HW2 9324   4.081   4.058   3.365
 3102SOL     OW 9325   3.846   4.367   2.425
 3102SOL    HW1 9326   3.801   4.279   2.442
 3102SOL    HW2 9327   3.845   4.421   2.509
 3103SOL     OW 9328   3.837   4.461   3.459
 3103SOL    HW1 9329   3.925   4.448   3.504
 3103SOL    HW2 9330   3.824   4.558   3.437
 3104SOL     OW 9331   4.533   3.728   2.364
 3104SOL    HW1 9332   4.573   3.819   2.355
 3104SOL    HW2 9333   4.433   3.736   2.370
 3105SOL     OW 9334   4.041   3.975   3.663
 3105SOL    HW1 9335   4.112   4.046   3.669
 3105SOL    HW2 9336   3.953   4.014   3.691
 3106SOL     OW 9337   4.322   4.453   2.132
 3106SOL    HW1 9338   4.346   4.522   2.064
 3106SOL    HW2 9339   4.244   4.486   2.186
 3107SOL     OW 9340   4.274   3.920   2.747
 3107SOL    HW1 9341   4.269   3.915   2.847
 3107SOL    HW2 9342   4.276   4.016   2.718
 3108SOL     OW 9343   3.926   4.009   3.360
 3108SOL    HW1 9344   3.846   4.069   3.347
 3108SOL    HW2 9345   3.916   3.960   3.446
 3109SOL     OW 9346   4.106   4.424   2.342
 3109SOL    HW1 9347   4.151   4.334   2.339
 3109SOL    HW2 9348   4.012   4.413   2.375
 3110SOL     OW 9349   4.338   3.846   1.979
 3110SOL    HW1 9350   4.436   3.824   1.986
 3110SOL    HW2 9351   4.307   3.829   1.886
 3111SOL     OW 9352   4.646   4.227   2.761
 3111SOL    HW1 9353   4.621   4.218   2.665
 3111SOL    HW2 9354   4.694   4.145   2.792
 3112SOL     OW 9355   4.263   3.788   2.374
 3112SOL    HW1 9356   4.182   3.789   2.432
 3112SOL    HW2 9357   4.266   3.871   2.319
 3113SOL     OW 9358   4.021   3.759   2.033
 3113SOL    HW1 9359   4.070   3.843   2.012
 3113SOL    HW2 9360   4.083   3.694   2.078
 3114SOL     OW 9361   3.802   4.280   3.248
 3114SOL    HW1 9362   3.894   4.279   3.207
 3114SOL    HW2 9363   3.796   4.354   3.315
 3115SOL     OW 9364   4.285   3.946   3.009
 3115SOL    HW1 9365   4.323   3.862   3.046
 3115SOL    HW2 9366   4.197   3.965   3.053
 3116SOL     OW 9367   4.251   3.980   2.190
 3116SOL    HW1 9368   4.278   3.921   2.115
 3116SOL    HW2 9369   4.251   4.075   2.159
 3117SOL     OW 9370   4.639   3.813   3.264
 3117SOL    HW1 9371   4.664   3.793   3.169
 3117SOL    HW2 9372   4.711   3.869   3.306
 3118SOL     OW 9373   4.429   4.774   2.230
 3118SOL    HW1 9374   4.415   4.781   2.329
 3118SOL    HW2 9375   4.513   4.723   2.212
 3119SOL     OW 9376   4.134   4.537   3.113
 3119SOL    HW1 9377   4.220   4.549   3.163
 3119SOL    HW2 9378   4.092   4.450   3.140
 3120SOL     OW 9379   4.290   4.261   2.727
 3120SOL    HW1 9380   4.302   4.327   2.653
 3120SOL    HW2 9381   4.336   4.295   2.810
 3121SOL     OW 9382   4.228   3.774   3.602
 3121SOL    HW1 9383   4.186   3.717   3.532
 3121SOL    HW2 9384   4.162   3.843   3.634
 3122SOL     OW 9385   4.031   3.937   3.093
 3122SOL    HW1 9386   4.008   3.974   3.183
 3122SOL    HW2 9387   4.001   3.842   3.087
 3123SOL     OW 9388   4.456   4.358   2.926
 3123SOL    HW1 9389   4.515   4.332   2.850
 3123SOL    HW2 9390   4.428   4.454   2.915
 3124SOL     OW 9391   4.031   3.787   2.480
 3124SOL    HW1 9392   4.020   3.881   2.513
 3124SOL    HW2 9393   4.026   3.724   2.557
 3125SOL     OW 9394   4.043   4.534   2.811
 3125SOL    HW1 9395   4.136   4.570   2.816
 3125SOL    HW2 9396   4.037   4.449   2.863
 3126SOL     OW 9397   4.063   4.233   2.868
 3126SOL    HW1 9398   4.011   4.150   2.851
 3126SOL    HW2 9399   4.140   4.238   2.804
 3127SOL     OW 9400   3.764   4.268   2.976
 3127SOL    HW1 9401   3.849   4.235   2.935
 3127SOL    HW2 9402   3.777   4.283   3.074
 3128SOL     OW 9403   3.913   4.244   3.584
 3128SOL    HW1 9404   3.972   4.204   3.514
 3128SOL    HW2 9405   3.855   4.315   3.543
 3129SOL     OW 9406   4.539   4.296   2.187
 3129SOL    HW1 9407   4.546   4.207   2.141
 3129SOL    HW2 9408   4.445   4.330   2.179
 3130SOL     OW 9409   4.395   4.188   3.131
 3130SOL    HW1 9410   4.361   4.099   3.101
 3130SOL    HW2 9411   4.421   4.242   3.051
 3131SOL     OW 9412   4.197   4.224   2.053
 3131SOL    HW1 9413   4.258   4.304   2.057
 3131SOL    HW2 9414   4.102   4.255   2.060
 3132SOL     OW 9415   4.627   3.810   1.995
 3132SOL    HW1 9416   4.678   3.811   1.909
 3132SOL    HW2 9417   4.683   3.768   2.066
 3133SOL     OW 9418   3.987   4.050   2.582
 3133SOL    HW1 9419   3.908   4.101   2.548
 3133SOL    HW2 9420   3.978   4.035   2.680
 3134SOL     OW 9421   3.829   4.737   3.588
 3134SOL    HW1 9422   3.752   4.704   3.642
 3134SOL    HW2 9423   3.914   4.707   3.630
 3135SOL     OW 9424   4.396   3.927   3.351
 3135SOL    HW1 9425   4.486   3.911   3.311
 3135SOL    HW2 9426   4.404   3.932   3.450
 3136SOL     OW 9427   3.799   4.069   1.895
 3136SOL    HW1 9428   3.707   4.041   1.866
 3136SOL    HW2 9429   3.830   4.146   1.839
 3137SOL     OW 9430   3.796   3.890   2.180
 3137SOL    HW1 9431   3.779   3.973   2.126
 3137SOL    HW2 9432   3.886   3.853   2.158
 3138SOL     OW 9433   4.337   4.566   3.293
 3138SOL    HW1 9434   4.393   4.647   3.276
 3138SOL    HW2 9435   4.396   4.486   3.296
 3139SOL     OW 9436   4.440   4.289   3.570
 3139SOL    HW1 9437   4.459   4.354   3.644
 3139SOL    HW2 9438   4.500   4.209   3.579
 3140SOL     OW 9439   4.318   4.469   2.514
 3140SOL    HW1 9440   4.368   4.554   2.495
 3140SOL    HW2 9441   4.230   4.471   2.466
 3141SOL     OW 9442   4.152   4.148   2.382
 3141SOL    HW1 9443   4.182   4.076   2.320
 3141SOL    HW2 9444   4.113   4.108   2.465
 3142SOL     OW 9445   4.041   4.271   3.142
 3142SOL    HW1 9446   4.079   4.212   3.214
 3142SOL    HW2 9447   4.081   4.245   3.054
 3143SOL     OW 9448   3.954   4.352   3.837
 3143SOL    HW1 9449   3.861   4.350   3.874
 3143SOL    HW2 9450   3.955   4.313   3.745
 3144SOL     OW 9451   3.743   4.092   4.371
 3144SOL    HW1 9452   3.661   4.135   4.410
 3144SOL    HW2 9453   3.715   4.019   4.308
 3145SOL     OW 9454   4.409   4.736   4.389
 3145SOL    HW1 9455   4.478   4.720   4.459
 3145SOL    HW2 9456   4.336   4.793   4.427
 3146SOL     OW 9457   3.846   4.367   4.287
 3146SOL    HW1 9458   3.801   4.279   4.304
 3146SOL    HW2 9459   3.845   4.421   4.371
 3147SOL     OW 9460   4.533   3.728   4.226
 3147SOL    HW1 9461   4.573   3.819   4.217
 3147SOL    HW2 9462   4.433   3.736   4.232
 3148SOL     OW 9463   4.322   4.453   3.994
 3148SOL    HW1 9464   4.346   4.522   3.926
 3148SOL    HW2 9465   4.244   4.486   4.048
 3149SOL     OW 9466   4.274   3.920   4.609
 3149SOL    HW1 9467   4.269   3.915   4.709
 3149SOL    HW2 9468   4.276   4.016   4.580
 3150SOL     OW 9469   4.106   4.424   4.204
 3150SOL    HW1 9470   4.151   4.334   4.201
 3150SOL    HW2 9471   4.012   4.413   4.237
 3151SOL     OW 9472   4.338   3.846   3.841
 3151SOL    HW1 9473   4.436   3.824   3.848
 3151SOL    HW2 9474   4.307   3.829   3.748
 3152SOL     OW 9475   4.263   3.788   4.236
 3152SOL    HW1 9476   4.182   3.789   4.294
 3152SOL    HW2 9477   4.266   3.871   4.181
 3153SOL     OW 9478   4.021   3.759   3.895
 3153SOL    HW1 9479   4.070   3.843   3.874
 3153SOL    HW2 9480   4.083   3.694   3.940
 3154SOL     OW 9481   4.183   4.876   4.465
 3154SOL    HW1 9482   4.112   4.849   4.530
 3154SOL    HW2 9483   4.157   4.848   4.372
 3155SOL     OW 9484   4.741   3.763   4.477
 3155SOL    HW1 9485   4.669   3.768   4.408
 3155SOL    HW2 9486   4.717   3.694   4.546
 3156SOL     OW 9487   4.251   3.980   4.052
 3156SOL    HW1 9488   4.278   3.921   3.977
 3156SOL    HW2 9489   4.251   4.075   4.021
 3157SOL     OW 9490   4.429   4.774   4.092
 3157SOL    HW1 9491   4.415   4.781   4.191
 3157SOL    HW2 9492   4.513   4.723   4.074
 3158SOL     OW 9493   4.290   4.261   4.589
 3158SOL    HW1 9494   4.302   4.327   4.515
 3158SOL    HW2 9495   4.336   4.295   4.672
 3159SOL     OW 9496   4.031   3.787   4.342
 3159SOL    HW1 9497   4.020   3.881   4.375
 3159SOL    HW2 9498   4.026   3.724   4.419
 3160SOL     OW 9499   4.539   4.296   4.049
 3160SOL    HW1 9500   4.546   4.207   4.003
 3160SOL    HW2 9501   4.445   4.330   4.041
 3161SOL     OW 9502   4.197   4.224   3.915
 3161SOL    HW1 9503   4.258   4.304   3.919
 3161SOL    HW2 9504   4.102   4.255   3.922
 3162SOL     OW 9505   4.627   3.810   3.857
 3162SOL    HW1 9506   4.678   3.811   3.771
 3162SOL    HW2 9507   4.683   3.768   3.928
 3163SOL     OW 9508   3.987   4.050   4.444
 3163SOL    HW1 9509   3.908   4.101   4.410
 3163SOL    HW2 9510   3.978   4.035   4.542
 3164SOL     OW 9511   3.799   4.069   3.757
 3164SOL    HW1 9512   3.707   4.041   3.728
 3164SOL    HW2 9513   3.830   4.146   3.701
 3165SOL     OW 9514   3.796   3.890   4.042
 3165SOL    HW1 9515   3.779   3.973   3.988
 3165SOL    HW2 9516   3.886   3.853   4.020
 3166SOL     OW 9517   4.318   4.469   4.376
 3166SOL    HW1 9518   4.368   4.554   4.357
 3166SOL    HW2 9519   4.230   4.471   4.328
 3167SOL     OW 9520   4.152   4.148   4.244
 3167SOL    HW1 9521   4.182   4.076   4.182
 3167SOL    HW2 9522   4.113   4.108   4.327
   4.60140   4.60140   4.60140
