mobley_7417968_GMX.gro created by acpype (v: 2023.10.27) on Wed May 20 23:43:06 2026
 21
    1  MOL   C1    1  -0.440  -0.191   0.035
    1  MOL   C2    2  -0.365  -0.252  -0.079
    1  MOL   C3    3  -0.604   0.362  -0.185
    1  MOL   C4    4  -0.695   0.264  -0.115
    1  MOL   C5    5  -0.605  -0.030   0.088
    1  MOL   C6    6  -0.695   0.071   0.020
    1  MOL   O1    7  -0.424  -0.223   0.152
    1  MOL   O2    8  -0.526  -0.097  -0.012
    1  MOL   O3    9  -0.615   0.167  -0.048
    1  MOL   H1   10  -0.420  -0.339  -0.118
    1  MOL   H2   11  -0.265  -0.281  -0.047
    1  MOL   H3   12  -0.356  -0.178  -0.160
    1  MOL   H4   13  -0.540   0.414  -0.113
    1  MOL   H5   14  -0.541   0.311  -0.258
    1  MOL   H6   15  -0.663   0.437  -0.240
    1  MOL   H7   16  -0.758   0.212  -0.187
    1  MOL   H8   17  -0.758   0.315  -0.041
    1  MOL   H9   18  -0.663  -0.106   0.141
    1  MOL  H10   19  -0.537   0.020   0.158
    1  MOL  H11   20  -0.757   0.124   0.094
    1  MOL  H12   21  -0.759   0.022  -0.053
    9.89200    15.50400     8.31600
