SAMPL4_026
    21
  -4.4000000  -1.9110000   0.3530000  -3.6510000  -2.5190000  -0.7940000
  -6.0370000   3.6230000  -1.8480000  -6.9450000   2.6350000  -1.1480000
  -6.0490000  -0.3010000   0.8790000  -6.9520000   0.7120000   0.2020000
  -4.2410000  -2.2320000   1.5230000  -5.2640000  -0.9660000  -0.1170000
  -6.1480000   1.6700000  -0.4750000  -4.1970000  -3.3850000  -1.1750000
  -2.6480000  -2.8070000  -0.4710000  -3.5600000  -1.7830000  -1.5980000
  -5.3960000   4.1410000  -1.1290000  -5.4050000   3.1140000  -2.5830000
  -6.6250000   4.3670000  -2.3960000  -7.5840000   2.1210000  -1.8730000
  -7.5750000   3.1450000  -0.4140000  -6.6330000  -1.0570000   1.4120000
  -5.3680000   0.1970000   1.5750000  -7.5690000   1.2410000   0.9350000
  -7.5940000   0.2200000  -0.5340000
