3_methylpentane
    20
   0.3900000  -0.9760000  -0.3680000  -1.2990000  -4.9740000  -3.1040000
   0.5420000  -3.9830000  -0.8790000  -0.7740000  -1.8070000  -0.8890000
  -1.6010000  -3.7660000  -2.2290000  -0.3420000  -3.0440000  -1.7050000
   1.0670000  -0.6940000  -1.1810000   0.0160000  -0.0560000   0.0930000
   0.9630000  -1.5140000   0.3920000  -2.2270000  -5.3640000  -3.5360000
  -0.8400000  -5.7840000  -2.5300000  -0.6290000  -4.7070000  -3.9270000
   0.0070000  -4.3600000  -0.0020000   1.4480000  -3.4770000  -0.5330000
   0.8740000  -4.8420000  -1.4700000  -1.3930000  -1.1580000  -1.5220000
  -1.4030000  -2.1140000  -0.0440000  -2.2320000  -4.0790000  -1.3880000
  -2.1970000  -3.0620000  -2.8240000   0.2400000  -2.6980000  -2.5700000
