; mobley_2213823_GMX_OPLS.top created by acpype (v: 2023.10.27) on Thu May 21 00:04:09 2026

; Include forcefield parameters
#include "ffoplsaa.itp"

; Include mobley_2213823_GMX.itp topology
#include "mobley_2213823_GMX.itp"

; Ligand position restraints
#ifdef POSRES_LIG
#include "posre_mobley_2213823.itp"
#endif

[ system ]
 mobley_2213823

[ molecules ]
; Compound        nmols
 mobley_2213823   1     
