mobley_2213823_GMX.gro created by acpype (v: 2023.10.27) on Thu May 21 00:04:09 2026
 20
    1  MOL   C1    1   0.039  -0.098  -0.037
    1  MOL   C2    2  -0.130  -0.497  -0.310
    1  MOL   C3    3   0.054  -0.398  -0.088
    1  MOL   C4    4  -0.077  -0.181  -0.089
    1  MOL   C5    5  -0.160  -0.377  -0.223
    1  MOL   C6    6  -0.034  -0.304  -0.171
    1  MOL   H1    7   0.107  -0.069  -0.118
    1  MOL   H2    8   0.002  -0.006   0.009
    1  MOL   H3    9   0.096  -0.151   0.039
    1  MOL   H4   10  -0.223  -0.536  -0.354
    1  MOL   H5   11  -0.084  -0.578  -0.253
    1  MOL   H6   12  -0.063  -0.471  -0.393
    1  MOL   H7   13   0.001  -0.436  -0.000
    1  MOL   H8   14   0.145  -0.348  -0.053
    1  MOL   H9   15   0.087  -0.484  -0.147
    1  MOL  H10   16  -0.139  -0.116  -0.152
    1  MOL  H11   17  -0.140  -0.211  -0.004
    1  MOL  H12   18  -0.223  -0.408  -0.139
    1  MOL  H13   19  -0.220  -0.306  -0.282
    1  MOL  H14   20   0.024  -0.270  -0.257
    7.36000    11.45600     8.63800
