mobley_6359135_GMX.gro created by acpype (v: 2023.10.27) on Wed May 20 23:45:07 2026
 7853
    1MOL     C1    1   2.145   2.146   2.145
    1MOL    CL1    2   2.307   2.216   2.172
    1MOL    CL2    3   2.158   1.968   2.142
    1MOL    CL3    4   2.080   2.204   1.990
    1MOL    CL4    5   2.037   2.195   2.278
    2SOL     OW    6   0.230   0.628   0.113
    2SOL    HW1    7   0.137   0.626   0.150
    2SOL    HW2    8   0.231   0.589   0.021
    3SOL     OW    9   0.225   0.275   0.996
    3SOL    HW1   10   0.260   0.258   1.088
    3SOL    HW2   11   0.137   0.230   0.984
    4SOL     OW   12   0.019   0.368   0.647
    4SOL    HW1   13  -0.063   0.411   0.686
    4SOL    HW2   14  -0.009   0.295   0.584
    5SOL     OW   15   0.569   1.275   1.165
    5SOL    HW1   16   0.476   1.268   1.128
    5SOL    HW2   17   0.580   1.364   1.209
    6SOL     OW   18   1.555   1.511   0.703
    6SOL    HW1   19   1.498   1.495   0.784
    6SOL    HW2   20   1.496   1.521   0.623
    7SOL     OW   21   1.135   0.703   0.717
    7SOL    HW1   22   1.192   0.781   0.692
    7SOL    HW2   23   1.075   0.729   0.793
    8SOL     OW   24   1.755   0.607   0.231
    8SOL    HW1   25   1.743   0.594   0.132
    8SOL    HW2   26   1.725   0.526   0.280
    9SOL     OW   27   0.768   1.144   1.023
    9SOL    HW1   28   0.690   1.161   1.083
    9SOL    HW2   29   0.802   1.231   0.987
   10SOL     OW   30   0.850   0.798   1.823
   10SOL    HW1   31   0.846   0.874   1.888
   10SOL    HW2   32   0.872   0.834   1.732
   11SOL     OW   33   0.685   1.012   0.665
   11SOL    HW1   34   0.754   0.996   0.735
   11SOL    HW2   35   0.612   1.069   0.703
   12SOL     OW   36   0.686   1.161   1.803
   12SOL    HW1   37   0.746   1.240   1.817
   12SOL    HW2   38   0.600   1.192   1.762
   13SOL     OW   39   0.335   1.435   1.061
   13SOL    HW1   40   0.257   1.404   1.008
   13SOL    HW2   41   0.393   1.493   1.004
   14SOL     OW   42   1.460   1.505   1.339
   14SOL    HW1   43   1.484   1.599   1.365
   14SOL    HW2   44   1.444   1.451   1.421
   15SOL     OW   45   0.438   0.392   1.499
   15SOL    HW1   46   0.520   0.336   1.508
   15SOL    HW2   47   0.357   0.334   1.503
   16SOL     OW   48   1.603   0.447   0.737
   16SOL    HW1   49   1.529   0.493   0.687
   16SOL    HW2   50   1.654   0.515   0.790
   17SOL     OW   51   0.231   1.713   0.483
   17SOL    HW1   52   0.265   1.790   0.537
   17SOL    HW2   53   0.275   1.713   0.393
   18SOL     OW   54   1.127   1.341   1.690
   18SOL    HW1   55   1.174   1.341   1.778
   18SOL    HW2   56   1.079   1.254   1.679
   19SOL     OW   57   0.230   1.434   0.538
   19SOL    HW1   58   0.204   1.530   0.538
   19SOL    HW2   59   0.159   1.380   0.583
   20SOL     OW   60   0.240   1.091   0.886
   20SOL    HW1   61   0.254   1.007   0.938
   20SOL    HW2   62   0.185   1.155   0.941
   21SOL     OW   63   0.620   1.786   1.439
   21SOL    HW1   64   0.528   1.769   1.474
   21SOL    HW2   65   0.648   1.878   1.465
   22SOL     OW   66   0.606   0.964   0.123
   22SOL    HW1   67   0.613   1.048   0.069
   22SOL    HW2   68   0.652   0.977   0.211
   23SOL     OW   69   1.594   0.114   1.480
   23SOL    HW1   70   1.576   0.181   1.408
   23SOL    HW2   71   1.591   0.160   1.569
   24SOL     OW   72   0.122   0.643   0.563
   24SOL    HW1   73   0.077   0.555   0.580
   24SOL    HW2   74   0.121   0.697   0.647
   25SOL     OW   75   1.842   1.767   0.359
   25SOL    HW1   76   1.896   1.738   0.439
   25SOL    HW2   77   1.872   1.857   0.330
   26SOL     OW   78   0.027   1.596   0.117
   26SOL    HW1   79   0.008   1.500   0.138
   26SOL    HW2   80  -0.006   1.654   0.192
   27SOL     OW   81   1.689   0.922   0.612
   27SOL    HW1   82   1.784   0.893   0.620
   27SOL    HW2   83   1.681   0.987   0.537
   28SOL     OW   84   1.641   1.108   0.432
   28SOL    HW1   85   1.727   1.110   0.380
   28SOL    HW2   86   1.655   1.155   0.520
   29SOL     OW   87   0.113   0.737   1.597
   29SOL    HW1   88   0.201   0.724   1.642
   29SOL    HW2   89   0.100   0.834   1.575
   30SOL     OW   90   0.613   1.365   0.726
   30SOL    HW1   91   0.564   1.278   0.735
   30SOL    HW2   92   0.590   1.408   0.639
   31SOL     OW   93   1.293   1.228   1.423
   31SOL    HW1   94   1.330   1.155   1.365
   31SOL    HW2   95   1.345   1.233   1.508
   32SOL     OW   96   0.809   0.004   0.502
   32SOL    HW1   97   0.849   0.095   0.493
   32SOL    HW2   98   0.709   0.012   0.508
   33SOL     OW   99   0.197   0.976   1.264
   33SOL    HW1  100   0.286   0.931   1.250
   33SOL    HW2  101   0.124   0.911   1.245
   34SOL     OW  102   1.525   0.999   0.190
   34SOL    HW1  103   1.462   0.923   0.203
   34SOL    HW2  104   1.573   1.017   0.276
   35SOL     OW  105   1.187   1.792   1.616
   35SOL    HW1  106   1.211   1.852   1.540
   35SOL    HW2  107   1.194   1.697   1.586
   36SOL     OW  108   0.317   0.251   1.801
   36SOL    HW1  109   0.388   0.322   1.807
   36SOL    HW2  110   0.229   0.290   1.829
   37SOL     OW  111   1.466   1.417   0.953
   37SOL    HW1  112   1.407   1.423   1.033
   37SOL    HW2  113   1.451   1.329   0.907
   38SOL     OW  114   1.667   1.714   0.572
   38SOL    HW1  115   1.626   1.691   0.484
   38SOL    HW2  116   1.649   1.640   0.637
   39SOL     OW  117   0.598   0.729   0.270
   39SOL    HW1  118   0.622   0.798   0.202
   39SOL    HW2  119   0.520   0.762   0.324
   40SOL     OW  120   1.281   0.345   0.944
   40SOL    HW1  121   1.195   0.295   0.931
   40SOL    HW2  122   1.343   0.291   1.000
   41SOL     OW  123   1.576   1.662   0.307
   41SOL    HW1  124   1.665   1.708   0.310
   41SOL    HW2  125   1.555   1.638   0.212
   42SOL     OW  126   0.807   0.605   1.465
   42SOL    HW1  127   0.760   0.602   1.554
   42SOL    HW2  128   0.756   0.550   1.399
   43SOL     OW  129   1.394   0.469   1.674
   43SOL    HW1  130   1.374   0.512   1.762
   43SOL    HW2  131   1.472   0.407   1.683
   44SOL     OW  132   0.973   0.890   1.572
   44SOL    HW1  133   1.019   0.806   1.543
   44SOL    HW2  134   0.917   0.924   1.497
   45SOL     OW  135   0.991   0.410   1.242
   45SOL    HW1  136   0.914   0.444   1.296
   45SOL    HW2  137   0.957   0.359   1.163
   46SOL     OW  138   1.041   0.701   0.429
   46SOL    HW1  139   1.067   0.697   0.525
   46SOL    HW2  140   0.956   0.650   0.415
   47SOL     OW  141   0.076   0.811   0.789
   47SOL    HW1  142   0.175   0.799   0.798
   47SOL    HW2  143   0.052   0.906   0.810
   48SOL     OW  144   0.130   1.821   1.571
   48SOL    HW1  145   0.120   1.806   1.670
   48SOL    HW2  146   0.044   1.857   1.535
   49SOL     OW  147   0.865   0.348   0.195
   49SOL    HW1  148   0.924   0.411   0.146
   49SOL    HW2  149   0.884   0.254   0.166
   50SOL     OW  150   1.719   0.585   1.831
   50SOL    HW1  151   1.693   0.674   1.795
   50SOL    HW2  152   1.717   0.517   1.758
   51SOL     OW  153   1.362   1.144   0.545
   51SOL    HW1  154   1.445   1.115   0.497
   51SOL    HW2  155   1.313   1.211   0.489
   52SOL     OW  156   0.550   0.196   0.885
   52SOL    HW1  157   0.545   0.191   0.985
   52SOL    HW2  158   0.552   0.292   0.856
   53SOL     OW  159   1.008   1.456   0.477
   53SOL    HW1  160   0.962   1.528   0.425
   53SOL    HW2  161   1.004   1.476   0.575
   54SOL     OW  162   0.351   1.801   0.853
   54SOL    HW1  163   0.401   1.715   0.859
   54SOL    HW2  164   0.416   1.878   0.850
   55SOL     OW  165   1.795   1.066   0.873
   55SOL    HW1  166   1.733   1.051   0.797
   55SOL    HW2  167   1.743   1.077   0.958
   56SOL     OW  168   1.227   1.550   1.506
   56SOL    HW1  169   1.233   1.473   1.570
   56SOL    HW2  170   1.175   1.524   1.426
   57SOL     OW  171   0.321   0.943   0.242
   57SOL    HW1  172   0.403   0.982   0.200
   57SOL    HW2  173   0.294   0.861   0.193
   58SOL     OW  174   1.458   0.735   0.728
   58SOL    HW1  175   1.453   0.670   0.803
   58SOL    HW2  176   1.538   0.794   0.741
   59SOL     OW  177   0.461   1.266   1.727
   59SOL    HW1  178   0.411   1.267   1.641
   59SOL    HW2  179   0.398   1.248   1.803
   60SOL     OW  180   1.111   1.776   0.237
   60SOL    HW1  181   1.051   1.714   0.287
   60SOL    HW2  182   1.142   1.732   0.152
   61SOL     OW  183   0.202   0.285   1.498
   61SOL    HW1  184   0.122   0.345   1.485
   61SOL    HW2  185   0.192   0.236   1.584
   62SOL     OW  186   1.632   1.377   0.081
   62SOL    HW1  187   1.600   1.471   0.071
   62SOL    HW2  188   1.556   1.314   0.069
   63SOL     OW  189   0.464   1.743   0.323
   63SOL    HW1  190   0.497   1.782   0.409
   63SOL    HW2  191   0.540   1.736   0.258
   64SOL     OW  192   1.400   0.107   0.426
   64SOL    HW1  193   1.376   0.070   0.336
   64SOL    HW2  194   1.499   0.123   0.430
   65SOL     OW  195   0.249   1.785   1.241
   65SOL    HW1  196   0.306   1.720   1.291
   65SOL    HW2  197   0.233   1.752   1.148
   66SOL     OW  198   0.940   1.698   0.904
   66SOL    HW1  199   1.020   1.641   0.925
   66SOL    HW2  200   0.891   1.658   0.827
   67SOL     OW  201   0.382   0.700   0.480
   67SOL    HW1  202   0.427   0.610   0.477
   67SOL    HW2  203   0.288   0.689   0.513
   68SOL     OW  204   1.547   0.222   1.729
   68SOL    HW1  205   1.542   0.259   1.821
   68SOL    HW2  206   1.475   0.153   1.717
   69SOL     OW  207   0.614   0.122   0.117
   69SOL    HW1  208   0.712   0.100   0.124
   69SOL    HW2  209   0.583   0.105   0.024
   70SOL     OW  210   0.781   0.264   1.749
   70SOL    HW1  211   0.848   0.203   1.792
   70SOL    HW2  212   0.708   0.283   1.814
   71SOL     OW  213   0.888   1.514   1.195
   71SOL    HW1  214   0.865   1.489   1.101
   71SOL    HW2  215   0.949   1.445   1.234
   72SOL     OW  216   1.351   0.590   1.433
   72SOL    HW1  217   1.379   0.547   1.518
   72SOL    HW2  218   1.376   0.686   1.434
   73SOL     OW  219   0.803   1.402   0.924
   73SOL    HW1  220   0.893   1.416   0.882
   73SOL    HW2  221   0.732   1.404   0.853
   74SOL     OW  222   0.922   0.503   0.899
   74SOL    HW1  223   0.897   0.494   0.803
   74SOL    HW2  224   0.970   0.421   0.930
   75SOL     OW  225   0.539   0.064   0.512
   75SOL    HW1  226   0.458   0.065   0.570
   75SOL    HW2  227   0.542   0.147   0.457
   76SOL     OW  228   1.434   1.188   0.041
   76SOL    HW1  229   1.466   1.112   0.098
   76SOL    HW2  230   1.342   1.215   0.071
   77SOL     OW  231   0.297   0.035   0.171
   77SOL    HW1  232   0.346   0.119   0.150
   77SOL    HW2  233   0.359  -0.030   0.216
   78SOL     OW  234   0.935   0.236   0.480
   78SOL    HW1  235   0.887   0.277   0.402
   78SOL    HW2  236   1.034   0.234   0.461
   79SOL     OW  237   1.076   0.683   1.464
   79SOL    HW1  238   0.996   0.622   1.467
   79SOL    HW2  239   1.157   0.630   1.440
   80SOL     OW  240   1.227   1.570   0.793
   80SOL    HW1  241   1.248   1.644   0.728
   80SOL    HW2  242   1.295   1.570   0.866
   81SOL     OW  243   0.459   1.152   0.741
   81SOL    HW1  244   0.388   1.125   0.806
   81SOL    HW2  245   0.433   1.124   0.648
   82SOL     OW  246   1.271   1.797   0.591
   82SOL    HW1  247   1.315   1.861   0.527
   82SOL    HW2  248   1.221   1.849   0.661
   83SOL     OW  249   1.032   0.549   0.016
   83SOL    HW1  250   0.991   0.631  -0.023
   83SOL    HW2  251   1.096   0.575   0.089
   84SOL     OW  252   0.078   0.556   1.386
   84SOL    HW1  253   0.170   0.555   1.345
   84SOL    HW2  254   0.072   0.630   1.453
   85SOL     OW  255   0.561   0.222   1.147
   85SOL    HW1  256   0.599   0.138   1.184
   85SOL    HW2  257   0.473   0.241   1.191
   86SOL     OW  258   0.866   0.454   0.642
   86SOL    HW1  259   0.834   0.526   0.580
   86SOL    HW2  260   0.890   0.373   0.589
   87SOL     OW  261   1.017   0.039   0.753
   87SOL    HW1  262   0.945   0.044   0.684
   87SOL    HW2  263   0.993  -0.030   0.822
   88SOL     OW  264   1.429   1.173   0.867
   88SOL    HW1  265   1.374   1.089   0.860
   88SOL    HW2  266   1.455   1.202   0.775
   89SOL     OW  267   1.466   0.590   0.992
   89SOL    HW1  268   1.436   0.495   0.999
   89SOL    HW2  269   1.539   0.606   1.058
   90SOL     OW  270   1.857   0.833   0.377
   90SOL    HW1  271   1.899   0.769   0.441
   90SOL    HW2  272   1.819   0.782   0.299
   91SOL     OW  273   0.488   1.385   0.174
   91SOL    HW1  274   0.401   1.370   0.221
   91SOL    HW2  275   0.471   1.411   0.079
   92SOL     OW  276   1.664   1.280   0.657
   92SOL    HW1  277   1.763   1.288   0.671
   92SOL    HW2  278   1.619   1.364   0.688
   93SOL     OW  279   1.390   0.575   0.078
   93SOL    HW1  280   1.336   0.554   0.159
   93SOL    HW2  281   1.481   0.534   0.087
   94SOL     OW  282   0.527   0.256   0.328
   94SOL    HW1  283   0.554   0.197   0.253
   94SOL    HW2  284   0.527   0.351   0.297
   95SOL     OW  285   1.754   1.223   1.588
   95SOL    HW1  286   1.845   1.184   1.575
   95SOL    HW2  287   1.762   1.319   1.612
   96SOL     OW  288   1.064   1.347   1.340
   96SOL    HW1  289   0.984   1.324   1.395
   96SOL    HW2  290   1.147   1.321   1.389
   97SOL     OW  291   1.592   1.629   1.625
   97SOL    HW1  292   1.619   1.663   1.535
   97SOL    HW2  293   1.671   1.591   1.671
   98SOL     OW  294   1.111   1.195   1.100
   98SOL    HW1  295   1.071   1.239   1.181
   98SOL    HW2  296   1.070   1.232   1.017
   99SOL     OW  297   1.638   1.099   1.079
   99SOL    HW1  298   1.643   1.180   1.138
   99SOL    HW2  299   1.552   1.101   1.028
  100SOL     OW  300   0.915   0.089   1.402
  100SOL    HW1  301   0.940   0.069   1.307
  100SOL    HW2  302   0.987   0.145   1.444
  101SOL     OW  303   0.980   1.116   1.719
  101SOL    HW1  304   0.881   1.122   1.729
  101SOL    HW2  305   1.003   1.036   1.663
  102SOL     OW  306   0.705   1.050   0.368
  102SOL    HW1  307   0.691   1.057   0.467
  102SOL    HW2  308   0.789   0.999   0.350
  103SOL     OW  309   0.410   0.813   1.251
  103SOL    HW1  310   0.496   0.825   1.301
  103SOL    HW2  311   0.368   0.726   1.278
  104SOL     OW  312   1.274   0.386   1.262
  104SOL    HW1  313   1.295   0.460   1.326
  104SOL    HW2  314   1.185   0.403   1.219
  105SOL     OW  315   0.064   1.564   1.331
  105SOL    HW1  316   0.018   1.646   1.297
  105SOL    HW2  317   0.162   1.583   1.340
  106SOL     OW  318   0.367   1.100   0.501
  106SOL    HW1  319   0.360   1.183   0.445
  106SOL    HW2  320   0.371   1.020   0.441
  107SOL     OW  321   0.566   0.537   0.865
  107SOL    HW1  322   0.578   0.603   0.791
  107SOL    HW2  323   0.612   0.571   0.948
  108SOL     OW  324   1.252   1.348   0.388
  108SOL    HW1  325   1.302   1.425   0.428
  108SOL    HW2  326   1.157   1.350   0.420
  109SOL     OW  327   1.272   1.445   1.142
  109SOL    HW1  328   1.319   1.458   1.229
  109SOL    HW2  329   1.206   1.371   1.151
  110SOL     OW  330   1.582   0.639   0.472
  110SOL    HW1  331   1.551   0.700   0.545
  110SOL    HW2  332   1.632   0.691   0.403
  111SOL     OW  333   0.354   1.510   1.329
  111SOL    HW1  334   0.333   1.466   1.242
  111SOL    HW2  335   0.451   1.536   1.332
  112SOL     OW  336   0.402   0.751   1.598
  112SOL    HW1  337   0.470   0.806   1.551
  112SOL    HW2  338   0.442   0.663   1.625
  113SOL     OW  339   1.587   0.779   1.670
  113SOL    HW1  340   1.495   0.817   1.665
  113SOL    HW2  341   1.647   0.826   1.605
  114SOL     OW  342   1.013   0.105   1.770
  114SOL    HW1  343   1.019   0.190   1.718
  114SOL    HW2  344   1.045   0.029   1.713
  115SOL     OW  345   0.504   0.050   1.740
  115SOL    HW1  346   0.462  -0.007   1.670
  115SOL    HW2  347   0.438   0.119   1.772
  116SOL     OW  348   0.573   0.870   1.029
  116SOL    HW1  349   0.617   0.959   1.020
  116SOL    HW2  350   0.510   0.870   1.106
  117SOL     OW  351   1.360   0.862   1.045
  117SOL    HW1  352   1.285   0.862   0.979
  117SOL    HW2  353   1.397   0.770   1.054
  118SOL     OW  354   1.209   0.525   0.275
  118SOL    HW1  355   1.222   0.441   0.329
  118SOL    HW2  356   1.180   0.599   0.335
  119SOL     OW  357   0.307   0.213   1.231
  119SOL    HW1  358   0.284   0.250   1.321
  119SOL    HW2  359   0.277   0.118   1.225
  120SOL     OW  360   0.037   1.310   1.282
  120SOL    HW1  361   0.090   1.261   1.350
  120SOL    HW2  362   0.059   1.408   1.287
  121SOL     OW  363   0.732   0.634   1.064
  121SOL    HW1  364   0.791   0.608   0.988
  121SOL    HW2  365   0.704   0.730   1.053
  122SOL     OW  366   1.728   0.935   1.854
  122SOL    HW1  367   1.682   0.928   1.765
  122SOL    HW2  368   1.666   0.979   1.920
  123SOL     OW  369   0.307   0.063   0.618
  123SOL    HW1  370   0.296   0.157   0.651
  123SOL    HW2  371   0.302   0.000   0.695
  124SOL     OW  372   1.622   0.367   0.374
  124SOL    HW1  373   1.624   0.291   0.438
  124SOL    HW2  374   1.574   0.444   0.414
  125SOL     OW  375   1.023   0.766   0.966
  125SOL    HW1  376   1.038   0.787   1.062
  125SOL    HW2  377   0.993   0.671   0.957
  126SOL     OW  378   0.980   1.573   1.700
  126SOL    HW1  379   0.960   1.617   1.612
  126SOL    HW2  380   1.019   1.482   1.684
  127SOL     OW  381   1.859   1.518   1.605
  127SOL    HW1  382   1.873   1.545   1.510
  127SOL    HW2  383   1.942   1.540   1.658
  128SOL     OW  384   0.350   0.898   1.804
  128SOL    HW1  385   0.426   0.942   1.852
  128SOL    HW2  386   0.385   0.851   1.722
  129SOL     OW  387   1.540   0.274   0.125
  129SOL    HW1  388   1.479   0.199   0.148
  129SOL    HW2  389   1.562   0.326   0.208
  130SOL     OW  390   1.303   0.838   0.042
  130SOL    HW1  391   1.337   0.745   0.057
  130SOL    HW2  392   1.321   0.865  -0.053
  131SOL     OW  393   1.068   1.333   0.849
  131SOL    HW1  394   1.075   1.249   0.794
  131SOL    HW2  395   1.130   1.402   0.813
  132SOL     OW  396   0.319   0.810   0.949
  132SOL    HW1  397   0.412   0.846   0.954
  132SOL    HW2  398   0.313   0.725   1.001
  133SOL     OW  399   0.339   0.509   1.006
  133SOL    HW1  400   0.287   0.426   0.989
  133SOL    HW2  401   0.416   0.514   0.942
  134SOL     OW  402   1.138   0.380   1.678
  134SOL    HW1  403   1.093   0.443   1.742
  134SOL    HW2  404   1.231   0.411   1.661
  135SOL     OW  405   1.160   0.207   1.477
  135SOL    HW1  406   1.160   0.271   1.554
  135SOL    HW2  407   1.188   0.255   1.394
  136SOL     OW  408   0.008   1.326   0.200
  136SOL    HW1  409  -0.085   1.347   0.169
  136SOL    HW2  410   0.018   1.227   0.213
  137SOL     OW  411   0.088   1.801   0.927
  137SOL    HW1  412   0.046   1.715   0.900
  137SOL    HW2  413   0.182   1.804   0.893
  138SOL     OW  414   0.504   1.568   0.910
  138SOL    HW1  415   0.570   1.642   0.919
  138SOL    HW2  416   0.548   1.489   0.868
  139SOL     OW  417   1.002   0.796   1.238
  139SOL    HW1  418   1.043   0.764   1.324
  139SOL    HW2  419   0.906   0.769   1.235
  140SOL     OW  420   0.040   0.544   1.114
  140SOL    HW1  421   0.125   0.511   1.073
  140SOL    HW2  422   0.053   0.559   1.212
  141SOL     OW  423   0.189   0.520   1.722
  141SOL    HW1  424   0.248   0.480   1.652
  141SOL    HW2  425   0.131   0.591   1.681
  142SOL     OW  426   1.369   0.950   1.660
  142SOL    HW1  427   1.408   1.039   1.680
  142SOL    HW2  428   1.379   0.930   1.563
  143SOL     OW  429   0.815   0.572   0.325
  143SOL    HW1  430   0.822   0.483   0.279
  143SOL    HW2  431   0.721   0.606   0.317
  144SOL     OW  432   1.657   0.604   1.206
  144SOL    HW1  433   1.619   0.535   1.268
  144SOL    HW2  434   1.739   0.568   1.162
  145SOL     OW  435   0.252   1.564   1.744
  145SOL    HW1  436   0.222   1.621   1.820
  145SOL    HW2  437   0.245   1.467   1.770
  146SOL     OW  438   0.671   0.464   1.269
  146SOL    HW1  439   0.637   0.375   1.239
  146SOL    HW2  440   0.697   0.518   1.189
  147SOL     OW  441   0.930   1.678   1.465
  147SOL    HW1  442   0.906   1.660   1.370
  147SOL    HW2  443   0.960   1.772   1.475
  148SOL     OW  444   0.473   0.500   0.191
  148SOL    HW1  445   0.534   0.580   0.195
  148SOL    HW2  446   0.378   0.531   0.198
  149SOL     OW  447   0.159   1.137   1.466
  149SOL    HW1  448   0.181   1.076   1.542
  149SOL    HW2  449   0.169   1.088   1.380
  150SOL     OW  450   1.347   1.059   1.234
  150SOL    HW1  451   1.371   0.996   1.160
  150SOL    HW2  452   1.257   1.099   1.216
  151SOL     OW  453   1.302   0.855   0.309
  151SOL    HW1  454   1.216   0.824   0.351
  151SOL    HW2  455   1.298   0.841   0.210
  152SOL     OW  456   1.759   1.747   1.154
  152SOL    HW1  457   1.820   1.777   1.081
  152SOL    HW2  458   1.721   1.658   1.132
  153SOL     OW  459   1.252   1.731   1.128
  153SOL    HW1  460   1.336   1.736   1.074
  153SOL    HW2  461   1.229   1.635   1.146
  154SOL     OW  462   0.083   1.258   1.022
  154SOL    HW1  463   0.078   1.257   1.122
  154SOL    HW2  464   0.000   1.217   0.984
  155SOL     OW  465   0.688   1.662   1.716
  155SOL    HW1  466   0.632   1.743   1.725
  155SOL    HW2  467   0.740   1.666   1.630
  156SOL     OW  468   0.903   0.086   0.133
  156SOL    HW1  469   0.954   0.087   0.047
  156SOL    HW2  470   0.959   0.044   0.204
  157SOL     OW  471   1.726   0.135   0.523
  157SOL    HW1  472   1.799   0.118   0.456
  157SOL    HW2  473   1.695   0.048   0.561
  158SOL     OW  474   1.388   1.573   0.477
  158SOL    HW1  475   1.455   1.585   0.403
  158SOL    HW2  476   1.348   1.662   0.500
  159SOL     OW  477   0.130   1.794   1.851
  159SOL    HW1  478   0.089   1.720   1.904
  159SOL    HW2  479   0.194   1.845   1.909
  160SOL     OW  480   1.280   0.927   0.672
  160SOL    HW1  481   1.340   0.846   0.674
  160SOL    HW2  482   1.320   0.996   0.612
  161SOL     OW  483   0.830   1.273   1.422
  161SOL    HW1  484   0.825   1.306   1.517
  161SOL    HW2  485   0.744   1.292   1.376
  162SOL     OW  486   0.672   1.616   0.154
  162SOL    HW1  487   0.681   1.626   0.055
  162SOL    HW2  488   0.632   1.527   0.175
  163SOL     OW  489   1.650   1.720   1.394
  163SOL    HW1  490   1.703   1.730   1.310
  163SOL    HW2  491   1.623   1.810   1.428
  164SOL     OW  492   1.841   0.175   0.963
  164SOL    HW1  493   1.880   0.090   0.927
  164SOL    HW2  494   1.743   0.177   0.944
  165SOL     OW  495   0.263   0.326   0.720
  165SOL    HW1  496   0.184   0.377   0.686
  165SOL    HW2  497   0.254   0.311   0.818
  166SOL     OW  498   1.194   1.612   0.031
  166SOL    HW1  499   1.200   1.519   0.068
  166SOL    HW2  500   1.135   1.612  -0.049
  167SOL     OW  501   0.822   1.002   1.372
  167SOL    HW1  502   0.862   1.001   1.280
  167SOL    HW2  503   0.832   1.094   1.412
  168SOL     OW  504   0.916   0.910   0.291
  168SOL    HW1  505   0.979   0.948   0.223
  168SOL    HW2  506   0.956   0.827   0.330
  169SOL     OW  507   1.504   1.607   0.044
  169SOL    HW1  508   1.412   1.644   0.051
  169SOL    HW2  509   1.542   1.627  -0.046
  170SOL     OW  510   0.372   1.288   1.490
  170SOL    HW1  511   0.359   1.381   1.456
  170SOL    HW2  512   0.288   1.236   1.477
  171SOL     OW  513   1.614   1.292   1.289
  171SOL    HW1  514   1.674   1.295   1.369
  171SOL    HW2  515   1.539   1.356   1.302
  172SOL     OW  516   1.039   1.098   0.696
  172SOL    HW1  517   0.969   1.051   0.750
  172SOL    HW2  518   1.098   1.030   0.653
  173SOL     OW  519   1.014   0.236   0.971
  173SOL    HW1  520   1.006   0.200   0.878
  173SOL    HW2  521   1.012   0.160   1.036
  174SOL     OW  522   0.590   1.487   0.491
  174SOL    HW1  523   0.632   1.429   0.421
  174SOL    HW2  524   0.546   1.566   0.447
  175SOL     OW  525   1.709   0.385   1.381
  175SOL    HW1  526   1.782   0.454   1.385
  175SOL    HW2  527   1.737   0.310   1.322
  176SOL     OW  528   0.255   1.348   0.290
  176SOL    HW1  529   0.159   1.349   0.263
  176SOL    HW2  530   0.267   1.401   0.374
  177SOL     OW  531   0.105   1.013   1.726
  177SOL    HW1  532   0.028   0.980   1.780
  177SOL    HW2  533   0.190   0.983   1.768
  178SOL     OW  534   0.672   0.203   1.489
  178SOL    HW1  535   0.762   0.187   1.449
  178SOL    HW2  536   0.680   0.208   1.588
  179SOL     OW  537   0.075   0.345   0.033
  179SOL    HW1  538  -0.017   0.317   0.004
  179SOL    HW2  539   0.106   0.422  -0.023
  180SOL     OW  540   1.440   0.856   1.398
  180SOL    HW1  541   1.383   0.908   1.335
  180SOL    HW2  542   1.536   0.868   1.374
  181SOL     OW  543   0.072   0.166   0.318
  181SOL    HW1  544   0.055   0.249   0.264
  181SOL    HW2  545   0.162   0.129   0.296
  182SOL     OW  546   1.183   1.335   0.119
  182SOL    HW1  547   1.084   1.324   0.121
  182SOL    HW2  548   1.217   1.350   0.212
  183SOL     OW  549   0.613   0.842   1.431
  183SOL    HW1  550   0.669   0.923   1.414
  183SOL    HW2  551   0.672   0.762   1.434
  184SOL     OW  552   1.493   1.767   0.959
  184SOL    HW1  553   1.526   1.831   0.890
  184SOL    HW2  554   1.559   1.761   1.034
  185SOL     OW  555   0.716   0.565   1.708
  185SOL    HW1  556   0.735   0.630   1.782
  185SOL    HW2  557   0.776   0.485   1.717
  186SOL     OW  558   1.450   1.220   1.633
  186SOL    HW1  559   1.441   1.210   1.732
  186SOL    HW2  560   1.546   1.213   1.607
  187SOL     OW  561   0.390   1.741   1.560
  187SOL    HW1  562   0.299   1.782   1.558
  187SOL    HW2  563   0.383   1.647   1.592
  188SOL     OW  564   1.674   0.883   1.254
  188SOL    HW1  565   1.647   0.794   1.217
  188SOL    HW2  566   1.675   0.951   1.181
  189SOL     OW  567   1.225   0.325   0.449
  189SOL    HW1  568   1.290   0.251   0.438
  189SOL    HW2  569   1.245   0.375   0.533
  190SOL     OW  570   0.594   0.745   0.652
  190SOL    HW1  571   0.644   0.830   0.633
  190SOL    HW2  572   0.506   0.747   0.604
  191SOL     OW  573   1.777   0.342   1.642
  191SOL    HW1  574   1.760   0.373   1.548
  191SOL    HW2  575   1.693   0.305   1.680
  192SOL     OW  576   1.730   0.934   1.517
  192SOL    HW1  577   1.768   1.025   1.532
  192SOL    HW2  578   1.722   0.917   1.418
  193SOL     OW  579   0.859   1.374   0.016
  193SOL    HW1  580   0.813   1.389   0.104
  193SOL    HW2  581   0.903   1.459  -0.014
  194SOL     OW  582   0.661   1.790   0.953
  194SOL    HW1  583   0.615   1.878   0.940
  194SOL    HW2  584   0.760   1.802   0.946
  195SOL     OW  585   0.859   0.956   0.861
  195SOL    HW1  586   0.913   0.887   0.909
  195SOL    HW2  587   0.827   1.025   0.927
  196SOL     OW  588   1.083   0.984   0.087
  196SOL    HW1  589   1.060   1.037   0.005
  196SOL    HW2  590   1.164   0.928   0.068
  197SOL     OW  591   1.861   1.569   0.851
  197SOL    HW1  592   1.790   1.557   0.781
  197SOL    HW2  593   1.862   1.490   0.911
  198SOL     OW  594   0.221   1.314   1.844
  198SOL    HW1  595   0.156   1.241   1.823
  198SOL    HW2  596   0.225   1.328   1.942
  199SOL     OW  597   0.079   1.240   0.653
  199SOL    HW1  598   0.078   1.193   0.741
  199SOL    HW2  599   0.161   1.212   0.602
  200SOL     OW  600   0.672   1.391   1.624
  200SOL    HW1  601   0.594   1.341   1.662
  200SOL    HW2  602   0.669   1.486   1.655
  201SOL     OW  603   1.824   0.192   1.227
  201SOL    HW1  604   1.820   0.102   1.271
  201SOL    HW2  605   1.827   0.181   1.128
  202SOL     OW  606   0.428   0.424   0.520
  202SOL    HW1  607   0.458   0.352   0.458
  202SOL    HW2  608   0.389   0.384   0.603
  203SOL     OW  609   1.705   1.487   1.104
  203SOL    HW1  610   1.612   1.462   1.077
  203SOL    HW2  611   1.731   1.437   1.186
  204SOL     OW  612   0.317   0.547   1.280
  204SOL    HW1  613   0.355   0.488   1.352
  204SOL    HW2  614   0.357   0.521   1.192
  205SOL     OW  615   0.812   1.586   0.687
  205SOL    HW1  616   0.844   1.596   0.593
  205SOL    HW2  617   0.733   1.524   0.689
  206SOL     OW  618   1.424   0.214   1.112
  206SOL    HW1  619   1.476   0.149   1.167
  206SOL    HW2  620   1.375   0.277   1.173
  207SOL     OW  621   1.001   0.034   1.154
  207SOL    HW1  622   0.938  -0.038   1.123
  207SOL    HW2  623   1.094  -0.002   1.154
  208SOL     OW  624   0.770   1.330   0.301
  208SOL    HW1  625   0.724   1.243   0.318
  208SOL    HW2  626   0.861   1.327   0.342
  209SOL     OW  627   0.618   1.567   1.284
  209SOL    HW1  628   0.613   1.649   1.341
  209SOL    HW2  629   0.707   1.564   1.239
  210SOL     OW  630   1.352   0.052   0.168
  210SOL    HW1  631   1.387   0.011   0.084
  210SOL    HW2  632   1.262   0.014   0.188
  211SOL     OW  633   1.300   0.453   0.691
  211SOL    HW1  634   1.241   0.533   0.695
  211SOL    HW2  635   1.315   0.418   0.784
  212SOL     OW  636   1.593   0.221   0.882
  212SOL    HW1  637   1.509   0.220   0.936
  212SOL    HW2  638   1.595   0.304   0.826
  213SOL     OW  639   0.039   1.077   0.300
  213SOL    HW1  640   0.138   1.066   0.291
  213SOL    HW2  641  -0.001   0.991   0.332
  214SOL     OW  642   0.875   1.646   0.337
  214SOL    HW1  643   0.798   1.611   0.283
  214SOL    HW2  644   0.843   1.717   0.399
  215SOL     OW  645   0.230   0.628   1.975
  215SOL    HW1  646   0.137   0.626   2.012
  215SOL    HW2  647   0.231   0.589   1.883
  216SOL     OW  648   0.225   0.275   2.858
  216SOL    HW1  649   0.260   0.258   2.950
  216SOL    HW2  650   0.137   0.230   2.846
  217SOL     OW  651   0.019   0.368   2.509
  217SOL    HW1  652  -0.063   0.411   2.548
  217SOL    HW2  653  -0.009   0.295   2.446
  218SOL     OW  654   0.569   1.275   3.027
  218SOL    HW1  655   0.476   1.268   2.990
  218SOL    HW2  656   0.580   1.364   3.071
  219SOL     OW  657   1.555   1.511   2.565
  219SOL    HW1  658   1.498   1.495   2.646
  219SOL    HW2  659   1.496   1.521   2.485
  220SOL     OW  660   1.135   0.703   2.579
  220SOL    HW1  661   1.192   0.781   2.554
  220SOL    HW2  662   1.075   0.729   2.655
  221SOL     OW  663   1.755   0.607   2.093
  221SOL    HW1  664   1.743   0.594   1.994
  221SOL    HW2  665   1.725   0.526   2.142
  222SOL     OW  666   0.768   1.144   2.885
  222SOL    HW1  667   0.690   1.161   2.945
  222SOL    HW2  668   0.802   1.231   2.849
  223SOL     OW  669   0.850   0.798   3.685
  223SOL    HW1  670   0.846   0.874   3.750
  223SOL    HW2  671   0.872   0.834   3.594
  224SOL     OW  672   0.685   1.012   2.527
  224SOL    HW1  673   0.754   0.996   2.597
  224SOL    HW2  674   0.612   1.069   2.565
  225SOL     OW  675   0.686   1.161   3.665
  225SOL    HW1  676   0.746   1.240   3.679
  225SOL    HW2  677   0.600   1.192   3.624
  226SOL     OW  678   0.335   1.435   2.923
  226SOL    HW1  679   0.257   1.404   2.870
  226SOL    HW2  680   0.393   1.493   2.866
  227SOL     OW  681   1.460   1.505   3.201
  227SOL    HW1  682   1.484   1.599   3.227
  227SOL    HW2  683   1.444   1.451   3.283
  228SOL     OW  684   0.438   0.392   3.361
  228SOL    HW1  685   0.520   0.336   3.370
  228SOL    HW2  686   0.357   0.334   3.365
  229SOL     OW  687   1.603   0.447   2.599
  229SOL    HW1  688   1.529   0.493   2.549
  229SOL    HW2  689   1.654   0.515   2.652
  230SOL     OW  690   0.231   1.713   2.345
  230SOL    HW1  691   0.265   1.790   2.399
  230SOL    HW2  692   0.275   1.713   2.255
  231SOL     OW  693   1.127   1.341   3.552
  231SOL    HW1  694   1.174   1.341   3.640
  231SOL    HW2  695   1.079   1.254   3.541
  232SOL     OW  696   0.230   1.434   2.400
  232SOL    HW1  697   0.204   1.530   2.400
  232SOL    HW2  698   0.159   1.380   2.445
  233SOL     OW  699   0.240   1.091   2.748
  233SOL    HW1  700   0.254   1.007   2.800
  233SOL    HW2  701   0.185   1.155   2.803
  234SOL     OW  702   0.620   1.786   3.301
  234SOL    HW1  703   0.528   1.769   3.336
  234SOL    HW2  704   0.648   1.878   3.327
  235SOL     OW  705   0.606   0.964   1.985
  235SOL    HW1  706   0.613   1.048   1.931
  235SOL    HW2  707   0.652   0.977   2.073
  236SOL     OW  708   1.594   0.114   3.342
  236SOL    HW1  709   1.576   0.181   3.270
  236SOL    HW2  710   1.591   0.160   3.431
  237SOL     OW  711   0.122   0.643   2.425
  237SOL    HW1  712   0.077   0.555   2.442
  237SOL    HW2  713   0.121   0.697   2.509
  238SOL     OW  714   1.842   1.767   2.221
  238SOL    HW1  715   1.896   1.738   2.301
  238SOL    HW2  716   1.872   1.857   2.192
  239SOL     OW  717   0.027   1.596   1.979
  239SOL    HW1  718   0.008   1.500   2.000
  239SOL    HW2  719  -0.006   1.654   2.054
  240SOL     OW  720   1.689   0.922   2.474
  240SOL    HW1  721   1.784   0.893   2.482
  240SOL    HW2  722   1.681   0.987   2.399
  241SOL     OW  723   1.641   1.108   2.294
  241SOL    HW1  724   1.727   1.110   2.242
  241SOL    HW2  725   1.655   1.155   2.382
  242SOL     OW  726   0.113   0.737   3.459
  242SOL    HW1  727   0.201   0.724   3.504
  242SOL    HW2  728   0.100   0.834   3.437
  243SOL     OW  729   0.613   1.365   2.588
  243SOL    HW1  730   0.564   1.278   2.597
  243SOL    HW2  731   0.590   1.408   2.501
  244SOL     OW  732   1.293   1.228   3.285
  244SOL    HW1  733   1.330   1.155   3.227
  244SOL    HW2  734   1.345   1.233   3.370
  245SOL     OW  735   0.809   0.004   2.364
  245SOL    HW1  736   0.849   0.095   2.355
  245SOL    HW2  737   0.709   0.012   2.370
  246SOL     OW  738   0.197   0.976   3.126
  246SOL    HW1  739   0.286   0.931   3.112
  246SOL    HW2  740   0.124   0.911   3.107
  247SOL     OW  741   1.525   0.999   2.052
  247SOL    HW1  742   1.462   0.923   2.065
  247SOL    HW2  743   1.573   1.017   2.138
  248SOL     OW  744   1.187   1.792   3.478
  248SOL    HW1  745   1.211   1.852   3.402
  248SOL    HW2  746   1.194   1.697   3.448
  249SOL     OW  747   0.317   0.251   3.663
  249SOL    HW1  748   0.388   0.322   3.669
  249SOL    HW2  749   0.229   0.290   3.691
  250SOL     OW  750   1.466   1.417   2.815
  250SOL    HW1  751   1.407   1.423   2.895
  250SOL    HW2  752   1.451   1.329   2.769
  251SOL     OW  753   1.667   1.714   2.434
  251SOL    HW1  754   1.626   1.691   2.346
  251SOL    HW2  755   1.649   1.640   2.499
  252SOL     OW  756   0.598   0.729   2.132
  252SOL    HW1  757   0.622   0.798   2.064
  252SOL    HW2  758   0.520   0.762   2.186
  253SOL     OW  759   1.281   0.345   2.806
  253SOL    HW1  760   1.195   0.295   2.793
  253SOL    HW2  761   1.343   0.291   2.862
  254SOL     OW  762   1.576   1.662   2.169
  254SOL    HW1  763   1.665   1.708   2.172
  254SOL    HW2  764   1.555   1.638   2.074
  255SOL     OW  765   0.807   0.605   3.327
  255SOL    HW1  766   0.760   0.602   3.416
  255SOL    HW2  767   0.756   0.550   3.261
  256SOL     OW  768   1.394   0.469   3.536
  256SOL    HW1  769   1.374   0.512   3.624
  256SOL    HW2  770   1.472   0.407   3.545
  257SOL     OW  771   0.973   0.890   3.434
  257SOL    HW1  772   1.019   0.806   3.405
  257SOL    HW2  773   0.917   0.924   3.359
  258SOL     OW  774   0.991   0.410   3.104
  258SOL    HW1  775   0.914   0.444   3.158
  258SOL    HW2  776   0.957   0.359   3.025
  259SOL     OW  777   1.041   0.701   2.291
  259SOL    HW1  778   1.067   0.697   2.387
  259SOL    HW2  779   0.956   0.650   2.277
  260SOL     OW  780   0.076   0.811   2.651
  260SOL    HW1  781   0.175   0.799   2.660
  260SOL    HW2  782   0.052   0.906   2.672
  261SOL     OW  783   0.130   1.821   3.433
  261SOL    HW1  784   0.120   1.806   3.532
  261SOL    HW2  785   0.044   1.857   3.397
  262SOL     OW  786   0.865   0.348   2.057
  262SOL    HW1  787   0.924   0.411   2.008
  262SOL    HW2  788   0.884   0.254   2.028
  263SOL     OW  789   1.719   0.585   3.693
  263SOL    HW1  790   1.693   0.674   3.657
  263SOL    HW2  791   1.717   0.517   3.620
  264SOL     OW  792   1.362   1.144   2.407
  264SOL    HW1  793   1.445   1.115   2.359
  264SOL    HW2  794   1.313   1.211   2.351
  265SOL     OW  795   0.550   0.196   2.747
  265SOL    HW1  796   0.545   0.191   2.847
  265SOL    HW2  797   0.552   0.292   2.718
  266SOL     OW  798   1.008   1.456   2.339
  266SOL    HW1  799   0.962   1.528   2.287
  266SOL    HW2  800   1.004   1.476   2.437
  267SOL     OW  801   0.351   1.801   2.715
  267SOL    HW1  802   0.401   1.715   2.721
  267SOL    HW2  803   0.416   1.878   2.712
  268SOL     OW  804   1.795   1.066   2.735
  268SOL    HW1  805   1.733   1.051   2.659
  268SOL    HW2  806   1.743   1.077   2.820
  269SOL     OW  807   1.227   1.550   3.368
  269SOL    HW1  808   1.233   1.473   3.432
  269SOL    HW2  809   1.175   1.524   3.288
  270SOL     OW  810   0.321   0.943   2.104
  270SOL    HW1  811   0.403   0.982   2.062
  270SOL    HW2  812   0.294   0.861   2.055
  271SOL     OW  813   1.458   0.735   2.590
  271SOL    HW1  814   1.453   0.670   2.665
  271SOL    HW2  815   1.538   0.794   2.603
  272SOL     OW  816   0.461   1.266   3.589
  272SOL    HW1  817   0.411   1.267   3.503
  272SOL    HW2  818   0.398   1.248   3.665
  273SOL     OW  819   1.111   1.776   2.099
  273SOL    HW1  820   1.051   1.714   2.149
  273SOL    HW2  821   1.142   1.732   2.014
  274SOL     OW  822   0.202   0.285   3.360
  274SOL    HW1  823   0.122   0.345   3.347
  274SOL    HW2  824   0.192   0.236   3.446
  275SOL     OW  825   1.632   1.377   1.943
  275SOL    HW1  826   1.600   1.471   1.933
  275SOL    HW2  827   1.556   1.314   1.931
  276SOL     OW  828   0.464   1.743   2.185
  276SOL    HW1  829   0.497   1.782   2.271
  276SOL    HW2  830   0.540   1.736   2.120
  277SOL     OW  831   1.400   0.107   2.288
  277SOL    HW1  832   1.376   0.070   2.198
  277SOL    HW2  833   1.499   0.123   2.292
  278SOL     OW  834   0.249   1.785   3.103
  278SOL    HW1  835   0.306   1.720   3.153
  278SOL    HW2  836   0.233   1.752   3.010
  279SOL     OW  837   0.940   1.698   2.766
  279SOL    HW1  838   1.020   1.641   2.787
  279SOL    HW2  839   0.891   1.658   2.689
  280SOL     OW  840   0.382   0.700   2.342
  280SOL    HW1  841   0.427   0.610   2.339
  280SOL    HW2  842   0.288   0.689   2.375
  281SOL     OW  843   1.547   0.222   3.591
  281SOL    HW1  844   1.542   0.259   3.683
  281SOL    HW2  845   1.475   0.153   3.579
  282SOL     OW  846   0.614   0.122   1.979
  282SOL    HW1  847   0.712   0.100   1.986
  282SOL    HW2  848   0.583   0.105   1.886
  283SOL     OW  849   0.781   0.264   3.611
  283SOL    HW1  850   0.848   0.203   3.654
  283SOL    HW2  851   0.708   0.283   3.676
  284SOL     OW  852   0.888   1.514   3.057
  284SOL    HW1  853   0.865   1.489   2.963
  284SOL    HW2  854   0.949   1.445   3.096
  285SOL     OW  855   1.351   0.590   3.295
  285SOL    HW1  856   1.379   0.547   3.380
  285SOL    HW2  857   1.376   0.686   3.296
  286SOL     OW  858   0.803   1.402   2.786
  286SOL    HW1  859   0.893   1.416   2.744
  286SOL    HW2  860   0.732   1.404   2.715
  287SOL     OW  861   0.922   0.503   2.761
  287SOL    HW1  862   0.897   0.494   2.665
  287SOL    HW2  863   0.970   0.421   2.792
  288SOL     OW  864   0.539   0.064   2.374
  288SOL    HW1  865   0.458   0.065   2.432
  288SOL    HW2  866   0.542   0.147   2.319
  289SOL     OW  867   1.434   1.188   1.903
  289SOL    HW1  868   1.466   1.112   1.960
  289SOL    HW2  869   1.342   1.215   1.933
  290SOL     OW  870   0.297   0.035   2.033
  290SOL    HW1  871   0.346   0.119   2.012
  290SOL    HW2  872   0.359  -0.030   2.078
  291SOL     OW  873   0.935   0.236   2.342
  291SOL    HW1  874   0.887   0.277   2.264
  291SOL    HW2  875   1.034   0.234   2.323
  292SOL     OW  876   1.076   0.683   3.326
  292SOL    HW1  877   0.996   0.622   3.329
  292SOL    HW2  878   1.157   0.630   3.302
  293SOL     OW  879   1.227   1.570   2.655
  293SOL    HW1  880   1.248   1.644   2.590
  293SOL    HW2  881   1.295   1.570   2.728
  294SOL     OW  882   0.459   1.152   2.603
  294SOL    HW1  883   0.388   1.125   2.668
  294SOL    HW2  884   0.433   1.124   2.510
  295SOL     OW  885   1.271   1.797   2.453
  295SOL    HW1  886   1.315   1.861   2.389
  295SOL    HW2  887   1.221   1.849   2.523
  296SOL     OW  888   1.032   0.549   1.878
  296SOL    HW1  889   0.991   0.631   1.839
  296SOL    HW2  890   1.096   0.575   1.951
  297SOL     OW  891   0.078   0.556   3.248
  297SOL    HW1  892   0.170   0.555   3.207
  297SOL    HW2  893   0.072   0.630   3.315
  298SOL     OW  894   0.561   0.222   3.009
  298SOL    HW1  895   0.599   0.138   3.046
  298SOL    HW2  896   0.473   0.241   3.053
  299SOL     OW  897   0.866   0.454   2.504
  299SOL    HW1  898   0.834   0.526   2.442
  299SOL    HW2  899   0.890   0.373   2.451
  300SOL     OW  900   1.017   0.039   2.615
  300SOL    HW1  901   0.945   0.044   2.546
  300SOL    HW2  902   0.993  -0.030   2.684
  301SOL     OW  903   1.429   1.173   2.729
  301SOL    HW1  904   1.374   1.089   2.722
  301SOL    HW2  905   1.455   1.202   2.637
  302SOL     OW  906   1.466   0.590   2.854
  302SOL    HW1  907   1.436   0.495   2.861
  302SOL    HW2  908   1.539   0.606   2.920
  303SOL     OW  909   1.857   0.833   2.239
  303SOL    HW1  910   1.899   0.769   2.303
  303SOL    HW2  911   1.819   0.782   2.161
  304SOL     OW  912   0.488   1.385   2.036
  304SOL    HW1  913   0.401   1.370   2.083
  304SOL    HW2  914   0.471   1.411   1.941
  305SOL     OW  915   1.664   1.280   2.519
  305SOL    HW1  916   1.763   1.288   2.533
  305SOL    HW2  917   1.619   1.364   2.550
  306SOL     OW  918   1.390   0.575   1.940
  306SOL    HW1  919   1.336   0.554   2.021
  306SOL    HW2  920   1.481   0.534   1.949
  307SOL     OW  921   0.527   0.256   2.190
  307SOL    HW1  922   0.554   0.197   2.115
  307SOL    HW2  923   0.527   0.351   2.159
  308SOL     OW  924   1.754   1.223   3.450
  308SOL    HW1  925   1.845   1.184   3.437
  308SOL    HW2  926   1.762   1.319   3.474
  309SOL     OW  927   1.064   1.347   3.202
  309SOL    HW1  928   0.984   1.324   3.257
  309SOL    HW2  929   1.147   1.321   3.251
  310SOL     OW  930   1.592   1.629   3.487
  310SOL    HW1  931   1.619   1.663   3.397
  310SOL    HW2  932   1.671   1.591   3.533
  311SOL     OW  933   1.111   1.195   2.962
  311SOL    HW1  934   1.071   1.239   3.043
  311SOL    HW2  935   1.070   1.232   2.879
  312SOL     OW  936   1.638   1.099   2.941
  312SOL    HW1  937   1.643   1.180   3.000
  312SOL    HW2  938   1.552   1.101   2.890
  313SOL     OW  939   0.915   0.089   3.264
  313SOL    HW1  940   0.940   0.069   3.169
  313SOL    HW2  941   0.987   0.145   3.306
  314SOL     OW  942   0.980   1.116   3.581
  314SOL    HW1  943   0.881   1.122   3.591
  314SOL    HW2  944   1.003   1.036   3.525
  315SOL     OW  945   0.705   1.050   2.230
  315SOL    HW1  946   0.691   1.057   2.329
  315SOL    HW2  947   0.789   0.999   2.212
  316SOL     OW  948   0.410   0.813   3.113
  316SOL    HW1  949   0.496   0.825   3.163
  316SOL    HW2  950   0.368   0.726   3.140
  317SOL     OW  951   1.274   0.386   3.124
  317SOL    HW1  952   1.295   0.460   3.188
  317SOL    HW2  953   1.185   0.403   3.081
  318SOL     OW  954   0.064   1.564   3.193
  318SOL    HW1  955   0.018   1.646   3.159
  318SOL    HW2  956   0.162   1.583   3.202
  319SOL     OW  957   0.367   1.100   2.363
  319SOL    HW1  958   0.360   1.183   2.307
  319SOL    HW2  959   0.371   1.020   2.303
  320SOL     OW  960   0.566   0.537   2.727
  320SOL    HW1  961   0.578   0.603   2.653
  320SOL    HW2  962   0.612   0.571   2.810
  321SOL     OW  963   1.252   1.348   2.250
  321SOL    HW1  964   1.302   1.425   2.290
  321SOL    HW2  965   1.157   1.350   2.282
  322SOL     OW  966   1.272   1.445   3.004
  322SOL    HW1  967   1.319   1.458   3.091
  322SOL    HW2  968   1.206   1.371   3.013
  323SOL     OW  969   1.582   0.639   2.334
  323SOL    HW1  970   1.551   0.700   2.407
  323SOL    HW2  971   1.632   0.691   2.265
  324SOL     OW  972   0.354   1.510   3.191
  324SOL    HW1  973   0.333   1.466   3.104
  324SOL    HW2  974   0.451   1.536   3.194
  325SOL     OW  975   0.402   0.751   3.460
  325SOL    HW1  976   0.470   0.806   3.413
  325SOL    HW2  977   0.442   0.663   3.487
  326SOL     OW  978   1.587   0.779   3.532
  326SOL    HW1  979   1.495   0.817   3.527
  326SOL    HW2  980   1.647   0.826   3.467
  327SOL     OW  981   1.013   0.105   3.632
  327SOL    HW1  982   1.019   0.190   3.580
  327SOL    HW2  983   1.045   0.029   3.575
  328SOL     OW  984   0.504   0.050   3.602
  328SOL    HW1  985   0.462  -0.007   3.532
  328SOL    HW2  986   0.438   0.119   3.634
  329SOL     OW  987   0.573   0.870   2.891
  329SOL    HW1  988   0.617   0.959   2.882
  329SOL    HW2  989   0.510   0.870   2.968
  330SOL     OW  990   1.360   0.862   2.907
  330SOL    HW1  991   1.285   0.862   2.841
  330SOL    HW2  992   1.397   0.770   2.916
  331SOL     OW  993   1.209   0.525   2.137
  331SOL    HW1  994   1.222   0.441   2.191
  331SOL    HW2  995   1.180   0.599   2.197
  332SOL     OW  996   0.307   0.213   3.093
  332SOL    HW1  997   0.284   0.250   3.183
  332SOL    HW2  998   0.277   0.118   3.087
  333SOL     OW  999   0.037   1.310   3.144
  333SOL    HW1 1000   0.090   1.261   3.212
  333SOL    HW2 1001   0.059   1.408   3.149
  334SOL     OW 1002   0.732   0.634   2.926
  334SOL    HW1 1003   0.791   0.608   2.850
  334SOL    HW2 1004   0.704   0.730   2.915
  335SOL     OW 1005   1.728   0.935   3.716
  335SOL    HW1 1006   1.682   0.928   3.627
  335SOL    HW2 1007   1.666   0.979   3.782
  336SOL     OW 1008   0.307   0.063   2.480
  336SOL    HW1 1009   0.296   0.157   2.513
  336SOL    HW2 1010   0.302   0.000   2.557
  337SOL     OW 1011   1.622   0.367   2.236
  337SOL    HW1 1012   1.624   0.291   2.300
  337SOL    HW2 1013   1.574   0.444   2.276
  338SOL     OW 1014   1.023   0.766   2.828
  338SOL    HW1 1015   1.038   0.787   2.924
  338SOL    HW2 1016   0.993   0.671   2.819
  339SOL     OW 1017   0.980   1.573   3.562
  339SOL    HW1 1018   0.960   1.617   3.474
  339SOL    HW2 1019   1.019   1.482   3.546
  340SOL     OW 1020   1.859   1.518   3.467
  340SOL    HW1 1021   1.873   1.545   3.372
  340SOL    HW2 1022   1.942   1.540   3.520
  341SOL     OW 1023   0.350   0.898   3.666
  341SOL    HW1 1024   0.426   0.942   3.714
  341SOL    HW2 1025   0.385   0.851   3.584
  342SOL     OW 1026   1.540   0.274   1.987
  342SOL    HW1 1027   1.479   0.199   2.010
  342SOL    HW2 1028   1.562   0.326   2.070
  343SOL     OW 1029   1.303   0.838   1.904
  343SOL    HW1 1030   1.337   0.745   1.919
  343SOL    HW2 1031   1.321   0.865   1.809
  344SOL     OW 1032   1.068   1.333   2.711
  344SOL    HW1 1033   1.075   1.249   2.656
  344SOL    HW2 1034   1.130   1.402   2.675
  345SOL     OW 1035   0.319   0.810   2.811
  345SOL    HW1 1036   0.412   0.846   2.816
  345SOL    HW2 1037   0.313   0.725   2.863
  346SOL     OW 1038   0.339   0.509   2.868
  346SOL    HW1 1039   0.287   0.426   2.851
  346SOL    HW2 1040   0.416   0.514   2.804
  347SOL     OW 1041   1.138   0.380   3.540
  347SOL    HW1 1042   1.093   0.443   3.604
  347SOL    HW2 1043   1.231   0.411   3.523
  348SOL     OW 1044   1.160   0.207   3.339
  348SOL    HW1 1045   1.160   0.271   3.416
  348SOL    HW2 1046   1.188   0.255   3.256
  349SOL     OW 1047   0.008   1.326   2.062
  349SOL    HW1 1048  -0.085   1.347   2.031
  349SOL    HW2 1049   0.018   1.227   2.075
  350SOL     OW 1050   0.088   1.801   2.789
  350SOL    HW1 1051   0.046   1.715   2.762
  350SOL    HW2 1052   0.182   1.804   2.755
  351SOL     OW 1053   0.504   1.568   2.772
  351SOL    HW1 1054   0.570   1.642   2.781
  351SOL    HW2 1055   0.548   1.489   2.730
  352SOL     OW 1056   1.002   0.796   3.100
  352SOL    HW1 1057   1.043   0.764   3.186
  352SOL    HW2 1058   0.906   0.769   3.097
  353SOL     OW 1059   0.040   0.544   2.976
  353SOL    HW1 1060   0.125   0.511   2.935
  353SOL    HW2 1061   0.053   0.559   3.074
  354SOL     OW 1062   0.189   0.520   3.584
  354SOL    HW1 1063   0.248   0.480   3.514
  354SOL    HW2 1064   0.131   0.591   3.543
  355SOL     OW 1065   1.369   0.950   3.522
  355SOL    HW1 1066   1.408   1.039   3.542
  355SOL    HW2 1067   1.379   0.930   3.425
  356SOL     OW 1068   0.815   0.572   2.187
  356SOL    HW1 1069   0.822   0.483   2.141
  356SOL    HW2 1070   0.721   0.606   2.179
  357SOL     OW 1071   1.657   0.604   3.068
  357SOL    HW1 1072   1.619   0.535   3.130
  357SOL    HW2 1073   1.739   0.568   3.024
  358SOL     OW 1074   0.252   1.564   3.606
  358SOL    HW1 1075   0.222   1.621   3.682
  358SOL    HW2 1076   0.245   1.467   3.632
  359SOL     OW 1077   0.671   0.464   3.131
  359SOL    HW1 1078   0.637   0.375   3.101
  359SOL    HW2 1079   0.697   0.518   3.051
  360SOL     OW 1080   0.930   1.678   3.327
  360SOL    HW1 1081   0.906   1.660   3.232
  360SOL    HW2 1082   0.960   1.772   3.337
  361SOL     OW 1083   0.473   0.500   2.053
  361SOL    HW1 1084   0.534   0.580   2.057
  361SOL    HW2 1085   0.378   0.531   2.060
  362SOL     OW 1086   0.159   1.137   3.328
  362SOL    HW1 1087   0.181   1.076   3.404
  362SOL    HW2 1088   0.169   1.088   3.242
  363SOL     OW 1089   1.347   1.059   3.096
  363SOL    HW1 1090   1.371   0.996   3.022
  363SOL    HW2 1091   1.257   1.099   3.078
  364SOL     OW 1092   1.302   0.855   2.171
  364SOL    HW1 1093   1.216   0.824   2.213
  364SOL    HW2 1094   1.298   0.841   2.072
  365SOL     OW 1095   1.759   1.747   3.016
  365SOL    HW1 1096   1.820   1.777   2.943
  365SOL    HW2 1097   1.721   1.658   2.994
  366SOL     OW 1098   1.252   1.731   2.990
  366SOL    HW1 1099   1.336   1.736   2.936
  366SOL    HW2 1100   1.229   1.635   3.008
  367SOL     OW 1101   0.083   1.258   2.884
  367SOL    HW1 1102   0.078   1.257   2.984
  367SOL    HW2 1103   0.000   1.217   2.846
  368SOL     OW 1104   0.688   1.662   3.578
  368SOL    HW1 1105   0.632   1.743   3.587
  368SOL    HW2 1106   0.740   1.666   3.492
  369SOL     OW 1107   1.726   0.135   2.385
  369SOL    HW1 1108   1.799   0.118   2.318
  369SOL    HW2 1109   1.695   0.048   2.423
  370SOL     OW 1110   1.388   1.573   2.339
  370SOL    HW1 1111   1.455   1.585   2.265
  370SOL    HW2 1112   1.348   1.662   2.362
  371SOL     OW 1113   0.130   1.794   3.713
  371SOL    HW1 1114   0.089   1.720   3.766
  371SOL    HW2 1115   0.194   1.845   3.771
  372SOL     OW 1116   1.280   0.927   2.534
  372SOL    HW1 1117   1.340   0.846   2.536
  372SOL    HW2 1118   1.320   0.996   2.474
  373SOL     OW 1119   0.830   1.273   3.284
  373SOL    HW1 1120   0.825   1.306   3.379
  373SOL    HW2 1121   0.744   1.292   3.238
  374SOL     OW 1122   0.672   1.616   2.016
  374SOL    HW1 1123   0.681   1.626   1.917
  374SOL    HW2 1124   0.632   1.527   2.037
  375SOL     OW 1125   1.650   1.720   3.256
  375SOL    HW1 1126   1.703   1.730   3.172
  375SOL    HW2 1127   1.623   1.810   3.290
  376SOL     OW 1128   1.841   0.175   2.825
  376SOL    HW1 1129   1.880   0.090   2.789
  376SOL    HW2 1130   1.743   0.177   2.806
  377SOL     OW 1131   0.263   0.326   2.582
  377SOL    HW1 1132   0.184   0.377   2.548
  377SOL    HW2 1133   0.254   0.311   2.680
  378SOL     OW 1134   1.194   1.612   1.893
  378SOL    HW1 1135   1.200   1.519   1.930
  378SOL    HW2 1136   1.135   1.612   1.813
  379SOL     OW 1137   0.822   1.002   3.234
  379SOL    HW1 1138   0.862   1.001   3.142
  379SOL    HW2 1139   0.832   1.094   3.274
  380SOL     OW 1140   0.916   0.910   2.153
  380SOL    HW1 1141   0.979   0.948   2.085
  380SOL    HW2 1142   0.956   0.827   2.192
  381SOL     OW 1143   1.504   1.607   1.906
  381SOL    HW1 1144   1.412   1.644   1.913
  381SOL    HW2 1145   1.542   1.627   1.816
  382SOL     OW 1146   0.372   1.288   3.352
  382SOL    HW1 1147   0.359   1.381   3.318
  382SOL    HW2 1148   0.288   1.236   3.339
  383SOL     OW 1149   1.614   1.292   3.151
  383SOL    HW1 1150   1.674   1.295   3.231
  383SOL    HW2 1151   1.539   1.356   3.164
  384SOL     OW 1152   1.039   1.098   2.558
  384SOL    HW1 1153   0.969   1.051   2.612
  384SOL    HW2 1154   1.098   1.030   2.515
  385SOL     OW 1155   1.014   0.236   2.833
  385SOL    HW1 1156   1.006   0.200   2.740
  385SOL    HW2 1157   1.012   0.160   2.898
  386SOL     OW 1158   0.590   1.487   2.353
  386SOL    HW1 1159   0.632   1.429   2.283
  386SOL    HW2 1160   0.546   1.566   2.309
  387SOL     OW 1161   1.709   0.385   3.243
  387SOL    HW1 1162   1.782   0.454   3.247
  387SOL    HW2 1163   1.737   0.310   3.184
  388SOL     OW 1164   0.255   1.348   2.152
  388SOL    HW1 1165   0.159   1.349   2.125
  388SOL    HW2 1166   0.267   1.401   2.236
  389SOL     OW 1167   0.105   1.013   3.588
  389SOL    HW1 1168   0.028   0.980   3.642
  389SOL    HW2 1169   0.190   0.983   3.630
  390SOL     OW 1170   0.672   0.203   3.351
  390SOL    HW1 1171   0.762   0.187   3.311
  390SOL    HW2 1172   0.680   0.208   3.450
  391SOL     OW 1173   0.075   0.345   1.895
  391SOL    HW1 1174  -0.017   0.317   1.866
  391SOL    HW2 1175   0.106   0.422   1.839
  392SOL     OW 1176   1.440   0.856   3.260
  392SOL    HW1 1177   1.383   0.908   3.197
  392SOL    HW2 1178   1.536   0.868   3.236
  393SOL     OW 1179   0.072   0.166   2.180
  393SOL    HW1 1180   0.055   0.249   2.126
  393SOL    HW2 1181   0.162   0.129   2.158
  394SOL     OW 1182   1.183   1.335   1.981
  394SOL    HW1 1183   1.084   1.324   1.983
  394SOL    HW2 1184   1.217   1.350   2.074
  395SOL     OW 1185   0.613   0.842   3.293
  395SOL    HW1 1186   0.669   0.923   3.276
  395SOL    HW2 1187   0.672   0.762   3.296
  396SOL     OW 1188   1.493   1.767   2.821
  396SOL    HW1 1189   1.526   1.831   2.752
  396SOL    HW2 1190   1.559   1.761   2.896
  397SOL     OW 1191   0.716   0.565   3.570
  397SOL    HW1 1192   0.735   0.630   3.644
  397SOL    HW2 1193   0.776   0.485   3.579
  398SOL     OW 1194   1.450   1.220   3.495
  398SOL    HW1 1195   1.441   1.210   3.594
  398SOL    HW2 1196   1.546   1.213   3.469
  399SOL     OW 1197   0.390   1.741   3.422
  399SOL    HW1 1198   0.299   1.782   3.420
  399SOL    HW2 1199   0.383   1.647   3.454
  400SOL     OW 1200   1.674   0.883   3.116
  400SOL    HW1 1201   1.647   0.794   3.079
  400SOL    HW2 1202   1.675   0.951   3.043
  401SOL     OW 1203   1.225   0.325   2.311
  401SOL    HW1 1204   1.290   0.251   2.300
  401SOL    HW2 1205   1.245   0.375   2.395
  402SOL     OW 1206   0.594   0.745   2.514
  402SOL    HW1 1207   0.644   0.830   2.495
  402SOL    HW2 1208   0.506   0.747   2.466
  403SOL     OW 1209   1.777   0.342   3.504
  403SOL    HW1 1210   1.760   0.373   3.410
  403SOL    HW2 1211   1.693   0.305   3.542
  404SOL     OW 1212   1.730   0.934   3.379
  404SOL    HW1 1213   1.768   1.025   3.394
  404SOL    HW2 1214   1.722   0.917   3.280
  405SOL     OW 1215   0.859   1.374   1.878
  405SOL    HW1 1216   0.813   1.389   1.966
  405SOL    HW2 1217   0.903   1.459   1.848
  406SOL     OW 1218   0.661   1.790   2.815
  406SOL    HW1 1219   0.615   1.878   2.802
  406SOL    HW2 1220   0.760   1.802   2.808
  407SOL     OW 1221   0.859   0.956   2.723
  407SOL    HW1 1222   0.913   0.887   2.771
  407SOL    HW2 1223   0.827   1.025   2.789
  408SOL     OW 1224   1.083   0.984   1.949
  408SOL    HW1 1225   1.060   1.037   1.867
  408SOL    HW2 1226   1.164   0.928   1.930
  409SOL     OW 1227   1.861   1.569   2.713
  409SOL    HW1 1228   1.790   1.557   2.643
  409SOL    HW2 1229   1.862   1.490   2.773
  410SOL     OW 1230   0.221   1.314   3.706
  410SOL    HW1 1231   0.156   1.241   3.685
  410SOL    HW2 1232   0.225   1.328   3.804
  411SOL     OW 1233   0.079   1.240   2.515
  411SOL    HW1 1234   0.078   1.193   2.603
  411SOL    HW2 1235   0.161   1.212   2.464
  412SOL     OW 1236   0.672   1.391   3.486
  412SOL    HW1 1237   0.594   1.341   3.524
  412SOL    HW2 1238   0.669   1.486   3.517
  413SOL     OW 1239   1.824   0.192   3.089
  413SOL    HW1 1240   1.820   0.102   3.133
  413SOL    HW2 1241   1.827   0.181   2.990
  414SOL     OW 1242   0.428   0.424   2.382
  414SOL    HW1 1243   0.458   0.352   2.320
  414SOL    HW2 1244   0.389   0.384   2.465
  415SOL     OW 1245   1.705   1.487   2.966
  415SOL    HW1 1246   1.612   1.462   2.939
  415SOL    HW2 1247   1.731   1.437   3.048
  416SOL     OW 1248   0.317   0.547   3.142
  416SOL    HW1 1249   0.355   0.488   3.214
  416SOL    HW2 1250   0.357   0.521   3.054
  417SOL     OW 1251   0.812   1.586   2.549
  417SOL    HW1 1252   0.844   1.596   2.455
  417SOL    HW2 1253   0.733   1.524   2.551
  418SOL     OW 1254   1.424   0.214   2.974
  418SOL    HW1 1255   1.476   0.149   3.029
  418SOL    HW2 1256   1.375   0.277   3.035
  419SOL     OW 1257   1.001   0.034   3.016
  419SOL    HW1 1258   0.938  -0.038   2.985
  419SOL    HW2 1259   1.094  -0.002   3.016
  420SOL     OW 1260   0.770   1.330   2.163
  420SOL    HW1 1261   0.724   1.243   2.180
  420SOL    HW2 1262   0.861   1.327   2.204
  421SOL     OW 1263   0.618   1.567   3.146
  421SOL    HW1 1264   0.613   1.649   3.203
  421SOL    HW2 1265   0.707   1.564   3.101
  422SOL     OW 1266   1.352   0.052   2.030
  422SOL    HW1 1267   1.387   0.011   1.946
  422SOL    HW2 1268   1.262   0.014   2.050
  423SOL     OW 1269   1.300   0.453   2.553
  423SOL    HW1 1270   1.241   0.533   2.557
  423SOL    HW2 1271   1.315   0.418   2.646
  424SOL     OW 1272   1.593   0.221   2.744
  424SOL    HW1 1273   1.509   0.220   2.798
  424SOL    HW2 1274   1.595   0.304   2.688
  425SOL     OW 1275   0.039   1.077   2.162
  425SOL    HW1 1276   0.138   1.066   2.153
  425SOL    HW2 1277  -0.001   0.991   2.194
  426SOL     OW 1278   0.875   1.646   2.199
  426SOL    HW1 1279   0.798   1.611   2.145
  426SOL    HW2 1280   0.843   1.717   2.261
  427SOL     OW 1281   0.230   0.628   3.837
  427SOL    HW1 1282   0.137   0.626   3.874
  427SOL    HW2 1283   0.231   0.589   3.745
  428SOL     OW 1284   1.755   0.607   3.955
  428SOL    HW1 1285   1.743   0.594   3.856
  428SOL    HW2 1286   1.725   0.526   4.004
  429SOL     OW 1287   0.231   1.713   4.207
  429SOL    HW1 1288   0.265   1.790   4.261
  429SOL    HW2 1289   0.275   1.713   4.117
  430SOL     OW 1290   0.230   1.434   4.262
  430SOL    HW1 1291   0.204   1.530   4.262
  430SOL    HW2 1292   0.159   1.380   4.307
  431SOL     OW 1293   0.606   0.964   3.847
  431SOL    HW1 1294   0.613   1.048   3.793
  431SOL    HW2 1295   0.652   0.977   3.935
  432SOL     OW 1296   1.842   1.767   4.083
  432SOL    HW1 1297   1.896   1.738   4.163
  432SOL    HW2 1298   1.872   1.857   4.054
  433SOL     OW 1299   0.027   1.596   3.841
  433SOL    HW1 1300   0.008   1.500   3.862
  433SOL    HW2 1301  -0.006   1.654   3.916
  434SOL     OW 1302   1.689   0.922   4.336
  434SOL    HW1 1303   1.784   0.893   4.344
  434SOL    HW2 1304   1.681   0.987   4.261
  435SOL     OW 1305   1.641   1.108   4.156
  435SOL    HW1 1306   1.727   1.110   4.104
  435SOL    HW2 1307   1.655   1.155   4.244
  436SOL     OW 1308   0.809   0.004   4.226
  436SOL    HW1 1309   0.849   0.095   4.217
  436SOL    HW2 1310   0.709   0.012   4.232
  437SOL     OW 1311   1.525   0.999   3.914
  437SOL    HW1 1312   1.462   0.923   3.927
  437SOL    HW2 1313   1.573   1.017   4.000
  438SOL     OW 1314   0.598   0.729   3.994
  438SOL    HW1 1315   0.622   0.798   3.926
  438SOL    HW2 1316   0.520   0.762   4.048
  439SOL     OW 1317   1.576   1.662   4.031
  439SOL    HW1 1318   1.665   1.708   4.034
  439SOL    HW2 1319   1.555   1.638   3.936
  440SOL     OW 1320   0.865   0.348   3.919
  440SOL    HW1 1321   0.924   0.411   3.870
  440SOL    HW2 1322   0.884   0.254   3.890
  441SOL     OW 1323   0.321   0.943   3.966
  441SOL    HW1 1324   0.403   0.982   3.924
  441SOL    HW2 1325   0.294   0.861   3.917
  442SOL     OW 1326   1.458   0.735   4.452
  442SOL    HW1 1327   1.453   0.670   4.527
  442SOL    HW2 1328   1.538   0.794   4.465
  443SOL     OW 1329   1.111   1.776   3.961
  443SOL    HW1 1330   1.051   1.714   4.011
  443SOL    HW2 1331   1.142   1.732   3.876
  444SOL     OW 1332   1.632   1.377   3.805
  444SOL    HW1 1333   1.600   1.471   3.795
  444SOL    HW2 1334   1.556   1.314   3.793
  445SOL     OW 1335   0.464   1.743   4.047
  445SOL    HW1 1336   0.497   1.782   4.133
  445SOL    HW2 1337   0.540   1.736   3.982
  446SOL     OW 1338   1.400   0.107   4.150
  446SOL    HW1 1339   1.376   0.070   4.060
  446SOL    HW2 1340   1.499   0.123   4.154
  447SOL     OW 1341   0.382   0.700   4.204
  447SOL    HW1 1342   0.427   0.610   4.201
  447SOL    HW2 1343   0.288   0.689   4.237
  448SOL     OW 1344   0.614   0.122   3.841
  448SOL    HW1 1345   0.712   0.100   3.848
  448SOL    HW2 1346   0.583   0.105   3.748
  449SOL     OW 1347   1.434   1.188   3.765
  449SOL    HW1 1348   1.466   1.112   3.822
  449SOL    HW2 1349   1.342   1.215   3.795
  450SOL     OW 1350   0.297   0.035   3.895
  450SOL    HW1 1351   0.346   0.119   3.874
  450SOL    HW2 1352   0.359  -0.030   3.940
  451SOL     OW 1353   0.935   0.236   4.204
  451SOL    HW1 1354   0.887   0.277   4.126
  451SOL    HW2 1355   1.034   0.234   4.185
  452SOL     OW 1356   0.459   1.152   4.465
  452SOL    HW1 1357   0.388   1.125   4.530
  452SOL    HW2 1358   0.433   1.124   4.372
  453SOL     OW 1359   1.271   1.797   4.315
  453SOL    HW1 1360   1.315   1.861   4.251
  453SOL    HW2 1361   1.221   1.849   4.385
  454SOL     OW 1362   1.032   0.549   3.740
  454SOL    HW1 1363   0.991   0.631   3.701
  454SOL    HW2 1364   1.096   0.575   3.813
  455SOL     OW 1365   1.429   1.173   4.591
  455SOL    HW1 1366   1.374   1.089   4.584
  455SOL    HW2 1367   1.455   1.202   4.499
  456SOL     OW 1368   1.857   0.833   4.101
  456SOL    HW1 1369   1.899   0.769   4.165
  456SOL    HW2 1370   1.819   0.782   4.023
  457SOL     OW 1371   0.488   1.385   3.898
  457SOL    HW1 1372   0.401   1.370   3.945
  457SOL    HW2 1373   0.471   1.411   3.803
  458SOL     OW 1374   1.390   0.575   3.802
  458SOL    HW1 1375   1.336   0.554   3.883
  458SOL    HW2 1376   1.481   0.534   3.811
  459SOL     OW 1377   0.527   0.256   4.052
  459SOL    HW1 1378   0.554   0.197   3.977
  459SOL    HW2 1379   0.527   0.351   4.021
  460SOL     OW 1380   0.705   1.050   4.092
  460SOL    HW1 1381   0.691   1.057   4.191
  460SOL    HW2 1382   0.789   0.999   4.074
  461SOL     OW 1383   0.367   1.100   4.225
  461SOL    HW1 1384   0.360   1.183   4.169
  461SOL    HW2 1385   0.371   1.020   4.165
  462SOL     OW 1386   1.252   1.348   4.112
  462SOL    HW1 1387   1.302   1.425   4.152
  462SOL    HW2 1388   1.157   1.350   4.144
  463SOL     OW 1389   1.582   0.639   4.196
  463SOL    HW1 1390   1.551   0.700   4.269
  463SOL    HW2 1391   1.632   0.691   4.127
  464SOL     OW 1392   1.209   0.525   3.999
  464SOL    HW1 1393   1.222   0.441   4.053
  464SOL    HW2 1394   1.180   0.599   4.059
  465SOL     OW 1395   1.622   0.367   4.098
  465SOL    HW1 1396   1.624   0.291   4.162
  465SOL    HW2 1397   1.574   0.444   4.138
  466SOL     OW 1398   1.540   0.274   3.849
  466SOL    HW1 1399   1.479   0.199   3.872
  466SOL    HW2 1400   1.562   0.326   3.932
  467SOL     OW 1401   1.303   0.838   3.766
  467SOL    HW1 1402   1.337   0.745   3.781
  467SOL    HW2 1403   1.321   0.865   3.671
  468SOL     OW 1404   0.008   1.326   3.924
  468SOL    HW1 1405  -0.085   1.347   3.893
  468SOL    HW2 1406   0.018   1.227   3.937
  469SOL     OW 1407   0.815   0.572   4.049
  469SOL    HW1 1408   0.822   0.483   4.003
  469SOL    HW2 1409   0.721   0.606   4.041
  470SOL     OW 1410   0.473   0.500   3.915
  470SOL    HW1 1411   0.534   0.580   3.919
  470SOL    HW2 1412   0.378   0.531   3.922
  471SOL     OW 1413   1.302   0.855   4.033
  471SOL    HW1 1414   1.216   0.824   4.075
  471SOL    HW2 1415   1.298   0.841   3.934
  472SOL     OW 1416   1.726   0.135   4.247
  472SOL    HW1 1417   1.799   0.118   4.180
  472SOL    HW2 1418   1.695   0.048   4.285
  473SOL     OW 1419   0.672   1.616   3.878
  473SOL    HW1 1420   0.681   1.626   3.779
  473SOL    HW2 1421   0.632   1.527   3.899
  474SOL     OW 1422   1.194   1.612   3.755
  474SOL    HW1 1423   1.200   1.519   3.792
  474SOL    HW2 1424   1.135   1.612   3.675
  475SOL     OW 1425   0.916   0.910   4.015
  475SOL    HW1 1426   0.979   0.948   3.947
  475SOL    HW2 1427   0.956   0.827   4.054
  476SOL     OW 1428   1.504   1.607   3.768
  476SOL    HW1 1429   1.412   1.644   3.775
  476SOL    HW2 1430   1.542   1.627   3.678
  477SOL     OW 1431   0.590   1.487   4.215
  477SOL    HW1 1432   0.632   1.429   4.145
  477SOL    HW2 1433   0.546   1.566   4.171
  478SOL     OW 1434   0.255   1.348   4.014
  478SOL    HW1 1435   0.159   1.349   3.987
  478SOL    HW2 1436   0.267   1.401   4.098
  479SOL     OW 1437   0.075   0.345   3.757
  479SOL    HW1 1438  -0.017   0.317   3.728
  479SOL    HW2 1439   0.106   0.422   3.701
  480SOL     OW 1440   0.072   0.166   4.042
  480SOL    HW1 1441   0.055   0.249   3.988
  480SOL    HW2 1442   0.162   0.129   4.020
  481SOL     OW 1443   1.183   1.335   3.843
  481SOL    HW1 1444   1.084   1.324   3.845
  481SOL    HW2 1445   1.217   1.350   3.936
  482SOL     OW 1446   1.225   0.325   4.173
  482SOL    HW1 1447   1.290   0.251   4.162
  482SOL    HW2 1448   1.245   0.375   4.257
  483SOL     OW 1449   0.859   1.374   3.740
  483SOL    HW1 1450   0.813   1.389   3.828
  483SOL    HW2 1451   0.903   1.459   3.710
  484SOL     OW 1452   1.083   0.984   3.811
  484SOL    HW1 1453   1.060   1.037   3.729
  484SOL    HW2 1454   1.164   0.928   3.792
  485SOL     OW 1455   0.428   0.424   4.244
  485SOL    HW1 1456   0.458   0.352   4.182
  485SOL    HW2 1457   0.389   0.384   4.327
  486SOL     OW 1458   0.770   1.330   4.025
  486SOL    HW1 1459   0.724   1.243   4.042
  486SOL    HW2 1460   0.861   1.327   4.066
  487SOL     OW 1461   1.352   0.052   3.892
  487SOL    HW1 1462   1.387   0.011   3.808
  487SOL    HW2 1463   1.262   0.014   3.912
  488SOL     OW 1464   0.039   1.077   4.024
  488SOL    HW1 1465   0.138   1.066   4.015
  488SOL    HW2 1466  -0.001   0.991   4.056
  489SOL     OW 1467   0.875   1.646   4.061
  489SOL    HW1 1468   0.798   1.611   4.007
  489SOL    HW2 1469   0.843   1.717   4.123
  490SOL     OW 1470   0.230   2.490   0.113
  490SOL    HW1 1471   0.137   2.488   0.150
  490SOL    HW2 1472   0.231   2.451   0.021
  491SOL     OW 1473   0.225   2.137   0.996
  491SOL    HW1 1474   0.260   2.120   1.088
  491SOL    HW2 1475   0.137   2.092   0.984
  492SOL     OW 1476   0.019   2.230   0.647
  492SOL    HW1 1477  -0.063   2.273   0.686
  492SOL    HW2 1478  -0.009   2.157   0.584
  493SOL     OW 1479   0.569   3.137   1.165
  493SOL    HW1 1480   0.476   3.130   1.128
  493SOL    HW2 1481   0.580   3.226   1.209
  494SOL     OW 1482   1.555   3.373   0.703
  494SOL    HW1 1483   1.498   3.357   0.784
  494SOL    HW2 1484   1.496   3.383   0.623
  495SOL     OW 1485   1.135   2.565   0.717
  495SOL    HW1 1486   1.192   2.643   0.692
  495SOL    HW2 1487   1.075   2.591   0.793
  496SOL     OW 1488   1.755   2.469   0.231
  496SOL    HW1 1489   1.743   2.456   0.132
  496SOL    HW2 1490   1.725   2.388   0.280
  497SOL     OW 1491   0.768   3.006   1.023
  497SOL    HW1 1492   0.690   3.023   1.083
  497SOL    HW2 1493   0.802   3.093   0.987
  498SOL     OW 1494   0.850   2.660   1.823
  498SOL    HW1 1495   0.846   2.736   1.888
  498SOL    HW2 1496   0.872   2.696   1.732
  499SOL     OW 1497   0.685   2.874   0.665
  499SOL    HW1 1498   0.754   2.858   0.735
  499SOL    HW2 1499   0.612   2.931   0.703
  500SOL     OW 1500   0.686   3.023   1.803
  500SOL    HW1 1501   0.746   3.102   1.817
  500SOL    HW2 1502   0.600   3.054   1.762
  501SOL     OW 1503   0.335   3.297   1.061
  501SOL    HW1 1504   0.257   3.266   1.008
  501SOL    HW2 1505   0.393   3.355   1.004
  502SOL     OW 1506   1.460   3.367   1.339
  502SOL    HW1 1507   1.484   3.461   1.365
  502SOL    HW2 1508   1.444   3.313   1.421
  503SOL     OW 1509   0.438   2.254   1.499
  503SOL    HW1 1510   0.520   2.198   1.508
  503SOL    HW2 1511   0.357   2.196   1.503
  504SOL     OW 1512   1.603   2.309   0.737
  504SOL    HW1 1513   1.529   2.355   0.687
  504SOL    HW2 1514   1.654   2.377   0.790
  505SOL     OW 1515   0.231   3.575   0.483
  505SOL    HW1 1516   0.265   3.652   0.537
  505SOL    HW2 1517   0.275   3.575   0.393
  506SOL     OW 1518   1.127   3.203   1.690
  506SOL    HW1 1519   1.174   3.203   1.778
  506SOL    HW2 1520   1.079   3.116   1.679
  507SOL     OW 1521   0.230   3.296   0.538
  507SOL    HW1 1522   0.204   3.392   0.538
  507SOL    HW2 1523   0.159   3.242   0.583
  508SOL     OW 1524   0.240   2.953   0.886
  508SOL    HW1 1525   0.254   2.869   0.938
  508SOL    HW2 1526   0.185   3.017   0.941
  509SOL     OW 1527   0.620   3.648   1.439
  509SOL    HW1 1528   0.528   3.631   1.474
  509SOL    HW2 1529   0.648   3.740   1.465
  510SOL     OW 1530   0.606   2.826   0.123
  510SOL    HW1 1531   0.613   2.910   0.069
  510SOL    HW2 1532   0.652   2.839   0.211
  511SOL     OW 1533   1.594   1.976   1.480
  511SOL    HW1 1534   1.576   2.043   1.408
  511SOL    HW2 1535   1.591   2.022   1.569
  512SOL     OW 1536   0.122   2.505   0.563
  512SOL    HW1 1537   0.077   2.417   0.580
  512SOL    HW2 1538   0.121   2.559   0.647
  513SOL     OW 1539   1.842   3.629   0.359
  513SOL    HW1 1540   1.896   3.600   0.439
  513SOL    HW2 1541   1.872   3.719   0.330
  514SOL     OW 1542   0.027   3.458   0.117
  514SOL    HW1 1543   0.008   3.362   0.138
  514SOL    HW2 1544  -0.006   3.516   0.192
  515SOL     OW 1545   1.689   2.784   0.612
  515SOL    HW1 1546   1.784   2.755   0.620
  515SOL    HW2 1547   1.681   2.849   0.537
  516SOL     OW 1548   1.641   2.970   0.432
  516SOL    HW1 1549   1.727   2.972   0.380
  516SOL    HW2 1550   1.655   3.017   0.520
  517SOL     OW 1551   0.113   2.599   1.597
  517SOL    HW1 1552   0.201   2.586   1.642
  517SOL    HW2 1553   0.100   2.696   1.575
  518SOL     OW 1554   0.613   3.227   0.726
  518SOL    HW1 1555   0.564   3.140   0.735
  518SOL    HW2 1556   0.590   3.270   0.639
  519SOL     OW 1557   1.293   3.090   1.423
  519SOL    HW1 1558   1.330   3.017   1.365
  519SOL    HW2 1559   1.345   3.095   1.508
  520SOL     OW 1560   0.809   1.866   0.502
  520SOL    HW1 1561   0.849   1.957   0.493
  520SOL    HW2 1562   0.709   1.874   0.508
  521SOL     OW 1563   0.197   2.838   1.264
  521SOL    HW1 1564   0.286   2.793   1.250
  521SOL    HW2 1565   0.124   2.773   1.245
  522SOL     OW 1566   1.525   2.861   0.190
  522SOL    HW1 1567   1.462   2.785   0.203
  522SOL    HW2 1568   1.573   2.879   0.276
  523SOL     OW 1569   1.187   3.654   1.616
  523SOL    HW1 1570   1.211   3.714   1.540
  523SOL    HW2 1571   1.194   3.559   1.586
  524SOL     OW 1572   0.317   2.113   1.801
  524SOL    HW1 1573   0.388   2.184   1.807
  524SOL    HW2 1574   0.229   2.152   1.829
  525SOL     OW 1575   1.466   3.279   0.953
  525SOL    HW1 1576   1.407   3.285   1.033
  525SOL    HW2 1577   1.451   3.191   0.907
  526SOL     OW 1578   1.667   3.576   0.572
  526SOL    HW1 1579   1.626   3.553   0.484
  526SOL    HW2 1580   1.649   3.502   0.637
  527SOL     OW 1581   0.598   2.591   0.270
  527SOL    HW1 1582   0.622   2.660   0.202
  527SOL    HW2 1583   0.520   2.624   0.324
  528SOL     OW 1584   1.281   2.207   0.944
  528SOL    HW1 1585   1.195   2.157   0.931
  528SOL    HW2 1586   1.343   2.153   1.000
  529SOL     OW 1587   1.576   3.524   0.307
  529SOL    HW1 1588   1.665   3.570   0.310
  529SOL    HW2 1589   1.555   3.500   0.212
  530SOL     OW 1590   0.807   2.467   1.465
  530SOL    HW1 1591   0.760   2.464   1.554
  530SOL    HW2 1592   0.756   2.412   1.399
  531SOL     OW 1593   1.394   2.331   1.674
  531SOL    HW1 1594   1.374   2.374   1.762
  531SOL    HW2 1595   1.472   2.269   1.683
  532SOL     OW 1596   0.973   2.752   1.572
  532SOL    HW1 1597   1.019   2.668   1.543
  532SOL    HW2 1598   0.917   2.786   1.497
  533SOL     OW 1599   0.991   2.272   1.242
  533SOL    HW1 1600   0.914   2.306   1.296
  533SOL    HW2 1601   0.957   2.221   1.163
  534SOL     OW 1602   1.041   2.563   0.429
  534SOL    HW1 1603   1.067   2.559   0.525
  534SOL    HW2 1604   0.956   2.512   0.415
  535SOL     OW 1605   0.076   2.673   0.789
  535SOL    HW1 1606   0.175   2.661   0.798
  535SOL    HW2 1607   0.052   2.768   0.810
  536SOL     OW 1608   0.130   3.683   1.571
  536SOL    HW1 1609   0.120   3.668   1.670
  536SOL    HW2 1610   0.044   3.719   1.535
  537SOL     OW 1611   0.865   2.210   0.195
  537SOL    HW1 1612   0.924   2.273   0.146
  537SOL    HW2 1613   0.884   2.116   0.166
  538SOL     OW 1614   1.719   2.447   1.831
  538SOL    HW1 1615   1.693   2.536   1.795
  538SOL    HW2 1616   1.717   2.379   1.758
  539SOL     OW 1617   1.362   3.006   0.545
  539SOL    HW1 1618   1.445   2.977   0.497
  539SOL    HW2 1619   1.313   3.073   0.489
  540SOL     OW 1620   0.550   2.058   0.885
  540SOL    HW1 1621   0.545   2.053   0.985
  540SOL    HW2 1622   0.552   2.154   0.856
  541SOL     OW 1623   1.008   3.318   0.477
  541SOL    HW1 1624   0.962   3.390   0.425
  541SOL    HW2 1625   1.004   3.338   0.575
  542SOL     OW 1626   0.351   3.663   0.853
  542SOL    HW1 1627   0.401   3.577   0.859
  542SOL    HW2 1628   0.416   3.740   0.850
  543SOL     OW 1629   1.795   2.928   0.873
  543SOL    HW1 1630   1.733   2.913   0.797
  543SOL    HW2 1631   1.743   2.939   0.958
  544SOL     OW 1632   1.227   3.412   1.506
  544SOL    HW1 1633   1.233   3.335   1.570
  544SOL    HW2 1634   1.175   3.386   1.426
  545SOL     OW 1635   0.321   2.805   0.242
  545SOL    HW1 1636   0.403   2.844   0.200
  545SOL    HW2 1637   0.294   2.723   0.193
  546SOL     OW 1638   1.458   2.597   0.728
  546SOL    HW1 1639   1.453   2.532   0.803
  546SOL    HW2 1640   1.538   2.656   0.741
  547SOL     OW 1641   0.461   3.128   1.727
  547SOL    HW1 1642   0.411   3.129   1.641
  547SOL    HW2 1643   0.398   3.110   1.803
  548SOL     OW 1644   1.111   3.638   0.237
  548SOL    HW1 1645   1.051   3.576   0.287
  548SOL    HW2 1646   1.142   3.594   0.152
  549SOL     OW 1647   0.202   2.147   1.498
  549SOL    HW1 1648   0.122   2.207   1.485
  549SOL    HW2 1649   0.192   2.098   1.584
  550SOL     OW 1650   1.632   3.239   0.081
  550SOL    HW1 1651   1.600   3.333   0.071
  550SOL    HW2 1652   1.556   3.176   0.069
  551SOL     OW 1653   0.464   3.605   0.323
  551SOL    HW1 1654   0.497   3.644   0.409
  551SOL    HW2 1655   0.540   3.598   0.258
  552SOL     OW 1656   1.400   1.969   0.426
  552SOL    HW1 1657   1.376   1.932   0.336
  552SOL    HW2 1658   1.499   1.985   0.430
  553SOL     OW 1659   0.249   3.647   1.241
  553SOL    HW1 1660   0.306   3.582   1.291
  553SOL    HW2 1661   0.233   3.614   1.148
  554SOL     OW 1662   0.940   3.560   0.904
  554SOL    HW1 1663   1.020   3.503   0.925
  554SOL    HW2 1664   0.891   3.520   0.827
  555SOL     OW 1665   0.382   2.562   0.480
  555SOL    HW1 1666   0.427   2.472   0.477
  555SOL    HW2 1667   0.288   2.551   0.513
  556SOL     OW 1668   1.547   2.084   1.729
  556SOL    HW1 1669   1.542   2.121   1.821
  556SOL    HW2 1670   1.475   2.015   1.717
  557SOL     OW 1671   0.614   1.984   0.117
  557SOL    HW1 1672   0.712   1.962   0.124
  557SOL    HW2 1673   0.583   1.967   0.024
  558SOL     OW 1674   0.781   2.126   1.749
  558SOL    HW1 1675   0.848   2.065   1.792
  558SOL    HW2 1676   0.708   2.145   1.814
  559SOL     OW 1677   0.888   3.376   1.195
  559SOL    HW1 1678   0.865   3.351   1.101
  559SOL    HW2 1679   0.949   3.307   1.234
  560SOL     OW 1680   1.351   2.452   1.433
  560SOL    HW1 1681   1.379   2.409   1.518
  560SOL    HW2 1682   1.376   2.548   1.434
  561SOL     OW 1683   0.803   3.264   0.924
  561SOL    HW1 1684   0.893   3.278   0.882
  561SOL    HW2 1685   0.732   3.266   0.853
  562SOL     OW 1686   0.922   2.365   0.899
  562SOL    HW1 1687   0.897   2.356   0.803
  562SOL    HW2 1688   0.970   2.283   0.930
  563SOL     OW 1689   0.539   1.926   0.512
  563SOL    HW1 1690   0.458   1.927   0.570
  563SOL    HW2 1691   0.542   2.009   0.457
  564SOL     OW 1692   1.434   3.050   0.041
  564SOL    HW1 1693   1.466   2.974   0.098
  564SOL    HW2 1694   1.342   3.077   0.071
  565SOL     OW 1695   0.297   1.897   0.171
  565SOL    HW1 1696   0.346   1.981   0.150
  565SOL    HW2 1697   0.359   1.832   0.216
  566SOL     OW 1698   0.935   2.098   0.480
  566SOL    HW1 1699   0.887   2.139   0.402
  566SOL    HW2 1700   1.034   2.096   0.461
  567SOL     OW 1701   1.076   2.545   1.464
  567SOL    HW1 1702   0.996   2.484   1.467
  567SOL    HW2 1703   1.157   2.492   1.440
  568SOL     OW 1704   1.227   3.432   0.793
  568SOL    HW1 1705   1.248   3.506   0.728
  568SOL    HW2 1706   1.295   3.432   0.866
  569SOL     OW 1707   0.459   3.014   0.741
  569SOL    HW1 1708   0.388   2.987   0.806
  569SOL    HW2 1709   0.433   2.986   0.648
  570SOL     OW 1710   1.271   3.659   0.591
  570SOL    HW1 1711   1.315   3.723   0.527
  570SOL    HW2 1712   1.221   3.711   0.661
  571SOL     OW 1713   1.032   2.411   0.016
  571SOL    HW1 1714   0.991   2.493  -0.023
  571SOL    HW2 1715   1.096   2.437   0.089
  572SOL     OW 1716   0.078   2.418   1.386
  572SOL    HW1 1717   0.170   2.417   1.345
  572SOL    HW2 1718   0.072   2.492   1.453
  573SOL     OW 1719   0.561   2.084   1.147
  573SOL    HW1 1720   0.599   2.000   1.184
  573SOL    HW2 1721   0.473   2.103   1.191
  574SOL     OW 1722   0.866   2.316   0.642
  574SOL    HW1 1723   0.834   2.388   0.580
  574SOL    HW2 1724   0.890   2.235   0.589
  575SOL     OW 1725   1.017   1.901   0.753
  575SOL    HW1 1726   0.945   1.906   0.684
  575SOL    HW2 1727   0.993   1.832   0.822
  576SOL     OW 1728   1.429   3.035   0.867
  576SOL    HW1 1729   1.374   2.951   0.860
  576SOL    HW2 1730   1.455   3.064   0.775
  577SOL     OW 1731   1.466   2.452   0.992
  577SOL    HW1 1732   1.436   2.357   0.999
  577SOL    HW2 1733   1.539   2.468   1.058
  578SOL     OW 1734   1.857   2.695   0.377
  578SOL    HW1 1735   1.899   2.631   0.441
  578SOL    HW2 1736   1.819   2.644   0.299
  579SOL     OW 1737   0.488   3.247   0.174
  579SOL    HW1 1738   0.401   3.232   0.221
  579SOL    HW2 1739   0.471   3.273   0.079
  580SOL     OW 1740   1.664   3.142   0.657
  580SOL    HW1 1741   1.763   3.150   0.671
  580SOL    HW2 1742   1.619   3.226   0.688
  581SOL     OW 1743   1.390   2.437   0.078
  581SOL    HW1 1744   1.336   2.416   0.159
  581SOL    HW2 1745   1.481   2.396   0.087
  582SOL     OW 1746   0.527   2.118   0.328
  582SOL    HW1 1747   0.554   2.059   0.253
  582SOL    HW2 1748   0.527   2.213   0.297
  583SOL     OW 1749   1.754   3.085   1.588
  583SOL    HW1 1750   1.845   3.046   1.575
  583SOL    HW2 1751   1.762   3.181   1.612
  584SOL     OW 1752   1.064   3.209   1.340
  584SOL    HW1 1753   0.984   3.186   1.395
  584SOL    HW2 1754   1.147   3.183   1.389
  585SOL     OW 1755   1.592   3.491   1.625
  585SOL    HW1 1756   1.619   3.525   1.535
  585SOL    HW2 1757   1.671   3.453   1.671
  586SOL     OW 1758   1.111   3.057   1.100
  586SOL    HW1 1759   1.071   3.101   1.181
  586SOL    HW2 1760   1.070   3.094   1.017
  587SOL     OW 1761   1.638   2.961   1.079
  587SOL    HW1 1762   1.643   3.042   1.138
  587SOL    HW2 1763   1.552   2.963   1.028
  588SOL     OW 1764   0.915   1.951   1.402
  588SOL    HW1 1765   0.940   1.931   1.307
  588SOL    HW2 1766   0.987   2.007   1.444
  589SOL     OW 1767   0.980   2.978   1.719
  589SOL    HW1 1768   0.881   2.984   1.729
  589SOL    HW2 1769   1.003   2.898   1.663
  590SOL     OW 1770   0.705   2.912   0.368
  590SOL    HW1 1771   0.691   2.919   0.467
  590SOL    HW2 1772   0.789   2.861   0.350
  591SOL     OW 1773   0.410   2.675   1.251
  591SOL    HW1 1774   0.496   2.687   1.301
  591SOL    HW2 1775   0.368   2.588   1.278
  592SOL     OW 1776   1.274   2.248   1.262
  592SOL    HW1 1777   1.295   2.322   1.326
  592SOL    HW2 1778   1.185   2.265   1.219
  593SOL     OW 1779   0.064   3.426   1.331
  593SOL    HW1 1780   0.018   3.508   1.297
  593SOL    HW2 1781   0.162   3.445   1.340
  594SOL     OW 1782   0.367   2.962   0.501
  594SOL    HW1 1783   0.360   3.045   0.445
  594SOL    HW2 1784   0.371   2.882   0.441
  595SOL     OW 1785   0.566   2.399   0.865
  595SOL    HW1 1786   0.578   2.465   0.791
  595SOL    HW2 1787   0.612   2.433   0.948
  596SOL     OW 1788   1.252   3.210   0.388
  596SOL    HW1 1789   1.302   3.287   0.428
  596SOL    HW2 1790   1.157   3.212   0.420
  597SOL     OW 1791   1.272   3.307   1.142
  597SOL    HW1 1792   1.319   3.320   1.229
  597SOL    HW2 1793   1.206   3.233   1.151
  598SOL     OW 1794   1.582   2.501   0.472
  598SOL    HW1 1795   1.551   2.562   0.545
  598SOL    HW2 1796   1.632   2.553   0.403
  599SOL     OW 1797   0.354   3.372   1.329
  599SOL    HW1 1798   0.333   3.328   1.242
  599SOL    HW2 1799   0.451   3.398   1.332
  600SOL     OW 1800   0.402   2.613   1.598
  600SOL    HW1 1801   0.470   2.668   1.551
  600SOL    HW2 1802   0.442   2.525   1.625
  601SOL     OW 1803   1.587   2.641   1.670
  601SOL    HW1 1804   1.495   2.679   1.665
  601SOL    HW2 1805   1.647   2.688   1.605
  602SOL     OW 1806   1.013   1.967   1.770
  602SOL    HW1 1807   1.019   2.052   1.718
  602SOL    HW2 1808   1.045   1.891   1.713
  603SOL     OW 1809   0.504   1.912   1.740
  603SOL    HW1 1810   0.462   1.855   1.670
  603SOL    HW2 1811   0.438   1.981   1.772
  604SOL     OW 1812   0.573   2.732   1.029
  604SOL    HW1 1813   0.617   2.821   1.020
  604SOL    HW2 1814   0.510   2.732   1.106
  605SOL     OW 1815   1.360   2.724   1.045
  605SOL    HW1 1816   1.285   2.724   0.979
  605SOL    HW2 1817   1.397   2.632   1.054
  606SOL     OW 1818   1.209   2.387   0.275
  606SOL    HW1 1819   1.222   2.303   0.329
  606SOL    HW2 1820   1.180   2.461   0.335
  607SOL     OW 1821   0.307   2.075   1.231
  607SOL    HW1 1822   0.284   2.112   1.321
  607SOL    HW2 1823   0.277   1.980   1.225
  608SOL     OW 1824   0.037   3.172   1.282
  608SOL    HW1 1825   0.090   3.123   1.350
  608SOL    HW2 1826   0.059   3.270   1.287
  609SOL     OW 1827   0.732   2.496   1.064
  609SOL    HW1 1828   0.791   2.470   0.988
  609SOL    HW2 1829   0.704   2.592   1.053
  610SOL     OW 1830   1.728   2.797   1.854
  610SOL    HW1 1831   1.682   2.790   1.765
  610SOL    HW2 1832   1.666   2.841   1.920
  611SOL     OW 1833   0.307   1.925   0.618
  611SOL    HW1 1834   0.296   2.019   0.651
  611SOL    HW2 1835   0.302   1.862   0.695
  612SOL     OW 1836   1.622   2.229   0.374
  612SOL    HW1 1837   1.624   2.153   0.438
  612SOL    HW2 1838   1.574   2.306   0.414
  613SOL     OW 1839   1.023   2.628   0.966
  613SOL    HW1 1840   1.038   2.649   1.062
  613SOL    HW2 1841   0.993   2.533   0.957
  614SOL     OW 1842   0.980   3.435   1.700
  614SOL    HW1 1843   0.960   3.479   1.612
  614SOL    HW2 1844   1.019   3.344   1.684
  615SOL     OW 1845   1.859   3.380   1.605
  615SOL    HW1 1846   1.873   3.407   1.510
  615SOL    HW2 1847   1.942   3.402   1.658
  616SOL     OW 1848   0.350   2.760   1.804
  616SOL    HW1 1849   0.426   2.804   1.852
  616SOL    HW2 1850   0.385   2.713   1.722
  617SOL     OW 1851   1.540   2.136   0.125
  617SOL    HW1 1852   1.479   2.061   0.148
  617SOL    HW2 1853   1.562   2.188   0.208
  618SOL     OW 1854   1.303   2.700   0.042
  618SOL    HW1 1855   1.337   2.607   0.057
  618SOL    HW2 1856   1.321   2.727  -0.053
  619SOL     OW 1857   1.068   3.195   0.849
  619SOL    HW1 1858   1.075   3.111   0.794
  619SOL    HW2 1859   1.130   3.264   0.813
  620SOL     OW 1860   0.319   2.672   0.949
  620SOL    HW1 1861   0.412   2.708   0.954
  620SOL    HW2 1862   0.313   2.587   1.001
  621SOL     OW 1863   0.339   2.371   1.006
  621SOL    HW1 1864   0.287   2.288   0.989
  621SOL    HW2 1865   0.416   2.376   0.942
  622SOL     OW 1866   1.138   2.242   1.678
  622SOL    HW1 1867   1.093   2.305   1.742
  622SOL    HW2 1868   1.231   2.273   1.661
  623SOL     OW 1869   1.160   2.069   1.477
  623SOL    HW1 1870   1.160   2.133   1.554
  623SOL    HW2 1871   1.188   2.117   1.394
  624SOL     OW 1872   0.008   3.188   0.200
  624SOL    HW1 1873  -0.085   3.209   0.169
  624SOL    HW2 1874   0.018   3.089   0.213
  625SOL     OW 1875   0.088   3.663   0.927
  625SOL    HW1 1876   0.046   3.577   0.900
  625SOL    HW2 1877   0.182   3.666   0.893
  626SOL     OW 1878   0.504   3.430   0.910
  626SOL    HW1 1879   0.570   3.504   0.919
  626SOL    HW2 1880   0.548   3.351   0.868
  627SOL     OW 1881   1.002   2.658   1.238
  627SOL    HW1 1882   1.043   2.626   1.324
  627SOL    HW2 1883   0.906   2.631   1.235
  628SOL     OW 1884   0.040   2.406   1.114
  628SOL    HW1 1885   0.125   2.373   1.073
  628SOL    HW2 1886   0.053   2.421   1.212
  629SOL     OW 1887   0.189   2.382   1.722
  629SOL    HW1 1888   0.248   2.342   1.652
  629SOL    HW2 1889   0.131   2.453   1.681
  630SOL     OW 1890   1.369   2.812   1.660
  630SOL    HW1 1891   1.408   2.901   1.680
  630SOL    HW2 1892   1.379   2.792   1.563
  631SOL     OW 1893   0.815   2.434   0.325
  631SOL    HW1 1894   0.822   2.345   0.279
  631SOL    HW2 1895   0.721   2.468   0.317
  632SOL     OW 1896   1.657   2.466   1.206
  632SOL    HW1 1897   1.619   2.397   1.268
  632SOL    HW2 1898   1.739   2.430   1.162
  633SOL     OW 1899   0.252   3.426   1.744
  633SOL    HW1 1900   0.222   3.483   1.820
  633SOL    HW2 1901   0.245   3.329   1.770
  634SOL     OW 1902   0.671   2.326   1.269
  634SOL    HW1 1903   0.637   2.237   1.239
  634SOL    HW2 1904   0.697   2.380   1.189
  635SOL     OW 1905   0.930   3.540   1.465
  635SOL    HW1 1906   0.906   3.522   1.370
  635SOL    HW2 1907   0.960   3.634   1.475
  636SOL     OW 1908   0.473   2.362   0.191
  636SOL    HW1 1909   0.534   2.442   0.195
  636SOL    HW2 1910   0.378   2.393   0.198
  637SOL     OW 1911   0.159   2.999   1.466
  637SOL    HW1 1912   0.181   2.938   1.542
  637SOL    HW2 1913   0.169   2.950   1.380
  638SOL     OW 1914   1.347   2.921   1.234
  638SOL    HW1 1915   1.371   2.858   1.160
  638SOL    HW2 1916   1.257   2.961   1.216
  639SOL     OW 1917   1.302   2.717   0.309
  639SOL    HW1 1918   1.216   2.686   0.351
  639SOL    HW2 1919   1.298   2.703   0.210
  640SOL     OW 1920   1.759   3.609   1.154
  640SOL    HW1 1921   1.820   3.639   1.081
  640SOL    HW2 1922   1.721   3.520   1.132
  641SOL     OW 1923   1.252   3.593   1.128
  641SOL    HW1 1924   1.336   3.598   1.074
  641SOL    HW2 1925   1.229   3.497   1.146
  642SOL     OW 1926   0.083   3.120   1.022
  642SOL    HW1 1927   0.078   3.119   1.122
  642SOL    HW2 1928   0.000   3.079   0.984
  643SOL     OW 1929   0.688   3.524   1.716
  643SOL    HW1 1930   0.632   3.605   1.725
  643SOL    HW2 1931   0.740   3.528   1.630
  644SOL     OW 1932   0.903   1.948   0.133
  644SOL    HW1 1933   0.954   1.949   0.047
  644SOL    HW2 1934   0.959   1.906   0.204
  645SOL     OW 1935   1.726   1.997   0.523
  645SOL    HW1 1936   1.799   1.980   0.456
  645SOL    HW2 1937   1.695   1.910   0.561
  646SOL     OW 1938   1.388   3.435   0.477
  646SOL    HW1 1939   1.455   3.447   0.403
  646SOL    HW2 1940   1.348   3.524   0.500
  647SOL     OW 1941   0.130   3.656   1.851
  647SOL    HW1 1942   0.089   3.582   1.904
  647SOL    HW2 1943   0.194   3.707   1.909
  648SOL     OW 1944   1.280   2.789   0.672
  648SOL    HW1 1945   1.340   2.708   0.674
  648SOL    HW2 1946   1.320   2.858   0.612
  649SOL     OW 1947   0.830   3.135   1.422
  649SOL    HW1 1948   0.825   3.168   1.517
  649SOL    HW2 1949   0.744   3.154   1.376
  650SOL     OW 1950   0.672   3.478   0.154
  650SOL    HW1 1951   0.681   3.488   0.055
  650SOL    HW2 1952   0.632   3.389   0.175
  651SOL     OW 1953   1.650   3.582   1.394
  651SOL    HW1 1954   1.703   3.592   1.310
  651SOL    HW2 1955   1.623   3.672   1.428
  652SOL     OW 1956   1.841   2.037   0.963
  652SOL    HW1 1957   1.880   1.952   0.927
  652SOL    HW2 1958   1.743   2.039   0.944
  653SOL     OW 1959   0.263   2.188   0.720
  653SOL    HW1 1960   0.184   2.239   0.686
  653SOL    HW2 1961   0.254   2.173   0.818
  654SOL     OW 1962   1.194   3.474   0.031
  654SOL    HW1 1963   1.200   3.381   0.068
  654SOL    HW2 1964   1.135   3.474  -0.049
  655SOL     OW 1965   0.822   2.864   1.372
  655SOL    HW1 1966   0.862   2.863   1.280
  655SOL    HW2 1967   0.832   2.956   1.412
  656SOL     OW 1968   0.916   2.772   0.291
  656SOL    HW1 1969   0.979   2.810   0.223
  656SOL    HW2 1970   0.956   2.689   0.330
  657SOL     OW 1971   1.504   3.469   0.044
  657SOL    HW1 1972   1.412   3.506   0.051
  657SOL    HW2 1973   1.542   3.489  -0.046
  658SOL     OW 1974   0.372   3.150   1.490
  658SOL    HW1 1975   0.359   3.243   1.456
  658SOL    HW2 1976   0.288   3.098   1.477
  659SOL     OW 1977   1.614   3.154   1.289
  659SOL    HW1 1978   1.674   3.157   1.369
  659SOL    HW2 1979   1.539   3.218   1.302
  660SOL     OW 1980   1.039   2.960   0.696
  660SOL    HW1 1981   0.969   2.913   0.750
  660SOL    HW2 1982   1.098   2.892   0.653
  661SOL     OW 1983   1.014   2.098   0.971
  661SOL    HW1 1984   1.006   2.062   0.878
  661SOL    HW2 1985   1.012   2.022   1.036
  662SOL     OW 1986   0.590   3.349   0.491
  662SOL    HW1 1987   0.632   3.291   0.421
  662SOL    HW2 1988   0.546   3.428   0.447
  663SOL     OW 1989   1.709   2.247   1.381
  663SOL    HW1 1990   1.782   2.316   1.385
  663SOL    HW2 1991   1.737   2.172   1.322
  664SOL     OW 1992   0.255   3.210   0.290
  664SOL    HW1 1993   0.159   3.211   0.263
  664SOL    HW2 1994   0.267   3.263   0.374
  665SOL     OW 1995   0.105   2.875   1.726
  665SOL    HW1 1996   0.028   2.842   1.780
  665SOL    HW2 1997   0.190   2.845   1.768
  666SOL     OW 1998   0.672   2.065   1.489
  666SOL    HW1 1999   0.762   2.049   1.449
  666SOL    HW2 2000   0.680   2.070   1.588
  667SOL     OW 2001   0.075   2.207   0.033
  667SOL    HW1 2002  -0.017   2.179   0.004
  667SOL    HW2 2003   0.106   2.284  -0.023
  668SOL     OW 2004   1.440   2.718   1.398
  668SOL    HW1 2005   1.383   2.770   1.335
  668SOL    HW2 2006   1.536   2.730   1.374
  669SOL     OW 2007   0.072   2.028   0.318
  669SOL    HW1 2008   0.055   2.111   0.264
  669SOL    HW2 2009   0.162   1.991   0.296
  670SOL     OW 2010   1.183   3.197   0.119
  670SOL    HW1 2011   1.084   3.186   0.121
  670SOL    HW2 2012   1.217   3.212   0.212
  671SOL     OW 2013   0.613   2.704   1.431
  671SOL    HW1 2014   0.669   2.785   1.414
  671SOL    HW2 2015   0.672   2.624   1.434
  672SOL     OW 2016   1.493   3.629   0.959
  672SOL    HW1 2017   1.526   3.693   0.890
  672SOL    HW2 2018   1.559   3.623   1.034
  673SOL     OW 2019   0.716   2.427   1.708
  673SOL    HW1 2020   0.735   2.492   1.782
  673SOL    HW2 2021   0.776   2.347   1.717
  674SOL     OW 2022   1.450   3.082   1.633
  674SOL    HW1 2023   1.441   3.072   1.732
  674SOL    HW2 2024   1.546   3.075   1.607
  675SOL     OW 2025   0.390   3.603   1.560
  675SOL    HW1 2026   0.299   3.644   1.558
  675SOL    HW2 2027   0.383   3.509   1.592
  676SOL     OW 2028   1.674   2.745   1.254
  676SOL    HW1 2029   1.647   2.656   1.217
  676SOL    HW2 2030   1.675   2.813   1.181
  677SOL     OW 2031   1.225   2.187   0.449
  677SOL    HW1 2032   1.290   2.113   0.438
  677SOL    HW2 2033   1.245   2.237   0.533
  678SOL     OW 2034   0.594   2.607   0.652
  678SOL    HW1 2035   0.644   2.692   0.633
  678SOL    HW2 2036   0.506   2.609   0.604
  679SOL     OW 2037   1.777   2.204   1.642
  679SOL    HW1 2038   1.760   2.235   1.548
  679SOL    HW2 2039   1.693   2.167   1.680
  680SOL     OW 2040   1.730   2.796   1.517
  680SOL    HW1 2041   1.768   2.887   1.532
  680SOL    HW2 2042   1.722   2.779   1.418
  681SOL     OW 2043   0.859   3.236   0.016
  681SOL    HW1 2044   0.813   3.251   0.104
  681SOL    HW2 2045   0.903   3.321  -0.014
  682SOL     OW 2046   0.661   3.652   0.953
  682SOL    HW1 2047   0.615   3.740   0.940
  682SOL    HW2 2048   0.760   3.664   0.946
  683SOL     OW 2049   0.859   2.818   0.861
  683SOL    HW1 2050   0.913   2.749   0.909
  683SOL    HW2 2051   0.827   2.887   0.927
  684SOL     OW 2052   1.083   2.846   0.087
  684SOL    HW1 2053   1.060   2.899   0.005
  684SOL    HW2 2054   1.164   2.790   0.068
  685SOL     OW 2055   1.861   3.431   0.851
  685SOL    HW1 2056   1.790   3.419   0.781
  685SOL    HW2 2057   1.862   3.352   0.911
  686SOL     OW 2058   0.221   3.176   1.844
  686SOL    HW1 2059   0.156   3.103   1.823
  686SOL    HW2 2060   0.225   3.190   1.942
  687SOL     OW 2061   0.079   3.102   0.653
  687SOL    HW1 2062   0.078   3.055   0.741
  687SOL    HW2 2063   0.161   3.074   0.602
  688SOL     OW 2064   0.672   3.253   1.624
  688SOL    HW1 2065   0.594   3.203   1.662
  688SOL    HW2 2066   0.669   3.348   1.655
  689SOL     OW 2067   1.824   2.054   1.227
  689SOL    HW1 2068   1.820   1.964   1.271
  689SOL    HW2 2069   1.827   2.043   1.128
  690SOL     OW 2070   0.428   2.286   0.520
  690SOL    HW1 2071   0.458   2.214   0.458
  690SOL    HW2 2072   0.389   2.246   0.603
  691SOL     OW 2073   1.705   3.349   1.104
  691SOL    HW1 2074   1.612   3.324   1.077
  691SOL    HW2 2075   1.731   3.299   1.186
  692SOL     OW 2076   0.317   2.409   1.280
  692SOL    HW1 2077   0.355   2.350   1.352
  692SOL    HW2 2078   0.357   2.383   1.192
  693SOL     OW 2079   0.812   3.448   0.687
  693SOL    HW1 2080   0.844   3.458   0.593
  693SOL    HW2 2081   0.733   3.386   0.689
  694SOL     OW 2082   1.424   2.076   1.112
  694SOL    HW1 2083   1.476   2.011   1.167
  694SOL    HW2 2084   1.375   2.139   1.173
  695SOL     OW 2085   1.001   1.896   1.154
  695SOL    HW1 2086   0.938   1.824   1.123
  695SOL    HW2 2087   1.094   1.860   1.154
  696SOL     OW 2088   0.770   3.192   0.301
  696SOL    HW1 2089   0.724   3.105   0.318
  696SOL    HW2 2090   0.861   3.189   0.342
  697SOL     OW 2091   0.618   3.429   1.284
  697SOL    HW1 2092   0.613   3.511   1.341
  697SOL    HW2 2093   0.707   3.426   1.239
  698SOL     OW 2094   1.300   2.315   0.691
  698SOL    HW1 2095   1.241   2.395   0.695
  698SOL    HW2 2096   1.315   2.280   0.784
  699SOL     OW 2097   1.593   2.083   0.882
  699SOL    HW1 2098   1.509   2.082   0.936
  699SOL    HW2 2099   1.595   2.166   0.826
  700SOL     OW 2100   0.039   2.939   0.300
  700SOL    HW1 2101   0.138   2.928   0.291
  700SOL    HW2 2102  -0.001   2.853   0.332
  701SOL     OW 2103   0.875   3.508   0.337
  701SOL    HW1 2104   0.798   3.473   0.283
  701SOL    HW2 2105   0.843   3.579   0.399
  702SOL     OW 2106   0.230   2.490   1.975
  702SOL    HW1 2107   0.137   2.488   2.012
  702SOL    HW2 2108   0.231   2.451   1.883
  703SOL     OW 2109   0.225   2.137   2.858
  703SOL    HW1 2110   0.260   2.120   2.950
  703SOL    HW2 2111   0.137   2.092   2.846
  704SOL     OW 2112   0.019   2.230   2.509
  704SOL    HW1 2113  -0.063   2.273   2.548
  704SOL    HW2 2114  -0.009   2.157   2.446
  705SOL     OW 2115   0.569   3.137   3.027
  705SOL    HW1 2116   0.476   3.130   2.990
  705SOL    HW2 2117   0.580   3.226   3.071
  706SOL     OW 2118   1.555   3.373   2.565
  706SOL    HW1 2119   1.498   3.357   2.646
  706SOL    HW2 2120   1.496   3.383   2.485
  707SOL     OW 2121   1.135   2.565   2.579
  707SOL    HW1 2122   1.192   2.643   2.554
  707SOL    HW2 2123   1.075   2.591   2.655
  708SOL     OW 2124   1.755   2.469   2.093
  708SOL    HW1 2125   1.743   2.456   1.994
  708SOL    HW2 2126   1.725   2.388   2.142
  709SOL     OW 2127   0.768   3.006   2.885
  709SOL    HW1 2128   0.690   3.023   2.945
  709SOL    HW2 2129   0.802   3.093   2.849
  710SOL     OW 2130   0.850   2.660   3.685
  710SOL    HW1 2131   0.846   2.736   3.750
  710SOL    HW2 2132   0.872   2.696   3.594
  711SOL     OW 2133   0.685   2.874   2.527
  711SOL    HW1 2134   0.754   2.858   2.597
  711SOL    HW2 2135   0.612   2.931   2.565
  712SOL     OW 2136   0.686   3.023   3.665
  712SOL    HW1 2137   0.746   3.102   3.679
  712SOL    HW2 2138   0.600   3.054   3.624
  713SOL     OW 2139   0.335   3.297   2.923
  713SOL    HW1 2140   0.257   3.266   2.870
  713SOL    HW2 2141   0.393   3.355   2.866
  714SOL     OW 2142   1.460   3.367   3.201
  714SOL    HW1 2143   1.484   3.461   3.227
  714SOL    HW2 2144   1.444   3.313   3.283
  715SOL     OW 2145   0.438   2.254   3.361
  715SOL    HW1 2146   0.520   2.198   3.370
  715SOL    HW2 2147   0.357   2.196   3.365
  716SOL     OW 2148   1.603   2.309   2.599
  716SOL    HW1 2149   1.529   2.355   2.549
  716SOL    HW2 2150   1.654   2.377   2.652
  717SOL     OW 2151   0.231   3.575   2.345
  717SOL    HW1 2152   0.265   3.652   2.399
  717SOL    HW2 2153   0.275   3.575   2.255
  718SOL     OW 2154   1.127   3.203   3.552
  718SOL    HW1 2155   1.174   3.203   3.640
  718SOL    HW2 2156   1.079   3.116   3.541
  719SOL     OW 2157   0.230   3.296   2.400
  719SOL    HW1 2158   0.204   3.392   2.400
  719SOL    HW2 2159   0.159   3.242   2.445
  720SOL     OW 2160   0.240   2.953   2.748
  720SOL    HW1 2161   0.254   2.869   2.800
  720SOL    HW2 2162   0.185   3.017   2.803
  721SOL     OW 2163   0.620   3.648   3.301
  721SOL    HW1 2164   0.528   3.631   3.336
  721SOL    HW2 2165   0.648   3.740   3.327
  722SOL     OW 2166   0.606   2.826   1.985
  722SOL    HW1 2167   0.613   2.910   1.931
  722SOL    HW2 2168   0.652   2.839   2.073
  723SOL     OW 2169   1.594   1.976   3.342
  723SOL    HW1 2170   1.576   2.043   3.270
  723SOL    HW2 2171   1.591   2.022   3.431
  724SOL     OW 2172   0.122   2.505   2.425
  724SOL    HW1 2173   0.077   2.417   2.442
  724SOL    HW2 2174   0.121   2.559   2.509
  725SOL     OW 2175   1.842   3.629   2.221
  725SOL    HW1 2176   1.896   3.600   2.301
  725SOL    HW2 2177   1.872   3.719   2.192
  726SOL     OW 2178   0.027   3.458   1.979
  726SOL    HW1 2179   0.008   3.362   2.000
  726SOL    HW2 2180  -0.006   3.516   2.054
  727SOL     OW 2181   1.689   2.784   2.474
  727SOL    HW1 2182   1.784   2.755   2.482
  727SOL    HW2 2183   1.681   2.849   2.399
  728SOL     OW 2184   1.641   2.970   2.294
  728SOL    HW1 2185   1.727   2.972   2.242
  728SOL    HW2 2186   1.655   3.017   2.382
  729SOL     OW 2187   0.113   2.599   3.459
  729SOL    HW1 2188   0.201   2.586   3.504
  729SOL    HW2 2189   0.100   2.696   3.437
  730SOL     OW 2190   0.613   3.227   2.588
  730SOL    HW1 2191   0.564   3.140   2.597
  730SOL    HW2 2192   0.590   3.270   2.501
  731SOL     OW 2193   1.293   3.090   3.285
  731SOL    HW1 2194   1.330   3.017   3.227
  731SOL    HW2 2195   1.345   3.095   3.370
  732SOL     OW 2196   0.809   1.866   2.364
  732SOL    HW1 2197   0.849   1.957   2.355
  732SOL    HW2 2198   0.709   1.874   2.370
  733SOL     OW 2199   0.197   2.838   3.126
  733SOL    HW1 2200   0.286   2.793   3.112
  733SOL    HW2 2201   0.124   2.773   3.107
  734SOL     OW 2202   1.525   2.861   2.052
  734SOL    HW1 2203   1.462   2.785   2.065
  734SOL    HW2 2204   1.573   2.879   2.138
  735SOL     OW 2205   1.187   3.654   3.478
  735SOL    HW1 2206   1.211   3.714   3.402
  735SOL    HW2 2207   1.194   3.559   3.448
  736SOL     OW 2208   0.317   2.113   3.663
  736SOL    HW1 2209   0.388   2.184   3.669
  736SOL    HW2 2210   0.229   2.152   3.691
  737SOL     OW 2211   1.466   3.279   2.815
  737SOL    HW1 2212   1.407   3.285   2.895
  737SOL    HW2 2213   1.451   3.191   2.769
  738SOL     OW 2214   1.667   3.576   2.434
  738SOL    HW1 2215   1.626   3.553   2.346
  738SOL    HW2 2216   1.649   3.502   2.499
  739SOL     OW 2217   0.598   2.591   2.132
  739SOL    HW1 2218   0.622   2.660   2.064
  739SOL    HW2 2219   0.520   2.624   2.186
  740SOL     OW 2220   1.281   2.207   2.806
  740SOL    HW1 2221   1.195   2.157   2.793
  740SOL    HW2 2222   1.343   2.153   2.862
  741SOL     OW 2223   1.576   3.524   2.169
  741SOL    HW1 2224   1.665   3.570   2.172
  741SOL    HW2 2225   1.555   3.500   2.074
  742SOL     OW 2226   0.807   2.467   3.327
  742SOL    HW1 2227   0.760   2.464   3.416
  742SOL    HW2 2228   0.756   2.412   3.261
  743SOL     OW 2229   1.394   2.331   3.536
  743SOL    HW1 2230   1.374   2.374   3.624
  743SOL    HW2 2231   1.472   2.269   3.545
  744SOL     OW 2232   0.973   2.752   3.434
  744SOL    HW1 2233   1.019   2.668   3.405
  744SOL    HW2 2234   0.917   2.786   3.359
  745SOL     OW 2235   0.991   2.272   3.104
  745SOL    HW1 2236   0.914   2.306   3.158
  745SOL    HW2 2237   0.957   2.221   3.025
  746SOL     OW 2238   1.041   2.563   2.291
  746SOL    HW1 2239   1.067   2.559   2.387
  746SOL    HW2 2240   0.956   2.512   2.277
  747SOL     OW 2241   0.076   2.673   2.651
  747SOL    HW1 2242   0.175   2.661   2.660
  747SOL    HW2 2243   0.052   2.768   2.672
  748SOL     OW 2244   0.130   3.683   3.433
  748SOL    HW1 2245   0.120   3.668   3.532
  748SOL    HW2 2246   0.044   3.719   3.397
  749SOL     OW 2247   0.865   2.210   2.057
  749SOL    HW1 2248   0.924   2.273   2.008
  749SOL    HW2 2249   0.884   2.116   2.028
  750SOL     OW 2250   1.719   2.447   3.693
  750SOL    HW1 2251   1.693   2.536   3.657
  750SOL    HW2 2252   1.717   2.379   3.620
  751SOL     OW 2253   1.362   3.006   2.407
  751SOL    HW1 2254   1.445   2.977   2.359
  751SOL    HW2 2255   1.313   3.073   2.351
  752SOL     OW 2256   0.550   2.058   2.747
  752SOL    HW1 2257   0.545   2.053   2.847
  752SOL    HW2 2258   0.552   2.154   2.718
  753SOL     OW 2259   1.008   3.318   2.339
  753SOL    HW1 2260   0.962   3.390   2.287
  753SOL    HW2 2261   1.004   3.338   2.437
  754SOL     OW 2262   0.351   3.663   2.715
  754SOL    HW1 2263   0.401   3.577   2.721
  754SOL    HW2 2264   0.416   3.740   2.712
  755SOL     OW 2265   1.795   2.928   2.735
  755SOL    HW1 2266   1.733   2.913   2.659
  755SOL    HW2 2267   1.743   2.939   2.820
  756SOL     OW 2268   1.227   3.412   3.368
  756SOL    HW1 2269   1.233   3.335   3.432
  756SOL    HW2 2270   1.175   3.386   3.288
  757SOL     OW 2271   0.321   2.805   2.104
  757SOL    HW1 2272   0.403   2.844   2.062
  757SOL    HW2 2273   0.294   2.723   2.055
  758SOL     OW 2274   1.458   2.597   2.590
  758SOL    HW1 2275   1.453   2.532   2.665
  758SOL    HW2 2276   1.538   2.656   2.603
  759SOL     OW 2277   0.461   3.128   3.589
  759SOL    HW1 2278   0.411   3.129   3.503
  759SOL    HW2 2279   0.398   3.110   3.665
  760SOL     OW 2280   1.111   3.638   2.099
  760SOL    HW1 2281   1.051   3.576   2.149
  760SOL    HW2 2282   1.142   3.594   2.014
  761SOL     OW 2283   0.202   2.147   3.360
  761SOL    HW1 2284   0.122   2.207   3.347
  761SOL    HW2 2285   0.192   2.098   3.446
  762SOL     OW 2286   1.632   3.239   1.943
  762SOL    HW1 2287   1.600   3.333   1.933
  762SOL    HW2 2288   1.556   3.176   1.931
  763SOL     OW 2289   0.464   3.605   2.185
  763SOL    HW1 2290   0.497   3.644   2.271
  763SOL    HW2 2291   0.540   3.598   2.120
  764SOL     OW 2292   1.400   1.969   2.288
  764SOL    HW1 2293   1.376   1.932   2.198
  764SOL    HW2 2294   1.499   1.985   2.292
  765SOL     OW 2295   0.249   3.647   3.103
  765SOL    HW1 2296   0.306   3.582   3.153
  765SOL    HW2 2297   0.233   3.614   3.010
  766SOL     OW 2298   0.940   3.560   2.766
  766SOL    HW1 2299   1.020   3.503   2.787
  766SOL    HW2 2300   0.891   3.520   2.689
  767SOL     OW 2301   0.382   2.562   2.342
  767SOL    HW1 2302   0.427   2.472   2.339
  767SOL    HW2 2303   0.288   2.551   2.375
  768SOL     OW 2304   1.547   2.084   3.591
  768SOL    HW1 2305   1.542   2.121   3.683
  768SOL    HW2 2306   1.475   2.015   3.579
  769SOL     OW 2307   0.614   1.984   1.979
  769SOL    HW1 2308   0.712   1.962   1.986
  769SOL    HW2 2309   0.583   1.967   1.886
  770SOL     OW 2310   0.781   2.126   3.611
  770SOL    HW1 2311   0.848   2.065   3.654
  770SOL    HW2 2312   0.708   2.145   3.676
  771SOL     OW 2313   0.888   3.376   3.057
  771SOL    HW1 2314   0.865   3.351   2.963
  771SOL    HW2 2315   0.949   3.307   3.096
  772SOL     OW 2316   1.351   2.452   3.295
  772SOL    HW1 2317   1.379   2.409   3.380
  772SOL    HW2 2318   1.376   2.548   3.296
  773SOL     OW 2319   0.803   3.264   2.786
  773SOL    HW1 2320   0.893   3.278   2.744
  773SOL    HW2 2321   0.732   3.266   2.715
  774SOL     OW 2322   0.922   2.365   2.761
  774SOL    HW1 2323   0.897   2.356   2.665
  774SOL    HW2 2324   0.970   2.283   2.792
  775SOL     OW 2325   0.539   1.926   2.374
  775SOL    HW1 2326   0.458   1.927   2.432
  775SOL    HW2 2327   0.542   2.009   2.319
  776SOL     OW 2328   1.434   3.050   1.903
  776SOL    HW1 2329   1.466   2.974   1.960
  776SOL    HW2 2330   1.342   3.077   1.933
  777SOL     OW 2331   0.297   1.897   2.033
  777SOL    HW1 2332   0.346   1.981   2.012
  777SOL    HW2 2333   0.359   1.832   2.078
  778SOL     OW 2334   0.935   2.098   2.342
  778SOL    HW1 2335   0.887   2.139   2.264
  778SOL    HW2 2336   1.034   2.096   2.323
  779SOL     OW 2337   1.076   2.545   3.326
  779SOL    HW1 2338   0.996   2.484   3.329
  779SOL    HW2 2339   1.157   2.492   3.302
  780SOL     OW 2340   1.227   3.432   2.655
  780SOL    HW1 2341   1.248   3.506   2.590
  780SOL    HW2 2342   1.295   3.432   2.728
  781SOL     OW 2343   0.459   3.014   2.603
  781SOL    HW1 2344   0.388   2.987   2.668
  781SOL    HW2 2345   0.433   2.986   2.510
  782SOL     OW 2346   1.271   3.659   2.453
  782SOL    HW1 2347   1.315   3.723   2.389
  782SOL    HW2 2348   1.221   3.711   2.523
  783SOL     OW 2349   1.032   2.411   1.878
  783SOL    HW1 2350   0.991   2.493   1.839
  783SOL    HW2 2351   1.096   2.437   1.951
  784SOL     OW 2352   0.078   2.418   3.248
  784SOL    HW1 2353   0.170   2.417   3.207
  784SOL    HW2 2354   0.072   2.492   3.315
  785SOL     OW 2355   0.561   2.084   3.009
  785SOL    HW1 2356   0.599   2.000   3.046
  785SOL    HW2 2357   0.473   2.103   3.053
  786SOL     OW 2358   0.866   2.316   2.504
  786SOL    HW1 2359   0.834   2.388   2.442
  786SOL    HW2 2360   0.890   2.235   2.451
  787SOL     OW 2361   1.017   1.901   2.615
  787SOL    HW1 2362   0.945   1.906   2.546
  787SOL    HW2 2363   0.993   1.832   2.684
  788SOL     OW 2364   1.429   3.035   2.729
  788SOL    HW1 2365   1.374   2.951   2.722
  788SOL    HW2 2366   1.455   3.064   2.637
  789SOL     OW 2367   1.466   2.452   2.854
  789SOL    HW1 2368   1.436   2.357   2.861
  789SOL    HW2 2369   1.539   2.468   2.920
  790SOL     OW 2370   1.857   2.695   2.239
  790SOL    HW1 2371   1.899   2.631   2.303
  790SOL    HW2 2372   1.819   2.644   2.161
  791SOL     OW 2373   0.488   3.247   2.036
  791SOL    HW1 2374   0.401   3.232   2.083
  791SOL    HW2 2375   0.471   3.273   1.941
  792SOL     OW 2376   1.664   3.142   2.519
  792SOL    HW1 2377   1.763   3.150   2.533
  792SOL    HW2 2378   1.619   3.226   2.550
  793SOL     OW 2379   1.390   2.437   1.940
  793SOL    HW1 2380   1.336   2.416   2.021
  793SOL    HW2 2381   1.481   2.396   1.949
  794SOL     OW 2382   0.527   2.118   2.190
  794SOL    HW1 2383   0.554   2.059   2.115
  794SOL    HW2 2384   0.527   2.213   2.159
  795SOL     OW 2385   1.754   3.085   3.450
  795SOL    HW1 2386   1.845   3.046   3.437
  795SOL    HW2 2387   1.762   3.181   3.474
  796SOL     OW 2388   1.064   3.209   3.202
  796SOL    HW1 2389   0.984   3.186   3.257
  796SOL    HW2 2390   1.147   3.183   3.251
  797SOL     OW 2391   1.592   3.491   3.487
  797SOL    HW1 2392   1.619   3.525   3.397
  797SOL    HW2 2393   1.671   3.453   3.533
  798SOL     OW 2394   1.111   3.057   2.962
  798SOL    HW1 2395   1.071   3.101   3.043
  798SOL    HW2 2396   1.070   3.094   2.879
  799SOL     OW 2397   1.638   2.961   2.941
  799SOL    HW1 2398   1.643   3.042   3.000
  799SOL    HW2 2399   1.552   2.963   2.890
  800SOL     OW 2400   0.915   1.951   3.264
  800SOL    HW1 2401   0.940   1.931   3.169
  800SOL    HW2 2402   0.987   2.007   3.306
  801SOL     OW 2403   0.980   2.978   3.581
  801SOL    HW1 2404   0.881   2.984   3.591
  801SOL    HW2 2405   1.003   2.898   3.525
  802SOL     OW 2406   0.705   2.912   2.230
  802SOL    HW1 2407   0.691   2.919   2.329
  802SOL    HW2 2408   0.789   2.861   2.212
  803SOL     OW 2409   0.410   2.675   3.113
  803SOL    HW1 2410   0.496   2.687   3.163
  803SOL    HW2 2411   0.368   2.588   3.140
  804SOL     OW 2412   1.274   2.248   3.124
  804SOL    HW1 2413   1.295   2.322   3.188
  804SOL    HW2 2414   1.185   2.265   3.081
  805SOL     OW 2415   0.064   3.426   3.193
  805SOL    HW1 2416   0.018   3.508   3.159
  805SOL    HW2 2417   0.162   3.445   3.202
  806SOL     OW 2418   0.367   2.962   2.363
  806SOL    HW1 2419   0.360   3.045   2.307
  806SOL    HW2 2420   0.371   2.882   2.303
  807SOL     OW 2421   0.566   2.399   2.727
  807SOL    HW1 2422   0.578   2.465   2.653
  807SOL    HW2 2423   0.612   2.433   2.810
  808SOL     OW 2424   1.252   3.210   2.250
  808SOL    HW1 2425   1.302   3.287   2.290
  808SOL    HW2 2426   1.157   3.212   2.282
  809SOL     OW 2427   1.272   3.307   3.004
  809SOL    HW1 2428   1.319   3.320   3.091
  809SOL    HW2 2429   1.206   3.233   3.013
  810SOL     OW 2430   1.582   2.501   2.334
  810SOL    HW1 2431   1.551   2.562   2.407
  810SOL    HW2 2432   1.632   2.553   2.265
  811SOL     OW 2433   0.354   3.372   3.191
  811SOL    HW1 2434   0.333   3.328   3.104
  811SOL    HW2 2435   0.451   3.398   3.194
  812SOL     OW 2436   0.402   2.613   3.460
  812SOL    HW1 2437   0.470   2.668   3.413
  812SOL    HW2 2438   0.442   2.525   3.487
  813SOL     OW 2439   1.587   2.641   3.532
  813SOL    HW1 2440   1.495   2.679   3.527
  813SOL    HW2 2441   1.647   2.688   3.467
  814SOL     OW 2442   1.013   1.967   3.632
  814SOL    HW1 2443   1.019   2.052   3.580
  814SOL    HW2 2444   1.045   1.891   3.575
  815SOL     OW 2445   0.504   1.912   3.602
  815SOL    HW1 2446   0.462   1.855   3.532
  815SOL    HW2 2447   0.438   1.981   3.634
  816SOL     OW 2448   0.573   2.732   2.891
  816SOL    HW1 2449   0.617   2.821   2.882
  816SOL    HW2 2450   0.510   2.732   2.968
  817SOL     OW 2451   1.360   2.724   2.907
  817SOL    HW1 2452   1.285   2.724   2.841
  817SOL    HW2 2453   1.397   2.632   2.916
  818SOL     OW 2454   1.209   2.387   2.137
  818SOL    HW1 2455   1.222   2.303   2.191
  818SOL    HW2 2456   1.180   2.461   2.197
  819SOL     OW 2457   0.307   2.075   3.093
  819SOL    HW1 2458   0.284   2.112   3.183
  819SOL    HW2 2459   0.277   1.980   3.087
  820SOL     OW 2460   0.037   3.172   3.144
  820SOL    HW1 2461   0.090   3.123   3.212
  820SOL    HW2 2462   0.059   3.270   3.149
  821SOL     OW 2463   0.732   2.496   2.926
  821SOL    HW1 2464   0.791   2.470   2.850
  821SOL    HW2 2465   0.704   2.592   2.915
  822SOL     OW 2466   1.728   2.797   3.716
  822SOL    HW1 2467   1.682   2.790   3.627
  822SOL    HW2 2468   1.666   2.841   3.782
  823SOL     OW 2469   0.307   1.925   2.480
  823SOL    HW1 2470   0.296   2.019   2.513
  823SOL    HW2 2471   0.302   1.862   2.557
  824SOL     OW 2472   1.622   2.229   2.236
  824SOL    HW1 2473   1.624   2.153   2.300
  824SOL    HW2 2474   1.574   2.306   2.276
  825SOL     OW 2475   1.023   2.628   2.828
  825SOL    HW1 2476   1.038   2.649   2.924
  825SOL    HW2 2477   0.993   2.533   2.819
  826SOL     OW 2478   0.980   3.435   3.562
  826SOL    HW1 2479   0.960   3.479   3.474
  826SOL    HW2 2480   1.019   3.344   3.546
  827SOL     OW 2481   1.859   3.380   3.467
  827SOL    HW1 2482   1.873   3.407   3.372
  827SOL    HW2 2483   1.942   3.402   3.520
  828SOL     OW 2484   0.350   2.760   3.666
  828SOL    HW1 2485   0.426   2.804   3.714
  828SOL    HW2 2486   0.385   2.713   3.584
  829SOL     OW 2487   1.540   2.136   1.987
  829SOL    HW1 2488   1.479   2.061   2.010
  829SOL    HW2 2489   1.562   2.188   2.070
  830SOL     OW 2490   1.303   2.700   1.904
  830SOL    HW1 2491   1.337   2.607   1.919
  830SOL    HW2 2492   1.321   2.727   1.809
  831SOL     OW 2493   1.068   3.195   2.711
  831SOL    HW1 2494   1.075   3.111   2.656
  831SOL    HW2 2495   1.130   3.264   2.675
  832SOL     OW 2496   0.319   2.672   2.811
  832SOL    HW1 2497   0.412   2.708   2.816
  832SOL    HW2 2498   0.313   2.587   2.863
  833SOL     OW 2499   0.339   2.371   2.868
  833SOL    HW1 2500   0.287   2.288   2.851
  833SOL    HW2 2501   0.416   2.376   2.804
  834SOL     OW 2502   1.138   2.242   3.540
  834SOL    HW1 2503   1.093   2.305   3.604
  834SOL    HW2 2504   1.231   2.273   3.523
  835SOL     OW 2505   1.160   2.069   3.339
  835SOL    HW1 2506   1.160   2.133   3.416
  835SOL    HW2 2507   1.188   2.117   3.256
  836SOL     OW 2508   0.008   3.188   2.062
  836SOL    HW1 2509  -0.085   3.209   2.031
  836SOL    HW2 2510   0.018   3.089   2.075
  837SOL     OW 2511   0.088   3.663   2.789
  837SOL    HW1 2512   0.046   3.577   2.762
  837SOL    HW2 2513   0.182   3.666   2.755
  838SOL     OW 2514   0.504   3.430   2.772
  838SOL    HW1 2515   0.570   3.504   2.781
  838SOL    HW2 2516   0.548   3.351   2.730
  839SOL     OW 2517   1.002   2.658   3.100
  839SOL    HW1 2518   1.043   2.626   3.186
  839SOL    HW2 2519   0.906   2.631   3.097
  840SOL     OW 2520   0.040   2.406   2.976
  840SOL    HW1 2521   0.125   2.373   2.935
  840SOL    HW2 2522   0.053   2.421   3.074
  841SOL     OW 2523   0.189   2.382   3.584
  841SOL    HW1 2524   0.248   2.342   3.514
  841SOL    HW2 2525   0.131   2.453   3.543
  842SOL     OW 2526   1.369   2.812   3.522
  842SOL    HW1 2527   1.408   2.901   3.542
  842SOL    HW2 2528   1.379   2.792   3.425
  843SOL     OW 2529   0.815   2.434   2.187
  843SOL    HW1 2530   0.822   2.345   2.141
  843SOL    HW2 2531   0.721   2.468   2.179
  844SOL     OW 2532   1.657   2.466   3.068
  844SOL    HW1 2533   1.619   2.397   3.130
  844SOL    HW2 2534   1.739   2.430   3.024
  845SOL     OW 2535   0.252   3.426   3.606
  845SOL    HW1 2536   0.222   3.483   3.682
  845SOL    HW2 2537   0.245   3.329   3.632
  846SOL     OW 2538   0.671   2.326   3.131
  846SOL    HW1 2539   0.637   2.237   3.101
  846SOL    HW2 2540   0.697   2.380   3.051
  847SOL     OW 2541   0.930   3.540   3.327
  847SOL    HW1 2542   0.906   3.522   3.232
  847SOL    HW2 2543   0.960   3.634   3.337
  848SOL     OW 2544   0.473   2.362   2.053
  848SOL    HW1 2545   0.534   2.442   2.057
  848SOL    HW2 2546   0.378   2.393   2.060
  849SOL     OW 2547   0.159   2.999   3.328
  849SOL    HW1 2548   0.181   2.938   3.404
  849SOL    HW2 2549   0.169   2.950   3.242
  850SOL     OW 2550   1.347   2.921   3.096
  850SOL    HW1 2551   1.371   2.858   3.022
  850SOL    HW2 2552   1.257   2.961   3.078
  851SOL     OW 2553   1.302   2.717   2.171
  851SOL    HW1 2554   1.216   2.686   2.213
  851SOL    HW2 2555   1.298   2.703   2.072
  852SOL     OW 2556   1.759   3.609   3.016
  852SOL    HW1 2557   1.820   3.639   2.943
  852SOL    HW2 2558   1.721   3.520   2.994
  853SOL     OW 2559   1.252   3.593   2.990
  853SOL    HW1 2560   1.336   3.598   2.936
  853SOL    HW2 2561   1.229   3.497   3.008
  854SOL     OW 2562   0.083   3.120   2.884
  854SOL    HW1 2563   0.078   3.119   2.984
  854SOL    HW2 2564   0.000   3.079   2.846
  855SOL     OW 2565   0.688   3.524   3.578
  855SOL    HW1 2566   0.632   3.605   3.587
  855SOL    HW2 2567   0.740   3.528   3.492
  856SOL     OW 2568   1.726   1.997   2.385
  856SOL    HW1 2569   1.799   1.980   2.318
  856SOL    HW2 2570   1.695   1.910   2.423
  857SOL     OW 2571   1.388   3.435   2.339
  857SOL    HW1 2572   1.455   3.447   2.265
  857SOL    HW2 2573   1.348   3.524   2.362
  858SOL     OW 2574   0.130   3.656   3.713
  858SOL    HW1 2575   0.089   3.582   3.766
  858SOL    HW2 2576   0.194   3.707   3.771
  859SOL     OW 2577   1.280   2.789   2.534
  859SOL    HW1 2578   1.340   2.708   2.536
  859SOL    HW2 2579   1.320   2.858   2.474
  860SOL     OW 2580   0.830   3.135   3.284
  860SOL    HW1 2581   0.825   3.168   3.379
  860SOL    HW2 2582   0.744   3.154   3.238
  861SOL     OW 2583   0.672   3.478   2.016
  861SOL    HW1 2584   0.681   3.488   1.917
  861SOL    HW2 2585   0.632   3.389   2.037
  862SOL     OW 2586   1.650   3.582   3.256
  862SOL    HW1 2587   1.703   3.592   3.172
  862SOL    HW2 2588   1.623   3.672   3.290
  863SOL     OW 2589   1.841   2.037   2.825
  863SOL    HW1 2590   1.880   1.952   2.789
  863SOL    HW2 2591   1.743   2.039   2.806
  864SOL     OW 2592   0.263   2.188   2.582
  864SOL    HW1 2593   0.184   2.239   2.548
  864SOL    HW2 2594   0.254   2.173   2.680
  865SOL     OW 2595   1.194   3.474   1.893
  865SOL    HW1 2596   1.200   3.381   1.930
  865SOL    HW2 2597   1.135   3.474   1.813
  866SOL     OW 2598   0.822   2.864   3.234
  866SOL    HW1 2599   0.862   2.863   3.142
  866SOL    HW2 2600   0.832   2.956   3.274
  867SOL     OW 2601   0.916   2.772   2.153
  867SOL    HW1 2602   0.979   2.810   2.085
  867SOL    HW2 2603   0.956   2.689   2.192
  868SOL     OW 2604   1.504   3.469   1.906
  868SOL    HW1 2605   1.412   3.506   1.913
  868SOL    HW2 2606   1.542   3.489   1.816
  869SOL     OW 2607   0.372   3.150   3.352
  869SOL    HW1 2608   0.359   3.243   3.318
  869SOL    HW2 2609   0.288   3.098   3.339
  870SOL     OW 2610   1.614   3.154   3.151
  870SOL    HW1 2611   1.674   3.157   3.231
  870SOL    HW2 2612   1.539   3.218   3.164
  871SOL     OW 2613   1.039   2.960   2.558
  871SOL    HW1 2614   0.969   2.913   2.612
  871SOL    HW2 2615   1.098   2.892   2.515
  872SOL     OW 2616   1.014   2.098   2.833
  872SOL    HW1 2617   1.006   2.062   2.740
  872SOL    HW2 2618   1.012   2.022   2.898
  873SOL     OW 2619   0.590   3.349   2.353
  873SOL    HW1 2620   0.632   3.291   2.283
  873SOL    HW2 2621   0.546   3.428   2.309
  874SOL     OW 2622   1.709   2.247   3.243
  874SOL    HW1 2623   1.782   2.316   3.247
  874SOL    HW2 2624   1.737   2.172   3.184
  875SOL     OW 2625   0.255   3.210   2.152
  875SOL    HW1 2626   0.159   3.211   2.125
  875SOL    HW2 2627   0.267   3.263   2.236
  876SOL     OW 2628   0.105   2.875   3.588
  876SOL    HW1 2629   0.028   2.842   3.642
  876SOL    HW2 2630   0.190   2.845   3.630
  877SOL     OW 2631   0.672   2.065   3.351
  877SOL    HW1 2632   0.762   2.049   3.311
  877SOL    HW2 2633   0.680   2.070   3.450
  878SOL     OW 2634   0.075   2.207   1.895
  878SOL    HW1 2635  -0.017   2.179   1.866
  878SOL    HW2 2636   0.106   2.284   1.839
  879SOL     OW 2637   1.440   2.718   3.260
  879SOL    HW1 2638   1.383   2.770   3.197
  879SOL    HW2 2639   1.536   2.730   3.236
  880SOL     OW 2640   0.072   2.028   2.180
  880SOL    HW1 2641   0.055   2.111   2.126
  880SOL    HW2 2642   0.162   1.991   2.158
  881SOL     OW 2643   1.183   3.197   1.981
  881SOL    HW1 2644   1.084   3.186   1.983
  881SOL    HW2 2645   1.217   3.212   2.074
  882SOL     OW 2646   0.613   2.704   3.293
  882SOL    HW1 2647   0.669   2.785   3.276
  882SOL    HW2 2648   0.672   2.624   3.296
  883SOL     OW 2649   1.493   3.629   2.821
  883SOL    HW1 2650   1.526   3.693   2.752
  883SOL    HW2 2651   1.559   3.623   2.896
  884SOL     OW 2652   0.716   2.427   3.570
  884SOL    HW1 2653   0.735   2.492   3.644
  884SOL    HW2 2654   0.776   2.347   3.579
  885SOL     OW 2655   1.450   3.082   3.495
  885SOL    HW1 2656   1.441   3.072   3.594
  885SOL    HW2 2657   1.546   3.075   3.469
  886SOL     OW 2658   0.390   3.603   3.422
  886SOL    HW1 2659   0.299   3.644   3.420
  886SOL    HW2 2660   0.383   3.509   3.454
  887SOL     OW 2661   1.674   2.745   3.116
  887SOL    HW1 2662   1.647   2.656   3.079
  887SOL    HW2 2663   1.675   2.813   3.043
  888SOL     OW 2664   1.225   2.187   2.311
  888SOL    HW1 2665   1.290   2.113   2.300
  888SOL    HW2 2666   1.245   2.237   2.395
  889SOL     OW 2667   0.594   2.607   2.514
  889SOL    HW1 2668   0.644   2.692   2.495
  889SOL    HW2 2669   0.506   2.609   2.466
  890SOL     OW 2670   1.777   2.204   3.504
  890SOL    HW1 2671   1.760   2.235   3.410
  890SOL    HW2 2672   1.693   2.167   3.542
  891SOL     OW 2673   1.730   2.796   3.379
  891SOL    HW1 2674   1.768   2.887   3.394
  891SOL    HW2 2675   1.722   2.779   3.280
  892SOL     OW 2676   0.859   3.236   1.878
  892SOL    HW1 2677   0.813   3.251   1.966
  892SOL    HW2 2678   0.903   3.321   1.848
  893SOL     OW 2679   0.661   3.652   2.815
  893SOL    HW1 2680   0.615   3.740   2.802
  893SOL    HW2 2681   0.760   3.664   2.808
  894SOL     OW 2682   0.859   2.818   2.723
  894SOL    HW1 2683   0.913   2.749   2.771
  894SOL    HW2 2684   0.827   2.887   2.789
  895SOL     OW 2685   1.083   2.846   1.949
  895SOL    HW1 2686   1.060   2.899   1.867
  895SOL    HW2 2687   1.164   2.790   1.930
  896SOL     OW 2688   1.861   3.431   2.713
  896SOL    HW1 2689   1.790   3.419   2.643
  896SOL    HW2 2690   1.862   3.352   2.773
  897SOL     OW 2691   0.221   3.176   3.706
  897SOL    HW1 2692   0.156   3.103   3.685
  897SOL    HW2 2693   0.225   3.190   3.804
  898SOL     OW 2694   0.079   3.102   2.515
  898SOL    HW1 2695   0.078   3.055   2.603
  898SOL    HW2 2696   0.161   3.074   2.464
  899SOL     OW 2697   0.672   3.253   3.486
  899SOL    HW1 2698   0.594   3.203   3.524
  899SOL    HW2 2699   0.669   3.348   3.517
  900SOL     OW 2700   1.824   2.054   3.089
  900SOL    HW1 2701   1.820   1.964   3.133
  900SOL    HW2 2702   1.827   2.043   2.990
  901SOL     OW 2703   0.428   2.286   2.382
  901SOL    HW1 2704   0.458   2.214   2.320
  901SOL    HW2 2705   0.389   2.246   2.465
  902SOL     OW 2706   1.705   3.349   2.966
  902SOL    HW1 2707   1.612   3.324   2.939
  902SOL    HW2 2708   1.731   3.299   3.048
  903SOL     OW 2709   0.317   2.409   3.142
  903SOL    HW1 2710   0.355   2.350   3.214
  903SOL    HW2 2711   0.357   2.383   3.054
  904SOL     OW 2712   0.812   3.448   2.549
  904SOL    HW1 2713   0.844   3.458   2.455
  904SOL    HW2 2714   0.733   3.386   2.551
  905SOL     OW 2715   1.424   2.076   2.974
  905SOL    HW1 2716   1.476   2.011   3.029
  905SOL    HW2 2717   1.375   2.139   3.035
  906SOL     OW 2718   1.001   1.896   3.016
  906SOL    HW1 2719   0.938   1.824   2.985
  906SOL    HW2 2720   1.094   1.860   3.016
  907SOL     OW 2721   0.770   3.192   2.163
  907SOL    HW1 2722   0.724   3.105   2.180
  907SOL    HW2 2723   0.861   3.189   2.204
  908SOL     OW 2724   0.618   3.429   3.146
  908SOL    HW1 2725   0.613   3.511   3.203
  908SOL    HW2 2726   0.707   3.426   3.101
  909SOL     OW 2727   1.352   1.914   2.030
  909SOL    HW1 2728   1.387   1.873   1.946
  909SOL    HW2 2729   1.262   1.876   2.050
  910SOL     OW 2730   1.300   2.315   2.553
  910SOL    HW1 2731   1.241   2.395   2.557
  910SOL    HW2 2732   1.315   2.280   2.646
  911SOL     OW 2733   1.593   2.083   2.744
  911SOL    HW1 2734   1.509   2.082   2.798
  911SOL    HW2 2735   1.595   2.166   2.688
  912SOL     OW 2736   0.039   2.939   2.162
  912SOL    HW1 2737   0.138   2.928   2.153
  912SOL    HW2 2738  -0.001   2.853   2.194
  913SOL     OW 2739   0.875   3.508   2.199
  913SOL    HW1 2740   0.798   3.473   2.145
  913SOL    HW2 2741   0.843   3.579   2.261
  914SOL     OW 2742   0.230   2.490   3.837
  914SOL    HW1 2743   0.137   2.488   3.874
  914SOL    HW2 2744   0.231   2.451   3.745
  915SOL     OW 2745   1.755   2.469   3.955
  915SOL    HW1 2746   1.743   2.456   3.856
  915SOL    HW2 2747   1.725   2.388   4.004
  916SOL     OW 2748   0.231   3.575   4.207
  916SOL    HW1 2749   0.265   3.652   4.261
  916SOL    HW2 2750   0.275   3.575   4.117
  917SOL     OW 2751   0.230   3.296   4.262
  917SOL    HW1 2752   0.204   3.392   4.262
  917SOL    HW2 2753   0.159   3.242   4.307
  918SOL     OW 2754   0.606   2.826   3.847
  918SOL    HW1 2755   0.613   2.910   3.793
  918SOL    HW2 2756   0.652   2.839   3.935
  919SOL     OW 2757   1.842   3.629   4.083
  919SOL    HW1 2758   1.896   3.600   4.163
  919SOL    HW2 2759   1.872   3.719   4.054
  920SOL     OW 2760   0.027   3.458   3.841
  920SOL    HW1 2761   0.008   3.362   3.862
  920SOL    HW2 2762  -0.006   3.516   3.916
  921SOL     OW 2763   1.689   2.784   4.336
  921SOL    HW1 2764   1.784   2.755   4.344
  921SOL    HW2 2765   1.681   2.849   4.261
  922SOL     OW 2766   1.641   2.970   4.156
  922SOL    HW1 2767   1.727   2.972   4.104
  922SOL    HW2 2768   1.655   3.017   4.244
  923SOL     OW 2769   0.809   1.866   4.226
  923SOL    HW1 2770   0.849   1.957   4.217
  923SOL    HW2 2771   0.709   1.874   4.232
  924SOL     OW 2772   1.525   2.861   3.914
  924SOL    HW1 2773   1.462   2.785   3.927
  924SOL    HW2 2774   1.573   2.879   4.000
  925SOL     OW 2775   0.598   2.591   3.994
  925SOL    HW1 2776   0.622   2.660   3.926
  925SOL    HW2 2777   0.520   2.624   4.048
  926SOL     OW 2778   1.576   3.524   4.031
  926SOL    HW1 2779   1.665   3.570   4.034
  926SOL    HW2 2780   1.555   3.500   3.936
  927SOL     OW 2781   0.865   2.210   3.919
  927SOL    HW1 2782   0.924   2.273   3.870
  927SOL    HW2 2783   0.884   2.116   3.890
  928SOL     OW 2784   0.321   2.805   3.966
  928SOL    HW1 2785   0.403   2.844   3.924
  928SOL    HW2 2786   0.294   2.723   3.917
  929SOL     OW 2787   1.458   2.597   4.452
  929SOL    HW1 2788   1.453   2.532   4.527
  929SOL    HW2 2789   1.538   2.656   4.465
  930SOL     OW 2790   1.111   3.638   3.961
  930SOL    HW1 2791   1.051   3.576   4.011
  930SOL    HW2 2792   1.142   3.594   3.876
  931SOL     OW 2793   1.632   3.239   3.805
  931SOL    HW1 2794   1.600   3.333   3.795
  931SOL    HW2 2795   1.556   3.176   3.793
  932SOL     OW 2796   0.464   3.605   4.047
  932SOL    HW1 2797   0.497   3.644   4.133
  932SOL    HW2 2798   0.540   3.598   3.982
  933SOL     OW 2799   1.400   1.969   4.150
  933SOL    HW1 2800   1.376   1.932   4.060
  933SOL    HW2 2801   1.499   1.985   4.154
  934SOL     OW 2802   0.382   2.562   4.204
  934SOL    HW1 2803   0.427   2.472   4.201
  934SOL    HW2 2804   0.288   2.551   4.237
  935SOL     OW 2805   0.614   1.984   3.841
  935SOL    HW1 2806   0.712   1.962   3.848
  935SOL    HW2 2807   0.583   1.967   3.748
  936SOL     OW 2808   1.434   3.050   3.765
  936SOL    HW1 2809   1.466   2.974   3.822
  936SOL    HW2 2810   1.342   3.077   3.795
  937SOL     OW 2811   0.297   1.897   3.895
  937SOL    HW1 2812   0.346   1.981   3.874
  937SOL    HW2 2813   0.359   1.832   3.940
  938SOL     OW 2814   0.935   2.098   4.204
  938SOL    HW1 2815   0.887   2.139   4.126
  938SOL    HW2 2816   1.034   2.096   4.185
  939SOL     OW 2817   0.459   3.014   4.465
  939SOL    HW1 2818   0.388   2.987   4.530
  939SOL    HW2 2819   0.433   2.986   4.372
  940SOL     OW 2820   1.271   3.659   4.315
  940SOL    HW1 2821   1.315   3.723   4.251
  940SOL    HW2 2822   1.221   3.711   4.385
  941SOL     OW 2823   1.032   2.411   3.740
  941SOL    HW1 2824   0.991   2.493   3.701
  941SOL    HW2 2825   1.096   2.437   3.813
  942SOL     OW 2826   1.429   3.035   4.591
  942SOL    HW1 2827   1.374   2.951   4.584
  942SOL    HW2 2828   1.455   3.064   4.499
  943SOL     OW 2829   1.857   2.695   4.101
  943SOL    HW1 2830   1.899   2.631   4.165
  943SOL    HW2 2831   1.819   2.644   4.023
  944SOL     OW 2832   0.488   3.247   3.898
  944SOL    HW1 2833   0.401   3.232   3.945
  944SOL    HW2 2834   0.471   3.273   3.803
  945SOL     OW 2835   1.390   2.437   3.802
  945SOL    HW1 2836   1.336   2.416   3.883
  945SOL    HW2 2837   1.481   2.396   3.811
  946SOL     OW 2838   0.527   2.118   4.052
  946SOL    HW1 2839   0.554   2.059   3.977
  946SOL    HW2 2840   0.527   2.213   4.021
  947SOL     OW 2841   0.705   2.912   4.092
  947SOL    HW1 2842   0.691   2.919   4.191
  947SOL    HW2 2843   0.789   2.861   4.074
  948SOL     OW 2844   0.367   2.962   4.225
  948SOL    HW1 2845   0.360   3.045   4.169
  948SOL    HW2 2846   0.371   2.882   4.165
  949SOL     OW 2847   1.252   3.210   4.112
  949SOL    HW1 2848   1.302   3.287   4.152
  949SOL    HW2 2849   1.157   3.212   4.144
  950SOL     OW 2850   1.582   2.501   4.196
  950SOL    HW1 2851   1.551   2.562   4.269
  950SOL    HW2 2852   1.632   2.553   4.127
  951SOL     OW 2853   1.209   2.387   3.999
  951SOL    HW1 2854   1.222   2.303   4.053
  951SOL    HW2 2855   1.180   2.461   4.059
  952SOL     OW 2856   1.622   2.229   4.098
  952SOL    HW1 2857   1.624   2.153   4.162
  952SOL    HW2 2858   1.574   2.306   4.138
  953SOL     OW 2859   1.540   2.136   3.849
  953SOL    HW1 2860   1.479   2.061   3.872
  953SOL    HW2 2861   1.562   2.188   3.932
  954SOL     OW 2862   1.303   2.700   3.766
  954SOL    HW1 2863   1.337   2.607   3.781
  954SOL    HW2 2864   1.321   2.727   3.671
  955SOL     OW 2865   0.008   3.188   3.924
  955SOL    HW1 2866  -0.085   3.209   3.893
  955SOL    HW2 2867   0.018   3.089   3.937
  956SOL     OW 2868   0.815   2.434   4.049
  956SOL    HW1 2869   0.822   2.345   4.003
  956SOL    HW2 2870   0.721   2.468   4.041
  957SOL     OW 2871   0.473   2.362   3.915
  957SOL    HW1 2872   0.534   2.442   3.919
  957SOL    HW2 2873   0.378   2.393   3.922
  958SOL     OW 2874   1.302   2.717   4.033
  958SOL    HW1 2875   1.216   2.686   4.075
  958SOL    HW2 2876   1.298   2.703   3.934
  959SOL     OW 2877   1.726   1.997   4.247
  959SOL    HW1 2878   1.799   1.980   4.180
  959SOL    HW2 2879   1.695   1.910   4.285
  960SOL     OW 2880   0.672   3.478   3.878
  960SOL    HW1 2881   0.681   3.488   3.779
  960SOL    HW2 2882   0.632   3.389   3.899
  961SOL     OW 2883   1.194   3.474   3.755
  961SOL    HW1 2884   1.200   3.381   3.792
  961SOL    HW2 2885   1.135   3.474   3.675
  962SOL     OW 2886   0.916   2.772   4.015
  962SOL    HW1 2887   0.979   2.810   3.947
  962SOL    HW2 2888   0.956   2.689   4.054
  963SOL     OW 2889   1.504   3.469   3.768
  963SOL    HW1 2890   1.412   3.506   3.775
  963SOL    HW2 2891   1.542   3.489   3.678
  964SOL     OW 2892   0.590   3.349   4.215
  964SOL    HW1 2893   0.632   3.291   4.145
  964SOL    HW2 2894   0.546   3.428   4.171
  965SOL     OW 2895   0.255   3.210   4.014
  965SOL    HW1 2896   0.159   3.211   3.987
  965SOL    HW2 2897   0.267   3.263   4.098
  966SOL     OW 2898   0.075   2.207   3.757
  966SOL    HW1 2899  -0.017   2.179   3.728
  966SOL    HW2 2900   0.106   2.284   3.701
  967SOL     OW 2901   0.072   2.028   4.042
  967SOL    HW1 2902   0.055   2.111   3.988
  967SOL    HW2 2903   0.162   1.991   4.020
  968SOL     OW 2904   1.183   3.197   3.843
  968SOL    HW1 2905   1.084   3.186   3.845
  968SOL    HW2 2906   1.217   3.212   3.936
  969SOL     OW 2907   1.225   2.187   4.173
  969SOL    HW1 2908   1.290   2.113   4.162
  969SOL    HW2 2909   1.245   2.237   4.257
  970SOL     OW 2910   0.859   3.236   3.740
  970SOL    HW1 2911   0.813   3.251   3.828
  970SOL    HW2 2912   0.903   3.321   3.710
  971SOL     OW 2913   1.083   2.846   3.811
  971SOL    HW1 2914   1.060   2.899   3.729
  971SOL    HW2 2915   1.164   2.790   3.792
  972SOL     OW 2916   0.428   2.286   4.244
  972SOL    HW1 2917   0.458   2.214   4.182
  972SOL    HW2 2918   0.389   2.246   4.327
  973SOL     OW 2919   0.770   3.192   4.025
  973SOL    HW1 2920   0.724   3.105   4.042
  973SOL    HW2 2921   0.861   3.189   4.066
  974SOL     OW 2922   1.352   1.914   3.892
  974SOL    HW1 2923   1.387   1.873   3.808
  974SOL    HW2 2924   1.262   1.876   3.912
  975SOL     OW 2925   0.039   2.939   4.024
  975SOL    HW1 2926   0.138   2.928   4.015
  975SOL    HW2 2927  -0.001   2.853   4.056
  976SOL     OW 2928   0.875   3.508   4.061
  976SOL    HW1 2929   0.798   3.473   4.007
  976SOL    HW2 2930   0.843   3.579   4.123
  977SOL     OW 2931   0.225   3.999   0.996
  977SOL    HW1 2932   0.260   3.982   1.088
  977SOL    HW2 2933   0.137   3.954   0.984
  978SOL     OW 2934   0.019   4.092   0.647
  978SOL    HW1 2935  -0.063   4.135   0.686
  978SOL    HW2 2936  -0.009   4.019   0.584
  979SOL     OW 2937   1.755   4.331   0.231
  979SOL    HW1 2938   1.743   4.318   0.132
  979SOL    HW2 2939   1.725   4.250   0.280
  980SOL     OW 2940   0.438   4.116   1.499
  980SOL    HW1 2941   0.520   4.060   1.508
  980SOL    HW2 2942   0.357   4.058   1.503
  981SOL     OW 2943   1.603   4.171   0.737
  981SOL    HW1 2944   1.529   4.217   0.687
  981SOL    HW2 2945   1.654   4.239   0.790
  982SOL     OW 2946   1.594   3.838   1.480
  982SOL    HW1 2947   1.576   3.905   1.408
  982SOL    HW2 2948   1.591   3.884   1.569
  983SOL     OW 2949   0.122   4.367   0.563
  983SOL    HW1 2950   0.077   4.279   0.580
  983SOL    HW2 2951   0.121   4.421   0.647
  984SOL     OW 2952   0.809   3.728   0.502
  984SOL    HW1 2953   0.849   3.819   0.493
  984SOL    HW2 2954   0.709   3.736   0.508
  985SOL     OW 2955   0.317   3.975   1.801
  985SOL    HW1 2956   0.388   4.046   1.807
  985SOL    HW2 2957   0.229   4.014   1.829
  986SOL     OW 2958   1.281   4.069   0.944
  986SOL    HW1 2959   1.195   4.019   0.931
  986SOL    HW2 2960   1.343   4.015   1.000
  987SOL     OW 2961   1.394   4.193   1.674
  987SOL    HW1 2962   1.374   4.236   1.762
  987SOL    HW2 2963   1.472   4.131   1.683
  988SOL     OW 2964   0.973   4.614   1.572
  988SOL    HW1 2965   1.019   4.530   1.543
  988SOL    HW2 2966   0.917   4.648   1.497
  989SOL     OW 2967   0.991   4.134   1.242
  989SOL    HW1 2968   0.914   4.168   1.296
  989SOL    HW2 2969   0.957   4.083   1.163
  990SOL     OW 2970   0.865   4.072   0.195
  990SOL    HW1 2971   0.924   4.135   0.146
  990SOL    HW2 2972   0.884   3.978   0.166
  991SOL     OW 2973   1.719   4.309   1.831
  991SOL    HW1 2974   1.693   4.398   1.795
  991SOL    HW2 2975   1.717   4.241   1.758
  992SOL     OW 2976   0.550   3.920   0.885
  992SOL    HW1 2977   0.545   3.915   0.985
  992SOL    HW2 2978   0.552   4.016   0.856
  993SOL     OW 2979   0.202   4.009   1.498
  993SOL    HW1 2980   0.122   4.069   1.485
  993SOL    HW2 2981   0.192   3.960   1.584
  994SOL     OW 2982   1.400   3.831   0.426
  994SOL    HW1 2983   1.376   3.794   0.336
  994SOL    HW2 2984   1.499   3.847   0.430
  995SOL     OW 2985   1.547   3.946   1.729
  995SOL    HW1 2986   1.542   3.983   1.821
  995SOL    HW2 2987   1.475   3.877   1.717
  996SOL     OW 2988   0.614   3.846   0.117
  996SOL    HW1 2989   0.712   3.824   0.124
  996SOL    HW2 2990   0.583   3.829   0.024
  997SOL     OW 2991   0.781   3.988   1.749
  997SOL    HW1 2992   0.848   3.927   1.792
  997SOL    HW2 2993   0.708   4.007   1.814
  998SOL     OW 2994   1.351   4.314   1.433
  998SOL    HW1 2995   1.379   4.271   1.518
  998SOL    HW2 2996   1.376   4.410   1.434
  999SOL     OW 2997   0.539   3.788   0.512
  999SOL    HW1 2998   0.458   3.789   0.570
  999SOL    HW2 2999   0.542   3.871   0.457
 1000SOL     OW 3000   0.297   3.759   0.171
 1000SOL    HW1 3001   0.346   3.843   0.150
 1000SOL    HW2 3002   0.359   3.694   0.216
 1001SOL     OW 3003   0.935   3.960   0.480
 1001SOL    HW1 3004   0.887   4.001   0.402
 1001SOL    HW2 3005   1.034   3.958   0.461
 1002SOL     OW 3006   0.078   4.280   1.386
 1002SOL    HW1 3007   0.170   4.279   1.345
 1002SOL    HW2 3008   0.072   4.354   1.453
 1003SOL     OW 3009   0.561   3.946   1.147
 1003SOL    HW1 3010   0.599   3.862   1.184
 1003SOL    HW2 3011   0.473   3.965   1.191
 1004SOL     OW 3012   1.017   3.763   0.753
 1004SOL    HW1 3013   0.945   3.768   0.684
 1004SOL    HW2 3014   0.993   3.694   0.822
 1005SOL     OW 3015   1.466   4.314   0.992
 1005SOL    HW1 3016   1.436   4.219   0.999
 1005SOL    HW2 3017   1.539   4.330   1.058
 1006SOL     OW 3018   0.527   3.980   0.328
 1006SOL    HW1 3019   0.554   3.921   0.253
 1006SOL    HW2 3020   0.527   4.075   0.297
 1007SOL     OW 3021   0.915   3.813   1.402
 1007SOL    HW1 3022   0.940   3.793   1.307
 1007SOL    HW2 3023   0.987   3.869   1.444
 1008SOL     OW 3024   1.274   4.110   1.262
 1008SOL    HW1 3025   1.295   4.184   1.326
 1008SOL    HW2 3026   1.185   4.127   1.219
 1009SOL     OW 3027   0.566   4.261   0.865
 1009SOL    HW1 3028   0.578   4.327   0.791
 1009SOL    HW2 3029   0.612   4.295   0.948
 1010SOL     OW 3030   1.013   3.829   1.770
 1010SOL    HW1 3031   1.019   3.914   1.718
 1010SOL    HW2 3032   1.045   3.753   1.713
 1011SOL     OW 3033   0.504   3.774   1.740
 1011SOL    HW1 3034   0.462   3.717   1.670
 1011SOL    HW2 3035   0.438   3.843   1.772
 1012SOL     OW 3036   0.307   3.937   1.231
 1012SOL    HW1 3037   0.284   3.974   1.321
 1012SOL    HW2 3038   0.277   3.842   1.225
 1013SOL     OW 3039   0.732   4.358   1.064
 1013SOL    HW1 3040   0.791   4.332   0.988
 1013SOL    HW2 3041   0.704   4.454   1.053
 1014SOL     OW 3042   0.307   3.787   0.618
 1014SOL    HW1 3043   0.296   3.881   0.651
 1014SOL    HW2 3044   0.302   3.724   0.695
 1015SOL     OW 3045   1.622   4.091   0.374
 1015SOL    HW1 3046   1.624   4.015   0.438
 1015SOL    HW2 3047   1.574   4.168   0.414
 1016SOL     OW 3048   1.540   3.998   0.125
 1016SOL    HW1 3049   1.479   3.923   0.148
 1016SOL    HW2 3050   1.562   4.050   0.208
 1017SOL     OW 3051   0.339   4.233   1.006
 1017SOL    HW1 3052   0.287   4.150   0.989
 1017SOL    HW2 3053   0.416   4.238   0.942
 1018SOL     OW 3054   1.138   4.104   1.678
 1018SOL    HW1 3055   1.093   4.167   1.742
 1018SOL    HW2 3056   1.231   4.135   1.661
 1019SOL     OW 3057   1.160   3.931   1.477
 1019SOL    HW1 3058   1.160   3.995   1.554
 1019SOL    HW2 3059   1.188   3.979   1.394
 1020SOL     OW 3060   1.002   4.520   1.238
 1020SOL    HW1 3061   1.043   4.488   1.324
 1020SOL    HW2 3062   0.906   4.493   1.235
 1021SOL     OW 3063   0.040   4.268   1.114
 1021SOL    HW1 3064   0.125   4.235   1.073
 1021SOL    HW2 3065   0.053   4.283   1.212
 1022SOL     OW 3066   0.189   4.244   1.722
 1022SOL    HW1 3067   0.248   4.204   1.652
 1022SOL    HW2 3068   0.131   4.315   1.681
 1023SOL     OW 3069   0.815   4.296   0.325
 1023SOL    HW1 3070   0.822   4.207   0.279
 1023SOL    HW2 3071   0.721   4.330   0.317
 1024SOL     OW 3072   1.657   4.328   1.206
 1024SOL    HW1 3073   1.619   4.259   1.268
 1024SOL    HW2 3074   1.739   4.292   1.162
 1025SOL     OW 3075   0.671   4.188   1.269
 1025SOL    HW1 3076   0.637   4.099   1.239
 1025SOL    HW2 3077   0.697   4.242   1.189
 1026SOL     OW 3078   0.903   3.810   0.133
 1026SOL    HW1 3079   0.954   3.811   0.047
 1026SOL    HW2 3080   0.959   3.768   0.204
 1027SOL     OW 3081   1.726   3.859   0.523
 1027SOL    HW1 3082   1.799   3.842   0.456
 1027SOL    HW2 3083   1.695   3.772   0.561
 1028SOL     OW 3084   1.841   3.899   0.963
 1028SOL    HW1 3085   1.880   3.814   0.927
 1028SOL    HW2 3086   1.743   3.901   0.944
 1029SOL     OW 3087   0.263   4.050   0.720
 1029SOL    HW1 3088   0.184   4.101   0.686
 1029SOL    HW2 3089   0.254   4.035   0.818
 1030SOL     OW 3090   1.014   3.960   0.971
 1030SOL    HW1 3091   1.006   3.924   0.878
 1030SOL    HW2 3092   1.012   3.884   1.036
 1031SOL     OW 3093   1.709   4.109   1.381
 1031SOL    HW1 3094   1.782   4.178   1.385
 1031SOL    HW2 3095   1.737   4.034   1.322
 1032SOL     OW 3096   0.672   3.927   1.489
 1032SOL    HW1 3097   0.762   3.911   1.449
 1032SOL    HW2 3098   0.680   3.932   1.588
 1033SOL     OW 3099   0.075   4.069   0.033
 1033SOL    HW1 3100  -0.017   4.041   0.004
 1033SOL    HW2 3101   0.106   4.146  -0.023
 1034SOL     OW 3102   0.072   3.890   0.318
 1034SOL    HW1 3103   0.055   3.973   0.264
 1034SOL    HW2 3104   0.162   3.853   0.296
 1035SOL     OW 3105   0.716   4.289   1.708
 1035SOL    HW1 3106   0.735   4.354   1.782
 1035SOL    HW2 3107   0.776   4.209   1.717
 1036SOL     OW 3108   1.225   4.049   0.449
 1036SOL    HW1 3109   1.290   3.975   0.438
 1036SOL    HW2 3110   1.245   4.099   0.533
 1037SOL     OW 3111   1.777   4.066   1.642
 1037SOL    HW1 3112   1.760   4.097   1.548
 1037SOL    HW2 3113   1.693   4.029   1.680
 1038SOL     OW 3114   1.824   3.916   1.227
 1038SOL    HW1 3115   1.820   3.826   1.271
 1038SOL    HW2 3116   1.827   3.905   1.128
 1039SOL     OW 3117   0.428   4.148   0.520
 1039SOL    HW1 3118   0.458   4.076   0.458
 1039SOL    HW2 3119   0.389   4.108   0.603
 1040SOL     OW 3120   1.424   3.938   1.112
 1040SOL    HW1 3121   1.476   3.873   1.167
 1040SOL    HW2 3122   1.375   4.001   1.173
 1041SOL     OW 3123   1.001   3.758   1.154
 1041SOL    HW1 3124   0.938   3.686   1.123
 1041SOL    HW2 3125   1.094   3.722   1.154
 1042SOL     OW 3126   1.300   4.177   0.691
 1042SOL    HW1 3127   1.241   4.257   0.695
 1042SOL    HW2 3128   1.315   4.142   0.784
 1043SOL     OW 3129   1.593   3.945   0.882
 1043SOL    HW1 3130   1.509   3.944   0.936
 1043SOL    HW2 3131   1.595   4.028   0.826
 1044SOL     OW 3132   0.225   3.999   2.858
 1044SOL    HW1 3133   0.260   3.982   2.950
 1044SOL    HW2 3134   0.137   3.954   2.846
 1045SOL     OW 3135   0.019   4.092   2.509
 1045SOL    HW1 3136  -0.063   4.135   2.548
 1045SOL    HW2 3137  -0.009   4.019   2.446
 1046SOL     OW 3138   1.755   4.331   2.093
 1046SOL    HW1 3139   1.743   4.318   1.994
 1046SOL    HW2 3140   1.725   4.250   2.142
 1047SOL     OW 3141   0.438   4.116   3.361
 1047SOL    HW1 3142   0.520   4.060   3.370
 1047SOL    HW2 3143   0.357   4.058   3.365
 1048SOL     OW 3144   1.603   4.171   2.599
 1048SOL    HW1 3145   1.529   4.217   2.549
 1048SOL    HW2 3146   1.654   4.239   2.652
 1049SOL     OW 3147   1.594   3.838   3.342
 1049SOL    HW1 3148   1.576   3.905   3.270
 1049SOL    HW2 3149   1.591   3.884   3.431
 1050SOL     OW 3150   0.122   4.367   2.425
 1050SOL    HW1 3151   0.077   4.279   2.442
 1050SOL    HW2 3152   0.121   4.421   2.509
 1051SOL     OW 3153   0.809   3.728   2.364
 1051SOL    HW1 3154   0.849   3.819   2.355
 1051SOL    HW2 3155   0.709   3.736   2.370
 1052SOL     OW 3156   0.317   3.975   3.663
 1052SOL    HW1 3157   0.388   4.046   3.669
 1052SOL    HW2 3158   0.229   4.014   3.691
 1053SOL     OW 3159   1.281   4.069   2.806
 1053SOL    HW1 3160   1.195   4.019   2.793
 1053SOL    HW2 3161   1.343   4.015   2.862
 1054SOL     OW 3162   1.394   4.193   3.536
 1054SOL    HW1 3163   1.374   4.236   3.624
 1054SOL    HW2 3164   1.472   4.131   3.545
 1055SOL     OW 3165   0.973   4.614   3.434
 1055SOL    HW1 3166   1.019   4.530   3.405
 1055SOL    HW2 3167   0.917   4.648   3.359
 1056SOL     OW 3168   0.991   4.134   3.104
 1056SOL    HW1 3169   0.914   4.168   3.158
 1056SOL    HW2 3170   0.957   4.083   3.025
 1057SOL     OW 3171   0.865   4.072   2.057
 1057SOL    HW1 3172   0.924   4.135   2.008
 1057SOL    HW2 3173   0.884   3.978   2.028
 1058SOL     OW 3174   1.719   4.309   3.693
 1058SOL    HW1 3175   1.693   4.398   3.657
 1058SOL    HW2 3176   1.717   4.241   3.620
 1059SOL     OW 3177   0.550   3.920   2.747
 1059SOL    HW1 3178   0.545   3.915   2.847
 1059SOL    HW2 3179   0.552   4.016   2.718
 1060SOL     OW 3180   0.202   4.009   3.360
 1060SOL    HW1 3181   0.122   4.069   3.347
 1060SOL    HW2 3182   0.192   3.960   3.446
 1061SOL     OW 3183   1.400   3.831   2.288
 1061SOL    HW1 3184   1.376   3.794   2.198
 1061SOL    HW2 3185   1.499   3.847   2.292
 1062SOL     OW 3186   1.547   3.946   3.591
 1062SOL    HW1 3187   1.542   3.983   3.683
 1062SOL    HW2 3188   1.475   3.877   3.579
 1063SOL     OW 3189   0.614   3.846   1.979
 1063SOL    HW1 3190   0.712   3.824   1.986
 1063SOL    HW2 3191   0.583   3.829   1.886
 1064SOL     OW 3192   0.781   3.988   3.611
 1064SOL    HW1 3193   0.848   3.927   3.654
 1064SOL    HW2 3194   0.708   4.007   3.676
 1065SOL     OW 3195   1.351   4.314   3.295
 1065SOL    HW1 3196   1.379   4.271   3.380
 1065SOL    HW2 3197   1.376   4.410   3.296
 1066SOL     OW 3198   0.539   3.788   2.374
 1066SOL    HW1 3199   0.458   3.789   2.432
 1066SOL    HW2 3200   0.542   3.871   2.319
 1067SOL     OW 3201   0.297   3.759   2.033
 1067SOL    HW1 3202   0.346   3.843   2.012
 1067SOL    HW2 3203   0.359   3.694   2.078
 1068SOL     OW 3204   0.935   3.960   2.342
 1068SOL    HW1 3205   0.887   4.001   2.264
 1068SOL    HW2 3206   1.034   3.958   2.323
 1069SOL     OW 3207   0.078   4.280   3.248
 1069SOL    HW1 3208   0.170   4.279   3.207
 1069SOL    HW2 3209   0.072   4.354   3.315
 1070SOL     OW 3210   0.561   3.946   3.009
 1070SOL    HW1 3211   0.599   3.862   3.046
 1070SOL    HW2 3212   0.473   3.965   3.053
 1071SOL     OW 3213   1.017   3.763   2.615
 1071SOL    HW1 3214   0.945   3.768   2.546
 1071SOL    HW2 3215   0.993   3.694   2.684
 1072SOL     OW 3216   1.466   4.314   2.854
 1072SOL    HW1 3217   1.436   4.219   2.861
 1072SOL    HW2 3218   1.539   4.330   2.920
 1073SOL     OW 3219   0.527   3.980   2.190
 1073SOL    HW1 3220   0.554   3.921   2.115
 1073SOL    HW2 3221   0.527   4.075   2.159
 1074SOL     OW 3222   0.915   3.813   3.264
 1074SOL    HW1 3223   0.940   3.793   3.169
 1074SOL    HW2 3224   0.987   3.869   3.306
 1075SOL     OW 3225   1.274   4.110   3.124
 1075SOL    HW1 3226   1.295   4.184   3.188
 1075SOL    HW2 3227   1.185   4.127   3.081
 1076SOL     OW 3228   0.566   4.261   2.727
 1076SOL    HW1 3229   0.578   4.327   2.653
 1076SOL    HW2 3230   0.612   4.295   2.810
 1077SOL     OW 3231   1.013   3.829   3.632
 1077SOL    HW1 3232   1.019   3.914   3.580
 1077SOL    HW2 3233   1.045   3.753   3.575
 1078SOL     OW 3234   0.504   3.774   3.602
 1078SOL    HW1 3235   0.462   3.717   3.532
 1078SOL    HW2 3236   0.438   3.843   3.634
 1079SOL     OW 3237   0.307   3.937   3.093
 1079SOL    HW1 3238   0.284   3.974   3.183
 1079SOL    HW2 3239   0.277   3.842   3.087
 1080SOL     OW 3240   0.732   4.358   2.926
 1080SOL    HW1 3241   0.791   4.332   2.850
 1080SOL    HW2 3242   0.704   4.454   2.915
 1081SOL     OW 3243   0.307   3.787   2.480
 1081SOL    HW1 3244   0.296   3.881   2.513
 1081SOL    HW2 3245   0.302   3.724   2.557
 1082SOL     OW 3246   1.622   4.091   2.236
 1082SOL    HW1 3247   1.624   4.015   2.300
 1082SOL    HW2 3248   1.574   4.168   2.276
 1083SOL     OW 3249   1.540   3.998   1.987
 1083SOL    HW1 3250   1.479   3.923   2.010
 1083SOL    HW2 3251   1.562   4.050   2.070
 1084SOL     OW 3252   1.303   4.562   1.904
 1084SOL    HW1 3253   1.337   4.469   1.919
 1084SOL    HW2 3254   1.321   4.589   1.809
 1085SOL     OW 3255   0.339   4.233   2.868
 1085SOL    HW1 3256   0.287   4.150   2.851
 1085SOL    HW2 3257   0.416   4.238   2.804
 1086SOL     OW 3258   1.138   4.104   3.540
 1086SOL    HW1 3259   1.093   4.167   3.604
 1086SOL    HW2 3260   1.231   4.135   3.523
 1087SOL     OW 3261   1.160   3.931   3.339
 1087SOL    HW1 3262   1.160   3.995   3.416
 1087SOL    HW2 3263   1.188   3.979   3.256
 1088SOL     OW 3264   1.002   4.520   3.100
 1088SOL    HW1 3265   1.043   4.488   3.186
 1088SOL    HW2 3266   0.906   4.493   3.097
 1089SOL     OW 3267   0.040   4.268   2.976
 1089SOL    HW1 3268   0.125   4.235   2.935
 1089SOL    HW2 3269   0.053   4.283   3.074
 1090SOL     OW 3270   0.189   4.244   3.584
 1090SOL    HW1 3271   0.248   4.204   3.514
 1090SOL    HW2 3272   0.131   4.315   3.543
 1091SOL     OW 3273   0.815   4.296   2.187
 1091SOL    HW1 3274   0.822   4.207   2.141
 1091SOL    HW2 3275   0.721   4.330   2.179
 1092SOL     OW 3276   1.657   4.328   3.068
 1092SOL    HW1 3277   1.619   4.259   3.130
 1092SOL    HW2 3278   1.739   4.292   3.024
 1093SOL     OW 3279   0.671   4.188   3.131
 1093SOL    HW1 3280   0.637   4.099   3.101
 1093SOL    HW2 3281   0.697   4.242   3.051
 1094SOL     OW 3282   1.726   3.859   2.385
 1094SOL    HW1 3283   1.799   3.842   2.318
 1094SOL    HW2 3284   1.695   3.772   2.423
 1095SOL     OW 3285   1.841   3.899   2.825
 1095SOL    HW1 3286   1.880   3.814   2.789
 1095SOL    HW2 3287   1.743   3.901   2.806
 1096SOL     OW 3288   0.263   4.050   2.582
 1096SOL    HW1 3289   0.184   4.101   2.548
 1096SOL    HW2 3290   0.254   4.035   2.680
 1097SOL     OW 3291   1.014   3.960   2.833
 1097SOL    HW1 3292   1.006   3.924   2.740
 1097SOL    HW2 3293   1.012   3.884   2.898
 1098SOL     OW 3294   1.709   4.109   3.243
 1098SOL    HW1 3295   1.782   4.178   3.247
 1098SOL    HW2 3296   1.737   4.034   3.184
 1099SOL     OW 3297   0.672   3.927   3.351
 1099SOL    HW1 3298   0.762   3.911   3.311
 1099SOL    HW2 3299   0.680   3.932   3.450
 1100SOL     OW 3300   0.075   4.069   1.895
 1100SOL    HW1 3301  -0.017   4.041   1.866
 1100SOL    HW2 3302   0.106   4.146   1.839
 1101SOL     OW 3303   0.072   3.890   2.180
 1101SOL    HW1 3304   0.055   3.973   2.126
 1101SOL    HW2 3305   0.162   3.853   2.158
 1102SOL     OW 3306   0.716   4.289   3.570
 1102SOL    HW1 3307   0.735   4.354   3.644
 1102SOL    HW2 3308   0.776   4.209   3.579
 1103SOL     OW 3309   1.225   4.049   2.311
 1103SOL    HW1 3310   1.290   3.975   2.300
 1103SOL    HW2 3311   1.245   4.099   2.395
 1104SOL     OW 3312   1.777   4.066   3.504
 1104SOL    HW1 3313   1.760   4.097   3.410
 1104SOL    HW2 3314   1.693   4.029   3.542
 1105SOL     OW 3315   1.824   3.916   3.089
 1105SOL    HW1 3316   1.820   3.826   3.133
 1105SOL    HW2 3317   1.827   3.905   2.990
 1106SOL     OW 3318   0.428   4.148   2.382
 1106SOL    HW1 3319   0.458   4.076   2.320
 1106SOL    HW2 3320   0.389   4.108   2.465
 1107SOL     OW 3321   1.424   3.938   2.974
 1107SOL    HW1 3322   1.476   3.873   3.029
 1107SOL    HW2 3323   1.375   4.001   3.035
 1108SOL     OW 3324   1.001   3.758   3.016
 1108SOL    HW1 3325   0.938   3.686   2.985
 1108SOL    HW2 3326   1.094   3.722   3.016
 1109SOL     OW 3327   1.352   3.776   2.030
 1109SOL    HW1 3328   1.387   3.735   1.946
 1109SOL    HW2 3329   1.262   3.738   2.050
 1110SOL     OW 3330   1.300   4.177   2.553
 1110SOL    HW1 3331   1.241   4.257   2.557
 1110SOL    HW2 3332   1.315   4.142   2.646
 1111SOL     OW 3333   1.593   3.945   2.744
 1111SOL    HW1 3334   1.509   3.944   2.798
 1111SOL    HW2 3335   1.595   4.028   2.688
 1112SOL     OW 3336   1.135   4.427   4.441
 1112SOL    HW1 3337   1.192   4.505   4.416
 1112SOL    HW2 3338   1.075   4.453   4.517
 1113SOL     OW 3339   1.755   4.331   3.955
 1113SOL    HW1 3340   1.743   4.318   3.856
 1113SOL    HW2 3341   1.725   4.250   4.004
 1114SOL     OW 3342   0.122   4.367   4.287
 1114SOL    HW1 3343   0.077   4.279   4.304
 1114SOL    HW2 3344   0.121   4.421   4.371
 1115SOL     OW 3345   0.809   3.728   4.226
 1115SOL    HW1 3346   0.849   3.819   4.217
 1115SOL    HW2 3347   0.709   3.736   4.232
 1116SOL     OW 3348   0.865   4.072   3.919
 1116SOL    HW1 3349   0.924   4.135   3.870
 1116SOL    HW2 3350   0.884   3.978   3.890
 1117SOL     OW 3351   1.400   3.831   4.150
 1117SOL    HW1 3352   1.376   3.794   4.060
 1117SOL    HW2 3353   1.499   3.847   4.154
 1118SOL     OW 3354   0.382   4.424   4.204
 1118SOL    HW1 3355   0.427   4.334   4.201
 1118SOL    HW2 3356   0.288   4.413   4.237
 1119SOL     OW 3357   0.614   3.846   3.841
 1119SOL    HW1 3358   0.712   3.824   3.848
 1119SOL    HW2 3359   0.583   3.829   3.748
 1120SOL     OW 3360   0.297   3.759   3.895
 1120SOL    HW1 3361   0.346   3.843   3.874
 1120SOL    HW2 3362   0.359   3.694   3.940
 1121SOL     OW 3363   0.935   3.960   4.204
 1121SOL    HW1 3364   0.887   4.001   4.126
 1121SOL    HW2 3365   1.034   3.958   4.185
 1122SOL     OW 3366   0.527   3.980   4.052
 1122SOL    HW1 3367   0.554   3.921   3.977
 1122SOL    HW2 3368   0.527   4.075   4.021
 1123SOL     OW 3369   1.622   4.091   4.098
 1123SOL    HW1 3370   1.624   4.015   4.162
 1123SOL    HW2 3371   1.574   4.168   4.138
 1124SOL     OW 3372   1.540   3.998   3.849
 1124SOL    HW1 3373   1.479   3.923   3.872
 1124SOL    HW2 3374   1.562   4.050   3.932
 1125SOL     OW 3375   1.303   4.562   3.766
 1125SOL    HW1 3376   1.337   4.469   3.781
 1125SOL    HW2 3377   1.321   4.589   3.671
 1126SOL     OW 3378   0.815   4.296   4.049
 1126SOL    HW1 3379   0.822   4.207   4.003
 1126SOL    HW2 3380   0.721   4.330   4.041
 1127SOL     OW 3381   1.726   3.859   4.247
 1127SOL    HW1 3382   1.799   3.842   4.180
 1127SOL    HW2 3383   1.695   3.772   4.285
 1128SOL     OW 3384   0.075   4.069   3.757
 1128SOL    HW1 3385  -0.017   4.041   3.728
 1128SOL    HW2 3386   0.106   4.146   3.701
 1129SOL     OW 3387   0.072   3.890   4.042
 1129SOL    HW1 3388   0.055   3.973   3.988
 1129SOL    HW2 3389   0.162   3.853   4.020
 1130SOL     OW 3390   1.225   4.049   4.173
 1130SOL    HW1 3391   1.290   3.975   4.162
 1130SOL    HW2 3392   1.245   4.099   4.257
 1131SOL     OW 3393   0.428   4.148   4.244
 1131SOL    HW1 3394   0.458   4.076   4.182
 1131SOL    HW2 3395   0.389   4.108   4.327
 1132SOL     OW 3396   1.352   3.776   3.892
 1132SOL    HW1 3397   1.387   3.735   3.808
 1132SOL    HW2 3398   1.262   3.738   3.912
 1133SOL     OW 3399   2.092   0.628   0.113
 1133SOL    HW1 3400   1.999   0.626   0.150
 1133SOL    HW2 3401   2.093   0.589   0.021
 1134SOL     OW 3402   2.087   0.275   0.996
 1134SOL    HW1 3403   2.122   0.258   1.088
 1134SOL    HW2 3404   1.999   0.230   0.984
 1135SOL     OW 3405   1.881   0.368   0.647
 1135SOL    HW1 3406   1.799   0.411   0.686
 1135SOL    HW2 3407   1.853   0.295   0.584
 1136SOL     OW 3408   2.431   1.275   1.165
 1136SOL    HW1 3409   2.338   1.268   1.128
 1136SOL    HW2 3410   2.442   1.364   1.209
 1137SOL     OW 3411   3.417   1.511   0.703
 1137SOL    HW1 3412   3.360   1.495   0.784
 1137SOL    HW2 3413   3.358   1.521   0.623
 1138SOL     OW 3414   2.997   0.703   0.717
 1138SOL    HW1 3415   3.054   0.781   0.692
 1138SOL    HW2 3416   2.937   0.729   0.793
 1139SOL     OW 3417   3.617   0.607   0.231
 1139SOL    HW1 3418   3.605   0.594   0.132
 1139SOL    HW2 3419   3.587   0.526   0.280
 1140SOL     OW 3420   2.630   1.144   1.023
 1140SOL    HW1 3421   2.552   1.161   1.083
 1140SOL    HW2 3422   2.664   1.231   0.987
 1141SOL     OW 3423   2.712   0.798   1.823
 1141SOL    HW1 3424   2.708   0.874   1.888
 1141SOL    HW2 3425   2.734   0.834   1.732
 1142SOL     OW 3426   2.547   1.012   0.665
 1142SOL    HW1 3427   2.616   0.996   0.735
 1142SOL    HW2 3428   2.474   1.069   0.703
 1143SOL     OW 3429   2.548   1.161   1.803
 1143SOL    HW1 3430   2.608   1.240   1.817
 1143SOL    HW2 3431   2.462   1.192   1.762
 1144SOL     OW 3432   2.197   1.435   1.061
 1144SOL    HW1 3433   2.119   1.404   1.008
 1144SOL    HW2 3434   2.255   1.493   1.004
 1145SOL     OW 3435   3.322   1.505   1.339
 1145SOL    HW1 3436   3.346   1.599   1.365
 1145SOL    HW2 3437   3.306   1.451   1.421
 1146SOL     OW 3438   2.300   0.392   1.499
 1146SOL    HW1 3439   2.382   0.336   1.508
 1146SOL    HW2 3440   2.219   0.334   1.503
 1147SOL     OW 3441   3.465   0.447   0.737
 1147SOL    HW1 3442   3.391   0.493   0.687
 1147SOL    HW2 3443   3.516   0.515   0.790
 1148SOL     OW 3444   2.093   1.713   0.483
 1148SOL    HW1 3445   2.127   1.790   0.537
 1148SOL    HW2 3446   2.137   1.713   0.393
 1149SOL     OW 3447   2.989   1.341   1.690
 1149SOL    HW1 3448   3.036   1.341   1.778
 1149SOL    HW2 3449   2.941   1.254   1.679
 1150SOL     OW 3450   2.092   1.434   0.538
 1150SOL    HW1 3451   2.066   1.530   0.538
 1150SOL    HW2 3452   2.021   1.380   0.583
 1151SOL     OW 3453   2.102   1.091   0.886
 1151SOL    HW1 3454   2.116   1.007   0.938
 1151SOL    HW2 3455   2.047   1.155   0.941
 1152SOL     OW 3456   2.482   1.786   1.439
 1152SOL    HW1 3457   2.390   1.769   1.474
 1152SOL    HW2 3458   2.510   1.878   1.465
 1153SOL     OW 3459   2.468   0.964   0.123
 1153SOL    HW1 3460   2.475   1.048   0.069
 1153SOL    HW2 3461   2.514   0.977   0.211
 1154SOL     OW 3462   3.456   0.114   1.480
 1154SOL    HW1 3463   3.438   0.181   1.408
 1154SOL    HW2 3464   3.453   0.160   1.569
 1155SOL     OW 3465   1.984   0.643   0.563
 1155SOL    HW1 3466   1.939   0.555   0.580
 1155SOL    HW2 3467   1.983   0.697   0.647
 1156SOL     OW 3468   3.704   1.767   0.359
 1156SOL    HW1 3469   3.758   1.738   0.439
 1156SOL    HW2 3470   3.734   1.857   0.330
 1157SOL     OW 3471   1.889   1.596   0.117
 1157SOL    HW1 3472   1.870   1.500   0.138
 1157SOL    HW2 3473   1.856   1.654   0.192
 1158SOL     OW 3474   3.551   0.922   0.612
 1158SOL    HW1 3475   3.646   0.893   0.620
 1158SOL    HW2 3476   3.543   0.987   0.537
 1159SOL     OW 3477   3.503   1.108   0.432
 1159SOL    HW1 3478   3.589   1.110   0.380
 1159SOL    HW2 3479   3.517   1.155   0.520
 1160SOL     OW 3480   1.975   0.737   1.597
 1160SOL    HW1 3481   2.063   0.724   1.642
 1160SOL    HW2 3482   1.962   0.834   1.575
 1161SOL     OW 3483   2.475   1.365   0.726
 1161SOL    HW1 3484   2.426   1.278   0.735
 1161SOL    HW2 3485   2.452   1.408   0.639
 1162SOL     OW 3486   3.155   1.228   1.423
 1162SOL    HW1 3487   3.192   1.155   1.365
 1162SOL    HW2 3488   3.207   1.233   1.508
 1163SOL     OW 3489   2.671   0.004   0.502
 1163SOL    HW1 3490   2.711   0.095   0.493
 1163SOL    HW2 3491   2.571   0.012   0.508
 1164SOL     OW 3492   2.059   0.976   1.264
 1164SOL    HW1 3493   2.148   0.931   1.250
 1164SOL    HW2 3494   1.986   0.911   1.245
 1165SOL     OW 3495   3.387   0.999   0.190
 1165SOL    HW1 3496   3.324   0.923   0.203
 1165SOL    HW2 3497   3.435   1.017   0.276
 1166SOL     OW 3498   3.049   1.792   1.616
 1166SOL    HW1 3499   3.073   1.852   1.540
 1166SOL    HW2 3500   3.056   1.697   1.586
 1167SOL     OW 3501   2.179   0.251   1.801
 1167SOL    HW1 3502   2.250   0.322   1.807
 1167SOL    HW2 3503   2.091   0.290   1.829
 1168SOL     OW 3504   3.328   1.417   0.953
 1168SOL    HW1 3505   3.269   1.423   1.033
 1168SOL    HW2 3506   3.313   1.329   0.907
 1169SOL     OW 3507   3.529   1.714   0.572
 1169SOL    HW1 3508   3.488   1.691   0.484
 1169SOL    HW2 3509   3.511   1.640   0.637
 1170SOL     OW 3510   2.460   0.729   0.270
 1170SOL    HW1 3511   2.484   0.798   0.202
 1170SOL    HW2 3512   2.382   0.762   0.324
 1171SOL     OW 3513   3.143   0.345   0.944
 1171SOL    HW1 3514   3.057   0.295   0.931
 1171SOL    HW2 3515   3.205   0.291   1.000
 1172SOL     OW 3516   3.438   1.662   0.307
 1172SOL    HW1 3517   3.527   1.708   0.310
 1172SOL    HW2 3518   3.417   1.638   0.212
 1173SOL     OW 3519   2.669   0.605   1.465
 1173SOL    HW1 3520   2.622   0.602   1.554
 1173SOL    HW2 3521   2.618   0.550   1.399
 1174SOL     OW 3522   3.256   0.469   1.674
 1174SOL    HW1 3523   3.236   0.512   1.762
 1174SOL    HW2 3524   3.334   0.407   1.683
 1175SOL     OW 3525   2.835   0.890   1.572
 1175SOL    HW1 3526   2.881   0.806   1.543
 1175SOL    HW2 3527   2.779   0.924   1.497
 1176SOL     OW 3528   2.853   0.410   1.242
 1176SOL    HW1 3529   2.776   0.444   1.296
 1176SOL    HW2 3530   2.819   0.359   1.163
 1177SOL     OW 3531   2.903   0.701   0.429
 1177SOL    HW1 3532   2.929   0.697   0.525
 1177SOL    HW2 3533   2.818   0.650   0.415
 1178SOL     OW 3534   1.938   0.811   0.789
 1178SOL    HW1 3535   2.037   0.799   0.798
 1178SOL    HW2 3536   1.914   0.906   0.810
 1179SOL     OW 3537   1.992   1.821   1.571
 1179SOL    HW1 3538   1.982   1.806   1.670
 1179SOL    HW2 3539   1.906   1.857   1.535
 1180SOL     OW 3540   2.727   0.348   0.195
 1180SOL    HW1 3541   2.786   0.411   0.146
 1180SOL    HW2 3542   2.746   0.254   0.166
 1181SOL     OW 3543   3.581   0.585   1.831
 1181SOL    HW1 3544   3.555   0.674   1.795
 1181SOL    HW2 3545   3.579   0.517   1.758
 1182SOL     OW 3546   3.224   1.144   0.545
 1182SOL    HW1 3547   3.307   1.115   0.497
 1182SOL    HW2 3548   3.175   1.211   0.489
 1183SOL     OW 3549   2.412   0.196   0.885
 1183SOL    HW1 3550   2.407   0.191   0.985
 1183SOL    HW2 3551   2.414   0.292   0.856
 1184SOL     OW 3552   2.870   1.456   0.477
 1184SOL    HW1 3553   2.824   1.528   0.425
 1184SOL    HW2 3554   2.866   1.476   0.575
 1185SOL     OW 3555   2.213   1.801   0.853
 1185SOL    HW1 3556   2.263   1.715   0.859
 1185SOL    HW2 3557   2.278   1.878   0.850
 1186SOL     OW 3558   3.657   1.066   0.873
 1186SOL    HW1 3559   3.595   1.051   0.797
 1186SOL    HW2 3560   3.605   1.077   0.958
 1187SOL     OW 3561   3.089   1.550   1.506
 1187SOL    HW1 3562   3.095   1.473   1.570
 1187SOL    HW2 3563   3.037   1.524   1.426
 1188SOL     OW 3564   2.183   0.943   0.242
 1188SOL    HW1 3565   2.265   0.982   0.200
 1188SOL    HW2 3566   2.156   0.861   0.193
 1189SOL     OW 3567   3.320   0.735   0.728
 1189SOL    HW1 3568   3.315   0.670   0.803
 1189SOL    HW2 3569   3.400   0.794   0.741
 1190SOL     OW 3570   2.323   1.266   1.727
 1190SOL    HW1 3571   2.273   1.267   1.641
 1190SOL    HW2 3572   2.260   1.248   1.803
 1191SOL     OW 3573   2.973   1.776   0.237
 1191SOL    HW1 3574   2.913   1.714   0.287
 1191SOL    HW2 3575   3.004   1.732   0.152
 1192SOL     OW 3576   2.064   0.285   1.498
 1192SOL    HW1 3577   1.984   0.345   1.485
 1192SOL    HW2 3578   2.054   0.236   1.584
 1193SOL     OW 3579   3.494   1.377   0.081
 1193SOL    HW1 3580   3.462   1.471   0.071
 1193SOL    HW2 3581   3.418   1.314   0.069
 1194SOL     OW 3582   2.326   1.743   0.323
 1194SOL    HW1 3583   2.359   1.782   0.409
 1194SOL    HW2 3584   2.402   1.736   0.258
 1195SOL     OW 3585   3.262   0.107   0.426
 1195SOL    HW1 3586   3.238   0.070   0.336
 1195SOL    HW2 3587   3.361   0.123   0.430
 1196SOL     OW 3588   2.111   1.785   1.241
 1196SOL    HW1 3589   2.168   1.720   1.291
 1196SOL    HW2 3590   2.095   1.752   1.148
 1197SOL     OW 3591   2.802   1.698   0.904
 1197SOL    HW1 3592   2.882   1.641   0.925
 1197SOL    HW2 3593   2.753   1.658   0.827
 1198SOL     OW 3594   2.244   0.700   0.480
 1198SOL    HW1 3595   2.289   0.610   0.477
 1198SOL    HW2 3596   2.150   0.689   0.513
 1199SOL     OW 3597   3.409   0.222   1.729
 1199SOL    HW1 3598   3.404   0.259   1.821
 1199SOL    HW2 3599   3.337   0.153   1.717
 1200SOL     OW 3600   2.476   0.122   0.117
 1200SOL    HW1 3601   2.574   0.100   0.124
 1200SOL    HW2 3602   2.445   0.105   0.024
 1201SOL     OW 3603   2.643   0.264   1.749
 1201SOL    HW1 3604   2.710   0.203   1.792
 1201SOL    HW2 3605   2.570   0.283   1.814
 1202SOL     OW 3606   2.750   1.514   1.195
 1202SOL    HW1 3607   2.727   1.489   1.101
 1202SOL    HW2 3608   2.811   1.445   1.234
 1203SOL     OW 3609   3.213   0.590   1.433
 1203SOL    HW1 3610   3.241   0.547   1.518
 1203SOL    HW2 3611   3.238   0.686   1.434
 1204SOL     OW 3612   2.665   1.402   0.924
 1204SOL    HW1 3613   2.755   1.416   0.882
 1204SOL    HW2 3614   2.594   1.404   0.853
 1205SOL     OW 3615   2.784   0.503   0.899
 1205SOL    HW1 3616   2.759   0.494   0.803
 1205SOL    HW2 3617   2.832   0.421   0.930
 1206SOL     OW 3618   2.401   0.064   0.512
 1206SOL    HW1 3619   2.320   0.065   0.570
 1206SOL    HW2 3620   2.404   0.147   0.457
 1207SOL     OW 3621   3.296   1.188   0.041
 1207SOL    HW1 3622   3.328   1.112   0.098
 1207SOL    HW2 3623   3.204   1.215   0.071
 1208SOL     OW 3624   2.159   0.035   0.171
 1208SOL    HW1 3625   2.208   0.119   0.150
 1208SOL    HW2 3626   2.221  -0.030   0.216
 1209SOL     OW 3627   2.797   0.236   0.480
 1209SOL    HW1 3628   2.749   0.277   0.402
 1209SOL    HW2 3629   2.896   0.234   0.461
 1210SOL     OW 3630   2.938   0.683   1.464
 1210SOL    HW1 3631   2.858   0.622   1.467
 1210SOL    HW2 3632   3.019   0.630   1.440
 1211SOL     OW 3633   3.089   1.570   0.793
 1211SOL    HW1 3634   3.110   1.644   0.728
 1211SOL    HW2 3635   3.157   1.570   0.866
 1212SOL     OW 3636   2.321   1.152   0.741
 1212SOL    HW1 3637   2.250   1.125   0.806
 1212SOL    HW2 3638   2.295   1.124   0.648
 1213SOL     OW 3639   3.133   1.797   0.591
 1213SOL    HW1 3640   3.177   1.861   0.527
 1213SOL    HW2 3641   3.083   1.849   0.661
 1214SOL     OW 3642   2.894   0.549   0.016
 1214SOL    HW1 3643   2.853   0.631  -0.023
 1214SOL    HW2 3644   2.958   0.575   0.089
 1215SOL     OW 3645   1.940   0.556   1.386
 1215SOL    HW1 3646   2.032   0.555   1.345
 1215SOL    HW2 3647   1.934   0.630   1.453
 1216SOL     OW 3648   2.423   0.222   1.147
 1216SOL    HW1 3649   2.461   0.138   1.184
 1216SOL    HW2 3650   2.335   0.241   1.191
 1217SOL     OW 3651   2.728   0.454   0.642
 1217SOL    HW1 3652   2.696   0.526   0.580
 1217SOL    HW2 3653   2.752   0.373   0.589
 1218SOL     OW 3654   2.879   0.039   0.753
 1218SOL    HW1 3655   2.807   0.044   0.684
 1218SOL    HW2 3656   2.855  -0.030   0.822
 1219SOL     OW 3657   3.291   1.173   0.867
 1219SOL    HW1 3658   3.236   1.089   0.860
 1219SOL    HW2 3659   3.317   1.202   0.775
 1220SOL     OW 3660   3.328   0.590   0.992
 1220SOL    HW1 3661   3.298   0.495   0.999
 1220SOL    HW2 3662   3.401   0.606   1.058
 1221SOL     OW 3663   3.719   0.833   0.377
 1221SOL    HW1 3664   3.761   0.769   0.441
 1221SOL    HW2 3665   3.681   0.782   0.299
 1222SOL     OW 3666   2.350   1.385   0.174
 1222SOL    HW1 3667   2.263   1.370   0.221
 1222SOL    HW2 3668   2.333   1.411   0.079
 1223SOL     OW 3669   3.526   1.280   0.657
 1223SOL    HW1 3670   3.625   1.288   0.671
 1223SOL    HW2 3671   3.481   1.364   0.688
 1224SOL     OW 3672   3.252   0.575   0.078
 1224SOL    HW1 3673   3.198   0.554   0.159
 1224SOL    HW2 3674   3.343   0.534   0.087
 1225SOL     OW 3675   2.389   0.256   0.328
 1225SOL    HW1 3676   2.416   0.197   0.253
 1225SOL    HW2 3677   2.389   0.351   0.297
 1226SOL     OW 3678   3.616   1.223   1.588
 1226SOL    HW1 3679   3.707   1.184   1.575
 1226SOL    HW2 3680   3.624   1.319   1.612
 1227SOL     OW 3681   2.926   1.347   1.340
 1227SOL    HW1 3682   2.846   1.324   1.395
 1227SOL    HW2 3683   3.009   1.321   1.389
 1228SOL     OW 3684   3.454   1.629   1.625
 1228SOL    HW1 3685   3.481   1.663   1.535
 1228SOL    HW2 3686   3.533   1.591   1.671
 1229SOL     OW 3687   2.973   1.195   1.100
 1229SOL    HW1 3688   2.933   1.239   1.181
 1229SOL    HW2 3689   2.932   1.232   1.017
 1230SOL     OW 3690   3.500   1.099   1.079
 1230SOL    HW1 3691   3.505   1.180   1.138
 1230SOL    HW2 3692   3.414   1.101   1.028
 1231SOL     OW 3693   2.777   0.089   1.402
 1231SOL    HW1 3694   2.802   0.069   1.307
 1231SOL    HW2 3695   2.849   0.145   1.444
 1232SOL     OW 3696   2.842   1.116   1.719
 1232SOL    HW1 3697   2.743   1.122   1.729
 1232SOL    HW2 3698   2.865   1.036   1.663
 1233SOL     OW 3699   2.567   1.050   0.368
 1233SOL    HW1 3700   2.553   1.057   0.467
 1233SOL    HW2 3701   2.651   0.999   0.350
 1234SOL     OW 3702   2.272   0.813   1.251
 1234SOL    HW1 3703   2.358   0.825   1.301
 1234SOL    HW2 3704   2.230   0.726   1.278
 1235SOL     OW 3705   3.136   0.386   1.262
 1235SOL    HW1 3706   3.157   0.460   1.326
 1235SOL    HW2 3707   3.047   0.403   1.219
 1236SOL     OW 3708   1.926   1.564   1.331
 1236SOL    HW1 3709   1.880   1.646   1.297
 1236SOL    HW2 3710   2.024   1.583   1.340
 1237SOL     OW 3711   2.229   1.100   0.501
 1237SOL    HW1 3712   2.222   1.183   0.445
 1237SOL    HW2 3713   2.233   1.020   0.441
 1238SOL     OW 3714   2.428   0.537   0.865
 1238SOL    HW1 3715   2.440   0.603   0.791
 1238SOL    HW2 3716   2.474   0.571   0.948
 1239SOL     OW 3717   3.114   1.348   0.388
 1239SOL    HW1 3718   3.164   1.425   0.428
 1239SOL    HW2 3719   3.019   1.350   0.420
 1240SOL     OW 3720   3.134   1.445   1.142
 1240SOL    HW1 3721   3.181   1.458   1.229
 1240SOL    HW2 3722   3.068   1.371   1.151
 1241SOL     OW 3723   3.444   0.639   0.472
 1241SOL    HW1 3724   3.413   0.700   0.545
 1241SOL    HW2 3725   3.494   0.691   0.403
 1242SOL     OW 3726   2.216   1.510   1.329
 1242SOL    HW1 3727   2.195   1.466   1.242
 1242SOL    HW2 3728   2.313   1.536   1.332
 1243SOL     OW 3729   2.264   0.751   1.598
 1243SOL    HW1 3730   2.332   0.806   1.551
 1243SOL    HW2 3731   2.304   0.663   1.625
 1244SOL     OW 3732   3.449   0.779   1.670
 1244SOL    HW1 3733   3.357   0.817   1.665
 1244SOL    HW2 3734   3.509   0.826   1.605
 1245SOL     OW 3735   2.875   0.105   1.770
 1245SOL    HW1 3736   2.881   0.190   1.718
 1245SOL    HW2 3737   2.907   0.029   1.713
 1246SOL     OW 3738   2.366   0.050   1.740
 1246SOL    HW1 3739   2.324  -0.007   1.670
 1246SOL    HW2 3740   2.300   0.119   1.772
 1247SOL     OW 3741   2.435   0.870   1.029
 1247SOL    HW1 3742   2.479   0.959   1.020
 1247SOL    HW2 3743   2.372   0.870   1.106
 1248SOL     OW 3744   3.222   0.862   1.045
 1248SOL    HW1 3745   3.147   0.862   0.979
 1248SOL    HW2 3746   3.259   0.770   1.054
 1249SOL     OW 3747   3.071   0.525   0.275
 1249SOL    HW1 3748   3.084   0.441   0.329
 1249SOL    HW2 3749   3.042   0.599   0.335
 1250SOL     OW 3750   2.169   0.213   1.231
 1250SOL    HW1 3751   2.146   0.250   1.321
 1250SOL    HW2 3752   2.139   0.118   1.225
 1251SOL     OW 3753   1.899   1.310   1.282
 1251SOL    HW1 3754   1.952   1.261   1.350
 1251SOL    HW2 3755   1.921   1.408   1.287
 1252SOL     OW 3756   2.594   0.634   1.064
 1252SOL    HW1 3757   2.653   0.608   0.988
 1252SOL    HW2 3758   2.566   0.730   1.053
 1253SOL     OW 3759   3.590   0.935   1.854
 1253SOL    HW1 3760   3.544   0.928   1.765
 1253SOL    HW2 3761   3.528   0.979   1.920
 1254SOL     OW 3762   2.169   0.063   0.618
 1254SOL    HW1 3763   2.158   0.157   0.651
 1254SOL    HW2 3764   2.164   0.000   0.695
 1255SOL     OW 3765   3.484   0.367   0.374
 1255SOL    HW1 3766   3.486   0.291   0.438
 1255SOL    HW2 3767   3.436   0.444   0.414
 1256SOL     OW 3768   2.885   0.766   0.966
 1256SOL    HW1 3769   2.900   0.787   1.062
 1256SOL    HW2 3770   2.855   0.671   0.957
 1257SOL     OW 3771   2.842   1.573   1.700
 1257SOL    HW1 3772   2.822   1.617   1.612
 1257SOL    HW2 3773   2.881   1.482   1.684
 1258SOL     OW 3774   3.721   1.518   1.605
 1258SOL    HW1 3775   3.735   1.545   1.510
 1258SOL    HW2 3776   3.804   1.540   1.658
 1259SOL     OW 3777   2.212   0.898   1.804
 1259SOL    HW1 3778   2.288   0.942   1.852
 1259SOL    HW2 3779   2.247   0.851   1.722
 1260SOL     OW 3780   3.402   0.274   0.125
 1260SOL    HW1 3781   3.341   0.199   0.148
 1260SOL    HW2 3782   3.424   0.326   0.208
 1261SOL     OW 3783   3.165   0.838   0.042
 1261SOL    HW1 3784   3.199   0.745   0.057
 1261SOL    HW2 3785   3.183   0.865  -0.053
 1262SOL     OW 3786   2.930   1.333   0.849
 1262SOL    HW1 3787   2.937   1.249   0.794
 1262SOL    HW2 3788   2.992   1.402   0.813
 1263SOL     OW 3789   2.181   0.810   0.949
 1263SOL    HW1 3790   2.274   0.846   0.954
 1263SOL    HW2 3791   2.175   0.725   1.001
 1264SOL     OW 3792   2.201   0.509   1.006
 1264SOL    HW1 3793   2.149   0.426   0.989
 1264SOL    HW2 3794   2.278   0.514   0.942
 1265SOL     OW 3795   3.000   0.380   1.678
 1265SOL    HW1 3796   2.955   0.443   1.742
 1265SOL    HW2 3797   3.093   0.411   1.661
 1266SOL     OW 3798   3.022   0.207   1.477
 1266SOL    HW1 3799   3.022   0.271   1.554
 1266SOL    HW2 3800   3.050   0.255   1.394
 1267SOL     OW 3801   1.870   1.326   0.200
 1267SOL    HW1 3802   1.777   1.347   0.169
 1267SOL    HW2 3803   1.880   1.227   0.213
 1268SOL     OW 3804   1.950   1.801   0.927
 1268SOL    HW1 3805   1.908   1.715   0.900
 1268SOL    HW2 3806   2.044   1.804   0.893
 1269SOL     OW 3807   2.366   1.568   0.910
 1269SOL    HW1 3808   2.432   1.642   0.919
 1269SOL    HW2 3809   2.410   1.489   0.868
 1270SOL     OW 3810   2.864   0.796   1.238
 1270SOL    HW1 3811   2.905   0.764   1.324
 1270SOL    HW2 3812   2.768   0.769   1.235
 1271SOL     OW 3813   1.902   0.544   1.114
 1271SOL    HW1 3814   1.987   0.511   1.073
 1271SOL    HW2 3815   1.915   0.559   1.212
 1272SOL     OW 3816   2.051   0.520   1.722
 1272SOL    HW1 3817   2.110   0.480   1.652
 1272SOL    HW2 3818   1.993   0.591   1.681
 1273SOL     OW 3819   3.231   0.950   1.660
 1273SOL    HW1 3820   3.270   1.039   1.680
 1273SOL    HW2 3821   3.241   0.930   1.563
 1274SOL     OW 3822   2.677   0.572   0.325
 1274SOL    HW1 3823   2.684   0.483   0.279
 1274SOL    HW2 3824   2.583   0.606   0.317
 1275SOL     OW 3825   3.519   0.604   1.206
 1275SOL    HW1 3826   3.481   0.535   1.268
 1275SOL    HW2 3827   3.601   0.568   1.162
 1276SOL     OW 3828   2.114   1.564   1.744
 1276SOL    HW1 3829   2.084   1.621   1.820
 1276SOL    HW2 3830   2.107   1.467   1.770
 1277SOL     OW 3831   2.533   0.464   1.269
 1277SOL    HW1 3832   2.499   0.375   1.239
 1277SOL    HW2 3833   2.559   0.518   1.189
 1278SOL     OW 3834   2.792   1.678   1.465
 1278SOL    HW1 3835   2.768   1.660   1.370
 1278SOL    HW2 3836   2.822   1.772   1.475
 1279SOL     OW 3837   2.335   0.500   0.191
 1279SOL    HW1 3838   2.396   0.580   0.195
 1279SOL    HW2 3839   2.240   0.531   0.198
 1280SOL     OW 3840   2.021   1.137   1.466
 1280SOL    HW1 3841   2.043   1.076   1.542
 1280SOL    HW2 3842   2.031   1.088   1.380
 1281SOL     OW 3843   3.209   1.059   1.234
 1281SOL    HW1 3844   3.233   0.996   1.160
 1281SOL    HW2 3845   3.119   1.099   1.216
 1282SOL     OW 3846   3.164   0.855   0.309
 1282SOL    HW1 3847   3.078   0.824   0.351
 1282SOL    HW2 3848   3.160   0.841   0.210
 1283SOL     OW 3849   3.621   1.747   1.154
 1283SOL    HW1 3850   3.682   1.777   1.081
 1283SOL    HW2 3851   3.583   1.658   1.132
 1284SOL     OW 3852   3.114   1.731   1.128
 1284SOL    HW1 3853   3.198   1.736   1.074
 1284SOL    HW2 3854   3.091   1.635   1.146
 1285SOL     OW 3855   1.945   1.258   1.022
 1285SOL    HW1 3856   1.940   1.257   1.122
 1285SOL    HW2 3857   1.862   1.217   0.984
 1286SOL     OW 3858   2.550   1.662   1.716
 1286SOL    HW1 3859   2.494   1.743   1.725
 1286SOL    HW2 3860   2.602   1.666   1.630
 1287SOL     OW 3861   2.765   0.086   0.133
 1287SOL    HW1 3862   2.816   0.087   0.047
 1287SOL    HW2 3863   2.821   0.044   0.204
 1288SOL     OW 3864   3.588   0.135   0.523
 1288SOL    HW1 3865   3.661   0.118   0.456
 1288SOL    HW2 3866   3.557   0.048   0.561
 1289SOL     OW 3867   3.250   1.573   0.477
 1289SOL    HW1 3868   3.317   1.585   0.403
 1289SOL    HW2 3869   3.210   1.662   0.500
 1290SOL     OW 3870   1.992   1.794   1.851
 1290SOL    HW1 3871   1.951   1.720   1.904
 1290SOL    HW2 3872   2.056   1.845   1.909
 1291SOL     OW 3873   3.142   0.927   0.672
 1291SOL    HW1 3874   3.202   0.846   0.674
 1291SOL    HW2 3875   3.182   0.996   0.612
 1292SOL     OW 3876   2.692   1.273   1.422
 1292SOL    HW1 3877   2.687   1.306   1.517
 1292SOL    HW2 3878   2.606   1.292   1.376
 1293SOL     OW 3879   2.534   1.616   0.154
 1293SOL    HW1 3880   2.543   1.626   0.055
 1293SOL    HW2 3881   2.494   1.527   0.175
 1294SOL     OW 3882   3.512   1.720   1.394
 1294SOL    HW1 3883   3.565   1.730   1.310
 1294SOL    HW2 3884   3.485   1.810   1.428
 1295SOL     OW 3885   3.703   0.175   0.963
 1295SOL    HW1 3886   3.742   0.090   0.927
 1295SOL    HW2 3887   3.605   0.177   0.944
 1296SOL     OW 3888   2.125   0.326   0.720
 1296SOL    HW1 3889   2.046   0.377   0.686
 1296SOL    HW2 3890   2.116   0.311   0.818
 1297SOL     OW 3891   3.056   1.612   0.031
 1297SOL    HW1 3892   3.062   1.519   0.068
 1297SOL    HW2 3893   2.997   1.612  -0.049
 1298SOL     OW 3894   2.684   1.002   1.372
 1298SOL    HW1 3895   2.724   1.001   1.280
 1298SOL    HW2 3896   2.694   1.094   1.412
 1299SOL     OW 3897   2.778   0.910   0.291
 1299SOL    HW1 3898   2.841   0.948   0.223
 1299SOL    HW2 3899   2.818   0.827   0.330
 1300SOL     OW 3900   3.366   1.607   0.044
 1300SOL    HW1 3901   3.274   1.644   0.051
 1300SOL    HW2 3902   3.404   1.627  -0.046
 1301SOL     OW 3903   2.234   1.288   1.490
 1301SOL    HW1 3904   2.221   1.381   1.456
 1301SOL    HW2 3905   2.150   1.236   1.477
 1302SOL     OW 3906   3.476   1.292   1.289
 1302SOL    HW1 3907   3.536   1.295   1.369
 1302SOL    HW2 3908   3.401   1.356   1.302
 1303SOL     OW 3909   2.901   1.098   0.696
 1303SOL    HW1 3910   2.831   1.051   0.750
 1303SOL    HW2 3911   2.960   1.030   0.653
 1304SOL     OW 3912   2.876   0.236   0.971
 1304SOL    HW1 3913   2.868   0.200   0.878
 1304SOL    HW2 3914   2.874   0.160   1.036
 1305SOL     OW 3915   2.452   1.487   0.491
 1305SOL    HW1 3916   2.494   1.429   0.421
 1305SOL    HW2 3917   2.408   1.566   0.447
 1306SOL     OW 3918   3.571   0.385   1.381
 1306SOL    HW1 3919   3.644   0.454   1.385
 1306SOL    HW2 3920   3.599   0.310   1.322
 1307SOL     OW 3921   2.117   1.348   0.290
 1307SOL    HW1 3922   2.021   1.349   0.263
 1307SOL    HW2 3923   2.129   1.401   0.374
 1308SOL     OW 3924   1.967   1.013   1.726
 1308SOL    HW1 3925   1.890   0.980   1.780
 1308SOL    HW2 3926   2.052   0.983   1.768
 1309SOL     OW 3927   2.534   0.203   1.489
 1309SOL    HW1 3928   2.624   0.187   1.449
 1309SOL    HW2 3929   2.542   0.208   1.588
 1310SOL     OW 3930   1.937   0.345   0.033
 1310SOL    HW1 3931   1.845   0.317   0.004
 1310SOL    HW2 3932   1.968   0.422  -0.023
 1311SOL     OW 3933   3.302   0.856   1.398
 1311SOL    HW1 3934   3.245   0.908   1.335
 1311SOL    HW2 3935   3.398   0.868   1.374
 1312SOL     OW 3936   1.934   0.166   0.318
 1312SOL    HW1 3937   1.917   0.249   0.264
 1312SOL    HW2 3938   2.024   0.129   0.296
 1313SOL     OW 3939   3.045   1.335   0.119
 1313SOL    HW1 3940   2.946   1.324   0.121
 1313SOL    HW2 3941   3.079   1.350   0.212
 1314SOL     OW 3942   2.475   0.842   1.431
 1314SOL    HW1 3943   2.531   0.923   1.414
 1314SOL    HW2 3944   2.534   0.762   1.434
 1315SOL     OW 3945   3.355   1.767   0.959
 1315SOL    HW1 3946   3.388   1.831   0.890
 1315SOL    HW2 3947   3.421   1.761   1.034
 1316SOL     OW 3948   2.578   0.565   1.708
 1316SOL    HW1 3949   2.597   0.630   1.782
 1316SOL    HW2 3950   2.638   0.485   1.717
 1317SOL     OW 3951   3.312   1.220   1.633
 1317SOL    HW1 3952   3.303   1.210   1.732
 1317SOL    HW2 3953   3.408   1.213   1.607
 1318SOL     OW 3954   2.252   1.741   1.560
 1318SOL    HW1 3955   2.161   1.782   1.558
 1318SOL    HW2 3956   2.245   1.647   1.592
 1319SOL     OW 3957   3.536   0.883   1.254
 1319SOL    HW1 3958   3.509   0.794   1.217
 1319SOL    HW2 3959   3.537   0.951   1.181
 1320SOL     OW 3960   3.087   0.325   0.449
 1320SOL    HW1 3961   3.152   0.251   0.438
 1320SOL    HW2 3962   3.107   0.375   0.533
 1321SOL     OW 3963   2.456   0.745   0.652
 1321SOL    HW1 3964   2.506   0.830   0.633
 1321SOL    HW2 3965   2.368   0.747   0.604
 1322SOL     OW 3966   3.639   0.342   1.642
 1322SOL    HW1 3967   3.622   0.373   1.548
 1322SOL    HW2 3968   3.555   0.305   1.680
 1323SOL     OW 3969   3.592   0.934   1.517
 1323SOL    HW1 3970   3.630   1.025   1.532
 1323SOL    HW2 3971   3.584   0.917   1.418
 1324SOL     OW 3972   2.721   1.374   0.016
 1324SOL    HW1 3973   2.675   1.389   0.104
 1324SOL    HW2 3974   2.765   1.459  -0.014
 1325SOL     OW 3975   2.523   1.790   0.953
 1325SOL    HW1 3976   2.477   1.878   0.940
 1325SOL    HW2 3977   2.622   1.802   0.946
 1326SOL     OW 3978   2.721   0.956   0.861
 1326SOL    HW1 3979   2.775   0.887   0.909
 1326SOL    HW2 3980   2.689   1.025   0.927
 1327SOL     OW 3981   2.945   0.984   0.087
 1327SOL    HW1 3982   2.922   1.037   0.005
 1327SOL    HW2 3983   3.026   0.928   0.068
 1328SOL     OW 3984   3.723   1.569   0.851
 1328SOL    HW1 3985   3.652   1.557   0.781
 1328SOL    HW2 3986   3.724   1.490   0.911
 1329SOL     OW 3987   2.083   1.314   1.844
 1329SOL    HW1 3988   2.018   1.241   1.823
 1329SOL    HW2 3989   2.087   1.328   1.942
 1330SOL     OW 3990   1.941   1.240   0.653
 1330SOL    HW1 3991   1.940   1.193   0.741
 1330SOL    HW2 3992   2.023   1.212   0.602
 1331SOL     OW 3993   2.534   1.391   1.624
 1331SOL    HW1 3994   2.456   1.341   1.662
 1331SOL    HW2 3995   2.531   1.486   1.655
 1332SOL     OW 3996   3.686   0.192   1.227
 1332SOL    HW1 3997   3.682   0.102   1.271
 1332SOL    HW2 3998   3.689   0.181   1.128
 1333SOL     OW 3999   2.290   0.424   0.520
 1333SOL    HW1 4000   2.320   0.352   0.458
 1333SOL    HW2 4001   2.251   0.384   0.603
 1334SOL     OW 4002   3.567   1.487   1.104
 1334SOL    HW1 4003   3.474   1.462   1.077
 1334SOL    HW2 4004   3.593   1.437   1.186
 1335SOL     OW 4005   2.179   0.547   1.280
 1335SOL    HW1 4006   2.217   0.488   1.352
 1335SOL    HW2 4007   2.219   0.521   1.192
 1336SOL     OW 4008   2.674   1.586   0.687
 1336SOL    HW1 4009   2.706   1.596   0.593
 1336SOL    HW2 4010   2.595   1.524   0.689
 1337SOL     OW 4011   3.286   0.214   1.112
 1337SOL    HW1 4012   3.338   0.149   1.167
 1337SOL    HW2 4013   3.237   0.277   1.173
 1338SOL     OW 4014   2.863   0.034   1.154
 1338SOL    HW1 4015   2.800  -0.038   1.123
 1338SOL    HW2 4016   2.956  -0.002   1.154
 1339SOL     OW 4017   2.632   1.330   0.301
 1339SOL    HW1 4018   2.586   1.243   0.318
 1339SOL    HW2 4019   2.723   1.327   0.342
 1340SOL     OW 4020   2.480   1.567   1.284
 1340SOL    HW1 4021   2.475   1.649   1.341
 1340SOL    HW2 4022   2.569   1.564   1.239
 1341SOL     OW 4023   3.214   0.052   0.168
 1341SOL    HW1 4024   3.249   0.011   0.084
 1341SOL    HW2 4025   3.124   0.014   0.188
 1342SOL     OW 4026   3.162   0.453   0.691
 1342SOL    HW1 4027   3.103   0.533   0.695
 1342SOL    HW2 4028   3.177   0.418   0.784
 1343SOL     OW 4029   3.455   0.221   0.882
 1343SOL    HW1 4030   3.371   0.220   0.936
 1343SOL    HW2 4031   3.457   0.304   0.826
 1344SOL     OW 4032   1.901   1.077   0.300
 1344SOL    HW1 4033   2.000   1.066   0.291
 1344SOL    HW2 4034   1.861   0.991   0.332
 1345SOL     OW 4035   2.737   1.646   0.337
 1345SOL    HW1 4036   2.660   1.611   0.283
 1345SOL    HW2 4037   2.705   1.717   0.399
 1346SOL     OW 4038   2.092   0.628   1.975
 1346SOL    HW1 4039   1.999   0.626   2.012
 1346SOL    HW2 4040   2.093   0.589   1.883
 1347SOL     OW 4041   2.087   0.275   2.858
 1347SOL    HW1 4042   2.122   0.258   2.950
 1347SOL    HW2 4043   1.999   0.230   2.846
 1348SOL     OW 4044   1.881   0.368   2.509
 1348SOL    HW1 4045   1.799   0.411   2.548
 1348SOL    HW2 4046   1.853   0.295   2.446
 1349SOL     OW 4047   2.431   1.275   3.027
 1349SOL    HW1 4048   2.338   1.268   2.990
 1349SOL    HW2 4049   2.442   1.364   3.071
 1350SOL     OW 4050   3.417   1.511   2.565
 1350SOL    HW1 4051   3.360   1.495   2.646
 1350SOL    HW2 4052   3.358   1.521   2.485
 1351SOL     OW 4053   2.997   0.703   2.579
 1351SOL    HW1 4054   3.054   0.781   2.554
 1351SOL    HW2 4055   2.937   0.729   2.655
 1352SOL     OW 4056   3.617   0.607   2.093
 1352SOL    HW1 4057   3.605   0.594   1.994
 1352SOL    HW2 4058   3.587   0.526   2.142
 1353SOL     OW 4059   2.630   1.144   2.885
 1353SOL    HW1 4060   2.552   1.161   2.945
 1353SOL    HW2 4061   2.664   1.231   2.849
 1354SOL     OW 4062   2.712   0.798   3.685
 1354SOL    HW1 4063   2.708   0.874   3.750
 1354SOL    HW2 4064   2.734   0.834   3.594
 1355SOL     OW 4065   2.547   1.012   2.527
 1355SOL    HW1 4066   2.616   0.996   2.597
 1355SOL    HW2 4067   2.474   1.069   2.565
 1356SOL     OW 4068   2.548   1.161   3.665
 1356SOL    HW1 4069   2.608   1.240   3.679
 1356SOL    HW2 4070   2.462   1.192   3.624
 1357SOL     OW 4071   2.197   1.435   2.923
 1357SOL    HW1 4072   2.119   1.404   2.870
 1357SOL    HW2 4073   2.255   1.493   2.866
 1358SOL     OW 4074   3.322   1.505   3.201
 1358SOL    HW1 4075   3.346   1.599   3.227
 1358SOL    HW2 4076   3.306   1.451   3.283
 1359SOL     OW 4077   2.300   0.392   3.361
 1359SOL    HW1 4078   2.382   0.336   3.370
 1359SOL    HW2 4079   2.219   0.334   3.365
 1360SOL     OW 4080   3.465   0.447   2.599
 1360SOL    HW1 4081   3.391   0.493   2.549
 1360SOL    HW2 4082   3.516   0.515   2.652
 1361SOL     OW 4083   2.093   1.713   2.345
 1361SOL    HW1 4084   2.127   1.790   2.399
 1361SOL    HW2 4085   2.137   1.713   2.255
 1362SOL     OW 4086   2.989   1.341   3.552
 1362SOL    HW1 4087   3.036   1.341   3.640
 1362SOL    HW2 4088   2.941   1.254   3.541
 1363SOL     OW 4089   2.092   1.434   2.400
 1363SOL    HW1 4090   2.066   1.530   2.400
 1363SOL    HW2 4091   2.021   1.380   2.445
 1364SOL     OW 4092   2.102   1.091   2.748
 1364SOL    HW1 4093   2.116   1.007   2.800
 1364SOL    HW2 4094   2.047   1.155   2.803
 1365SOL     OW 4095   2.482   1.786   3.301
 1365SOL    HW1 4096   2.390   1.769   3.336
 1365SOL    HW2 4097   2.510   1.878   3.327
 1366SOL     OW 4098   2.468   0.964   1.985
 1366SOL    HW1 4099   2.475   1.048   1.931
 1366SOL    HW2 4100   2.514   0.977   2.073
 1367SOL     OW 4101   3.456   0.114   3.342
 1367SOL    HW1 4102   3.438   0.181   3.270
 1367SOL    HW2 4103   3.453   0.160   3.431
 1368SOL     OW 4104   1.984   0.643   2.425
 1368SOL    HW1 4105   1.939   0.555   2.442
 1368SOL    HW2 4106   1.983   0.697   2.509
 1369SOL     OW 4107   3.704   1.767   2.221
 1369SOL    HW1 4108   3.758   1.738   2.301
 1369SOL    HW2 4109   3.734   1.857   2.192
 1370SOL     OW 4110   1.889   1.596   1.979
 1370SOL    HW1 4111   1.870   1.500   2.000
 1370SOL    HW2 4112   1.856   1.654   2.054
 1371SOL     OW 4113   3.551   0.922   2.474
 1371SOL    HW1 4114   3.646   0.893   2.482
 1371SOL    HW2 4115   3.543   0.987   2.399
 1372SOL     OW 4116   3.503   1.108   2.294
 1372SOL    HW1 4117   3.589   1.110   2.242
 1372SOL    HW2 4118   3.517   1.155   2.382
 1373SOL     OW 4119   1.975   0.737   3.459
 1373SOL    HW1 4120   2.063   0.724   3.504
 1373SOL    HW2 4121   1.962   0.834   3.437
 1374SOL     OW 4122   2.475   1.365   2.588
 1374SOL    HW1 4123   2.426   1.278   2.597
 1374SOL    HW2 4124   2.452   1.408   2.501
 1375SOL     OW 4125   3.155   1.228   3.285
 1375SOL    HW1 4126   3.192   1.155   3.227
 1375SOL    HW2 4127   3.207   1.233   3.370
 1376SOL     OW 4128   2.671   0.004   2.364
 1376SOL    HW1 4129   2.711   0.095   2.355
 1376SOL    HW2 4130   2.571   0.012   2.370
 1377SOL     OW 4131   2.059   0.976   3.126
 1377SOL    HW1 4132   2.148   0.931   3.112
 1377SOL    HW2 4133   1.986   0.911   3.107
 1378SOL     OW 4134   3.387   0.999   2.052
 1378SOL    HW1 4135   3.324   0.923   2.065
 1378SOL    HW2 4136   3.435   1.017   2.138
 1379SOL     OW 4137   3.049   1.792   3.478
 1379SOL    HW1 4138   3.073   1.852   3.402
 1379SOL    HW2 4139   3.056   1.697   3.448
 1380SOL     OW 4140   2.179   0.251   3.663
 1380SOL    HW1 4141   2.250   0.322   3.669
 1380SOL    HW2 4142   2.091   0.290   3.691
 1381SOL     OW 4143   3.328   1.417   2.815
 1381SOL    HW1 4144   3.269   1.423   2.895
 1381SOL    HW2 4145   3.313   1.329   2.769
 1382SOL     OW 4146   3.529   1.714   2.434
 1382SOL    HW1 4147   3.488   1.691   2.346
 1382SOL    HW2 4148   3.511   1.640   2.499
 1383SOL     OW 4149   2.460   0.729   2.132
 1383SOL    HW1 4150   2.484   0.798   2.064
 1383SOL    HW2 4151   2.382   0.762   2.186
 1384SOL     OW 4152   3.143   0.345   2.806
 1384SOL    HW1 4153   3.057   0.295   2.793
 1384SOL    HW2 4154   3.205   0.291   2.862
 1385SOL     OW 4155   3.438   1.662   2.169
 1385SOL    HW1 4156   3.527   1.708   2.172
 1385SOL    HW2 4157   3.417   1.638   2.074
 1386SOL     OW 4158   2.669   0.605   3.327
 1386SOL    HW1 4159   2.622   0.602   3.416
 1386SOL    HW2 4160   2.618   0.550   3.261
 1387SOL     OW 4161   3.256   0.469   3.536
 1387SOL    HW1 4162   3.236   0.512   3.624
 1387SOL    HW2 4163   3.334   0.407   3.545
 1388SOL     OW 4164   2.835   0.890   3.434
 1388SOL    HW1 4165   2.881   0.806   3.405
 1388SOL    HW2 4166   2.779   0.924   3.359
 1389SOL     OW 4167   2.853   0.410   3.104
 1389SOL    HW1 4168   2.776   0.444   3.158
 1389SOL    HW2 4169   2.819   0.359   3.025
 1390SOL     OW 4170   2.903   0.701   2.291
 1390SOL    HW1 4171   2.929   0.697   2.387
 1390SOL    HW2 4172   2.818   0.650   2.277
 1391SOL     OW 4173   1.938   0.811   2.651
 1391SOL    HW1 4174   2.037   0.799   2.660
 1391SOL    HW2 4175   1.914   0.906   2.672
 1392SOL     OW 4176   1.992   1.821   3.433
 1392SOL    HW1 4177   1.982   1.806   3.532
 1392SOL    HW2 4178   1.906   1.857   3.397
 1393SOL     OW 4179   2.727   0.348   2.057
 1393SOL    HW1 4180   2.786   0.411   2.008
 1393SOL    HW2 4181   2.746   0.254   2.028
 1394SOL     OW 4182   3.581   0.585   3.693
 1394SOL    HW1 4183   3.555   0.674   3.657
 1394SOL    HW2 4184   3.579   0.517   3.620
 1395SOL     OW 4185   3.224   1.144   2.407
 1395SOL    HW1 4186   3.307   1.115   2.359
 1395SOL    HW2 4187   3.175   1.211   2.351
 1396SOL     OW 4188   2.412   0.196   2.747
 1396SOL    HW1 4189   2.407   0.191   2.847
 1396SOL    HW2 4190   2.414   0.292   2.718
 1397SOL     OW 4191   2.870   1.456   2.339
 1397SOL    HW1 4192   2.824   1.528   2.287
 1397SOL    HW2 4193   2.866   1.476   2.437
 1398SOL     OW 4194   2.213   1.801   2.715
 1398SOL    HW1 4195   2.263   1.715   2.721
 1398SOL    HW2 4196   2.278   1.878   2.712
 1399SOL     OW 4197   3.657   1.066   2.735
 1399SOL    HW1 4198   3.595   1.051   2.659
 1399SOL    HW2 4199   3.605   1.077   2.820
 1400SOL     OW 4200   3.089   1.550   3.368
 1400SOL    HW1 4201   3.095   1.473   3.432
 1400SOL    HW2 4202   3.037   1.524   3.288
 1401SOL     OW 4203   2.183   0.943   2.104
 1401SOL    HW1 4204   2.265   0.982   2.062
 1401SOL    HW2 4205   2.156   0.861   2.055
 1402SOL     OW 4206   3.320   0.735   2.590
 1402SOL    HW1 4207   3.315   0.670   2.665
 1402SOL    HW2 4208   3.400   0.794   2.603
 1403SOL     OW 4209   2.323   1.266   3.589
 1403SOL    HW1 4210   2.273   1.267   3.503
 1403SOL    HW2 4211   2.260   1.248   3.665
 1404SOL     OW 4212   2.973   1.776   2.099
 1404SOL    HW1 4213   2.913   1.714   2.149
 1404SOL    HW2 4214   3.004   1.732   2.014
 1405SOL     OW 4215   2.064   0.285   3.360
 1405SOL    HW1 4216   1.984   0.345   3.347
 1405SOL    HW2 4217   2.054   0.236   3.446
 1406SOL     OW 4218   3.494   1.377   1.943
 1406SOL    HW1 4219   3.462   1.471   1.933
 1406SOL    HW2 4220   3.418   1.314   1.931
 1407SOL     OW 4221   2.326   1.743   2.185
 1407SOL    HW1 4222   2.359   1.782   2.271
 1407SOL    HW2 4223   2.402   1.736   2.120
 1408SOL     OW 4224   3.262   0.107   2.288
 1408SOL    HW1 4225   3.238   0.070   2.198
 1408SOL    HW2 4226   3.361   0.123   2.292
 1409SOL     OW 4227   2.111   1.785   3.103
 1409SOL    HW1 4228   2.168   1.720   3.153
 1409SOL    HW2 4229   2.095   1.752   3.010
 1410SOL     OW 4230   2.802   1.698   2.766
 1410SOL    HW1 4231   2.882   1.641   2.787
 1410SOL    HW2 4232   2.753   1.658   2.689
 1411SOL     OW 4233   2.244   0.700   2.342
 1411SOL    HW1 4234   2.289   0.610   2.339
 1411SOL    HW2 4235   2.150   0.689   2.375
 1412SOL     OW 4236   3.409   0.222   3.591
 1412SOL    HW1 4237   3.404   0.259   3.683
 1412SOL    HW2 4238   3.337   0.153   3.579
 1413SOL     OW 4239   2.476   0.122   1.979
 1413SOL    HW1 4240   2.574   0.100   1.986
 1413SOL    HW2 4241   2.445   0.105   1.886
 1414SOL     OW 4242   2.643   0.264   3.611
 1414SOL    HW1 4243   2.710   0.203   3.654
 1414SOL    HW2 4244   2.570   0.283   3.676
 1415SOL     OW 4245   2.750   1.514   3.057
 1415SOL    HW1 4246   2.727   1.489   2.963
 1415SOL    HW2 4247   2.811   1.445   3.096
 1416SOL     OW 4248   3.213   0.590   3.295
 1416SOL    HW1 4249   3.241   0.547   3.380
 1416SOL    HW2 4250   3.238   0.686   3.296
 1417SOL     OW 4251   2.665   1.402   2.786
 1417SOL    HW1 4252   2.755   1.416   2.744
 1417SOL    HW2 4253   2.594   1.404   2.715
 1418SOL     OW 4254   2.784   0.503   2.761
 1418SOL    HW1 4255   2.759   0.494   2.665
 1418SOL    HW2 4256   2.832   0.421   2.792
 1419SOL     OW 4257   2.401   0.064   2.374
 1419SOL    HW1 4258   2.320   0.065   2.432
 1419SOL    HW2 4259   2.404   0.147   2.319
 1420SOL     OW 4260   3.296   1.188   1.903
 1420SOL    HW1 4261   3.328   1.112   1.960
 1420SOL    HW2 4262   3.204   1.215   1.933
 1421SOL     OW 4263   2.159   0.035   2.033
 1421SOL    HW1 4264   2.208   0.119   2.012
 1421SOL    HW2 4265   2.221  -0.030   2.078
 1422SOL     OW 4266   2.797   0.236   2.342
 1422SOL    HW1 4267   2.749   0.277   2.264
 1422SOL    HW2 4268   2.896   0.234   2.323
 1423SOL     OW 4269   2.938   0.683   3.326
 1423SOL    HW1 4270   2.858   0.622   3.329
 1423SOL    HW2 4271   3.019   0.630   3.302
 1424SOL     OW 4272   3.089   1.570   2.655
 1424SOL    HW1 4273   3.110   1.644   2.590
 1424SOL    HW2 4274   3.157   1.570   2.728
 1425SOL     OW 4275   2.321   1.152   2.603
 1425SOL    HW1 4276   2.250   1.125   2.668
 1425SOL    HW2 4277   2.295   1.124   2.510
 1426SOL     OW 4278   3.133   1.797   2.453
 1426SOL    HW1 4279   3.177   1.861   2.389
 1426SOL    HW2 4280   3.083   1.849   2.523
 1427SOL     OW 4281   2.894   0.549   1.878
 1427SOL    HW1 4282   2.853   0.631   1.839
 1427SOL    HW2 4283   2.958   0.575   1.951
 1428SOL     OW 4284   1.940   0.556   3.248
 1428SOL    HW1 4285   2.032   0.555   3.207
 1428SOL    HW2 4286   1.934   0.630   3.315
 1429SOL     OW 4287   2.423   0.222   3.009
 1429SOL    HW1 4288   2.461   0.138   3.046
 1429SOL    HW2 4289   2.335   0.241   3.053
 1430SOL     OW 4290   2.728   0.454   2.504
 1430SOL    HW1 4291   2.696   0.526   2.442
 1430SOL    HW2 4292   2.752   0.373   2.451
 1431SOL     OW 4293   2.879   0.039   2.615
 1431SOL    HW1 4294   2.807   0.044   2.546
 1431SOL    HW2 4295   2.855  -0.030   2.684
 1432SOL     OW 4296   3.291   1.173   2.729
 1432SOL    HW1 4297   3.236   1.089   2.722
 1432SOL    HW2 4298   3.317   1.202   2.637
 1433SOL     OW 4299   3.328   0.590   2.854
 1433SOL    HW1 4300   3.298   0.495   2.861
 1433SOL    HW2 4301   3.401   0.606   2.920
 1434SOL     OW 4302   3.719   0.833   2.239
 1434SOL    HW1 4303   3.761   0.769   2.303
 1434SOL    HW2 4304   3.681   0.782   2.161
 1435SOL     OW 4305   2.350   1.385   2.036
 1435SOL    HW1 4306   2.263   1.370   2.083
 1435SOL    HW2 4307   2.333   1.411   1.941
 1436SOL     OW 4308   3.526   1.280   2.519
 1436SOL    HW1 4309   3.625   1.288   2.533
 1436SOL    HW2 4310   3.481   1.364   2.550
 1437SOL     OW 4311   3.252   0.575   1.940
 1437SOL    HW1 4312   3.198   0.554   2.021
 1437SOL    HW2 4313   3.343   0.534   1.949
 1438SOL     OW 4314   2.389   0.256   2.190
 1438SOL    HW1 4315   2.416   0.197   2.115
 1438SOL    HW2 4316   2.389   0.351   2.159
 1439SOL     OW 4317   3.616   1.223   3.450
 1439SOL    HW1 4318   3.707   1.184   3.437
 1439SOL    HW2 4319   3.624   1.319   3.474
 1440SOL     OW 4320   2.926   1.347   3.202
 1440SOL    HW1 4321   2.846   1.324   3.257
 1440SOL    HW2 4322   3.009   1.321   3.251
 1441SOL     OW 4323   3.454   1.629   3.487
 1441SOL    HW1 4324   3.481   1.663   3.397
 1441SOL    HW2 4325   3.533   1.591   3.533
 1442SOL     OW 4326   2.973   1.195   2.962
 1442SOL    HW1 4327   2.933   1.239   3.043
 1442SOL    HW2 4328   2.932   1.232   2.879
 1443SOL     OW 4329   3.500   1.099   2.941
 1443SOL    HW1 4330   3.505   1.180   3.000
 1443SOL    HW2 4331   3.414   1.101   2.890
 1444SOL     OW 4332   2.777   0.089   3.264
 1444SOL    HW1 4333   2.802   0.069   3.169
 1444SOL    HW2 4334   2.849   0.145   3.306
 1445SOL     OW 4335   2.842   1.116   3.581
 1445SOL    HW1 4336   2.743   1.122   3.591
 1445SOL    HW2 4337   2.865   1.036   3.525
 1446SOL     OW 4338   2.567   1.050   2.230
 1446SOL    HW1 4339   2.553   1.057   2.329
 1446SOL    HW2 4340   2.651   0.999   2.212
 1447SOL     OW 4341   2.272   0.813   3.113
 1447SOL    HW1 4342   2.358   0.825   3.163
 1447SOL    HW2 4343   2.230   0.726   3.140
 1448SOL     OW 4344   3.136   0.386   3.124
 1448SOL    HW1 4345   3.157   0.460   3.188
 1448SOL    HW2 4346   3.047   0.403   3.081
 1449SOL     OW 4347   1.926   1.564   3.193
 1449SOL    HW1 4348   1.880   1.646   3.159
 1449SOL    HW2 4349   2.024   1.583   3.202
 1450SOL     OW 4350   2.229   1.100   2.363
 1450SOL    HW1 4351   2.222   1.183   2.307
 1450SOL    HW2 4352   2.233   1.020   2.303
 1451SOL     OW 4353   2.428   0.537   2.727
 1451SOL    HW1 4354   2.440   0.603   2.653
 1451SOL    HW2 4355   2.474   0.571   2.810
 1452SOL     OW 4356   3.114   1.348   2.250
 1452SOL    HW1 4357   3.164   1.425   2.290
 1452SOL    HW2 4358   3.019   1.350   2.282
 1453SOL     OW 4359   3.134   1.445   3.004
 1453SOL    HW1 4360   3.181   1.458   3.091
 1453SOL    HW2 4361   3.068   1.371   3.013
 1454SOL     OW 4362   3.444   0.639   2.334
 1454SOL    HW1 4363   3.413   0.700   2.407
 1454SOL    HW2 4364   3.494   0.691   2.265
 1455SOL     OW 4365   2.216   1.510   3.191
 1455SOL    HW1 4366   2.195   1.466   3.104
 1455SOL    HW2 4367   2.313   1.536   3.194
 1456SOL     OW 4368   2.264   0.751   3.460
 1456SOL    HW1 4369   2.332   0.806   3.413
 1456SOL    HW2 4370   2.304   0.663   3.487
 1457SOL     OW 4371   3.449   0.779   3.532
 1457SOL    HW1 4372   3.357   0.817   3.527
 1457SOL    HW2 4373   3.509   0.826   3.467
 1458SOL     OW 4374   2.875   0.105   3.632
 1458SOL    HW1 4375   2.881   0.190   3.580
 1458SOL    HW2 4376   2.907   0.029   3.575
 1459SOL     OW 4377   2.366   0.050   3.602
 1459SOL    HW1 4378   2.324  -0.007   3.532
 1459SOL    HW2 4379   2.300   0.119   3.634
 1460SOL     OW 4380   2.435   0.870   2.891
 1460SOL    HW1 4381   2.479   0.959   2.882
 1460SOL    HW2 4382   2.372   0.870   2.968
 1461SOL     OW 4383   3.222   0.862   2.907
 1461SOL    HW1 4384   3.147   0.862   2.841
 1461SOL    HW2 4385   3.259   0.770   2.916
 1462SOL     OW 4386   3.071   0.525   2.137
 1462SOL    HW1 4387   3.084   0.441   2.191
 1462SOL    HW2 4388   3.042   0.599   2.197
 1463SOL     OW 4389   2.169   0.213   3.093
 1463SOL    HW1 4390   2.146   0.250   3.183
 1463SOL    HW2 4391   2.139   0.118   3.087
 1464SOL     OW 4392   1.899   1.310   3.144
 1464SOL    HW1 4393   1.952   1.261   3.212
 1464SOL    HW2 4394   1.921   1.408   3.149
 1465SOL     OW 4395   2.594   0.634   2.926
 1465SOL    HW1 4396   2.653   0.608   2.850
 1465SOL    HW2 4397   2.566   0.730   2.915
 1466SOL     OW 4398   3.590   0.935   3.716
 1466SOL    HW1 4399   3.544   0.928   3.627
 1466SOL    HW2 4400   3.528   0.979   3.782
 1467SOL     OW 4401   2.169   0.063   2.480
 1467SOL    HW1 4402   2.158   0.157   2.513
 1467SOL    HW2 4403   2.164   0.000   2.557
 1468SOL     OW 4404   3.484   0.367   2.236
 1468SOL    HW1 4405   3.486   0.291   2.300
 1468SOL    HW2 4406   3.436   0.444   2.276
 1469SOL     OW 4407   2.885   0.766   2.828
 1469SOL    HW1 4408   2.900   0.787   2.924
 1469SOL    HW2 4409   2.855   0.671   2.819
 1470SOL     OW 4410   2.842   1.573   3.562
 1470SOL    HW1 4411   2.822   1.617   3.474
 1470SOL    HW2 4412   2.881   1.482   3.546
 1471SOL     OW 4413   3.721   1.518   3.467
 1471SOL    HW1 4414   3.735   1.545   3.372
 1471SOL    HW2 4415   3.804   1.540   3.520
 1472SOL     OW 4416   2.212   0.898   3.666
 1472SOL    HW1 4417   2.288   0.942   3.714
 1472SOL    HW2 4418   2.247   0.851   3.584
 1473SOL     OW 4419   3.402   0.274   1.987
 1473SOL    HW1 4420   3.341   0.199   2.010
 1473SOL    HW2 4421   3.424   0.326   2.070
 1474SOL     OW 4422   3.165   0.838   1.904
 1474SOL    HW1 4423   3.199   0.745   1.919
 1474SOL    HW2 4424   3.183   0.865   1.809
 1475SOL     OW 4425   2.930   1.333   2.711
 1475SOL    HW1 4426   2.937   1.249   2.656
 1475SOL    HW2 4427   2.992   1.402   2.675
 1476SOL     OW 4428   2.181   0.810   2.811
 1476SOL    HW1 4429   2.274   0.846   2.816
 1476SOL    HW2 4430   2.175   0.725   2.863
 1477SOL     OW 4431   2.201   0.509   2.868
 1477SOL    HW1 4432   2.149   0.426   2.851
 1477SOL    HW2 4433   2.278   0.514   2.804
 1478SOL     OW 4434   3.000   0.380   3.540
 1478SOL    HW1 4435   2.955   0.443   3.604
 1478SOL    HW2 4436   3.093   0.411   3.523
 1479SOL     OW 4437   3.022   0.207   3.339
 1479SOL    HW1 4438   3.022   0.271   3.416
 1479SOL    HW2 4439   3.050   0.255   3.256
 1480SOL     OW 4440   1.870   1.326   2.062
 1480SOL    HW1 4441   1.777   1.347   2.031
 1480SOL    HW2 4442   1.880   1.227   2.075
 1481SOL     OW 4443   1.950   1.801   2.789
 1481SOL    HW1 4444   1.908   1.715   2.762
 1481SOL    HW2 4445   2.044   1.804   2.755
 1482SOL     OW 4446   2.366   1.568   2.772
 1482SOL    HW1 4447   2.432   1.642   2.781
 1482SOL    HW2 4448   2.410   1.489   2.730
 1483SOL     OW 4449   2.864   0.796   3.100
 1483SOL    HW1 4450   2.905   0.764   3.186
 1483SOL    HW2 4451   2.768   0.769   3.097
 1484SOL     OW 4452   1.902   0.544   2.976
 1484SOL    HW1 4453   1.987   0.511   2.935
 1484SOL    HW2 4454   1.915   0.559   3.074
 1485SOL     OW 4455   2.051   0.520   3.584
 1485SOL    HW1 4456   2.110   0.480   3.514
 1485SOL    HW2 4457   1.993   0.591   3.543
 1486SOL     OW 4458   3.231   0.950   3.522
 1486SOL    HW1 4459   3.270   1.039   3.542
 1486SOL    HW2 4460   3.241   0.930   3.425
 1487SOL     OW 4461   2.677   0.572   2.187
 1487SOL    HW1 4462   2.684   0.483   2.141
 1487SOL    HW2 4463   2.583   0.606   2.179
 1488SOL     OW 4464   3.519   0.604   3.068
 1488SOL    HW1 4465   3.481   0.535   3.130
 1488SOL    HW2 4466   3.601   0.568   3.024
 1489SOL     OW 4467   2.114   1.564   3.606
 1489SOL    HW1 4468   2.084   1.621   3.682
 1489SOL    HW2 4469   2.107   1.467   3.632
 1490SOL     OW 4470   2.533   0.464   3.131
 1490SOL    HW1 4471   2.499   0.375   3.101
 1490SOL    HW2 4472   2.559   0.518   3.051
 1491SOL     OW 4473   2.792   1.678   3.327
 1491SOL    HW1 4474   2.768   1.660   3.232
 1491SOL    HW2 4475   2.822   1.772   3.337
 1492SOL     OW 4476   2.335   0.500   2.053
 1492SOL    HW1 4477   2.396   0.580   2.057
 1492SOL    HW2 4478   2.240   0.531   2.060
 1493SOL     OW 4479   2.021   1.137   3.328
 1493SOL    HW1 4480   2.043   1.076   3.404
 1493SOL    HW2 4481   2.031   1.088   3.242
 1494SOL     OW 4482   3.209   1.059   3.096
 1494SOL    HW1 4483   3.233   0.996   3.022
 1494SOL    HW2 4484   3.119   1.099   3.078
 1495SOL     OW 4485   3.164   0.855   2.171
 1495SOL    HW1 4486   3.078   0.824   2.213
 1495SOL    HW2 4487   3.160   0.841   2.072
 1496SOL     OW 4488   3.621   1.747   3.016
 1496SOL    HW1 4489   3.682   1.777   2.943
 1496SOL    HW2 4490   3.583   1.658   2.994
 1497SOL     OW 4491   3.114   1.731   2.990
 1497SOL    HW1 4492   3.198   1.736   2.936
 1497SOL    HW2 4493   3.091   1.635   3.008
 1498SOL     OW 4494   1.945   1.258   2.884
 1498SOL    HW1 4495   1.940   1.257   2.984
 1498SOL    HW2 4496   1.862   1.217   2.846
 1499SOL     OW 4497   2.550   1.662   3.578
 1499SOL    HW1 4498   2.494   1.743   3.587
 1499SOL    HW2 4499   2.602   1.666   3.492
 1500SOL     OW 4500   3.588   0.135   2.385
 1500SOL    HW1 4501   3.661   0.118   2.318
 1500SOL    HW2 4502   3.557   0.048   2.423
 1501SOL     OW 4503   3.250   1.573   2.339
 1501SOL    HW1 4504   3.317   1.585   2.265
 1501SOL    HW2 4505   3.210   1.662   2.362
 1502SOL     OW 4506   1.992   1.794   3.713
 1502SOL    HW1 4507   1.951   1.720   3.766
 1502SOL    HW2 4508   2.056   1.845   3.771
 1503SOL     OW 4509   3.142   0.927   2.534
 1503SOL    HW1 4510   3.202   0.846   2.536
 1503SOL    HW2 4511   3.182   0.996   2.474
 1504SOL     OW 4512   2.692   1.273   3.284
 1504SOL    HW1 4513   2.687   1.306   3.379
 1504SOL    HW2 4514   2.606   1.292   3.238
 1505SOL     OW 4515   2.534   1.616   2.016
 1505SOL    HW1 4516   2.543   1.626   1.917
 1505SOL    HW2 4517   2.494   1.527   2.037
 1506SOL     OW 4518   3.512   1.720   3.256
 1506SOL    HW1 4519   3.565   1.730   3.172
 1506SOL    HW2 4520   3.485   1.810   3.290
 1507SOL     OW 4521   3.703   0.175   2.825
 1507SOL    HW1 4522   3.742   0.090   2.789
 1507SOL    HW2 4523   3.605   0.177   2.806
 1508SOL     OW 4524   2.125   0.326   2.582
 1508SOL    HW1 4525   2.046   0.377   2.548
 1508SOL    HW2 4526   2.116   0.311   2.680
 1509SOL     OW 4527   3.056   1.612   1.893
 1509SOL    HW1 4528   3.062   1.519   1.930
 1509SOL    HW2 4529   2.997   1.612   1.813
 1510SOL     OW 4530   2.684   1.002   3.234
 1510SOL    HW1 4531   2.724   1.001   3.142
 1510SOL    HW2 4532   2.694   1.094   3.274
 1511SOL     OW 4533   2.778   0.910   2.153
 1511SOL    HW1 4534   2.841   0.948   2.085
 1511SOL    HW2 4535   2.818   0.827   2.192
 1512SOL     OW 4536   3.366   1.607   1.906
 1512SOL    HW1 4537   3.274   1.644   1.913
 1512SOL    HW2 4538   3.404   1.627   1.816
 1513SOL     OW 4539   2.234   1.288   3.352
 1513SOL    HW1 4540   2.221   1.381   3.318
 1513SOL    HW2 4541   2.150   1.236   3.339
 1514SOL     OW 4542   3.476   1.292   3.151
 1514SOL    HW1 4543   3.536   1.295   3.231
 1514SOL    HW2 4544   3.401   1.356   3.164
 1515SOL     OW 4545   2.901   1.098   2.558
 1515SOL    HW1 4546   2.831   1.051   2.612
 1515SOL    HW2 4547   2.960   1.030   2.515
 1516SOL     OW 4548   2.876   0.236   2.833
 1516SOL    HW1 4549   2.868   0.200   2.740
 1516SOL    HW2 4550   2.874   0.160   2.898
 1517SOL     OW 4551   2.452   1.487   2.353
 1517SOL    HW1 4552   2.494   1.429   2.283
 1517SOL    HW2 4553   2.408   1.566   2.309
 1518SOL     OW 4554   3.571   0.385   3.243
 1518SOL    HW1 4555   3.644   0.454   3.247
 1518SOL    HW2 4556   3.599   0.310   3.184
 1519SOL     OW 4557   2.117   1.348   2.152
 1519SOL    HW1 4558   2.021   1.349   2.125
 1519SOL    HW2 4559   2.129   1.401   2.236
 1520SOL     OW 4560   1.967   1.013   3.588
 1520SOL    HW1 4561   1.890   0.980   3.642
 1520SOL    HW2 4562   2.052   0.983   3.630
 1521SOL     OW 4563   2.534   0.203   3.351
 1521SOL    HW1 4564   2.624   0.187   3.311
 1521SOL    HW2 4565   2.542   0.208   3.450
 1522SOL     OW 4566   1.937   0.345   1.895
 1522SOL    HW1 4567   1.845   0.317   1.866
 1522SOL    HW2 4568   1.968   0.422   1.839
 1523SOL     OW 4569   3.302   0.856   3.260
 1523SOL    HW1 4570   3.245   0.908   3.197
 1523SOL    HW2 4571   3.398   0.868   3.236
 1524SOL     OW 4572   1.934   0.166   2.180
 1524SOL    HW1 4573   1.917   0.249   2.126
 1524SOL    HW2 4574   2.024   0.129   2.158
 1525SOL     OW 4575   3.045   1.335   1.981
 1525SOL    HW1 4576   2.946   1.324   1.983
 1525SOL    HW2 4577   3.079   1.350   2.074
 1526SOL     OW 4578   2.475   0.842   3.293
 1526SOL    HW1 4579   2.531   0.923   3.276
 1526SOL    HW2 4580   2.534   0.762   3.296
 1527SOL     OW 4581   3.355   1.767   2.821
 1527SOL    HW1 4582   3.388   1.831   2.752
 1527SOL    HW2 4583   3.421   1.761   2.896
 1528SOL     OW 4584   2.578   0.565   3.570
 1528SOL    HW1 4585   2.597   0.630   3.644
 1528SOL    HW2 4586   2.638   0.485   3.579
 1529SOL     OW 4587   3.312   1.220   3.495
 1529SOL    HW1 4588   3.303   1.210   3.594
 1529SOL    HW2 4589   3.408   1.213   3.469
 1530SOL     OW 4590   2.252   1.741   3.422
 1530SOL    HW1 4591   2.161   1.782   3.420
 1530SOL    HW2 4592   2.245   1.647   3.454
 1531SOL     OW 4593   3.536   0.883   3.116
 1531SOL    HW1 4594   3.509   0.794   3.079
 1531SOL    HW2 4595   3.537   0.951   3.043
 1532SOL     OW 4596   3.087   0.325   2.311
 1532SOL    HW1 4597   3.152   0.251   2.300
 1532SOL    HW2 4598   3.107   0.375   2.395
 1533SOL     OW 4599   2.456   0.745   2.514
 1533SOL    HW1 4600   2.506   0.830   2.495
 1533SOL    HW2 4601   2.368   0.747   2.466
 1534SOL     OW 4602   3.639   0.342   3.504
 1534SOL    HW1 4603   3.622   0.373   3.410
 1534SOL    HW2 4604   3.555   0.305   3.542
 1535SOL     OW 4605   3.592   0.934   3.379
 1535SOL    HW1 4606   3.630   1.025   3.394
 1535SOL    HW2 4607   3.584   0.917   3.280
 1536SOL     OW 4608   2.721   1.374   1.878
 1536SOL    HW1 4609   2.675   1.389   1.966
 1536SOL    HW2 4610   2.765   1.459   1.848
 1537SOL     OW 4611   2.523   1.790   2.815
 1537SOL    HW1 4612   2.477   1.878   2.802
 1537SOL    HW2 4613   2.622   1.802   2.808
 1538SOL     OW 4614   2.721   0.956   2.723
 1538SOL    HW1 4615   2.775   0.887   2.771
 1538SOL    HW2 4616   2.689   1.025   2.789
 1539SOL     OW 4617   2.945   0.984   1.949
 1539SOL    HW1 4618   2.922   1.037   1.867
 1539SOL    HW2 4619   3.026   0.928   1.930
 1540SOL     OW 4620   3.723   1.569   2.713
 1540SOL    HW1 4621   3.652   1.557   2.643
 1540SOL    HW2 4622   3.724   1.490   2.773
 1541SOL     OW 4623   2.083   1.314   3.706
 1541SOL    HW1 4624   2.018   1.241   3.685
 1541SOL    HW2 4625   2.087   1.328   3.804
 1542SOL     OW 4626   1.941   1.240   2.515
 1542SOL    HW1 4627   1.940   1.193   2.603
 1542SOL    HW2 4628   2.023   1.212   2.464
 1543SOL     OW 4629   2.534   1.391   3.486
 1543SOL    HW1 4630   2.456   1.341   3.524
 1543SOL    HW2 4631   2.531   1.486   3.517
 1544SOL     OW 4632   3.686   0.192   3.089
 1544SOL    HW1 4633   3.682   0.102   3.133
 1544SOL    HW2 4634   3.689   0.181   2.990
 1545SOL     OW 4635   2.290   0.424   2.382
 1545SOL    HW1 4636   2.320   0.352   2.320
 1545SOL    HW2 4637   2.251   0.384   2.465
 1546SOL     OW 4638   3.567   1.487   2.966
 1546SOL    HW1 4639   3.474   1.462   2.939
 1546SOL    HW2 4640   3.593   1.437   3.048
 1547SOL     OW 4641   2.179   0.547   3.142
 1547SOL    HW1 4642   2.217   0.488   3.214
 1547SOL    HW2 4643   2.219   0.521   3.054
 1548SOL     OW 4644   2.674   1.586   2.549
 1548SOL    HW1 4645   2.706   1.596   2.455
 1548SOL    HW2 4646   2.595   1.524   2.551
 1549SOL     OW 4647   3.286   0.214   2.974
 1549SOL    HW1 4648   3.338   0.149   3.029
 1549SOL    HW2 4649   3.237   0.277   3.035
 1550SOL     OW 4650   2.863   0.034   3.016
 1550SOL    HW1 4651   2.800  -0.038   2.985
 1550SOL    HW2 4652   2.956  -0.002   3.016
 1551SOL     OW 4653   2.632   1.330   2.163
 1551SOL    HW1 4654   2.586   1.243   2.180
 1551SOL    HW2 4655   2.723   1.327   2.204
 1552SOL     OW 4656   2.480   1.567   3.146
 1552SOL    HW1 4657   2.475   1.649   3.203
 1552SOL    HW2 4658   2.569   1.564   3.101
 1553SOL     OW 4659   3.214   0.052   2.030
 1553SOL    HW1 4660   3.249   0.011   1.946
 1553SOL    HW2 4661   3.124   0.014   2.050
 1554SOL     OW 4662   3.162   0.453   2.553
 1554SOL    HW1 4663   3.103   0.533   2.557
 1554SOL    HW2 4664   3.177   0.418   2.646
 1555SOL     OW 4665   3.455   0.221   2.744
 1555SOL    HW1 4666   3.371   0.220   2.798
 1555SOL    HW2 4667   3.457   0.304   2.688
 1556SOL     OW 4668   1.901   1.077   2.162
 1556SOL    HW1 4669   2.000   1.066   2.153
 1556SOL    HW2 4670   1.861   0.991   2.194
 1557SOL     OW 4671   2.737   1.646   2.199
 1557SOL    HW1 4672   2.660   1.611   2.145
 1557SOL    HW2 4673   2.705   1.717   2.261
 1558SOL     OW 4674   2.092   0.628   3.837
 1558SOL    HW1 4675   1.999   0.626   3.874
 1558SOL    HW2 4676   2.093   0.589   3.745
 1559SOL     OW 4677   3.617   0.607   3.955
 1559SOL    HW1 4678   3.605   0.594   3.856
 1559SOL    HW2 4679   3.587   0.526   4.004
 1560SOL     OW 4680   2.093   1.713   4.207
 1560SOL    HW1 4681   2.127   1.790   4.261
 1560SOL    HW2 4682   2.137   1.713   4.117
 1561SOL     OW 4683   2.092   1.434   4.262
 1561SOL    HW1 4684   2.066   1.530   4.262
 1561SOL    HW2 4685   2.021   1.380   4.307
 1562SOL     OW 4686   2.468   0.964   3.847
 1562SOL    HW1 4687   2.475   1.048   3.793
 1562SOL    HW2 4688   2.514   0.977   3.935
 1563SOL     OW 4689   3.704   1.767   4.083
 1563SOL    HW1 4690   3.758   1.738   4.163
 1563SOL    HW2 4691   3.734   1.857   4.054
 1564SOL     OW 4692   1.889   1.596   3.841
 1564SOL    HW1 4693   1.870   1.500   3.862
 1564SOL    HW2 4694   1.856   1.654   3.916
 1565SOL     OW 4695   3.551   0.922   4.336
 1565SOL    HW1 4696   3.646   0.893   4.344
 1565SOL    HW2 4697   3.543   0.987   4.261
 1566SOL     OW 4698   3.503   1.108   4.156
 1566SOL    HW1 4699   3.589   1.110   4.104
 1566SOL    HW2 4700   3.517   1.155   4.244
 1567SOL     OW 4701   2.671   0.004   4.226
 1567SOL    HW1 4702   2.711   0.095   4.217
 1567SOL    HW2 4703   2.571   0.012   4.232
 1568SOL     OW 4704   3.387   0.999   3.914
 1568SOL    HW1 4705   3.324   0.923   3.927
 1568SOL    HW2 4706   3.435   1.017   4.000
 1569SOL     OW 4707   2.460   0.729   3.994
 1569SOL    HW1 4708   2.484   0.798   3.926
 1569SOL    HW2 4709   2.382   0.762   4.048
 1570SOL     OW 4710   3.438   1.662   4.031
 1570SOL    HW1 4711   3.527   1.708   4.034
 1570SOL    HW2 4712   3.417   1.638   3.936
 1571SOL     OW 4713   2.727   0.348   3.919
 1571SOL    HW1 4714   2.786   0.411   3.870
 1571SOL    HW2 4715   2.746   0.254   3.890
 1572SOL     OW 4716   2.183   0.943   3.966
 1572SOL    HW1 4717   2.265   0.982   3.924
 1572SOL    HW2 4718   2.156   0.861   3.917
 1573SOL     OW 4719   3.320   0.735   4.452
 1573SOL    HW1 4720   3.315   0.670   4.527
 1573SOL    HW2 4721   3.400   0.794   4.465
 1574SOL     OW 4722   2.973   1.776   3.961
 1574SOL    HW1 4723   2.913   1.714   4.011
 1574SOL    HW2 4724   3.004   1.732   3.876
 1575SOL     OW 4725   3.494   1.377   3.805
 1575SOL    HW1 4726   3.462   1.471   3.795
 1575SOL    HW2 4727   3.418   1.314   3.793
 1576SOL     OW 4728   2.326   1.743   4.047
 1576SOL    HW1 4729   2.359   1.782   4.133
 1576SOL    HW2 4730   2.402   1.736   3.982
 1577SOL     OW 4731   3.262   0.107   4.150
 1577SOL    HW1 4732   3.238   0.070   4.060
 1577SOL    HW2 4733   3.361   0.123   4.154
 1578SOL     OW 4734   2.244   0.700   4.204
 1578SOL    HW1 4735   2.289   0.610   4.201
 1578SOL    HW2 4736   2.150   0.689   4.237
 1579SOL     OW 4737   2.476   0.122   3.841
 1579SOL    HW1 4738   2.574   0.100   3.848
 1579SOL    HW2 4739   2.445   0.105   3.748
 1580SOL     OW 4740   3.296   1.188   3.765
 1580SOL    HW1 4741   3.328   1.112   3.822
 1580SOL    HW2 4742   3.204   1.215   3.795
 1581SOL     OW 4743   2.159   0.035   3.895
 1581SOL    HW1 4744   2.208   0.119   3.874
 1581SOL    HW2 4745   2.221  -0.030   3.940
 1582SOL     OW 4746   2.797   0.236   4.204
 1582SOL    HW1 4747   2.749   0.277   4.126
 1582SOL    HW2 4748   2.896   0.234   4.185
 1583SOL     OW 4749   2.321   1.152   4.465
 1583SOL    HW1 4750   2.250   1.125   4.530
 1583SOL    HW2 4751   2.295   1.124   4.372
 1584SOL     OW 4752   3.133   1.797   4.315
 1584SOL    HW1 4753   3.177   1.861   4.251
 1584SOL    HW2 4754   3.083   1.849   4.385
 1585SOL     OW 4755   2.894   0.549   3.740
 1585SOL    HW1 4756   2.853   0.631   3.701
 1585SOL    HW2 4757   2.958   0.575   3.813
 1586SOL     OW 4758   3.291   1.173   4.591
 1586SOL    HW1 4759   3.236   1.089   4.584
 1586SOL    HW2 4760   3.317   1.202   4.499
 1587SOL     OW 4761   3.719   0.833   4.101
 1587SOL    HW1 4762   3.761   0.769   4.165
 1587SOL    HW2 4763   3.681   0.782   4.023
 1588SOL     OW 4764   2.350   1.385   3.898
 1588SOL    HW1 4765   2.263   1.370   3.945
 1588SOL    HW2 4766   2.333   1.411   3.803
 1589SOL     OW 4767   3.252   0.575   3.802
 1589SOL    HW1 4768   3.198   0.554   3.883
 1589SOL    HW2 4769   3.343   0.534   3.811
 1590SOL     OW 4770   2.389   0.256   4.052
 1590SOL    HW1 4771   2.416   0.197   3.977
 1590SOL    HW2 4772   2.389   0.351   4.021
 1591SOL     OW 4773   2.567   1.050   4.092
 1591SOL    HW1 4774   2.553   1.057   4.191
 1591SOL    HW2 4775   2.651   0.999   4.074
 1592SOL     OW 4776   2.229   1.100   4.225
 1592SOL    HW1 4777   2.222   1.183   4.169
 1592SOL    HW2 4778   2.233   1.020   4.165
 1593SOL     OW 4779   3.114   1.348   4.112
 1593SOL    HW1 4780   3.164   1.425   4.152
 1593SOL    HW2 4781   3.019   1.350   4.144
 1594SOL     OW 4782   3.444   0.639   4.196
 1594SOL    HW1 4783   3.413   0.700   4.269
 1594SOL    HW2 4784   3.494   0.691   4.127
 1595SOL     OW 4785   3.071   0.525   3.999
 1595SOL    HW1 4786   3.084   0.441   4.053
 1595SOL    HW2 4787   3.042   0.599   4.059
 1596SOL     OW 4788   3.484   0.367   4.098
 1596SOL    HW1 4789   3.486   0.291   4.162
 1596SOL    HW2 4790   3.436   0.444   4.138
 1597SOL     OW 4791   3.402   0.274   3.849
 1597SOL    HW1 4792   3.341   0.199   3.872
 1597SOL    HW2 4793   3.424   0.326   3.932
 1598SOL     OW 4794   3.165   0.838   3.766
 1598SOL    HW1 4795   3.199   0.745   3.781
 1598SOL    HW2 4796   3.183   0.865   3.671
 1599SOL     OW 4797   1.870   1.326   3.924
 1599SOL    HW1 4798   1.777   1.347   3.893
 1599SOL    HW2 4799   1.880   1.227   3.937
 1600SOL     OW 4800   2.677   0.572   4.049
 1600SOL    HW1 4801   2.684   0.483   4.003
 1600SOL    HW2 4802   2.583   0.606   4.041
 1601SOL     OW 4803   2.335   0.500   3.915
 1601SOL    HW1 4804   2.396   0.580   3.919
 1601SOL    HW2 4805   2.240   0.531   3.922
 1602SOL     OW 4806   3.164   0.855   4.033
 1602SOL    HW1 4807   3.078   0.824   4.075
 1602SOL    HW2 4808   3.160   0.841   3.934
 1603SOL     OW 4809   3.588   0.135   4.247
 1603SOL    HW1 4810   3.661   0.118   4.180
 1603SOL    HW2 4811   3.557   0.048   4.285
 1604SOL     OW 4812   2.534   1.616   3.878
 1604SOL    HW1 4813   2.543   1.626   3.779
 1604SOL    HW2 4814   2.494   1.527   3.899
 1605SOL     OW 4815   3.056   1.612   3.755
 1605SOL    HW1 4816   3.062   1.519   3.792
 1605SOL    HW2 4817   2.997   1.612   3.675
 1606SOL     OW 4818   2.778   0.910   4.015
 1606SOL    HW1 4819   2.841   0.948   3.947
 1606SOL    HW2 4820   2.818   0.827   4.054
 1607SOL     OW 4821   3.366   1.607   3.768
 1607SOL    HW1 4822   3.274   1.644   3.775
 1607SOL    HW2 4823   3.404   1.627   3.678
 1608SOL     OW 4824   2.452   1.487   4.215
 1608SOL    HW1 4825   2.494   1.429   4.145
 1608SOL    HW2 4826   2.408   1.566   4.171
 1609SOL     OW 4827   2.117   1.348   4.014
 1609SOL    HW1 4828   2.021   1.349   3.987
 1609SOL    HW2 4829   2.129   1.401   4.098
 1610SOL     OW 4830   1.937   0.345   3.757
 1610SOL    HW1 4831   1.845   0.317   3.728
 1610SOL    HW2 4832   1.968   0.422   3.701
 1611SOL     OW 4833   1.934   0.166   4.042
 1611SOL    HW1 4834   1.917   0.249   3.988
 1611SOL    HW2 4835   2.024   0.129   4.020
 1612SOL     OW 4836   3.045   1.335   3.843
 1612SOL    HW1 4837   2.946   1.324   3.845
 1612SOL    HW2 4838   3.079   1.350   3.936
 1613SOL     OW 4839   3.087   0.325   4.173
 1613SOL    HW1 4840   3.152   0.251   4.162
 1613SOL    HW2 4841   3.107   0.375   4.257
 1614SOL     OW 4842   2.721   1.374   3.740
 1614SOL    HW1 4843   2.675   1.389   3.828
 1614SOL    HW2 4844   2.765   1.459   3.710
 1615SOL     OW 4845   2.945   0.984   3.811
 1615SOL    HW1 4846   2.922   1.037   3.729
 1615SOL    HW2 4847   3.026   0.928   3.792
 1616SOL     OW 4848   2.290   0.424   4.244
 1616SOL    HW1 4849   2.320   0.352   4.182
 1616SOL    HW2 4850   2.251   0.384   4.327
 1617SOL     OW 4851   2.632   1.330   4.025
 1617SOL    HW1 4852   2.586   1.243   4.042
 1617SOL    HW2 4853   2.723   1.327   4.066
 1618SOL     OW 4854   3.214   0.052   3.892
 1618SOL    HW1 4855   3.249   0.011   3.808
 1618SOL    HW2 4856   3.124   0.014   3.912
 1619SOL     OW 4857   1.901   1.077   4.024
 1619SOL    HW1 4858   2.000   1.066   4.015
 1619SOL    HW2 4859   1.861   0.991   4.056
 1620SOL     OW 4860   2.737   1.646   4.061
 1620SOL    HW1 4861   2.660   1.611   4.007
 1620SOL    HW2 4862   2.705   1.717   4.123
 1621SOL     OW 4863   2.092   2.490   0.113
 1621SOL    HW1 4864   1.999   2.488   0.150
 1621SOL    HW2 4865   2.093   2.451   0.021
 1622SOL     OW 4866   2.087   2.137   0.996
 1622SOL    HW1 4867   2.122   2.120   1.088
 1622SOL    HW2 4868   1.999   2.092   0.984
 1623SOL     OW 4869   1.881   2.230   0.647
 1623SOL    HW1 4870   1.799   2.273   0.686
 1623SOL    HW2 4871   1.853   2.157   0.584
 1624SOL     OW 4872   2.431   3.137   1.165
 1624SOL    HW1 4873   2.338   3.130   1.128
 1624SOL    HW2 4874   2.442   3.226   1.209
 1625SOL     OW 4875   3.417   3.373   0.703
 1625SOL    HW1 4876   3.360   3.357   0.784
 1625SOL    HW2 4877   3.358   3.383   0.623
 1626SOL     OW 4878   2.997   2.565   0.717
 1626SOL    HW1 4879   3.054   2.643   0.692
 1626SOL    HW2 4880   2.937   2.591   0.793
 1627SOL     OW 4881   3.617   2.469   0.231
 1627SOL    HW1 4882   3.605   2.456   0.132
 1627SOL    HW2 4883   3.587   2.388   0.280
 1628SOL     OW 4884   2.630   3.006   1.023
 1628SOL    HW1 4885   2.552   3.023   1.083
 1628SOL    HW2 4886   2.664   3.093   0.987
 1629SOL     OW 4887   2.712   2.660   1.823
 1629SOL    HW1 4888   2.708   2.736   1.888
 1629SOL    HW2 4889   2.734   2.696   1.732
 1630SOL     OW 4890   2.547   2.874   0.665
 1630SOL    HW1 4891   2.616   2.858   0.735
 1630SOL    HW2 4892   2.474   2.931   0.703
 1631SOL     OW 4893   2.548   3.023   1.803
 1631SOL    HW1 4894   2.608   3.102   1.817
 1631SOL    HW2 4895   2.462   3.054   1.762
 1632SOL     OW 4896   2.197   3.297   1.061
 1632SOL    HW1 4897   2.119   3.266   1.008
 1632SOL    HW2 4898   2.255   3.355   1.004
 1633SOL     OW 4899   3.322   3.367   1.339
 1633SOL    HW1 4900   3.346   3.461   1.365
 1633SOL    HW2 4901   3.306   3.313   1.421
 1634SOL     OW 4902   2.300   2.254   1.499
 1634SOL    HW1 4903   2.382   2.198   1.508
 1634SOL    HW2 4904   2.219   2.196   1.503
 1635SOL     OW 4905   3.465   2.309   0.737
 1635SOL    HW1 4906   3.391   2.355   0.687
 1635SOL    HW2 4907   3.516   2.377   0.790
 1636SOL     OW 4908   2.093   3.575   0.483
 1636SOL    HW1 4909   2.127   3.652   0.537
 1636SOL    HW2 4910   2.137   3.575   0.393
 1637SOL     OW 4911   2.989   3.203   1.690
 1637SOL    HW1 4912   3.036   3.203   1.778
 1637SOL    HW2 4913   2.941   3.116   1.679
 1638SOL     OW 4914   2.092   3.296   0.538
 1638SOL    HW1 4915   2.066   3.392   0.538
 1638SOL    HW2 4916   2.021   3.242   0.583
 1639SOL     OW 4917   2.102   2.953   0.886
 1639SOL    HW1 4918   2.116   2.869   0.938
 1639SOL    HW2 4919   2.047   3.017   0.941
 1640SOL     OW 4920   2.482   3.648   1.439
 1640SOL    HW1 4921   2.390   3.631   1.474
 1640SOL    HW2 4922   2.510   3.740   1.465
 1641SOL     OW 4923   2.468   2.826   0.123
 1641SOL    HW1 4924   2.475   2.910   0.069
 1641SOL    HW2 4925   2.514   2.839   0.211
 1642SOL     OW 4926   3.456   1.976   1.480
 1642SOL    HW1 4927   3.438   2.043   1.408
 1642SOL    HW2 4928   3.453   2.022   1.569
 1643SOL     OW 4929   1.984   2.505   0.563
 1643SOL    HW1 4930   1.939   2.417   0.580
 1643SOL    HW2 4931   1.983   2.559   0.647
 1644SOL     OW 4932   3.704   3.629   0.359
 1644SOL    HW1 4933   3.758   3.600   0.439
 1644SOL    HW2 4934   3.734   3.719   0.330
 1645SOL     OW 4935   1.889   3.458   0.117
 1645SOL    HW1 4936   1.870   3.362   0.138
 1645SOL    HW2 4937   1.856   3.516   0.192
 1646SOL     OW 4938   3.551   2.784   0.612
 1646SOL    HW1 4939   3.646   2.755   0.620
 1646SOL    HW2 4940   3.543   2.849   0.537
 1647SOL     OW 4941   3.503   2.970   0.432
 1647SOL    HW1 4942   3.589   2.972   0.380
 1647SOL    HW2 4943   3.517   3.017   0.520
 1648SOL     OW 4944   1.975   2.599   1.597
 1648SOL    HW1 4945   2.063   2.586   1.642
 1648SOL    HW2 4946   1.962   2.696   1.575
 1649SOL     OW 4947   2.475   3.227   0.726
 1649SOL    HW1 4948   2.426   3.140   0.735
 1649SOL    HW2 4949   2.452   3.270   0.639
 1650SOL     OW 4950   3.155   3.090   1.423
 1650SOL    HW1 4951   3.192   3.017   1.365
 1650SOL    HW2 4952   3.207   3.095   1.508
 1651SOL     OW 4953   2.671   1.866   0.502
 1651SOL    HW1 4954   2.711   1.957   0.493
 1651SOL    HW2 4955   2.571   1.874   0.508
 1652SOL     OW 4956   2.059   2.838   1.264
 1652SOL    HW1 4957   2.148   2.793   1.250
 1652SOL    HW2 4958   1.986   2.773   1.245
 1653SOL     OW 4959   3.387   2.861   0.190
 1653SOL    HW1 4960   3.324   2.785   0.203
 1653SOL    HW2 4961   3.435   2.879   0.276
 1654SOL     OW 4962   3.049   3.654   1.616
 1654SOL    HW1 4963   3.073   3.714   1.540
 1654SOL    HW2 4964   3.056   3.559   1.586
 1655SOL     OW 4965   2.179   2.113   1.801
 1655SOL    HW1 4966   2.250   2.184   1.807
 1655SOL    HW2 4967   2.091   2.152   1.829
 1656SOL     OW 4968   3.328   3.279   0.953
 1656SOL    HW1 4969   3.269   3.285   1.033
 1656SOL    HW2 4970   3.313   3.191   0.907
 1657SOL     OW 4971   3.529   3.576   0.572
 1657SOL    HW1 4972   3.488   3.553   0.484
 1657SOL    HW2 4973   3.511   3.502   0.637
 1658SOL     OW 4974   2.460   2.591   0.270
 1658SOL    HW1 4975   2.484   2.660   0.202
 1658SOL    HW2 4976   2.382   2.624   0.324
 1659SOL     OW 4977   3.143   2.207   0.944
 1659SOL    HW1 4978   3.057   2.157   0.931
 1659SOL    HW2 4979   3.205   2.153   1.000
 1660SOL     OW 4980   3.438   3.524   0.307
 1660SOL    HW1 4981   3.527   3.570   0.310
 1660SOL    HW2 4982   3.417   3.500   0.212
 1661SOL     OW 4983   2.669   2.467   1.465
 1661SOL    HW1 4984   2.622   2.464   1.554
 1661SOL    HW2 4985   2.618   2.412   1.399
 1662SOL     OW 4986   3.256   2.331   1.674
 1662SOL    HW1 4987   3.236   2.374   1.762
 1662SOL    HW2 4988   3.334   2.269   1.683
 1663SOL     OW 4989   2.835   2.752   1.572
 1663SOL    HW1 4990   2.881   2.668   1.543
 1663SOL    HW2 4991   2.779   2.786   1.497
 1664SOL     OW 4992   2.853   2.272   1.242
 1664SOL    HW1 4993   2.776   2.306   1.296
 1664SOL    HW2 4994   2.819   2.221   1.163
 1665SOL     OW 4995   2.903   2.563   0.429
 1665SOL    HW1 4996   2.929   2.559   0.525
 1665SOL    HW2 4997   2.818   2.512   0.415
 1666SOL     OW 4998   1.938   2.673   0.789
 1666SOL    HW1 4999   2.037   2.661   0.798
 1666SOL    HW2 5000   1.914   2.768   0.810
 1667SOL     OW 5001   1.992   3.683   1.571
 1667SOL    HW1 5002   1.982   3.668   1.670
 1667SOL    HW2 5003   1.906   3.719   1.535
 1668SOL     OW 5004   2.727   2.210   0.195
 1668SOL    HW1 5005   2.786   2.273   0.146
 1668SOL    HW2 5006   2.746   2.116   0.166
 1669SOL     OW 5007   3.581   2.447   1.831
 1669SOL    HW1 5008   3.555   2.536   1.795
 1669SOL    HW2 5009   3.579   2.379   1.758
 1670SOL     OW 5010   3.224   3.006   0.545
 1670SOL    HW1 5011   3.307   2.977   0.497
 1670SOL    HW2 5012   3.175   3.073   0.489
 1671SOL     OW 5013   2.412   2.058   0.885
 1671SOL    HW1 5014   2.407   2.053   0.985
 1671SOL    HW2 5015   2.414   2.154   0.856
 1672SOL     OW 5016   2.870   3.318   0.477
 1672SOL    HW1 5017   2.824   3.390   0.425
 1672SOL    HW2 5018   2.866   3.338   0.575
 1673SOL     OW 5019   2.213   3.663   0.853
 1673SOL    HW1 5020   2.263   3.577   0.859
 1673SOL    HW2 5021   2.278   3.740   0.850
 1674SOL     OW 5022   3.657   2.928   0.873
 1674SOL    HW1 5023   3.595   2.913   0.797
 1674SOL    HW2 5024   3.605   2.939   0.958
 1675SOL     OW 5025   3.089   3.412   1.506
 1675SOL    HW1 5026   3.095   3.335   1.570
 1675SOL    HW2 5027   3.037   3.386   1.426
 1676SOL     OW 5028   2.183   2.805   0.242
 1676SOL    HW1 5029   2.265   2.844   0.200
 1676SOL    HW2 5030   2.156   2.723   0.193
 1677SOL     OW 5031   3.320   2.597   0.728
 1677SOL    HW1 5032   3.315   2.532   0.803
 1677SOL    HW2 5033   3.400   2.656   0.741
 1678SOL     OW 5034   2.323   3.128   1.727
 1678SOL    HW1 5035   2.273   3.129   1.641
 1678SOL    HW2 5036   2.260   3.110   1.803
 1679SOL     OW 5037   2.973   3.638   0.237
 1679SOL    HW1 5038   2.913   3.576   0.287
 1679SOL    HW2 5039   3.004   3.594   0.152
 1680SOL     OW 5040   2.064   2.147   1.498
 1680SOL    HW1 5041   1.984   2.207   1.485
 1680SOL    HW2 5042   2.054   2.098   1.584
 1681SOL     OW 5043   3.494   3.239   0.081
 1681SOL    HW1 5044   3.462   3.333   0.071
 1681SOL    HW2 5045   3.418   3.176   0.069
 1682SOL     OW 5046   2.326   3.605   0.323
 1682SOL    HW1 5047   2.359   3.644   0.409
 1682SOL    HW2 5048   2.402   3.598   0.258
 1683SOL     OW 5049   3.262   1.969   0.426
 1683SOL    HW1 5050   3.238   1.932   0.336
 1683SOL    HW2 5051   3.361   1.985   0.430
 1684SOL     OW 5052   2.111   3.647   1.241
 1684SOL    HW1 5053   2.168   3.582   1.291
 1684SOL    HW2 5054   2.095   3.614   1.148
 1685SOL     OW 5055   2.802   3.560   0.904
 1685SOL    HW1 5056   2.882   3.503   0.925
 1685SOL    HW2 5057   2.753   3.520   0.827
 1686SOL     OW 5058   2.244   2.562   0.480
 1686SOL    HW1 5059   2.289   2.472   0.477
 1686SOL    HW2 5060   2.150   2.551   0.513
 1687SOL     OW 5061   3.409   2.084   1.729
 1687SOL    HW1 5062   3.404   2.121   1.821
 1687SOL    HW2 5063   3.337   2.015   1.717
 1688SOL     OW 5064   2.476   1.984   0.117
 1688SOL    HW1 5065   2.574   1.962   0.124
 1688SOL    HW2 5066   2.445   1.967   0.024
 1689SOL     OW 5067   2.643   2.126   1.749
 1689SOL    HW1 5068   2.710   2.065   1.792
 1689SOL    HW2 5069   2.570   2.145   1.814
 1690SOL     OW 5070   2.750   3.376   1.195
 1690SOL    HW1 5071   2.727   3.351   1.101
 1690SOL    HW2 5072   2.811   3.307   1.234
 1691SOL     OW 5073   3.213   2.452   1.433
 1691SOL    HW1 5074   3.241   2.409   1.518
 1691SOL    HW2 5075   3.238   2.548   1.434
 1692SOL     OW 5076   2.665   3.264   0.924
 1692SOL    HW1 5077   2.755   3.278   0.882
 1692SOL    HW2 5078   2.594   3.266   0.853
 1693SOL     OW 5079   2.784   2.365   0.899
 1693SOL    HW1 5080   2.759   2.356   0.803
 1693SOL    HW2 5081   2.832   2.283   0.930
 1694SOL     OW 5082   2.401   1.926   0.512
 1694SOL    HW1 5083   2.320   1.927   0.570
 1694SOL    HW2 5084   2.404   2.009   0.457
 1695SOL     OW 5085   3.296   3.050   0.041
 1695SOL    HW1 5086   3.328   2.974   0.098
 1695SOL    HW2 5087   3.204   3.077   0.071
 1696SOL     OW 5088   2.159   1.897   0.171
 1696SOL    HW1 5089   2.208   1.981   0.150
 1696SOL    HW2 5090   2.221   1.832   0.216
 1697SOL     OW 5091   2.797   2.098   0.480
 1697SOL    HW1 5092   2.749   2.139   0.402
 1697SOL    HW2 5093   2.896   2.096   0.461
 1698SOL     OW 5094   2.938   2.545   1.464
 1698SOL    HW1 5095   2.858   2.484   1.467
 1698SOL    HW2 5096   3.019   2.492   1.440
 1699SOL     OW 5097   3.089   3.432   0.793
 1699SOL    HW1 5098   3.110   3.506   0.728
 1699SOL    HW2 5099   3.157   3.432   0.866
 1700SOL     OW 5100   2.321   3.014   0.741
 1700SOL    HW1 5101   2.250   2.987   0.806
 1700SOL    HW2 5102   2.295   2.986   0.648
 1701SOL     OW 5103   3.133   3.659   0.591
 1701SOL    HW1 5104   3.177   3.723   0.527
 1701SOL    HW2 5105   3.083   3.711   0.661
 1702SOL     OW 5106   2.894   2.411   0.016
 1702SOL    HW1 5107   2.853   2.493  -0.023
 1702SOL    HW2 5108   2.958   2.437   0.089
 1703SOL     OW 5109   1.940   2.418   1.386
 1703SOL    HW1 5110   2.032   2.417   1.345
 1703SOL    HW2 5111   1.934   2.492   1.453
 1704SOL     OW 5112   2.423   2.084   1.147
 1704SOL    HW1 5113   2.461   2.000   1.184
 1704SOL    HW2 5114   2.335   2.103   1.191
 1705SOL     OW 5115   2.728   2.316   0.642
 1705SOL    HW1 5116   2.696   2.388   0.580
 1705SOL    HW2 5117   2.752   2.235   0.589
 1706SOL     OW 5118   2.879   1.901   0.753
 1706SOL    HW1 5119   2.807   1.906   0.684
 1706SOL    HW2 5120   2.855   1.832   0.822
 1707SOL     OW 5121   3.291   3.035   0.867
 1707SOL    HW1 5122   3.236   2.951   0.860
 1707SOL    HW2 5123   3.317   3.064   0.775
 1708SOL     OW 5124   3.328   2.452   0.992
 1708SOL    HW1 5125   3.298   2.357   0.999
 1708SOL    HW2 5126   3.401   2.468   1.058
 1709SOL     OW 5127   3.719   2.695   0.377
 1709SOL    HW1 5128   3.761   2.631   0.441
 1709SOL    HW2 5129   3.681   2.644   0.299
 1710SOL     OW 5130   2.350   3.247   0.174
 1710SOL    HW1 5131   2.263   3.232   0.221
 1710SOL    HW2 5132   2.333   3.273   0.079
 1711SOL     OW 5133   3.526   3.142   0.657
 1711SOL    HW1 5134   3.625   3.150   0.671
 1711SOL    HW2 5135   3.481   3.226   0.688
 1712SOL     OW 5136   3.252   2.437   0.078
 1712SOL    HW1 5137   3.198   2.416   0.159
 1712SOL    HW2 5138   3.343   2.396   0.087
 1713SOL     OW 5139   2.389   2.118   0.328
 1713SOL    HW1 5140   2.416   2.059   0.253
 1713SOL    HW2 5141   2.389   2.213   0.297
 1714SOL     OW 5142   3.616   3.085   1.588
 1714SOL    HW1 5143   3.707   3.046   1.575
 1714SOL    HW2 5144   3.624   3.181   1.612
 1715SOL     OW 5145   2.926   3.209   1.340
 1715SOL    HW1 5146   2.846   3.186   1.395
 1715SOL    HW2 5147   3.009   3.183   1.389
 1716SOL     OW 5148   3.454   3.491   1.625
 1716SOL    HW1 5149   3.481   3.525   1.535
 1716SOL    HW2 5150   3.533   3.453   1.671
 1717SOL     OW 5151   2.973   3.057   1.100
 1717SOL    HW1 5152   2.933   3.101   1.181
 1717SOL    HW2 5153   2.932   3.094   1.017
 1718SOL     OW 5154   3.500   2.961   1.079
 1718SOL    HW1 5155   3.505   3.042   1.138
 1718SOL    HW2 5156   3.414   2.963   1.028
 1719SOL     OW 5157   2.777   1.951   1.402
 1719SOL    HW1 5158   2.802   1.931   1.307
 1719SOL    HW2 5159   2.849   2.007   1.444
 1720SOL     OW 5160   2.842   2.978   1.719
 1720SOL    HW1 5161   2.743   2.984   1.729
 1720SOL    HW2 5162   2.865   2.898   1.663
 1721SOL     OW 5163   2.567   2.912   0.368
 1721SOL    HW1 5164   2.553   2.919   0.467
 1721SOL    HW2 5165   2.651   2.861   0.350
 1722SOL     OW 5166   2.272   2.675   1.251
 1722SOL    HW1 5167   2.358   2.687   1.301
 1722SOL    HW2 5168   2.230   2.588   1.278
 1723SOL     OW 5169   3.136   2.248   1.262
 1723SOL    HW1 5170   3.157   2.322   1.326
 1723SOL    HW2 5171   3.047   2.265   1.219
 1724SOL     OW 5172   1.926   3.426   1.331
 1724SOL    HW1 5173   1.880   3.508   1.297
 1724SOL    HW2 5174   2.024   3.445   1.340
 1725SOL     OW 5175   2.229   2.962   0.501
 1725SOL    HW1 5176   2.222   3.045   0.445
 1725SOL    HW2 5177   2.233   2.882   0.441
 1726SOL     OW 5178   2.428   2.399   0.865
 1726SOL    HW1 5179   2.440   2.465   0.791
 1726SOL    HW2 5180   2.474   2.433   0.948
 1727SOL     OW 5181   3.114   3.210   0.388
 1727SOL    HW1 5182   3.164   3.287   0.428
 1727SOL    HW2 5183   3.019   3.212   0.420
 1728SOL     OW 5184   3.134   3.307   1.142
 1728SOL    HW1 5185   3.181   3.320   1.229
 1728SOL    HW2 5186   3.068   3.233   1.151
 1729SOL     OW 5187   3.444   2.501   0.472
 1729SOL    HW1 5188   3.413   2.562   0.545
 1729SOL    HW2 5189   3.494   2.553   0.403
 1730SOL     OW 5190   2.216   3.372   1.329
 1730SOL    HW1 5191   2.195   3.328   1.242
 1730SOL    HW2 5192   2.313   3.398   1.332
 1731SOL     OW 5193   2.264   2.613   1.598
 1731SOL    HW1 5194   2.332   2.668   1.551
 1731SOL    HW2 5195   2.304   2.525   1.625
 1732SOL     OW 5196   3.449   2.641   1.670
 1732SOL    HW1 5197   3.357   2.679   1.665
 1732SOL    HW2 5198   3.509   2.688   1.605
 1733SOL     OW 5199   2.875   1.967   1.770
 1733SOL    HW1 5200   2.881   2.052   1.718
 1733SOL    HW2 5201   2.907   1.891   1.713
 1734SOL     OW 5202   2.366   1.912   1.740
 1734SOL    HW1 5203   2.324   1.855   1.670
 1734SOL    HW2 5204   2.300   1.981   1.772
 1735SOL     OW 5205   2.435   2.732   1.029
 1735SOL    HW1 5206   2.479   2.821   1.020
 1735SOL    HW2 5207   2.372   2.732   1.106
 1736SOL     OW 5208   3.222   2.724   1.045
 1736SOL    HW1 5209   3.147   2.724   0.979
 1736SOL    HW2 5210   3.259   2.632   1.054
 1737SOL     OW 5211   3.071   2.387   0.275
 1737SOL    HW1 5212   3.084   2.303   0.329
 1737SOL    HW2 5213   3.042   2.461   0.335
 1738SOL     OW 5214   2.169   2.075   1.231
 1738SOL    HW1 5215   2.146   2.112   1.321
 1738SOL    HW2 5216   2.139   1.980   1.225
 1739SOL     OW 5217   1.899   3.172   1.282
 1739SOL    HW1 5218   1.952   3.123   1.350
 1739SOL    HW2 5219   1.921   3.270   1.287
 1740SOL     OW 5220   2.594   2.496   1.064
 1740SOL    HW1 5221   2.653   2.470   0.988
 1740SOL    HW2 5222   2.566   2.592   1.053
 1741SOL     OW 5223   3.590   2.797   1.854
 1741SOL    HW1 5224   3.544   2.790   1.765
 1741SOL    HW2 5225   3.528   2.841   1.920
 1742SOL     OW 5226   2.169   1.925   0.618
 1742SOL    HW1 5227   2.158   2.019   0.651
 1742SOL    HW2 5228   2.164   1.862   0.695
 1743SOL     OW 5229   3.484   2.229   0.374
 1743SOL    HW1 5230   3.486   2.153   0.438
 1743SOL    HW2 5231   3.436   2.306   0.414
 1744SOL     OW 5232   2.885   2.628   0.966
 1744SOL    HW1 5233   2.900   2.649   1.062
 1744SOL    HW2 5234   2.855   2.533   0.957
 1745SOL     OW 5235   2.842   3.435   1.700
 1745SOL    HW1 5236   2.822   3.479   1.612
 1745SOL    HW2 5237   2.881   3.344   1.684
 1746SOL     OW 5238   3.721   3.380   1.605
 1746SOL    HW1 5239   3.735   3.407   1.510
 1746SOL    HW2 5240   3.804   3.402   1.658
 1747SOL     OW 5241   2.212   2.760   1.804
 1747SOL    HW1 5242   2.288   2.804   1.852
 1747SOL    HW2 5243   2.247   2.713   1.722
 1748SOL     OW 5244   3.402   2.136   0.125
 1748SOL    HW1 5245   3.341   2.061   0.148
 1748SOL    HW2 5246   3.424   2.188   0.208
 1749SOL     OW 5247   3.165   2.700   0.042
 1749SOL    HW1 5248   3.199   2.607   0.057
 1749SOL    HW2 5249   3.183   2.727  -0.053
 1750SOL     OW 5250   2.930   3.195   0.849
 1750SOL    HW1 5251   2.937   3.111   0.794
 1750SOL    HW2 5252   2.992   3.264   0.813
 1751SOL     OW 5253   2.181   2.672   0.949
 1751SOL    HW1 5254   2.274   2.708   0.954
 1751SOL    HW2 5255   2.175   2.587   1.001
 1752SOL     OW 5256   2.201   2.371   1.006
 1752SOL    HW1 5257   2.149   2.288   0.989
 1752SOL    HW2 5258   2.278   2.376   0.942
 1753SOL     OW 5259   3.000   2.242   1.678
 1753SOL    HW1 5260   2.955   2.305   1.742
 1753SOL    HW2 5261   3.093   2.273   1.661
 1754SOL     OW 5262   3.022   2.069   1.477
 1754SOL    HW1 5263   3.022   2.133   1.554
 1754SOL    HW2 5264   3.050   2.117   1.394
 1755SOL     OW 5265   1.870   3.188   0.200
 1755SOL    HW1 5266   1.777   3.209   0.169
 1755SOL    HW2 5267   1.880   3.089   0.213
 1756SOL     OW 5268   1.950   3.663   0.927
 1756SOL    HW1 5269   1.908   3.577   0.900
 1756SOL    HW2 5270   2.044   3.666   0.893
 1757SOL     OW 5271   2.366   3.430   0.910
 1757SOL    HW1 5272   2.432   3.504   0.919
 1757SOL    HW2 5273   2.410   3.351   0.868
 1758SOL     OW 5274   2.864   2.658   1.238
 1758SOL    HW1 5275   2.905   2.626   1.324
 1758SOL    HW2 5276   2.768   2.631   1.235
 1759SOL     OW 5277   1.902   2.406   1.114
 1759SOL    HW1 5278   1.987   2.373   1.073
 1759SOL    HW2 5279   1.915   2.421   1.212
 1760SOL     OW 5280   2.051   2.382   1.722
 1760SOL    HW1 5281   2.110   2.342   1.652
 1760SOL    HW2 5282   1.993   2.453   1.681
 1761SOL     OW 5283   3.231   2.812   1.660
 1761SOL    HW1 5284   3.270   2.901   1.680
 1761SOL    HW2 5285   3.241   2.792   1.563
 1762SOL     OW 5286   2.677   2.434   0.325
 1762SOL    HW1 5287   2.684   2.345   0.279
 1762SOL    HW2 5288   2.583   2.468   0.317
 1763SOL     OW 5289   3.519   2.466   1.206
 1763SOL    HW1 5290   3.481   2.397   1.268
 1763SOL    HW2 5291   3.601   2.430   1.162
 1764SOL     OW 5292   2.114   3.426   1.744
 1764SOL    HW1 5293   2.084   3.483   1.820
 1764SOL    HW2 5294   2.107   3.329   1.770
 1765SOL     OW 5295   2.533   2.326   1.269
 1765SOL    HW1 5296   2.499   2.237   1.239
 1765SOL    HW2 5297   2.559   2.380   1.189
 1766SOL     OW 5298   2.792   3.540   1.465
 1766SOL    HW1 5299   2.768   3.522   1.370
 1766SOL    HW2 5300   2.822   3.634   1.475
 1767SOL     OW 5301   2.335   2.362   0.191
 1767SOL    HW1 5302   2.396   2.442   0.195
 1767SOL    HW2 5303   2.240   2.393   0.198
 1768SOL     OW 5304   2.021   2.999   1.466
 1768SOL    HW1 5305   2.043   2.938   1.542
 1768SOL    HW2 5306   2.031   2.950   1.380
 1769SOL     OW 5307   3.209   2.921   1.234
 1769SOL    HW1 5308   3.233   2.858   1.160
 1769SOL    HW2 5309   3.119   2.961   1.216
 1770SOL     OW 5310   3.164   2.717   0.309
 1770SOL    HW1 5311   3.078   2.686   0.351
 1770SOL    HW2 5312   3.160   2.703   0.210
 1771SOL     OW 5313   3.621   3.609   1.154
 1771SOL    HW1 5314   3.682   3.639   1.081
 1771SOL    HW2 5315   3.583   3.520   1.132
 1772SOL     OW 5316   3.114   3.593   1.128
 1772SOL    HW1 5317   3.198   3.598   1.074
 1772SOL    HW2 5318   3.091   3.497   1.146
 1773SOL     OW 5319   1.945   3.120   1.022
 1773SOL    HW1 5320   1.940   3.119   1.122
 1773SOL    HW2 5321   1.862   3.079   0.984
 1774SOL     OW 5322   2.550   3.524   1.716
 1774SOL    HW1 5323   2.494   3.605   1.725
 1774SOL    HW2 5324   2.602   3.528   1.630
 1775SOL     OW 5325   2.765   1.948   0.133
 1775SOL    HW1 5326   2.816   1.949   0.047
 1775SOL    HW2 5327   2.821   1.906   0.204
 1776SOL     OW 5328   3.588   1.997   0.523
 1776SOL    HW1 5329   3.661   1.980   0.456
 1776SOL    HW2 5330   3.557   1.910   0.561
 1777SOL     OW 5331   3.250   3.435   0.477
 1777SOL    HW1 5332   3.317   3.447   0.403
 1777SOL    HW2 5333   3.210   3.524   0.500
 1778SOL     OW 5334   1.992   3.656   1.851
 1778SOL    HW1 5335   1.951   3.582   1.904
 1778SOL    HW2 5336   2.056   3.707   1.909
 1779SOL     OW 5337   3.142   2.789   0.672
 1779SOL    HW1 5338   3.202   2.708   0.674
 1779SOL    HW2 5339   3.182   2.858   0.612
 1780SOL     OW 5340   2.692   3.135   1.422
 1780SOL    HW1 5341   2.687   3.168   1.517
 1780SOL    HW2 5342   2.606   3.154   1.376
 1781SOL     OW 5343   2.534   3.478   0.154
 1781SOL    HW1 5344   2.543   3.488   0.055
 1781SOL    HW2 5345   2.494   3.389   0.175
 1782SOL     OW 5346   3.512   3.582   1.394
 1782SOL    HW1 5347   3.565   3.592   1.310
 1782SOL    HW2 5348   3.485   3.672   1.428
 1783SOL     OW 5349   3.703   2.037   0.963
 1783SOL    HW1 5350   3.742   1.952   0.927
 1783SOL    HW2 5351   3.605   2.039   0.944
 1784SOL     OW 5352   2.125   2.188   0.720
 1784SOL    HW1 5353   2.046   2.239   0.686
 1784SOL    HW2 5354   2.116   2.173   0.818
 1785SOL     OW 5355   3.056   3.474   0.031
 1785SOL    HW1 5356   3.062   3.381   0.068
 1785SOL    HW2 5357   2.997   3.474  -0.049
 1786SOL     OW 5358   2.684   2.864   1.372
 1786SOL    HW1 5359   2.724   2.863   1.280
 1786SOL    HW2 5360   2.694   2.956   1.412
 1787SOL     OW 5361   2.778   2.772   0.291
 1787SOL    HW1 5362   2.841   2.810   0.223
 1787SOL    HW2 5363   2.818   2.689   0.330
 1788SOL     OW 5364   3.366   3.469   0.044
 1788SOL    HW1 5365   3.274   3.506   0.051
 1788SOL    HW2 5366   3.404   3.489  -0.046
 1789SOL     OW 5367   2.234   3.150   1.490
 1789SOL    HW1 5368   2.221   3.243   1.456
 1789SOL    HW2 5369   2.150   3.098   1.477
 1790SOL     OW 5370   3.476   3.154   1.289
 1790SOL    HW1 5371   3.536   3.157   1.369
 1790SOL    HW2 5372   3.401   3.218   1.302
 1791SOL     OW 5373   2.901   2.960   0.696
 1791SOL    HW1 5374   2.831   2.913   0.750
 1791SOL    HW2 5375   2.960   2.892   0.653
 1792SOL     OW 5376   2.876   2.098   0.971
 1792SOL    HW1 5377   2.868   2.062   0.878
 1792SOL    HW2 5378   2.874   2.022   1.036
 1793SOL     OW 5379   2.452   3.349   0.491
 1793SOL    HW1 5380   2.494   3.291   0.421
 1793SOL    HW2 5381   2.408   3.428   0.447
 1794SOL     OW 5382   3.571   2.247   1.381
 1794SOL    HW1 5383   3.644   2.316   1.385
 1794SOL    HW2 5384   3.599   2.172   1.322
 1795SOL     OW 5385   2.117   3.210   0.290
 1795SOL    HW1 5386   2.021   3.211   0.263
 1795SOL    HW2 5387   2.129   3.263   0.374
 1796SOL     OW 5388   1.967   2.875   1.726
 1796SOL    HW1 5389   1.890   2.842   1.780
 1796SOL    HW2 5390   2.052   2.845   1.768
 1797SOL     OW 5391   2.534   2.065   1.489
 1797SOL    HW1 5392   2.624   2.049   1.449
 1797SOL    HW2 5393   2.542   2.070   1.588
 1798SOL     OW 5394   1.937   2.207   0.033
 1798SOL    HW1 5395   1.845   2.179   0.004
 1798SOL    HW2 5396   1.968   2.284  -0.023
 1799SOL     OW 5397   3.302   2.718   1.398
 1799SOL    HW1 5398   3.245   2.770   1.335
 1799SOL    HW2 5399   3.398   2.730   1.374
 1800SOL     OW 5400   1.934   2.028   0.318
 1800SOL    HW1 5401   1.917   2.111   0.264
 1800SOL    HW2 5402   2.024   1.991   0.296
 1801SOL     OW 5403   3.045   3.197   0.119
 1801SOL    HW1 5404   2.946   3.186   0.121
 1801SOL    HW2 5405   3.079   3.212   0.212
 1802SOL     OW 5406   2.475   2.704   1.431
 1802SOL    HW1 5407   2.531   2.785   1.414
 1802SOL    HW2 5408   2.534   2.624   1.434
 1803SOL     OW 5409   3.355   3.629   0.959
 1803SOL    HW1 5410   3.388   3.693   0.890
 1803SOL    HW2 5411   3.421   3.623   1.034
 1804SOL     OW 5412   2.578   2.427   1.708
 1804SOL    HW1 5413   2.597   2.492   1.782
 1804SOL    HW2 5414   2.638   2.347   1.717
 1805SOL     OW 5415   3.312   3.082   1.633
 1805SOL    HW1 5416   3.303   3.072   1.732
 1805SOL    HW2 5417   3.408   3.075   1.607
 1806SOL     OW 5418   2.252   3.603   1.560
 1806SOL    HW1 5419   2.161   3.644   1.558
 1806SOL    HW2 5420   2.245   3.509   1.592
 1807SOL     OW 5421   3.536   2.745   1.254
 1807SOL    HW1 5422   3.509   2.656   1.217
 1807SOL    HW2 5423   3.537   2.813   1.181
 1808SOL     OW 5424   3.087   2.187   0.449
 1808SOL    HW1 5425   3.152   2.113   0.438
 1808SOL    HW2 5426   3.107   2.237   0.533
 1809SOL     OW 5427   2.456   2.607   0.652
 1809SOL    HW1 5428   2.506   2.692   0.633
 1809SOL    HW2 5429   2.368   2.609   0.604
 1810SOL     OW 5430   3.639   2.204   1.642
 1810SOL    HW1 5431   3.622   2.235   1.548
 1810SOL    HW2 5432   3.555   2.167   1.680
 1811SOL     OW 5433   3.592   2.796   1.517
 1811SOL    HW1 5434   3.630   2.887   1.532
 1811SOL    HW2 5435   3.584   2.779   1.418
 1812SOL     OW 5436   2.721   3.236   0.016
 1812SOL    HW1 5437   2.675   3.251   0.104
 1812SOL    HW2 5438   2.765   3.321  -0.014
 1813SOL     OW 5439   2.523   3.652   0.953
 1813SOL    HW1 5440   2.477   3.740   0.940
 1813SOL    HW2 5441   2.622   3.664   0.946
 1814SOL     OW 5442   2.721   2.818   0.861
 1814SOL    HW1 5443   2.775   2.749   0.909
 1814SOL    HW2 5444   2.689   2.887   0.927
 1815SOL     OW 5445   2.945   2.846   0.087
 1815SOL    HW1 5446   2.922   2.899   0.005
 1815SOL    HW2 5447   3.026   2.790   0.068
 1816SOL     OW 5448   3.723   3.431   0.851
 1816SOL    HW1 5449   3.652   3.419   0.781
 1816SOL    HW2 5450   3.724   3.352   0.911
 1817SOL     OW 5451   2.083   3.176   1.844
 1817SOL    HW1 5452   2.018   3.103   1.823
 1817SOL    HW2 5453   2.087   3.190   1.942
 1818SOL     OW 5454   1.941   3.102   0.653
 1818SOL    HW1 5455   1.940   3.055   0.741
 1818SOL    HW2 5456   2.023   3.074   0.602
 1819SOL     OW 5457   2.534   3.253   1.624
 1819SOL    HW1 5458   2.456   3.203   1.662
 1819SOL    HW2 5459   2.531   3.348   1.655
 1820SOL     OW 5460   3.686   2.054   1.227
 1820SOL    HW1 5461   3.682   1.964   1.271
 1820SOL    HW2 5462   3.689   2.043   1.128
 1821SOL     OW 5463   2.290   2.286   0.520
 1821SOL    HW1 5464   2.320   2.214   0.458
 1821SOL    HW2 5465   2.251   2.246   0.603
 1822SOL     OW 5466   3.567   3.349   1.104
 1822SOL    HW1 5467   3.474   3.324   1.077
 1822SOL    HW2 5468   3.593   3.299   1.186
 1823SOL     OW 5469   2.179   2.409   1.280
 1823SOL    HW1 5470   2.217   2.350   1.352
 1823SOL    HW2 5471   2.219   2.383   1.192
 1824SOL     OW 5472   2.674   3.448   0.687
 1824SOL    HW1 5473   2.706   3.458   0.593
 1824SOL    HW2 5474   2.595   3.386   0.689
 1825SOL     OW 5475   3.286   2.076   1.112
 1825SOL    HW1 5476   3.338   2.011   1.167
 1825SOL    HW2 5477   3.237   2.139   1.173
 1826SOL     OW 5478   2.863   1.896   1.154
 1826SOL    HW1 5479   2.800   1.824   1.123
 1826SOL    HW2 5480   2.956   1.860   1.154
 1827SOL     OW 5481   2.632   3.192   0.301
 1827SOL    HW1 5482   2.586   3.105   0.318
 1827SOL    HW2 5483   2.723   3.189   0.342
 1828SOL     OW 5484   2.480   3.429   1.284
 1828SOL    HW1 5485   2.475   3.511   1.341
 1828SOL    HW2 5486   2.569   3.426   1.239
 1829SOL     OW 5487   3.162   2.315   0.691
 1829SOL    HW1 5488   3.103   2.395   0.695
 1829SOL    HW2 5489   3.177   2.280   0.784
 1830SOL     OW 5490   3.455   2.083   0.882
 1830SOL    HW1 5491   3.371   2.082   0.936
 1830SOL    HW2 5492   3.457   2.166   0.826
 1831SOL     OW 5493   1.901   2.939   0.300
 1831SOL    HW1 5494   2.000   2.928   0.291
 1831SOL    HW2 5495   1.861   2.853   0.332
 1832SOL     OW 5496   2.737   3.508   0.337
 1832SOL    HW1 5497   2.660   3.473   0.283
 1832SOL    HW2 5498   2.705   3.579   0.399
 1833SOL     OW 5499   2.092   2.490   1.975
 1833SOL    HW1 5500   1.999   2.488   2.012
 1833SOL    HW2 5501   2.093   2.451   1.883
 1834SOL     OW 5502   2.087   2.137   2.858
 1834SOL    HW1 5503   2.122   2.120   2.950
 1834SOL    HW2 5504   1.999   2.092   2.846
 1835SOL     OW 5505   1.881   2.230   2.509
 1835SOL    HW1 5506   1.799   2.273   2.548
 1835SOL    HW2 5507   1.853   2.157   2.446
 1836SOL     OW 5508   2.431   3.137   3.027
 1836SOL    HW1 5509   2.338   3.130   2.990
 1836SOL    HW2 5510   2.442   3.226   3.071
 1837SOL     OW 5511   3.417   3.373   2.565
 1837SOL    HW1 5512   3.360   3.357   2.646
 1837SOL    HW2 5513   3.358   3.383   2.485
 1838SOL     OW 5514   2.997   2.565   2.579
 1838SOL    HW1 5515   3.054   2.643   2.554
 1838SOL    HW2 5516   2.937   2.591   2.655
 1839SOL     OW 5517   3.617   2.469   2.093
 1839SOL    HW1 5518   3.605   2.456   1.994
 1839SOL    HW2 5519   3.587   2.388   2.142
 1840SOL     OW 5520   2.630   3.006   2.885
 1840SOL    HW1 5521   2.552   3.023   2.945
 1840SOL    HW2 5522   2.664   3.093   2.849
 1841SOL     OW 5523   2.712   2.660   3.685
 1841SOL    HW1 5524   2.708   2.736   3.750
 1841SOL    HW2 5525   2.734   2.696   3.594
 1842SOL     OW 5526   2.547   2.874   2.527
 1842SOL    HW1 5527   2.616   2.858   2.597
 1842SOL    HW2 5528   2.474   2.931   2.565
 1843SOL     OW 5529   2.548   3.023   3.665
 1843SOL    HW1 5530   2.608   3.102   3.679
 1843SOL    HW2 5531   2.462   3.054   3.624
 1844SOL     OW 5532   2.197   3.297   2.923
 1844SOL    HW1 5533   2.119   3.266   2.870
 1844SOL    HW2 5534   2.255   3.355   2.866
 1845SOL     OW 5535   3.322   3.367   3.201
 1845SOL    HW1 5536   3.346   3.461   3.227
 1845SOL    HW2 5537   3.306   3.313   3.283
 1846SOL     OW 5538   2.300   2.254   3.361
 1846SOL    HW1 5539   2.382   2.198   3.370
 1846SOL    HW2 5540   2.219   2.196   3.365
 1847SOL     OW 5541   3.465   2.309   2.599
 1847SOL    HW1 5542   3.391   2.355   2.549
 1847SOL    HW2 5543   3.516   2.377   2.652
 1848SOL     OW 5544   2.093   3.575   2.345
 1848SOL    HW1 5545   2.127   3.652   2.399
 1848SOL    HW2 5546   2.137   3.575   2.255
 1849SOL     OW 5547   2.989   3.203   3.552
 1849SOL    HW1 5548   3.036   3.203   3.640
 1849SOL    HW2 5549   2.941   3.116   3.541
 1850SOL     OW 5550   2.092   3.296   2.400
 1850SOL    HW1 5551   2.066   3.392   2.400
 1850SOL    HW2 5552   2.021   3.242   2.445
 1851SOL     OW 5553   2.102   2.953   2.748
 1851SOL    HW1 5554   2.116   2.869   2.800
 1851SOL    HW2 5555   2.047   3.017   2.803
 1852SOL     OW 5556   2.482   3.648   3.301
 1852SOL    HW1 5557   2.390   3.631   3.336
 1852SOL    HW2 5558   2.510   3.740   3.327
 1853SOL     OW 5559   2.468   2.826   1.985
 1853SOL    HW1 5560   2.475   2.910   1.931
 1853SOL    HW2 5561   2.514   2.839   2.073
 1854SOL     OW 5562   3.456   1.976   3.342
 1854SOL    HW1 5563   3.438   2.043   3.270
 1854SOL    HW2 5564   3.453   2.022   3.431
 1855SOL     OW 5565   1.984   2.505   2.425
 1855SOL    HW1 5566   1.939   2.417   2.442
 1855SOL    HW2 5567   1.983   2.559   2.509
 1856SOL     OW 5568   3.704   3.629   2.221
 1856SOL    HW1 5569   3.758   3.600   2.301
 1856SOL    HW2 5570   3.734   3.719   2.192
 1857SOL     OW 5571   1.889   3.458   1.979
 1857SOL    HW1 5572   1.870   3.362   2.000
 1857SOL    HW2 5573   1.856   3.516   2.054
 1858SOL     OW 5574   3.551   2.784   2.474
 1858SOL    HW1 5575   3.646   2.755   2.482
 1858SOL    HW2 5576   3.543   2.849   2.399
 1859SOL     OW 5577   3.503   2.970   2.294
 1859SOL    HW1 5578   3.589   2.972   2.242
 1859SOL    HW2 5579   3.517   3.017   2.382
 1860SOL     OW 5580   1.975   2.599   3.459
 1860SOL    HW1 5581   2.063   2.586   3.504
 1860SOL    HW2 5582   1.962   2.696   3.437
 1861SOL     OW 5583   2.475   3.227   2.588
 1861SOL    HW1 5584   2.426   3.140   2.597
 1861SOL    HW2 5585   2.452   3.270   2.501
 1862SOL     OW 5586   3.155   3.090   3.285
 1862SOL    HW1 5587   3.192   3.017   3.227
 1862SOL    HW2 5588   3.207   3.095   3.370
 1863SOL     OW 5589   2.671   1.866   2.364
 1863SOL    HW1 5590   2.711   1.957   2.355
 1863SOL    HW2 5591   2.571   1.874   2.370
 1864SOL     OW 5592   2.059   2.838   3.126
 1864SOL    HW1 5593   2.148   2.793   3.112
 1864SOL    HW2 5594   1.986   2.773   3.107
 1865SOL     OW 5595   3.387   2.861   2.052
 1865SOL    HW1 5596   3.324   2.785   2.065
 1865SOL    HW2 5597   3.435   2.879   2.138
 1866SOL     OW 5598   3.049   3.654   3.478
 1866SOL    HW1 5599   3.073   3.714   3.402
 1866SOL    HW2 5600   3.056   3.559   3.448
 1867SOL     OW 5601   2.179   2.113   3.663
 1867SOL    HW1 5602   2.250   2.184   3.669
 1867SOL    HW2 5603   2.091   2.152   3.691
 1868SOL     OW 5604   3.328   3.279   2.815
 1868SOL    HW1 5605   3.269   3.285   2.895
 1868SOL    HW2 5606   3.313   3.191   2.769
 1869SOL     OW 5607   3.529   3.576   2.434
 1869SOL    HW1 5608   3.488   3.553   2.346
 1869SOL    HW2 5609   3.511   3.502   2.499
 1870SOL     OW 5610   2.460   2.591   2.132
 1870SOL    HW1 5611   2.484   2.660   2.064
 1870SOL    HW2 5612   2.382   2.624   2.186
 1871SOL     OW 5613   3.143   2.207   2.806
 1871SOL    HW1 5614   3.057   2.157   2.793
 1871SOL    HW2 5615   3.205   2.153   2.862
 1872SOL     OW 5616   3.438   3.524   2.169
 1872SOL    HW1 5617   3.527   3.570   2.172
 1872SOL    HW2 5618   3.417   3.500   2.074
 1873SOL     OW 5619   2.669   2.467   3.327
 1873SOL    HW1 5620   2.622   2.464   3.416
 1873SOL    HW2 5621   2.618   2.412   3.261
 1874SOL     OW 5622   3.256   2.331   3.536
 1874SOL    HW1 5623   3.236   2.374   3.624
 1874SOL    HW2 5624   3.334   2.269   3.545
 1875SOL     OW 5625   2.835   2.752   3.434
 1875SOL    HW1 5626   2.881   2.668   3.405
 1875SOL    HW2 5627   2.779   2.786   3.359
 1876SOL     OW 5628   2.853   2.272   3.104
 1876SOL    HW1 5629   2.776   2.306   3.158
 1876SOL    HW2 5630   2.819   2.221   3.025
 1877SOL     OW 5631   2.903   2.563   2.291
 1877SOL    HW1 5632   2.929   2.559   2.387
 1877SOL    HW2 5633   2.818   2.512   2.277
 1878SOL     OW 5634   1.938   2.673   2.651
 1878SOL    HW1 5635   2.037   2.661   2.660
 1878SOL    HW2 5636   1.914   2.768   2.672
 1879SOL     OW 5637   1.992   3.683   3.433
 1879SOL    HW1 5638   1.982   3.668   3.532
 1879SOL    HW2 5639   1.906   3.719   3.397
 1880SOL     OW 5640   2.727   2.210   2.057
 1880SOL    HW1 5641   2.786   2.273   2.008
 1880SOL    HW2 5642   2.746   2.116   2.028
 1881SOL     OW 5643   3.581   2.447   3.693
 1881SOL    HW1 5644   3.555   2.536   3.657
 1881SOL    HW2 5645   3.579   2.379   3.620
 1882SOL     OW 5646   3.224   3.006   2.407
 1882SOL    HW1 5647   3.307   2.977   2.359
 1882SOL    HW2 5648   3.175   3.073   2.351
 1883SOL     OW 5649   2.412   2.058   2.747
 1883SOL    HW1 5650   2.407   2.053   2.847
 1883SOL    HW2 5651   2.414   2.154   2.718
 1884SOL     OW 5652   2.870   3.318   2.339
 1884SOL    HW1 5653   2.824   3.390   2.287
 1884SOL    HW2 5654   2.866   3.338   2.437
 1885SOL     OW 5655   2.213   3.663   2.715
 1885SOL    HW1 5656   2.263   3.577   2.721
 1885SOL    HW2 5657   2.278   3.740   2.712
 1886SOL     OW 5658   3.657   2.928   2.735
 1886SOL    HW1 5659   3.595   2.913   2.659
 1886SOL    HW2 5660   3.605   2.939   2.820
 1887SOL     OW 5661   3.089   3.412   3.368
 1887SOL    HW1 5662   3.095   3.335   3.432
 1887SOL    HW2 5663   3.037   3.386   3.288
 1888SOL     OW 5664   2.183   2.805   2.104
 1888SOL    HW1 5665   2.265   2.844   2.062
 1888SOL    HW2 5666   2.156   2.723   2.055
 1889SOL     OW 5667   3.320   2.597   2.590
 1889SOL    HW1 5668   3.315   2.532   2.665
 1889SOL    HW2 5669   3.400   2.656   2.603
 1890SOL     OW 5670   2.323   3.128   3.589
 1890SOL    HW1 5671   2.273   3.129   3.503
 1890SOL    HW2 5672   2.260   3.110   3.665
 1891SOL     OW 5673   2.973   3.638   2.099
 1891SOL    HW1 5674   2.913   3.576   2.149
 1891SOL    HW2 5675   3.004   3.594   2.014
 1892SOL     OW 5676   2.064   2.147   3.360
 1892SOL    HW1 5677   1.984   2.207   3.347
 1892SOL    HW2 5678   2.054   2.098   3.446
 1893SOL     OW 5679   3.494   3.239   1.943
 1893SOL    HW1 5680   3.462   3.333   1.933
 1893SOL    HW2 5681   3.418   3.176   1.931
 1894SOL     OW 5682   2.326   3.605   2.185
 1894SOL    HW1 5683   2.359   3.644   2.271
 1894SOL    HW2 5684   2.402   3.598   2.120
 1895SOL     OW 5685   3.262   1.969   2.288
 1895SOL    HW1 5686   3.238   1.932   2.198
 1895SOL    HW2 5687   3.361   1.985   2.292
 1896SOL     OW 5688   2.111   3.647   3.103
 1896SOL    HW1 5689   2.168   3.582   3.153
 1896SOL    HW2 5690   2.095   3.614   3.010
 1897SOL     OW 5691   2.802   3.560   2.766
 1897SOL    HW1 5692   2.882   3.503   2.787
 1897SOL    HW2 5693   2.753   3.520   2.689
 1898SOL     OW 5694   2.244   2.562   2.342
 1898SOL    HW1 5695   2.289   2.472   2.339
 1898SOL    HW2 5696   2.150   2.551   2.375
 1899SOL     OW 5697   3.409   2.084   3.591
 1899SOL    HW1 5698   3.404   2.121   3.683
 1899SOL    HW2 5699   3.337   2.015   3.579
 1900SOL     OW 5700   2.476   1.984   1.979
 1900SOL    HW1 5701   2.574   1.962   1.986
 1900SOL    HW2 5702   2.445   1.967   1.886
 1901SOL     OW 5703   2.643   2.126   3.611
 1901SOL    HW1 5704   2.710   2.065   3.654
 1901SOL    HW2 5705   2.570   2.145   3.676
 1902SOL     OW 5706   2.750   3.376   3.057
 1902SOL    HW1 5707   2.727   3.351   2.963
 1902SOL    HW2 5708   2.811   3.307   3.096
 1903SOL     OW 5709   3.213   2.452   3.295
 1903SOL    HW1 5710   3.241   2.409   3.380
 1903SOL    HW2 5711   3.238   2.548   3.296
 1904SOL     OW 5712   2.665   3.264   2.786
 1904SOL    HW1 5713   2.755   3.278   2.744
 1904SOL    HW2 5714   2.594   3.266   2.715
 1905SOL     OW 5715   2.784   2.365   2.761
 1905SOL    HW1 5716   2.759   2.356   2.665
 1905SOL    HW2 5717   2.832   2.283   2.792
 1906SOL     OW 5718   2.401   1.926   2.374
 1906SOL    HW1 5719   2.320   1.927   2.432
 1906SOL    HW2 5720   2.404   2.009   2.319
 1907SOL     OW 5721   3.296   3.050   1.903
 1907SOL    HW1 5722   3.328   2.974   1.960
 1907SOL    HW2 5723   3.204   3.077   1.933
 1908SOL     OW 5724   2.797   2.098   2.342
 1908SOL    HW1 5725   2.749   2.139   2.264
 1908SOL    HW2 5726   2.896   2.096   2.323
 1909SOL     OW 5727   2.938   2.545   3.326
 1909SOL    HW1 5728   2.858   2.484   3.329
 1909SOL    HW2 5729   3.019   2.492   3.302
 1910SOL     OW 5730   3.089   3.432   2.655
 1910SOL    HW1 5731   3.110   3.506   2.590
 1910SOL    HW2 5732   3.157   3.432   2.728
 1911SOL     OW 5733   2.321   3.014   2.603
 1911SOL    HW1 5734   2.250   2.987   2.668
 1911SOL    HW2 5735   2.295   2.986   2.510
 1912SOL     OW 5736   3.133   3.659   2.453
 1912SOL    HW1 5737   3.177   3.723   2.389
 1912SOL    HW2 5738   3.083   3.711   2.523
 1913SOL     OW 5739   2.894   2.411   1.878
 1913SOL    HW1 5740   2.853   2.493   1.839
 1913SOL    HW2 5741   2.958   2.437   1.951
 1914SOL     OW 5742   1.940   2.418   3.248
 1914SOL    HW1 5743   2.032   2.417   3.207
 1914SOL    HW2 5744   1.934   2.492   3.315
 1915SOL     OW 5745   2.423   2.084   3.009
 1915SOL    HW1 5746   2.461   2.000   3.046
 1915SOL    HW2 5747   2.335   2.103   3.053
 1916SOL     OW 5748   2.728   2.316   2.504
 1916SOL    HW1 5749   2.696   2.388   2.442
 1916SOL    HW2 5750   2.752   2.235   2.451
 1917SOL     OW 5751   2.879   1.901   2.615
 1917SOL    HW1 5752   2.807   1.906   2.546
 1917SOL    HW2 5753   2.855   1.832   2.684
 1918SOL     OW 5754   3.291   3.035   2.729
 1918SOL    HW1 5755   3.236   2.951   2.722
 1918SOL    HW2 5756   3.317   3.064   2.637
 1919SOL     OW 5757   3.328   2.452   2.854
 1919SOL    HW1 5758   3.298   2.357   2.861
 1919SOL    HW2 5759   3.401   2.468   2.920
 1920SOL     OW 5760   3.719   2.695   2.239
 1920SOL    HW1 5761   3.761   2.631   2.303
 1920SOL    HW2 5762   3.681   2.644   2.161
 1921SOL     OW 5763   2.350   3.247   2.036
 1921SOL    HW1 5764   2.263   3.232   2.083
 1921SOL    HW2 5765   2.333   3.273   1.941
 1922SOL     OW 5766   3.526   3.142   2.519
 1922SOL    HW1 5767   3.625   3.150   2.533
 1922SOL    HW2 5768   3.481   3.226   2.550
 1923SOL     OW 5769   3.252   2.437   1.940
 1923SOL    HW1 5770   3.198   2.416   2.021
 1923SOL    HW2 5771   3.343   2.396   1.949
 1924SOL     OW 5772   3.616   3.085   3.450
 1924SOL    HW1 5773   3.707   3.046   3.437
 1924SOL    HW2 5774   3.624   3.181   3.474
 1925SOL     OW 5775   2.926   3.209   3.202
 1925SOL    HW1 5776   2.846   3.186   3.257
 1925SOL    HW2 5777   3.009   3.183   3.251
 1926SOL     OW 5778   3.454   3.491   3.487
 1926SOL    HW1 5779   3.481   3.525   3.397
 1926SOL    HW2 5780   3.533   3.453   3.533
 1927SOL     OW 5781   2.973   3.057   2.962
 1927SOL    HW1 5782   2.933   3.101   3.043
 1927SOL    HW2 5783   2.932   3.094   2.879
 1928SOL     OW 5784   3.500   2.961   2.941
 1928SOL    HW1 5785   3.505   3.042   3.000
 1928SOL    HW2 5786   3.414   2.963   2.890
 1929SOL     OW 5787   2.777   1.951   3.264
 1929SOL    HW1 5788   2.802   1.931   3.169
 1929SOL    HW2 5789   2.849   2.007   3.306
 1930SOL     OW 5790   2.842   2.978   3.581
 1930SOL    HW1 5791   2.743   2.984   3.591
 1930SOL    HW2 5792   2.865   2.898   3.525
 1931SOL     OW 5793   2.567   2.912   2.230
 1931SOL    HW1 5794   2.553   2.919   2.329
 1931SOL    HW2 5795   2.651   2.861   2.212
 1932SOL     OW 5796   2.272   2.675   3.113
 1932SOL    HW1 5797   2.358   2.687   3.163
 1932SOL    HW2 5798   2.230   2.588   3.140
 1933SOL     OW 5799   3.136   2.248   3.124
 1933SOL    HW1 5800   3.157   2.322   3.188
 1933SOL    HW2 5801   3.047   2.265   3.081
 1934SOL     OW 5802   1.926   3.426   3.193
 1934SOL    HW1 5803   1.880   3.508   3.159
 1934SOL    HW2 5804   2.024   3.445   3.202
 1935SOL     OW 5805   2.229   2.962   2.363
 1935SOL    HW1 5806   2.222   3.045   2.307
 1935SOL    HW2 5807   2.233   2.882   2.303
 1936SOL     OW 5808   2.428   2.399   2.727
 1936SOL    HW1 5809   2.440   2.465   2.653
 1936SOL    HW2 5810   2.474   2.433   2.810
 1937SOL     OW 5811   3.114   3.210   2.250
 1937SOL    HW1 5812   3.164   3.287   2.290
 1937SOL    HW2 5813   3.019   3.212   2.282
 1938SOL     OW 5814   3.134   3.307   3.004
 1938SOL    HW1 5815   3.181   3.320   3.091
 1938SOL    HW2 5816   3.068   3.233   3.013
 1939SOL     OW 5817   3.444   2.501   2.334
 1939SOL    HW1 5818   3.413   2.562   2.407
 1939SOL    HW2 5819   3.494   2.553   2.265
 1940SOL     OW 5820   2.216   3.372   3.191
 1940SOL    HW1 5821   2.195   3.328   3.104
 1940SOL    HW2 5822   2.313   3.398   3.194
 1941SOL     OW 5823   2.264   2.613   3.460
 1941SOL    HW1 5824   2.332   2.668   3.413
 1941SOL    HW2 5825   2.304   2.525   3.487
 1942SOL     OW 5826   3.449   2.641   3.532
 1942SOL    HW1 5827   3.357   2.679   3.527
 1942SOL    HW2 5828   3.509   2.688   3.467
 1943SOL     OW 5829   2.875   1.967   3.632
 1943SOL    HW1 5830   2.881   2.052   3.580
 1943SOL    HW2 5831   2.907   1.891   3.575
 1944SOL     OW 5832   2.366   1.912   3.602
 1944SOL    HW1 5833   2.324   1.855   3.532
 1944SOL    HW2 5834   2.300   1.981   3.634
 1945SOL     OW 5835   2.435   2.732   2.891
 1945SOL    HW1 5836   2.479   2.821   2.882
 1945SOL    HW2 5837   2.372   2.732   2.968
 1946SOL     OW 5838   3.222   2.724   2.907
 1946SOL    HW1 5839   3.147   2.724   2.841
 1946SOL    HW2 5840   3.259   2.632   2.916
 1947SOL     OW 5841   3.071   2.387   2.137
 1947SOL    HW1 5842   3.084   2.303   2.191
 1947SOL    HW2 5843   3.042   2.461   2.197
 1948SOL     OW 5844   2.169   2.075   3.093
 1948SOL    HW1 5845   2.146   2.112   3.183
 1948SOL    HW2 5846   2.139   1.980   3.087
 1949SOL     OW 5847   1.899   3.172   3.144
 1949SOL    HW1 5848   1.952   3.123   3.212
 1949SOL    HW2 5849   1.921   3.270   3.149
 1950SOL     OW 5850   2.594   2.496   2.926
 1950SOL    HW1 5851   2.653   2.470   2.850
 1950SOL    HW2 5852   2.566   2.592   2.915
 1951SOL     OW 5853   3.590   2.797   3.716
 1951SOL    HW1 5854   3.544   2.790   3.627
 1951SOL    HW2 5855   3.528   2.841   3.782
 1952SOL     OW 5856   2.169   1.925   2.480
 1952SOL    HW1 5857   2.158   2.019   2.513
 1952SOL    HW2 5858   2.164   1.862   2.557
 1953SOL     OW 5859   3.484   2.229   2.236
 1953SOL    HW1 5860   3.486   2.153   2.300
 1953SOL    HW2 5861   3.436   2.306   2.276
 1954SOL     OW 5862   2.885   2.628   2.828
 1954SOL    HW1 5863   2.900   2.649   2.924
 1954SOL    HW2 5864   2.855   2.533   2.819
 1955SOL     OW 5865   2.842   3.435   3.562
 1955SOL    HW1 5866   2.822   3.479   3.474
 1955SOL    HW2 5867   2.881   3.344   3.546
 1956SOL     OW 5868   3.721   3.380   3.467
 1956SOL    HW1 5869   3.735   3.407   3.372
 1956SOL    HW2 5870   3.804   3.402   3.520
 1957SOL     OW 5871   2.212   2.760   3.666
 1957SOL    HW1 5872   2.288   2.804   3.714
 1957SOL    HW2 5873   2.247   2.713   3.584
 1958SOL     OW 5874   3.402   2.136   1.987
 1958SOL    HW1 5875   3.341   2.061   2.010
 1958SOL    HW2 5876   3.424   2.188   2.070
 1959SOL     OW 5877   3.165   2.700   1.904
 1959SOL    HW1 5878   3.199   2.607   1.919
 1959SOL    HW2 5879   3.183   2.727   1.809
 1960SOL     OW 5880   2.930   3.195   2.711
 1960SOL    HW1 5881   2.937   3.111   2.656
 1960SOL    HW2 5882   2.992   3.264   2.675
 1961SOL     OW 5883   2.181   2.672   2.811
 1961SOL    HW1 5884   2.274   2.708   2.816
 1961SOL    HW2 5885   2.175   2.587   2.863
 1962SOL     OW 5886   2.201   2.371   2.868
 1962SOL    HW1 5887   2.149   2.288   2.851
 1962SOL    HW2 5888   2.278   2.376   2.804
 1963SOL     OW 5889   3.000   2.242   3.540
 1963SOL    HW1 5890   2.955   2.305   3.604
 1963SOL    HW2 5891   3.093   2.273   3.523
 1964SOL     OW 5892   3.022   2.069   3.339
 1964SOL    HW1 5893   3.022   2.133   3.416
 1964SOL    HW2 5894   3.050   2.117   3.256
 1965SOL     OW 5895   1.870   3.188   2.062
 1965SOL    HW1 5896   1.777   3.209   2.031
 1965SOL    HW2 5897   1.880   3.089   2.075
 1966SOL     OW 5898   1.950   3.663   2.789
 1966SOL    HW1 5899   1.908   3.577   2.762
 1966SOL    HW2 5900   2.044   3.666   2.755
 1967SOL     OW 5901   2.366   3.430   2.772
 1967SOL    HW1 5902   2.432   3.504   2.781
 1967SOL    HW2 5903   2.410   3.351   2.730
 1968SOL     OW 5904   2.864   2.658   3.100
 1968SOL    HW1 5905   2.905   2.626   3.186
 1968SOL    HW2 5906   2.768   2.631   3.097
 1969SOL     OW 5907   1.902   2.406   2.976
 1969SOL    HW1 5908   1.987   2.373   2.935
 1969SOL    HW2 5909   1.915   2.421   3.074
 1970SOL     OW 5910   2.051   2.382   3.584
 1970SOL    HW1 5911   2.110   2.342   3.514
 1970SOL    HW2 5912   1.993   2.453   3.543
 1971SOL     OW 5913   3.231   2.812   3.522
 1971SOL    HW1 5914   3.270   2.901   3.542
 1971SOL    HW2 5915   3.241   2.792   3.425
 1972SOL     OW 5916   2.677   2.434   2.187
 1972SOL    HW1 5917   2.684   2.345   2.141
 1972SOL    HW2 5918   2.583   2.468   2.179
 1973SOL     OW 5919   3.519   2.466   3.068
 1973SOL    HW1 5920   3.481   2.397   3.130
 1973SOL    HW2 5921   3.601   2.430   3.024
 1974SOL     OW 5922   2.114   3.426   3.606
 1974SOL    HW1 5923   2.084   3.483   3.682
 1974SOL    HW2 5924   2.107   3.329   3.632
 1975SOL     OW 5925   2.533   2.326   3.131
 1975SOL    HW1 5926   2.499   2.237   3.101
 1975SOL    HW2 5927   2.559   2.380   3.051
 1976SOL     OW 5928   2.792   3.540   3.327
 1976SOL    HW1 5929   2.768   3.522   3.232
 1976SOL    HW2 5930   2.822   3.634   3.337
 1977SOL     OW 5931   2.335   2.362   2.053
 1977SOL    HW1 5932   2.396   2.442   2.057
 1977SOL    HW2 5933   2.240   2.393   2.060
 1978SOL     OW 5934   2.021   2.999   3.328
 1978SOL    HW1 5935   2.043   2.938   3.404
 1978SOL    HW2 5936   2.031   2.950   3.242
 1979SOL     OW 5937   3.209   2.921   3.096
 1979SOL    HW1 5938   3.233   2.858   3.022
 1979SOL    HW2 5939   3.119   2.961   3.078
 1980SOL     OW 5940   3.164   2.717   2.171
 1980SOL    HW1 5941   3.078   2.686   2.213
 1980SOL    HW2 5942   3.160   2.703   2.072
 1981SOL     OW 5943   3.621   3.609   3.016
 1981SOL    HW1 5944   3.682   3.639   2.943
 1981SOL    HW2 5945   3.583   3.520   2.994
 1982SOL     OW 5946   3.114   3.593   2.990
 1982SOL    HW1 5947   3.198   3.598   2.936
 1982SOL    HW2 5948   3.091   3.497   3.008
 1983SOL     OW 5949   1.945   3.120   2.884
 1983SOL    HW1 5950   1.940   3.119   2.984
 1983SOL    HW2 5951   1.862   3.079   2.846
 1984SOL     OW 5952   2.550   3.524   3.578
 1984SOL    HW1 5953   2.494   3.605   3.587
 1984SOL    HW2 5954   2.602   3.528   3.492
 1985SOL     OW 5955   3.588   1.997   2.385
 1985SOL    HW1 5956   3.661   1.980   2.318
 1985SOL    HW2 5957   3.557   1.910   2.423
 1986SOL     OW 5958   3.250   3.435   2.339
 1986SOL    HW1 5959   3.317   3.447   2.265
 1986SOL    HW2 5960   3.210   3.524   2.362
 1987SOL     OW 5961   1.992   3.656   3.713
 1987SOL    HW1 5962   1.951   3.582   3.766
 1987SOL    HW2 5963   2.056   3.707   3.771
 1988SOL     OW 5964   3.142   2.789   2.534
 1988SOL    HW1 5965   3.202   2.708   2.536
 1988SOL    HW2 5966   3.182   2.858   2.474
 1989SOL     OW 5967   2.692   3.135   3.284
 1989SOL    HW1 5968   2.687   3.168   3.379
 1989SOL    HW2 5969   2.606   3.154   3.238
 1990SOL     OW 5970   2.534   3.478   2.016
 1990SOL    HW1 5971   2.543   3.488   1.917
 1990SOL    HW2 5972   2.494   3.389   2.037
 1991SOL     OW 5973   3.512   3.582   3.256
 1991SOL    HW1 5974   3.565   3.592   3.172
 1991SOL    HW2 5975   3.485   3.672   3.290
 1992SOL     OW 5976   3.703   2.037   2.825
 1992SOL    HW1 5977   3.742   1.952   2.789
 1992SOL    HW2 5978   3.605   2.039   2.806
 1993SOL     OW 5979   2.125   2.188   2.582
 1993SOL    HW1 5980   2.046   2.239   2.548
 1993SOL    HW2 5981   2.116   2.173   2.680
 1994SOL     OW 5982   3.056   3.474   1.893
 1994SOL    HW1 5983   3.062   3.381   1.930
 1994SOL    HW2 5984   2.997   3.474   1.813
 1995SOL     OW 5985   2.684   2.864   3.234
 1995SOL    HW1 5986   2.724   2.863   3.142
 1995SOL    HW2 5987   2.694   2.956   3.274
 1996SOL     OW 5988   2.778   2.772   2.153
 1996SOL    HW1 5989   2.841   2.810   2.085
 1996SOL    HW2 5990   2.818   2.689   2.192
 1997SOL     OW 5991   3.366   3.469   1.906
 1997SOL    HW1 5992   3.274   3.506   1.913
 1997SOL    HW2 5993   3.404   3.489   1.816
 1998SOL     OW 5994   2.234   3.150   3.352
 1998SOL    HW1 5995   2.221   3.243   3.318
 1998SOL    HW2 5996   2.150   3.098   3.339
 1999SOL     OW 5997   3.476   3.154   3.151
 1999SOL    HW1 5998   3.536   3.157   3.231
 1999SOL    HW2 5999   3.401   3.218   3.164
 2000SOL     OW 6000   2.901   2.960   2.558
 2000SOL    HW1 6001   2.831   2.913   2.612
 2000SOL    HW2 6002   2.960   2.892   2.515
 2001SOL     OW 6003   2.876   2.098   2.833
 2001SOL    HW1 6004   2.868   2.062   2.740
 2001SOL    HW2 6005   2.874   2.022   2.898
 2002SOL     OW 6006   2.452   3.349   2.353
 2002SOL    HW1 6007   2.494   3.291   2.283
 2002SOL    HW2 6008   2.408   3.428   2.309
 2003SOL     OW 6009   3.571   2.247   3.243
 2003SOL    HW1 6010   3.644   2.316   3.247
 2003SOL    HW2 6011   3.599   2.172   3.184
 2004SOL     OW 6012   2.117   3.210   2.152
 2004SOL    HW1 6013   2.021   3.211   2.125
 2004SOL    HW2 6014   2.129   3.263   2.236
 2005SOL     OW 6015   1.967   2.875   3.588
 2005SOL    HW1 6016   1.890   2.842   3.642
 2005SOL    HW2 6017   2.052   2.845   3.630
 2006SOL     OW 6018   2.534   2.065   3.351
 2006SOL    HW1 6019   2.624   2.049   3.311
 2006SOL    HW2 6020   2.542   2.070   3.450
 2007SOL     OW 6021   3.302   2.718   3.260
 2007SOL    HW1 6022   3.245   2.770   3.197
 2007SOL    HW2 6023   3.398   2.730   3.236
 2008SOL     OW 6024   3.045   3.197   1.981
 2008SOL    HW1 6025   2.946   3.186   1.983
 2008SOL    HW2 6026   3.079   3.212   2.074
 2009SOL     OW 6027   2.475   2.704   3.293
 2009SOL    HW1 6028   2.531   2.785   3.276
 2009SOL    HW2 6029   2.534   2.624   3.296
 2010SOL     OW 6030   3.355   3.629   2.821
 2010SOL    HW1 6031   3.388   3.693   2.752
 2010SOL    HW2 6032   3.421   3.623   2.896
 2011SOL     OW 6033   2.578   2.427   3.570
 2011SOL    HW1 6034   2.597   2.492   3.644
 2011SOL    HW2 6035   2.638   2.347   3.579
 2012SOL     OW 6036   3.312   3.082   3.495
 2012SOL    HW1 6037   3.303   3.072   3.594
 2012SOL    HW2 6038   3.408   3.075   3.469
 2013SOL     OW 6039   2.252   3.603   3.422
 2013SOL    HW1 6040   2.161   3.644   3.420
 2013SOL    HW2 6041   2.245   3.509   3.454
 2014SOL     OW 6042   3.536   2.745   3.116
 2014SOL    HW1 6043   3.509   2.656   3.079
 2014SOL    HW2 6044   3.537   2.813   3.043
 2015SOL     OW 6045   3.087   2.187   2.311
 2015SOL    HW1 6046   3.152   2.113   2.300
 2015SOL    HW2 6047   3.107   2.237   2.395
 2016SOL     OW 6048   2.456   2.607   2.514
 2016SOL    HW1 6049   2.506   2.692   2.495
 2016SOL    HW2 6050   2.368   2.609   2.466
 2017SOL     OW 6051   3.639   2.204   3.504
 2017SOL    HW1 6052   3.622   2.235   3.410
 2017SOL    HW2 6053   3.555   2.167   3.542
 2018SOL     OW 6054   3.592   2.796   3.379
 2018SOL    HW1 6055   3.630   2.887   3.394
 2018SOL    HW2 6056   3.584   2.779   3.280
 2019SOL     OW 6057   2.721   3.236   1.878
 2019SOL    HW1 6058   2.675   3.251   1.966
 2019SOL    HW2 6059   2.765   3.321   1.848
 2020SOL     OW 6060   2.523   3.652   2.815
 2020SOL    HW1 6061   2.477   3.740   2.802
 2020SOL    HW2 6062   2.622   3.664   2.808
 2021SOL     OW 6063   2.721   2.818   2.723
 2021SOL    HW1 6064   2.775   2.749   2.771
 2021SOL    HW2 6065   2.689   2.887   2.789
 2022SOL     OW 6066   2.945   2.846   1.949
 2022SOL    HW1 6067   2.922   2.899   1.867
 2022SOL    HW2 6068   3.026   2.790   1.930
 2023SOL     OW 6069   3.723   3.431   2.713
 2023SOL    HW1 6070   3.652   3.419   2.643
 2023SOL    HW2 6071   3.724   3.352   2.773
 2024SOL     OW 6072   2.083   3.176   3.706
 2024SOL    HW1 6073   2.018   3.103   3.685
 2024SOL    HW2 6074   2.087   3.190   3.804
 2025SOL     OW 6075   1.941   3.102   2.515
 2025SOL    HW1 6076   1.940   3.055   2.603
 2025SOL    HW2 6077   2.023   3.074   2.464
 2026SOL     OW 6078   2.534   3.253   3.486
 2026SOL    HW1 6079   2.456   3.203   3.524
 2026SOL    HW2 6080   2.531   3.348   3.517
 2027SOL     OW 6081   3.686   2.054   3.089
 2027SOL    HW1 6082   3.682   1.964   3.133
 2027SOL    HW2 6083   3.689   2.043   2.990
 2028SOL     OW 6084   3.567   3.349   2.966
 2028SOL    HW1 6085   3.474   3.324   2.939
 2028SOL    HW2 6086   3.593   3.299   3.048
 2029SOL     OW 6087   2.179   2.409   3.142
 2029SOL    HW1 6088   2.217   2.350   3.214
 2029SOL    HW2 6089   2.219   2.383   3.054
 2030SOL     OW 6090   2.674   3.448   2.549
 2030SOL    HW1 6091   2.706   3.458   2.455
 2030SOL    HW2 6092   2.595   3.386   2.551
 2031SOL     OW 6093   3.286   2.076   2.974
 2031SOL    HW1 6094   3.338   2.011   3.029
 2031SOL    HW2 6095   3.237   2.139   3.035
 2032SOL     OW 6096   2.863   1.896   3.016
 2032SOL    HW1 6097   2.800   1.824   2.985
 2032SOL    HW2 6098   2.956   1.860   3.016
 2033SOL     OW 6099   2.632   3.192   2.163
 2033SOL    HW1 6100   2.586   3.105   2.180
 2033SOL    HW2 6101   2.723   3.189   2.204
 2034SOL     OW 6102   2.480   3.429   3.146
 2034SOL    HW1 6103   2.475   3.511   3.203
 2034SOL    HW2 6104   2.569   3.426   3.101
 2035SOL     OW 6105   3.214   1.914   2.030
 2035SOL    HW1 6106   3.249   1.873   1.946
 2035SOL    HW2 6107   3.124   1.876   2.050
 2036SOL     OW 6108   3.162   2.315   2.553
 2036SOL    HW1 6109   3.103   2.395   2.557
 2036SOL    HW2 6110   3.177   2.280   2.646
 2037SOL     OW 6111   3.455   2.083   2.744
 2037SOL    HW1 6112   3.371   2.082   2.798
 2037SOL    HW2 6113   3.457   2.166   2.688
 2038SOL     OW 6114   1.901   2.939   2.162
 2038SOL    HW1 6115   2.000   2.928   2.153
 2038SOL    HW2 6116   1.861   2.853   2.194
 2039SOL     OW 6117   2.737   3.508   2.199
 2039SOL    HW1 6118   2.660   3.473   2.145
 2039SOL    HW2 6119   2.705   3.579   2.261
 2040SOL     OW 6120   2.092   2.490   3.837
 2040SOL    HW1 6121   1.999   2.488   3.874
 2040SOL    HW2 6122   2.093   2.451   3.745
 2041SOL     OW 6123   3.617   2.469   3.955
 2041SOL    HW1 6124   3.605   2.456   3.856
 2041SOL    HW2 6125   3.587   2.388   4.004
 2042SOL     OW 6126   2.093   3.575   4.207
 2042SOL    HW1 6127   2.127   3.652   4.261
 2042SOL    HW2 6128   2.137   3.575   4.117
 2043SOL     OW 6129   2.092   3.296   4.262
 2043SOL    HW1 6130   2.066   3.392   4.262
 2043SOL    HW2 6131   2.021   3.242   4.307
 2044SOL     OW 6132   2.468   2.826   3.847
 2044SOL    HW1 6133   2.475   2.910   3.793
 2044SOL    HW2 6134   2.514   2.839   3.935
 2045SOL     OW 6135   3.704   3.629   4.083
 2045SOL    HW1 6136   3.758   3.600   4.163
 2045SOL    HW2 6137   3.734   3.719   4.054
 2046SOL     OW 6138   1.889   3.458   3.841
 2046SOL    HW1 6139   1.870   3.362   3.862
 2046SOL    HW2 6140   1.856   3.516   3.916
 2047SOL     OW 6141   3.551   2.784   4.336
 2047SOL    HW1 6142   3.646   2.755   4.344
 2047SOL    HW2 6143   3.543   2.849   4.261
 2048SOL     OW 6144   3.503   2.970   4.156
 2048SOL    HW1 6145   3.589   2.972   4.104
 2048SOL    HW2 6146   3.517   3.017   4.244
 2049SOL     OW 6147   2.671   1.866   4.226
 2049SOL    HW1 6148   2.711   1.957   4.217
 2049SOL    HW2 6149   2.571   1.874   4.232
 2050SOL     OW 6150   3.387   2.861   3.914
 2050SOL    HW1 6151   3.324   2.785   3.927
 2050SOL    HW2 6152   3.435   2.879   4.000
 2051SOL     OW 6153   2.460   2.591   3.994
 2051SOL    HW1 6154   2.484   2.660   3.926
 2051SOL    HW2 6155   2.382   2.624   4.048
 2052SOL     OW 6156   3.438   3.524   4.031
 2052SOL    HW1 6157   3.527   3.570   4.034
 2052SOL    HW2 6158   3.417   3.500   3.936
 2053SOL     OW 6159   2.727   2.210   3.919
 2053SOL    HW1 6160   2.786   2.273   3.870
 2053SOL    HW2 6161   2.746   2.116   3.890
 2054SOL     OW 6162   2.183   2.805   3.966
 2054SOL    HW1 6163   2.265   2.844   3.924
 2054SOL    HW2 6164   2.156   2.723   3.917
 2055SOL     OW 6165   3.320   2.597   4.452
 2055SOL    HW1 6166   3.315   2.532   4.527
 2055SOL    HW2 6167   3.400   2.656   4.465
 2056SOL     OW 6168   2.973   3.638   3.961
 2056SOL    HW1 6169   2.913   3.576   4.011
 2056SOL    HW2 6170   3.004   3.594   3.876
 2057SOL     OW 6171   3.494   3.239   3.805
 2057SOL    HW1 6172   3.462   3.333   3.795
 2057SOL    HW2 6173   3.418   3.176   3.793
 2058SOL     OW 6174   2.326   3.605   4.047
 2058SOL    HW1 6175   2.359   3.644   4.133
 2058SOL    HW2 6176   2.402   3.598   3.982
 2059SOL     OW 6177   3.262   1.969   4.150
 2059SOL    HW1 6178   3.238   1.932   4.060
 2059SOL    HW2 6179   3.361   1.985   4.154
 2060SOL     OW 6180   2.244   2.562   4.204
 2060SOL    HW1 6181   2.289   2.472   4.201
 2060SOL    HW2 6182   2.150   2.551   4.237
 2061SOL     OW 6183   2.476   1.984   3.841
 2061SOL    HW1 6184   2.574   1.962   3.848
 2061SOL    HW2 6185   2.445   1.967   3.748
 2062SOL     OW 6186   3.296   3.050   3.765
 2062SOL    HW1 6187   3.328   2.974   3.822
 2062SOL    HW2 6188   3.204   3.077   3.795
 2063SOL     OW 6189   2.159   1.897   3.895
 2063SOL    HW1 6190   2.208   1.981   3.874
 2063SOL    HW2 6191   2.221   1.832   3.940
 2064SOL     OW 6192   2.797   2.098   4.204
 2064SOL    HW1 6193   2.749   2.139   4.126
 2064SOL    HW2 6194   2.896   2.096   4.185
 2065SOL     OW 6195   2.321   3.014   4.465
 2065SOL    HW1 6196   2.250   2.987   4.530
 2065SOL    HW2 6197   2.295   2.986   4.372
 2066SOL     OW 6198   3.133   3.659   4.315
 2066SOL    HW1 6199   3.177   3.723   4.251
 2066SOL    HW2 6200   3.083   3.711   4.385
 2067SOL     OW 6201   2.894   2.411   3.740
 2067SOL    HW1 6202   2.853   2.493   3.701
 2067SOL    HW2 6203   2.958   2.437   3.813
 2068SOL     OW 6204   3.291   3.035   4.591
 2068SOL    HW1 6205   3.236   2.951   4.584
 2068SOL    HW2 6206   3.317   3.064   4.499
 2069SOL     OW 6207   3.719   2.695   4.101
 2069SOL    HW1 6208   3.761   2.631   4.165
 2069SOL    HW2 6209   3.681   2.644   4.023
 2070SOL     OW 6210   2.350   3.247   3.898
 2070SOL    HW1 6211   2.263   3.232   3.945
 2070SOL    HW2 6212   2.333   3.273   3.803
 2071SOL     OW 6213   3.252   2.437   3.802
 2071SOL    HW1 6214   3.198   2.416   3.883
 2071SOL    HW2 6215   3.343   2.396   3.811
 2072SOL     OW 6216   2.389   2.118   4.052
 2072SOL    HW1 6217   2.416   2.059   3.977
 2072SOL    HW2 6218   2.389   2.213   4.021
 2073SOL     OW 6219   2.567   2.912   4.092
 2073SOL    HW1 6220   2.553   2.919   4.191
 2073SOL    HW2 6221   2.651   2.861   4.074
 2074SOL     OW 6222   2.229   2.962   4.225
 2074SOL    HW1 6223   2.222   3.045   4.169
 2074SOL    HW2 6224   2.233   2.882   4.165
 2075SOL     OW 6225   3.114   3.210   4.112
 2075SOL    HW1 6226   3.164   3.287   4.152
 2075SOL    HW2 6227   3.019   3.212   4.144
 2076SOL     OW 6228   3.444   2.501   4.196
 2076SOL    HW1 6229   3.413   2.562   4.269
 2076SOL    HW2 6230   3.494   2.553   4.127
 2077SOL     OW 6231   3.071   2.387   3.999
 2077SOL    HW1 6232   3.084   2.303   4.053
 2077SOL    HW2 6233   3.042   2.461   4.059
 2078SOL     OW 6234   3.484   2.229   4.098
 2078SOL    HW1 6235   3.486   2.153   4.162
 2078SOL    HW2 6236   3.436   2.306   4.138
 2079SOL     OW 6237   3.402   2.136   3.849
 2079SOL    HW1 6238   3.341   2.061   3.872
 2079SOL    HW2 6239   3.424   2.188   3.932
 2080SOL     OW 6240   3.165   2.700   3.766
 2080SOL    HW1 6241   3.199   2.607   3.781
 2080SOL    HW2 6242   3.183   2.727   3.671
 2081SOL     OW 6243   1.870   3.188   3.924
 2081SOL    HW1 6244   1.777   3.209   3.893
 2081SOL    HW2 6245   1.880   3.089   3.937
 2082SOL     OW 6246   2.677   2.434   4.049
 2082SOL    HW1 6247   2.684   2.345   4.003
 2082SOL    HW2 6248   2.583   2.468   4.041
 2083SOL     OW 6249   2.335   2.362   3.915
 2083SOL    HW1 6250   2.396   2.442   3.919
 2083SOL    HW2 6251   2.240   2.393   3.922
 2084SOL     OW 6252   3.164   2.717   4.033
 2084SOL    HW1 6253   3.078   2.686   4.075
 2084SOL    HW2 6254   3.160   2.703   3.934
 2085SOL     OW 6255   3.588   1.997   4.247
 2085SOL    HW1 6256   3.661   1.980   4.180
 2085SOL    HW2 6257   3.557   1.910   4.285
 2086SOL     OW 6258   2.534   3.478   3.878
 2086SOL    HW1 6259   2.543   3.488   3.779
 2086SOL    HW2 6260   2.494   3.389   3.899
 2087SOL     OW 6261   3.056   3.474   3.755
 2087SOL    HW1 6262   3.062   3.381   3.792
 2087SOL    HW2 6263   2.997   3.474   3.675
 2088SOL     OW 6264   2.778   2.772   4.015
 2088SOL    HW1 6265   2.841   2.810   3.947
 2088SOL    HW2 6266   2.818   2.689   4.054
 2089SOL     OW 6267   3.366   3.469   3.768
 2089SOL    HW1 6268   3.274   3.506   3.775
 2089SOL    HW2 6269   3.404   3.489   3.678
 2090SOL     OW 6270   2.452   3.349   4.215
 2090SOL    HW1 6271   2.494   3.291   4.145
 2090SOL    HW2 6272   2.408   3.428   4.171
 2091SOL     OW 6273   2.117   3.210   4.014
 2091SOL    HW1 6274   2.021   3.211   3.987
 2091SOL    HW2 6275   2.129   3.263   4.098
 2092SOL     OW 6276   1.937   2.207   3.757
 2092SOL    HW1 6277   1.845   2.179   3.728
 2092SOL    HW2 6278   1.968   2.284   3.701
 2093SOL     OW 6279   1.934   2.028   4.042
 2093SOL    HW1 6280   1.917   2.111   3.988
 2093SOL    HW2 6281   2.024   1.991   4.020
 2094SOL     OW 6282   3.045   3.197   3.843
 2094SOL    HW1 6283   2.946   3.186   3.845
 2094SOL    HW2 6284   3.079   3.212   3.936
 2095SOL     OW 6285   3.087   2.187   4.173
 2095SOL    HW1 6286   3.152   2.113   4.162
 2095SOL    HW2 6287   3.107   2.237   4.257
 2096SOL     OW 6288   2.721   3.236   3.740
 2096SOL    HW1 6289   2.675   3.251   3.828
 2096SOL    HW2 6290   2.765   3.321   3.710
 2097SOL     OW 6291   2.945   2.846   3.811
 2097SOL    HW1 6292   2.922   2.899   3.729
 2097SOL    HW2 6293   3.026   2.790   3.792
 2098SOL     OW 6294   2.290   2.286   4.244
 2098SOL    HW1 6295   2.320   2.214   4.182
 2098SOL    HW2 6296   2.251   2.246   4.327
 2099SOL     OW 6297   2.632   3.192   4.025
 2099SOL    HW1 6298   2.586   3.105   4.042
 2099SOL    HW2 6299   2.723   3.189   4.066
 2100SOL     OW 6300   3.214   1.914   3.892
 2100SOL    HW1 6301   3.249   1.873   3.808
 2100SOL    HW2 6302   3.124   1.876   3.912
 2101SOL     OW 6303   1.901   2.939   4.024
 2101SOL    HW1 6304   2.000   2.928   4.015
 2101SOL    HW2 6305   1.861   2.853   4.056
 2102SOL     OW 6306   2.737   3.508   4.061
 2102SOL    HW1 6307   2.660   3.473   4.007
 2102SOL    HW2 6308   2.705   3.579   4.123
 2103SOL     OW 6309   2.087   3.999   0.996
 2103SOL    HW1 6310   2.122   3.982   1.088
 2103SOL    HW2 6311   1.999   3.954   0.984
 2104SOL     OW 6312   1.881   4.092   0.647
 2104SOL    HW1 6313   1.799   4.135   0.686
 2104SOL    HW2 6314   1.853   4.019   0.584
 2105SOL     OW 6315   3.617   4.331   0.231
 2105SOL    HW1 6316   3.605   4.318   0.132
 2105SOL    HW2 6317   3.587   4.250   0.280
 2106SOL     OW 6318   2.300   4.116   1.499
 2106SOL    HW1 6319   2.382   4.060   1.508
 2106SOL    HW2 6320   2.219   4.058   1.503
 2107SOL     OW 6321   3.465   4.171   0.737
 2107SOL    HW1 6322   3.391   4.217   0.687
 2107SOL    HW2 6323   3.516   4.239   0.790
 2108SOL     OW 6324   3.456   3.838   1.480
 2108SOL    HW1 6325   3.438   3.905   1.408
 2108SOL    HW2 6326   3.453   3.884   1.569
 2109SOL     OW 6327   1.984   4.367   0.563
 2109SOL    HW1 6328   1.939   4.279   0.580
 2109SOL    HW2 6329   1.983   4.421   0.647
 2110SOL     OW 6330   2.671   3.728   0.502
 2110SOL    HW1 6331   2.711   3.819   0.493
 2110SOL    HW2 6332   2.571   3.736   0.508
 2111SOL     OW 6333   2.179   3.975   1.801
 2111SOL    HW1 6334   2.250   4.046   1.807
 2111SOL    HW2 6335   2.091   4.014   1.829
 2112SOL     OW 6336   3.143   4.069   0.944
 2112SOL    HW1 6337   3.057   4.019   0.931
 2112SOL    HW2 6338   3.205   4.015   1.000
 2113SOL     OW 6339   3.256   4.193   1.674
 2113SOL    HW1 6340   3.236   4.236   1.762
 2113SOL    HW2 6341   3.334   4.131   1.683
 2114SOL     OW 6342   2.835   4.614   1.572
 2114SOL    HW1 6343   2.881   4.530   1.543
 2114SOL    HW2 6344   2.779   4.648   1.497
 2115SOL     OW 6345   2.853   4.134   1.242
 2115SOL    HW1 6346   2.776   4.168   1.296
 2115SOL    HW2 6347   2.819   4.083   1.163
 2116SOL     OW 6348   2.727   4.072   0.195
 2116SOL    HW1 6349   2.786   4.135   0.146
 2116SOL    HW2 6350   2.746   3.978   0.166
 2117SOL     OW 6351   3.581   4.309   1.831
 2117SOL    HW1 6352   3.555   4.398   1.795
 2117SOL    HW2 6353   3.579   4.241   1.758
 2118SOL     OW 6354   2.412   3.920   0.885
 2118SOL    HW1 6355   2.407   3.915   0.985
 2118SOL    HW2 6356   2.414   4.016   0.856
 2119SOL     OW 6357   2.064   4.009   1.498
 2119SOL    HW1 6358   1.984   4.069   1.485
 2119SOL    HW2 6359   2.054   3.960   1.584
 2120SOL     OW 6360   3.262   3.831   0.426
 2120SOL    HW1 6361   3.238   3.794   0.336
 2120SOL    HW2 6362   3.361   3.847   0.430
 2121SOL     OW 6363   3.409   3.946   1.729
 2121SOL    HW1 6364   3.404   3.983   1.821
 2121SOL    HW2 6365   3.337   3.877   1.717
 2122SOL     OW 6366   2.476   3.846   0.117
 2122SOL    HW1 6367   2.574   3.824   0.124
 2122SOL    HW2 6368   2.445   3.829   0.024
 2123SOL     OW 6369   2.643   3.988   1.749
 2123SOL    HW1 6370   2.710   3.927   1.792
 2123SOL    HW2 6371   2.570   4.007   1.814
 2124SOL     OW 6372   3.213   4.314   1.433
 2124SOL    HW1 6373   3.241   4.271   1.518
 2124SOL    HW2 6374   3.238   4.410   1.434
 2125SOL     OW 6375   2.401   3.788   0.512
 2125SOL    HW1 6376   2.320   3.789   0.570
 2125SOL    HW2 6377   2.404   3.871   0.457
 2126SOL     OW 6378   2.159   3.759   0.171
 2126SOL    HW1 6379   2.208   3.843   0.150
 2126SOL    HW2 6380   2.221   3.694   0.216
 2127SOL     OW 6381   2.797   3.960   0.480
 2127SOL    HW1 6382   2.749   4.001   0.402
 2127SOL    HW2 6383   2.896   3.958   0.461
 2128SOL     OW 6384   1.940   4.280   1.386
 2128SOL    HW1 6385   2.032   4.279   1.345
 2128SOL    HW2 6386   1.934   4.354   1.453
 2129SOL     OW 6387   2.423   3.946   1.147
 2129SOL    HW1 6388   2.461   3.862   1.184
 2129SOL    HW2 6389   2.335   3.965   1.191
 2130SOL     OW 6390   2.879   3.763   0.753
 2130SOL    HW1 6391   2.807   3.768   0.684
 2130SOL    HW2 6392   2.855   3.694   0.822
 2131SOL     OW 6393   3.328   4.314   0.992
 2131SOL    HW1 6394   3.298   4.219   0.999
 2131SOL    HW2 6395   3.401   4.330   1.058
 2132SOL     OW 6396   2.389   3.980   0.328
 2132SOL    HW1 6397   2.416   3.921   0.253
 2132SOL    HW2 6398   2.389   4.075   0.297
 2133SOL     OW 6399   2.777   3.813   1.402
 2133SOL    HW1 6400   2.802   3.793   1.307
 2133SOL    HW2 6401   2.849   3.869   1.444
 2134SOL     OW 6402   3.136   4.110   1.262
 2134SOL    HW1 6403   3.157   4.184   1.326
 2134SOL    HW2 6404   3.047   4.127   1.219
 2135SOL     OW 6405   2.428   4.261   0.865
 2135SOL    HW1 6406   2.440   4.327   0.791
 2135SOL    HW2 6407   2.474   4.295   0.948
 2136SOL     OW 6408   2.875   3.829   1.770
 2136SOL    HW1 6409   2.881   3.914   1.718
 2136SOL    HW2 6410   2.907   3.753   1.713
 2137SOL     OW 6411   2.366   3.774   1.740
 2137SOL    HW1 6412   2.324   3.717   1.670
 2137SOL    HW2 6413   2.300   3.843   1.772
 2138SOL     OW 6414   2.169   3.937   1.231
 2138SOL    HW1 6415   2.146   3.974   1.321
 2138SOL    HW2 6416   2.139   3.842   1.225
 2139SOL     OW 6417   2.594   4.358   1.064
 2139SOL    HW1 6418   2.653   4.332   0.988
 2139SOL    HW2 6419   2.566   4.454   1.053
 2140SOL     OW 6420   2.169   3.787   0.618
 2140SOL    HW1 6421   2.158   3.881   0.651
 2140SOL    HW2 6422   2.164   3.724   0.695
 2141SOL     OW 6423   3.484   4.091   0.374
 2141SOL    HW1 6424   3.486   4.015   0.438
 2141SOL    HW2 6425   3.436   4.168   0.414
 2142SOL     OW 6426   3.402   3.998   0.125
 2142SOL    HW1 6427   3.341   3.923   0.148
 2142SOL    HW2 6428   3.424   4.050   0.208
 2143SOL     OW 6429   2.201   4.233   1.006
 2143SOL    HW1 6430   2.149   4.150   0.989
 2143SOL    HW2 6431   2.278   4.238   0.942
 2144SOL     OW 6432   3.000   4.104   1.678
 2144SOL    HW1 6433   2.955   4.167   1.742
 2144SOL    HW2 6434   3.093   4.135   1.661
 2145SOL     OW 6435   3.022   3.931   1.477
 2145SOL    HW1 6436   3.022   3.995   1.554
 2145SOL    HW2 6437   3.050   3.979   1.394
 2146SOL     OW 6438   2.864   4.520   1.238
 2146SOL    HW1 6439   2.905   4.488   1.324
 2146SOL    HW2 6440   2.768   4.493   1.235
 2147SOL     OW 6441   1.902   4.268   1.114
 2147SOL    HW1 6442   1.987   4.235   1.073
 2147SOL    HW2 6443   1.915   4.283   1.212
 2148SOL     OW 6444   2.051   4.244   1.722
 2148SOL    HW1 6445   2.110   4.204   1.652
 2148SOL    HW2 6446   1.993   4.315   1.681
 2149SOL     OW 6447   2.677   4.296   0.325
 2149SOL    HW1 6448   2.684   4.207   0.279
 2149SOL    HW2 6449   2.583   4.330   0.317
 2150SOL     OW 6450   3.519   4.328   1.206
 2150SOL    HW1 6451   3.481   4.259   1.268
 2150SOL    HW2 6452   3.601   4.292   1.162
 2151SOL     OW 6453   2.533   4.188   1.269
 2151SOL    HW1 6454   2.499   4.099   1.239
 2151SOL    HW2 6455   2.559   4.242   1.189
 2152SOL     OW 6456   2.765   3.810   0.133
 2152SOL    HW1 6457   2.816   3.811   0.047
 2152SOL    HW2 6458   2.821   3.768   0.204
 2153SOL     OW 6459   3.588   3.859   0.523
 2153SOL    HW1 6460   3.661   3.842   0.456
 2153SOL    HW2 6461   3.557   3.772   0.561
 2154SOL     OW 6462   3.703   3.899   0.963
 2154SOL    HW1 6463   3.742   3.814   0.927
 2154SOL    HW2 6464   3.605   3.901   0.944
 2155SOL     OW 6465   2.125   4.050   0.720
 2155SOL    HW1 6466   2.046   4.101   0.686
 2155SOL    HW2 6467   2.116   4.035   0.818
 2156SOL     OW 6468   2.876   3.960   0.971
 2156SOL    HW1 6469   2.868   3.924   0.878
 2156SOL    HW2 6470   2.874   3.884   1.036
 2157SOL     OW 6471   3.571   4.109   1.381
 2157SOL    HW1 6472   3.644   4.178   1.385
 2157SOL    HW2 6473   3.599   4.034   1.322
 2158SOL     OW 6474   2.534   3.927   1.489
 2158SOL    HW1 6475   2.624   3.911   1.449
 2158SOL    HW2 6476   2.542   3.932   1.588
 2159SOL     OW 6477   1.937   4.069   0.033
 2159SOL    HW1 6478   1.845   4.041   0.004
 2159SOL    HW2 6479   1.968   4.146  -0.023
 2160SOL     OW 6480   1.934   3.890   0.318
 2160SOL    HW1 6481   1.917   3.973   0.264
 2160SOL    HW2 6482   2.024   3.853   0.296
 2161SOL     OW 6483   2.578   4.289   1.708
 2161SOL    HW1 6484   2.597   4.354   1.782
 2161SOL    HW2 6485   2.638   4.209   1.717
 2162SOL     OW 6486   3.087   4.049   0.449
 2162SOL    HW1 6487   3.152   3.975   0.438
 2162SOL    HW2 6488   3.107   4.099   0.533
 2163SOL     OW 6489   3.639   4.066   1.642
 2163SOL    HW1 6490   3.622   4.097   1.548
 2163SOL    HW2 6491   3.555   4.029   1.680
 2164SOL     OW 6492   3.686   3.916   1.227
 2164SOL    HW1 6493   3.682   3.826   1.271
 2164SOL    HW2 6494   3.689   3.905   1.128
 2165SOL     OW 6495   2.290   4.148   0.520
 2165SOL    HW1 6496   2.320   4.076   0.458
 2165SOL    HW2 6497   2.251   4.108   0.603
 2166SOL     OW 6498   3.286   3.938   1.112
 2166SOL    HW1 6499   3.338   3.873   1.167
 2166SOL    HW2 6500   3.237   4.001   1.173
 2167SOL     OW 6501   2.863   3.758   1.154
 2167SOL    HW1 6502   2.800   3.686   1.123
 2167SOL    HW2 6503   2.956   3.722   1.154
 2168SOL     OW 6504   3.162   4.177   0.691
 2168SOL    HW1 6505   3.103   4.257   0.695
 2168SOL    HW2 6506   3.177   4.142   0.784
 2169SOL     OW 6507   3.455   3.945   0.882
 2169SOL    HW1 6508   3.371   3.944   0.936
 2169SOL    HW2 6509   3.457   4.028   0.826
 2170SOL     OW 6510   2.087   3.999   2.858
 2170SOL    HW1 6511   2.122   3.982   2.950
 2170SOL    HW2 6512   1.999   3.954   2.846
 2171SOL     OW 6513   1.881   4.092   2.509
 2171SOL    HW1 6514   1.799   4.135   2.548
 2171SOL    HW2 6515   1.853   4.019   2.446
 2172SOL     OW 6516   3.617   4.331   2.093
 2172SOL    HW1 6517   3.605   4.318   1.994
 2172SOL    HW2 6518   3.587   4.250   2.142
 2173SOL     OW 6519   2.300   4.116   3.361
 2173SOL    HW1 6520   2.382   4.060   3.370
 2173SOL    HW2 6521   2.219   4.058   3.365
 2174SOL     OW 6522   3.465   4.171   2.599
 2174SOL    HW1 6523   3.391   4.217   2.549
 2174SOL    HW2 6524   3.516   4.239   2.652
 2175SOL     OW 6525   3.456   3.838   3.342
 2175SOL    HW1 6526   3.438   3.905   3.270
 2175SOL    HW2 6527   3.453   3.884   3.431
 2176SOL     OW 6528   1.984   4.367   2.425
 2176SOL    HW1 6529   1.939   4.279   2.442
 2176SOL    HW2 6530   1.983   4.421   2.509
 2177SOL     OW 6531   2.671   3.728   2.364
 2177SOL    HW1 6532   2.711   3.819   2.355
 2177SOL    HW2 6533   2.571   3.736   2.370
 2178SOL     OW 6534   2.179   3.975   3.663
 2178SOL    HW1 6535   2.250   4.046   3.669
 2178SOL    HW2 6536   2.091   4.014   3.691
 2179SOL     OW 6537   3.143   4.069   2.806
 2179SOL    HW1 6538   3.057   4.019   2.793
 2179SOL    HW2 6539   3.205   4.015   2.862
 2180SOL     OW 6540   3.256   4.193   3.536
 2180SOL    HW1 6541   3.236   4.236   3.624
 2180SOL    HW2 6542   3.334   4.131   3.545
 2181SOL     OW 6543   2.835   4.614   3.434
 2181SOL    HW1 6544   2.881   4.530   3.405
 2181SOL    HW2 6545   2.779   4.648   3.359
 2182SOL     OW 6546   2.853   4.134   3.104
 2182SOL    HW1 6547   2.776   4.168   3.158
 2182SOL    HW2 6548   2.819   4.083   3.025
 2183SOL     OW 6549   2.727   4.072   2.057
 2183SOL    HW1 6550   2.786   4.135   2.008
 2183SOL    HW2 6551   2.746   3.978   2.028
 2184SOL     OW 6552   3.581   4.309   3.693
 2184SOL    HW1 6553   3.555   4.398   3.657
 2184SOL    HW2 6554   3.579   4.241   3.620
 2185SOL     OW 6555   2.412   3.920   2.747
 2185SOL    HW1 6556   2.407   3.915   2.847
 2185SOL    HW2 6557   2.414   4.016   2.718
 2186SOL     OW 6558   2.064   4.009   3.360
 2186SOL    HW1 6559   1.984   4.069   3.347
 2186SOL    HW2 6560   2.054   3.960   3.446
 2187SOL     OW 6561   3.262   3.831   2.288
 2187SOL    HW1 6562   3.238   3.794   2.198
 2187SOL    HW2 6563   3.361   3.847   2.292
 2188SOL     OW 6564   3.409   3.946   3.591
 2188SOL    HW1 6565   3.404   3.983   3.683
 2188SOL    HW2 6566   3.337   3.877   3.579
 2189SOL     OW 6567   2.476   3.846   1.979
 2189SOL    HW1 6568   2.574   3.824   1.986
 2189SOL    HW2 6569   2.445   3.829   1.886
 2190SOL     OW 6570   2.643   3.988   3.611
 2190SOL    HW1 6571   2.710   3.927   3.654
 2190SOL    HW2 6572   2.570   4.007   3.676
 2191SOL     OW 6573   3.213   4.314   3.295
 2191SOL    HW1 6574   3.241   4.271   3.380
 2191SOL    HW2 6575   3.238   4.410   3.296
 2192SOL     OW 6576   2.401   3.788   2.374
 2192SOL    HW1 6577   2.320   3.789   2.432
 2192SOL    HW2 6578   2.404   3.871   2.319
 2193SOL     OW 6579   2.159   3.759   2.033
 2193SOL    HW1 6580   2.208   3.843   2.012
 2193SOL    HW2 6581   2.221   3.694   2.078
 2194SOL     OW 6582   2.797   3.960   2.342
 2194SOL    HW1 6583   2.749   4.001   2.264
 2194SOL    HW2 6584   2.896   3.958   2.323
 2195SOL     OW 6585   1.940   4.280   3.248
 2195SOL    HW1 6586   2.032   4.279   3.207
 2195SOL    HW2 6587   1.934   4.354   3.315
 2196SOL     OW 6588   2.423   3.946   3.009
 2196SOL    HW1 6589   2.461   3.862   3.046
 2196SOL    HW2 6590   2.335   3.965   3.053
 2197SOL     OW 6591   2.879   3.763   2.615
 2197SOL    HW1 6592   2.807   3.768   2.546
 2197SOL    HW2 6593   2.855   3.694   2.684
 2198SOL     OW 6594   3.328   4.314   2.854
 2198SOL    HW1 6595   3.298   4.219   2.861
 2198SOL    HW2 6596   3.401   4.330   2.920
 2199SOL     OW 6597   2.389   3.980   2.190
 2199SOL    HW1 6598   2.416   3.921   2.115
 2199SOL    HW2 6599   2.389   4.075   2.159
 2200SOL     OW 6600   2.777   3.813   3.264
 2200SOL    HW1 6601   2.802   3.793   3.169
 2200SOL    HW2 6602   2.849   3.869   3.306
 2201SOL     OW 6603   3.136   4.110   3.124
 2201SOL    HW1 6604   3.157   4.184   3.188
 2201SOL    HW2 6605   3.047   4.127   3.081
 2202SOL     OW 6606   2.428   4.261   2.727
 2202SOL    HW1 6607   2.440   4.327   2.653
 2202SOL    HW2 6608   2.474   4.295   2.810
 2203SOL     OW 6609   2.875   3.829   3.632
 2203SOL    HW1 6610   2.881   3.914   3.580
 2203SOL    HW2 6611   2.907   3.753   3.575
 2204SOL     OW 6612   2.366   3.774   3.602
 2204SOL    HW1 6613   2.324   3.717   3.532
 2204SOL    HW2 6614   2.300   3.843   3.634
 2205SOL     OW 6615   2.169   3.937   3.093
 2205SOL    HW1 6616   2.146   3.974   3.183
 2205SOL    HW2 6617   2.139   3.842   3.087
 2206SOL     OW 6618   2.594   4.358   2.926
 2206SOL    HW1 6619   2.653   4.332   2.850
 2206SOL    HW2 6620   2.566   4.454   2.915
 2207SOL     OW 6621   2.169   3.787   2.480
 2207SOL    HW1 6622   2.158   3.881   2.513
 2207SOL    HW2 6623   2.164   3.724   2.557
 2208SOL     OW 6624   3.484   4.091   2.236
 2208SOL    HW1 6625   3.486   4.015   2.300
 2208SOL    HW2 6626   3.436   4.168   2.276
 2209SOL     OW 6627   3.402   3.998   1.987
 2209SOL    HW1 6628   3.341   3.923   2.010
 2209SOL    HW2 6629   3.424   4.050   2.070
 2210SOL     OW 6630   3.165   4.562   1.904
 2210SOL    HW1 6631   3.199   4.469   1.919
 2210SOL    HW2 6632   3.183   4.589   1.809
 2211SOL     OW 6633   2.201   4.233   2.868
 2211SOL    HW1 6634   2.149   4.150   2.851
 2211SOL    HW2 6635   2.278   4.238   2.804
 2212SOL     OW 6636   3.000   4.104   3.540
 2212SOL    HW1 6637   2.955   4.167   3.604
 2212SOL    HW2 6638   3.093   4.135   3.523
 2213SOL     OW 6639   3.022   3.931   3.339
 2213SOL    HW1 6640   3.022   3.995   3.416
 2213SOL    HW2 6641   3.050   3.979   3.256
 2214SOL     OW 6642   2.864   4.520   3.100
 2214SOL    HW1 6643   2.905   4.488   3.186
 2214SOL    HW2 6644   2.768   4.493   3.097
 2215SOL     OW 6645   1.902   4.268   2.976
 2215SOL    HW1 6646   1.987   4.235   2.935
 2215SOL    HW2 6647   1.915   4.283   3.074
 2216SOL     OW 6648   2.051   4.244   3.584
 2216SOL    HW1 6649   2.110   4.204   3.514
 2216SOL    HW2 6650   1.993   4.315   3.543
 2217SOL     OW 6651   2.677   4.296   2.187
 2217SOL    HW1 6652   2.684   4.207   2.141
 2217SOL    HW2 6653   2.583   4.330   2.179
 2218SOL     OW 6654   3.519   4.328   3.068
 2218SOL    HW1 6655   3.481   4.259   3.130
 2218SOL    HW2 6656   3.601   4.292   3.024
 2219SOL     OW 6657   2.533   4.188   3.131
 2219SOL    HW1 6658   2.499   4.099   3.101
 2219SOL    HW2 6659   2.559   4.242   3.051
 2220SOL     OW 6660   3.588   3.859   2.385
 2220SOL    HW1 6661   3.661   3.842   2.318
 2220SOL    HW2 6662   3.557   3.772   2.423
 2221SOL     OW 6663   3.703   3.899   2.825
 2221SOL    HW1 6664   3.742   3.814   2.789
 2221SOL    HW2 6665   3.605   3.901   2.806
 2222SOL     OW 6666   2.125   4.050   2.582
 2222SOL    HW1 6667   2.046   4.101   2.548
 2222SOL    HW2 6668   2.116   4.035   2.680
 2223SOL     OW 6669   2.876   3.960   2.833
 2223SOL    HW1 6670   2.868   3.924   2.740
 2223SOL    HW2 6671   2.874   3.884   2.898
 2224SOL     OW 6672   3.571   4.109   3.243
 2224SOL    HW1 6673   3.644   4.178   3.247
 2224SOL    HW2 6674   3.599   4.034   3.184
 2225SOL     OW 6675   2.534   3.927   3.351
 2225SOL    HW1 6676   2.624   3.911   3.311
 2225SOL    HW2 6677   2.542   3.932   3.450
 2226SOL     OW 6678   1.937   4.069   1.895
 2226SOL    HW1 6679   1.845   4.041   1.866
 2226SOL    HW2 6680   1.968   4.146   1.839
 2227SOL     OW 6681   1.934   3.890   2.180
 2227SOL    HW1 6682   1.917   3.973   2.126
 2227SOL    HW2 6683   2.024   3.853   2.158
 2228SOL     OW 6684   2.578   4.289   3.570
 2228SOL    HW1 6685   2.597   4.354   3.644
 2228SOL    HW2 6686   2.638   4.209   3.579
 2229SOL     OW 6687   3.087   4.049   2.311
 2229SOL    HW1 6688   3.152   3.975   2.300
 2229SOL    HW2 6689   3.107   4.099   2.395
 2230SOL     OW 6690   3.639   4.066   3.504
 2230SOL    HW1 6691   3.622   4.097   3.410
 2230SOL    HW2 6692   3.555   4.029   3.542
 2231SOL     OW 6693   3.686   3.916   3.089
 2231SOL    HW1 6694   3.682   3.826   3.133
 2231SOL    HW2 6695   3.689   3.905   2.990
 2232SOL     OW 6696   2.290   4.148   2.382
 2232SOL    HW1 6697   2.320   4.076   2.320
 2232SOL    HW2 6698   2.251   4.108   2.465
 2233SOL     OW 6699   3.286   3.938   2.974
 2233SOL    HW1 6700   3.338   3.873   3.029
 2233SOL    HW2 6701   3.237   4.001   3.035
 2234SOL     OW 6702   2.863   3.758   3.016
 2234SOL    HW1 6703   2.800   3.686   2.985
 2234SOL    HW2 6704   2.956   3.722   3.016
 2235SOL     OW 6705   3.214   3.776   2.030
 2235SOL    HW1 6706   3.249   3.735   1.946
 2235SOL    HW2 6707   3.124   3.738   2.050
 2236SOL     OW 6708   3.162   4.177   2.553
 2236SOL    HW1 6709   3.103   4.257   2.557
 2236SOL    HW2 6710   3.177   4.142   2.646
 2237SOL     OW 6711   3.455   3.945   2.744
 2237SOL    HW1 6712   3.371   3.944   2.798
 2237SOL    HW2 6713   3.457   4.028   2.688
 2238SOL     OW 6714   2.997   4.427   4.441
 2238SOL    HW1 6715   3.054   4.505   4.416
 2238SOL    HW2 6716   2.937   4.453   4.517
 2239SOL     OW 6717   3.617   4.331   3.955
 2239SOL    HW1 6718   3.605   4.318   3.856
 2239SOL    HW2 6719   3.587   4.250   4.004
 2240SOL     OW 6720   1.984   4.367   4.287
 2240SOL    HW1 6721   1.939   4.279   4.304
 2240SOL    HW2 6722   1.983   4.421   4.371
 2241SOL     OW 6723   2.671   3.728   4.226
 2241SOL    HW1 6724   2.711   3.819   4.217
 2241SOL    HW2 6725   2.571   3.736   4.232
 2242SOL     OW 6726   2.727   4.072   3.919
 2242SOL    HW1 6727   2.786   4.135   3.870
 2242SOL    HW2 6728   2.746   3.978   3.890
 2243SOL     OW 6729   3.262   3.831   4.150
 2243SOL    HW1 6730   3.238   3.794   4.060
 2243SOL    HW2 6731   3.361   3.847   4.154
 2244SOL     OW 6732   2.244   4.424   4.204
 2244SOL    HW1 6733   2.289   4.334   4.201
 2244SOL    HW2 6734   2.150   4.413   4.237
 2245SOL     OW 6735   2.476   3.846   3.841
 2245SOL    HW1 6736   2.574   3.824   3.848
 2245SOL    HW2 6737   2.445   3.829   3.748
 2246SOL     OW 6738   2.159   3.759   3.895
 2246SOL    HW1 6739   2.208   3.843   3.874
 2246SOL    HW2 6740   2.221   3.694   3.940
 2247SOL     OW 6741   2.797   3.960   4.204
 2247SOL    HW1 6742   2.749   4.001   4.126
 2247SOL    HW2 6743   2.896   3.958   4.185
 2248SOL     OW 6744   2.389   3.980   4.052
 2248SOL    HW1 6745   2.416   3.921   3.977
 2248SOL    HW2 6746   2.389   4.075   4.021
 2249SOL     OW 6747   3.484   4.091   4.098
 2249SOL    HW1 6748   3.486   4.015   4.162
 2249SOL    HW2 6749   3.436   4.168   4.138
 2250SOL     OW 6750   3.402   3.998   3.849
 2250SOL    HW1 6751   3.341   3.923   3.872
 2250SOL    HW2 6752   3.424   4.050   3.932
 2251SOL     OW 6753   3.165   4.562   3.766
 2251SOL    HW1 6754   3.199   4.469   3.781
 2251SOL    HW2 6755   3.183   4.589   3.671
 2252SOL     OW 6756   2.677   4.296   4.049
 2252SOL    HW1 6757   2.684   4.207   4.003
 2252SOL    HW2 6758   2.583   4.330   4.041
 2253SOL     OW 6759   3.588   3.859   4.247
 2253SOL    HW1 6760   3.661   3.842   4.180
 2253SOL    HW2 6761   3.557   3.772   4.285
 2254SOL     OW 6762   1.937   4.069   3.757
 2254SOL    HW1 6763   1.845   4.041   3.728
 2254SOL    HW2 6764   1.968   4.146   3.701
 2255SOL     OW 6765   1.934   3.890   4.042
 2255SOL    HW1 6766   1.917   3.973   3.988
 2255SOL    HW2 6767   2.024   3.853   4.020
 2256SOL     OW 6768   3.087   4.049   4.173
 2256SOL    HW1 6769   3.152   3.975   4.162
 2256SOL    HW2 6770   3.107   4.099   4.257
 2257SOL     OW 6771   2.290   4.148   4.244
 2257SOL    HW1 6772   2.320   4.076   4.182
 2257SOL    HW2 6773   2.251   4.108   4.327
 2258SOL     OW 6774   3.214   3.776   3.892
 2258SOL    HW1 6775   3.249   3.735   3.808
 2258SOL    HW2 6776   3.124   3.738   3.912
 2259SOL     OW 6777   3.954   0.628   0.113
 2259SOL    HW1 6778   3.861   0.626   0.150
 2259SOL    HW2 6779   3.955   0.589   0.021
 2260SOL     OW 6780   3.949   0.275   0.996
 2260SOL    HW1 6781   3.984   0.258   1.088
 2260SOL    HW2 6782   3.861   0.230   0.984
 2261SOL     OW 6783   3.743   0.368   0.647
 2261SOL    HW1 6784   3.661   0.411   0.686
 2261SOL    HW2 6785   3.715   0.295   0.584
 2262SOL     OW 6786   4.059   1.435   1.061
 2262SOL    HW1 6787   3.981   1.404   1.008
 2262SOL    HW2 6788   4.117   1.493   1.004
 2263SOL     OW 6789   4.162   0.392   1.499
 2263SOL    HW1 6790   4.244   0.336   1.508
 2263SOL    HW2 6791   4.081   0.334   1.503
 2264SOL     OW 6792   3.955   1.713   0.483
 2264SOL    HW1 6793   3.989   1.790   0.537
 2264SOL    HW2 6794   3.999   1.713   0.393
 2265SOL     OW 6795   3.954   1.434   0.538
 2265SOL    HW1 6796   3.928   1.530   0.538
 2265SOL    HW2 6797   3.883   1.380   0.583
 2266SOL     OW 6798   3.964   1.091   0.886
 2266SOL    HW1 6799   3.978   1.007   0.938
 2266SOL    HW2 6800   3.909   1.155   0.941
 2267SOL     OW 6801   3.846   0.643   0.563
 2267SOL    HW1 6802   3.801   0.555   0.580
 2267SOL    HW2 6803   3.845   0.697   0.647
 2268SOL     OW 6804   3.751   1.596   0.117
 2268SOL    HW1 6805   3.732   1.500   0.138
 2268SOL    HW2 6806   3.718   1.654   0.192
 2269SOL     OW 6807   3.837   0.737   1.597
 2269SOL    HW1 6808   3.925   0.724   1.642
 2269SOL    HW2 6809   3.824   0.834   1.575
 2270SOL     OW 6810   3.921   0.976   1.264
 2270SOL    HW1 6811   4.010   0.931   1.250
 2270SOL    HW2 6812   3.848   0.911   1.245
 2271SOL     OW 6813   4.041   0.251   1.801
 2271SOL    HW1 6814   4.112   0.322   1.807
 2271SOL    HW2 6815   3.953   0.290   1.829
 2272SOL     OW 6816   4.322   0.729   0.270
 2272SOL    HW1 6817   4.346   0.798   0.202
 2272SOL    HW2 6818   4.244   0.762   0.324
 2273SOL     OW 6819   3.800   0.811   0.789
 2273SOL    HW1 6820   3.899   0.799   0.798
 2273SOL    HW2 6821   3.776   0.906   0.810
 2274SOL     OW 6822   3.854   1.821   1.571
 2274SOL    HW1 6823   3.844   1.806   1.670
 2274SOL    HW2 6824   3.768   1.857   1.535
 2275SOL     OW 6825   4.274   0.196   0.885
 2275SOL    HW1 6826   4.269   0.191   0.985
 2275SOL    HW2 6827   4.276   0.292   0.856
 2276SOL     OW 6828   4.075   1.801   0.853
 2276SOL    HW1 6829   4.125   1.715   0.859
 2276SOL    HW2 6830   4.140   1.878   0.850
 2277SOL     OW 6831   4.045   0.943   0.242
 2277SOL    HW1 6832   4.127   0.982   0.200
 2277SOL    HW2 6833   4.018   0.861   0.193
 2278SOL     OW 6834   4.185   1.266   1.727
 2278SOL    HW1 6835   4.135   1.267   1.641
 2278SOL    HW2 6836   4.122   1.248   1.803
 2279SOL     OW 6837   3.926   0.285   1.498
 2279SOL    HW1 6838   3.846   0.345   1.485
 2279SOL    HW2 6839   3.916   0.236   1.584
 2280SOL     OW 6840   3.973   1.785   1.241
 2280SOL    HW1 6841   4.030   1.720   1.291
 2280SOL    HW2 6842   3.957   1.752   1.148
 2281SOL     OW 6843   4.106   0.700   0.480
 2281SOL    HW1 6844   4.151   0.610   0.477
 2281SOL    HW2 6845   4.012   0.689   0.513
 2282SOL     OW 6846   4.021   0.035   0.171
 2282SOL    HW1 6847   4.070   0.119   0.150
 2282SOL    HW2 6848   4.083  -0.030   0.216
 2283SOL     OW 6849   4.183   1.152   0.741
 2283SOL    HW1 6850   4.112   1.125   0.806
 2283SOL    HW2 6851   4.157   1.124   0.648
 2284SOL     OW 6852   3.802   0.556   1.386
 2284SOL    HW1 6853   3.894   0.555   1.345
 2284SOL    HW2 6854   3.796   0.630   1.453
 2285SOL     OW 6855   4.285   0.222   1.147
 2285SOL    HW1 6856   4.323   0.138   1.184
 2285SOL    HW2 6857   4.197   0.241   1.191
 2286SOL     OW 6858   4.134   0.813   1.251
 2286SOL    HW1 6859   4.220   0.825   1.301
 2286SOL    HW2 6860   4.092   0.726   1.278
 2287SOL     OW 6861   3.788   1.564   1.331
 2287SOL    HW1 6862   3.742   1.646   1.297
 2287SOL    HW2 6863   3.886   1.583   1.340
 2288SOL     OW 6864   4.091   1.100   0.501
 2288SOL    HW1 6865   4.084   1.183   0.445
 2288SOL    HW2 6866   4.095   1.020   0.441
 2289SOL     OW 6867   4.290   0.537   0.865
 2289SOL    HW1 6868   4.302   0.603   0.791
 2289SOL    HW2 6869   4.336   0.571   0.948
 2290SOL     OW 6870   4.078   1.510   1.329
 2290SOL    HW1 6871   4.057   1.466   1.242
 2290SOL    HW2 6872   4.175   1.536   1.332
 2291SOL     OW 6873   4.126   0.751   1.598
 2291SOL    HW1 6874   4.194   0.806   1.551
 2291SOL    HW2 6875   4.166   0.663   1.625
 2292SOL     OW 6876   4.228   0.050   1.740
 2292SOL    HW1 6877   4.186  -0.007   1.670
 2292SOL    HW2 6878   4.162   0.119   1.772
 2293SOL     OW 6879   4.297   0.870   1.029
 2293SOL    HW1 6880   4.341   0.959   1.020
 2293SOL    HW2 6881   4.234   0.870   1.106
 2294SOL     OW 6882   4.031   0.213   1.231
 2294SOL    HW1 6883   4.008   0.250   1.321
 2294SOL    HW2 6884   4.001   0.118   1.225
 2295SOL     OW 6885   3.761   1.310   1.282
 2295SOL    HW1 6886   3.814   1.261   1.350
 2295SOL    HW2 6887   3.783   1.408   1.287
 2296SOL     OW 6888   4.031   0.063   0.618
 2296SOL    HW1 6889   4.020   0.157   0.651
 2296SOL    HW2 6890   4.026   0.000   0.695
 2297SOL     OW 6891   4.074   0.898   1.804
 2297SOL    HW1 6892   4.150   0.942   1.852
 2297SOL    HW2 6893   4.109   0.851   1.722
 2298SOL     OW 6894   4.043   0.810   0.949
 2298SOL    HW1 6895   4.136   0.846   0.954
 2298SOL    HW2 6896   4.037   0.725   1.001
 2299SOL     OW 6897   4.063   0.509   1.006
 2299SOL    HW1 6898   4.011   0.426   0.989
 2299SOL    HW2 6899   4.140   0.514   0.942
 2300SOL     OW 6900   3.732   1.326   0.200
 2300SOL    HW1 6901   3.639   1.347   0.169
 2300SOL    HW2 6902   3.742   1.227   0.213
 2301SOL     OW 6903   3.812   1.801   0.927
 2301SOL    HW1 6904   3.770   1.715   0.900
 2301SOL    HW2 6905   3.906   1.804   0.893
 2302SOL     OW 6906   3.764   0.544   1.114
 2302SOL    HW1 6907   3.849   0.511   1.073
 2302SOL    HW2 6908   3.777   0.559   1.212
 2303SOL     OW 6909   3.913   0.520   1.722
 2303SOL    HW1 6910   3.972   0.480   1.652
 2303SOL    HW2 6911   3.855   0.591   1.681
 2304SOL     OW 6912   4.539   0.572   0.325
 2304SOL    HW1 6913   4.546   0.483   0.279
 2304SOL    HW2 6914   4.445   0.606   0.317
 2305SOL     OW 6915   3.976   1.564   1.744
 2305SOL    HW1 6916   3.946   1.621   1.820
 2305SOL    HW2 6917   3.969   1.467   1.770
 2306SOL     OW 6918   4.197   0.500   0.191
 2306SOL    HW1 6919   4.258   0.580   0.195
 2306SOL    HW2 6920   4.102   0.531   0.198
 2307SOL     OW 6921   3.883   1.137   1.466
 2307SOL    HW1 6922   3.905   1.076   1.542
 2307SOL    HW2 6923   3.893   1.088   1.380
 2308SOL     OW 6924   3.807   1.258   1.022
 2308SOL    HW1 6925   3.802   1.257   1.122
 2308SOL    HW2 6926   3.724   1.217   0.984
 2309SOL     OW 6927   3.854   1.794   1.851
 2309SOL    HW1 6928   3.813   1.720   1.904
 2309SOL    HW2 6929   3.918   1.845   1.909
 2310SOL     OW 6930   3.987   0.326   0.720
 2310SOL    HW1 6931   3.908   0.377   0.686
 2310SOL    HW2 6932   3.978   0.311   0.818
 2311SOL     OW 6933   4.096   1.288   1.490
 2311SOL    HW1 6934   4.083   1.381   1.456
 2311SOL    HW2 6935   4.012   1.236   1.477
 2312SOL     OW 6936   4.314   1.487   0.491
 2312SOL    HW1 6937   4.356   1.429   0.421
 2312SOL    HW2 6938   4.270   1.566   0.447
 2313SOL     OW 6939   3.979   1.348   0.290
 2313SOL    HW1 6940   3.883   1.349   0.263
 2313SOL    HW2 6941   3.991   1.401   0.374
 2314SOL     OW 6942   3.829   1.013   1.726
 2314SOL    HW1 6943   3.752   0.980   1.780
 2314SOL    HW2 6944   3.914   0.983   1.768
 2315SOL     OW 6945   3.799   0.345   0.033
 2315SOL    HW1 6946   3.707   0.317   0.004
 2315SOL    HW2 6947   3.830   0.422  -0.023
 2316SOL     OW 6948   3.796   0.166   0.318
 2316SOL    HW1 6949   3.779   0.249   0.264
 2316SOL    HW2 6950   3.886   0.129   0.296
 2317SOL     OW 6951   4.114   1.741   1.560
 2317SOL    HW1 6952   4.023   1.782   1.558
 2317SOL    HW2 6953   4.107   1.647   1.592
 2318SOL     OW 6954   3.945   1.314   1.844
 2318SOL    HW1 6955   3.880   1.241   1.823
 2318SOL    HW2 6956   3.949   1.328   1.942
 2319SOL     OW 6957   3.803   1.240   0.653
 2319SOL    HW1 6958   3.802   1.193   0.741
 2319SOL    HW2 6959   3.885   1.212   0.602
 2320SOL     OW 6960   4.396   1.391   1.624
 2320SOL    HW1 6961   4.318   1.341   1.662
 2320SOL    HW2 6962   4.393   1.486   1.655
 2321SOL     OW 6963   4.152   0.424   0.520
 2321SOL    HW1 6964   4.182   0.352   0.458
 2321SOL    HW2 6965   4.113   0.384   0.603
 2322SOL     OW 6966   4.041   0.547   1.280
 2322SOL    HW1 6967   4.079   0.488   1.352
 2322SOL    HW2 6968   4.081   0.521   1.192
 2323SOL     OW 6969   3.763   1.077   0.300
 2323SOL    HW1 6970   3.862   1.066   0.291
 2323SOL    HW2 6971   3.723   0.991   0.332
 2324SOL     OW 6972   3.954   0.628   1.975
 2324SOL    HW1 6973   3.861   0.626   2.012
 2324SOL    HW2 6974   3.955   0.589   1.883
 2325SOL     OW 6975   3.949   0.275   2.858
 2325SOL    HW1 6976   3.984   0.258   2.950
 2325SOL    HW2 6977   3.861   0.230   2.846
 2326SOL     OW 6978   3.743   0.368   2.509
 2326SOL    HW1 6979   3.661   0.411   2.548
 2326SOL    HW2 6980   3.715   0.295   2.446
 2327SOL     OW 6981   4.059   1.435   2.923
 2327SOL    HW1 6982   3.981   1.404   2.870
 2327SOL    HW2 6983   4.117   1.493   2.866
 2328SOL     OW 6984   4.162   0.392   3.361
 2328SOL    HW1 6985   4.244   0.336   3.370
 2328SOL    HW2 6986   4.081   0.334   3.365
 2329SOL     OW 6987   3.955   1.713   2.345
 2329SOL    HW1 6988   3.989   1.790   2.399
 2329SOL    HW2 6989   3.999   1.713   2.255
 2330SOL     OW 6990   3.954   1.434   2.400
 2330SOL    HW1 6991   3.928   1.530   2.400
 2330SOL    HW2 6992   3.883   1.380   2.445
 2331SOL     OW 6993   3.964   1.091   2.748
 2331SOL    HW1 6994   3.978   1.007   2.800
 2331SOL    HW2 6995   3.909   1.155   2.803
 2332SOL     OW 6996   3.846   0.643   2.425
 2332SOL    HW1 6997   3.801   0.555   2.442
 2332SOL    HW2 6998   3.845   0.697   2.509
 2333SOL     OW 6999   3.751   1.596   1.979
 2333SOL    HW1 7000   3.732   1.500   2.000
 2333SOL    HW2 7001   3.718   1.654   2.054
 2334SOL     OW 7002   3.837   0.737   3.459
 2334SOL    HW1 7003   3.925   0.724   3.504
 2334SOL    HW2 7004   3.824   0.834   3.437
 2335SOL     OW 7005   3.921   0.976   3.126
 2335SOL    HW1 7006   4.010   0.931   3.112
 2335SOL    HW2 7007   3.848   0.911   3.107
 2336SOL     OW 7008   4.041   0.251   3.663
 2336SOL    HW1 7009   4.112   0.322   3.669
 2336SOL    HW2 7010   3.953   0.290   3.691
 2337SOL     OW 7011   4.322   0.729   2.132
 2337SOL    HW1 7012   4.346   0.798   2.064
 2337SOL    HW2 7013   4.244   0.762   2.186
 2338SOL     OW 7014   3.800   0.811   2.651
 2338SOL    HW1 7015   3.899   0.799   2.660
 2338SOL    HW2 7016   3.776   0.906   2.672
 2339SOL     OW 7017   3.854   1.821   3.433
 2339SOL    HW1 7018   3.844   1.806   3.532
 2339SOL    HW2 7019   3.768   1.857   3.397
 2340SOL     OW 7020   4.274   0.196   2.747
 2340SOL    HW1 7021   4.269   0.191   2.847
 2340SOL    HW2 7022   4.276   0.292   2.718
 2341SOL     OW 7023   4.075   1.801   2.715
 2341SOL    HW1 7024   4.125   1.715   2.721
 2341SOL    HW2 7025   4.140   1.878   2.712
 2342SOL     OW 7026   4.045   0.943   2.104
 2342SOL    HW1 7027   4.127   0.982   2.062
 2342SOL    HW2 7028   4.018   0.861   2.055
 2343SOL     OW 7029   4.185   1.266   3.589
 2343SOL    HW1 7030   4.135   1.267   3.503
 2343SOL    HW2 7031   4.122   1.248   3.665
 2344SOL     OW 7032   3.926   0.285   3.360
 2344SOL    HW1 7033   3.846   0.345   3.347
 2344SOL    HW2 7034   3.916   0.236   3.446
 2345SOL     OW 7035   3.973   1.785   3.103
 2345SOL    HW1 7036   4.030   1.720   3.153
 2345SOL    HW2 7037   3.957   1.752   3.010
 2346SOL     OW 7038   4.106   0.700   2.342
 2346SOL    HW1 7039   4.151   0.610   2.339
 2346SOL    HW2 7040   4.012   0.689   2.375
 2347SOL     OW 7041   4.338   0.122   1.979
 2347SOL    HW1 7042   4.436   0.100   1.986
 2347SOL    HW2 7043   4.307   0.105   1.886
 2348SOL     OW 7044   4.021   0.035   2.033
 2348SOL    HW1 7045   4.070   0.119   2.012
 2348SOL    HW2 7046   4.083  -0.030   2.078
 2349SOL     OW 7047   4.183   1.152   2.603
 2349SOL    HW1 7048   4.112   1.125   2.668
 2349SOL    HW2 7049   4.157   1.124   2.510
 2350SOL     OW 7050   3.802   0.556   3.248
 2350SOL    HW1 7051   3.894   0.555   3.207
 2350SOL    HW2 7052   3.796   0.630   3.315
 2351SOL     OW 7053   4.285   0.222   3.009
 2351SOL    HW1 7054   4.323   0.138   3.046
 2351SOL    HW2 7055   4.197   0.241   3.053
 2352SOL     OW 7056   4.134   0.813   3.113
 2352SOL    HW1 7057   4.220   0.825   3.163
 2352SOL    HW2 7058   4.092   0.726   3.140
 2353SOL     OW 7059   3.788   1.564   3.193
 2353SOL    HW1 7060   3.742   1.646   3.159
 2353SOL    HW2 7061   3.886   1.583   3.202
 2354SOL     OW 7062   4.091   1.100   2.363
 2354SOL    HW1 7063   4.084   1.183   2.307
 2354SOL    HW2 7064   4.095   1.020   2.303
 2355SOL     OW 7065   4.290   0.537   2.727
 2355SOL    HW1 7066   4.302   0.603   2.653
 2355SOL    HW2 7067   4.336   0.571   2.810
 2356SOL     OW 7068   4.078   1.510   3.191
 2356SOL    HW1 7069   4.057   1.466   3.104
 2356SOL    HW2 7070   4.175   1.536   3.194
 2357SOL     OW 7071   4.126   0.751   3.460
 2357SOL    HW1 7072   4.194   0.806   3.413
 2357SOL    HW2 7073   4.166   0.663   3.487
 2358SOL     OW 7074   4.228   0.050   3.602
 2358SOL    HW1 7075   4.186  -0.007   3.532
 2358SOL    HW2 7076   4.162   0.119   3.634
 2359SOL     OW 7077   4.297   0.870   2.891
 2359SOL    HW1 7078   4.341   0.959   2.882
 2359SOL    HW2 7079   4.234   0.870   2.968
 2360SOL     OW 7080   4.031   0.213   3.093
 2360SOL    HW1 7081   4.008   0.250   3.183
 2360SOL    HW2 7082   4.001   0.118   3.087
 2361SOL     OW 7083   3.761   1.310   3.144
 2361SOL    HW1 7084   3.814   1.261   3.212
 2361SOL    HW2 7085   3.783   1.408   3.149
 2362SOL     OW 7086   4.031   0.063   2.480
 2362SOL    HW1 7087   4.020   0.157   2.513
 2362SOL    HW2 7088   4.026   0.000   2.557
 2363SOL     OW 7089   4.074   0.898   3.666
 2363SOL    HW1 7090   4.150   0.942   3.714
 2363SOL    HW2 7091   4.109   0.851   3.584
 2364SOL     OW 7092   4.043   0.810   2.811
 2364SOL    HW1 7093   4.136   0.846   2.816
 2364SOL    HW2 7094   4.037   0.725   2.863
 2365SOL     OW 7095   4.063   0.509   2.868
 2365SOL    HW1 7096   4.011   0.426   2.851
 2365SOL    HW2 7097   4.140   0.514   2.804
 2366SOL     OW 7098   3.732   1.326   2.062
 2366SOL    HW1 7099   3.639   1.347   2.031
 2366SOL    HW2 7100   3.742   1.227   2.075
 2367SOL     OW 7101   3.812   1.801   2.789
 2367SOL    HW1 7102   3.770   1.715   2.762
 2367SOL    HW2 7103   3.906   1.804   2.755
 2368SOL     OW 7104   3.764   0.544   2.976
 2368SOL    HW1 7105   3.849   0.511   2.935
 2368SOL    HW2 7106   3.777   0.559   3.074
 2369SOL     OW 7107   3.913   0.520   3.584
 2369SOL    HW1 7108   3.972   0.480   3.514
 2369SOL    HW2 7109   3.855   0.591   3.543
 2370SOL     OW 7110   4.539   0.572   2.187
 2370SOL    HW1 7111   4.546   0.483   2.141
 2370SOL    HW2 7112   4.445   0.606   2.179
 2371SOL     OW 7113   3.976   1.564   3.606
 2371SOL    HW1 7114   3.946   1.621   3.682
 2371SOL    HW2 7115   3.969   1.467   3.632
 2372SOL     OW 7116   4.197   0.500   2.053
 2372SOL    HW1 7117   4.258   0.580   2.057
 2372SOL    HW2 7118   4.102   0.531   2.060
 2373SOL     OW 7119   3.883   1.137   3.328
 2373SOL    HW1 7120   3.905   1.076   3.404
 2373SOL    HW2 7121   3.893   1.088   3.242
 2374SOL     OW 7122   3.807   1.258   2.884
 2374SOL    HW1 7123   3.802   1.257   2.984
 2374SOL    HW2 7124   3.724   1.217   2.846
 2375SOL     OW 7125   3.854   1.794   3.713
 2375SOL    HW1 7126   3.813   1.720   3.766
 2375SOL    HW2 7127   3.918   1.845   3.771
 2376SOL     OW 7128   3.987   0.326   2.582
 2376SOL    HW1 7129   3.908   0.377   2.548
 2376SOL    HW2 7130   3.978   0.311   2.680
 2377SOL     OW 7131   4.096   1.288   3.352
 2377SOL    HW1 7132   4.083   1.381   3.318
 2377SOL    HW2 7133   4.012   1.236   3.339
 2378SOL     OW 7134   4.314   1.487   2.353
 2378SOL    HW1 7135   4.356   1.429   2.283
 2378SOL    HW2 7136   4.270   1.566   2.309
 2379SOL     OW 7137   3.979   1.348   2.152
 2379SOL    HW1 7138   3.883   1.349   2.125
 2379SOL    HW2 7139   3.991   1.401   2.236
 2380SOL     OW 7140   3.829   1.013   3.588
 2380SOL    HW1 7141   3.752   0.980   3.642
 2380SOL    HW2 7142   3.914   0.983   3.630
 2381SOL     OW 7143   3.799   0.345   1.895
 2381SOL    HW1 7144   3.707   0.317   1.866
 2381SOL    HW2 7145   3.830   0.422   1.839
 2382SOL     OW 7146   3.796   0.166   2.180
 2382SOL    HW1 7147   3.779   0.249   2.126
 2382SOL    HW2 7148   3.886   0.129   2.158
 2383SOL     OW 7149   4.114   1.741   3.422
 2383SOL    HW1 7150   4.023   1.782   3.420
 2383SOL    HW2 7151   4.107   1.647   3.454
 2384SOL     OW 7152   3.945   1.314   3.706
 2384SOL    HW1 7153   3.880   1.241   3.685
 2384SOL    HW2 7154   3.949   1.328   3.804
 2385SOL     OW 7155   3.803   1.240   2.515
 2385SOL    HW1 7156   3.802   1.193   2.603
 2385SOL    HW2 7157   3.885   1.212   2.464
 2386SOL     OW 7158   4.396   1.391   3.486
 2386SOL    HW1 7159   4.318   1.341   3.524
 2386SOL    HW2 7160   4.393   1.486   3.517
 2387SOL     OW 7161   4.152   0.424   2.382
 2387SOL    HW1 7162   4.182   0.352   2.320
 2387SOL    HW2 7163   4.113   0.384   2.465
 2388SOL     OW 7164   4.041   0.547   3.142
 2388SOL    HW1 7165   4.079   0.488   3.214
 2388SOL    HW2 7166   4.081   0.521   3.054
 2389SOL     OW 7167   3.763   1.077   2.162
 2389SOL    HW1 7168   3.862   1.066   2.153
 2389SOL    HW2 7169   3.723   0.991   2.194
 2390SOL     OW 7170   3.954   0.628   3.837
 2390SOL    HW1 7171   3.861   0.626   3.874
 2390SOL    HW2 7172   3.955   0.589   3.745
 2391SOL     OW 7173   4.409   1.012   4.389
 2391SOL    HW1 7174   4.478   0.996   4.459
 2391SOL    HW2 7175   4.336   1.069   4.427
 2392SOL     OW 7176   3.955   1.713   4.207
 2392SOL    HW1 7177   3.989   1.790   4.261
 2392SOL    HW2 7178   3.999   1.713   4.117
 2393SOL     OW 7179   3.954   1.434   4.262
 2393SOL    HW1 7180   3.928   1.530   4.262
 2393SOL    HW2 7181   3.883   1.380   4.307
 2394SOL     OW 7182   3.751   1.596   3.841
 2394SOL    HW1 7183   3.732   1.500   3.862
 2394SOL    HW2 7184   3.718   1.654   3.916
 2395SOL     OW 7185   4.322   0.729   3.994
 2395SOL    HW1 7186   4.346   0.798   3.926
 2395SOL    HW2 7187   4.244   0.762   4.048
 2396SOL     OW 7188   4.045   0.943   3.966
 2396SOL    HW1 7189   4.127   0.982   3.924
 2396SOL    HW2 7190   4.018   0.861   3.917
 2397SOL     OW 7191   4.106   0.700   4.204
 2397SOL    HW1 7192   4.151   0.610   4.201
 2397SOL    HW2 7193   4.012   0.689   4.237
 2398SOL     OW 7194   4.338   0.122   3.841
 2398SOL    HW1 7195   4.436   0.100   3.848
 2398SOL    HW2 7196   4.307   0.105   3.748
 2399SOL     OW 7197   4.021   0.035   3.895
 2399SOL    HW1 7198   4.070   0.119   3.874
 2399SOL    HW2 7199   4.083  -0.030   3.940
 2400SOL     OW 7200   4.091   1.100   4.225
 2400SOL    HW1 7201   4.084   1.183   4.169
 2400SOL    HW2 7202   4.095   1.020   4.165
 2401SOL     OW 7203   3.732   1.326   3.924
 2401SOL    HW1 7204   3.639   1.347   3.893
 2401SOL    HW2 7205   3.742   1.227   3.937
 2402SOL     OW 7206   4.539   0.572   4.049
 2402SOL    HW1 7207   4.546   0.483   4.003
 2402SOL    HW2 7208   4.445   0.606   4.041
 2403SOL     OW 7209   4.197   0.500   3.915
 2403SOL    HW1 7210   4.258   0.580   3.919
 2403SOL    HW2 7211   4.102   0.531   3.922
 2404SOL     OW 7212   4.314   1.487   4.215
 2404SOL    HW1 7213   4.356   1.429   4.145
 2404SOL    HW2 7214   4.270   1.566   4.171
 2405SOL     OW 7215   3.979   1.348   4.014
 2405SOL    HW1 7216   3.883   1.349   3.987
 2405SOL    HW2 7217   3.991   1.401   4.098
 2406SOL     OW 7218   3.799   0.345   3.757
 2406SOL    HW1 7219   3.707   0.317   3.728
 2406SOL    HW2 7220   3.830   0.422   3.701
 2407SOL     OW 7221   3.796   0.166   4.042
 2407SOL    HW1 7222   3.779   0.249   3.988
 2407SOL    HW2 7223   3.886   0.129   4.020
 2408SOL     OW 7224   4.152   0.424   4.244
 2408SOL    HW1 7225   4.182   0.352   4.182
 2408SOL    HW2 7226   4.113   0.384   4.327
 2409SOL     OW 7227   3.763   1.077   4.024
 2409SOL    HW1 7228   3.862   1.066   4.015
 2409SOL    HW2 7229   3.723   0.991   4.056
 2410SOL     OW 7230   3.954   2.490   0.113
 2410SOL    HW1 7231   3.861   2.488   0.150
 2410SOL    HW2 7232   3.955   2.451   0.021
 2411SOL     OW 7233   3.949   2.137   0.996
 2411SOL    HW1 7234   3.984   2.120   1.088
 2411SOL    HW2 7235   3.861   2.092   0.984
 2412SOL     OW 7236   3.743   2.230   0.647
 2412SOL    HW1 7237   3.661   2.273   0.686
 2412SOL    HW2 7238   3.715   2.157   0.584
 2413SOL     OW 7239   4.059   3.297   1.061
 2413SOL    HW1 7240   3.981   3.266   1.008
 2413SOL    HW2 7241   4.117   3.355   1.004
 2414SOL     OW 7242   4.162   2.254   1.499
 2414SOL    HW1 7243   4.244   2.198   1.508
 2414SOL    HW2 7244   4.081   2.196   1.503
 2415SOL     OW 7245   3.955   3.575   0.483
 2415SOL    HW1 7246   3.989   3.652   0.537
 2415SOL    HW2 7247   3.999   3.575   0.393
 2416SOL     OW 7248   3.954   3.296   0.538
 2416SOL    HW1 7249   3.928   3.392   0.538
 2416SOL    HW2 7250   3.883   3.242   0.583
 2417SOL     OW 7251   3.964   2.953   0.886
 2417SOL    HW1 7252   3.978   2.869   0.938
 2417SOL    HW2 7253   3.909   3.017   0.941
 2418SOL     OW 7254   3.846   2.505   0.563
 2418SOL    HW1 7255   3.801   2.417   0.580
 2418SOL    HW2 7256   3.845   2.559   0.647
 2419SOL     OW 7257   3.751   3.458   0.117
 2419SOL    HW1 7258   3.732   3.362   0.138
 2419SOL    HW2 7259   3.718   3.516   0.192
 2420SOL     OW 7260   3.837   2.599   1.597
 2420SOL    HW1 7261   3.925   2.586   1.642
 2420SOL    HW2 7262   3.824   2.696   1.575
 2421SOL     OW 7263   3.921   2.838   1.264
 2421SOL    HW1 7264   4.010   2.793   1.250
 2421SOL    HW2 7265   3.848   2.773   1.245
 2422SOL     OW 7266   4.041   2.113   1.801
 2422SOL    HW1 7267   4.112   2.184   1.807
 2422SOL    HW2 7268   3.953   2.152   1.829
 2423SOL     OW 7269   4.322   2.591   0.270
 2423SOL    HW1 7270   4.346   2.660   0.202
 2423SOL    HW2 7271   4.244   2.624   0.324
 2424SOL     OW 7272   3.800   2.673   0.789
 2424SOL    HW1 7273   3.899   2.661   0.798
 2424SOL    HW2 7274   3.776   2.768   0.810
 2425SOL     OW 7275   3.854   3.683   1.571
 2425SOL    HW1 7276   3.844   3.668   1.670
 2425SOL    HW2 7277   3.768   3.719   1.535
 2426SOL     OW 7278   4.274   2.058   0.885
 2426SOL    HW1 7279   4.269   2.053   0.985
 2426SOL    HW2 7280   4.276   2.154   0.856
 2427SOL     OW 7281   4.075   3.663   0.853
 2427SOL    HW1 7282   4.125   3.577   0.859
 2427SOL    HW2 7283   4.140   3.740   0.850
 2428SOL     OW 7284   4.045   2.805   0.242
 2428SOL    HW1 7285   4.127   2.844   0.200
 2428SOL    HW2 7286   4.018   2.723   0.193
 2429SOL     OW 7287   4.185   3.128   1.727
 2429SOL    HW1 7288   4.135   3.129   1.641
 2429SOL    HW2 7289   4.122   3.110   1.803
 2430SOL     OW 7290   3.926   2.147   1.498
 2430SOL    HW1 7291   3.846   2.207   1.485
 2430SOL    HW2 7292   3.916   2.098   1.584
 2431SOL     OW 7293   3.973   3.647   1.241
 2431SOL    HW1 7294   4.030   3.582   1.291
 2431SOL    HW2 7295   3.957   3.614   1.148
 2432SOL     OW 7296   4.106   2.562   0.480
 2432SOL    HW1 7297   4.151   2.472   0.477
 2432SOL    HW2 7298   4.012   2.551   0.513
 2433SOL     OW 7299   4.338   1.984   0.117
 2433SOL    HW1 7300   4.436   1.962   0.124
 2433SOL    HW2 7301   4.307   1.967   0.024
 2434SOL     OW 7302   4.263   1.926   0.512
 2434SOL    HW1 7303   4.182   1.927   0.570
 2434SOL    HW2 7304   4.266   2.009   0.457
 2435SOL     OW 7305   4.021   1.897   0.171
 2435SOL    HW1 7306   4.070   1.981   0.150
 2435SOL    HW2 7307   4.083   1.832   0.216
 2436SOL     OW 7308   4.183   3.014   0.741
 2436SOL    HW1 7309   4.112   2.987   0.806
 2436SOL    HW2 7310   4.157   2.986   0.648
 2437SOL     OW 7311   3.802   2.418   1.386
 2437SOL    HW1 7312   3.894   2.417   1.345
 2437SOL    HW2 7313   3.796   2.492   1.453
 2438SOL     OW 7314   4.285   2.084   1.147
 2438SOL    HW1 7315   4.323   2.000   1.184
 2438SOL    HW2 7316   4.197   2.103   1.191
 2439SOL     OW 7317   4.134   2.675   1.251
 2439SOL    HW1 7318   4.220   2.687   1.301
 2439SOL    HW2 7319   4.092   2.588   1.278
 2440SOL     OW 7320   3.788   3.426   1.331
 2440SOL    HW1 7321   3.742   3.508   1.297
 2440SOL    HW2 7322   3.886   3.445   1.340
 2441SOL     OW 7323   4.091   2.962   0.501
 2441SOL    HW1 7324   4.084   3.045   0.445
 2441SOL    HW2 7325   4.095   2.882   0.441
 2442SOL     OW 7326   4.290   2.399   0.865
 2442SOL    HW1 7327   4.302   2.465   0.791
 2442SOL    HW2 7328   4.336   2.433   0.948
 2443SOL     OW 7329   4.078   3.372   1.329
 2443SOL    HW1 7330   4.057   3.328   1.242
 2443SOL    HW2 7331   4.175   3.398   1.332
 2444SOL     OW 7332   4.126   2.613   1.598
 2444SOL    HW1 7333   4.194   2.668   1.551
 2444SOL    HW2 7334   4.166   2.525   1.625
 2445SOL     OW 7335   4.228   1.912   1.740
 2445SOL    HW1 7336   4.186   1.855   1.670
 2445SOL    HW2 7337   4.162   1.981   1.772
 2446SOL     OW 7338   4.297   2.732   1.029
 2446SOL    HW1 7339   4.341   2.821   1.020
 2446SOL    HW2 7340   4.234   2.732   1.106
 2447SOL     OW 7341   4.031   2.075   1.231
 2447SOL    HW1 7342   4.008   2.112   1.321
 2447SOL    HW2 7343   4.001   1.980   1.225
 2448SOL     OW 7344   3.761   3.172   1.282
 2448SOL    HW1 7345   3.814   3.123   1.350
 2448SOL    HW2 7346   3.783   3.270   1.287
 2449SOL     OW 7347   4.031   1.925   0.618
 2449SOL    HW1 7348   4.020   2.019   0.651
 2449SOL    HW2 7349   4.026   1.862   0.695
 2450SOL     OW 7350   4.074   2.760   1.804
 2450SOL    HW1 7351   4.150   2.804   1.852
 2450SOL    HW2 7352   4.109   2.713   1.722
 2451SOL     OW 7353   4.043   2.672   0.949
 2451SOL    HW1 7354   4.136   2.708   0.954
 2451SOL    HW2 7355   4.037   2.587   1.001
 2452SOL     OW 7356   4.063   2.371   1.006
 2452SOL    HW1 7357   4.011   2.288   0.989
 2452SOL    HW2 7358   4.140   2.376   0.942
 2453SOL     OW 7359   3.732   3.188   0.200
 2453SOL    HW1 7360   3.639   3.209   0.169
 2453SOL    HW2 7361   3.742   3.089   0.213
 2454SOL     OW 7362   3.812   3.663   0.927
 2454SOL    HW1 7363   3.770   3.577   0.900
 2454SOL    HW2 7364   3.906   3.666   0.893
 2455SOL     OW 7365   3.764   2.406   1.114
 2455SOL    HW1 7366   3.849   2.373   1.073
 2455SOL    HW2 7367   3.777   2.421   1.212
 2456SOL     OW 7368   3.913   2.382   1.722
 2456SOL    HW1 7369   3.972   2.342   1.652
 2456SOL    HW2 7370   3.855   2.453   1.681
 2457SOL     OW 7371   4.539   2.434   0.325
 2457SOL    HW1 7372   4.546   2.345   0.279
 2457SOL    HW2 7373   4.445   2.468   0.317
 2458SOL     OW 7374   3.976   3.426   1.744
 2458SOL    HW1 7375   3.946   3.483   1.820
 2458SOL    HW2 7376   3.969   3.329   1.770
 2459SOL     OW 7377   4.197   2.362   0.191
 2459SOL    HW1 7378   4.258   2.442   0.195
 2459SOL    HW2 7379   4.102   2.393   0.198
 2460SOL     OW 7380   3.883   2.999   1.466
 2460SOL    HW1 7381   3.905   2.938   1.542
 2460SOL    HW2 7382   3.893   2.950   1.380
 2461SOL     OW 7383   3.807   3.120   1.022
 2461SOL    HW1 7384   3.802   3.119   1.122
 2461SOL    HW2 7385   3.724   3.079   0.984
 2462SOL     OW 7386   3.854   3.656   1.851
 2462SOL    HW1 7387   3.813   3.582   1.904
 2462SOL    HW2 7388   3.918   3.707   1.909
 2463SOL     OW 7389   3.987   2.188   0.720
 2463SOL    HW1 7390   3.908   2.239   0.686
 2463SOL    HW2 7391   3.978   2.173   0.818
 2464SOL     OW 7392   4.096   3.150   1.490
 2464SOL    HW1 7393   4.083   3.243   1.456
 2464SOL    HW2 7394   4.012   3.098   1.477
 2465SOL     OW 7395   4.314   3.349   0.491
 2465SOL    HW1 7396   4.356   3.291   0.421
 2465SOL    HW2 7397   4.270   3.428   0.447
 2466SOL     OW 7398   3.979   3.210   0.290
 2466SOL    HW1 7399   3.883   3.211   0.263
 2466SOL    HW2 7400   3.991   3.263   0.374
 2467SOL     OW 7401   3.829   2.875   1.726
 2467SOL    HW1 7402   3.752   2.842   1.780
 2467SOL    HW2 7403   3.914   2.845   1.768
 2468SOL     OW 7404   3.799   2.207   0.033
 2468SOL    HW1 7405   3.707   2.179   0.004
 2468SOL    HW2 7406   3.830   2.284  -0.023
 2469SOL     OW 7407   3.796   2.028   0.318
 2469SOL    HW1 7408   3.779   2.111   0.264
 2469SOL    HW2 7409   3.886   1.991   0.296
 2470SOL     OW 7410   4.114   3.603   1.560
 2470SOL    HW1 7411   4.023   3.644   1.558
 2470SOL    HW2 7412   4.107   3.509   1.592
 2471SOL     OW 7413   3.945   3.176   1.844
 2471SOL    HW1 7414   3.880   3.103   1.823
 2471SOL    HW2 7415   3.949   3.190   1.942
 2472SOL     OW 7416   3.803   3.102   0.653
 2472SOL    HW1 7417   3.802   3.055   0.741
 2472SOL    HW2 7418   3.885   3.074   0.602
 2473SOL     OW 7419   4.396   3.253   1.624
 2473SOL    HW1 7420   4.318   3.203   1.662
 2473SOL    HW2 7421   4.393   3.348   1.655
 2474SOL     OW 7422   4.152   2.286   0.520
 2474SOL    HW1 7423   4.182   2.214   0.458
 2474SOL    HW2 7424   4.113   2.246   0.603
 2475SOL     OW 7425   4.041   2.409   1.280
 2475SOL    HW1 7426   4.079   2.350   1.352
 2475SOL    HW2 7427   4.081   2.383   1.192
 2476SOL     OW 7428   3.763   2.939   0.300
 2476SOL    HW1 7429   3.862   2.928   0.291
 2476SOL    HW2 7430   3.723   2.853   0.332
 2477SOL     OW 7431   3.954   2.490   1.975
 2477SOL    HW1 7432   3.861   2.488   2.012
 2477SOL    HW2 7433   3.955   2.451   1.883
 2478SOL     OW 7434   3.949   2.137   2.858
 2478SOL    HW1 7435   3.984   2.120   2.950
 2478SOL    HW2 7436   3.861   2.092   2.846
 2479SOL     OW 7437   3.743   2.230   2.509
 2479SOL    HW1 7438   3.661   2.273   2.548
 2479SOL    HW2 7439   3.715   2.157   2.446
 2480SOL     OW 7440   4.059   3.297   2.923
 2480SOL    HW1 7441   3.981   3.266   2.870
 2480SOL    HW2 7442   4.117   3.355   2.866
 2481SOL     OW 7443   4.162   2.254   3.361
 2481SOL    HW1 7444   4.244   2.198   3.370
 2481SOL    HW2 7445   4.081   2.196   3.365
 2482SOL     OW 7446   3.955   3.575   2.345
 2482SOL    HW1 7447   3.989   3.652   2.399
 2482SOL    HW2 7448   3.999   3.575   2.255
 2483SOL     OW 7449   3.954   3.296   2.400
 2483SOL    HW1 7450   3.928   3.392   2.400
 2483SOL    HW2 7451   3.883   3.242   2.445
 2484SOL     OW 7452   3.964   2.953   2.748
 2484SOL    HW1 7453   3.978   2.869   2.800
 2484SOL    HW2 7454   3.909   3.017   2.803
 2485SOL     OW 7455   3.846   2.505   2.425
 2485SOL    HW1 7456   3.801   2.417   2.442
 2485SOL    HW2 7457   3.845   2.559   2.509
 2486SOL     OW 7458   3.751   3.458   1.979
 2486SOL    HW1 7459   3.732   3.362   2.000
 2486SOL    HW2 7460   3.718   3.516   2.054
 2487SOL     OW 7461   3.837   2.599   3.459
 2487SOL    HW1 7462   3.925   2.586   3.504
 2487SOL    HW2 7463   3.824   2.696   3.437
 2488SOL     OW 7464   3.921   2.838   3.126
 2488SOL    HW1 7465   4.010   2.793   3.112
 2488SOL    HW2 7466   3.848   2.773   3.107
 2489SOL     OW 7467   4.041   2.113   3.663
 2489SOL    HW1 7468   4.112   2.184   3.669
 2489SOL    HW2 7469   3.953   2.152   3.691
 2490SOL     OW 7470   4.322   2.591   2.132
 2490SOL    HW1 7471   4.346   2.660   2.064
 2490SOL    HW2 7472   4.244   2.624   2.186
 2491SOL     OW 7473   3.800   2.673   2.651
 2491SOL    HW1 7474   3.899   2.661   2.660
 2491SOL    HW2 7475   3.776   2.768   2.672
 2492SOL     OW 7476   3.854   3.683   3.433
 2492SOL    HW1 7477   3.844   3.668   3.532
 2492SOL    HW2 7478   3.768   3.719   3.397
 2493SOL     OW 7479   4.274   2.058   2.747
 2493SOL    HW1 7480   4.269   2.053   2.847
 2493SOL    HW2 7481   4.276   2.154   2.718
 2494SOL     OW 7482   4.075   3.663   2.715
 2494SOL    HW1 7483   4.125   3.577   2.721
 2494SOL    HW2 7484   4.140   3.740   2.712
 2495SOL     OW 7485   4.045   2.805   2.104
 2495SOL    HW1 7486   4.127   2.844   2.062
 2495SOL    HW2 7487   4.018   2.723   2.055
 2496SOL     OW 7488   4.185   3.128   3.589
 2496SOL    HW1 7489   4.135   3.129   3.503
 2496SOL    HW2 7490   4.122   3.110   3.665
 2497SOL     OW 7491   3.926   2.147   3.360
 2497SOL    HW1 7492   3.846   2.207   3.347
 2497SOL    HW2 7493   3.916   2.098   3.446
 2498SOL     OW 7494   3.973   3.647   3.103
 2498SOL    HW1 7495   4.030   3.582   3.153
 2498SOL    HW2 7496   3.957   3.614   3.010
 2499SOL     OW 7497   4.106   2.562   2.342
 2499SOL    HW1 7498   4.151   2.472   2.339
 2499SOL    HW2 7499   4.012   2.551   2.375
 2500SOL     OW 7500   4.338   1.984   1.979
 2500SOL    HW1 7501   4.436   1.962   1.986
 2500SOL    HW2 7502   4.307   1.967   1.886
 2501SOL     OW 7503   4.263   1.926   2.374
 2501SOL    HW1 7504   4.182   1.927   2.432
 2501SOL    HW2 7505   4.266   2.009   2.319
 2502SOL     OW 7506   4.021   1.897   2.033
 2502SOL    HW1 7507   4.070   1.981   2.012
 2502SOL    HW2 7508   4.083   1.832   2.078
 2503SOL     OW 7509   4.183   3.014   2.603
 2503SOL    HW1 7510   4.112   2.987   2.668
 2503SOL    HW2 7511   4.157   2.986   2.510
 2504SOL     OW 7512   3.802   2.418   3.248
 2504SOL    HW1 7513   3.894   2.417   3.207
 2504SOL    HW2 7514   3.796   2.492   3.315
 2505SOL     OW 7515   4.285   2.084   3.009
 2505SOL    HW1 7516   4.323   2.000   3.046
 2505SOL    HW2 7517   4.197   2.103   3.053
 2506SOL     OW 7518   4.134   2.675   3.113
 2506SOL    HW1 7519   4.220   2.687   3.163
 2506SOL    HW2 7520   4.092   2.588   3.140
 2507SOL     OW 7521   3.788   3.426   3.193
 2507SOL    HW1 7522   3.742   3.508   3.159
 2507SOL    HW2 7523   3.886   3.445   3.202
 2508SOL     OW 7524   4.091   2.962   2.363
 2508SOL    HW1 7525   4.084   3.045   2.307
 2508SOL    HW2 7526   4.095   2.882   2.303
 2509SOL     OW 7527   4.290   2.399   2.727
 2509SOL    HW1 7528   4.302   2.465   2.653
 2509SOL    HW2 7529   4.336   2.433   2.810
 2510SOL     OW 7530   4.078   3.372   3.191
 2510SOL    HW1 7531   4.057   3.328   3.104
 2510SOL    HW2 7532   4.175   3.398   3.194
 2511SOL     OW 7533   4.126   2.613   3.460
 2511SOL    HW1 7534   4.194   2.668   3.413
 2511SOL    HW2 7535   4.166   2.525   3.487
 2512SOL     OW 7536   4.228   1.912   3.602
 2512SOL    HW1 7537   4.186   1.855   3.532
 2512SOL    HW2 7538   4.162   1.981   3.634
 2513SOL     OW 7539   4.297   2.732   2.891
 2513SOL    HW1 7540   4.341   2.821   2.882
 2513SOL    HW2 7541   4.234   2.732   2.968
 2514SOL     OW 7542   4.031   2.075   3.093
 2514SOL    HW1 7543   4.008   2.112   3.183
 2514SOL    HW2 7544   4.001   1.980   3.087
 2515SOL     OW 7545   3.761   3.172   3.144
 2515SOL    HW1 7546   3.814   3.123   3.212
 2515SOL    HW2 7547   3.783   3.270   3.149
 2516SOL     OW 7548   4.031   1.925   2.480
 2516SOL    HW1 7549   4.020   2.019   2.513
 2516SOL    HW2 7550   4.026   1.862   2.557
 2517SOL     OW 7551   4.074   2.760   3.666
 2517SOL    HW1 7552   4.150   2.804   3.714
 2517SOL    HW2 7553   4.109   2.713   3.584
 2518SOL     OW 7554   4.043   2.672   2.811
 2518SOL    HW1 7555   4.136   2.708   2.816
 2518SOL    HW2 7556   4.037   2.587   2.863
 2519SOL     OW 7557   4.063   2.371   2.868
 2519SOL    HW1 7558   4.011   2.288   2.851
 2519SOL    HW2 7559   4.140   2.376   2.804
 2520SOL     OW 7560   3.732   3.188   2.062
 2520SOL    HW1 7561   3.639   3.209   2.031
 2520SOL    HW2 7562   3.742   3.089   2.075
 2521SOL     OW 7563   3.812   3.663   2.789
 2521SOL    HW1 7564   3.770   3.577   2.762
 2521SOL    HW2 7565   3.906   3.666   2.755
 2522SOL     OW 7566   3.764   2.406   2.976
 2522SOL    HW1 7567   3.849   2.373   2.935
 2522SOL    HW2 7568   3.777   2.421   3.074
 2523SOL     OW 7569   3.913   2.382   3.584
 2523SOL    HW1 7570   3.972   2.342   3.514
 2523SOL    HW2 7571   3.855   2.453   3.543
 2524SOL     OW 7572   4.539   2.434   2.187
 2524SOL    HW1 7573   4.546   2.345   2.141
 2524SOL    HW2 7574   4.445   2.468   2.179
 2525SOL     OW 7575   3.976   3.426   3.606
 2525SOL    HW1 7576   3.946   3.483   3.682
 2525SOL    HW2 7577   3.969   3.329   3.632
 2526SOL     OW 7578   4.197   2.362   2.053
 2526SOL    HW1 7579   4.258   2.442   2.057
 2526SOL    HW2 7580   4.102   2.393   2.060
 2527SOL     OW 7581   3.883   2.999   3.328
 2527SOL    HW1 7582   3.905   2.938   3.404
 2527SOL    HW2 7583   3.893   2.950   3.242
 2528SOL     OW 7584   3.807   3.120   2.884
 2528SOL    HW1 7585   3.802   3.119   2.984
 2528SOL    HW2 7586   3.724   3.079   2.846
 2529SOL     OW 7587   3.854   3.656   3.713
 2529SOL    HW1 7588   3.813   3.582   3.766
 2529SOL    HW2 7589   3.918   3.707   3.771
 2530SOL     OW 7590   3.987   2.188   2.582
 2530SOL    HW1 7591   3.908   2.239   2.548
 2530SOL    HW2 7592   3.978   2.173   2.680
 2531SOL     OW 7593   4.096   3.150   3.352
 2531SOL    HW1 7594   4.083   3.243   3.318
 2531SOL    HW2 7595   4.012   3.098   3.339
 2532SOL     OW 7596   4.314   3.349   2.353
 2532SOL    HW1 7597   4.356   3.291   2.283
 2532SOL    HW2 7598   4.270   3.428   2.309
 2533SOL     OW 7599   3.979   3.210   2.152
 2533SOL    HW1 7600   3.883   3.211   2.125
 2533SOL    HW2 7601   3.991   3.263   2.236
 2534SOL     OW 7602   3.829   2.875   3.588
 2534SOL    HW1 7603   3.752   2.842   3.642
 2534SOL    HW2 7604   3.914   2.845   3.630
 2535SOL     OW 7605   3.799   2.207   1.895
 2535SOL    HW1 7606   3.707   2.179   1.866
 2535SOL    HW2 7607   3.830   2.284   1.839
 2536SOL     OW 7608   3.796   2.028   2.180
 2536SOL    HW1 7609   3.779   2.111   2.126
 2536SOL    HW2 7610   3.886   1.991   2.158
 2537SOL     OW 7611   4.114   3.603   3.422
 2537SOL    HW1 7612   4.023   3.644   3.420
 2537SOL    HW2 7613   4.107   3.509   3.454
 2538SOL     OW 7614   3.945   3.176   3.706
 2538SOL    HW1 7615   3.880   3.103   3.685
 2538SOL    HW2 7616   3.949   3.190   3.804
 2539SOL     OW 7617   3.803   3.102   2.515
 2539SOL    HW1 7618   3.802   3.055   2.603
 2539SOL    HW2 7619   3.885   3.074   2.464
 2540SOL     OW 7620   4.396   3.253   3.486
 2540SOL    HW1 7621   4.318   3.203   3.524
 2540SOL    HW2 7622   4.393   3.348   3.517
 2541SOL     OW 7623   4.152   2.286   2.382
 2541SOL    HW1 7624   4.182   2.214   2.320
 2541SOL    HW2 7625   4.113   2.246   2.465
 2542SOL     OW 7626   4.041   2.409   3.142
 2542SOL    HW1 7627   4.079   2.350   3.214
 2542SOL    HW2 7628   4.081   2.383   3.054
 2543SOL     OW 7629   3.763   2.939   2.162
 2543SOL    HW1 7630   3.862   2.928   2.153
 2543SOL    HW2 7631   3.723   2.853   2.194
 2544SOL     OW 7632   3.954   2.490   3.837
 2544SOL    HW1 7633   3.861   2.488   3.874
 2544SOL    HW2 7634   3.955   2.451   3.745
 2545SOL     OW 7635   4.409   2.874   4.389
 2545SOL    HW1 7636   4.478   2.858   4.459
 2545SOL    HW2 7637   4.336   2.931   4.427
 2546SOL     OW 7638   3.955   3.575   4.207
 2546SOL    HW1 7639   3.989   3.652   4.261
 2546SOL    HW2 7640   3.999   3.575   4.117
 2547SOL     OW 7641   3.954   3.296   4.262
 2547SOL    HW1 7642   3.928   3.392   4.262
 2547SOL    HW2 7643   3.883   3.242   4.307
 2548SOL     OW 7644   3.751   3.458   3.841
 2548SOL    HW1 7645   3.732   3.362   3.862
 2548SOL    HW2 7646   3.718   3.516   3.916
 2549SOL     OW 7647   4.322   2.591   3.994
 2549SOL    HW1 7648   4.346   2.660   3.926
 2549SOL    HW2 7649   4.244   2.624   4.048
 2550SOL     OW 7650   4.045   2.805   3.966
 2550SOL    HW1 7651   4.127   2.844   3.924
 2550SOL    HW2 7652   4.018   2.723   3.917
 2551SOL     OW 7653   4.106   2.562   4.204
 2551SOL    HW1 7654   4.151   2.472   4.201
 2551SOL    HW2 7655   4.012   2.551   4.237
 2552SOL     OW 7656   4.338   1.984   3.841
 2552SOL    HW1 7657   4.436   1.962   3.848
 2552SOL    HW2 7658   4.307   1.967   3.748
 2553SOL     OW 7659   4.021   1.897   3.895
 2553SOL    HW1 7660   4.070   1.981   3.874
 2553SOL    HW2 7661   4.083   1.832   3.940
 2554SOL     OW 7662   4.091   2.962   4.225
 2554SOL    HW1 7663   4.084   3.045   4.169
 2554SOL    HW2 7664   4.095   2.882   4.165
 2555SOL     OW 7665   3.732   3.188   3.924
 2555SOL    HW1 7666   3.639   3.209   3.893
 2555SOL    HW2 7667   3.742   3.089   3.937
 2556SOL     OW 7668   4.539   2.434   4.049
 2556SOL    HW1 7669   4.546   2.345   4.003
 2556SOL    HW2 7670   4.445   2.468   4.041
 2557SOL     OW 7671   4.197   2.362   3.915
 2557SOL    HW1 7672   4.258   2.442   3.919
 2557SOL    HW2 7673   4.102   2.393   3.922
 2558SOL     OW 7674   4.314   3.349   4.215
 2558SOL    HW1 7675   4.356   3.291   4.145
 2558SOL    HW2 7676   4.270   3.428   4.171
 2559SOL     OW 7677   3.979   3.210   4.014
 2559SOL    HW1 7678   3.883   3.211   3.987
 2559SOL    HW2 7679   3.991   3.263   4.098
 2560SOL     OW 7680   3.799   2.207   3.757
 2560SOL    HW1 7681   3.707   2.179   3.728
 2560SOL    HW2 7682   3.830   2.284   3.701
 2561SOL     OW 7683   3.796   2.028   4.042
 2561SOL    HW1 7684   3.779   2.111   3.988
 2561SOL    HW2 7685   3.886   1.991   4.020
 2562SOL     OW 7686   4.152   2.286   4.244
 2562SOL    HW1 7687   4.182   2.214   4.182
 2562SOL    HW2 7688   4.113   2.246   4.327
 2563SOL     OW 7689   3.763   2.939   4.024
 2563SOL    HW1 7690   3.862   2.928   4.015
 2563SOL    HW2 7691   3.723   2.853   4.056
 2564SOL     OW 7692   3.949   3.999   0.996
 2564SOL    HW1 7693   3.984   3.982   1.088
 2564SOL    HW2 7694   3.861   3.954   0.984
 2565SOL     OW 7695   3.743   4.092   0.647
 2565SOL    HW1 7696   3.661   4.135   0.686
 2565SOL    HW2 7697   3.715   4.019   0.584
 2566SOL     OW 7698   4.162   4.116   1.499
 2566SOL    HW1 7699   4.244   4.060   1.508
 2566SOL    HW2 7700   4.081   4.058   1.503
 2567SOL     OW 7701   3.846   4.367   0.563
 2567SOL    HW1 7702   3.801   4.279   0.580
 2567SOL    HW2 7703   3.845   4.421   0.647
 2568SOL     OW 7704   4.041   3.975   1.801
 2568SOL    HW1 7705   4.112   4.046   1.807
 2568SOL    HW2 7706   3.953   4.014   1.829
 2569SOL     OW 7707   4.274   3.920   0.885
 2569SOL    HW1 7708   4.269   3.915   0.985
 2569SOL    HW2 7709   4.276   4.016   0.856
 2570SOL     OW 7710   3.926   4.009   1.498
 2570SOL    HW1 7711   3.846   4.069   1.485
 2570SOL    HW2 7712   3.916   3.960   1.584
 2571SOL     OW 7713   4.338   3.846   0.117
 2571SOL    HW1 7714   4.436   3.824   0.124
 2571SOL    HW2 7715   4.307   3.829   0.024
 2572SOL     OW 7716   4.263   3.788   0.512
 2572SOL    HW1 7717   4.182   3.789   0.570
 2572SOL    HW2 7718   4.266   3.871   0.457
 2573SOL     OW 7719   4.021   3.759   0.171
 2573SOL    HW1 7720   4.070   3.843   0.150
 2573SOL    HW2 7721   4.083   3.694   0.216
 2574SOL     OW 7722   3.802   4.280   1.386
 2574SOL    HW1 7723   3.894   4.279   1.345
 2574SOL    HW2 7724   3.796   4.354   1.453
 2575SOL     OW 7725   4.285   3.946   1.147
 2575SOL    HW1 7726   4.323   3.862   1.184
 2575SOL    HW2 7727   4.197   3.965   1.191
 2576SOL     OW 7728   4.290   4.261   0.865
 2576SOL    HW1 7729   4.302   4.327   0.791
 2576SOL    HW2 7730   4.336   4.295   0.948
 2577SOL     OW 7731   4.228   3.774   1.740
 2577SOL    HW1 7732   4.186   3.717   1.670
 2577SOL    HW2 7733   4.162   3.843   1.772
 2578SOL     OW 7734   4.031   3.937   1.231
 2578SOL    HW1 7735   4.008   3.974   1.321
 2578SOL    HW2 7736   4.001   3.842   1.225
 2579SOL     OW 7737   4.031   3.787   0.618
 2579SOL    HW1 7738   4.020   3.881   0.651
 2579SOL    HW2 7739   4.026   3.724   0.695
 2580SOL     OW 7740   4.063   4.233   1.006
 2580SOL    HW1 7741   4.011   4.150   0.989
 2580SOL    HW2 7742   4.140   4.238   0.942
 2581SOL     OW 7743   3.764   4.268   1.114
 2581SOL    HW1 7744   3.849   4.235   1.073
 2581SOL    HW2 7745   3.777   4.283   1.212
 2582SOL     OW 7746   3.913   4.244   1.722
 2582SOL    HW1 7747   3.972   4.204   1.652
 2582SOL    HW2 7748   3.855   4.315   1.681
 2583SOL     OW 7749   3.987   4.050   0.720
 2583SOL    HW1 7750   3.908   4.101   0.686
 2583SOL    HW2 7751   3.978   4.035   0.818
 2584SOL     OW 7752   3.799   4.069   0.033
 2584SOL    HW1 7753   3.707   4.041   0.004
 2584SOL    HW2 7754   3.830   4.146  -0.023
 2585SOL     OW 7755   3.796   3.890   0.318
 2585SOL    HW1 7756   3.779   3.973   0.264
 2585SOL    HW2 7757   3.886   3.853   0.296
 2586SOL     OW 7758   4.152   4.148   0.520
 2586SOL    HW1 7759   4.182   4.076   0.458
 2586SOL    HW2 7760   4.113   4.108   0.603
 2587SOL     OW 7761   3.949   3.999   2.858
 2587SOL    HW1 7762   3.984   3.982   2.950
 2587SOL    HW2 7763   3.861   3.954   2.846
 2588SOL     OW 7764   3.743   4.092   2.509
 2588SOL    HW1 7765   3.661   4.135   2.548
 2588SOL    HW2 7766   3.715   4.019   2.446
 2589SOL     OW 7767   4.162   4.116   3.361
 2589SOL    HW1 7768   4.244   4.060   3.370
 2589SOL    HW2 7769   4.081   4.058   3.365
 2590SOL     OW 7770   3.846   4.367   2.425
 2590SOL    HW1 7771   3.801   4.279   2.442
 2590SOL    HW2 7772   3.845   4.421   2.509
 2591SOL     OW 7773   4.041   3.975   3.663
 2591SOL    HW1 7774   4.112   4.046   3.669
 2591SOL    HW2 7775   3.953   4.014   3.691
 2592SOL     OW 7776   4.274   3.920   2.747
 2592SOL    HW1 7777   4.269   3.915   2.847
 2592SOL    HW2 7778   4.276   4.016   2.718
 2593SOL     OW 7779   3.926   4.009   3.360
 2593SOL    HW1 7780   3.846   4.069   3.347
 2593SOL    HW2 7781   3.916   3.960   3.446
 2594SOL     OW 7782   4.338   3.846   1.979
 2594SOL    HW1 7783   4.436   3.824   1.986
 2594SOL    HW2 7784   4.307   3.829   1.886
 2595SOL     OW 7785   4.263   3.788   2.374
 2595SOL    HW1 7786   4.182   3.789   2.432
 2595SOL    HW2 7787   4.266   3.871   2.319
 2596SOL     OW 7788   4.021   3.759   2.033
 2596SOL    HW1 7789   4.070   3.843   2.012
 2596SOL    HW2 7790   4.083   3.694   2.078
 2597SOL     OW 7791   3.802   4.280   3.248
 2597SOL    HW1 7792   3.894   4.279   3.207
 2597SOL    HW2 7793   3.796   4.354   3.315
 2598SOL     OW 7794   4.285   3.946   3.009
 2598SOL    HW1 7795   4.323   3.862   3.046
 2598SOL    HW2 7796   4.197   3.965   3.053
 2599SOL     OW 7797   4.290   4.261   2.727
 2599SOL    HW1 7798   4.302   4.327   2.653
 2599SOL    HW2 7799   4.336   4.295   2.810
 2600SOL     OW 7800   4.228   3.774   3.602
 2600SOL    HW1 7801   4.186   3.717   3.532
 2600SOL    HW2 7802   4.162   3.843   3.634
 2601SOL     OW 7803   4.031   3.937   3.093
 2601SOL    HW1 7804   4.008   3.974   3.183
 2601SOL    HW2 7805   4.001   3.842   3.087
 2602SOL     OW 7806   4.031   3.787   2.480
 2602SOL    HW1 7807   4.020   3.881   2.513
 2602SOL    HW2 7808   4.026   3.724   2.557
 2603SOL     OW 7809   4.063   4.233   2.868
 2603SOL    HW1 7810   4.011   4.150   2.851
 2603SOL    HW2 7811   4.140   4.238   2.804
 2604SOL     OW 7812   3.764   4.268   2.976
 2604SOL    HW1 7813   3.849   4.235   2.935
 2604SOL    HW2 7814   3.777   4.283   3.074
 2605SOL     OW 7815   3.913   4.244   3.584
 2605SOL    HW1 7816   3.972   4.204   3.514
 2605SOL    HW2 7817   3.855   4.315   3.543
 2606SOL     OW 7818   3.987   4.050   2.582
 2606SOL    HW1 7819   3.908   4.101   2.548
 2606SOL    HW2 7820   3.978   4.035   2.680
 2607SOL     OW 7821   3.799   4.069   1.895
 2607SOL    HW1 7822   3.707   4.041   1.866
 2607SOL    HW2 7823   3.830   4.146   1.839
 2608SOL     OW 7824   3.796   3.890   2.180
 2608SOL    HW1 7825   3.779   3.973   2.126
 2608SOL    HW2 7826   3.886   3.853   2.158
 2609SOL     OW 7827   4.152   4.148   2.382
 2609SOL    HW1 7828   4.182   4.076   2.320
 2609SOL    HW2 7829   4.113   4.108   2.465
 2610SOL     OW 7830   3.846   4.367   4.287
 2610SOL    HW1 7831   3.801   4.279   4.304
 2610SOL    HW2 7832   3.845   4.421   4.371
 2611SOL     OW 7833   4.106   4.424   4.204
 2611SOL    HW1 7834   4.151   4.334   4.201
 2611SOL    HW2 7835   4.012   4.413   4.237
 2612SOL     OW 7836   4.338   3.846   3.841
 2612SOL    HW1 7837   4.436   3.824   3.848
 2612SOL    HW2 7838   4.307   3.829   3.748
 2613SOL     OW 7839   4.021   3.759   3.895
 2613SOL    HW1 7840   4.070   3.843   3.874
 2613SOL    HW2 7841   4.083   3.694   3.940
 2614SOL     OW 7842   4.290   4.261   4.589
 2614SOL    HW1 7843   4.302   4.327   4.515
 2614SOL    HW2 7844   4.336   4.295   4.672
 2615SOL     OW 7845   3.799   4.069   3.757
 2615SOL    HW1 7846   3.707   4.041   3.728
 2615SOL    HW2 7847   3.830   4.146   3.701
 2616SOL     OW 7848   3.796   3.890   4.042
 2616SOL    HW1 7849   3.779   3.973   3.988
 2616SOL    HW2 7850   3.886   3.853   4.020
 2617SOL     OW 7851   4.152   4.148   4.244
 2617SOL    HW1 7852   4.182   4.076   4.182
 2617SOL    HW2 7853   4.113   4.108   4.327
   4.29135   4.29135   4.29135
