mobley_6359135_GMX.gro created by acpype (v: 2023.10.27) on Wed May 20 23:45:07 2026
    5
    1MOL     C1    1   2.145   2.146   2.145
    1MOL    CL1    2   2.307   2.216   2.172
    1MOL    CL2    3   2.158   1.968   2.142
    1MOL    CL3    4   2.080   2.204   1.990
    1MOL    CL4    5   2.037   2.195   2.278
   4.29135   4.29135   4.29135
