mobley_2487143_GMX.gro created by acpype (v: 2023.10.27) on Wed May 20 23:59:29 2026
   19
    1MOL     C1    1   2.311   2.576   2.463
    1MOL     C2    2   2.268   2.706   2.400
    1MOL     C3    3   2.525   2.120   2.417
    1MOL     C4    4   2.385   2.479   2.372
    1MOL     C5    5   2.492   2.251   2.348
    1MOL     C6    6   2.421   2.348   2.443
    1MOL     O1    7   2.287   2.551   2.581
    1MOL     H1    8   2.356   2.760   2.364
    1MOL     H2    9   2.200   2.686   2.316
    1MOL     H3   10   2.217   2.767   2.474
    1MOL     H4   11   2.434   2.071   2.453
    1MOL     H5   12   2.575   2.052   2.348
    1MOL     H6   13   2.591   2.136   2.503
    1MOL     H7   14   2.476   2.528   2.336
    1MOL     H8   15   2.321   2.458   2.286
    1MOL     H9   16   2.428   2.231   2.261
    1MOL    H10   17   2.585   2.296   2.311
    1MOL    H11   18   2.486   2.370   2.529
    1MOL    H12   19   2.331   2.302   2.483
   4.80948   4.80948   4.80948
