; mobley_1923244_GMX_OPLS.itp created by acpype (v: 2023.10.27) on Wed May 20 23:43:04 2026

; For OPLS atomtypes manual fine tuning
; AC_at:OPLS_at:OPLScode: Possible_Alternatives (see ffoplsaa.atp and ffoplsaanb.itp)
; hc:HC:opls_140: []
; c3:CT:opls_135: ['136', '137', '149', '157', '158', '206', '209', '210', '223B', '224B', '245', '246', '274', '283', '284', '285', '292', '292B', '293B', '296', '307', '308', '505']

[ moleculetype ]
;name            nrexcl
 mobley_1923244   3

[ atoms ]
;   nr  type  resi  res  atom  cgnr     charge      mass       ; qtot   bond_type
     1 opls_140     1   MOL    H3    1     0.032367      1.00800 ; qtot  0.032  HC  
     2 opls_135     1   MOL    C1    2    -0.094101     12.01100 ; qtot -0.062  CT  
     3 opls_140     1   MOL    H2    3     0.032367      1.00800 ; qtot -0.029  HC  
     4 opls_140     1   MOL    H6    4     0.032367      1.00800 ; qtot  0.003  HC  
     5 opls_135     1   MOL    C3    5    -0.080400     12.01100 ; qtot -0.077  CT  
     6 opls_140     1   MOL    H1    6     0.038700      1.00800 ; qtot -0.039  HC  
     7 opls_140     1   MOL    H7    7     0.038700      1.00800 ; qtot  0.000  HC  
     8 opls_135     1   MOL    C5    8    -0.080400     12.01100 ; qtot -0.080  CT  
     9 opls_140     1   MOL   H10    9     0.038700      1.00800 ; qtot -0.042  HC  
    10 opls_135     1   MOL    C7   10    -0.094101     12.01100 ; qtot -0.136  CT  
    11 opls_140     1   MOL    H8   11     0.032367      1.00800 ; qtot -0.103  HC  
    12 opls_140     1   MOL    H9   12     0.032367      1.00800 ; qtot -0.071  HC  
    13 opls_140     1   MOL    H4   13     0.032367      1.00800 ; qtot -0.039  HC  
    14 opls_140     1   MOL    H5   14     0.038700      1.00800 ; qtot  0.000  HC  

[ bonds ]
;   ai     aj funct   r             k
     1      2   1 ;    1.0962e-01    2.8891e+05 ;     H3 - C1         HC - CT    
     2      3   1 ;    1.0962e-01    2.8891e+05 ;     C1 - H2         CT - HC    
     2      4   1 ;    1.0962e-01    2.8891e+05 ;     C1 - H6         CT - HC    
     2      5   1 ;    1.5354e-01    1.9154e+05 ;     C1 - C3         CT - CT    
     5      6   1 ;    1.0962e-01    2.8891e+05 ;     C3 - H1         CT - HC    
     5      7   1 ;    1.0962e-01    2.8891e+05 ;     C3 - H7         CT - HC    
     5      8   1 ;    1.5354e-01    1.9154e+05 ;     C3 - C5         CT - CT    
     8      9   1 ;    1.0962e-01    2.8891e+05 ;     C5 - H10        CT - HC    
     8     10   1 ;    1.5354e-01    1.9154e+05 ;     C5 - C7         CT - CT    
     8     14   1 ;    1.0962e-01    2.8891e+05 ;     C5 - H5         CT - HC    
    10     11   1 ;    1.0962e-01    2.8891e+05 ;     C7 - H8         CT - HC    
    10     12   1 ;    1.0962e-01    2.8891e+05 ;     C7 - H9         CT - HC    
    10     13   1 ;    1.0962e-01    2.8891e+05 ;     C7 - H4         CT - HC    

[ pairs ]
;   ai     aj    funct
     1      6      1 ;     H3 - H1    
     1      7      1 ;     H3 - H7    
     1      8      1 ;     H3 - C5    
     2      9      1 ;     C1 - H10   
     2     10      1 ;     C1 - C7    
     2     14      1 ;     C1 - H5    
     3      6      1 ;     H2 - H1    
     3      7      1 ;     H2 - H7    
     3      8      1 ;     H2 - C5    
     4      6      1 ;     H6 - H1    
     4      7      1 ;     H6 - H7    
     4      8      1 ;     H6 - C5    
     5     11      1 ;     C3 - H8    
     5     12      1 ;     C3 - H9    
     5     13      1 ;     C3 - H4    
     6      9      1 ;     H1 - H10   
     6     10      1 ;     H1 - C7    
     6     14      1 ;     H1 - H5    
     7      9      1 ;     H7 - H10   
     7     10      1 ;     H7 - C7    
     7     14      1 ;     H7 - H5    
     9     11      1 ;    H10 - H8    
     9     12      1 ;    H10 - H9    
     9     13      1 ;    H10 - H4    
    11     14      1 ;     H8 - H5    
    12     14      1 ;     H9 - H5    
    13     14      1 ;     H4 - H5    

[ angles ]
;   ai     aj     ak    funct   theta         cth
     1      2      3      1 ;    1.0773e+02    2.9957e+02 ;     H3 - C1   - H2       HC -   CT - HC  
     1      2      4      1 ;    1.0773e+02    2.9957e+02 ;     H3 - C1   - H6       HC -   CT - HC  
     1      2      5      1 ;    1.0968e+02    3.6208e+02 ;     H3 - C1   - C3       HC -   CT - CT  
     2      5      6      1 ;    1.0968e+02    3.6208e+02 ;     C1 - C3   - H1       CT -   CT - HC  
     2      5      7      1 ;    1.0968e+02    3.6208e+02 ;     C1 - C3   - H7       CT -   CT - HC  
     2      5      8      1 ;    1.1263e+02    5.0099e+02 ;     C1 - C3   - C5       CT -   CT - CT  
     3      2      4      1 ;    1.0773e+02    2.9957e+02 ;     H2 - C1   - H6       HC -   CT - HC  
     3      2      5      1 ;    1.0968e+02    3.6208e+02 ;     H2 - C1   - C3       HC -   CT - CT  
     4      2      5      1 ;    1.0968e+02    3.6208e+02 ;     H6 - C1   - C3       HC -   CT - CT  
     5      8      9      1 ;    1.0968e+02    3.6208e+02 ;     C3 - C5   - H10      CT -   CT - HC  
     5      8     10      1 ;    1.1263e+02    5.0099e+02 ;     C3 - C5   - C7       CT -   CT - CT  
     5      8     14      1 ;    1.0968e+02    3.6208e+02 ;     C3 - C5   - H5       CT -   CT - HC  
     6      5      7      1 ;    1.0773e+02    2.9957e+02 ;     H1 - C3   - H7       HC -   CT - HC  
     6      5      8      1 ;    1.0968e+02    3.6208e+02 ;     H1 - C3   - C5       HC -   CT - CT  
     7      5      8      1 ;    1.0968e+02    3.6208e+02 ;     H7 - C3   - C5       HC -   CT - CT  
     8     10     11      1 ;    1.0968e+02    3.6208e+02 ;     C5 - C7   - H8       CT -   CT - HC  
     8     10     12      1 ;    1.0968e+02    3.6208e+02 ;     C5 - C7   - H9       CT -   CT - HC  
     8     10     13      1 ;    1.0968e+02    3.6208e+02 ;     C5 - C7   - H4       CT -   CT - HC  
     9      8     10      1 ;    1.0968e+02    3.6208e+02 ;    H10 - C5   - C7       HC -   CT - CT  
     9      8     14      1 ;    1.0773e+02    2.9957e+02 ;    H10 - C5   - H5       HC -   CT - HC  
    10      8     14      1 ;    1.0968e+02    3.6208e+02 ;     C7 - C5   - H5       CT -   CT - HC  
    11     10     12      1 ;    1.0773e+02    2.9957e+02 ;     H8 - C7   - H9       HC -   CT - HC  
    11     10     13      1 ;    1.0773e+02    2.9957e+02 ;     H8 - C7   - H4       HC -   CT - HC  
    12     10     13      1 ;    1.0773e+02    2.9957e+02 ;     H9 - C7   - H4       HC -   CT - HC  

[ dihedrals ] ; propers
; for gromacs 4.5 or higher, using funct 9
;    i      j      k      l   func   phase     kd      pn
     1      2      5      6      9 ;     0.00   0.50208   3 ;     H3-    C1-    C3-    H1
     1      2      5      7      9 ;     0.00   0.50208   3 ;     H3-    C1-    C3-    H7
     1      2      5      8      9 ;     0.00   0.54392   3 ;     H3-    C1-    C3-    C5
     2      5      8      9      9 ;     0.00   0.54392   3 ;     C1-    C3-    C5-   H10
     2      5      8     10      9 ;     0.00   2.17568   3 ;     C1-    C3-    C5-    C7
     2      5      8     14      9 ;     0.00   0.54392   3 ;     C1-    C3-    C5-    H5
     3      2      5      6      9 ;     0.00   0.50208   3 ;     H2-    C1-    C3-    H1
     3      2      5      7      9 ;     0.00   0.50208   3 ;     H2-    C1-    C3-    H7
     3      2      5      8      9 ;     0.00   0.54392   3 ;     H2-    C1-    C3-    C5
     4      2      5      6      9 ;     0.00   0.50208   3 ;     H6-    C1-    C3-    H1
     4      2      5      7      9 ;     0.00   0.50208   3 ;     H6-    C1-    C3-    H7
     4      2      5      8      9 ;     0.00   0.54392   3 ;     H6-    C1-    C3-    C5
     5      8     10     11      9 ;     0.00   0.54392   3 ;     C3-    C5-    C7-    H8
     5      8     10     12      9 ;     0.00   0.54392   3 ;     C3-    C5-    C7-    H9
     5      8     10     13      9 ;     0.00   0.54392   3 ;     C3-    C5-    C7-    H4
     6      5      8      9      9 ;     0.00   0.50208   3 ;     H1-    C3-    C5-   H10
     6      5      8     10      9 ;     0.00   0.54392   3 ;     H1-    C3-    C5-    C7
     6      5      8     14      9 ;     0.00   0.50208   3 ;     H1-    C3-    C5-    H5
     7      5      8      9      9 ;     0.00   0.50208   3 ;     H7-    C3-    C5-   H10
     7      5      8     10      9 ;     0.00   0.54392   3 ;     H7-    C3-    C5-    C7
     7      5      8     14      9 ;     0.00   0.50208   3 ;     H7-    C3-    C5-    H5
     9      8     10     11      9 ;     0.00   0.50208   3 ;    H10-    C5-    C7-    H8
     9      8     10     12      9 ;     0.00   0.50208   3 ;    H10-    C5-    C7-    H9
     9      8     10     13      9 ;     0.00   0.50208   3 ;    H10-    C5-    C7-    H4
    11     10      8     14      9 ;     0.00   0.50208   3 ;     H8-    C7-    C5-    H5
    12     10      8     14      9 ;     0.00   0.50208   3 ;     H9-    C7-    C5-    H5
    13     10      8     14      9 ;     0.00   0.50208   3 ;     H4-    C7-    C5-    H5
