%VERSION  VERSION_STAMP = V0001.000  DATE = 05/20/26  23:43:05                  
%FLAG TITLE                                                                     
%FORMAT(20a4)                                                                   
s61                                                                             
%FLAG POINTERS                                                                  
%FORMAT(10I8)                                                                   
      14       2      10       3      22       2      26       1       0       0
      65       1       3       2       1       2       3       3       2       0
       0       0       0       0       0       0       0       0      14       0
       0
%FLAG ATOM_NAME                                                                 
%FORMAT(20a4)                                                                   
H3  C1  H2  H6  C3  H1  H7  C5  H10 C7  H8  H9  H4  H5  
%FLAG CHARGE                                                                    
%FORMAT(5E16.8)                                                                 
  5.89801184E-01 -1.67827383E+00  5.89801184E-01  5.89801184E-01 -1.46507292E+00
  7.05203010E-01  7.05203010E-01 -1.46507292E+00  7.05203010E-01 -1.67827383E+00
  5.89801184E-01  5.89801184E-01  5.89801184E-01  7.05203010E-01
%FLAG ATOMIC_NUMBER                                                             
%FORMAT(10I8)                                                                   
       1       6       1       1       6       1       1       6       1       6
       1       1       1       1
%FLAG MASS                                                                      
%FORMAT(5E16.8)                                                                 
  1.00800000E+00  1.20100000E+01  1.00800000E+00  1.00800000E+00  1.20100000E+01
  1.00800000E+00  1.00800000E+00  1.20100000E+01  1.00800000E+00  1.20100000E+01
  1.00800000E+00  1.00800000E+00  1.00800000E+00  1.00800000E+00
%FLAG ATOM_TYPE_INDEX                                                           
%FORMAT(10I8)                                                                   
       1       2       1       1       2       1       1       2       1       2
       1       1       1       1
%FLAG NUMBER_EXCLUDED_ATOMS                                                     
%FORMAT(10I8)                                                                   
       7       9       5       4       9       5       4       6       5       4
       3       2       1       1
%FLAG NONBONDED_PARM_INDEX                                                      
%FORMAT(10I8)                                                                   
       1       2       2       3
%FLAG RESIDUE_LABEL                                                             
%FORMAT(20a4)                                                                   
MOL 
%FLAG RESIDUE_POINTER                                                           
%FORMAT(10I8)                                                                   
       1
%FLAG BOND_FORCE_CONSTANT                                                       
%FORMAT(5E16.8)                                                                 
  3.45250000E+02  2.28890000E+02
%FLAG BOND_EQUIL_VALUE                                                          
%FORMAT(5E16.8)                                                                 
  1.09620000E+00  1.53540000E+00
%FLAG ANGLE_FORCE_CONSTANT                                                      
%FORMAT(5E16.8)                                                                 
  3.58000000E+01  4.32700000E+01  5.98700000E+01
%FLAG ANGLE_EQUIL_VALUE                                                         
%FORMAT(5E16.8)                                                                 
  1.88024401E+00  1.91427794E+00  1.96576518E+00
%FLAG DIHEDRAL_FORCE_CONSTANT                                                   
%FORMAT(5E16.8)                                                                 
  1.20000000E-01  1.30000000E-01  5.20000000E-01
%FLAG DIHEDRAL_PERIODICITY                                                      
%FORMAT(5E16.8)                                                                 
  3.00000000E+00  3.00000000E+00  3.00000000E+00
%FLAG DIHEDRAL_PHASE                                                            
%FORMAT(5E16.8)                                                                 
  0.00000000E+00  0.00000000E+00  0.00000000E+00
%FLAG SCEE_SCALE_FACTOR                                                         
%FORMAT(5E16.8)                                                                 
  1.20000000E+00  1.20000000E+00  1.20000000E+00
%FLAG SCNB_SCALE_FACTOR                                                         
%FORMAT(5E16.8)                                                                 
  2.00000000E+00  2.00000000E+00  2.00000000E+00
%FLAG SOLTY                                                                     
%FORMAT(5E16.8)                                                                 
  0.00000000E+00  0.00000000E+00
%FLAG LENNARD_JONES_ACOEF                                                       
%FORMAT(5E16.8)                                                                 
  7.94617769E+03  1.00235148E+05  1.02073671E+06
%FLAG LENNARD_JONES_BCOEF                                                       
%FORMAT(5E16.8)                                                                 
  2.57122925E+01  1.37787728E+02  6.63431737E+02
%FLAG BONDS_INC_HYDROGEN                                                        
%FORMAT(10I8)                                                                   
       0       3       1       3       6       1       3       9       1      12
      15       1      12      18       1      21      24       1      21      39
       1      27      30       1      27      33       1      27      36       1
%FLAG BONDS_WITHOUT_HYDROGEN                                                    
%FORMAT(10I8)                                                                   
       3      12       2      12      21       2      21      27       2
%FLAG ANGLES_INC_HYDROGEN                                                       
%FORMAT(10I8)                                                                   
       0       3       6       1       0       3       9       1       0       3
      12       2       3      12      15       2       3      12      18       2
       6       3       9       1       6       3      12       2       9       3
      12       2      12      21      24       2      12      21      39       2
      15      12      18       1      15      12      21       2      18      12
      21       2      21      27      30       2      21      27      33       2
      21      27      36       2      24      21      27       2      24      21
      39       1      27      21      39       2      30      27      33       1
      30      27      36       1      33      27      36       1
%FLAG ANGLES_WITHOUT_HYDROGEN                                                   
%FORMAT(10I8)                                                                   
       3      12      21       3      12      21      27       3
%FLAG DIHEDRALS_INC_HYDROGEN                                                    
%FORMAT(10I8)                                                                   
       0       3      12      15       1       0       3      12      18       1
       0       3      12      21       2       3      12      21      24       2
       3      12      21      39       2       6       3      12      15       1
       6       3      12      18       1       6       3      12      21       2
       9       3      12      15       1       9       3      12      18       1
       9       3      12      21       2      12      21      27      30       2
      12      21      27      33       2      12      21      27      36       2
      15      12      21      24       1      15      12      21      27       2
      15      12      21      39       1      18      12      21      24       1
      18      12      21      27       2      18      12      21      39       1
      24      21      27      30       1      24      21      27      33       1
      24      21      27      36       1      30      27      21      39       1
      33      27      21      39       1      36      27      21      39       1
%FLAG DIHEDRALS_WITHOUT_HYDROGEN                                                
%FORMAT(10I8)                                                                   
       3      12      21      27       3
%FLAG EXCLUDED_ATOMS_LIST                                                       
%FORMAT(10I8)                                                                   
       2       3       4       5       6       7       8       3       4       5
       6       7       8       9      10      14       4       5       6       7
       8       5       6       7       8       6       7       8       9      10
      11      12      13      14       7       8       9      10      14       8
       9      10      14       9      10      11      12      13      14      10
      11      12      13      14      11      12      13      14      12      13
      14      13      14      14       0
%FLAG HBOND_ACOEF                                                               
%FORMAT(5E16.8)                                                                 

%FLAG HBOND_BCOEF                                                               
%FORMAT(5E16.8)                                                                 

%FLAG HBCUT                                                                     
%FORMAT(5E16.8)                                                                 

%FLAG AMBER_ATOM_TYPE                                                           
%FORMAT(20a4)                                                                   
hc  c3  hc  hc  c3  hc  hc  c3  hc  c3  hc  hc  hc  hc  
%FLAG TREE_CHAIN_CLASSIFICATION                                                 
%FORMAT(20a4)                                                                   
BLA BLA BLA BLA BLA BLA BLA BLA BLA BLA BLA BLA BLA BLA 
%FLAG JOIN_ARRAY                                                                
%FORMAT(10I8)                                                                   
       0       0       0       0       0       0       0       0       0       0
       0       0       0       0
%FLAG IROTAT                                                                    
%FORMAT(10I8)                                                                   
       0       0       0       0       0       0       0       0       0       0
       0       0       0       0
%FLAG RADIUS_SET                                                                
%FORMAT(1a80)                                                                   
modified Bondi radii (mbondi)                                                   
%FLAG RADII                                                                     
%FORMAT(5E16.8)                                                                 
  1.30000000E+00  1.70000000E+00  1.30000000E+00  1.30000000E+00  1.70000000E+00
  1.30000000E+00  1.30000000E+00  1.70000000E+00  1.30000000E+00  1.70000000E+00
  1.30000000E+00  1.30000000E+00  1.30000000E+00  1.30000000E+00
%FLAG SCREEN                                                                    
%FORMAT(5E16.8)                                                                 
  8.50000000E-01  7.20000000E-01  8.50000000E-01  8.50000000E-01  7.20000000E-01
  8.50000000E-01  8.50000000E-01  7.20000000E-01  8.50000000E-01  7.20000000E-01
  8.50000000E-01  8.50000000E-01  8.50000000E-01  8.50000000E-01
%FLAG IPOL                                                                      
%FORMAT(1I8)                                                                    
       0
