s61
    14
  -1.7780000  -0.4710000  -0.0910000  -1.9780000   0.0030000  -1.0330000
  -1.0410000   0.3740000  -1.4610000  -2.5990000   0.8750000  -0.8330000
  -2.6860000  -0.9260000  -1.9960000  -2.0270000  -1.7840000  -2.2110000
  -2.8610000  -0.4360000  -2.9490000  -4.0040000  -1.4420000  -1.4240000
  -3.8030000  -1.9500000  -0.4810000  -4.7040000  -2.3870000  -2.3750000
  -4.0860000  -3.2500000  -2.5790000  -5.6570000  -2.7670000  -1.9630000
  -4.9210000  -1.9050000  -3.3530000  -4.6720000  -0.5830000  -1.2210000
