mobley_3187514_GMX.gro created by acpype (v: 2023.10.27) on Wed May 20 23:52:09 2026
   17
    1MOL     C1    1   2.251   2.314   2.083
    1MOL     C2    2   2.144   2.374   2.150
    1MOL     C3    3   2.356   2.258   2.155
    1MOL     C4    4   2.142   2.377   2.290
    1MOL     C5    5   2.354   2.261   2.295
    1MOL     C6    6   2.247   2.320   2.362
    1MOL     C7    7   2.468   2.199   2.370
    1MOL     N1    8   2.244   2.324   2.503
    1MOL     H1    9   2.252   2.312   1.974
    1MOL     H2   10   2.062   2.418   2.094
    1MOL     H3   11   2.438   2.211   2.102
    1MOL     H4   12   2.058   2.424   2.341
    1MOL     H5   13   2.518   2.275   2.431
    1MOL     H6   14   2.433   2.118   2.435
    1MOL     H7   15   2.541   2.155   2.301
    1MOL     H8   16   2.303   2.263   2.555
    1MOL     H9   17   2.175   2.382   2.549
   4.58645   4.58645   4.58645
