mobley_3187514_GMX.gro created by acpype (v: 2023.10.27) on Wed May 20 23:52:09 2026
 9446
    1MOL     C1    1   2.251   2.314   2.083
    1MOL     C2    2   2.144   2.374   2.150
    1MOL     C3    3   2.356   2.258   2.155
    1MOL     C4    4   2.142   2.377   2.290
    1MOL     C5    5   2.354   2.261   2.295
    1MOL     C6    6   2.247   2.320   2.362
    1MOL     C7    7   2.468   2.199   2.370
    1MOL     N1    8   2.244   2.324   2.503
    1MOL     H1    9   2.252   2.312   1.974
    1MOL     H2   10   2.062   2.418   2.094
    1MOL     H3   11   2.438   2.211   2.102
    1MOL     H4   12   2.058   2.424   2.341
    1MOL     H5   13   2.518   2.275   2.431
    1MOL     H6   14   2.433   2.118   2.435
    1MOL     H7   15   2.541   2.155   2.301
    1MOL     H8   16   2.303   2.263   2.555
    1MOL     H9   17   2.175   2.382   2.549
    2SOL     OW   18   0.230   0.628   0.113
    2SOL    HW1   19   0.137   0.626   0.150
    2SOL    HW2   20   0.231   0.589   0.021
    3SOL     OW   21   0.225   0.275   0.996
    3SOL    HW1   22   0.260   0.258   1.088
    3SOL    HW2   23   0.137   0.230   0.984
    4SOL     OW   24   0.019   0.368   0.647
    4SOL    HW1   25  -0.063   0.411   0.686
    4SOL    HW2   26  -0.009   0.295   0.584
    5SOL     OW   27   0.569   1.275   1.165
    5SOL    HW1   28   0.476   1.268   1.128
    5SOL    HW2   29   0.580   1.364   1.209
    6SOL     OW   30   1.555   1.511   0.703
    6SOL    HW1   31   1.498   1.495   0.784
    6SOL    HW2   32   1.496   1.521   0.623
    7SOL     OW   33   1.135   0.703   0.717
    7SOL    HW1   34   1.192   0.781   0.692
    7SOL    HW2   35   1.075   0.729   0.793
    8SOL     OW   36   1.755   0.607   0.231
    8SOL    HW1   37   1.743   0.594   0.132
    8SOL    HW2   38   1.725   0.526   0.280
    9SOL     OW   39   0.768   1.144   1.023
    9SOL    HW1   40   0.690   1.161   1.083
    9SOL    HW2   41   0.802   1.231   0.987
   10SOL     OW   42   0.850   0.798   1.823
   10SOL    HW1   43   0.846   0.874   1.888
   10SOL    HW2   44   0.872   0.834   1.732
   11SOL     OW   45   0.685   1.012   0.665
   11SOL    HW1   46   0.754   0.996   0.735
   11SOL    HW2   47   0.612   1.069   0.703
   12SOL     OW   48   0.686   1.161   1.803
   12SOL    HW1   49   0.746   1.240   1.817
   12SOL    HW2   50   0.600   1.192   1.762
   13SOL     OW   51   0.335   1.435   1.061
   13SOL    HW1   52   0.257   1.404   1.008
   13SOL    HW2   53   0.393   1.493   1.004
   14SOL     OW   54   1.460   1.505   1.339
   14SOL    HW1   55   1.484   1.599   1.365
   14SOL    HW2   56   1.444   1.451   1.421
   15SOL     OW   57   0.438   0.392   1.499
   15SOL    HW1   58   0.520   0.336   1.508
   15SOL    HW2   59   0.357   0.334   1.503
   16SOL     OW   60   1.603   0.447   0.737
   16SOL    HW1   61   1.529   0.493   0.687
   16SOL    HW2   62   1.654   0.515   0.790
   17SOL     OW   63   0.231   1.713   0.483
   17SOL    HW1   64   0.265   1.790   0.537
   17SOL    HW2   65   0.275   1.713   0.393
   18SOL     OW   66   1.127   1.341   1.690
   18SOL    HW1   67   1.174   1.341   1.778
   18SOL    HW2   68   1.079   1.254   1.679
   19SOL     OW   69   0.230   1.434   0.538
   19SOL    HW1   70   0.204   1.530   0.538
   19SOL    HW2   71   0.159   1.380   0.583
   20SOL     OW   72   0.240   1.091   0.886
   20SOL    HW1   73   0.254   1.007   0.938
   20SOL    HW2   74   0.185   1.155   0.941
   21SOL     OW   75   0.620   1.786   1.439
   21SOL    HW1   76   0.528   1.769   1.474
   21SOL    HW2   77   0.648   1.878   1.465
   22SOL     OW   78   0.606   0.964   0.123
   22SOL    HW1   79   0.613   1.048   0.069
   22SOL    HW2   80   0.652   0.977   0.211
   23SOL     OW   81   1.594   0.114   1.480
   23SOL    HW1   82   1.576   0.181   1.408
   23SOL    HW2   83   1.591   0.160   1.569
   24SOL     OW   84   0.122   0.643   0.563
   24SOL    HW1   85   0.077   0.555   0.580
   24SOL    HW2   86   0.121   0.697   0.647
   25SOL     OW   87   1.842   1.767   0.359
   25SOL    HW1   88   1.896   1.738   0.439
   25SOL    HW2   89   1.872   1.857   0.330
   26SOL     OW   90   0.027   1.596   0.117
   26SOL    HW1   91   0.008   1.500   0.138
   26SOL    HW2   92  -0.006   1.654   0.192
   27SOL     OW   93   1.689   0.922   0.612
   27SOL    HW1   94   1.784   0.893   0.620
   27SOL    HW2   95   1.681   0.987   0.537
   28SOL     OW   96   1.641   1.108   0.432
   28SOL    HW1   97   1.727   1.110   0.380
   28SOL    HW2   98   1.655   1.155   0.520
   29SOL     OW   99   0.113   0.737   1.597
   29SOL    HW1  100   0.201   0.724   1.642
   29SOL    HW2  101   0.100   0.834   1.575
   30SOL     OW  102   0.613   1.365   0.726
   30SOL    HW1  103   0.564   1.278   0.735
   30SOL    HW2  104   0.590   1.408   0.639
   31SOL     OW  105   1.293   1.228   1.423
   31SOL    HW1  106   1.330   1.155   1.365
   31SOL    HW2  107   1.345   1.233   1.508
   32SOL     OW  108   0.809   0.004   0.502
   32SOL    HW1  109   0.849   0.095   0.493
   32SOL    HW2  110   0.709   0.012   0.508
   33SOL     OW  111   0.197   0.976   1.264
   33SOL    HW1  112   0.286   0.931   1.250
   33SOL    HW2  113   0.124   0.911   1.245
   34SOL     OW  114   1.525   0.999   0.190
   34SOL    HW1  115   1.462   0.923   0.203
   34SOL    HW2  116   1.573   1.017   0.276
   35SOL     OW  117   1.187   1.792   1.616
   35SOL    HW1  118   1.211   1.852   1.540
   35SOL    HW2  119   1.194   1.697   1.586
   36SOL     OW  120   0.317   0.251   1.801
   36SOL    HW1  121   0.388   0.322   1.807
   36SOL    HW2  122   0.229   0.290   1.829
   37SOL     OW  123   1.466   1.417   0.953
   37SOL    HW1  124   1.407   1.423   1.033
   37SOL    HW2  125   1.451   1.329   0.907
   38SOL     OW  126   1.667   1.714   0.572
   38SOL    HW1  127   1.626   1.691   0.484
   38SOL    HW2  128   1.649   1.640   0.637
   39SOL     OW  129   0.598   0.729   0.270
   39SOL    HW1  130   0.622   0.798   0.202
   39SOL    HW2  131   0.520   0.762   0.324
   40SOL     OW  132   1.281   0.345   0.944
   40SOL    HW1  133   1.195   0.295   0.931
   40SOL    HW2  134   1.343   0.291   1.000
   41SOL     OW  135   1.576   1.662   0.307
   41SOL    HW1  136   1.665   1.708   0.310
   41SOL    HW2  137   1.555   1.638   0.212
   42SOL     OW  138   0.807   0.605   1.465
   42SOL    HW1  139   0.760   0.602   1.554
   42SOL    HW2  140   0.756   0.550   1.399
   43SOL     OW  141   1.394   0.469   1.674
   43SOL    HW1  142   1.374   0.512   1.762
   43SOL    HW2  143   1.472   0.407   1.683
   44SOL     OW  144   0.973   0.890   1.572
   44SOL    HW1  145   1.019   0.806   1.543
   44SOL    HW2  146   0.917   0.924   1.497
   45SOL     OW  147   0.991   0.410   1.242
   45SOL    HW1  148   0.914   0.444   1.296
   45SOL    HW2  149   0.957   0.359   1.163
   46SOL     OW  150   1.041   0.701   0.429
   46SOL    HW1  151   1.067   0.697   0.525
   46SOL    HW2  152   0.956   0.650   0.415
   47SOL     OW  153   0.076   0.811   0.789
   47SOL    HW1  154   0.175   0.799   0.798
   47SOL    HW2  155   0.052   0.906   0.810
   48SOL     OW  156   0.130   1.821   1.571
   48SOL    HW1  157   0.120   1.806   1.670
   48SOL    HW2  158   0.044   1.857   1.535
   49SOL     OW  159   0.865   0.348   0.195
   49SOL    HW1  160   0.924   0.411   0.146
   49SOL    HW2  161   0.884   0.254   0.166
   50SOL     OW  162   1.719   0.585   1.831
   50SOL    HW1  163   1.693   0.674   1.795
   50SOL    HW2  164   1.717   0.517   1.758
   51SOL     OW  165   1.362   1.144   0.545
   51SOL    HW1  166   1.445   1.115   0.497
   51SOL    HW2  167   1.313   1.211   0.489
   52SOL     OW  168   0.550   0.196   0.885
   52SOL    HW1  169   0.545   0.191   0.985
   52SOL    HW2  170   0.552   0.292   0.856
   53SOL     OW  171   1.008   1.456   0.477
   53SOL    HW1  172   0.962   1.528   0.425
   53SOL    HW2  173   1.004   1.476   0.575
   54SOL     OW  174   0.351   1.801   0.853
   54SOL    HW1  175   0.401   1.715   0.859
   54SOL    HW2  176   0.416   1.878   0.850
   55SOL     OW  177   1.795   1.066   0.873
   55SOL    HW1  178   1.733   1.051   0.797
   55SOL    HW2  179   1.743   1.077   0.958
   56SOL     OW  180   1.227   1.550   1.506
   56SOL    HW1  181   1.233   1.473   1.570
   56SOL    HW2  182   1.175   1.524   1.426
   57SOL     OW  183   0.321   0.943   0.242
   57SOL    HW1  184   0.403   0.982   0.200
   57SOL    HW2  185   0.294   0.861   0.193
   58SOL     OW  186   1.458   0.735   0.728
   58SOL    HW1  187   1.453   0.670   0.803
   58SOL    HW2  188   1.538   0.794   0.741
   59SOL     OW  189   0.461   1.266   1.727
   59SOL    HW1  190   0.411   1.267   1.641
   59SOL    HW2  191   0.398   1.248   1.803
   60SOL     OW  192   1.111   1.776   0.237
   60SOL    HW1  193   1.051   1.714   0.287
   60SOL    HW2  194   1.142   1.732   0.152
   61SOL     OW  195   0.202   0.285   1.498
   61SOL    HW1  196   0.122   0.345   1.485
   61SOL    HW2  197   0.192   0.236   1.584
   62SOL     OW  198   1.632   1.377   0.081
   62SOL    HW1  199   1.600   1.471   0.071
   62SOL    HW2  200   1.556   1.314   0.069
   63SOL     OW  201   0.464   1.743   0.323
   63SOL    HW1  202   0.497   1.782   0.409
   63SOL    HW2  203   0.540   1.736   0.258
   64SOL     OW  204   1.400   0.107   0.426
   64SOL    HW1  205   1.376   0.070   0.336
   64SOL    HW2  206   1.499   0.123   0.430
   65SOL     OW  207   0.249   1.785   1.241
   65SOL    HW1  208   0.306   1.720   1.291
   65SOL    HW2  209   0.233   1.752   1.148
   66SOL     OW  210   0.940   1.698   0.904
   66SOL    HW1  211   1.020   1.641   0.925
   66SOL    HW2  212   0.891   1.658   0.827
   67SOL     OW  213   0.382   0.700   0.480
   67SOL    HW1  214   0.427   0.610   0.477
   67SOL    HW2  215   0.288   0.689   0.513
   68SOL     OW  216   1.547   0.222   1.729
   68SOL    HW1  217   1.542   0.259   1.821
   68SOL    HW2  218   1.475   0.153   1.717
   69SOL     OW  219   0.614   0.122   0.117
   69SOL    HW1  220   0.712   0.100   0.124
   69SOL    HW2  221   0.583   0.105   0.024
   70SOL     OW  222   0.781   0.264   1.749
   70SOL    HW1  223   0.848   0.203   1.792
   70SOL    HW2  224   0.708   0.283   1.814
   71SOL     OW  225   0.888   1.514   1.195
   71SOL    HW1  226   0.865   1.489   1.101
   71SOL    HW2  227   0.949   1.445   1.234
   72SOL     OW  228   1.351   0.590   1.433
   72SOL    HW1  229   1.379   0.547   1.518
   72SOL    HW2  230   1.376   0.686   1.434
   73SOL     OW  231   0.803   1.402   0.924
   73SOL    HW1  232   0.893   1.416   0.882
   73SOL    HW2  233   0.732   1.404   0.853
   74SOL     OW  234   0.922   0.503   0.899
   74SOL    HW1  235   0.897   0.494   0.803
   74SOL    HW2  236   0.970   0.421   0.930
   75SOL     OW  237   0.539   0.064   0.512
   75SOL    HW1  238   0.458   0.065   0.570
   75SOL    HW2  239   0.542   0.147   0.457
   76SOL     OW  240   1.434   1.188   0.041
   76SOL    HW1  241   1.466   1.112   0.098
   76SOL    HW2  242   1.342   1.215   0.071
   77SOL     OW  243   0.297   0.035   0.171
   77SOL    HW1  244   0.346   0.119   0.150
   77SOL    HW2  245   0.359  -0.030   0.216
   78SOL     OW  246   0.935   0.236   0.480
   78SOL    HW1  247   0.887   0.277   0.402
   78SOL    HW2  248   1.034   0.234   0.461
   79SOL     OW  249   1.076   0.683   1.464
   79SOL    HW1  250   0.996   0.622   1.467
   79SOL    HW2  251   1.157   0.630   1.440
   80SOL     OW  252   1.227   1.570   0.793
   80SOL    HW1  253   1.248   1.644   0.728
   80SOL    HW2  254   1.295   1.570   0.866
   81SOL     OW  255   0.459   1.152   0.741
   81SOL    HW1  256   0.388   1.125   0.806
   81SOL    HW2  257   0.433   1.124   0.648
   82SOL     OW  258   1.271   1.797   0.591
   82SOL    HW1  259   1.315   1.861   0.527
   82SOL    HW2  260   1.221   1.849   0.661
   83SOL     OW  261   1.032   0.549   0.016
   83SOL    HW1  262   0.991   0.631  -0.023
   83SOL    HW2  263   1.096   0.575   0.089
   84SOL     OW  264   0.078   0.556   1.386
   84SOL    HW1  265   0.170   0.555   1.345
   84SOL    HW2  266   0.072   0.630   1.453
   85SOL     OW  267   0.561   0.222   1.147
   85SOL    HW1  268   0.599   0.138   1.184
   85SOL    HW2  269   0.473   0.241   1.191
   86SOL     OW  270   0.866   0.454   0.642
   86SOL    HW1  271   0.834   0.526   0.580
   86SOL    HW2  272   0.890   0.373   0.589
   87SOL     OW  273   1.017   0.039   0.753
   87SOL    HW1  274   0.945   0.044   0.684
   87SOL    HW2  275   0.993  -0.030   0.822
   88SOL     OW  276   1.429   1.173   0.867
   88SOL    HW1  277   1.374   1.089   0.860
   88SOL    HW2  278   1.455   1.202   0.775
   89SOL     OW  279   1.466   0.590   0.992
   89SOL    HW1  280   1.436   0.495   0.999
   89SOL    HW2  281   1.539   0.606   1.058
   90SOL     OW  282   1.857   0.833   0.377
   90SOL    HW1  283   1.899   0.769   0.441
   90SOL    HW2  284   1.819   0.782   0.299
   91SOL     OW  285   0.488   1.385   0.174
   91SOL    HW1  286   0.401   1.370   0.221
   91SOL    HW2  287   0.471   1.411   0.079
   92SOL     OW  288   1.664   1.280   0.657
   92SOL    HW1  289   1.763   1.288   0.671
   92SOL    HW2  290   1.619   1.364   0.688
   93SOL     OW  291   1.390   0.575   0.078
   93SOL    HW1  292   1.336   0.554   0.159
   93SOL    HW2  293   1.481   0.534   0.087
   94SOL     OW  294   0.527   0.256   0.328
   94SOL    HW1  295   0.554   0.197   0.253
   94SOL    HW2  296   0.527   0.351   0.297
   95SOL     OW  297   1.754   1.223   1.588
   95SOL    HW1  298   1.845   1.184   1.575
   95SOL    HW2  299   1.762   1.319   1.612
   96SOL     OW  300   1.064   1.347   1.340
   96SOL    HW1  301   0.984   1.324   1.395
   96SOL    HW2  302   1.147   1.321   1.389
   97SOL     OW  303   1.592   1.629   1.625
   97SOL    HW1  304   1.619   1.663   1.535
   97SOL    HW2  305   1.671   1.591   1.671
   98SOL     OW  306   1.111   1.195   1.100
   98SOL    HW1  307   1.071   1.239   1.181
   98SOL    HW2  308   1.070   1.232   1.017
   99SOL     OW  309   1.638   1.099   1.079
   99SOL    HW1  310   1.643   1.180   1.138
   99SOL    HW2  311   1.552   1.101   1.028
  100SOL     OW  312   0.915   0.089   1.402
  100SOL    HW1  313   0.940   0.069   1.307
  100SOL    HW2  314   0.987   0.145   1.444
  101SOL     OW  315   0.980   1.116   1.719
  101SOL    HW1  316   0.881   1.122   1.729
  101SOL    HW2  317   1.003   1.036   1.663
  102SOL     OW  318   0.705   1.050   0.368
  102SOL    HW1  319   0.691   1.057   0.467
  102SOL    HW2  320   0.789   0.999   0.350
  103SOL     OW  321   0.410   0.813   1.251
  103SOL    HW1  322   0.496   0.825   1.301
  103SOL    HW2  323   0.368   0.726   1.278
  104SOL     OW  324   1.274   0.386   1.262
  104SOL    HW1  325   1.295   0.460   1.326
  104SOL    HW2  326   1.185   0.403   1.219
  105SOL     OW  327   0.064   1.564   1.331
  105SOL    HW1  328   0.018   1.646   1.297
  105SOL    HW2  329   0.162   1.583   1.340
  106SOL     OW  330   0.367   1.100   0.501
  106SOL    HW1  331   0.360   1.183   0.445
  106SOL    HW2  332   0.371   1.020   0.441
  107SOL     OW  333   0.566   0.537   0.865
  107SOL    HW1  334   0.578   0.603   0.791
  107SOL    HW2  335   0.612   0.571   0.948
  108SOL     OW  336   1.252   1.348   0.388
  108SOL    HW1  337   1.302   1.425   0.428
  108SOL    HW2  338   1.157   1.350   0.420
  109SOL     OW  339   1.272   1.445   1.142
  109SOL    HW1  340   1.319   1.458   1.229
  109SOL    HW2  341   1.206   1.371   1.151
  110SOL     OW  342   1.582   0.639   0.472
  110SOL    HW1  343   1.551   0.700   0.545
  110SOL    HW2  344   1.632   0.691   0.403
  111SOL     OW  345   0.354   1.510   1.329
  111SOL    HW1  346   0.333   1.466   1.242
  111SOL    HW2  347   0.451   1.536   1.332
  112SOL     OW  348   0.402   0.751   1.598
  112SOL    HW1  349   0.470   0.806   1.551
  112SOL    HW2  350   0.442   0.663   1.625
  113SOL     OW  351   1.587   0.779   1.670
  113SOL    HW1  352   1.495   0.817   1.665
  113SOL    HW2  353   1.647   0.826   1.605
  114SOL     OW  354   1.013   0.105   1.770
  114SOL    HW1  355   1.019   0.190   1.718
  114SOL    HW2  356   1.045   0.029   1.713
  115SOL     OW  357   0.504   0.050   1.740
  115SOL    HW1  358   0.462  -0.007   1.670
  115SOL    HW2  359   0.438   0.119   1.772
  116SOL     OW  360   0.573   0.870   1.029
  116SOL    HW1  361   0.617   0.959   1.020
  116SOL    HW2  362   0.510   0.870   1.106
  117SOL     OW  363   1.360   0.862   1.045
  117SOL    HW1  364   1.285   0.862   0.979
  117SOL    HW2  365   1.397   0.770   1.054
  118SOL     OW  366   1.209   0.525   0.275
  118SOL    HW1  367   1.222   0.441   0.329
  118SOL    HW2  368   1.180   0.599   0.335
  119SOL     OW  369   0.307   0.213   1.231
  119SOL    HW1  370   0.284   0.250   1.321
  119SOL    HW2  371   0.277   0.118   1.225
  120SOL     OW  372   0.037   1.310   1.282
  120SOL    HW1  373   0.090   1.261   1.350
  120SOL    HW2  374   0.059   1.408   1.287
  121SOL     OW  375   0.732   0.634   1.064
  121SOL    HW1  376   0.791   0.608   0.988
  121SOL    HW2  377   0.704   0.730   1.053
  122SOL     OW  378   1.728   0.935   1.854
  122SOL    HW1  379   1.682   0.928   1.765
  122SOL    HW2  380   1.666   0.979   1.920
  123SOL     OW  381   0.307   0.063   0.618
  123SOL    HW1  382   0.296   0.157   0.651
  123SOL    HW2  383   0.302   0.000   0.695
  124SOL     OW  384   1.622   0.367   0.374
  124SOL    HW1  385   1.624   0.291   0.438
  124SOL    HW2  386   1.574   0.444   0.414
  125SOL     OW  387   1.023   0.766   0.966
  125SOL    HW1  388   1.038   0.787   1.062
  125SOL    HW2  389   0.993   0.671   0.957
  126SOL     OW  390   0.980   1.573   1.700
  126SOL    HW1  391   0.960   1.617   1.612
  126SOL    HW2  392   1.019   1.482   1.684
  127SOL     OW  393   1.859   1.518   1.605
  127SOL    HW1  394   1.873   1.545   1.510
  127SOL    HW2  395   1.942   1.540   1.658
  128SOL     OW  396   0.350   0.898   1.804
  128SOL    HW1  397   0.426   0.942   1.852
  128SOL    HW2  398   0.385   0.851   1.722
  129SOL     OW  399   1.540   0.274   0.125
  129SOL    HW1  400   1.479   0.199   0.148
  129SOL    HW2  401   1.562   0.326   0.208
  130SOL     OW  402   1.303   0.838   0.042
  130SOL    HW1  403   1.337   0.745   0.057
  130SOL    HW2  404   1.321   0.865  -0.053
  131SOL     OW  405   1.068   1.333   0.849
  131SOL    HW1  406   1.075   1.249   0.794
  131SOL    HW2  407   1.130   1.402   0.813
  132SOL     OW  408   0.319   0.810   0.949
  132SOL    HW1  409   0.412   0.846   0.954
  132SOL    HW2  410   0.313   0.725   1.001
  133SOL     OW  411   0.339   0.509   1.006
  133SOL    HW1  412   0.287   0.426   0.989
  133SOL    HW2  413   0.416   0.514   0.942
  134SOL     OW  414   1.138   0.380   1.678
  134SOL    HW1  415   1.093   0.443   1.742
  134SOL    HW2  416   1.231   0.411   1.661
  135SOL     OW  417   1.160   0.207   1.477
  135SOL    HW1  418   1.160   0.271   1.554
  135SOL    HW2  419   1.188   0.255   1.394
  136SOL     OW  420   0.008   1.326   0.200
  136SOL    HW1  421  -0.085   1.347   0.169
  136SOL    HW2  422   0.018   1.227   0.213
  137SOL     OW  423   0.088   1.801   0.927
  137SOL    HW1  424   0.046   1.715   0.900
  137SOL    HW2  425   0.182   1.804   0.893
  138SOL     OW  426   0.504   1.568   0.910
  138SOL    HW1  427   0.570   1.642   0.919
  138SOL    HW2  428   0.548   1.489   0.868
  139SOL     OW  429   1.002   0.796   1.238
  139SOL    HW1  430   1.043   0.764   1.324
  139SOL    HW2  431   0.906   0.769   1.235
  140SOL     OW  432   0.040   0.544   1.114
  140SOL    HW1  433   0.125   0.511   1.073
  140SOL    HW2  434   0.053   0.559   1.212
  141SOL     OW  435   0.189   0.520   1.722
  141SOL    HW1  436   0.248   0.480   1.652
  141SOL    HW2  437   0.131   0.591   1.681
  142SOL     OW  438   1.369   0.950   1.660
  142SOL    HW1  439   1.408   1.039   1.680
  142SOL    HW2  440   1.379   0.930   1.563
  143SOL     OW  441   0.815   0.572   0.325
  143SOL    HW1  442   0.822   0.483   0.279
  143SOL    HW2  443   0.721   0.606   0.317
  144SOL     OW  444   1.657   0.604   1.206
  144SOL    HW1  445   1.619   0.535   1.268
  144SOL    HW2  446   1.739   0.568   1.162
  145SOL     OW  447   0.252   1.564   1.744
  145SOL    HW1  448   0.222   1.621   1.820
  145SOL    HW2  449   0.245   1.467   1.770
  146SOL     OW  450   0.671   0.464   1.269
  146SOL    HW1  451   0.637   0.375   1.239
  146SOL    HW2  452   0.697   0.518   1.189
  147SOL     OW  453   0.930   1.678   1.465
  147SOL    HW1  454   0.906   1.660   1.370
  147SOL    HW2  455   0.960   1.772   1.475
  148SOL     OW  456   0.473   0.500   0.191
  148SOL    HW1  457   0.534   0.580   0.195
  148SOL    HW2  458   0.378   0.531   0.198
  149SOL     OW  459   0.159   1.137   1.466
  149SOL    HW1  460   0.181   1.076   1.542
  149SOL    HW2  461   0.169   1.088   1.380
  150SOL     OW  462   1.347   1.059   1.234
  150SOL    HW1  463   1.371   0.996   1.160
  150SOL    HW2  464   1.257   1.099   1.216
  151SOL     OW  465   1.302   0.855   0.309
  151SOL    HW1  466   1.216   0.824   0.351
  151SOL    HW2  467   1.298   0.841   0.210
  152SOL     OW  468   1.759   1.747   1.154
  152SOL    HW1  469   1.820   1.777   1.081
  152SOL    HW2  470   1.721   1.658   1.132
  153SOL     OW  471   1.252   1.731   1.128
  153SOL    HW1  472   1.336   1.736   1.074
  153SOL    HW2  473   1.229   1.635   1.146
  154SOL     OW  474   0.083   1.258   1.022
  154SOL    HW1  475   0.078   1.257   1.122
  154SOL    HW2  476   0.000   1.217   0.984
  155SOL     OW  477   0.688   1.662   1.716
  155SOL    HW1  478   0.632   1.743   1.725
  155SOL    HW2  479   0.740   1.666   1.630
  156SOL     OW  480   0.903   0.086   0.133
  156SOL    HW1  481   0.954   0.087   0.047
  156SOL    HW2  482   0.959   0.044   0.204
  157SOL     OW  483   1.726   0.135   0.523
  157SOL    HW1  484   1.799   0.118   0.456
  157SOL    HW2  485   1.695   0.048   0.561
  158SOL     OW  486   1.388   1.573   0.477
  158SOL    HW1  487   1.455   1.585   0.403
  158SOL    HW2  488   1.348   1.662   0.500
  159SOL     OW  489   0.130   1.794   1.851
  159SOL    HW1  490   0.089   1.720   1.904
  159SOL    HW2  491   0.194   1.845   1.909
  160SOL     OW  492   1.280   0.927   0.672
  160SOL    HW1  493   1.340   0.846   0.674
  160SOL    HW2  494   1.320   0.996   0.612
  161SOL     OW  495   0.830   1.273   1.422
  161SOL    HW1  496   0.825   1.306   1.517
  161SOL    HW2  497   0.744   1.292   1.376
  162SOL     OW  498   0.672   1.616   0.154
  162SOL    HW1  499   0.681   1.626   0.055
  162SOL    HW2  500   0.632   1.527   0.175
  163SOL     OW  501   1.650   1.720   1.394
  163SOL    HW1  502   1.703   1.730   1.310
  163SOL    HW2  503   1.623   1.810   1.428
  164SOL     OW  504   1.841   0.175   0.963
  164SOL    HW1  505   1.880   0.090   0.927
  164SOL    HW2  506   1.743   0.177   0.944
  165SOL     OW  507   0.263   0.326   0.720
  165SOL    HW1  508   0.184   0.377   0.686
  165SOL    HW2  509   0.254   0.311   0.818
  166SOL     OW  510   1.194   1.612   0.031
  166SOL    HW1  511   1.200   1.519   0.068
  166SOL    HW2  512   1.135   1.612  -0.049
  167SOL     OW  513   0.822   1.002   1.372
  167SOL    HW1  514   0.862   1.001   1.280
  167SOL    HW2  515   0.832   1.094   1.412
  168SOL     OW  516   0.916   0.910   0.291
  168SOL    HW1  517   0.979   0.948   0.223
  168SOL    HW2  518   0.956   0.827   0.330
  169SOL     OW  519   1.504   1.607   0.044
  169SOL    HW1  520   1.412   1.644   0.051
  169SOL    HW2  521   1.542   1.627  -0.046
  170SOL     OW  522   0.372   1.288   1.490
  170SOL    HW1  523   0.359   1.381   1.456
  170SOL    HW2  524   0.288   1.236   1.477
  171SOL     OW  525   1.614   1.292   1.289
  171SOL    HW1  526   1.674   1.295   1.369
  171SOL    HW2  527   1.539   1.356   1.302
  172SOL     OW  528   1.039   1.098   0.696
  172SOL    HW1  529   0.969   1.051   0.750
  172SOL    HW2  530   1.098   1.030   0.653
  173SOL     OW  531   1.014   0.236   0.971
  173SOL    HW1  532   1.006   0.200   0.878
  173SOL    HW2  533   1.012   0.160   1.036
  174SOL     OW  534   0.590   1.487   0.491
  174SOL    HW1  535   0.632   1.429   0.421
  174SOL    HW2  536   0.546   1.566   0.447
  175SOL     OW  537   1.709   0.385   1.381
  175SOL    HW1  538   1.782   0.454   1.385
  175SOL    HW2  539   1.737   0.310   1.322
  176SOL     OW  540   0.255   1.348   0.290
  176SOL    HW1  541   0.159   1.349   0.263
  176SOL    HW2  542   0.267   1.401   0.374
  177SOL     OW  543   0.105   1.013   1.726
  177SOL    HW1  544   0.028   0.980   1.780
  177SOL    HW2  545   0.190   0.983   1.768
  178SOL     OW  546   0.672   0.203   1.489
  178SOL    HW1  547   0.762   0.187   1.449
  178SOL    HW2  548   0.680   0.208   1.588
  179SOL     OW  549   0.075   0.345   0.033
  179SOL    HW1  550  -0.017   0.317   0.004
  179SOL    HW2  551   0.106   0.422  -0.023
  180SOL     OW  552   1.440   0.856   1.398
  180SOL    HW1  553   1.383   0.908   1.335
  180SOL    HW2  554   1.536   0.868   1.374
  181SOL     OW  555   0.072   0.166   0.318
  181SOL    HW1  556   0.055   0.249   0.264
  181SOL    HW2  557   0.162   0.129   0.296
  182SOL     OW  558   1.183   1.335   0.119
  182SOL    HW1  559   1.084   1.324   0.121
  182SOL    HW2  560   1.217   1.350   0.212
  183SOL     OW  561   0.613   0.842   1.431
  183SOL    HW1  562   0.669   0.923   1.414
  183SOL    HW2  563   0.672   0.762   1.434
  184SOL     OW  564   1.493   1.767   0.959
  184SOL    HW1  565   1.526   1.831   0.890
  184SOL    HW2  566   1.559   1.761   1.034
  185SOL     OW  567   0.716   0.565   1.708
  185SOL    HW1  568   0.735   0.630   1.782
  185SOL    HW2  569   0.776   0.485   1.717
  186SOL     OW  570   1.450   1.220   1.633
  186SOL    HW1  571   1.441   1.210   1.732
  186SOL    HW2  572   1.546   1.213   1.607
  187SOL     OW  573   0.390   1.741   1.560
  187SOL    HW1  574   0.299   1.782   1.558
  187SOL    HW2  575   0.383   1.647   1.592
  188SOL     OW  576   1.674   0.883   1.254
  188SOL    HW1  577   1.647   0.794   1.217
  188SOL    HW2  578   1.675   0.951   1.181
  189SOL     OW  579   1.225   0.325   0.449
  189SOL    HW1  580   1.290   0.251   0.438
  189SOL    HW2  581   1.245   0.375   0.533
  190SOL     OW  582   0.594   0.745   0.652
  190SOL    HW1  583   0.644   0.830   0.633
  190SOL    HW2  584   0.506   0.747   0.604
  191SOL     OW  585   1.777   0.342   1.642
  191SOL    HW1  586   1.760   0.373   1.548
  191SOL    HW2  587   1.693   0.305   1.680
  192SOL     OW  588   1.730   0.934   1.517
  192SOL    HW1  589   1.768   1.025   1.532
  192SOL    HW2  590   1.722   0.917   1.418
  193SOL     OW  591   0.859   1.374   0.016
  193SOL    HW1  592   0.813   1.389   0.104
  193SOL    HW2  593   0.903   1.459  -0.014
  194SOL     OW  594   0.661   1.790   0.953
  194SOL    HW1  595   0.615   1.878   0.940
  194SOL    HW2  596   0.760   1.802   0.946
  195SOL     OW  597   0.859   0.956   0.861
  195SOL    HW1  598   0.913   0.887   0.909
  195SOL    HW2  599   0.827   1.025   0.927
  196SOL     OW  600   1.083   0.984   0.087
  196SOL    HW1  601   1.060   1.037   0.005
  196SOL    HW2  602   1.164   0.928   0.068
  197SOL     OW  603   1.861   1.569   0.851
  197SOL    HW1  604   1.790   1.557   0.781
  197SOL    HW2  605   1.862   1.490   0.911
  198SOL     OW  606   0.221   1.314   1.844
  198SOL    HW1  607   0.156   1.241   1.823
  198SOL    HW2  608   0.225   1.328   1.942
  199SOL     OW  609   0.079   1.240   0.653
  199SOL    HW1  610   0.078   1.193   0.741
  199SOL    HW2  611   0.161   1.212   0.602
  200SOL     OW  612   0.672   1.391   1.624
  200SOL    HW1  613   0.594   1.341   1.662
  200SOL    HW2  614   0.669   1.486   1.655
  201SOL     OW  615   1.824   0.192   1.227
  201SOL    HW1  616   1.820   0.102   1.271
  201SOL    HW2  617   1.827   0.181   1.128
  202SOL     OW  618   0.428   0.424   0.520
  202SOL    HW1  619   0.458   0.352   0.458
  202SOL    HW2  620   0.389   0.384   0.603
  203SOL     OW  621   1.705   1.487   1.104
  203SOL    HW1  622   1.612   1.462   1.077
  203SOL    HW2  623   1.731   1.437   1.186
  204SOL     OW  624   0.317   0.547   1.280
  204SOL    HW1  625   0.355   0.488   1.352
  204SOL    HW2  626   0.357   0.521   1.192
  205SOL     OW  627   0.812   1.586   0.687
  205SOL    HW1  628   0.844   1.596   0.593
  205SOL    HW2  629   0.733   1.524   0.689
  206SOL     OW  630   1.424   0.214   1.112
  206SOL    HW1  631   1.476   0.149   1.167
  206SOL    HW2  632   1.375   0.277   1.173
  207SOL     OW  633   1.001   0.034   1.154
  207SOL    HW1  634   0.938  -0.038   1.123
  207SOL    HW2  635   1.094  -0.002   1.154
  208SOL     OW  636   0.770   1.330   0.301
  208SOL    HW1  637   0.724   1.243   0.318
  208SOL    HW2  638   0.861   1.327   0.342
  209SOL     OW  639   0.618   1.567   1.284
  209SOL    HW1  640   0.613   1.649   1.341
  209SOL    HW2  641   0.707   1.564   1.239
  210SOL     OW  642   1.352   0.052   0.168
  210SOL    HW1  643   1.387   0.011   0.084
  210SOL    HW2  644   1.262   0.014   0.188
  211SOL     OW  645   1.300   0.453   0.691
  211SOL    HW1  646   1.241   0.533   0.695
  211SOL    HW2  647   1.315   0.418   0.784
  212SOL     OW  648   1.593   0.221   0.882
  212SOL    HW1  649   1.509   0.220   0.936
  212SOL    HW2  650   1.595   0.304   0.826
  213SOL     OW  651   0.039   1.077   0.300
  213SOL    HW1  652   0.138   1.066   0.291
  213SOL    HW2  653  -0.001   0.991   0.332
  214SOL     OW  654   0.875   1.646   0.337
  214SOL    HW1  655   0.798   1.611   0.283
  214SOL    HW2  656   0.843   1.717   0.399
  215SOL     OW  657   0.230   0.628   1.975
  215SOL    HW1  658   0.137   0.626   2.012
  215SOL    HW2  659   0.231   0.589   1.883
  216SOL     OW  660   0.225   0.275   2.858
  216SOL    HW1  661   0.260   0.258   2.950
  216SOL    HW2  662   0.137   0.230   2.846
  217SOL     OW  663   0.019   0.368   2.509
  217SOL    HW1  664  -0.063   0.411   2.548
  217SOL    HW2  665  -0.009   0.295   2.446
  218SOL     OW  666   0.569   1.275   3.027
  218SOL    HW1  667   0.476   1.268   2.990
  218SOL    HW2  668   0.580   1.364   3.071
  219SOL     OW  669   1.555   1.511   2.565
  219SOL    HW1  670   1.498   1.495   2.646
  219SOL    HW2  671   1.496   1.521   2.485
  220SOL     OW  672   1.135   0.703   2.579
  220SOL    HW1  673   1.192   0.781   2.554
  220SOL    HW2  674   1.075   0.729   2.655
  221SOL     OW  675   1.755   0.607   2.093
  221SOL    HW1  676   1.743   0.594   1.994
  221SOL    HW2  677   1.725   0.526   2.142
  222SOL     OW  678   0.768   1.144   2.885
  222SOL    HW1  679   0.690   1.161   2.945
  222SOL    HW2  680   0.802   1.231   2.849
  223SOL     OW  681   0.850   0.798   3.685
  223SOL    HW1  682   0.846   0.874   3.750
  223SOL    HW2  683   0.872   0.834   3.594
  224SOL     OW  684   0.685   1.012   2.527
  224SOL    HW1  685   0.754   0.996   2.597
  224SOL    HW2  686   0.612   1.069   2.565
  225SOL     OW  687   0.686   1.161   3.665
  225SOL    HW1  688   0.746   1.240   3.679
  225SOL    HW2  689   0.600   1.192   3.624
  226SOL     OW  690   0.335   1.435   2.923
  226SOL    HW1  691   0.257   1.404   2.870
  226SOL    HW2  692   0.393   1.493   2.866
  227SOL     OW  693   1.460   1.505   3.201
  227SOL    HW1  694   1.484   1.599   3.227
  227SOL    HW2  695   1.444   1.451   3.283
  228SOL     OW  696   0.438   0.392   3.361
  228SOL    HW1  697   0.520   0.336   3.370
  228SOL    HW2  698   0.357   0.334   3.365
  229SOL     OW  699   1.603   0.447   2.599
  229SOL    HW1  700   1.529   0.493   2.549
  229SOL    HW2  701   1.654   0.515   2.652
  230SOL     OW  702   0.231   1.713   2.345
  230SOL    HW1  703   0.265   1.790   2.399
  230SOL    HW2  704   0.275   1.713   2.255
  231SOL     OW  705   1.127   1.341   3.552
  231SOL    HW1  706   1.174   1.341   3.640
  231SOL    HW2  707   1.079   1.254   3.541
  232SOL     OW  708   0.230   1.434   2.400
  232SOL    HW1  709   0.204   1.530   2.400
  232SOL    HW2  710   0.159   1.380   2.445
  233SOL     OW  711   0.240   1.091   2.748
  233SOL    HW1  712   0.254   1.007   2.800
  233SOL    HW2  713   0.185   1.155   2.803
  234SOL     OW  714   0.620   1.786   3.301
  234SOL    HW1  715   0.528   1.769   3.336
  234SOL    HW2  716   0.648   1.878   3.327
  235SOL     OW  717   0.606   0.964   1.985
  235SOL    HW1  718   0.613   1.048   1.931
  235SOL    HW2  719   0.652   0.977   2.073
  236SOL     OW  720   1.594   0.114   3.342
  236SOL    HW1  721   1.576   0.181   3.270
  236SOL    HW2  722   1.591   0.160   3.431
  237SOL     OW  723   0.122   0.643   2.425
  237SOL    HW1  724   0.077   0.555   2.442
  237SOL    HW2  725   0.121   0.697   2.509
  238SOL     OW  726   1.842   1.767   2.221
  238SOL    HW1  727   1.896   1.738   2.301
  238SOL    HW2  728   1.872   1.857   2.192
  239SOL     OW  729   0.027   1.596   1.979
  239SOL    HW1  730   0.008   1.500   2.000
  239SOL    HW2  731  -0.006   1.654   2.054
  240SOL     OW  732   1.689   0.922   2.474
  240SOL    HW1  733   1.784   0.893   2.482
  240SOL    HW2  734   1.681   0.987   2.399
  241SOL     OW  735   1.641   1.108   2.294
  241SOL    HW1  736   1.727   1.110   2.242
  241SOL    HW2  737   1.655   1.155   2.382
  242SOL     OW  738   0.113   0.737   3.459
  242SOL    HW1  739   0.201   0.724   3.504
  242SOL    HW2  740   0.100   0.834   3.437
  243SOL     OW  741   0.613   1.365   2.588
  243SOL    HW1  742   0.564   1.278   2.597
  243SOL    HW2  743   0.590   1.408   2.501
  244SOL     OW  744   1.293   1.228   3.285
  244SOL    HW1  745   1.330   1.155   3.227
  244SOL    HW2  746   1.345   1.233   3.370
  245SOL     OW  747   0.809   0.004   2.364
  245SOL    HW1  748   0.849   0.095   2.355
  245SOL    HW2  749   0.709   0.012   2.370
  246SOL     OW  750   0.197   0.976   3.126
  246SOL    HW1  751   0.286   0.931   3.112
  246SOL    HW2  752   0.124   0.911   3.107
  247SOL     OW  753   1.525   0.999   2.052
  247SOL    HW1  754   1.462   0.923   2.065
  247SOL    HW2  755   1.573   1.017   2.138
  248SOL     OW  756   1.187   1.792   3.478
  248SOL    HW1  757   1.211   1.852   3.402
  248SOL    HW2  758   1.194   1.697   3.448
  249SOL     OW  759   0.317   0.251   3.663
  249SOL    HW1  760   0.388   0.322   3.669
  249SOL    HW2  761   0.229   0.290   3.691
  250SOL     OW  762   1.466   1.417   2.815
  250SOL    HW1  763   1.407   1.423   2.895
  250SOL    HW2  764   1.451   1.329   2.769
  251SOL     OW  765   1.667   1.714   2.434
  251SOL    HW1  766   1.626   1.691   2.346
  251SOL    HW2  767   1.649   1.640   2.499
  252SOL     OW  768   0.598   0.729   2.132
  252SOL    HW1  769   0.622   0.798   2.064
  252SOL    HW2  770   0.520   0.762   2.186
  253SOL     OW  771   1.281   0.345   2.806
  253SOL    HW1  772   1.195   0.295   2.793
  253SOL    HW2  773   1.343   0.291   2.862
  254SOL     OW  774   1.576   1.662   2.169
  254SOL    HW1  775   1.665   1.708   2.172
  254SOL    HW2  776   1.555   1.638   2.074
  255SOL     OW  777   0.807   0.605   3.327
  255SOL    HW1  778   0.760   0.602   3.416
  255SOL    HW2  779   0.756   0.550   3.261
  256SOL     OW  780   1.394   0.469   3.536
  256SOL    HW1  781   1.374   0.512   3.624
  256SOL    HW2  782   1.472   0.407   3.545
  257SOL     OW  783   0.973   0.890   3.434
  257SOL    HW1  784   1.019   0.806   3.405
  257SOL    HW2  785   0.917   0.924   3.359
  258SOL     OW  786   0.991   0.410   3.104
  258SOL    HW1  787   0.914   0.444   3.158
  258SOL    HW2  788   0.957   0.359   3.025
  259SOL     OW  789   1.041   0.701   2.291
  259SOL    HW1  790   1.067   0.697   2.387
  259SOL    HW2  791   0.956   0.650   2.277
  260SOL     OW  792   0.076   0.811   2.651
  260SOL    HW1  793   0.175   0.799   2.660
  260SOL    HW2  794   0.052   0.906   2.672
  261SOL     OW  795   0.130   1.821   3.433
  261SOL    HW1  796   0.120   1.806   3.532
  261SOL    HW2  797   0.044   1.857   3.397
  262SOL     OW  798   0.865   0.348   2.057
  262SOL    HW1  799   0.924   0.411   2.008
  262SOL    HW2  800   0.884   0.254   2.028
  263SOL     OW  801   1.719   0.585   3.693
  263SOL    HW1  802   1.693   0.674   3.657
  263SOL    HW2  803   1.717   0.517   3.620
  264SOL     OW  804   1.362   1.144   2.407
  264SOL    HW1  805   1.445   1.115   2.359
  264SOL    HW2  806   1.313   1.211   2.351
  265SOL     OW  807   0.550   0.196   2.747
  265SOL    HW1  808   0.545   0.191   2.847
  265SOL    HW2  809   0.552   0.292   2.718
  266SOL     OW  810   1.008   1.456   2.339
  266SOL    HW1  811   0.962   1.528   2.287
  266SOL    HW2  812   1.004   1.476   2.437
  267SOL     OW  813   0.351   1.801   2.715
  267SOL    HW1  814   0.401   1.715   2.721
  267SOL    HW2  815   0.416   1.878   2.712
  268SOL     OW  816   1.795   1.066   2.735
  268SOL    HW1  817   1.733   1.051   2.659
  268SOL    HW2  818   1.743   1.077   2.820
  269SOL     OW  819   1.227   1.550   3.368
  269SOL    HW1  820   1.233   1.473   3.432
  269SOL    HW2  821   1.175   1.524   3.288
  270SOL     OW  822   0.321   0.943   2.104
  270SOL    HW1  823   0.403   0.982   2.062
  270SOL    HW2  824   0.294   0.861   2.055
  271SOL     OW  825   1.458   0.735   2.590
  271SOL    HW1  826   1.453   0.670   2.665
  271SOL    HW2  827   1.538   0.794   2.603
  272SOL     OW  828   0.461   1.266   3.589
  272SOL    HW1  829   0.411   1.267   3.503
  272SOL    HW2  830   0.398   1.248   3.665
  273SOL     OW  831   1.111   1.776   2.099
  273SOL    HW1  832   1.051   1.714   2.149
  273SOL    HW2  833   1.142   1.732   2.014
  274SOL     OW  834   0.202   0.285   3.360
  274SOL    HW1  835   0.122   0.345   3.347
  274SOL    HW2  836   0.192   0.236   3.446
  275SOL     OW  837   1.632   1.377   1.943
  275SOL    HW1  838   1.600   1.471   1.933
  275SOL    HW2  839   1.556   1.314   1.931
  276SOL     OW  840   0.464   1.743   2.185
  276SOL    HW1  841   0.497   1.782   2.271
  276SOL    HW2  842   0.540   1.736   2.120
  277SOL     OW  843   1.400   0.107   2.288
  277SOL    HW1  844   1.376   0.070   2.198
  277SOL    HW2  845   1.499   0.123   2.292
  278SOL     OW  846   0.249   1.785   3.103
  278SOL    HW1  847   0.306   1.720   3.153
  278SOL    HW2  848   0.233   1.752   3.010
  279SOL     OW  849   0.940   1.698   2.766
  279SOL    HW1  850   1.020   1.641   2.787
  279SOL    HW2  851   0.891   1.658   2.689
  280SOL     OW  852   0.382   0.700   2.342
  280SOL    HW1  853   0.427   0.610   2.339
  280SOL    HW2  854   0.288   0.689   2.375
  281SOL     OW  855   1.547   0.222   3.591
  281SOL    HW1  856   1.542   0.259   3.683
  281SOL    HW2  857   1.475   0.153   3.579
  282SOL     OW  858   0.614   0.122   1.979
  282SOL    HW1  859   0.712   0.100   1.986
  282SOL    HW2  860   0.583   0.105   1.886
  283SOL     OW  861   0.781   0.264   3.611
  283SOL    HW1  862   0.848   0.203   3.654
  283SOL    HW2  863   0.708   0.283   3.676
  284SOL     OW  864   0.888   1.514   3.057
  284SOL    HW1  865   0.865   1.489   2.963
  284SOL    HW2  866   0.949   1.445   3.096
  285SOL     OW  867   1.351   0.590   3.295
  285SOL    HW1  868   1.379   0.547   3.380
  285SOL    HW2  869   1.376   0.686   3.296
  286SOL     OW  870   0.803   1.402   2.786
  286SOL    HW1  871   0.893   1.416   2.744
  286SOL    HW2  872   0.732   1.404   2.715
  287SOL     OW  873   0.922   0.503   2.761
  287SOL    HW1  874   0.897   0.494   2.665
  287SOL    HW2  875   0.970   0.421   2.792
  288SOL     OW  876   0.539   0.064   2.374
  288SOL    HW1  877   0.458   0.065   2.432
  288SOL    HW2  878   0.542   0.147   2.319
  289SOL     OW  879   1.434   1.188   1.903
  289SOL    HW1  880   1.466   1.112   1.960
  289SOL    HW2  881   1.342   1.215   1.933
  290SOL     OW  882   0.297   0.035   2.033
  290SOL    HW1  883   0.346   0.119   2.012
  290SOL    HW2  884   0.359  -0.030   2.078
  291SOL     OW  885   0.935   0.236   2.342
  291SOL    HW1  886   0.887   0.277   2.264
  291SOL    HW2  887   1.034   0.234   2.323
  292SOL     OW  888   1.076   0.683   3.326
  292SOL    HW1  889   0.996   0.622   3.329
  292SOL    HW2  890   1.157   0.630   3.302
  293SOL     OW  891   1.227   1.570   2.655
  293SOL    HW1  892   1.248   1.644   2.590
  293SOL    HW2  893   1.295   1.570   2.728
  294SOL     OW  894   0.459   1.152   2.603
  294SOL    HW1  895   0.388   1.125   2.668
  294SOL    HW2  896   0.433   1.124   2.510
  295SOL     OW  897   1.271   1.797   2.453
  295SOL    HW1  898   1.315   1.861   2.389
  295SOL    HW2  899   1.221   1.849   2.523
  296SOL     OW  900   1.032   0.549   1.878
  296SOL    HW1  901   0.991   0.631   1.839
  296SOL    HW2  902   1.096   0.575   1.951
  297SOL     OW  903   0.078   0.556   3.248
  297SOL    HW1  904   0.170   0.555   3.207
  297SOL    HW2  905   0.072   0.630   3.315
  298SOL     OW  906   0.561   0.222   3.009
  298SOL    HW1  907   0.599   0.138   3.046
  298SOL    HW2  908   0.473   0.241   3.053
  299SOL     OW  909   0.866   0.454   2.504
  299SOL    HW1  910   0.834   0.526   2.442
  299SOL    HW2  911   0.890   0.373   2.451
  300SOL     OW  912   1.017   0.039   2.615
  300SOL    HW1  913   0.945   0.044   2.546
  300SOL    HW2  914   0.993  -0.030   2.684
  301SOL     OW  915   1.429   1.173   2.729
  301SOL    HW1  916   1.374   1.089   2.722
  301SOL    HW2  917   1.455   1.202   2.637
  302SOL     OW  918   1.466   0.590   2.854
  302SOL    HW1  919   1.436   0.495   2.861
  302SOL    HW2  920   1.539   0.606   2.920
  303SOL     OW  921   1.857   0.833   2.239
  303SOL    HW1  922   1.899   0.769   2.303
  303SOL    HW2  923   1.819   0.782   2.161
  304SOL     OW  924   0.488   1.385   2.036
  304SOL    HW1  925   0.401   1.370   2.083
  304SOL    HW2  926   0.471   1.411   1.941
  305SOL     OW  927   1.664   1.280   2.519
  305SOL    HW1  928   1.763   1.288   2.533
  305SOL    HW2  929   1.619   1.364   2.550
  306SOL     OW  930   1.390   0.575   1.940
  306SOL    HW1  931   1.336   0.554   2.021
  306SOL    HW2  932   1.481   0.534   1.949
  307SOL     OW  933   0.527   0.256   2.190
  307SOL    HW1  934   0.554   0.197   2.115
  307SOL    HW2  935   0.527   0.351   2.159
  308SOL     OW  936   1.754   1.223   3.450
  308SOL    HW1  937   1.845   1.184   3.437
  308SOL    HW2  938   1.762   1.319   3.474
  309SOL     OW  939   1.064   1.347   3.202
  309SOL    HW1  940   0.984   1.324   3.257
  309SOL    HW2  941   1.147   1.321   3.251
  310SOL     OW  942   1.592   1.629   3.487
  310SOL    HW1  943   1.619   1.663   3.397
  310SOL    HW2  944   1.671   1.591   3.533
  311SOL     OW  945   1.111   1.195   2.962
  311SOL    HW1  946   1.071   1.239   3.043
  311SOL    HW2  947   1.070   1.232   2.879
  312SOL     OW  948   1.638   1.099   2.941
  312SOL    HW1  949   1.643   1.180   3.000
  312SOL    HW2  950   1.552   1.101   2.890
  313SOL     OW  951   0.915   0.089   3.264
  313SOL    HW1  952   0.940   0.069   3.169
  313SOL    HW2  953   0.987   0.145   3.306
  314SOL     OW  954   0.980   1.116   3.581
  314SOL    HW1  955   0.881   1.122   3.591
  314SOL    HW2  956   1.003   1.036   3.525
  315SOL     OW  957   0.705   1.050   2.230
  315SOL    HW1  958   0.691   1.057   2.329
  315SOL    HW2  959   0.789   0.999   2.212
  316SOL     OW  960   0.410   0.813   3.113
  316SOL    HW1  961   0.496   0.825   3.163
  316SOL    HW2  962   0.368   0.726   3.140
  317SOL     OW  963   1.274   0.386   3.124
  317SOL    HW1  964   1.295   0.460   3.188
  317SOL    HW2  965   1.185   0.403   3.081
  318SOL     OW  966   0.064   1.564   3.193
  318SOL    HW1  967   0.018   1.646   3.159
  318SOL    HW2  968   0.162   1.583   3.202
  319SOL     OW  969   0.367   1.100   2.363
  319SOL    HW1  970   0.360   1.183   2.307
  319SOL    HW2  971   0.371   1.020   2.303
  320SOL     OW  972   0.566   0.537   2.727
  320SOL    HW1  973   0.578   0.603   2.653
  320SOL    HW2  974   0.612   0.571   2.810
  321SOL     OW  975   1.252   1.348   2.250
  321SOL    HW1  976   1.302   1.425   2.290
  321SOL    HW2  977   1.157   1.350   2.282
  322SOL     OW  978   1.272   1.445   3.004
  322SOL    HW1  979   1.319   1.458   3.091
  322SOL    HW2  980   1.206   1.371   3.013
  323SOL     OW  981   1.582   0.639   2.334
  323SOL    HW1  982   1.551   0.700   2.407
  323SOL    HW2  983   1.632   0.691   2.265
  324SOL     OW  984   0.354   1.510   3.191
  324SOL    HW1  985   0.333   1.466   3.104
  324SOL    HW2  986   0.451   1.536   3.194
  325SOL     OW  987   0.402   0.751   3.460
  325SOL    HW1  988   0.470   0.806   3.413
  325SOL    HW2  989   0.442   0.663   3.487
  326SOL     OW  990   1.587   0.779   3.532
  326SOL    HW1  991   1.495   0.817   3.527
  326SOL    HW2  992   1.647   0.826   3.467
  327SOL     OW  993   1.013   0.105   3.632
  327SOL    HW1  994   1.019   0.190   3.580
  327SOL    HW2  995   1.045   0.029   3.575
  328SOL     OW  996   0.504   0.050   3.602
  328SOL    HW1  997   0.462  -0.007   3.532
  328SOL    HW2  998   0.438   0.119   3.634
  329SOL     OW  999   0.573   0.870   2.891
  329SOL    HW1 1000   0.617   0.959   2.882
  329SOL    HW2 1001   0.510   0.870   2.968
  330SOL     OW 1002   1.360   0.862   2.907
  330SOL    HW1 1003   1.285   0.862   2.841
  330SOL    HW2 1004   1.397   0.770   2.916
  331SOL     OW 1005   1.209   0.525   2.137
  331SOL    HW1 1006   1.222   0.441   2.191
  331SOL    HW2 1007   1.180   0.599   2.197
  332SOL     OW 1008   0.307   0.213   3.093
  332SOL    HW1 1009   0.284   0.250   3.183
  332SOL    HW2 1010   0.277   0.118   3.087
  333SOL     OW 1011   0.037   1.310   3.144
  333SOL    HW1 1012   0.090   1.261   3.212
  333SOL    HW2 1013   0.059   1.408   3.149
  334SOL     OW 1014   0.732   0.634   2.926
  334SOL    HW1 1015   0.791   0.608   2.850
  334SOL    HW2 1016   0.704   0.730   2.915
  335SOL     OW 1017   1.728   0.935   3.716
  335SOL    HW1 1018   1.682   0.928   3.627
  335SOL    HW2 1019   1.666   0.979   3.782
  336SOL     OW 1020   0.307   0.063   2.480
  336SOL    HW1 1021   0.296   0.157   2.513
  336SOL    HW2 1022   0.302   0.000   2.557
  337SOL     OW 1023   1.622   0.367   2.236
  337SOL    HW1 1024   1.624   0.291   2.300
  337SOL    HW2 1025   1.574   0.444   2.276
  338SOL     OW 1026   1.023   0.766   2.828
  338SOL    HW1 1027   1.038   0.787   2.924
  338SOL    HW2 1028   0.993   0.671   2.819
  339SOL     OW 1029   0.980   1.573   3.562
  339SOL    HW1 1030   0.960   1.617   3.474
  339SOL    HW2 1031   1.019   1.482   3.546
  340SOL     OW 1032   1.859   1.518   3.467
  340SOL    HW1 1033   1.873   1.545   3.372
  340SOL    HW2 1034   1.942   1.540   3.520
  341SOL     OW 1035   0.350   0.898   3.666
  341SOL    HW1 1036   0.426   0.942   3.714
  341SOL    HW2 1037   0.385   0.851   3.584
  342SOL     OW 1038   1.540   0.274   1.987
  342SOL    HW1 1039   1.479   0.199   2.010
  342SOL    HW2 1040   1.562   0.326   2.070
  343SOL     OW 1041   1.303   0.838   1.904
  343SOL    HW1 1042   1.337   0.745   1.919
  343SOL    HW2 1043   1.321   0.865   1.809
  344SOL     OW 1044   1.068   1.333   2.711
  344SOL    HW1 1045   1.075   1.249   2.656
  344SOL    HW2 1046   1.130   1.402   2.675
  345SOL     OW 1047   0.319   0.810   2.811
  345SOL    HW1 1048   0.412   0.846   2.816
  345SOL    HW2 1049   0.313   0.725   2.863
  346SOL     OW 1050   0.339   0.509   2.868
  346SOL    HW1 1051   0.287   0.426   2.851
  346SOL    HW2 1052   0.416   0.514   2.804
  347SOL     OW 1053   1.138   0.380   3.540
  347SOL    HW1 1054   1.093   0.443   3.604
  347SOL    HW2 1055   1.231   0.411   3.523
  348SOL     OW 1056   1.160   0.207   3.339
  348SOL    HW1 1057   1.160   0.271   3.416
  348SOL    HW2 1058   1.188   0.255   3.256
  349SOL     OW 1059   0.008   1.326   2.062
  349SOL    HW1 1060  -0.085   1.347   2.031
  349SOL    HW2 1061   0.018   1.227   2.075
  350SOL     OW 1062   0.088   1.801   2.789
  350SOL    HW1 1063   0.046   1.715   2.762
  350SOL    HW2 1064   0.182   1.804   2.755
  351SOL     OW 1065   0.504   1.568   2.772
  351SOL    HW1 1066   0.570   1.642   2.781
  351SOL    HW2 1067   0.548   1.489   2.730
  352SOL     OW 1068   1.002   0.796   3.100
  352SOL    HW1 1069   1.043   0.764   3.186
  352SOL    HW2 1070   0.906   0.769   3.097
  353SOL     OW 1071   0.040   0.544   2.976
  353SOL    HW1 1072   0.125   0.511   2.935
  353SOL    HW2 1073   0.053   0.559   3.074
  354SOL     OW 1074   0.189   0.520   3.584
  354SOL    HW1 1075   0.248   0.480   3.514
  354SOL    HW2 1076   0.131   0.591   3.543
  355SOL     OW 1077   1.369   0.950   3.522
  355SOL    HW1 1078   1.408   1.039   3.542
  355SOL    HW2 1079   1.379   0.930   3.425
  356SOL     OW 1080   0.815   0.572   2.187
  356SOL    HW1 1081   0.822   0.483   2.141
  356SOL    HW2 1082   0.721   0.606   2.179
  357SOL     OW 1083   1.657   0.604   3.068
  357SOL    HW1 1084   1.619   0.535   3.130
  357SOL    HW2 1085   1.739   0.568   3.024
  358SOL     OW 1086   0.252   1.564   3.606
  358SOL    HW1 1087   0.222   1.621   3.682
  358SOL    HW2 1088   0.245   1.467   3.632
  359SOL     OW 1089   0.671   0.464   3.131
  359SOL    HW1 1090   0.637   0.375   3.101
  359SOL    HW2 1091   0.697   0.518   3.051
  360SOL     OW 1092   0.930   1.678   3.327
  360SOL    HW1 1093   0.906   1.660   3.232
  360SOL    HW2 1094   0.960   1.772   3.337
  361SOL     OW 1095   0.473   0.500   2.053
  361SOL    HW1 1096   0.534   0.580   2.057
  361SOL    HW2 1097   0.378   0.531   2.060
  362SOL     OW 1098   0.159   1.137   3.328
  362SOL    HW1 1099   0.181   1.076   3.404
  362SOL    HW2 1100   0.169   1.088   3.242
  363SOL     OW 1101   1.347   1.059   3.096
  363SOL    HW1 1102   1.371   0.996   3.022
  363SOL    HW2 1103   1.257   1.099   3.078
  364SOL     OW 1104   1.302   0.855   2.171
  364SOL    HW1 1105   1.216   0.824   2.213
  364SOL    HW2 1106   1.298   0.841   2.072
  365SOL     OW 1107   1.759   1.747   3.016
  365SOL    HW1 1108   1.820   1.777   2.943
  365SOL    HW2 1109   1.721   1.658   2.994
  366SOL     OW 1110   1.252   1.731   2.990
  366SOL    HW1 1111   1.336   1.736   2.936
  366SOL    HW2 1112   1.229   1.635   3.008
  367SOL     OW 1113   0.083   1.258   2.884
  367SOL    HW1 1114   0.078   1.257   2.984
  367SOL    HW2 1115   0.000   1.217   2.846
  368SOL     OW 1116   0.688   1.662   3.578
  368SOL    HW1 1117   0.632   1.743   3.587
  368SOL    HW2 1118   0.740   1.666   3.492
  369SOL     OW 1119   1.726   0.135   2.385
  369SOL    HW1 1120   1.799   0.118   2.318
  369SOL    HW2 1121   1.695   0.048   2.423
  370SOL     OW 1122   1.388   1.573   2.339
  370SOL    HW1 1123   1.455   1.585   2.265
  370SOL    HW2 1124   1.348   1.662   2.362
  371SOL     OW 1125   0.130   1.794   3.713
  371SOL    HW1 1126   0.089   1.720   3.766
  371SOL    HW2 1127   0.194   1.845   3.771
  372SOL     OW 1128   1.280   0.927   2.534
  372SOL    HW1 1129   1.340   0.846   2.536
  372SOL    HW2 1130   1.320   0.996   2.474
  373SOL     OW 1131   0.830   1.273   3.284
  373SOL    HW1 1132   0.825   1.306   3.379
  373SOL    HW2 1133   0.744   1.292   3.238
  374SOL     OW 1134   0.672   1.616   2.016
  374SOL    HW1 1135   0.681   1.626   1.917
  374SOL    HW2 1136   0.632   1.527   2.037
  375SOL     OW 1137   1.650   1.720   3.256
  375SOL    HW1 1138   1.703   1.730   3.172
  375SOL    HW2 1139   1.623   1.810   3.290
  376SOL     OW 1140   1.841   0.175   2.825
  376SOL    HW1 1141   1.880   0.090   2.789
  376SOL    HW2 1142   1.743   0.177   2.806
  377SOL     OW 1143   0.263   0.326   2.582
  377SOL    HW1 1144   0.184   0.377   2.548
  377SOL    HW2 1145   0.254   0.311   2.680
  378SOL     OW 1146   1.194   1.612   1.893
  378SOL    HW1 1147   1.200   1.519   1.930
  378SOL    HW2 1148   1.135   1.612   1.813
  379SOL     OW 1149   0.822   1.002   3.234
  379SOL    HW1 1150   0.862   1.001   3.142
  379SOL    HW2 1151   0.832   1.094   3.274
  380SOL     OW 1152   0.916   0.910   2.153
  380SOL    HW1 1153   0.979   0.948   2.085
  380SOL    HW2 1154   0.956   0.827   2.192
  381SOL     OW 1155   1.504   1.607   1.906
  381SOL    HW1 1156   1.412   1.644   1.913
  381SOL    HW2 1157   1.542   1.627   1.816
  382SOL     OW 1158   0.372   1.288   3.352
  382SOL    HW1 1159   0.359   1.381   3.318
  382SOL    HW2 1160   0.288   1.236   3.339
  383SOL     OW 1161   1.614   1.292   3.151
  383SOL    HW1 1162   1.674   1.295   3.231
  383SOL    HW2 1163   1.539   1.356   3.164
  384SOL     OW 1164   1.039   1.098   2.558
  384SOL    HW1 1165   0.969   1.051   2.612
  384SOL    HW2 1166   1.098   1.030   2.515
  385SOL     OW 1167   1.014   0.236   2.833
  385SOL    HW1 1168   1.006   0.200   2.740
  385SOL    HW2 1169   1.012   0.160   2.898
  386SOL     OW 1170   0.590   1.487   2.353
  386SOL    HW1 1171   0.632   1.429   2.283
  386SOL    HW2 1172   0.546   1.566   2.309
  387SOL     OW 1173   1.709   0.385   3.243
  387SOL    HW1 1174   1.782   0.454   3.247
  387SOL    HW2 1175   1.737   0.310   3.184
  388SOL     OW 1176   0.255   1.348   2.152
  388SOL    HW1 1177   0.159   1.349   2.125
  388SOL    HW2 1178   0.267   1.401   2.236
  389SOL     OW 1179   0.105   1.013   3.588
  389SOL    HW1 1180   0.028   0.980   3.642
  389SOL    HW2 1181   0.190   0.983   3.630
  390SOL     OW 1182   0.672   0.203   3.351
  390SOL    HW1 1183   0.762   0.187   3.311
  390SOL    HW2 1184   0.680   0.208   3.450
  391SOL     OW 1185   0.075   0.345   1.895
  391SOL    HW1 1186  -0.017   0.317   1.866
  391SOL    HW2 1187   0.106   0.422   1.839
  392SOL     OW 1188   1.440   0.856   3.260
  392SOL    HW1 1189   1.383   0.908   3.197
  392SOL    HW2 1190   1.536   0.868   3.236
  393SOL     OW 1191   0.072   0.166   2.180
  393SOL    HW1 1192   0.055   0.249   2.126
  393SOL    HW2 1193   0.162   0.129   2.158
  394SOL     OW 1194   1.183   1.335   1.981
  394SOL    HW1 1195   1.084   1.324   1.983
  394SOL    HW2 1196   1.217   1.350   2.074
  395SOL     OW 1197   0.613   0.842   3.293
  395SOL    HW1 1198   0.669   0.923   3.276
  395SOL    HW2 1199   0.672   0.762   3.296
  396SOL     OW 1200   1.493   1.767   2.821
  396SOL    HW1 1201   1.526   1.831   2.752
  396SOL    HW2 1202   1.559   1.761   2.896
  397SOL     OW 1203   0.716   0.565   3.570
  397SOL    HW1 1204   0.735   0.630   3.644
  397SOL    HW2 1205   0.776   0.485   3.579
  398SOL     OW 1206   1.450   1.220   3.495
  398SOL    HW1 1207   1.441   1.210   3.594
  398SOL    HW2 1208   1.546   1.213   3.469
  399SOL     OW 1209   0.390   1.741   3.422
  399SOL    HW1 1210   0.299   1.782   3.420
  399SOL    HW2 1211   0.383   1.647   3.454
  400SOL     OW 1212   1.674   0.883   3.116
  400SOL    HW1 1213   1.647   0.794   3.079
  400SOL    HW2 1214   1.675   0.951   3.043
  401SOL     OW 1215   1.225   0.325   2.311
  401SOL    HW1 1216   1.290   0.251   2.300
  401SOL    HW2 1217   1.245   0.375   2.395
  402SOL     OW 1218   0.594   0.745   2.514
  402SOL    HW1 1219   0.644   0.830   2.495
  402SOL    HW2 1220   0.506   0.747   2.466
  403SOL     OW 1221   1.777   0.342   3.504
  403SOL    HW1 1222   1.760   0.373   3.410
  403SOL    HW2 1223   1.693   0.305   3.542
  404SOL     OW 1224   1.730   0.934   3.379
  404SOL    HW1 1225   1.768   1.025   3.394
  404SOL    HW2 1226   1.722   0.917   3.280
  405SOL     OW 1227   0.859   1.374   1.878
  405SOL    HW1 1228   0.813   1.389   1.966
  405SOL    HW2 1229   0.903   1.459   1.848
  406SOL     OW 1230   0.661   1.790   2.815
  406SOL    HW1 1231   0.615   1.878   2.802
  406SOL    HW2 1232   0.760   1.802   2.808
  407SOL     OW 1233   0.859   0.956   2.723
  407SOL    HW1 1234   0.913   0.887   2.771
  407SOL    HW2 1235   0.827   1.025   2.789
  408SOL     OW 1236   1.083   0.984   1.949
  408SOL    HW1 1237   1.060   1.037   1.867
  408SOL    HW2 1238   1.164   0.928   1.930
  409SOL     OW 1239   1.861   1.569   2.713
  409SOL    HW1 1240   1.790   1.557   2.643
  409SOL    HW2 1241   1.862   1.490   2.773
  410SOL     OW 1242   0.221   1.314   3.706
  410SOL    HW1 1243   0.156   1.241   3.685
  410SOL    HW2 1244   0.225   1.328   3.804
  411SOL     OW 1245   0.079   1.240   2.515
  411SOL    HW1 1246   0.078   1.193   2.603
  411SOL    HW2 1247   0.161   1.212   2.464
  412SOL     OW 1248   0.672   1.391   3.486
  412SOL    HW1 1249   0.594   1.341   3.524
  412SOL    HW2 1250   0.669   1.486   3.517
  413SOL     OW 1251   1.824   0.192   3.089
  413SOL    HW1 1252   1.820   0.102   3.133
  413SOL    HW2 1253   1.827   0.181   2.990
  414SOL     OW 1254   0.428   0.424   2.382
  414SOL    HW1 1255   0.458   0.352   2.320
  414SOL    HW2 1256   0.389   0.384   2.465
  415SOL     OW 1257   1.705   1.487   2.966
  415SOL    HW1 1258   1.612   1.462   2.939
  415SOL    HW2 1259   1.731   1.437   3.048
  416SOL     OW 1260   0.317   0.547   3.142
  416SOL    HW1 1261   0.355   0.488   3.214
  416SOL    HW2 1262   0.357   0.521   3.054
  417SOL     OW 1263   0.812   1.586   2.549
  417SOL    HW1 1264   0.844   1.596   2.455
  417SOL    HW2 1265   0.733   1.524   2.551
  418SOL     OW 1266   1.424   0.214   2.974
  418SOL    HW1 1267   1.476   0.149   3.029
  418SOL    HW2 1268   1.375   0.277   3.035
  419SOL     OW 1269   1.001   0.034   3.016
  419SOL    HW1 1270   0.938  -0.038   2.985
  419SOL    HW2 1271   1.094  -0.002   3.016
  420SOL     OW 1272   0.770   1.330   2.163
  420SOL    HW1 1273   0.724   1.243   2.180
  420SOL    HW2 1274   0.861   1.327   2.204
  421SOL     OW 1275   0.618   1.567   3.146
  421SOL    HW1 1276   0.613   1.649   3.203
  421SOL    HW2 1277   0.707   1.564   3.101
  422SOL     OW 1278   1.352   0.052   2.030
  422SOL    HW1 1279   1.387   0.011   1.946
  422SOL    HW2 1280   1.262   0.014   2.050
  423SOL     OW 1281   1.300   0.453   2.553
  423SOL    HW1 1282   1.241   0.533   2.557
  423SOL    HW2 1283   1.315   0.418   2.646
  424SOL     OW 1284   1.593   0.221   2.744
  424SOL    HW1 1285   1.509   0.220   2.798
  424SOL    HW2 1286   1.595   0.304   2.688
  425SOL     OW 1287   0.039   1.077   2.162
  425SOL    HW1 1288   0.138   1.066   2.153
  425SOL    HW2 1289  -0.001   0.991   2.194
  426SOL     OW 1290   0.875   1.646   2.199
  426SOL    HW1 1291   0.798   1.611   2.145
  426SOL    HW2 1292   0.843   1.717   2.261
  427SOL     OW 1293   0.230   0.628   3.837
  427SOL    HW1 1294   0.137   0.626   3.874
  427SOL    HW2 1295   0.231   0.589   3.745
  428SOL     OW 1296   0.225   0.275   4.720
  428SOL    HW1 1297   0.260   0.258   4.812
  428SOL    HW2 1298   0.137   0.230   4.708
  429SOL     OW 1299   0.019   0.368   4.371
  429SOL    HW1 1300  -0.063   0.411   4.410
  429SOL    HW2 1301  -0.009   0.295   4.308
  430SOL     OW 1302   1.555   1.511   4.427
  430SOL    HW1 1303   1.498   1.495   4.508
  430SOL    HW2 1304   1.496   1.521   4.347
  431SOL     OW 1305   1.135   0.703   4.441
  431SOL    HW1 1306   1.192   0.781   4.416
  431SOL    HW2 1307   1.075   0.729   4.517
  432SOL     OW 1308   1.755   0.607   3.955
  432SOL    HW1 1309   1.743   0.594   3.856
  432SOL    HW2 1310   1.725   0.526   4.004
  433SOL     OW 1311   0.685   1.012   4.389
  433SOL    HW1 1312   0.754   0.996   4.459
  433SOL    HW2 1313   0.612   1.069   4.427
  434SOL     OW 1314   1.603   0.447   4.461
  434SOL    HW1 1315   1.529   0.493   4.411
  434SOL    HW2 1316   1.654   0.515   4.514
  435SOL     OW 1317   0.231   1.713   4.207
  435SOL    HW1 1318   0.265   1.790   4.261
  435SOL    HW2 1319   0.275   1.713   4.117
  436SOL     OW 1320   0.230   1.434   4.262
  436SOL    HW1 1321   0.204   1.530   4.262
  436SOL    HW2 1322   0.159   1.380   4.307
  437SOL     OW 1323   0.240   1.091   4.610
  437SOL    HW1 1324   0.254   1.007   4.662
  437SOL    HW2 1325   0.185   1.155   4.665
  438SOL     OW 1326   0.606   0.964   3.847
  438SOL    HW1 1327   0.613   1.048   3.793
  438SOL    HW2 1328   0.652   0.977   3.935
  439SOL     OW 1329   0.122   0.643   4.287
  439SOL    HW1 1330   0.077   0.555   4.304
  439SOL    HW2 1331   0.121   0.697   4.371
  440SOL     OW 1332   1.842   1.767   4.083
  440SOL    HW1 1333   1.896   1.738   4.163
  440SOL    HW2 1334   1.872   1.857   4.054
  441SOL     OW 1335   0.027   1.596   3.841
  441SOL    HW1 1336   0.008   1.500   3.862
  441SOL    HW2 1337  -0.006   1.654   3.916
  442SOL     OW 1338   1.689   0.922   4.336
  442SOL    HW1 1339   1.784   0.893   4.344
  442SOL    HW2 1340   1.681   0.987   4.261
  443SOL     OW 1341   1.641   1.108   4.156
  443SOL    HW1 1342   1.727   1.110   4.104
  443SOL    HW2 1343   1.655   1.155   4.244
  444SOL     OW 1344   0.613   1.365   4.450
  444SOL    HW1 1345   0.564   1.278   4.459
  444SOL    HW2 1346   0.590   1.408   4.363
  445SOL     OW 1347   0.809   0.004   4.226
  445SOL    HW1 1348   0.849   0.095   4.217
  445SOL    HW2 1349   0.709   0.012   4.232
  446SOL     OW 1350   1.525   0.999   3.914
  446SOL    HW1 1351   1.462   0.923   3.927
  446SOL    HW2 1352   1.573   1.017   4.000
  447SOL     OW 1353   1.667   1.714   4.296
  447SOL    HW1 1354   1.626   1.691   4.208
  447SOL    HW2 1355   1.649   1.640   4.361
  448SOL     OW 1356   0.598   0.729   3.994
  448SOL    HW1 1357   0.622   0.798   3.926
  448SOL    HW2 1358   0.520   0.762   4.048
  449SOL     OW 1359   1.281   0.345   4.668
  449SOL    HW1 1360   1.195   0.295   4.655
  449SOL    HW2 1361   1.343   0.291   4.724
  450SOL     OW 1362   1.576   1.662   4.031
  450SOL    HW1 1363   1.665   1.708   4.034
  450SOL    HW2 1364   1.555   1.638   3.936
  451SOL     OW 1365   1.041   0.701   4.153
  451SOL    HW1 1366   1.067   0.697   4.249
  451SOL    HW2 1367   0.956   0.650   4.139
  452SOL     OW 1368   0.076   0.811   4.513
  452SOL    HW1 1369   0.175   0.799   4.522
  452SOL    HW2 1370   0.052   0.906   4.534
  453SOL     OW 1371   0.865   0.348   3.919
  453SOL    HW1 1372   0.924   0.411   3.870
  453SOL    HW2 1373   0.884   0.254   3.890
  454SOL     OW 1374   1.362   1.144   4.269
  454SOL    HW1 1375   1.445   1.115   4.221
  454SOL    HW2 1376   1.313   1.211   4.213
  455SOL     OW 1377   1.008   1.456   4.201
  455SOL    HW1 1378   0.962   1.528   4.149
  455SOL    HW2 1379   1.004   1.476   4.299
  456SOL     OW 1380   0.351   1.801   4.577
  456SOL    HW1 1381   0.401   1.715   4.583
  456SOL    HW2 1382   0.416   1.878   4.574
  457SOL     OW 1383   1.795   1.066   4.597
  457SOL    HW1 1384   1.733   1.051   4.521
  457SOL    HW2 1385   1.743   1.077   4.682
  458SOL     OW 1386   0.321   0.943   3.966
  458SOL    HW1 1387   0.403   0.982   3.924
  458SOL    HW2 1388   0.294   0.861   3.917
  459SOL     OW 1389   1.458   0.735   4.452
  459SOL    HW1 1390   1.453   0.670   4.527
  459SOL    HW2 1391   1.538   0.794   4.465
  460SOL     OW 1392   1.111   1.776   3.961
  460SOL    HW1 1393   1.051   1.714   4.011
  460SOL    HW2 1394   1.142   1.732   3.876
  461SOL     OW 1395   1.632   1.377   3.805
  461SOL    HW1 1396   1.600   1.471   3.795
  461SOL    HW2 1397   1.556   1.314   3.793
  462SOL     OW 1398   0.464   1.743   4.047
  462SOL    HW1 1399   0.497   1.782   4.133
  462SOL    HW2 1400   0.540   1.736   3.982
  463SOL     OW 1401   1.400   0.107   4.150
  463SOL    HW1 1402   1.376   0.070   4.060
  463SOL    HW2 1403   1.499   0.123   4.154
  464SOL     OW 1404   0.940   1.698   4.628
  464SOL    HW1 1405   1.020   1.641   4.649
  464SOL    HW2 1406   0.891   1.658   4.551
  465SOL     OW 1407   0.382   0.700   4.204
  465SOL    HW1 1408   0.427   0.610   4.201
  465SOL    HW2 1409   0.288   0.689   4.237
  466SOL     OW 1410   0.614   0.122   3.841
  466SOL    HW1 1411   0.712   0.100   3.848
  466SOL    HW2 1412   0.583   0.105   3.748
  467SOL     OW 1413   0.539   0.064   4.236
  467SOL    HW1 1414   0.458   0.065   4.294
  467SOL    HW2 1415   0.542   0.147   4.181
  468SOL     OW 1416   1.434   1.188   3.765
  468SOL    HW1 1417   1.466   1.112   3.822
  468SOL    HW2 1418   1.342   1.215   3.795
  469SOL     OW 1419   0.297   0.035   3.895
  469SOL    HW1 1420   0.346   0.119   3.874
  469SOL    HW2 1421   0.359  -0.030   3.940
  470SOL     OW 1422   0.935   0.236   4.204
  470SOL    HW1 1423   0.887   0.277   4.126
  470SOL    HW2 1424   1.034   0.234   4.185
  471SOL     OW 1425   0.459   1.152   4.465
  471SOL    HW1 1426   0.388   1.125   4.530
  471SOL    HW2 1427   0.433   1.124   4.372
  472SOL     OW 1428   1.271   1.797   4.315
  472SOL    HW1 1429   1.315   1.861   4.251
  472SOL    HW2 1430   1.221   1.849   4.385
  473SOL     OW 1431   1.032   0.549   3.740
  473SOL    HW1 1432   0.991   0.631   3.701
  473SOL    HW2 1433   1.096   0.575   3.813
  474SOL     OW 1434   0.866   0.454   4.366
  474SOL    HW1 1435   0.834   0.526   4.304
  474SOL    HW2 1436   0.890   0.373   4.313
  475SOL     OW 1437   1.017   0.039   4.477
  475SOL    HW1 1438   0.945   0.044   4.408
  475SOL    HW2 1439   0.993  -0.030   4.546
  476SOL     OW 1440   1.857   0.833   4.101
  476SOL    HW1 1441   1.899   0.769   4.165
  476SOL    HW2 1442   1.819   0.782   4.023
  477SOL     OW 1443   0.488   1.385   3.898
  477SOL    HW1 1444   0.401   1.370   3.945
  477SOL    HW2 1445   0.471   1.411   3.803
  478SOL     OW 1446   1.664   1.280   4.381
  478SOL    HW1 1447   1.763   1.288   4.395
  478SOL    HW2 1448   1.619   1.364   4.412
  479SOL     OW 1449   1.390   0.575   3.802
  479SOL    HW1 1450   1.336   0.554   3.883
  479SOL    HW2 1451   1.481   0.534   3.811
  480SOL     OW 1452   0.527   0.256   4.052
  480SOL    HW1 1453   0.554   0.197   3.977
  480SOL    HW2 1454   0.527   0.351   4.021
  481SOL     OW 1455   0.705   1.050   4.092
  481SOL    HW1 1456   0.691   1.057   4.191
  481SOL    HW2 1457   0.789   0.999   4.074
  482SOL     OW 1458   0.367   1.100   4.225
  482SOL    HW1 1459   0.360   1.183   4.169
  482SOL    HW2 1460   0.371   1.020   4.165
  483SOL     OW 1461   1.252   1.348   4.112
  483SOL    HW1 1462   1.302   1.425   4.152
  483SOL    HW2 1463   1.157   1.350   4.144
  484SOL     OW 1464   1.582   0.639   4.196
  484SOL    HW1 1465   1.551   0.700   4.269
  484SOL    HW2 1466   1.632   0.691   4.127
  485SOL     OW 1467   1.209   0.525   3.999
  485SOL    HW1 1468   1.222   0.441   4.053
  485SOL    HW2 1469   1.180   0.599   4.059
  486SOL     OW 1470   0.307   0.063   4.342
  486SOL    HW1 1471   0.296   0.157   4.375
  486SOL    HW2 1472   0.302   0.000   4.419
  487SOL     OW 1473   1.622   0.367   4.098
  487SOL    HW1 1474   1.624   0.291   4.162
  487SOL    HW2 1475   1.574   0.444   4.138
  488SOL     OW 1476   1.540   0.274   3.849
  488SOL    HW1 1477   1.479   0.199   3.872
  488SOL    HW2 1478   1.562   0.326   3.932
  489SOL     OW 1479   1.303   0.838   3.766
  489SOL    HW1 1480   1.337   0.745   3.781
  489SOL    HW2 1481   1.321   0.865   3.671
  490SOL     OW 1482   0.008   1.326   3.924
  490SOL    HW1 1483  -0.085   1.347   3.893
  490SOL    HW2 1484   0.018   1.227   3.937
  491SOL     OW 1485   0.815   0.572   4.049
  491SOL    HW1 1486   0.822   0.483   4.003
  491SOL    HW2 1487   0.721   0.606   4.041
  492SOL     OW 1488   0.473   0.500   3.915
  492SOL    HW1 1489   0.534   0.580   3.919
  492SOL    HW2 1490   0.378   0.531   3.922
  493SOL     OW 1491   1.302   0.855   4.033
  493SOL    HW1 1492   1.216   0.824   4.075
  493SOL    HW2 1493   1.298   0.841   3.934
  494SOL     OW 1494   1.726   0.135   4.247
  494SOL    HW1 1495   1.799   0.118   4.180
  494SOL    HW2 1496   1.695   0.048   4.285
  495SOL     OW 1497   1.388   1.573   4.201
  495SOL    HW1 1498   1.455   1.585   4.127
  495SOL    HW2 1499   1.348   1.662   4.224
  496SOL     OW 1500   1.280   0.927   4.396
  496SOL    HW1 1501   1.340   0.846   4.398
  496SOL    HW2 1502   1.320   0.996   4.336
  497SOL     OW 1503   0.672   1.616   3.878
  497SOL    HW1 1504   0.681   1.626   3.779
  497SOL    HW2 1505   0.632   1.527   3.899
  498SOL     OW 1506   1.841   0.175   4.687
  498SOL    HW1 1507   1.880   0.090   4.651
  498SOL    HW2 1508   1.743   0.177   4.668
  499SOL     OW 1509   0.263   0.326   4.444
  499SOL    HW1 1510   0.184   0.377   4.410
  499SOL    HW2 1511   0.254   0.311   4.542
  500SOL     OW 1512   1.194   1.612   3.755
  500SOL    HW1 1513   1.200   1.519   3.792
  500SOL    HW2 1514   1.135   1.612   3.675
  501SOL     OW 1515   0.916   0.910   4.015
  501SOL    HW1 1516   0.979   0.948   3.947
  501SOL    HW2 1517   0.956   0.827   4.054
  502SOL     OW 1518   1.504   1.607   3.768
  502SOL    HW1 1519   1.412   1.644   3.775
  502SOL    HW2 1520   1.542   1.627   3.678
  503SOL     OW 1521   1.039   1.098   4.420
  503SOL    HW1 1522   0.969   1.051   4.474
  503SOL    HW2 1523   1.098   1.030   4.377
  504SOL     OW 1524   0.590   1.487   4.215
  504SOL    HW1 1525   0.632   1.429   4.145
  504SOL    HW2 1526   0.546   1.566   4.171
  505SOL     OW 1527   0.255   1.348   4.014
  505SOL    HW1 1528   0.159   1.349   3.987
  505SOL    HW2 1529   0.267   1.401   4.098
  506SOL     OW 1530   0.075   0.345   3.757
  506SOL    HW1 1531  -0.017   0.317   3.728
  506SOL    HW2 1532   0.106   0.422   3.701
  507SOL     OW 1533   0.072   0.166   4.042
  507SOL    HW1 1534   0.055   0.249   3.988
  507SOL    HW2 1535   0.162   0.129   4.020
  508SOL     OW 1536   1.183   1.335   3.843
  508SOL    HW1 1537   1.084   1.324   3.845
  508SOL    HW2 1538   1.217   1.350   3.936
  509SOL     OW 1539   1.225   0.325   4.173
  509SOL    HW1 1540   1.290   0.251   4.162
  509SOL    HW2 1541   1.245   0.375   4.257
  510SOL     OW 1542   0.594   0.745   4.376
  510SOL    HW1 1543   0.644   0.830   4.357
  510SOL    HW2 1544   0.506   0.747   4.328
  511SOL     OW 1545   0.859   1.374   3.740
  511SOL    HW1 1546   0.813   1.389   3.828
  511SOL    HW2 1547   0.903   1.459   3.710
  512SOL     OW 1548   0.661   1.790   4.677
  512SOL    HW1 1549   0.615   1.878   4.664
  512SOL    HW2 1550   0.760   1.802   4.670
  513SOL     OW 1551   0.859   0.956   4.585
  513SOL    HW1 1552   0.913   0.887   4.633
  513SOL    HW2 1553   0.827   1.025   4.651
  514SOL     OW 1554   1.083   0.984   3.811
  514SOL    HW1 1555   1.060   1.037   3.729
  514SOL    HW2 1556   1.164   0.928   3.792
  515SOL     OW 1557   0.079   1.240   4.377
  515SOL    HW1 1558   0.078   1.193   4.465
  515SOL    HW2 1559   0.161   1.212   4.326
  516SOL     OW 1560   0.428   0.424   4.244
  516SOL    HW1 1561   0.458   0.352   4.182
  516SOL    HW2 1562   0.389   0.384   4.327
  517SOL     OW 1563   1.705   1.487   4.828
  517SOL    HW1 1564   1.612   1.462   4.801
  517SOL    HW2 1565   1.731   1.437   4.910
  518SOL     OW 1566   0.812   1.586   4.411
  518SOL    HW1 1567   0.844   1.596   4.317
  518SOL    HW2 1568   0.733   1.524   4.413
  519SOL     OW 1569   0.770   1.330   4.025
  519SOL    HW1 1570   0.724   1.243   4.042
  519SOL    HW2 1571   0.861   1.327   4.066
  520SOL     OW 1572   1.352   0.052   3.892
  520SOL    HW1 1573   1.387   0.011   3.808
  520SOL    HW2 1574   1.262   0.014   3.912
  521SOL     OW 1575   1.300   0.453   4.415
  521SOL    HW1 1576   1.241   0.533   4.419
  521SOL    HW2 1577   1.315   0.418   4.508
  522SOL     OW 1578   0.039   1.077   4.024
  522SOL    HW1 1579   0.138   1.066   4.015
  522SOL    HW2 1580  -0.001   0.991   4.056
  523SOL     OW 1581   0.875   1.646   4.061
  523SOL    HW1 1582   0.798   1.611   4.007
  523SOL    HW2 1583   0.843   1.717   4.123
  524SOL     OW 1584   0.230   2.490   0.113
  524SOL    HW1 1585   0.137   2.488   0.150
  524SOL    HW2 1586   0.231   2.451   0.021
  525SOL     OW 1587   0.225   2.137   0.996
  525SOL    HW1 1588   0.260   2.120   1.088
  525SOL    HW2 1589   0.137   2.092   0.984
  526SOL     OW 1590   0.019   2.230   0.647
  526SOL    HW1 1591  -0.063   2.273   0.686
  526SOL    HW2 1592  -0.009   2.157   0.584
  527SOL     OW 1593   0.569   3.137   1.165
  527SOL    HW1 1594   0.476   3.130   1.128
  527SOL    HW2 1595   0.580   3.226   1.209
  528SOL     OW 1596   1.555   3.373   0.703
  528SOL    HW1 1597   1.498   3.357   0.784
  528SOL    HW2 1598   1.496   3.383   0.623
  529SOL     OW 1599   1.135   2.565   0.717
  529SOL    HW1 1600   1.192   2.643   0.692
  529SOL    HW2 1601   1.075   2.591   0.793
  530SOL     OW 1602   1.755   2.469   0.231
  530SOL    HW1 1603   1.743   2.456   0.132
  530SOL    HW2 1604   1.725   2.388   0.280
  531SOL     OW 1605   0.768   3.006   1.023
  531SOL    HW1 1606   0.690   3.023   1.083
  531SOL    HW2 1607   0.802   3.093   0.987
  532SOL     OW 1608   0.850   2.660   1.823
  532SOL    HW1 1609   0.846   2.736   1.888
  532SOL    HW2 1610   0.872   2.696   1.732
  533SOL     OW 1611   0.685   2.874   0.665
  533SOL    HW1 1612   0.754   2.858   0.735
  533SOL    HW2 1613   0.612   2.931   0.703
  534SOL     OW 1614   0.686   3.023   1.803
  534SOL    HW1 1615   0.746   3.102   1.817
  534SOL    HW2 1616   0.600   3.054   1.762
  535SOL     OW 1617   0.335   3.297   1.061
  535SOL    HW1 1618   0.257   3.266   1.008
  535SOL    HW2 1619   0.393   3.355   1.004
  536SOL     OW 1620   1.460   3.367   1.339
  536SOL    HW1 1621   1.484   3.461   1.365
  536SOL    HW2 1622   1.444   3.313   1.421
  537SOL     OW 1623   0.438   2.254   1.499
  537SOL    HW1 1624   0.520   2.198   1.508
  537SOL    HW2 1625   0.357   2.196   1.503
  538SOL     OW 1626   1.603   2.309   0.737
  538SOL    HW1 1627   1.529   2.355   0.687
  538SOL    HW2 1628   1.654   2.377   0.790
  539SOL     OW 1629   0.231   3.575   0.483
  539SOL    HW1 1630   0.265   3.652   0.537
  539SOL    HW2 1631   0.275   3.575   0.393
  540SOL     OW 1632   1.127   3.203   1.690
  540SOL    HW1 1633   1.174   3.203   1.778
  540SOL    HW2 1634   1.079   3.116   1.679
  541SOL     OW 1635   0.230   3.296   0.538
  541SOL    HW1 1636   0.204   3.392   0.538
  541SOL    HW2 1637   0.159   3.242   0.583
  542SOL     OW 1638   0.240   2.953   0.886
  542SOL    HW1 1639   0.254   2.869   0.938
  542SOL    HW2 1640   0.185   3.017   0.941
  543SOL     OW 1641   0.620   3.648   1.439
  543SOL    HW1 1642   0.528   3.631   1.474
  543SOL    HW2 1643   0.648   3.740   1.465
  544SOL     OW 1644   0.606   2.826   0.123
  544SOL    HW1 1645   0.613   2.910   0.069
  544SOL    HW2 1646   0.652   2.839   0.211
  545SOL     OW 1647   1.594   1.976   1.480
  545SOL    HW1 1648   1.576   2.043   1.408
  545SOL    HW2 1649   1.591   2.022   1.569
  546SOL     OW 1650   0.122   2.505   0.563
  546SOL    HW1 1651   0.077   2.417   0.580
  546SOL    HW2 1652   0.121   2.559   0.647
  547SOL     OW 1653   1.842   3.629   0.359
  547SOL    HW1 1654   1.896   3.600   0.439
  547SOL    HW2 1655   1.872   3.719   0.330
  548SOL     OW 1656   0.027   3.458   0.117
  548SOL    HW1 1657   0.008   3.362   0.138
  548SOL    HW2 1658  -0.006   3.516   0.192
  549SOL     OW 1659   1.689   2.784   0.612
  549SOL    HW1 1660   1.784   2.755   0.620
  549SOL    HW2 1661   1.681   2.849   0.537
  550SOL     OW 1662   1.641   2.970   0.432
  550SOL    HW1 1663   1.727   2.972   0.380
  550SOL    HW2 1664   1.655   3.017   0.520
  551SOL     OW 1665   0.113   2.599   1.597
  551SOL    HW1 1666   0.201   2.586   1.642
  551SOL    HW2 1667   0.100   2.696   1.575
  552SOL     OW 1668   0.613   3.227   0.726
  552SOL    HW1 1669   0.564   3.140   0.735
  552SOL    HW2 1670   0.590   3.270   0.639
  553SOL     OW 1671   1.293   3.090   1.423
  553SOL    HW1 1672   1.330   3.017   1.365
  553SOL    HW2 1673   1.345   3.095   1.508
  554SOL     OW 1674   0.809   1.866   0.502
  554SOL    HW1 1675   0.849   1.957   0.493
  554SOL    HW2 1676   0.709   1.874   0.508
  555SOL     OW 1677   0.197   2.838   1.264
  555SOL    HW1 1678   0.286   2.793   1.250
  555SOL    HW2 1679   0.124   2.773   1.245
  556SOL     OW 1680   1.525   2.861   0.190
  556SOL    HW1 1681   1.462   2.785   0.203
  556SOL    HW2 1682   1.573   2.879   0.276
  557SOL     OW 1683   1.187   3.654   1.616
  557SOL    HW1 1684   1.211   3.714   1.540
  557SOL    HW2 1685   1.194   3.559   1.586
  558SOL     OW 1686   0.317   2.113   1.801
  558SOL    HW1 1687   0.388   2.184   1.807
  558SOL    HW2 1688   0.229   2.152   1.829
  559SOL     OW 1689   1.466   3.279   0.953
  559SOL    HW1 1690   1.407   3.285   1.033
  559SOL    HW2 1691   1.451   3.191   0.907
  560SOL     OW 1692   1.667   3.576   0.572
  560SOL    HW1 1693   1.626   3.553   0.484
  560SOL    HW2 1694   1.649   3.502   0.637
  561SOL     OW 1695   0.598   2.591   0.270
  561SOL    HW1 1696   0.622   2.660   0.202
  561SOL    HW2 1697   0.520   2.624   0.324
  562SOL     OW 1698   1.281   2.207   0.944
  562SOL    HW1 1699   1.195   2.157   0.931
  562SOL    HW2 1700   1.343   2.153   1.000
  563SOL     OW 1701   1.576   3.524   0.307
  563SOL    HW1 1702   1.665   3.570   0.310
  563SOL    HW2 1703   1.555   3.500   0.212
  564SOL     OW 1704   0.807   2.467   1.465
  564SOL    HW1 1705   0.760   2.464   1.554
  564SOL    HW2 1706   0.756   2.412   1.399
  565SOL     OW 1707   1.394   2.331   1.674
  565SOL    HW1 1708   1.374   2.374   1.762
  565SOL    HW2 1709   1.472   2.269   1.683
  566SOL     OW 1710   0.973   2.752   1.572
  566SOL    HW1 1711   1.019   2.668   1.543
  566SOL    HW2 1712   0.917   2.786   1.497
  567SOL     OW 1713   0.991   2.272   1.242
  567SOL    HW1 1714   0.914   2.306   1.296
  567SOL    HW2 1715   0.957   2.221   1.163
  568SOL     OW 1716   1.041   2.563   0.429
  568SOL    HW1 1717   1.067   2.559   0.525
  568SOL    HW2 1718   0.956   2.512   0.415
  569SOL     OW 1719   0.076   2.673   0.789
  569SOL    HW1 1720   0.175   2.661   0.798
  569SOL    HW2 1721   0.052   2.768   0.810
  570SOL     OW 1722   0.130   3.683   1.571
  570SOL    HW1 1723   0.120   3.668   1.670
  570SOL    HW2 1724   0.044   3.719   1.535
  571SOL     OW 1725   0.865   2.210   0.195
  571SOL    HW1 1726   0.924   2.273   0.146
  571SOL    HW2 1727   0.884   2.116   0.166
  572SOL     OW 1728   1.719   2.447   1.831
  572SOL    HW1 1729   1.693   2.536   1.795
  572SOL    HW2 1730   1.717   2.379   1.758
  573SOL     OW 1731   1.362   3.006   0.545
  573SOL    HW1 1732   1.445   2.977   0.497
  573SOL    HW2 1733   1.313   3.073   0.489
  574SOL     OW 1734   0.550   2.058   0.885
  574SOL    HW1 1735   0.545   2.053   0.985
  574SOL    HW2 1736   0.552   2.154   0.856
  575SOL     OW 1737   1.008   3.318   0.477
  575SOL    HW1 1738   0.962   3.390   0.425
  575SOL    HW2 1739   1.004   3.338   0.575
  576SOL     OW 1740   0.351   3.663   0.853
  576SOL    HW1 1741   0.401   3.577   0.859
  576SOL    HW2 1742   0.416   3.740   0.850
  577SOL     OW 1743   1.795   2.928   0.873
  577SOL    HW1 1744   1.733   2.913   0.797
  577SOL    HW2 1745   1.743   2.939   0.958
  578SOL     OW 1746   1.227   3.412   1.506
  578SOL    HW1 1747   1.233   3.335   1.570
  578SOL    HW2 1748   1.175   3.386   1.426
  579SOL     OW 1749   0.321   2.805   0.242
  579SOL    HW1 1750   0.403   2.844   0.200
  579SOL    HW2 1751   0.294   2.723   0.193
  580SOL     OW 1752   1.458   2.597   0.728
  580SOL    HW1 1753   1.453   2.532   0.803
  580SOL    HW2 1754   1.538   2.656   0.741
  581SOL     OW 1755   0.461   3.128   1.727
  581SOL    HW1 1756   0.411   3.129   1.641
  581SOL    HW2 1757   0.398   3.110   1.803
  582SOL     OW 1758   1.111   3.638   0.237
  582SOL    HW1 1759   1.051   3.576   0.287
  582SOL    HW2 1760   1.142   3.594   0.152
  583SOL     OW 1761   0.202   2.147   1.498
  583SOL    HW1 1762   0.122   2.207   1.485
  583SOL    HW2 1763   0.192   2.098   1.584
  584SOL     OW 1764   1.632   3.239   0.081
  584SOL    HW1 1765   1.600   3.333   0.071
  584SOL    HW2 1766   1.556   3.176   0.069
  585SOL     OW 1767   0.464   3.605   0.323
  585SOL    HW1 1768   0.497   3.644   0.409
  585SOL    HW2 1769   0.540   3.598   0.258
  586SOL     OW 1770   1.400   1.969   0.426
  586SOL    HW1 1771   1.376   1.932   0.336
  586SOL    HW2 1772   1.499   1.985   0.430
  587SOL     OW 1773   0.249   3.647   1.241
  587SOL    HW1 1774   0.306   3.582   1.291
  587SOL    HW2 1775   0.233   3.614   1.148
  588SOL     OW 1776   0.940   3.560   0.904
  588SOL    HW1 1777   1.020   3.503   0.925
  588SOL    HW2 1778   0.891   3.520   0.827
  589SOL     OW 1779   0.382   2.562   0.480
  589SOL    HW1 1780   0.427   2.472   0.477
  589SOL    HW2 1781   0.288   2.551   0.513
  590SOL     OW 1782   1.547   2.084   1.729
  590SOL    HW1 1783   1.542   2.121   1.821
  590SOL    HW2 1784   1.475   2.015   1.717
  591SOL     OW 1785   0.781   2.126   1.749
  591SOL    HW1 1786   0.848   2.065   1.792
  591SOL    HW2 1787   0.708   2.145   1.814
  592SOL     OW 1788   0.888   3.376   1.195
  592SOL    HW1 1789   0.865   3.351   1.101
  592SOL    HW2 1790   0.949   3.307   1.234
  593SOL     OW 1791   1.351   2.452   1.433
  593SOL    HW1 1792   1.379   2.409   1.518
  593SOL    HW2 1793   1.376   2.548   1.434
  594SOL     OW 1794   0.803   3.264   0.924
  594SOL    HW1 1795   0.893   3.278   0.882
  594SOL    HW2 1796   0.732   3.266   0.853
  595SOL     OW 1797   0.922   2.365   0.899
  595SOL    HW1 1798   0.897   2.356   0.803
  595SOL    HW2 1799   0.970   2.283   0.930
  596SOL     OW 1800   0.539   1.926   0.512
  596SOL    HW1 1801   0.458   1.927   0.570
  596SOL    HW2 1802   0.542   2.009   0.457
  597SOL     OW 1803   1.434   3.050   0.041
  597SOL    HW1 1804   1.466   2.974   0.098
  597SOL    HW2 1805   1.342   3.077   0.071
  598SOL     OW 1806   0.297   1.897   0.171
  598SOL    HW1 1807   0.346   1.981   0.150
  598SOL    HW2 1808   0.359   1.832   0.216
  599SOL     OW 1809   0.935   2.098   0.480
  599SOL    HW1 1810   0.887   2.139   0.402
  599SOL    HW2 1811   1.034   2.096   0.461
  600SOL     OW 1812   1.076   2.545   1.464
  600SOL    HW1 1813   0.996   2.484   1.467
  600SOL    HW2 1814   1.157   2.492   1.440
  601SOL     OW 1815   1.227   3.432   0.793
  601SOL    HW1 1816   1.248   3.506   0.728
  601SOL    HW2 1817   1.295   3.432   0.866
  602SOL     OW 1818   0.459   3.014   0.741
  602SOL    HW1 1819   0.388   2.987   0.806
  602SOL    HW2 1820   0.433   2.986   0.648
  603SOL     OW 1821   1.271   3.659   0.591
  603SOL    HW1 1822   1.315   3.723   0.527
  603SOL    HW2 1823   1.221   3.711   0.661
  604SOL     OW 1824   1.032   2.411   0.016
  604SOL    HW1 1825   0.991   2.493  -0.023
  604SOL    HW2 1826   1.096   2.437   0.089
  605SOL     OW 1827   0.078   2.418   1.386
  605SOL    HW1 1828   0.170   2.417   1.345
  605SOL    HW2 1829   0.072   2.492   1.453
  606SOL     OW 1830   0.561   2.084   1.147
  606SOL    HW1 1831   0.599   2.000   1.184
  606SOL    HW2 1832   0.473   2.103   1.191
  607SOL     OW 1833   0.866   2.316   0.642
  607SOL    HW1 1834   0.834   2.388   0.580
  607SOL    HW2 1835   0.890   2.235   0.589
  608SOL     OW 1836   1.017   1.901   0.753
  608SOL    HW1 1837   0.945   1.906   0.684
  608SOL    HW2 1838   0.993   1.832   0.822
  609SOL     OW 1839   1.429   3.035   0.867
  609SOL    HW1 1840   1.374   2.951   0.860
  609SOL    HW2 1841   1.455   3.064   0.775
  610SOL     OW 1842   1.466   2.452   0.992
  610SOL    HW1 1843   1.436   2.357   0.999
  610SOL    HW2 1844   1.539   2.468   1.058
  611SOL     OW 1845   1.857   2.695   0.377
  611SOL    HW1 1846   1.899   2.631   0.441
  611SOL    HW2 1847   1.819   2.644   0.299
  612SOL     OW 1848   0.488   3.247   0.174
  612SOL    HW1 1849   0.401   3.232   0.221
  612SOL    HW2 1850   0.471   3.273   0.079
  613SOL     OW 1851   1.664   3.142   0.657
  613SOL    HW1 1852   1.763   3.150   0.671
  613SOL    HW2 1853   1.619   3.226   0.688
  614SOL     OW 1854   1.390   2.437   0.078
  614SOL    HW1 1855   1.336   2.416   0.159
  614SOL    HW2 1856   1.481   2.396   0.087
  615SOL     OW 1857   0.527   2.118   0.328
  615SOL    HW1 1858   0.554   2.059   0.253
  615SOL    HW2 1859   0.527   2.213   0.297
  616SOL     OW 1860   1.754   3.085   1.588
  616SOL    HW1 1861   1.845   3.046   1.575
  616SOL    HW2 1862   1.762   3.181   1.612
  617SOL     OW 1863   1.064   3.209   1.340
  617SOL    HW1 1864   0.984   3.186   1.395
  617SOL    HW2 1865   1.147   3.183   1.389
  618SOL     OW 1866   1.592   3.491   1.625
  618SOL    HW1 1867   1.619   3.525   1.535
  618SOL    HW2 1868   1.671   3.453   1.671
  619SOL     OW 1869   1.111   3.057   1.100
  619SOL    HW1 1870   1.071   3.101   1.181
  619SOL    HW2 1871   1.070   3.094   1.017
  620SOL     OW 1872   1.638   2.961   1.079
  620SOL    HW1 1873   1.643   3.042   1.138
  620SOL    HW2 1874   1.552   2.963   1.028
  621SOL     OW 1875   0.915   1.951   1.402
  621SOL    HW1 1876   0.940   1.931   1.307
  621SOL    HW2 1877   0.987   2.007   1.444
  622SOL     OW 1878   0.980   2.978   1.719
  622SOL    HW1 1879   0.881   2.984   1.729
  622SOL    HW2 1880   1.003   2.898   1.663
  623SOL     OW 1881   0.705   2.912   0.368
  623SOL    HW1 1882   0.691   2.919   0.467
  623SOL    HW2 1883   0.789   2.861   0.350
  624SOL     OW 1884   0.410   2.675   1.251
  624SOL    HW1 1885   0.496   2.687   1.301
  624SOL    HW2 1886   0.368   2.588   1.278
  625SOL     OW 1887   1.274   2.248   1.262
  625SOL    HW1 1888   1.295   2.322   1.326
  625SOL    HW2 1889   1.185   2.265   1.219
  626SOL     OW 1890   0.064   3.426   1.331
  626SOL    HW1 1891   0.018   3.508   1.297
  626SOL    HW2 1892   0.162   3.445   1.340
  627SOL     OW 1893   0.367   2.962   0.501
  627SOL    HW1 1894   0.360   3.045   0.445
  627SOL    HW2 1895   0.371   2.882   0.441
  628SOL     OW 1896   0.566   2.399   0.865
  628SOL    HW1 1897   0.578   2.465   0.791
  628SOL    HW2 1898   0.612   2.433   0.948
  629SOL     OW 1899   1.252   3.210   0.388
  629SOL    HW1 1900   1.302   3.287   0.428
  629SOL    HW2 1901   1.157   3.212   0.420
  630SOL     OW 1902   1.272   3.307   1.142
  630SOL    HW1 1903   1.319   3.320   1.229
  630SOL    HW2 1904   1.206   3.233   1.151
  631SOL     OW 1905   1.582   2.501   0.472
  631SOL    HW1 1906   1.551   2.562   0.545
  631SOL    HW2 1907   1.632   2.553   0.403
  632SOL     OW 1908   0.354   3.372   1.329
  632SOL    HW1 1909   0.333   3.328   1.242
  632SOL    HW2 1910   0.451   3.398   1.332
  633SOL     OW 1911   0.402   2.613   1.598
  633SOL    HW1 1912   0.470   2.668   1.551
  633SOL    HW2 1913   0.442   2.525   1.625
  634SOL     OW 1914   1.587   2.641   1.670
  634SOL    HW1 1915   1.495   2.679   1.665
  634SOL    HW2 1916   1.647   2.688   1.605
  635SOL     OW 1917   1.013   1.967   1.770
  635SOL    HW1 1918   1.019   2.052   1.718
  635SOL    HW2 1919   1.045   1.891   1.713
  636SOL     OW 1920   0.504   1.912   1.740
  636SOL    HW1 1921   0.462   1.855   1.670
  636SOL    HW2 1922   0.438   1.981   1.772
  637SOL     OW 1923   0.573   2.732   1.029
  637SOL    HW1 1924   0.617   2.821   1.020
  637SOL    HW2 1925   0.510   2.732   1.106
  638SOL     OW 1926   1.360   2.724   1.045
  638SOL    HW1 1927   1.285   2.724   0.979
  638SOL    HW2 1928   1.397   2.632   1.054
  639SOL     OW 1929   1.209   2.387   0.275
  639SOL    HW1 1930   1.222   2.303   0.329
  639SOL    HW2 1931   1.180   2.461   0.335
  640SOL     OW 1932   0.307   2.075   1.231
  640SOL    HW1 1933   0.284   2.112   1.321
  640SOL    HW2 1934   0.277   1.980   1.225
  641SOL     OW 1935   0.037   3.172   1.282
  641SOL    HW1 1936   0.090   3.123   1.350
  641SOL    HW2 1937   0.059   3.270   1.287
  642SOL     OW 1938   0.732   2.496   1.064
  642SOL    HW1 1939   0.791   2.470   0.988
  642SOL    HW2 1940   0.704   2.592   1.053
  643SOL     OW 1941   1.728   2.797   1.854
  643SOL    HW1 1942   1.682   2.790   1.765
  643SOL    HW2 1943   1.666   2.841   1.920
  644SOL     OW 1944   0.307   1.925   0.618
  644SOL    HW1 1945   0.296   2.019   0.651
  644SOL    HW2 1946   0.302   1.862   0.695
  645SOL     OW 1947   1.622   2.229   0.374
  645SOL    HW1 1948   1.624   2.153   0.438
  645SOL    HW2 1949   1.574   2.306   0.414
  646SOL     OW 1950   1.023   2.628   0.966
  646SOL    HW1 1951   1.038   2.649   1.062
  646SOL    HW2 1952   0.993   2.533   0.957
  647SOL     OW 1953   0.980   3.435   1.700
  647SOL    HW1 1954   0.960   3.479   1.612
  647SOL    HW2 1955   1.019   3.344   1.684
  648SOL     OW 1956   1.859   3.380   1.605
  648SOL    HW1 1957   1.873   3.407   1.510
  648SOL    HW2 1958   1.942   3.402   1.658
  649SOL     OW 1959   0.350   2.760   1.804
  649SOL    HW1 1960   0.426   2.804   1.852
  649SOL    HW2 1961   0.385   2.713   1.722
  650SOL     OW 1962   1.540   2.136   0.125
  650SOL    HW1 1963   1.479   2.061   0.148
  650SOL    HW2 1964   1.562   2.188   0.208
  651SOL     OW 1965   1.303   2.700   0.042
  651SOL    HW1 1966   1.337   2.607   0.057
  651SOL    HW2 1967   1.321   2.727  -0.053
  652SOL     OW 1968   1.068   3.195   0.849
  652SOL    HW1 1969   1.075   3.111   0.794
  652SOL    HW2 1970   1.130   3.264   0.813
  653SOL     OW 1971   0.319   2.672   0.949
  653SOL    HW1 1972   0.412   2.708   0.954
  653SOL    HW2 1973   0.313   2.587   1.001
  654SOL     OW 1974   0.339   2.371   1.006
  654SOL    HW1 1975   0.287   2.288   0.989
  654SOL    HW2 1976   0.416   2.376   0.942
  655SOL     OW 1977   1.138   2.242   1.678
  655SOL    HW1 1978   1.093   2.305   1.742
  655SOL    HW2 1979   1.231   2.273   1.661
  656SOL     OW 1980   1.160   2.069   1.477
  656SOL    HW1 1981   1.160   2.133   1.554
  656SOL    HW2 1982   1.188   2.117   1.394
  657SOL     OW 1983   0.008   3.188   0.200
  657SOL    HW1 1984  -0.085   3.209   0.169
  657SOL    HW2 1985   0.018   3.089   0.213
  658SOL     OW 1986   0.088   3.663   0.927
  658SOL    HW1 1987   0.046   3.577   0.900
  658SOL    HW2 1988   0.182   3.666   0.893
  659SOL     OW 1989   0.504   3.430   0.910
  659SOL    HW1 1990   0.570   3.504   0.919
  659SOL    HW2 1991   0.548   3.351   0.868
  660SOL     OW 1992   1.002   2.658   1.238
  660SOL    HW1 1993   1.043   2.626   1.324
  660SOL    HW2 1994   0.906   2.631   1.235
  661SOL     OW 1995   0.040   2.406   1.114
  661SOL    HW1 1996   0.125   2.373   1.073
  661SOL    HW2 1997   0.053   2.421   1.212
  662SOL     OW 1998   0.189   2.382   1.722
  662SOL    HW1 1999   0.248   2.342   1.652
  662SOL    HW2 2000   0.131   2.453   1.681
  663SOL     OW 2001   1.369   2.812   1.660
  663SOL    HW1 2002   1.408   2.901   1.680
  663SOL    HW2 2003   1.379   2.792   1.563
  664SOL     OW 2004   0.815   2.434   0.325
  664SOL    HW1 2005   0.822   2.345   0.279
  664SOL    HW2 2006   0.721   2.468   0.317
  665SOL     OW 2007   1.657   2.466   1.206
  665SOL    HW1 2008   1.619   2.397   1.268
  665SOL    HW2 2009   1.739   2.430   1.162
  666SOL     OW 2010   0.252   3.426   1.744
  666SOL    HW1 2011   0.222   3.483   1.820
  666SOL    HW2 2012   0.245   3.329   1.770
  667SOL     OW 2013   0.671   2.326   1.269
  667SOL    HW1 2014   0.637   2.237   1.239
  667SOL    HW2 2015   0.697   2.380   1.189
  668SOL     OW 2016   0.930   3.540   1.465
  668SOL    HW1 2017   0.906   3.522   1.370
  668SOL    HW2 2018   0.960   3.634   1.475
  669SOL     OW 2019   0.473   2.362   0.191
  669SOL    HW1 2020   0.534   2.442   0.195
  669SOL    HW2 2021   0.378   2.393   0.198
  670SOL     OW 2022   0.159   2.999   1.466
  670SOL    HW1 2023   0.181   2.938   1.542
  670SOL    HW2 2024   0.169   2.950   1.380
  671SOL     OW 2025   1.347   2.921   1.234
  671SOL    HW1 2026   1.371   2.858   1.160
  671SOL    HW2 2027   1.257   2.961   1.216
  672SOL     OW 2028   1.302   2.717   0.309
  672SOL    HW1 2029   1.216   2.686   0.351
  672SOL    HW2 2030   1.298   2.703   0.210
  673SOL     OW 2031   1.759   3.609   1.154
  673SOL    HW1 2032   1.820   3.639   1.081
  673SOL    HW2 2033   1.721   3.520   1.132
  674SOL     OW 2034   1.252   3.593   1.128
  674SOL    HW1 2035   1.336   3.598   1.074
  674SOL    HW2 2036   1.229   3.497   1.146
  675SOL     OW 2037   0.083   3.120   1.022
  675SOL    HW1 2038   0.078   3.119   1.122
  675SOL    HW2 2039   0.000   3.079   0.984
  676SOL     OW 2040   0.688   3.524   1.716
  676SOL    HW1 2041   0.632   3.605   1.725
  676SOL    HW2 2042   0.740   3.528   1.630
  677SOL     OW 2043   0.903   1.948   0.133
  677SOL    HW1 2044   0.954   1.949   0.047
  677SOL    HW2 2045   0.959   1.906   0.204
  678SOL     OW 2046   1.726   1.997   0.523
  678SOL    HW1 2047   1.799   1.980   0.456
  678SOL    HW2 2048   1.695   1.910   0.561
  679SOL     OW 2049   1.388   3.435   0.477
  679SOL    HW1 2050   1.455   3.447   0.403
  679SOL    HW2 2051   1.348   3.524   0.500
  680SOL     OW 2052   0.130   3.656   1.851
  680SOL    HW1 2053   0.089   3.582   1.904
  680SOL    HW2 2054   0.194   3.707   1.909
  681SOL     OW 2055   1.280   2.789   0.672
  681SOL    HW1 2056   1.340   2.708   0.674
  681SOL    HW2 2057   1.320   2.858   0.612
  682SOL     OW 2058   0.830   3.135   1.422
  682SOL    HW1 2059   0.825   3.168   1.517
  682SOL    HW2 2060   0.744   3.154   1.376
  683SOL     OW 2061   0.672   3.478   0.154
  683SOL    HW1 2062   0.681   3.488   0.055
  683SOL    HW2 2063   0.632   3.389   0.175
  684SOL     OW 2064   1.650   3.582   1.394
  684SOL    HW1 2065   1.703   3.592   1.310
  684SOL    HW2 2066   1.623   3.672   1.428
  685SOL     OW 2067   1.841   2.037   0.963
  685SOL    HW1 2068   1.880   1.952   0.927
  685SOL    HW2 2069   1.743   2.039   0.944
  686SOL     OW 2070   0.263   2.188   0.720
  686SOL    HW1 2071   0.184   2.239   0.686
  686SOL    HW2 2072   0.254   2.173   0.818
  687SOL     OW 2073   1.194   3.474   0.031
  687SOL    HW1 2074   1.200   3.381   0.068
  687SOL    HW2 2075   1.135   3.474  -0.049
  688SOL     OW 2076   0.822   2.864   1.372
  688SOL    HW1 2077   0.862   2.863   1.280
  688SOL    HW2 2078   0.832   2.956   1.412
  689SOL     OW 2079   0.916   2.772   0.291
  689SOL    HW1 2080   0.979   2.810   0.223
  689SOL    HW2 2081   0.956   2.689   0.330
  690SOL     OW 2082   1.504   3.469   0.044
  690SOL    HW1 2083   1.412   3.506   0.051
  690SOL    HW2 2084   1.542   3.489  -0.046
  691SOL     OW 2085   0.372   3.150   1.490
  691SOL    HW1 2086   0.359   3.243   1.456
  691SOL    HW2 2087   0.288   3.098   1.477
  692SOL     OW 2088   1.614   3.154   1.289
  692SOL    HW1 2089   1.674   3.157   1.369
  692SOL    HW2 2090   1.539   3.218   1.302
  693SOL     OW 2091   1.039   2.960   0.696
  693SOL    HW1 2092   0.969   2.913   0.750
  693SOL    HW2 2093   1.098   2.892   0.653
  694SOL     OW 2094   1.014   2.098   0.971
  694SOL    HW1 2095   1.006   2.062   0.878
  694SOL    HW2 2096   1.012   2.022   1.036
  695SOL     OW 2097   0.590   3.349   0.491
  695SOL    HW1 2098   0.632   3.291   0.421
  695SOL    HW2 2099   0.546   3.428   0.447
  696SOL     OW 2100   1.709   2.247   1.381
  696SOL    HW1 2101   1.782   2.316   1.385
  696SOL    HW2 2102   1.737   2.172   1.322
  697SOL     OW 2103   0.255   3.210   0.290
  697SOL    HW1 2104   0.159   3.211   0.263
  697SOL    HW2 2105   0.267   3.263   0.374
  698SOL     OW 2106   0.105   2.875   1.726
  698SOL    HW1 2107   0.028   2.842   1.780
  698SOL    HW2 2108   0.190   2.845   1.768
  699SOL     OW 2109   0.672   2.065   1.489
  699SOL    HW1 2110   0.762   2.049   1.449
  699SOL    HW2 2111   0.680   2.070   1.588
  700SOL     OW 2112   0.075   2.207   0.033
  700SOL    HW1 2113  -0.017   2.179   0.004
  700SOL    HW2 2114   0.106   2.284  -0.023
  701SOL     OW 2115   1.440   2.718   1.398
  701SOL    HW1 2116   1.383   2.770   1.335
  701SOL    HW2 2117   1.536   2.730   1.374
  702SOL     OW 2118   0.072   2.028   0.318
  702SOL    HW1 2119   0.055   2.111   0.264
  702SOL    HW2 2120   0.162   1.991   0.296
  703SOL     OW 2121   1.183   3.197   0.119
  703SOL    HW1 2122   1.084   3.186   0.121
  703SOL    HW2 2123   1.217   3.212   0.212
  704SOL     OW 2124   0.613   2.704   1.431
  704SOL    HW1 2125   0.669   2.785   1.414
  704SOL    HW2 2126   0.672   2.624   1.434
  705SOL     OW 2127   1.493   3.629   0.959
  705SOL    HW1 2128   1.526   3.693   0.890
  705SOL    HW2 2129   1.559   3.623   1.034
  706SOL     OW 2130   0.716   2.427   1.708
  706SOL    HW1 2131   0.735   2.492   1.782
  706SOL    HW2 2132   0.776   2.347   1.717
  707SOL     OW 2133   1.450   3.082   1.633
  707SOL    HW1 2134   1.441   3.072   1.732
  707SOL    HW2 2135   1.546   3.075   1.607
  708SOL     OW 2136   0.390   3.603   1.560
  708SOL    HW1 2137   0.299   3.644   1.558
  708SOL    HW2 2138   0.383   3.509   1.592
  709SOL     OW 2139   1.674   2.745   1.254
  709SOL    HW1 2140   1.647   2.656   1.217
  709SOL    HW2 2141   1.675   2.813   1.181
  710SOL     OW 2142   1.225   2.187   0.449
  710SOL    HW1 2143   1.290   2.113   0.438
  710SOL    HW2 2144   1.245   2.237   0.533
  711SOL     OW 2145   0.594   2.607   0.652
  711SOL    HW1 2146   0.644   2.692   0.633
  711SOL    HW2 2147   0.506   2.609   0.604
  712SOL     OW 2148   1.777   2.204   1.642
  712SOL    HW1 2149   1.760   2.235   1.548
  712SOL    HW2 2150   1.693   2.167   1.680
  713SOL     OW 2151   1.730   2.796   1.517
  713SOL    HW1 2152   1.768   2.887   1.532
  713SOL    HW2 2153   1.722   2.779   1.418
  714SOL     OW 2154   0.859   3.236   0.016
  714SOL    HW1 2155   0.813   3.251   0.104
  714SOL    HW2 2156   0.903   3.321  -0.014
  715SOL     OW 2157   0.661   3.652   0.953
  715SOL    HW1 2158   0.615   3.740   0.940
  715SOL    HW2 2159   0.760   3.664   0.946
  716SOL     OW 2160   0.859   2.818   0.861
  716SOL    HW1 2161   0.913   2.749   0.909
  716SOL    HW2 2162   0.827   2.887   0.927
  717SOL     OW 2163   1.083   2.846   0.087
  717SOL    HW1 2164   1.060   2.899   0.005
  717SOL    HW2 2165   1.164   2.790   0.068
  718SOL     OW 2166   1.861   3.431   0.851
  718SOL    HW1 2167   1.790   3.419   0.781
  718SOL    HW2 2168   1.862   3.352   0.911
  719SOL     OW 2169   0.221   3.176   1.844
  719SOL    HW1 2170   0.156   3.103   1.823
  719SOL    HW2 2171   0.225   3.190   1.942
  720SOL     OW 2172   0.079   3.102   0.653
  720SOL    HW1 2173   0.078   3.055   0.741
  720SOL    HW2 2174   0.161   3.074   0.602
  721SOL     OW 2175   0.672   3.253   1.624
  721SOL    HW1 2176   0.594   3.203   1.662
  721SOL    HW2 2177   0.669   3.348   1.655
  722SOL     OW 2178   1.824   2.054   1.227
  722SOL    HW1 2179   1.820   1.964   1.271
  722SOL    HW2 2180   1.827   2.043   1.128
  723SOL     OW 2181   0.428   2.286   0.520
  723SOL    HW1 2182   0.458   2.214   0.458
  723SOL    HW2 2183   0.389   2.246   0.603
  724SOL     OW 2184   1.705   3.349   1.104
  724SOL    HW1 2185   1.612   3.324   1.077
  724SOL    HW2 2186   1.731   3.299   1.186
  725SOL     OW 2187   0.317   2.409   1.280
  725SOL    HW1 2188   0.355   2.350   1.352
  725SOL    HW2 2189   0.357   2.383   1.192
  726SOL     OW 2190   0.812   3.448   0.687
  726SOL    HW1 2191   0.844   3.458   0.593
  726SOL    HW2 2192   0.733   3.386   0.689
  727SOL     OW 2193   1.424   2.076   1.112
  727SOL    HW1 2194   1.476   2.011   1.167
  727SOL    HW2 2195   1.375   2.139   1.173
  728SOL     OW 2196   1.001   1.896   1.154
  728SOL    HW1 2197   0.938   1.824   1.123
  728SOL    HW2 2198   1.094   1.860   1.154
  729SOL     OW 2199   0.770   3.192   0.301
  729SOL    HW1 2200   0.724   3.105   0.318
  729SOL    HW2 2201   0.861   3.189   0.342
  730SOL     OW 2202   0.618   3.429   1.284
  730SOL    HW1 2203   0.613   3.511   1.341
  730SOL    HW2 2204   0.707   3.426   1.239
  731SOL     OW 2205   1.352   1.914   0.168
  731SOL    HW1 2206   1.387   1.873   0.084
  731SOL    HW2 2207   1.262   1.876   0.188
  732SOL     OW 2208   1.300   2.315   0.691
  732SOL    HW1 2209   1.241   2.395   0.695
  732SOL    HW2 2210   1.315   2.280   0.784
  733SOL     OW 2211   1.593   2.083   0.882
  733SOL    HW1 2212   1.509   2.082   0.936
  733SOL    HW2 2213   1.595   2.166   0.826
  734SOL     OW 2214   0.039   2.939   0.300
  734SOL    HW1 2215   0.138   2.928   0.291
  734SOL    HW2 2216  -0.001   2.853   0.332
  735SOL     OW 2217   0.875   3.508   0.337
  735SOL    HW1 2218   0.798   3.473   0.283
  735SOL    HW2 2219   0.843   3.579   0.399
  736SOL     OW 2220   0.230   2.490   1.975
  736SOL    HW1 2221   0.137   2.488   2.012
  736SOL    HW2 2222   0.231   2.451   1.883
  737SOL     OW 2223   0.225   2.137   2.858
  737SOL    HW1 2224   0.260   2.120   2.950
  737SOL    HW2 2225   0.137   2.092   2.846
  738SOL     OW 2226   0.019   2.230   2.509
  738SOL    HW1 2227  -0.063   2.273   2.548
  738SOL    HW2 2228  -0.009   2.157   2.446
  739SOL     OW 2229   0.569   3.137   3.027
  739SOL    HW1 2230   0.476   3.130   2.990
  739SOL    HW2 2231   0.580   3.226   3.071
  740SOL     OW 2232   1.555   3.373   2.565
  740SOL    HW1 2233   1.498   3.357   2.646
  740SOL    HW2 2234   1.496   3.383   2.485
  741SOL     OW 2235   1.135   2.565   2.579
  741SOL    HW1 2236   1.192   2.643   2.554
  741SOL    HW2 2237   1.075   2.591   2.655
  742SOL     OW 2238   1.755   2.469   2.093
  742SOL    HW1 2239   1.743   2.456   1.994
  742SOL    HW2 2240   1.725   2.388   2.142
  743SOL     OW 2241   0.768   3.006   2.885
  743SOL    HW1 2242   0.690   3.023   2.945
  743SOL    HW2 2243   0.802   3.093   2.849
  744SOL     OW 2244   0.850   2.660   3.685
  744SOL    HW1 2245   0.846   2.736   3.750
  744SOL    HW2 2246   0.872   2.696   3.594
  745SOL     OW 2247   0.685   2.874   2.527
  745SOL    HW1 2248   0.754   2.858   2.597
  745SOL    HW2 2249   0.612   2.931   2.565
  746SOL     OW 2250   0.686   3.023   3.665
  746SOL    HW1 2251   0.746   3.102   3.679
  746SOL    HW2 2252   0.600   3.054   3.624
  747SOL     OW 2253   0.335   3.297   2.923
  747SOL    HW1 2254   0.257   3.266   2.870
  747SOL    HW2 2255   0.393   3.355   2.866
  748SOL     OW 2256   1.460   3.367   3.201
  748SOL    HW1 2257   1.484   3.461   3.227
  748SOL    HW2 2258   1.444   3.313   3.283
  749SOL     OW 2259   0.438   2.254   3.361
  749SOL    HW1 2260   0.520   2.198   3.370
  749SOL    HW2 2261   0.357   2.196   3.365
  750SOL     OW 2262   1.603   2.309   2.599
  750SOL    HW1 2263   1.529   2.355   2.549
  750SOL    HW2 2264   1.654   2.377   2.652
  751SOL     OW 2265   0.231   3.575   2.345
  751SOL    HW1 2266   0.265   3.652   2.399
  751SOL    HW2 2267   0.275   3.575   2.255
  752SOL     OW 2268   1.127   3.203   3.552
  752SOL    HW1 2269   1.174   3.203   3.640
  752SOL    HW2 2270   1.079   3.116   3.541
  753SOL     OW 2271   0.230   3.296   2.400
  753SOL    HW1 2272   0.204   3.392   2.400
  753SOL    HW2 2273   0.159   3.242   2.445
  754SOL     OW 2274   0.240   2.953   2.748
  754SOL    HW1 2275   0.254   2.869   2.800
  754SOL    HW2 2276   0.185   3.017   2.803
  755SOL     OW 2277   0.620   3.648   3.301
  755SOL    HW1 2278   0.528   3.631   3.336
  755SOL    HW2 2279   0.648   3.740   3.327
  756SOL     OW 2280   0.606   2.826   1.985
  756SOL    HW1 2281   0.613   2.910   1.931
  756SOL    HW2 2282   0.652   2.839   2.073
  757SOL     OW 2283   1.594   1.976   3.342
  757SOL    HW1 2284   1.576   2.043   3.270
  757SOL    HW2 2285   1.591   2.022   3.431
  758SOL     OW 2286   0.122   2.505   2.425
  758SOL    HW1 2287   0.077   2.417   2.442
  758SOL    HW2 2288   0.121   2.559   2.509
  759SOL     OW 2289   1.842   3.629   2.221
  759SOL    HW1 2290   1.896   3.600   2.301
  759SOL    HW2 2291   1.872   3.719   2.192
  760SOL     OW 2292   0.027   3.458   1.979
  760SOL    HW1 2293   0.008   3.362   2.000
  760SOL    HW2 2294  -0.006   3.516   2.054
  761SOL     OW 2295   1.689   2.784   2.474
  761SOL    HW1 2296   1.784   2.755   2.482
  761SOL    HW2 2297   1.681   2.849   2.399
  762SOL     OW 2298   1.641   2.970   2.294
  762SOL    HW1 2299   1.727   2.972   2.242
  762SOL    HW2 2300   1.655   3.017   2.382
  763SOL     OW 2301   0.113   2.599   3.459
  763SOL    HW1 2302   0.201   2.586   3.504
  763SOL    HW2 2303   0.100   2.696   3.437
  764SOL     OW 2304   0.613   3.227   2.588
  764SOL    HW1 2305   0.564   3.140   2.597
  764SOL    HW2 2306   0.590   3.270   2.501
  765SOL     OW 2307   1.293   3.090   3.285
  765SOL    HW1 2308   1.330   3.017   3.227
  765SOL    HW2 2309   1.345   3.095   3.370
  766SOL     OW 2310   0.809   1.866   2.364
  766SOL    HW1 2311   0.849   1.957   2.355
  766SOL    HW2 2312   0.709   1.874   2.370
  767SOL     OW 2313   0.197   2.838   3.126
  767SOL    HW1 2314   0.286   2.793   3.112
  767SOL    HW2 2315   0.124   2.773   3.107
  768SOL     OW 2316   1.525   2.861   2.052
  768SOL    HW1 2317   1.462   2.785   2.065
  768SOL    HW2 2318   1.573   2.879   2.138
  769SOL     OW 2319   1.187   3.654   3.478
  769SOL    HW1 2320   1.211   3.714   3.402
  769SOL    HW2 2321   1.194   3.559   3.448
  770SOL     OW 2322   0.317   2.113   3.663
  770SOL    HW1 2323   0.388   2.184   3.669
  770SOL    HW2 2324   0.229   2.152   3.691
  771SOL     OW 2325   1.466   3.279   2.815
  771SOL    HW1 2326   1.407   3.285   2.895
  771SOL    HW2 2327   1.451   3.191   2.769
  772SOL     OW 2328   1.667   3.576   2.434
  772SOL    HW1 2329   1.626   3.553   2.346
  772SOL    HW2 2330   1.649   3.502   2.499
  773SOL     OW 2331   0.598   2.591   2.132
  773SOL    HW1 2332   0.622   2.660   2.064
  773SOL    HW2 2333   0.520   2.624   2.186
  774SOL     OW 2334   1.281   2.207   2.806
  774SOL    HW1 2335   1.195   2.157   2.793
  774SOL    HW2 2336   1.343   2.153   2.862
  775SOL     OW 2337   1.576   3.524   2.169
  775SOL    HW1 2338   1.665   3.570   2.172
  775SOL    HW2 2339   1.555   3.500   2.074
  776SOL     OW 2340   0.807   2.467   3.327
  776SOL    HW1 2341   0.760   2.464   3.416
  776SOL    HW2 2342   0.756   2.412   3.261
  777SOL     OW 2343   1.394   2.331   3.536
  777SOL    HW1 2344   1.374   2.374   3.624
  777SOL    HW2 2345   1.472   2.269   3.545
  778SOL     OW 2346   0.973   2.752   3.434
  778SOL    HW1 2347   1.019   2.668   3.405
  778SOL    HW2 2348   0.917   2.786   3.359
  779SOL     OW 2349   0.991   2.272   3.104
  779SOL    HW1 2350   0.914   2.306   3.158
  779SOL    HW2 2351   0.957   2.221   3.025
  780SOL     OW 2352   1.041   2.563   2.291
  780SOL    HW1 2353   1.067   2.559   2.387
  780SOL    HW2 2354   0.956   2.512   2.277
  781SOL     OW 2355   0.076   2.673   2.651
  781SOL    HW1 2356   0.175   2.661   2.660
  781SOL    HW2 2357   0.052   2.768   2.672
  782SOL     OW 2358   0.130   3.683   3.433
  782SOL    HW1 2359   0.120   3.668   3.532
  782SOL    HW2 2360   0.044   3.719   3.397
  783SOL     OW 2361   0.865   2.210   2.057
  783SOL    HW1 2362   0.924   2.273   2.008
  783SOL    HW2 2363   0.884   2.116   2.028
  784SOL     OW 2364   1.719   2.447   3.693
  784SOL    HW1 2365   1.693   2.536   3.657
  784SOL    HW2 2366   1.717   2.379   3.620
  785SOL     OW 2367   1.362   3.006   2.407
  785SOL    HW1 2368   1.445   2.977   2.359
  785SOL    HW2 2369   1.313   3.073   2.351
  786SOL     OW 2370   0.550   2.058   2.747
  786SOL    HW1 2371   0.545   2.053   2.847
  786SOL    HW2 2372   0.552   2.154   2.718
  787SOL     OW 2373   1.008   3.318   2.339
  787SOL    HW1 2374   0.962   3.390   2.287
  787SOL    HW2 2375   1.004   3.338   2.437
  788SOL     OW 2376   0.351   3.663   2.715
  788SOL    HW1 2377   0.401   3.577   2.721
  788SOL    HW2 2378   0.416   3.740   2.712
  789SOL     OW 2379   1.795   2.928   2.735
  789SOL    HW1 2380   1.733   2.913   2.659
  789SOL    HW2 2381   1.743   2.939   2.820
  790SOL     OW 2382   1.227   3.412   3.368
  790SOL    HW1 2383   1.233   3.335   3.432
  790SOL    HW2 2384   1.175   3.386   3.288
  791SOL     OW 2385   0.321   2.805   2.104
  791SOL    HW1 2386   0.403   2.844   2.062
  791SOL    HW2 2387   0.294   2.723   2.055
  792SOL     OW 2388   1.458   2.597   2.590
  792SOL    HW1 2389   1.453   2.532   2.665
  792SOL    HW2 2390   1.538   2.656   2.603
  793SOL     OW 2391   0.461   3.128   3.589
  793SOL    HW1 2392   0.411   3.129   3.503
  793SOL    HW2 2393   0.398   3.110   3.665
  794SOL     OW 2394   1.111   3.638   2.099
  794SOL    HW1 2395   1.051   3.576   2.149
  794SOL    HW2 2396   1.142   3.594   2.014
  795SOL     OW 2397   0.202   2.147   3.360
  795SOL    HW1 2398   0.122   2.207   3.347
  795SOL    HW2 2399   0.192   2.098   3.446
  796SOL     OW 2400   1.632   3.239   1.943
  796SOL    HW1 2401   1.600   3.333   1.933
  796SOL    HW2 2402   1.556   3.176   1.931
  797SOL     OW 2403   0.464   3.605   2.185
  797SOL    HW1 2404   0.497   3.644   2.271
  797SOL    HW2 2405   0.540   3.598   2.120
  798SOL     OW 2406   1.400   1.969   2.288
  798SOL    HW1 2407   1.376   1.932   2.198
  798SOL    HW2 2408   1.499   1.985   2.292
  799SOL     OW 2409   0.249   3.647   3.103
  799SOL    HW1 2410   0.306   3.582   3.153
  799SOL    HW2 2411   0.233   3.614   3.010
  800SOL     OW 2412   0.940   3.560   2.766
  800SOL    HW1 2413   1.020   3.503   2.787
  800SOL    HW2 2414   0.891   3.520   2.689
  801SOL     OW 2415   0.382   2.562   2.342
  801SOL    HW1 2416   0.427   2.472   2.339
  801SOL    HW2 2417   0.288   2.551   2.375
  802SOL     OW 2418   1.547   2.084   3.591
  802SOL    HW1 2419   1.542   2.121   3.683
  802SOL    HW2 2420   1.475   2.015   3.579
  803SOL     OW 2421   0.614   1.984   1.979
  803SOL    HW1 2422   0.712   1.962   1.986
  803SOL    HW2 2423   0.583   1.967   1.886
  804SOL     OW 2424   0.781   2.126   3.611
  804SOL    HW1 2425   0.848   2.065   3.654
  804SOL    HW2 2426   0.708   2.145   3.676
  805SOL     OW 2427   0.888   3.376   3.057
  805SOL    HW1 2428   0.865   3.351   2.963
  805SOL    HW2 2429   0.949   3.307   3.096
  806SOL     OW 2430   1.351   2.452   3.295
  806SOL    HW1 2431   1.379   2.409   3.380
  806SOL    HW2 2432   1.376   2.548   3.296
  807SOL     OW 2433   0.803   3.264   2.786
  807SOL    HW1 2434   0.893   3.278   2.744
  807SOL    HW2 2435   0.732   3.266   2.715
  808SOL     OW 2436   0.922   2.365   2.761
  808SOL    HW1 2437   0.897   2.356   2.665
  808SOL    HW2 2438   0.970   2.283   2.792
  809SOL     OW 2439   0.539   1.926   2.374
  809SOL    HW1 2440   0.458   1.927   2.432
  809SOL    HW2 2441   0.542   2.009   2.319
  810SOL     OW 2442   1.434   3.050   1.903
  810SOL    HW1 2443   1.466   2.974   1.960
  810SOL    HW2 2444   1.342   3.077   1.933
  811SOL     OW 2445   0.297   1.897   2.033
  811SOL    HW1 2446   0.346   1.981   2.012
  811SOL    HW2 2447   0.359   1.832   2.078
  812SOL     OW 2448   0.935   2.098   2.342
  812SOL    HW1 2449   0.887   2.139   2.264
  812SOL    HW2 2450   1.034   2.096   2.323
  813SOL     OW 2451   1.076   2.545   3.326
  813SOL    HW1 2452   0.996   2.484   3.329
  813SOL    HW2 2453   1.157   2.492   3.302
  814SOL     OW 2454   1.227   3.432   2.655
  814SOL    HW1 2455   1.248   3.506   2.590
  814SOL    HW2 2456   1.295   3.432   2.728
  815SOL     OW 2457   0.459   3.014   2.603
  815SOL    HW1 2458   0.388   2.987   2.668
  815SOL    HW2 2459   0.433   2.986   2.510
  816SOL     OW 2460   1.271   3.659   2.453
  816SOL    HW1 2461   1.315   3.723   2.389
  816SOL    HW2 2462   1.221   3.711   2.523
  817SOL     OW 2463   1.032   2.411   1.878
  817SOL    HW1 2464   0.991   2.493   1.839
  817SOL    HW2 2465   1.096   2.437   1.951
  818SOL     OW 2466   0.078   2.418   3.248
  818SOL    HW1 2467   0.170   2.417   3.207
  818SOL    HW2 2468   0.072   2.492   3.315
  819SOL     OW 2469   0.561   2.084   3.009
  819SOL    HW1 2470   0.599   2.000   3.046
  819SOL    HW2 2471   0.473   2.103   3.053
  820SOL     OW 2472   0.866   2.316   2.504
  820SOL    HW1 2473   0.834   2.388   2.442
  820SOL    HW2 2474   0.890   2.235   2.451
  821SOL     OW 2475   1.017   1.901   2.615
  821SOL    HW1 2476   0.945   1.906   2.546
  821SOL    HW2 2477   0.993   1.832   2.684
  822SOL     OW 2478   1.429   3.035   2.729
  822SOL    HW1 2479   1.374   2.951   2.722
  822SOL    HW2 2480   1.455   3.064   2.637
  823SOL     OW 2481   1.466   2.452   2.854
  823SOL    HW1 2482   1.436   2.357   2.861
  823SOL    HW2 2483   1.539   2.468   2.920
  824SOL     OW 2484   1.857   2.695   2.239
  824SOL    HW1 2485   1.899   2.631   2.303
  824SOL    HW2 2486   1.819   2.644   2.161
  825SOL     OW 2487   0.488   3.247   2.036
  825SOL    HW1 2488   0.401   3.232   2.083
  825SOL    HW2 2489   0.471   3.273   1.941
  826SOL     OW 2490   1.664   3.142   2.519
  826SOL    HW1 2491   1.763   3.150   2.533
  826SOL    HW2 2492   1.619   3.226   2.550
  827SOL     OW 2493   1.390   2.437   1.940
  827SOL    HW1 2494   1.336   2.416   2.021
  827SOL    HW2 2495   1.481   2.396   1.949
  828SOL     OW 2496   0.527   2.118   2.190
  828SOL    HW1 2497   0.554   2.059   2.115
  828SOL    HW2 2498   0.527   2.213   2.159
  829SOL     OW 2499   1.754   3.085   3.450
  829SOL    HW1 2500   1.845   3.046   3.437
  829SOL    HW2 2501   1.762   3.181   3.474
  830SOL     OW 2502   1.064   3.209   3.202
  830SOL    HW1 2503   0.984   3.186   3.257
  830SOL    HW2 2504   1.147   3.183   3.251
  831SOL     OW 2505   1.592   3.491   3.487
  831SOL    HW1 2506   1.619   3.525   3.397
  831SOL    HW2 2507   1.671   3.453   3.533
  832SOL     OW 2508   1.111   3.057   2.962
  832SOL    HW1 2509   1.071   3.101   3.043
  832SOL    HW2 2510   1.070   3.094   2.879
  833SOL     OW 2511   1.638   2.961   2.941
  833SOL    HW1 2512   1.643   3.042   3.000
  833SOL    HW2 2513   1.552   2.963   2.890
  834SOL     OW 2514   0.915   1.951   3.264
  834SOL    HW1 2515   0.940   1.931   3.169
  834SOL    HW2 2516   0.987   2.007   3.306
  835SOL     OW 2517   0.980   2.978   3.581
  835SOL    HW1 2518   0.881   2.984   3.591
  835SOL    HW2 2519   1.003   2.898   3.525
  836SOL     OW 2520   0.705   2.912   2.230
  836SOL    HW1 2521   0.691   2.919   2.329
  836SOL    HW2 2522   0.789   2.861   2.212
  837SOL     OW 2523   0.410   2.675   3.113
  837SOL    HW1 2524   0.496   2.687   3.163
  837SOL    HW2 2525   0.368   2.588   3.140
  838SOL     OW 2526   1.274   2.248   3.124
  838SOL    HW1 2527   1.295   2.322   3.188
  838SOL    HW2 2528   1.185   2.265   3.081
  839SOL     OW 2529   0.064   3.426   3.193
  839SOL    HW1 2530   0.018   3.508   3.159
  839SOL    HW2 2531   0.162   3.445   3.202
  840SOL     OW 2532   0.367   2.962   2.363
  840SOL    HW1 2533   0.360   3.045   2.307
  840SOL    HW2 2534   0.371   2.882   2.303
  841SOL     OW 2535   0.566   2.399   2.727
  841SOL    HW1 2536   0.578   2.465   2.653
  841SOL    HW2 2537   0.612   2.433   2.810
  842SOL     OW 2538   1.252   3.210   2.250
  842SOL    HW1 2539   1.302   3.287   2.290
  842SOL    HW2 2540   1.157   3.212   2.282
  843SOL     OW 2541   1.272   3.307   3.004
  843SOL    HW1 2542   1.319   3.320   3.091
  843SOL    HW2 2543   1.206   3.233   3.013
  844SOL     OW 2544   1.582   2.501   2.334
  844SOL    HW1 2545   1.551   2.562   2.407
  844SOL    HW2 2546   1.632   2.553   2.265
  845SOL     OW 2547   0.354   3.372   3.191
  845SOL    HW1 2548   0.333   3.328   3.104
  845SOL    HW2 2549   0.451   3.398   3.194
  846SOL     OW 2550   0.402   2.613   3.460
  846SOL    HW1 2551   0.470   2.668   3.413
  846SOL    HW2 2552   0.442   2.525   3.487
  847SOL     OW 2553   1.587   2.641   3.532
  847SOL    HW1 2554   1.495   2.679   3.527
  847SOL    HW2 2555   1.647   2.688   3.467
  848SOL     OW 2556   1.013   1.967   3.632
  848SOL    HW1 2557   1.019   2.052   3.580
  848SOL    HW2 2558   1.045   1.891   3.575
  849SOL     OW 2559   0.504   1.912   3.602
  849SOL    HW1 2560   0.462   1.855   3.532
  849SOL    HW2 2561   0.438   1.981   3.634
  850SOL     OW 2562   0.573   2.732   2.891
  850SOL    HW1 2563   0.617   2.821   2.882
  850SOL    HW2 2564   0.510   2.732   2.968
  851SOL     OW 2565   1.360   2.724   2.907
  851SOL    HW1 2566   1.285   2.724   2.841
  851SOL    HW2 2567   1.397   2.632   2.916
  852SOL     OW 2568   1.209   2.387   2.137
  852SOL    HW1 2569   1.222   2.303   2.191
  852SOL    HW2 2570   1.180   2.461   2.197
  853SOL     OW 2571   0.307   2.075   3.093
  853SOL    HW1 2572   0.284   2.112   3.183
  853SOL    HW2 2573   0.277   1.980   3.087
  854SOL     OW 2574   0.037   3.172   3.144
  854SOL    HW1 2575   0.090   3.123   3.212
  854SOL    HW2 2576   0.059   3.270   3.149
  855SOL     OW 2577   0.732   2.496   2.926
  855SOL    HW1 2578   0.791   2.470   2.850
  855SOL    HW2 2579   0.704   2.592   2.915
  856SOL     OW 2580   1.728   2.797   3.716
  856SOL    HW1 2581   1.682   2.790   3.627
  856SOL    HW2 2582   1.666   2.841   3.782
  857SOL     OW 2583   0.307   1.925   2.480
  857SOL    HW1 2584   0.296   2.019   2.513
  857SOL    HW2 2585   0.302   1.862   2.557
  858SOL     OW 2586   1.622   2.229   2.236
  858SOL    HW1 2587   1.624   2.153   2.300
  858SOL    HW2 2588   1.574   2.306   2.276
  859SOL     OW 2589   1.023   2.628   2.828
  859SOL    HW1 2590   1.038   2.649   2.924
  859SOL    HW2 2591   0.993   2.533   2.819
  860SOL     OW 2592   0.980   3.435   3.562
  860SOL    HW1 2593   0.960   3.479   3.474
  860SOL    HW2 2594   1.019   3.344   3.546
  861SOL     OW 2595   1.859   3.380   3.467
  861SOL    HW1 2596   1.873   3.407   3.372
  861SOL    HW2 2597   1.942   3.402   3.520
  862SOL     OW 2598   0.350   2.760   3.666
  862SOL    HW1 2599   0.426   2.804   3.714
  862SOL    HW2 2600   0.385   2.713   3.584
  863SOL     OW 2601   1.540   2.136   1.987
  863SOL    HW1 2602   1.479   2.061   2.010
  863SOL    HW2 2603   1.562   2.188   2.070
  864SOL     OW 2604   1.303   2.700   1.904
  864SOL    HW1 2605   1.337   2.607   1.919
  864SOL    HW2 2606   1.321   2.727   1.809
  865SOL     OW 2607   1.068   3.195   2.711
  865SOL    HW1 2608   1.075   3.111   2.656
  865SOL    HW2 2609   1.130   3.264   2.675
  866SOL     OW 2610   0.319   2.672   2.811
  866SOL    HW1 2611   0.412   2.708   2.816
  866SOL    HW2 2612   0.313   2.587   2.863
  867SOL     OW 2613   0.339   2.371   2.868
  867SOL    HW1 2614   0.287   2.288   2.851
  867SOL    HW2 2615   0.416   2.376   2.804
  868SOL     OW 2616   1.138   2.242   3.540
  868SOL    HW1 2617   1.093   2.305   3.604
  868SOL    HW2 2618   1.231   2.273   3.523
  869SOL     OW 2619   1.160   2.069   3.339
  869SOL    HW1 2620   1.160   2.133   3.416
  869SOL    HW2 2621   1.188   2.117   3.256
  870SOL     OW 2622   0.008   3.188   2.062
  870SOL    HW1 2623  -0.085   3.209   2.031
  870SOL    HW2 2624   0.018   3.089   2.075
  871SOL     OW 2625   0.088   3.663   2.789
  871SOL    HW1 2626   0.046   3.577   2.762
  871SOL    HW2 2627   0.182   3.666   2.755
  872SOL     OW 2628   0.504   3.430   2.772
  872SOL    HW1 2629   0.570   3.504   2.781
  872SOL    HW2 2630   0.548   3.351   2.730
  873SOL     OW 2631   1.002   2.658   3.100
  873SOL    HW1 2632   1.043   2.626   3.186
  873SOL    HW2 2633   0.906   2.631   3.097
  874SOL     OW 2634   0.040   2.406   2.976
  874SOL    HW1 2635   0.125   2.373   2.935
  874SOL    HW2 2636   0.053   2.421   3.074
  875SOL     OW 2637   0.189   2.382   3.584
  875SOL    HW1 2638   0.248   2.342   3.514
  875SOL    HW2 2639   0.131   2.453   3.543
  876SOL     OW 2640   1.369   2.812   3.522
  876SOL    HW1 2641   1.408   2.901   3.542
  876SOL    HW2 2642   1.379   2.792   3.425
  877SOL     OW 2643   0.815   2.434   2.187
  877SOL    HW1 2644   0.822   2.345   2.141
  877SOL    HW2 2645   0.721   2.468   2.179
  878SOL     OW 2646   1.657   2.466   3.068
  878SOL    HW1 2647   1.619   2.397   3.130
  878SOL    HW2 2648   1.739   2.430   3.024
  879SOL     OW 2649   0.252   3.426   3.606
  879SOL    HW1 2650   0.222   3.483   3.682
  879SOL    HW2 2651   0.245   3.329   3.632
  880SOL     OW 2652   0.671   2.326   3.131
  880SOL    HW1 2653   0.637   2.237   3.101
  880SOL    HW2 2654   0.697   2.380   3.051
  881SOL     OW 2655   0.930   3.540   3.327
  881SOL    HW1 2656   0.906   3.522   3.232
  881SOL    HW2 2657   0.960   3.634   3.337
  882SOL     OW 2658   0.473   2.362   2.053
  882SOL    HW1 2659   0.534   2.442   2.057
  882SOL    HW2 2660   0.378   2.393   2.060
  883SOL     OW 2661   0.159   2.999   3.328
  883SOL    HW1 2662   0.181   2.938   3.404
  883SOL    HW2 2663   0.169   2.950   3.242
  884SOL     OW 2664   1.347   2.921   3.096
  884SOL    HW1 2665   1.371   2.858   3.022
  884SOL    HW2 2666   1.257   2.961   3.078
  885SOL     OW 2667   1.302   2.717   2.171
  885SOL    HW1 2668   1.216   2.686   2.213
  885SOL    HW2 2669   1.298   2.703   2.072
  886SOL     OW 2670   1.759   3.609   3.016
  886SOL    HW1 2671   1.820   3.639   2.943
  886SOL    HW2 2672   1.721   3.520   2.994
  887SOL     OW 2673   1.252   3.593   2.990
  887SOL    HW1 2674   1.336   3.598   2.936
  887SOL    HW2 2675   1.229   3.497   3.008
  888SOL     OW 2676   0.083   3.120   2.884
  888SOL    HW1 2677   0.078   3.119   2.984
  888SOL    HW2 2678   0.000   3.079   2.846
  889SOL     OW 2679   0.688   3.524   3.578
  889SOL    HW1 2680   0.632   3.605   3.587
  889SOL    HW2 2681   0.740   3.528   3.492
  890SOL     OW 2682   1.726   1.997   2.385
  890SOL    HW1 2683   1.799   1.980   2.318
  890SOL    HW2 2684   1.695   1.910   2.423
  891SOL     OW 2685   1.388   3.435   2.339
  891SOL    HW1 2686   1.455   3.447   2.265
  891SOL    HW2 2687   1.348   3.524   2.362
  892SOL     OW 2688   0.130   3.656   3.713
  892SOL    HW1 2689   0.089   3.582   3.766
  892SOL    HW2 2690   0.194   3.707   3.771
  893SOL     OW 2691   1.280   2.789   2.534
  893SOL    HW1 2692   1.340   2.708   2.536
  893SOL    HW2 2693   1.320   2.858   2.474
  894SOL     OW 2694   0.830   3.135   3.284
  894SOL    HW1 2695   0.825   3.168   3.379
  894SOL    HW2 2696   0.744   3.154   3.238
  895SOL     OW 2697   0.672   3.478   2.016
  895SOL    HW1 2698   0.681   3.488   1.917
  895SOL    HW2 2699   0.632   3.389   2.037
  896SOL     OW 2700   1.650   3.582   3.256
  896SOL    HW1 2701   1.703   3.592   3.172
  896SOL    HW2 2702   1.623   3.672   3.290
  897SOL     OW 2703   1.841   2.037   2.825
  897SOL    HW1 2704   1.880   1.952   2.789
  897SOL    HW2 2705   1.743   2.039   2.806
  898SOL     OW 2706   0.263   2.188   2.582
  898SOL    HW1 2707   0.184   2.239   2.548
  898SOL    HW2 2708   0.254   2.173   2.680
  899SOL     OW 2709   1.194   3.474   1.893
  899SOL    HW1 2710   1.200   3.381   1.930
  899SOL    HW2 2711   1.135   3.474   1.813
  900SOL     OW 2712   0.822   2.864   3.234
  900SOL    HW1 2713   0.862   2.863   3.142
  900SOL    HW2 2714   0.832   2.956   3.274
  901SOL     OW 2715   0.916   2.772   2.153
  901SOL    HW1 2716   0.979   2.810   2.085
  901SOL    HW2 2717   0.956   2.689   2.192
  902SOL     OW 2718   1.504   3.469   1.906
  902SOL    HW1 2719   1.412   3.506   1.913
  902SOL    HW2 2720   1.542   3.489   1.816
  903SOL     OW 2721   0.372   3.150   3.352
  903SOL    HW1 2722   0.359   3.243   3.318
  903SOL    HW2 2723   0.288   3.098   3.339
  904SOL     OW 2724   1.614   3.154   3.151
  904SOL    HW1 2725   1.674   3.157   3.231
  904SOL    HW2 2726   1.539   3.218   3.164
  905SOL     OW 2727   1.039   2.960   2.558
  905SOL    HW1 2728   0.969   2.913   2.612
  905SOL    HW2 2729   1.098   2.892   2.515
  906SOL     OW 2730   1.014   2.098   2.833
  906SOL    HW1 2731   1.006   2.062   2.740
  906SOL    HW2 2732   1.012   2.022   2.898
  907SOL     OW 2733   0.590   3.349   2.353
  907SOL    HW1 2734   0.632   3.291   2.283
  907SOL    HW2 2735   0.546   3.428   2.309
  908SOL     OW 2736   1.709   2.247   3.243
  908SOL    HW1 2737   1.782   2.316   3.247
  908SOL    HW2 2738   1.737   2.172   3.184
  909SOL     OW 2739   0.255   3.210   2.152
  909SOL    HW1 2740   0.159   3.211   2.125
  909SOL    HW2 2741   0.267   3.263   2.236
  910SOL     OW 2742   0.105   2.875   3.588
  910SOL    HW1 2743   0.028   2.842   3.642
  910SOL    HW2 2744   0.190   2.845   3.630
  911SOL     OW 2745   0.672   2.065   3.351
  911SOL    HW1 2746   0.762   2.049   3.311
  911SOL    HW2 2747   0.680   2.070   3.450
  912SOL     OW 2748   0.075   2.207   1.895
  912SOL    HW1 2749  -0.017   2.179   1.866
  912SOL    HW2 2750   0.106   2.284   1.839
  913SOL     OW 2751   1.440   2.718   3.260
  913SOL    HW1 2752   1.383   2.770   3.197
  913SOL    HW2 2753   1.536   2.730   3.236
  914SOL     OW 2754   0.072   2.028   2.180
  914SOL    HW1 2755   0.055   2.111   2.126
  914SOL    HW2 2756   0.162   1.991   2.158
  915SOL     OW 2757   1.183   3.197   1.981
  915SOL    HW1 2758   1.084   3.186   1.983
  915SOL    HW2 2759   1.217   3.212   2.074
  916SOL     OW 2760   0.613   2.704   3.293
  916SOL    HW1 2761   0.669   2.785   3.276
  916SOL    HW2 2762   0.672   2.624   3.296
  917SOL     OW 2763   1.493   3.629   2.821
  917SOL    HW1 2764   1.526   3.693   2.752
  917SOL    HW2 2765   1.559   3.623   2.896
  918SOL     OW 2766   0.716   2.427   3.570
  918SOL    HW1 2767   0.735   2.492   3.644
  918SOL    HW2 2768   0.776   2.347   3.579
  919SOL     OW 2769   1.450   3.082   3.495
  919SOL    HW1 2770   1.441   3.072   3.594
  919SOL    HW2 2771   1.546   3.075   3.469
  920SOL     OW 2772   0.390   3.603   3.422
  920SOL    HW1 2773   0.299   3.644   3.420
  920SOL    HW2 2774   0.383   3.509   3.454
  921SOL     OW 2775   1.674   2.745   3.116
  921SOL    HW1 2776   1.647   2.656   3.079
  921SOL    HW2 2777   1.675   2.813   3.043
  922SOL     OW 2778   1.225   2.187   2.311
  922SOL    HW1 2779   1.290   2.113   2.300
  922SOL    HW2 2780   1.245   2.237   2.395
  923SOL     OW 2781   0.594   2.607   2.514
  923SOL    HW1 2782   0.644   2.692   2.495
  923SOL    HW2 2783   0.506   2.609   2.466
  924SOL     OW 2784   1.777   2.204   3.504
  924SOL    HW1 2785   1.760   2.235   3.410
  924SOL    HW2 2786   1.693   2.167   3.542
  925SOL     OW 2787   1.730   2.796   3.379
  925SOL    HW1 2788   1.768   2.887   3.394
  925SOL    HW2 2789   1.722   2.779   3.280
  926SOL     OW 2790   0.859   3.236   1.878
  926SOL    HW1 2791   0.813   3.251   1.966
  926SOL    HW2 2792   0.903   3.321   1.848
  927SOL     OW 2793   0.661   3.652   2.815
  927SOL    HW1 2794   0.615   3.740   2.802
  927SOL    HW2 2795   0.760   3.664   2.808
  928SOL     OW 2796   0.859   2.818   2.723
  928SOL    HW1 2797   0.913   2.749   2.771
  928SOL    HW2 2798   0.827   2.887   2.789
  929SOL     OW 2799   1.083   2.846   1.949
  929SOL    HW1 2800   1.060   2.899   1.867
  929SOL    HW2 2801   1.164   2.790   1.930
  930SOL     OW 2802   1.861   3.431   2.713
  930SOL    HW1 2803   1.790   3.419   2.643
  930SOL    HW2 2804   1.862   3.352   2.773
  931SOL     OW 2805   0.221   3.176   3.706
  931SOL    HW1 2806   0.156   3.103   3.685
  931SOL    HW2 2807   0.225   3.190   3.804
  932SOL     OW 2808   0.079   3.102   2.515
  932SOL    HW1 2809   0.078   3.055   2.603
  932SOL    HW2 2810   0.161   3.074   2.464
  933SOL     OW 2811   0.672   3.253   3.486
  933SOL    HW1 2812   0.594   3.203   3.524
  933SOL    HW2 2813   0.669   3.348   3.517
  934SOL     OW 2814   1.824   2.054   3.089
  934SOL    HW1 2815   1.820   1.964   3.133
  934SOL    HW2 2816   1.827   2.043   2.990
  935SOL     OW 2817   0.428   2.286   2.382
  935SOL    HW1 2818   0.458   2.214   2.320
  935SOL    HW2 2819   0.389   2.246   2.465
  936SOL     OW 2820   1.705   3.349   2.966
  936SOL    HW1 2821   1.612   3.324   2.939
  936SOL    HW2 2822   1.731   3.299   3.048
  937SOL     OW 2823   0.317   2.409   3.142
  937SOL    HW1 2824   0.355   2.350   3.214
  937SOL    HW2 2825   0.357   2.383   3.054
  938SOL     OW 2826   0.812   3.448   2.549
  938SOL    HW1 2827   0.844   3.458   2.455
  938SOL    HW2 2828   0.733   3.386   2.551
  939SOL     OW 2829   1.424   2.076   2.974
  939SOL    HW1 2830   1.476   2.011   3.029
  939SOL    HW2 2831   1.375   2.139   3.035
  940SOL     OW 2832   1.001   1.896   3.016
  940SOL    HW1 2833   0.938   1.824   2.985
  940SOL    HW2 2834   1.094   1.860   3.016
  941SOL     OW 2835   0.770   3.192   2.163
  941SOL    HW1 2836   0.724   3.105   2.180
  941SOL    HW2 2837   0.861   3.189   2.204
  942SOL     OW 2838   0.618   3.429   3.146
  942SOL    HW1 2839   0.613   3.511   3.203
  942SOL    HW2 2840   0.707   3.426   3.101
  943SOL     OW 2841   1.352   1.914   2.030
  943SOL    HW1 2842   1.387   1.873   1.946
  943SOL    HW2 2843   1.262   1.876   2.050
  944SOL     OW 2844   1.300   2.315   2.553
  944SOL    HW1 2845   1.241   2.395   2.557
  944SOL    HW2 2846   1.315   2.280   2.646
  945SOL     OW 2847   1.593   2.083   2.744
  945SOL    HW1 2848   1.509   2.082   2.798
  945SOL    HW2 2849   1.595   2.166   2.688
  946SOL     OW 2850   0.039   2.939   2.162
  946SOL    HW1 2851   0.138   2.928   2.153
  946SOL    HW2 2852  -0.001   2.853   2.194
  947SOL     OW 2853   0.875   3.508   2.199
  947SOL    HW1 2854   0.798   3.473   2.145
  947SOL    HW2 2855   0.843   3.579   2.261
  948SOL     OW 2856   0.230   2.490   3.837
  948SOL    HW1 2857   0.137   2.488   3.874
  948SOL    HW2 2858   0.231   2.451   3.745
  949SOL     OW 2859   0.225   2.137   4.720
  949SOL    HW1 2860   0.260   2.120   4.812
  949SOL    HW2 2861   0.137   2.092   4.708
  950SOL     OW 2862   0.019   2.230   4.371
  950SOL    HW1 2863  -0.063   2.273   4.410
  950SOL    HW2 2864  -0.009   2.157   4.308
  951SOL     OW 2865   1.555   3.373   4.427
  951SOL    HW1 2866   1.498   3.357   4.508
  951SOL    HW2 2867   1.496   3.383   4.347
  952SOL     OW 2868   1.135   2.565   4.441
  952SOL    HW1 2869   1.192   2.643   4.416
  952SOL    HW2 2870   1.075   2.591   4.517
  953SOL     OW 2871   1.755   2.469   3.955
  953SOL    HW1 2872   1.743   2.456   3.856
  953SOL    HW2 2873   1.725   2.388   4.004
  954SOL     OW 2874   0.685   2.874   4.389
  954SOL    HW1 2875   0.754   2.858   4.459
  954SOL    HW2 2876   0.612   2.931   4.427
  955SOL     OW 2877   1.603   2.309   4.461
  955SOL    HW1 2878   1.529   2.355   4.411
  955SOL    HW2 2879   1.654   2.377   4.514
  956SOL     OW 2880   0.231   3.575   4.207
  956SOL    HW1 2881   0.265   3.652   4.261
  956SOL    HW2 2882   0.275   3.575   4.117
  957SOL     OW 2883   0.230   3.296   4.262
  957SOL    HW1 2884   0.204   3.392   4.262
  957SOL    HW2 2885   0.159   3.242   4.307
  958SOL     OW 2886   0.240   2.953   4.610
  958SOL    HW1 2887   0.254   2.869   4.662
  958SOL    HW2 2888   0.185   3.017   4.665
  959SOL     OW 2889   0.606   2.826   3.847
  959SOL    HW1 2890   0.613   2.910   3.793
  959SOL    HW2 2891   0.652   2.839   3.935
  960SOL     OW 2892   0.122   2.505   4.287
  960SOL    HW1 2893   0.077   2.417   4.304
  960SOL    HW2 2894   0.121   2.559   4.371
  961SOL     OW 2895   1.842   3.629   4.083
  961SOL    HW1 2896   1.896   3.600   4.163
  961SOL    HW2 2897   1.872   3.719   4.054
  962SOL     OW 2898   0.027   3.458   3.841
  962SOL    HW1 2899   0.008   3.362   3.862
  962SOL    HW2 2900  -0.006   3.516   3.916
  963SOL     OW 2901   1.689   2.784   4.336
  963SOL    HW1 2902   1.784   2.755   4.344
  963SOL    HW2 2903   1.681   2.849   4.261
  964SOL     OW 2904   1.641   2.970   4.156
  964SOL    HW1 2905   1.727   2.972   4.104
  964SOL    HW2 2906   1.655   3.017   4.244
  965SOL     OW 2907   0.613   3.227   4.450
  965SOL    HW1 2908   0.564   3.140   4.459
  965SOL    HW2 2909   0.590   3.270   4.363
  966SOL     OW 2910   0.809   1.866   4.226
  966SOL    HW1 2911   0.849   1.957   4.217
  966SOL    HW2 2912   0.709   1.874   4.232
  967SOL     OW 2913   1.525   2.861   3.914
  967SOL    HW1 2914   1.462   2.785   3.927
  967SOL    HW2 2915   1.573   2.879   4.000
  968SOL     OW 2916   1.667   3.576   4.296
  968SOL    HW1 2917   1.626   3.553   4.208
  968SOL    HW2 2918   1.649   3.502   4.361
  969SOL     OW 2919   0.598   2.591   3.994
  969SOL    HW1 2920   0.622   2.660   3.926
  969SOL    HW2 2921   0.520   2.624   4.048
  970SOL     OW 2922   1.281   2.207   4.668
  970SOL    HW1 2923   1.195   2.157   4.655
  970SOL    HW2 2924   1.343   2.153   4.724
  971SOL     OW 2925   1.576   3.524   4.031
  971SOL    HW1 2926   1.665   3.570   4.034
  971SOL    HW2 2927   1.555   3.500   3.936
  972SOL     OW 2928   1.041   2.563   4.153
  972SOL    HW1 2929   1.067   2.559   4.249
  972SOL    HW2 2930   0.956   2.512   4.139
  973SOL     OW 2931   0.076   2.673   4.513
  973SOL    HW1 2932   0.175   2.661   4.522
  973SOL    HW2 2933   0.052   2.768   4.534
  974SOL     OW 2934   0.865   2.210   3.919
  974SOL    HW1 2935   0.924   2.273   3.870
  974SOL    HW2 2936   0.884   2.116   3.890
  975SOL     OW 2937   1.362   3.006   4.269
  975SOL    HW1 2938   1.445   2.977   4.221
  975SOL    HW2 2939   1.313   3.073   4.213
  976SOL     OW 2940   1.008   3.318   4.201
  976SOL    HW1 2941   0.962   3.390   4.149
  976SOL    HW2 2942   1.004   3.338   4.299
  977SOL     OW 2943   0.351   3.663   4.577
  977SOL    HW1 2944   0.401   3.577   4.583
  977SOL    HW2 2945   0.416   3.740   4.574
  978SOL     OW 2946   1.795   2.928   4.597
  978SOL    HW1 2947   1.733   2.913   4.521
  978SOL    HW2 2948   1.743   2.939   4.682
  979SOL     OW 2949   0.321   2.805   3.966
  979SOL    HW1 2950   0.403   2.844   3.924
  979SOL    HW2 2951   0.294   2.723   3.917
  980SOL     OW 2952   1.458   2.597   4.452
  980SOL    HW1 2953   1.453   2.532   4.527
  980SOL    HW2 2954   1.538   2.656   4.465
  981SOL     OW 2955   1.111   3.638   3.961
  981SOL    HW1 2956   1.051   3.576   4.011
  981SOL    HW2 2957   1.142   3.594   3.876
  982SOL     OW 2958   1.632   3.239   3.805
  982SOL    HW1 2959   1.600   3.333   3.795
  982SOL    HW2 2960   1.556   3.176   3.793
  983SOL     OW 2961   0.464   3.605   4.047
  983SOL    HW1 2962   0.497   3.644   4.133
  983SOL    HW2 2963   0.540   3.598   3.982
  984SOL     OW 2964   1.400   1.969   4.150
  984SOL    HW1 2965   1.376   1.932   4.060
  984SOL    HW2 2966   1.499   1.985   4.154
  985SOL     OW 2967   0.940   3.560   4.628
  985SOL    HW1 2968   1.020   3.503   4.649
  985SOL    HW2 2969   0.891   3.520   4.551
  986SOL     OW 2970   0.382   2.562   4.204
  986SOL    HW1 2971   0.427   2.472   4.201
  986SOL    HW2 2972   0.288   2.551   4.237
  987SOL     OW 2973   0.614   1.984   3.841
  987SOL    HW1 2974   0.712   1.962   3.848
  987SOL    HW2 2975   0.583   1.967   3.748
  988SOL     OW 2976   0.539   1.926   4.236
  988SOL    HW1 2977   0.458   1.927   4.294
  988SOL    HW2 2978   0.542   2.009   4.181
  989SOL     OW 2979   1.434   3.050   3.765
  989SOL    HW1 2980   1.466   2.974   3.822
  989SOL    HW2 2981   1.342   3.077   3.795
  990SOL     OW 2982   0.297   1.897   3.895
  990SOL    HW1 2983   0.346   1.981   3.874
  990SOL    HW2 2984   0.359   1.832   3.940
  991SOL     OW 2985   0.935   2.098   4.204
  991SOL    HW1 2986   0.887   2.139   4.126
  991SOL    HW2 2987   1.034   2.096   4.185
  992SOL     OW 2988   0.459   3.014   4.465
  992SOL    HW1 2989   0.388   2.987   4.530
  992SOL    HW2 2990   0.433   2.986   4.372
  993SOL     OW 2991   1.271   3.659   4.315
  993SOL    HW1 2992   1.315   3.723   4.251
  993SOL    HW2 2993   1.221   3.711   4.385
  994SOL     OW 2994   1.032   2.411   3.740
  994SOL    HW1 2995   0.991   2.493   3.701
  994SOL    HW2 2996   1.096   2.437   3.813
  995SOL     OW 2997   0.866   2.316   4.366
  995SOL    HW1 2998   0.834   2.388   4.304
  995SOL    HW2 2999   0.890   2.235   4.313
  996SOL     OW 3000   1.017   1.901   4.477
  996SOL    HW1 3001   0.945   1.906   4.408
  996SOL    HW2 3002   0.993   1.832   4.546
  997SOL     OW 3003   1.857   2.695   4.101
  997SOL    HW1 3004   1.899   2.631   4.165
  997SOL    HW2 3005   1.819   2.644   4.023
  998SOL     OW 3006   0.488   3.247   3.898
  998SOL    HW1 3007   0.401   3.232   3.945
  998SOL    HW2 3008   0.471   3.273   3.803
  999SOL     OW 3009   1.664   3.142   4.381
  999SOL    HW1 3010   1.763   3.150   4.395
  999SOL    HW2 3011   1.619   3.226   4.412
 1000SOL     OW 3012   1.390   2.437   3.802
 1000SOL    HW1 3013   1.336   2.416   3.883
 1000SOL    HW2 3014   1.481   2.396   3.811
 1001SOL     OW 3015   0.527   2.118   4.052
 1001SOL    HW1 3016   0.554   2.059   3.977
 1001SOL    HW2 3017   0.527   2.213   4.021
 1002SOL     OW 3018   0.705   2.912   4.092
 1002SOL    HW1 3019   0.691   2.919   4.191
 1002SOL    HW2 3020   0.789   2.861   4.074
 1003SOL     OW 3021   0.367   2.962   4.225
 1003SOL    HW1 3022   0.360   3.045   4.169
 1003SOL    HW2 3023   0.371   2.882   4.165
 1004SOL     OW 3024   1.252   3.210   4.112
 1004SOL    HW1 3025   1.302   3.287   4.152
 1004SOL    HW2 3026   1.157   3.212   4.144
 1005SOL     OW 3027   1.582   2.501   4.196
 1005SOL    HW1 3028   1.551   2.562   4.269
 1005SOL    HW2 3029   1.632   2.553   4.127
 1006SOL     OW 3030   1.209   2.387   3.999
 1006SOL    HW1 3031   1.222   2.303   4.053
 1006SOL    HW2 3032   1.180   2.461   4.059
 1007SOL     OW 3033   0.307   1.925   4.342
 1007SOL    HW1 3034   0.296   2.019   4.375
 1007SOL    HW2 3035   0.302   1.862   4.419
 1008SOL     OW 3036   1.622   2.229   4.098
 1008SOL    HW1 3037   1.624   2.153   4.162
 1008SOL    HW2 3038   1.574   2.306   4.138
 1009SOL     OW 3039   1.540   2.136   3.849
 1009SOL    HW1 3040   1.479   2.061   3.872
 1009SOL    HW2 3041   1.562   2.188   3.932
 1010SOL     OW 3042   1.303   2.700   3.766
 1010SOL    HW1 3043   1.337   2.607   3.781
 1010SOL    HW2 3044   1.321   2.727   3.671
 1011SOL     OW 3045   0.008   3.188   3.924
 1011SOL    HW1 3046  -0.085   3.209   3.893
 1011SOL    HW2 3047   0.018   3.089   3.937
 1012SOL     OW 3048   0.815   2.434   4.049
 1012SOL    HW1 3049   0.822   2.345   4.003
 1012SOL    HW2 3050   0.721   2.468   4.041
 1013SOL     OW 3051   0.473   2.362   3.915
 1013SOL    HW1 3052   0.534   2.442   3.919
 1013SOL    HW2 3053   0.378   2.393   3.922
 1014SOL     OW 3054   1.302   2.717   4.033
 1014SOL    HW1 3055   1.216   2.686   4.075
 1014SOL    HW2 3056   1.298   2.703   3.934
 1015SOL     OW 3057   1.726   1.997   4.247
 1015SOL    HW1 3058   1.799   1.980   4.180
 1015SOL    HW2 3059   1.695   1.910   4.285
 1016SOL     OW 3060   1.388   3.435   4.201
 1016SOL    HW1 3061   1.455   3.447   4.127
 1016SOL    HW2 3062   1.348   3.524   4.224
 1017SOL     OW 3063   1.280   2.789   4.396
 1017SOL    HW1 3064   1.340   2.708   4.398
 1017SOL    HW2 3065   1.320   2.858   4.336
 1018SOL     OW 3066   0.672   3.478   3.878
 1018SOL    HW1 3067   0.681   3.488   3.779
 1018SOL    HW2 3068   0.632   3.389   3.899
 1019SOL     OW 3069   1.841   2.037   4.687
 1019SOL    HW1 3070   1.880   1.952   4.651
 1019SOL    HW2 3071   1.743   2.039   4.668
 1020SOL     OW 3072   0.263   2.188   4.444
 1020SOL    HW1 3073   0.184   2.239   4.410
 1020SOL    HW2 3074   0.254   2.173   4.542
 1021SOL     OW 3075   1.194   3.474   3.755
 1021SOL    HW1 3076   1.200   3.381   3.792
 1021SOL    HW2 3077   1.135   3.474   3.675
 1022SOL     OW 3078   0.916   2.772   4.015
 1022SOL    HW1 3079   0.979   2.810   3.947
 1022SOL    HW2 3080   0.956   2.689   4.054
 1023SOL     OW 3081   1.504   3.469   3.768
 1023SOL    HW1 3082   1.412   3.506   3.775
 1023SOL    HW2 3083   1.542   3.489   3.678
 1024SOL     OW 3084   1.039   2.960   4.420
 1024SOL    HW1 3085   0.969   2.913   4.474
 1024SOL    HW2 3086   1.098   2.892   4.377
 1025SOL     OW 3087   0.590   3.349   4.215
 1025SOL    HW1 3088   0.632   3.291   4.145
 1025SOL    HW2 3089   0.546   3.428   4.171
 1026SOL     OW 3090   0.255   3.210   4.014
 1026SOL    HW1 3091   0.159   3.211   3.987
 1026SOL    HW2 3092   0.267   3.263   4.098
 1027SOL     OW 3093   0.075   2.207   3.757
 1027SOL    HW1 3094  -0.017   2.179   3.728
 1027SOL    HW2 3095   0.106   2.284   3.701
 1028SOL     OW 3096   0.072   2.028   4.042
 1028SOL    HW1 3097   0.055   2.111   3.988
 1028SOL    HW2 3098   0.162   1.991   4.020
 1029SOL     OW 3099   1.183   3.197   3.843
 1029SOL    HW1 3100   1.084   3.186   3.845
 1029SOL    HW2 3101   1.217   3.212   3.936
 1030SOL     OW 3102   1.225   2.187   4.173
 1030SOL    HW1 3103   1.290   2.113   4.162
 1030SOL    HW2 3104   1.245   2.237   4.257
 1031SOL     OW 3105   0.594   2.607   4.376
 1031SOL    HW1 3106   0.644   2.692   4.357
 1031SOL    HW2 3107   0.506   2.609   4.328
 1032SOL     OW 3108   0.859   3.236   3.740
 1032SOL    HW1 3109   0.813   3.251   3.828
 1032SOL    HW2 3110   0.903   3.321   3.710
 1033SOL     OW 3111   0.661   3.652   4.677
 1033SOL    HW1 3112   0.615   3.740   4.664
 1033SOL    HW2 3113   0.760   3.664   4.670
 1034SOL     OW 3114   0.859   2.818   4.585
 1034SOL    HW1 3115   0.913   2.749   4.633
 1034SOL    HW2 3116   0.827   2.887   4.651
 1035SOL     OW 3117   1.083   2.846   3.811
 1035SOL    HW1 3118   1.060   2.899   3.729
 1035SOL    HW2 3119   1.164   2.790   3.792
 1036SOL     OW 3120   0.079   3.102   4.377
 1036SOL    HW1 3121   0.078   3.055   4.465
 1036SOL    HW2 3122   0.161   3.074   4.326
 1037SOL     OW 3123   0.428   2.286   4.244
 1037SOL    HW1 3124   0.458   2.214   4.182
 1037SOL    HW2 3125   0.389   2.246   4.327
 1038SOL     OW 3126   1.705   3.349   4.828
 1038SOL    HW1 3127   1.612   3.324   4.801
 1038SOL    HW2 3128   1.731   3.299   4.910
 1039SOL     OW 3129   0.812   3.448   4.411
 1039SOL    HW1 3130   0.844   3.458   4.317
 1039SOL    HW2 3131   0.733   3.386   4.413
 1040SOL     OW 3132   0.770   3.192   4.025
 1040SOL    HW1 3133   0.724   3.105   4.042
 1040SOL    HW2 3134   0.861   3.189   4.066
 1041SOL     OW 3135   1.352   1.914   3.892
 1041SOL    HW1 3136   1.387   1.873   3.808
 1041SOL    HW2 3137   1.262   1.876   3.912
 1042SOL     OW 3138   1.300   2.315   4.415
 1042SOL    HW1 3139   1.241   2.395   4.419
 1042SOL    HW2 3140   1.315   2.280   4.508
 1043SOL     OW 3141   0.039   2.939   4.024
 1043SOL    HW1 3142   0.138   2.928   4.015
 1043SOL    HW2 3143  -0.001   2.853   4.056
 1044SOL     OW 3144   0.875   3.508   4.061
 1044SOL    HW1 3145   0.798   3.473   4.007
 1044SOL    HW2 3146   0.843   3.579   4.123
 1045SOL     OW 3147   0.230   4.352   0.113
 1045SOL    HW1 3148   0.137   4.350   0.150
 1045SOL    HW2 3149   0.231   4.313   0.021
 1046SOL     OW 3150   0.225   3.999   0.996
 1046SOL    HW1 3151   0.260   3.982   1.088
 1046SOL    HW2 3152   0.137   3.954   0.984
 1047SOL     OW 3153   0.019   4.092   0.647
 1047SOL    HW1 3154  -0.063   4.135   0.686
 1047SOL    HW2 3155  -0.009   4.019   0.584
 1048SOL     OW 3156   1.755   4.331   0.231
 1048SOL    HW1 3157   1.743   4.318   0.132
 1048SOL    HW2 3158   1.725   4.250   0.280
 1049SOL     OW 3159   0.850   4.522   1.823
 1049SOL    HW1 3160   0.846   4.598   1.888
 1049SOL    HW2 3161   0.872   4.558   1.732
 1050SOL     OW 3162   0.685   4.736   0.665
 1050SOL    HW1 3163   0.754   4.720   0.735
 1050SOL    HW2 3164   0.612   4.793   0.703
 1051SOL     OW 3165   0.438   4.116   1.499
 1051SOL    HW1 3166   0.520   4.060   1.508
 1051SOL    HW2 3167   0.357   4.058   1.503
 1052SOL     OW 3168   1.603   4.171   0.737
 1052SOL    HW1 3169   1.529   4.217   0.687
 1052SOL    HW2 3170   1.654   4.239   0.790
 1053SOL     OW 3171   1.594   3.838   1.480
 1053SOL    HW1 3172   1.576   3.905   1.408
 1053SOL    HW2 3173   1.591   3.884   1.569
 1054SOL     OW 3174   0.122   4.367   0.563
 1054SOL    HW1 3175   0.077   4.279   0.580
 1054SOL    HW2 3176   0.121   4.421   0.647
 1055SOL     OW 3177   0.113   4.461   1.597
 1055SOL    HW1 3178   0.201   4.448   1.642
 1055SOL    HW2 3179   0.100   4.558   1.575
 1056SOL     OW 3180   0.809   3.728   0.502
 1056SOL    HW1 3181   0.849   3.819   0.493
 1056SOL    HW2 3182   0.709   3.736   0.508
 1057SOL     OW 3183   0.317   3.975   1.801
 1057SOL    HW1 3184   0.388   4.046   1.807
 1057SOL    HW2 3185   0.229   4.014   1.829
 1058SOL     OW 3186   0.598   4.453   0.270
 1058SOL    HW1 3187   0.622   4.522   0.202
 1058SOL    HW2 3188   0.520   4.486   0.324
 1059SOL     OW 3189   1.281   4.069   0.944
 1059SOL    HW1 3190   1.195   4.019   0.931
 1059SOL    HW2 3191   1.343   4.015   1.000
 1060SOL     OW 3192   0.807   4.329   1.465
 1060SOL    HW1 3193   0.760   4.326   1.554
 1060SOL    HW2 3194   0.756   4.274   1.399
 1061SOL     OW 3195   1.394   4.193   1.674
 1061SOL    HW1 3196   1.374   4.236   1.762
 1061SOL    HW2 3197   1.472   4.131   1.683
 1062SOL     OW 3198   0.991   4.134   1.242
 1062SOL    HW1 3199   0.914   4.168   1.296
 1062SOL    HW2 3200   0.957   4.083   1.163
 1063SOL     OW 3201   1.041   4.425   0.429
 1063SOL    HW1 3202   1.067   4.421   0.525
 1063SOL    HW2 3203   0.956   4.374   0.415
 1064SOL     OW 3204   0.076   4.535   0.789
 1064SOL    HW1 3205   0.175   4.523   0.798
 1064SOL    HW2 3206   0.052   4.630   0.810
 1065SOL     OW 3207   0.865   4.072   0.195
 1065SOL    HW1 3208   0.924   4.135   0.146
 1065SOL    HW2 3209   0.884   3.978   0.166
 1066SOL     OW 3210   1.719   4.309   1.831
 1066SOL    HW1 3211   1.693   4.398   1.795
 1066SOL    HW2 3212   1.717   4.241   1.758
 1067SOL     OW 3213   0.550   3.920   0.885
 1067SOL    HW1 3214   0.545   3.915   0.985
 1067SOL    HW2 3215   0.552   4.016   0.856
 1068SOL     OW 3216   1.458   4.459   0.728
 1068SOL    HW1 3217   1.453   4.394   0.803
 1068SOL    HW2 3218   1.538   4.518   0.741
 1069SOL     OW 3219   0.202   4.009   1.498
 1069SOL    HW1 3220   0.122   4.069   1.485
 1069SOL    HW2 3221   0.192   3.960   1.584
 1070SOL     OW 3222   1.400   3.831   0.426
 1070SOL    HW1 3223   1.376   3.794   0.336
 1070SOL    HW2 3224   1.499   3.847   0.430
 1071SOL     OW 3225   0.382   4.424   0.480
 1071SOL    HW1 3226   0.427   4.334   0.477
 1071SOL    HW2 3227   0.288   4.413   0.513
 1072SOL     OW 3228   1.547   3.946   1.729
 1072SOL    HW1 3229   1.542   3.983   1.821
 1072SOL    HW2 3230   1.475   3.877   1.717
 1073SOL     OW 3231   0.781   3.988   1.749
 1073SOL    HW1 3232   0.848   3.927   1.792
 1073SOL    HW2 3233   0.708   4.007   1.814
 1074SOL     OW 3234   1.351   4.314   1.433
 1074SOL    HW1 3235   1.379   4.271   1.518
 1074SOL    HW2 3236   1.376   4.410   1.434
 1075SOL     OW 3237   0.922   4.227   0.899
 1075SOL    HW1 3238   0.897   4.218   0.803
 1075SOL    HW2 3239   0.970   4.145   0.930
 1076SOL     OW 3240   0.539   3.788   0.512
 1076SOL    HW1 3241   0.458   3.789   0.570
 1076SOL    HW2 3242   0.542   3.871   0.457
 1077SOL     OW 3243   0.297   3.759   0.171
 1077SOL    HW1 3244   0.346   3.843   0.150
 1077SOL    HW2 3245   0.359   3.694   0.216
 1078SOL     OW 3246   0.935   3.960   0.480
 1078SOL    HW1 3247   0.887   4.001   0.402
 1078SOL    HW2 3248   1.034   3.958   0.461
 1079SOL     OW 3249   1.076   4.407   1.464
 1079SOL    HW1 3250   0.996   4.346   1.467
 1079SOL    HW2 3251   1.157   4.354   1.440
 1080SOL     OW 3252   1.032   4.273   0.016
 1080SOL    HW1 3253   0.991   4.355  -0.023
 1080SOL    HW2 3254   1.096   4.299   0.089
 1081SOL     OW 3255   0.078   4.280   1.386
 1081SOL    HW1 3256   0.170   4.279   1.345
 1081SOL    HW2 3257   0.072   4.354   1.453
 1082SOL     OW 3258   0.561   3.946   1.147
 1082SOL    HW1 3259   0.599   3.862   1.184
 1082SOL    HW2 3260   0.473   3.965   1.191
 1083SOL     OW 3261   0.866   4.178   0.642
 1083SOL    HW1 3262   0.834   4.250   0.580
 1083SOL    HW2 3263   0.890   4.097   0.589
 1084SOL     OW 3264   1.017   3.763   0.753
 1084SOL    HW1 3265   0.945   3.768   0.684
 1084SOL    HW2 3266   0.993   3.694   0.822
 1085SOL     OW 3267   1.466   4.314   0.992
 1085SOL    HW1 3268   1.436   4.219   0.999
 1085SOL    HW2 3269   1.539   4.330   1.058
 1086SOL     OW 3270   1.857   4.557   0.377
 1086SOL    HW1 3271   1.899   4.493   0.441
 1086SOL    HW2 3272   1.819   4.506   0.299
 1087SOL     OW 3273   1.390   4.299   0.078
 1087SOL    HW1 3274   1.336   4.278   0.159
 1087SOL    HW2 3275   1.481   4.258   0.087
 1088SOL     OW 3276   0.527   3.980   0.328
 1088SOL    HW1 3277   0.554   3.921   0.253
 1088SOL    HW2 3278   0.527   4.075   0.297
 1089SOL     OW 3279   0.915   3.813   1.402
 1089SOL    HW1 3280   0.940   3.793   1.307
 1089SOL    HW2 3281   0.987   3.869   1.444
 1090SOL     OW 3282   0.705   4.774   0.368
 1090SOL    HW1 3283   0.691   4.781   0.467
 1090SOL    HW2 3284   0.789   4.723   0.350
 1091SOL     OW 3285   0.410   4.537   1.251
 1091SOL    HW1 3286   0.496   4.549   1.301
 1091SOL    HW2 3287   0.368   4.450   1.278
 1092SOL     OW 3288   1.274   4.110   1.262
 1092SOL    HW1 3289   1.295   4.184   1.326
 1092SOL    HW2 3290   1.185   4.127   1.219
 1093SOL     OW 3291   0.566   4.261   0.865
 1093SOL    HW1 3292   0.578   4.327   0.791
 1093SOL    HW2 3293   0.612   4.295   0.948
 1094SOL     OW 3294   1.582   4.363   0.472
 1094SOL    HW1 3295   1.551   4.424   0.545
 1094SOL    HW2 3296   1.632   4.415   0.403
 1095SOL     OW 3297   1.587   4.503   1.670
 1095SOL    HW1 3298   1.495   4.541   1.665
 1095SOL    HW2 3299   1.647   4.550   1.605
 1096SOL     OW 3300   1.013   3.829   1.770
 1096SOL    HW1 3301   1.019   3.914   1.718
 1096SOL    HW2 3302   1.045   3.753   1.713
 1097SOL     OW 3303   0.504   3.774   1.740
 1097SOL    HW1 3304   0.462   3.717   1.670
 1097SOL    HW2 3305   0.438   3.843   1.772
 1098SOL     OW 3306   1.360   4.586   1.045
 1098SOL    HW1 3307   1.285   4.586   0.979
 1098SOL    HW2 3308   1.397   4.494   1.054
 1099SOL     OW 3309   1.209   4.249   0.275
 1099SOL    HW1 3310   1.222   4.165   0.329
 1099SOL    HW2 3311   1.180   4.323   0.335
 1100SOL     OW 3312   0.307   3.937   1.231
 1100SOL    HW1 3313   0.284   3.974   1.321
 1100SOL    HW2 3314   0.277   3.842   1.225
 1101SOL     OW 3315   0.732   4.358   1.064
 1101SOL    HW1 3316   0.791   4.332   0.988
 1101SOL    HW2 3317   0.704   4.454   1.053
 1102SOL     OW 3318   1.728   4.659   1.854
 1102SOL    HW1 3319   1.682   4.652   1.765
 1102SOL    HW2 3320   1.666   4.703   1.920
 1103SOL     OW 3321   0.307   3.787   0.618
 1103SOL    HW1 3322   0.296   3.881   0.651
 1103SOL    HW2 3323   0.302   3.724   0.695
 1104SOL     OW 3324   1.622   4.091   0.374
 1104SOL    HW1 3325   1.624   4.015   0.438
 1104SOL    HW2 3326   1.574   4.168   0.414
 1105SOL     OW 3327   1.540   3.998   0.125
 1105SOL    HW1 3328   1.479   3.923   0.148
 1105SOL    HW2 3329   1.562   4.050   0.208
 1106SOL     OW 3330   0.319   4.534   0.949
 1106SOL    HW1 3331   0.412   4.570   0.954
 1106SOL    HW2 3332   0.313   4.449   1.001
 1107SOL     OW 3333   0.339   4.233   1.006
 1107SOL    HW1 3334   0.287   4.150   0.989
 1107SOL    HW2 3335   0.416   4.238   0.942
 1108SOL     OW 3336   1.138   4.104   1.678
 1108SOL    HW1 3337   1.093   4.167   1.742
 1108SOL    HW2 3338   1.231   4.135   1.661
 1109SOL     OW 3339   1.160   3.931   1.477
 1109SOL    HW1 3340   1.160   3.995   1.554
 1109SOL    HW2 3341   1.188   3.979   1.394
 1110SOL     OW 3342   0.040   4.268   1.114
 1110SOL    HW1 3343   0.125   4.235   1.073
 1110SOL    HW2 3344   0.053   4.283   1.212
 1111SOL     OW 3345   0.189   4.244   1.722
 1111SOL    HW1 3346   0.248   4.204   1.652
 1111SOL    HW2 3347   0.131   4.315   1.681
 1112SOL     OW 3348   0.815   4.296   0.325
 1112SOL    HW1 3349   0.822   4.207   0.279
 1112SOL    HW2 3350   0.721   4.330   0.317
 1113SOL     OW 3351   1.657   4.328   1.206
 1113SOL    HW1 3352   1.619   4.259   1.268
 1113SOL    HW2 3353   1.739   4.292   1.162
 1114SOL     OW 3354   0.671   4.188   1.269
 1114SOL    HW1 3355   0.637   4.099   1.239
 1114SOL    HW2 3356   0.697   4.242   1.189
 1115SOL     OW 3357   0.473   4.224   0.191
 1115SOL    HW1 3358   0.534   4.304   0.195
 1115SOL    HW2 3359   0.378   4.255   0.198
 1116SOL     OW 3360   0.903   3.810   0.133
 1116SOL    HW1 3361   0.954   3.811   0.047
 1116SOL    HW2 3362   0.959   3.768   0.204
 1117SOL     OW 3363   1.726   3.859   0.523
 1117SOL    HW1 3364   1.799   3.842   0.456
 1117SOL    HW2 3365   1.695   3.772   0.561
 1118SOL     OW 3366   1.280   4.651   0.672
 1118SOL    HW1 3367   1.340   4.570   0.674
 1118SOL    HW2 3368   1.320   4.720   0.612
 1119SOL     OW 3369   1.841   3.899   0.963
 1119SOL    HW1 3370   1.880   3.814   0.927
 1119SOL    HW2 3371   1.743   3.901   0.944
 1120SOL     OW 3372   0.263   4.050   0.720
 1120SOL    HW1 3373   0.184   4.101   0.686
 1120SOL    HW2 3374   0.254   4.035   0.818
 1121SOL     OW 3375   1.014   3.960   0.971
 1121SOL    HW1 3376   1.006   3.924   0.878
 1121SOL    HW2 3377   1.012   3.884   1.036
 1122SOL     OW 3378   1.709   4.109   1.381
 1122SOL    HW1 3379   1.782   4.178   1.385
 1122SOL    HW2 3380   1.737   4.034   1.322
 1123SOL     OW 3381   0.105   4.737   1.726
 1123SOL    HW1 3382   0.028   4.704   1.780
 1123SOL    HW2 3383   0.190   4.707   1.768
 1124SOL     OW 3384   0.672   3.927   1.489
 1124SOL    HW1 3385   0.762   3.911   1.449
 1124SOL    HW2 3386   0.680   3.932   1.588
 1125SOL     OW 3387   0.075   4.069   0.033
 1125SOL    HW1 3388  -0.017   4.041   0.004
 1125SOL    HW2 3389   0.106   4.146  -0.023
 1126SOL     OW 3390   1.440   4.580   1.398
 1126SOL    HW1 3391   1.383   4.632   1.335
 1126SOL    HW2 3392   1.536   4.592   1.374
 1127SOL     OW 3393   0.072   3.890   0.318
 1127SOL    HW1 3394   0.055   3.973   0.264
 1127SOL    HW2 3395   0.162   3.853   0.296
 1128SOL     OW 3396   0.613   4.566   1.431
 1128SOL    HW1 3397   0.669   4.647   1.414
 1128SOL    HW2 3398   0.672   4.486   1.434
 1129SOL     OW 3399   0.716   4.289   1.708
 1129SOL    HW1 3400   0.735   4.354   1.782
 1129SOL    HW2 3401   0.776   4.209   1.717
 1130SOL     OW 3402   1.674   4.607   1.254
 1130SOL    HW1 3403   1.647   4.518   1.217
 1130SOL    HW2 3404   1.675   4.675   1.181
 1131SOL     OW 3405   1.225   4.049   0.449
 1131SOL    HW1 3406   1.290   3.975   0.438
 1131SOL    HW2 3407   1.245   4.099   0.533
 1132SOL     OW 3408   0.594   4.469   0.652
 1132SOL    HW1 3409   0.644   4.554   0.633
 1132SOL    HW2 3410   0.506   4.471   0.604
 1133SOL     OW 3411   1.777   4.066   1.642
 1133SOL    HW1 3412   1.760   4.097   1.548
 1133SOL    HW2 3413   1.693   4.029   1.680
 1134SOL     OW 3414   1.824   3.916   1.227
 1134SOL    HW1 3415   1.820   3.826   1.271
 1134SOL    HW2 3416   1.827   3.905   1.128
 1135SOL     OW 3417   0.428   4.148   0.520
 1135SOL    HW1 3418   0.458   4.076   0.458
 1135SOL    HW2 3419   0.389   4.108   0.603
 1136SOL     OW 3420   0.317   4.271   1.280
 1136SOL    HW1 3421   0.355   4.212   1.352
 1136SOL    HW2 3422   0.357   4.245   1.192
 1137SOL     OW 3423   1.424   3.938   1.112
 1137SOL    HW1 3424   1.476   3.873   1.167
 1137SOL    HW2 3425   1.375   4.001   1.173
 1138SOL     OW 3426   1.001   3.758   1.154
 1138SOL    HW1 3427   0.938   3.686   1.123
 1138SOL    HW2 3428   1.094   3.722   1.154
 1139SOL     OW 3429   1.352   3.776   0.168
 1139SOL    HW1 3430   1.387   3.735   0.084
 1139SOL    HW2 3431   1.262   3.738   0.188
 1140SOL     OW 3432   1.300   4.177   0.691
 1140SOL    HW1 3433   1.241   4.257   0.695
 1140SOL    HW2 3434   1.315   4.142   0.784
 1141SOL     OW 3435   1.593   3.945   0.882
 1141SOL    HW1 3436   1.509   3.944   0.936
 1141SOL    HW2 3437   1.595   4.028   0.826
 1142SOL     OW 3438   0.230   4.352   1.975
 1142SOL    HW1 3439   0.137   4.350   2.012
 1142SOL    HW2 3440   0.231   4.313   1.883
 1143SOL     OW 3441   0.225   3.999   2.858
 1143SOL    HW1 3442   0.260   3.982   2.950
 1143SOL    HW2 3443   0.137   3.954   2.846
 1144SOL     OW 3444   0.019   4.092   2.509
 1144SOL    HW1 3445  -0.063   4.135   2.548
 1144SOL    HW2 3446  -0.009   4.019   2.446
 1145SOL     OW 3447   1.755   4.331   2.093
 1145SOL    HW1 3448   1.743   4.318   1.994
 1145SOL    HW2 3449   1.725   4.250   2.142
 1146SOL     OW 3450   0.850   4.522   3.685
 1146SOL    HW1 3451   0.846   4.598   3.750
 1146SOL    HW2 3452   0.872   4.558   3.594
 1147SOL     OW 3453   0.685   4.736   2.527
 1147SOL    HW1 3454   0.754   4.720   2.597
 1147SOL    HW2 3455   0.612   4.793   2.565
 1148SOL     OW 3456   0.438   4.116   3.361
 1148SOL    HW1 3457   0.520   4.060   3.370
 1148SOL    HW2 3458   0.357   4.058   3.365
 1149SOL     OW 3459   1.603   4.171   2.599
 1149SOL    HW1 3460   1.529   4.217   2.549
 1149SOL    HW2 3461   1.654   4.239   2.652
 1150SOL     OW 3462   1.594   3.838   3.342
 1150SOL    HW1 3463   1.576   3.905   3.270
 1150SOL    HW2 3464   1.591   3.884   3.431
 1151SOL     OW 3465   0.122   4.367   2.425
 1151SOL    HW1 3466   0.077   4.279   2.442
 1151SOL    HW2 3467   0.121   4.421   2.509
 1152SOL     OW 3468   0.113   4.461   3.459
 1152SOL    HW1 3469   0.201   4.448   3.504
 1152SOL    HW2 3470   0.100   4.558   3.437
 1153SOL     OW 3471   0.809   3.728   2.364
 1153SOL    HW1 3472   0.849   3.819   2.355
 1153SOL    HW2 3473   0.709   3.736   2.370
 1154SOL     OW 3474   0.317   3.975   3.663
 1154SOL    HW1 3475   0.388   4.046   3.669
 1154SOL    HW2 3476   0.229   4.014   3.691
 1155SOL     OW 3477   0.598   4.453   2.132
 1155SOL    HW1 3478   0.622   4.522   2.064
 1155SOL    HW2 3479   0.520   4.486   2.186
 1156SOL     OW 3480   1.281   4.069   2.806
 1156SOL    HW1 3481   1.195   4.019   2.793
 1156SOL    HW2 3482   1.343   4.015   2.862
 1157SOL     OW 3483   0.807   4.329   3.327
 1157SOL    HW1 3484   0.760   4.326   3.416
 1157SOL    HW2 3485   0.756   4.274   3.261
 1158SOL     OW 3486   1.394   4.193   3.536
 1158SOL    HW1 3487   1.374   4.236   3.624
 1158SOL    HW2 3488   1.472   4.131   3.545
 1159SOL     OW 3489   0.991   4.134   3.104
 1159SOL    HW1 3490   0.914   4.168   3.158
 1159SOL    HW2 3491   0.957   4.083   3.025
 1160SOL     OW 3492   1.041   4.425   2.291
 1160SOL    HW1 3493   1.067   4.421   2.387
 1160SOL    HW2 3494   0.956   4.374   2.277
 1161SOL     OW 3495   0.076   4.535   2.651
 1161SOL    HW1 3496   0.175   4.523   2.660
 1161SOL    HW2 3497   0.052   4.630   2.672
 1162SOL     OW 3498   0.865   4.072   2.057
 1162SOL    HW1 3499   0.924   4.135   2.008
 1162SOL    HW2 3500   0.884   3.978   2.028
 1163SOL     OW 3501   1.719   4.309   3.693
 1163SOL    HW1 3502   1.693   4.398   3.657
 1163SOL    HW2 3503   1.717   4.241   3.620
 1164SOL     OW 3504   0.550   3.920   2.747
 1164SOL    HW1 3505   0.545   3.915   2.847
 1164SOL    HW2 3506   0.552   4.016   2.718
 1165SOL     OW 3507   1.458   4.459   2.590
 1165SOL    HW1 3508   1.453   4.394   2.665
 1165SOL    HW2 3509   1.538   4.518   2.603
 1166SOL     OW 3510   0.202   4.009   3.360
 1166SOL    HW1 3511   0.122   4.069   3.347
 1166SOL    HW2 3512   0.192   3.960   3.446
 1167SOL     OW 3513   1.400   3.831   2.288
 1167SOL    HW1 3514   1.376   3.794   2.198
 1167SOL    HW2 3515   1.499   3.847   2.292
 1168SOL     OW 3516   0.382   4.424   2.342
 1168SOL    HW1 3517   0.427   4.334   2.339
 1168SOL    HW2 3518   0.288   4.413   2.375
 1169SOL     OW 3519   1.547   3.946   3.591
 1169SOL    HW1 3520   1.542   3.983   3.683
 1169SOL    HW2 3521   1.475   3.877   3.579
 1170SOL     OW 3522   0.614   3.846   1.979
 1170SOL    HW1 3523   0.712   3.824   1.986
 1170SOL    HW2 3524   0.583   3.829   1.886
 1171SOL     OW 3525   0.781   3.988   3.611
 1171SOL    HW1 3526   0.848   3.927   3.654
 1171SOL    HW2 3527   0.708   4.007   3.676
 1172SOL     OW 3528   1.351   4.314   3.295
 1172SOL    HW1 3529   1.379   4.271   3.380
 1172SOL    HW2 3530   1.376   4.410   3.296
 1173SOL     OW 3531   0.922   4.227   2.761
 1173SOL    HW1 3532   0.897   4.218   2.665
 1173SOL    HW2 3533   0.970   4.145   2.792
 1174SOL     OW 3534   0.539   3.788   2.374
 1174SOL    HW1 3535   0.458   3.789   2.432
 1174SOL    HW2 3536   0.542   3.871   2.319
 1175SOL     OW 3537   0.297   3.759   2.033
 1175SOL    HW1 3538   0.346   3.843   2.012
 1175SOL    HW2 3539   0.359   3.694   2.078
 1176SOL     OW 3540   0.935   3.960   2.342
 1176SOL    HW1 3541   0.887   4.001   2.264
 1176SOL    HW2 3542   1.034   3.958   2.323
 1177SOL     OW 3543   1.076   4.407   3.326
 1177SOL    HW1 3544   0.996   4.346   3.329
 1177SOL    HW2 3545   1.157   4.354   3.302
 1178SOL     OW 3546   1.032   4.273   1.878
 1178SOL    HW1 3547   0.991   4.355   1.839
 1178SOL    HW2 3548   1.096   4.299   1.951
 1179SOL     OW 3549   0.078   4.280   3.248
 1179SOL    HW1 3550   0.170   4.279   3.207
 1179SOL    HW2 3551   0.072   4.354   3.315
 1180SOL     OW 3552   0.561   3.946   3.009
 1180SOL    HW1 3553   0.599   3.862   3.046
 1180SOL    HW2 3554   0.473   3.965   3.053
 1181SOL     OW 3555   0.866   4.178   2.504
 1181SOL    HW1 3556   0.834   4.250   2.442
 1181SOL    HW2 3557   0.890   4.097   2.451
 1182SOL     OW 3558   1.017   3.763   2.615
 1182SOL    HW1 3559   0.945   3.768   2.546
 1182SOL    HW2 3560   0.993   3.694   2.684
 1183SOL     OW 3561   1.466   4.314   2.854
 1183SOL    HW1 3562   1.436   4.219   2.861
 1183SOL    HW2 3563   1.539   4.330   2.920
 1184SOL     OW 3564   1.857   4.557   2.239
 1184SOL    HW1 3565   1.899   4.493   2.303
 1184SOL    HW2 3566   1.819   4.506   2.161
 1185SOL     OW 3567   1.390   4.299   1.940
 1185SOL    HW1 3568   1.336   4.278   2.021
 1185SOL    HW2 3569   1.481   4.258   1.949
 1186SOL     OW 3570   0.527   3.980   2.190
 1186SOL    HW1 3571   0.554   3.921   2.115
 1186SOL    HW2 3572   0.527   4.075   2.159
 1187SOL     OW 3573   0.915   3.813   3.264
 1187SOL    HW1 3574   0.940   3.793   3.169
 1187SOL    HW2 3575   0.987   3.869   3.306
 1188SOL     OW 3576   0.705   4.774   2.230
 1188SOL    HW1 3577   0.691   4.781   2.329
 1188SOL    HW2 3578   0.789   4.723   2.212
 1189SOL     OW 3579   0.410   4.537   3.113
 1189SOL    HW1 3580   0.496   4.549   3.163
 1189SOL    HW2 3581   0.368   4.450   3.140
 1190SOL     OW 3582   1.274   4.110   3.124
 1190SOL    HW1 3583   1.295   4.184   3.188
 1190SOL    HW2 3584   1.185   4.127   3.081
 1191SOL     OW 3585   0.566   4.261   2.727
 1191SOL    HW1 3586   0.578   4.327   2.653
 1191SOL    HW2 3587   0.612   4.295   2.810
 1192SOL     OW 3588   1.582   4.363   2.334
 1192SOL    HW1 3589   1.551   4.424   2.407
 1192SOL    HW2 3590   1.632   4.415   2.265
 1193SOL     OW 3591   1.587   4.503   3.532
 1193SOL    HW1 3592   1.495   4.541   3.527
 1193SOL    HW2 3593   1.647   4.550   3.467
 1194SOL     OW 3594   1.013   3.829   3.632
 1194SOL    HW1 3595   1.019   3.914   3.580
 1194SOL    HW2 3596   1.045   3.753   3.575
 1195SOL     OW 3597   0.504   3.774   3.602
 1195SOL    HW1 3598   0.462   3.717   3.532
 1195SOL    HW2 3599   0.438   3.843   3.634
 1196SOL     OW 3600   1.360   4.586   2.907
 1196SOL    HW1 3601   1.285   4.586   2.841
 1196SOL    HW2 3602   1.397   4.494   2.916
 1197SOL     OW 3603   1.209   4.249   2.137
 1197SOL    HW1 3604   1.222   4.165   2.191
 1197SOL    HW2 3605   1.180   4.323   2.197
 1198SOL     OW 3606   0.307   3.937   3.093
 1198SOL    HW1 3607   0.284   3.974   3.183
 1198SOL    HW2 3608   0.277   3.842   3.087
 1199SOL     OW 3609   0.732   4.358   2.926
 1199SOL    HW1 3610   0.791   4.332   2.850
 1199SOL    HW2 3611   0.704   4.454   2.915
 1200SOL     OW 3612   1.728   4.659   3.716
 1200SOL    HW1 3613   1.682   4.652   3.627
 1200SOL    HW2 3614   1.666   4.703   3.782
 1201SOL     OW 3615   0.307   3.787   2.480
 1201SOL    HW1 3616   0.296   3.881   2.513
 1201SOL    HW2 3617   0.302   3.724   2.557
 1202SOL     OW 3618   1.622   4.091   2.236
 1202SOL    HW1 3619   1.624   4.015   2.300
 1202SOL    HW2 3620   1.574   4.168   2.276
 1203SOL     OW 3621   1.540   3.998   1.987
 1203SOL    HW1 3622   1.479   3.923   2.010
 1203SOL    HW2 3623   1.562   4.050   2.070
 1204SOL     OW 3624   0.319   4.534   2.811
 1204SOL    HW1 3625   0.412   4.570   2.816
 1204SOL    HW2 3626   0.313   4.449   2.863
 1205SOL     OW 3627   0.339   4.233   2.868
 1205SOL    HW1 3628   0.287   4.150   2.851
 1205SOL    HW2 3629   0.416   4.238   2.804
 1206SOL     OW 3630   1.138   4.104   3.540
 1206SOL    HW1 3631   1.093   4.167   3.604
 1206SOL    HW2 3632   1.231   4.135   3.523
 1207SOL     OW 3633   1.160   3.931   3.339
 1207SOL    HW1 3634   1.160   3.995   3.416
 1207SOL    HW2 3635   1.188   3.979   3.256
 1208SOL     OW 3636   0.040   4.268   2.976
 1208SOL    HW1 3637   0.125   4.235   2.935
 1208SOL    HW2 3638   0.053   4.283   3.074
 1209SOL     OW 3639   0.189   4.244   3.584
 1209SOL    HW1 3640   0.248   4.204   3.514
 1209SOL    HW2 3641   0.131   4.315   3.543
 1210SOL     OW 3642   0.815   4.296   2.187
 1210SOL    HW1 3643   0.822   4.207   2.141
 1210SOL    HW2 3644   0.721   4.330   2.179
 1211SOL     OW 3645   1.657   4.328   3.068
 1211SOL    HW1 3646   1.619   4.259   3.130
 1211SOL    HW2 3647   1.739   4.292   3.024
 1212SOL     OW 3648   0.671   4.188   3.131
 1212SOL    HW1 3649   0.637   4.099   3.101
 1212SOL    HW2 3650   0.697   4.242   3.051
 1213SOL     OW 3651   0.473   4.224   2.053
 1213SOL    HW1 3652   0.534   4.304   2.057
 1213SOL    HW2 3653   0.378   4.255   2.060
 1214SOL     OW 3654   1.726   3.859   2.385
 1214SOL    HW1 3655   1.799   3.842   2.318
 1214SOL    HW2 3656   1.695   3.772   2.423
 1215SOL     OW 3657   1.280   4.651   2.534
 1215SOL    HW1 3658   1.340   4.570   2.536
 1215SOL    HW2 3659   1.320   4.720   2.474
 1216SOL     OW 3660   1.841   3.899   2.825
 1216SOL    HW1 3661   1.880   3.814   2.789
 1216SOL    HW2 3662   1.743   3.901   2.806
 1217SOL     OW 3663   0.263   4.050   2.582
 1217SOL    HW1 3664   0.184   4.101   2.548
 1217SOL    HW2 3665   0.254   4.035   2.680
 1218SOL     OW 3666   0.916   4.634   2.153
 1218SOL    HW1 3667   0.979   4.672   2.085
 1218SOL    HW2 3668   0.956   4.551   2.192
 1219SOL     OW 3669   1.014   3.960   2.833
 1219SOL    HW1 3670   1.006   3.924   2.740
 1219SOL    HW2 3671   1.012   3.884   2.898
 1220SOL     OW 3672   1.709   4.109   3.243
 1220SOL    HW1 3673   1.782   4.178   3.247
 1220SOL    HW2 3674   1.737   4.034   3.184
 1221SOL     OW 3675   0.105   4.737   3.588
 1221SOL    HW1 3676   0.028   4.704   3.642
 1221SOL    HW2 3677   0.190   4.707   3.630
 1222SOL     OW 3678   0.672   3.927   3.351
 1222SOL    HW1 3679   0.762   3.911   3.311
 1222SOL    HW2 3680   0.680   3.932   3.450
 1223SOL     OW 3681   0.075   4.069   1.895
 1223SOL    HW1 3682  -0.017   4.041   1.866
 1223SOL    HW2 3683   0.106   4.146   1.839
 1224SOL     OW 3684   1.440   4.580   3.260
 1224SOL    HW1 3685   1.383   4.632   3.197
 1224SOL    HW2 3686   1.536   4.592   3.236
 1225SOL     OW 3687   0.072   3.890   2.180
 1225SOL    HW1 3688   0.055   3.973   2.126
 1225SOL    HW2 3689   0.162   3.853   2.158
 1226SOL     OW 3690   0.613   4.566   3.293
 1226SOL    HW1 3691   0.669   4.647   3.276
 1226SOL    HW2 3692   0.672   4.486   3.296
 1227SOL     OW 3693   0.716   4.289   3.570
 1227SOL    HW1 3694   0.735   4.354   3.644
 1227SOL    HW2 3695   0.776   4.209   3.579
 1228SOL     OW 3696   1.674   4.607   3.116
 1228SOL    HW1 3697   1.647   4.518   3.079
 1228SOL    HW2 3698   1.675   4.675   3.043
 1229SOL     OW 3699   1.225   4.049   2.311
 1229SOL    HW1 3700   1.290   3.975   2.300
 1229SOL    HW2 3701   1.245   4.099   2.395
 1230SOL     OW 3702   0.594   4.469   2.514
 1230SOL    HW1 3703   0.644   4.554   2.495
 1230SOL    HW2 3704   0.506   4.471   2.466
 1231SOL     OW 3705   1.777   4.066   3.504
 1231SOL    HW1 3706   1.760   4.097   3.410
 1231SOL    HW2 3707   1.693   4.029   3.542
 1232SOL     OW 3708   1.824   3.916   3.089
 1232SOL    HW1 3709   1.820   3.826   3.133
 1232SOL    HW2 3710   1.827   3.905   2.990
 1233SOL     OW 3711   0.428   4.148   2.382
 1233SOL    HW1 3712   0.458   4.076   2.320
 1233SOL    HW2 3713   0.389   4.108   2.465
 1234SOL     OW 3714   0.317   4.271   3.142
 1234SOL    HW1 3715   0.355   4.212   3.214
 1234SOL    HW2 3716   0.357   4.245   3.054
 1235SOL     OW 3717   1.424   3.938   2.974
 1235SOL    HW1 3718   1.476   3.873   3.029
 1235SOL    HW2 3719   1.375   4.001   3.035
 1236SOL     OW 3720   1.001   3.758   3.016
 1236SOL    HW1 3721   0.938   3.686   2.985
 1236SOL    HW2 3722   1.094   3.722   3.016
 1237SOL     OW 3723   1.352   3.776   2.030
 1237SOL    HW1 3724   1.387   3.735   1.946
 1237SOL    HW2 3725   1.262   3.738   2.050
 1238SOL     OW 3726   1.300   4.177   2.553
 1238SOL    HW1 3727   1.241   4.257   2.557
 1238SOL    HW2 3728   1.315   4.142   2.646
 1239SOL     OW 3729   1.593   3.945   2.744
 1239SOL    HW1 3730   1.509   3.944   2.798
 1239SOL    HW2 3731   1.595   4.028   2.688
 1240SOL     OW 3732   0.230   4.352   3.837
 1240SOL    HW1 3733   0.137   4.350   3.874
 1240SOL    HW2 3734   0.231   4.313   3.745
 1241SOL     OW 3735   0.225   3.999   4.720
 1241SOL    HW1 3736   0.260   3.982   4.812
 1241SOL    HW2 3737   0.137   3.954   4.708
 1242SOL     OW 3738   0.019   4.092   4.371
 1242SOL    HW1 3739  -0.063   4.135   4.410
 1242SOL    HW2 3740  -0.009   4.019   4.308
 1243SOL     OW 3741   1.755   4.331   3.955
 1243SOL    HW1 3742   1.743   4.318   3.856
 1243SOL    HW2 3743   1.725   4.250   4.004
 1244SOL     OW 3744   0.685   4.736   4.389
 1244SOL    HW1 3745   0.754   4.720   4.459
 1244SOL    HW2 3746   0.612   4.793   4.427
 1245SOL     OW 3747   1.603   4.171   4.461
 1245SOL    HW1 3748   1.529   4.217   4.411
 1245SOL    HW2 3749   1.654   4.239   4.514
 1246SOL     OW 3750   0.122   4.367   4.287
 1246SOL    HW1 3751   0.077   4.279   4.304
 1246SOL    HW2 3752   0.121   4.421   4.371
 1247SOL     OW 3753   0.809   3.728   4.226
 1247SOL    HW1 3754   0.849   3.819   4.217
 1247SOL    HW2 3755   0.709   3.736   4.232
 1248SOL     OW 3756   0.598   4.453   3.994
 1248SOL    HW1 3757   0.622   4.522   3.926
 1248SOL    HW2 3758   0.520   4.486   4.048
 1249SOL     OW 3759   1.281   4.069   4.668
 1249SOL    HW1 3760   1.195   4.019   4.655
 1249SOL    HW2 3761   1.343   4.015   4.724
 1250SOL     OW 3762   1.041   4.425   4.153
 1250SOL    HW1 3763   1.067   4.421   4.249
 1250SOL    HW2 3764   0.956   4.374   4.139
 1251SOL     OW 3765   0.076   4.535   4.513
 1251SOL    HW1 3766   0.175   4.523   4.522
 1251SOL    HW2 3767   0.052   4.630   4.534
 1252SOL     OW 3768   0.865   4.072   3.919
 1252SOL    HW1 3769   0.924   4.135   3.870
 1252SOL    HW2 3770   0.884   3.978   3.890
 1253SOL     OW 3771   1.458   4.459   4.452
 1253SOL    HW1 3772   1.453   4.394   4.527
 1253SOL    HW2 3773   1.538   4.518   4.465
 1254SOL     OW 3774   1.400   3.831   4.150
 1254SOL    HW1 3775   1.376   3.794   4.060
 1254SOL    HW2 3776   1.499   3.847   4.154
 1255SOL     OW 3777   0.382   4.424   4.204
 1255SOL    HW1 3778   0.427   4.334   4.201
 1255SOL    HW2 3779   0.288   4.413   4.237
 1256SOL     OW 3780   0.614   3.846   3.841
 1256SOL    HW1 3781   0.712   3.824   3.848
 1256SOL    HW2 3782   0.583   3.829   3.748
 1257SOL     OW 3783   0.539   3.788   4.236
 1257SOL    HW1 3784   0.458   3.789   4.294
 1257SOL    HW2 3785   0.542   3.871   4.181
 1258SOL     OW 3786   0.297   3.759   3.895
 1258SOL    HW1 3787   0.346   3.843   3.874
 1258SOL    HW2 3788   0.359   3.694   3.940
 1259SOL     OW 3789   0.935   3.960   4.204
 1259SOL    HW1 3790   0.887   4.001   4.126
 1259SOL    HW2 3791   1.034   3.958   4.185
 1260SOL     OW 3792   1.032   4.273   3.740
 1260SOL    HW1 3793   0.991   4.355   3.701
 1260SOL    HW2 3794   1.096   4.299   3.813
 1261SOL     OW 3795   0.866   4.178   4.366
 1261SOL    HW1 3796   0.834   4.250   4.304
 1261SOL    HW2 3797   0.890   4.097   4.313
 1262SOL     OW 3798   1.017   3.763   4.477
 1262SOL    HW1 3799   0.945   3.768   4.408
 1262SOL    HW2 3800   0.993   3.694   4.546
 1263SOL     OW 3801   1.857   4.557   4.101
 1263SOL    HW1 3802   1.899   4.493   4.165
 1263SOL    HW2 3803   1.819   4.506   4.023
 1264SOL     OW 3804   1.390   4.299   3.802
 1264SOL    HW1 3805   1.336   4.278   3.883
 1264SOL    HW2 3806   1.481   4.258   3.811
 1265SOL     OW 3807   0.527   3.980   4.052
 1265SOL    HW1 3808   0.554   3.921   3.977
 1265SOL    HW2 3809   0.527   4.075   4.021
 1266SOL     OW 3810   0.705   4.774   4.092
 1266SOL    HW1 3811   0.691   4.781   4.191
 1266SOL    HW2 3812   0.789   4.723   4.074
 1267SOL     OW 3813   1.582   4.363   4.196
 1267SOL    HW1 3814   1.551   4.424   4.269
 1267SOL    HW2 3815   1.632   4.415   4.127
 1268SOL     OW 3816   1.209   4.249   3.999
 1268SOL    HW1 3817   1.222   4.165   4.053
 1268SOL    HW2 3818   1.180   4.323   4.059
 1269SOL     OW 3819   0.307   3.787   4.342
 1269SOL    HW1 3820   0.296   3.881   4.375
 1269SOL    HW2 3821   0.302   3.724   4.419
 1270SOL     OW 3822   1.622   4.091   4.098
 1270SOL    HW1 3823   1.624   4.015   4.162
 1270SOL    HW2 3824   1.574   4.168   4.138
 1271SOL     OW 3825   1.540   3.998   3.849
 1271SOL    HW1 3826   1.479   3.923   3.872
 1271SOL    HW2 3827   1.562   4.050   3.932
 1272SOL     OW 3828   0.815   4.296   4.049
 1272SOL    HW1 3829   0.822   4.207   4.003
 1272SOL    HW2 3830   0.721   4.330   4.041
 1273SOL     OW 3831   0.473   4.224   3.915
 1273SOL    HW1 3832   0.534   4.304   3.919
 1273SOL    HW2 3833   0.378   4.255   3.922
 1274SOL     OW 3834   1.726   3.859   4.247
 1274SOL    HW1 3835   1.799   3.842   4.180
 1274SOL    HW2 3836   1.695   3.772   4.285
 1275SOL     OW 3837   1.280   4.651   4.396
 1275SOL    HW1 3838   1.340   4.570   4.398
 1275SOL    HW2 3839   1.320   4.720   4.336
 1276SOL     OW 3840   1.841   3.899   4.687
 1276SOL    HW1 3841   1.880   3.814   4.651
 1276SOL    HW2 3842   1.743   3.901   4.668
 1277SOL     OW 3843   0.263   4.050   4.444
 1277SOL    HW1 3844   0.184   4.101   4.410
 1277SOL    HW2 3845   0.254   4.035   4.542
 1278SOL     OW 3846   0.916   4.634   4.015
 1278SOL    HW1 3847   0.979   4.672   3.947
 1278SOL    HW2 3848   0.956   4.551   4.054
 1279SOL     OW 3849   1.039   4.822   4.420
 1279SOL    HW1 3850   0.969   4.775   4.474
 1279SOL    HW2 3851   1.098   4.754   4.377
 1280SOL     OW 3852   0.075   4.069   3.757
 1280SOL    HW1 3853  -0.017   4.041   3.728
 1280SOL    HW2 3854   0.106   4.146   3.701
 1281SOL     OW 3855   0.072   3.890   4.042
 1281SOL    HW1 3856   0.055   3.973   3.988
 1281SOL    HW2 3857   0.162   3.853   4.020
 1282SOL     OW 3858   1.225   4.049   4.173
 1282SOL    HW1 3859   1.290   3.975   4.162
 1282SOL    HW2 3860   1.245   4.099   4.257
 1283SOL     OW 3861   0.594   4.469   4.376
 1283SOL    HW1 3862   0.644   4.554   4.357
 1283SOL    HW2 3863   0.506   4.471   4.328
 1284SOL     OW 3864   0.428   4.148   4.244
 1284SOL    HW1 3865   0.458   4.076   4.182
 1284SOL    HW2 3866   0.389   4.108   4.327
 1285SOL     OW 3867   1.352   3.776   3.892
 1285SOL    HW1 3868   1.387   3.735   3.808
 1285SOL    HW2 3869   1.262   3.738   3.912
 1286SOL     OW 3870   1.300   4.177   4.415
 1286SOL    HW1 3871   1.241   4.257   4.419
 1286SOL    HW2 3872   1.315   4.142   4.508
 1287SOL     OW 3873   2.092   0.628   0.113
 1287SOL    HW1 3874   1.999   0.626   0.150
 1287SOL    HW2 3875   2.093   0.589   0.021
 1288SOL     OW 3876   2.087   0.275   0.996
 1288SOL    HW1 3877   2.122   0.258   1.088
 1288SOL    HW2 3878   1.999   0.230   0.984
 1289SOL     OW 3879   1.881   0.368   0.647
 1289SOL    HW1 3880   1.799   0.411   0.686
 1289SOL    HW2 3881   1.853   0.295   0.584
 1290SOL     OW 3882   2.431   1.275   1.165
 1290SOL    HW1 3883   2.338   1.268   1.128
 1290SOL    HW2 3884   2.442   1.364   1.209
 1291SOL     OW 3885   3.417   1.511   0.703
 1291SOL    HW1 3886   3.360   1.495   0.784
 1291SOL    HW2 3887   3.358   1.521   0.623
 1292SOL     OW 3888   2.997   0.703   0.717
 1292SOL    HW1 3889   3.054   0.781   0.692
 1292SOL    HW2 3890   2.937   0.729   0.793
 1293SOL     OW 3891   3.617   0.607   0.231
 1293SOL    HW1 3892   3.605   0.594   0.132
 1293SOL    HW2 3893   3.587   0.526   0.280
 1294SOL     OW 3894   2.630   1.144   1.023
 1294SOL    HW1 3895   2.552   1.161   1.083
 1294SOL    HW2 3896   2.664   1.231   0.987
 1295SOL     OW 3897   2.712   0.798   1.823
 1295SOL    HW1 3898   2.708   0.874   1.888
 1295SOL    HW2 3899   2.734   0.834   1.732
 1296SOL     OW 3900   2.547   1.012   0.665
 1296SOL    HW1 3901   2.616   0.996   0.735
 1296SOL    HW2 3902   2.474   1.069   0.703
 1297SOL     OW 3903   2.548   1.161   1.803
 1297SOL    HW1 3904   2.608   1.240   1.817
 1297SOL    HW2 3905   2.462   1.192   1.762
 1298SOL     OW 3906   2.197   1.435   1.061
 1298SOL    HW1 3907   2.119   1.404   1.008
 1298SOL    HW2 3908   2.255   1.493   1.004
 1299SOL     OW 3909   3.322   1.505   1.339
 1299SOL    HW1 3910   3.346   1.599   1.365
 1299SOL    HW2 3911   3.306   1.451   1.421
 1300SOL     OW 3912   2.300   0.392   1.499
 1300SOL    HW1 3913   2.382   0.336   1.508
 1300SOL    HW2 3914   2.219   0.334   1.503
 1301SOL     OW 3915   3.465   0.447   0.737
 1301SOL    HW1 3916   3.391   0.493   0.687
 1301SOL    HW2 3917   3.516   0.515   0.790
 1302SOL     OW 3918   2.093   1.713   0.483
 1302SOL    HW1 3919   2.127   1.790   0.537
 1302SOL    HW2 3920   2.137   1.713   0.393
 1303SOL     OW 3921   2.989   1.341   1.690
 1303SOL    HW1 3922   3.036   1.341   1.778
 1303SOL    HW2 3923   2.941   1.254   1.679
 1304SOL     OW 3924   2.092   1.434   0.538
 1304SOL    HW1 3925   2.066   1.530   0.538
 1304SOL    HW2 3926   2.021   1.380   0.583
 1305SOL     OW 3927   2.102   1.091   0.886
 1305SOL    HW1 3928   2.116   1.007   0.938
 1305SOL    HW2 3929   2.047   1.155   0.941
 1306SOL     OW 3930   2.482   1.786   1.439
 1306SOL    HW1 3931   2.390   1.769   1.474
 1306SOL    HW2 3932   2.510   1.878   1.465
 1307SOL     OW 3933   2.468   0.964   0.123
 1307SOL    HW1 3934   2.475   1.048   0.069
 1307SOL    HW2 3935   2.514   0.977   0.211
 1308SOL     OW 3936   3.456   0.114   1.480
 1308SOL    HW1 3937   3.438   0.181   1.408
 1308SOL    HW2 3938   3.453   0.160   1.569
 1309SOL     OW 3939   1.984   0.643   0.563
 1309SOL    HW1 3940   1.939   0.555   0.580
 1309SOL    HW2 3941   1.983   0.697   0.647
 1310SOL     OW 3942   3.704   1.767   0.359
 1310SOL    HW1 3943   3.758   1.738   0.439
 1310SOL    HW2 3944   3.734   1.857   0.330
 1311SOL     OW 3945   1.889   1.596   0.117
 1311SOL    HW1 3946   1.870   1.500   0.138
 1311SOL    HW2 3947   1.856   1.654   0.192
 1312SOL     OW 3948   3.551   0.922   0.612
 1312SOL    HW1 3949   3.646   0.893   0.620
 1312SOL    HW2 3950   3.543   0.987   0.537
 1313SOL     OW 3951   3.503   1.108   0.432
 1313SOL    HW1 3952   3.589   1.110   0.380
 1313SOL    HW2 3953   3.517   1.155   0.520
 1314SOL     OW 3954   1.975   0.737   1.597
 1314SOL    HW1 3955   2.063   0.724   1.642
 1314SOL    HW2 3956   1.962   0.834   1.575
 1315SOL     OW 3957   2.475   1.365   0.726
 1315SOL    HW1 3958   2.426   1.278   0.735
 1315SOL    HW2 3959   2.452   1.408   0.639
 1316SOL     OW 3960   3.155   1.228   1.423
 1316SOL    HW1 3961   3.192   1.155   1.365
 1316SOL    HW2 3962   3.207   1.233   1.508
 1317SOL     OW 3963   2.671   0.004   0.502
 1317SOL    HW1 3964   2.711   0.095   0.493
 1317SOL    HW2 3965   2.571   0.012   0.508
 1318SOL     OW 3966   2.059   0.976   1.264
 1318SOL    HW1 3967   2.148   0.931   1.250
 1318SOL    HW2 3968   1.986   0.911   1.245
 1319SOL     OW 3969   3.387   0.999   0.190
 1319SOL    HW1 3970   3.324   0.923   0.203
 1319SOL    HW2 3971   3.435   1.017   0.276
 1320SOL     OW 3972   3.049   1.792   1.616
 1320SOL    HW1 3973   3.073   1.852   1.540
 1320SOL    HW2 3974   3.056   1.697   1.586
 1321SOL     OW 3975   2.179   0.251   1.801
 1321SOL    HW1 3976   2.250   0.322   1.807
 1321SOL    HW2 3977   2.091   0.290   1.829
 1322SOL     OW 3978   3.328   1.417   0.953
 1322SOL    HW1 3979   3.269   1.423   1.033
 1322SOL    HW2 3980   3.313   1.329   0.907
 1323SOL     OW 3981   3.529   1.714   0.572
 1323SOL    HW1 3982   3.488   1.691   0.484
 1323SOL    HW2 3983   3.511   1.640   0.637
 1324SOL     OW 3984   2.460   0.729   0.270
 1324SOL    HW1 3985   2.484   0.798   0.202
 1324SOL    HW2 3986   2.382   0.762   0.324
 1325SOL     OW 3987   3.143   0.345   0.944
 1325SOL    HW1 3988   3.057   0.295   0.931
 1325SOL    HW2 3989   3.205   0.291   1.000
 1326SOL     OW 3990   3.438   1.662   0.307
 1326SOL    HW1 3991   3.527   1.708   0.310
 1326SOL    HW2 3992   3.417   1.638   0.212
 1327SOL     OW 3993   2.669   0.605   1.465
 1327SOL    HW1 3994   2.622   0.602   1.554
 1327SOL    HW2 3995   2.618   0.550   1.399
 1328SOL     OW 3996   3.256   0.469   1.674
 1328SOL    HW1 3997   3.236   0.512   1.762
 1328SOL    HW2 3998   3.334   0.407   1.683
 1329SOL     OW 3999   2.835   0.890   1.572
 1329SOL    HW1 4000   2.881   0.806   1.543
 1329SOL    HW2 4001   2.779   0.924   1.497
 1330SOL     OW 4002   2.853   0.410   1.242
 1330SOL    HW1 4003   2.776   0.444   1.296
 1330SOL    HW2 4004   2.819   0.359   1.163
 1331SOL     OW 4005   2.903   0.701   0.429
 1331SOL    HW1 4006   2.929   0.697   0.525
 1331SOL    HW2 4007   2.818   0.650   0.415
 1332SOL     OW 4008   1.938   0.811   0.789
 1332SOL    HW1 4009   2.037   0.799   0.798
 1332SOL    HW2 4010   1.914   0.906   0.810
 1333SOL     OW 4011   1.992   1.821   1.571
 1333SOL    HW1 4012   1.982   1.806   1.670
 1333SOL    HW2 4013   1.906   1.857   1.535
 1334SOL     OW 4014   2.727   0.348   0.195
 1334SOL    HW1 4015   2.786   0.411   0.146
 1334SOL    HW2 4016   2.746   0.254   0.166
 1335SOL     OW 4017   3.581   0.585   1.831
 1335SOL    HW1 4018   3.555   0.674   1.795
 1335SOL    HW2 4019   3.579   0.517   1.758
 1336SOL     OW 4020   3.224   1.144   0.545
 1336SOL    HW1 4021   3.307   1.115   0.497
 1336SOL    HW2 4022   3.175   1.211   0.489
 1337SOL     OW 4023   2.412   0.196   0.885
 1337SOL    HW1 4024   2.407   0.191   0.985
 1337SOL    HW2 4025   2.414   0.292   0.856
 1338SOL     OW 4026   2.870   1.456   0.477
 1338SOL    HW1 4027   2.824   1.528   0.425
 1338SOL    HW2 4028   2.866   1.476   0.575
 1339SOL     OW 4029   2.213   1.801   0.853
 1339SOL    HW1 4030   2.263   1.715   0.859
 1339SOL    HW2 4031   2.278   1.878   0.850
 1340SOL     OW 4032   3.657   1.066   0.873
 1340SOL    HW1 4033   3.595   1.051   0.797
 1340SOL    HW2 4034   3.605   1.077   0.958
 1341SOL     OW 4035   3.089   1.550   1.506
 1341SOL    HW1 4036   3.095   1.473   1.570
 1341SOL    HW2 4037   3.037   1.524   1.426
 1342SOL     OW 4038   2.183   0.943   0.242
 1342SOL    HW1 4039   2.265   0.982   0.200
 1342SOL    HW2 4040   2.156   0.861   0.193
 1343SOL     OW 4041   3.320   0.735   0.728
 1343SOL    HW1 4042   3.315   0.670   0.803
 1343SOL    HW2 4043   3.400   0.794   0.741
 1344SOL     OW 4044   2.323   1.266   1.727
 1344SOL    HW1 4045   2.273   1.267   1.641
 1344SOL    HW2 4046   2.260   1.248   1.803
 1345SOL     OW 4047   2.973   1.776   0.237
 1345SOL    HW1 4048   2.913   1.714   0.287
 1345SOL    HW2 4049   3.004   1.732   0.152
 1346SOL     OW 4050   2.064   0.285   1.498
 1346SOL    HW1 4051   1.984   0.345   1.485
 1346SOL    HW2 4052   2.054   0.236   1.584
 1347SOL     OW 4053   3.494   1.377   0.081
 1347SOL    HW1 4054   3.462   1.471   0.071
 1347SOL    HW2 4055   3.418   1.314   0.069
 1348SOL     OW 4056   2.326   1.743   0.323
 1348SOL    HW1 4057   2.359   1.782   0.409
 1348SOL    HW2 4058   2.402   1.736   0.258
 1349SOL     OW 4059   3.262   0.107   0.426
 1349SOL    HW1 4060   3.238   0.070   0.336
 1349SOL    HW2 4061   3.361   0.123   0.430
 1350SOL     OW 4062   2.111   1.785   1.241
 1350SOL    HW1 4063   2.168   1.720   1.291
 1350SOL    HW2 4064   2.095   1.752   1.148
 1351SOL     OW 4065   2.802   1.698   0.904
 1351SOL    HW1 4066   2.882   1.641   0.925
 1351SOL    HW2 4067   2.753   1.658   0.827
 1352SOL     OW 4068   2.244   0.700   0.480
 1352SOL    HW1 4069   2.289   0.610   0.477
 1352SOL    HW2 4070   2.150   0.689   0.513
 1353SOL     OW 4071   3.409   0.222   1.729
 1353SOL    HW1 4072   3.404   0.259   1.821
 1353SOL    HW2 4073   3.337   0.153   1.717
 1354SOL     OW 4074   2.476   0.122   0.117
 1354SOL    HW1 4075   2.574   0.100   0.124
 1354SOL    HW2 4076   2.445   0.105   0.024
 1355SOL     OW 4077   2.643   0.264   1.749
 1355SOL    HW1 4078   2.710   0.203   1.792
 1355SOL    HW2 4079   2.570   0.283   1.814
 1356SOL     OW 4080   2.750   1.514   1.195
 1356SOL    HW1 4081   2.727   1.489   1.101
 1356SOL    HW2 4082   2.811   1.445   1.234
 1357SOL     OW 4083   3.213   0.590   1.433
 1357SOL    HW1 4084   3.241   0.547   1.518
 1357SOL    HW2 4085   3.238   0.686   1.434
 1358SOL     OW 4086   2.665   1.402   0.924
 1358SOL    HW1 4087   2.755   1.416   0.882
 1358SOL    HW2 4088   2.594   1.404   0.853
 1359SOL     OW 4089   2.784   0.503   0.899
 1359SOL    HW1 4090   2.759   0.494   0.803
 1359SOL    HW2 4091   2.832   0.421   0.930
 1360SOL     OW 4092   2.401   0.064   0.512
 1360SOL    HW1 4093   2.320   0.065   0.570
 1360SOL    HW2 4094   2.404   0.147   0.457
 1361SOL     OW 4095   3.296   1.188   0.041
 1361SOL    HW1 4096   3.328   1.112   0.098
 1361SOL    HW2 4097   3.204   1.215   0.071
 1362SOL     OW 4098   2.159   0.035   0.171
 1362SOL    HW1 4099   2.208   0.119   0.150
 1362SOL    HW2 4100   2.221  -0.030   0.216
 1363SOL     OW 4101   2.797   0.236   0.480
 1363SOL    HW1 4102   2.749   0.277   0.402
 1363SOL    HW2 4103   2.896   0.234   0.461
 1364SOL     OW 4104   2.938   0.683   1.464
 1364SOL    HW1 4105   2.858   0.622   1.467
 1364SOL    HW2 4106   3.019   0.630   1.440
 1365SOL     OW 4107   3.089   1.570   0.793
 1365SOL    HW1 4108   3.110   1.644   0.728
 1365SOL    HW2 4109   3.157   1.570   0.866
 1366SOL     OW 4110   2.321   1.152   0.741
 1366SOL    HW1 4111   2.250   1.125   0.806
 1366SOL    HW2 4112   2.295   1.124   0.648
 1367SOL     OW 4113   3.133   1.797   0.591
 1367SOL    HW1 4114   3.177   1.861   0.527
 1367SOL    HW2 4115   3.083   1.849   0.661
 1368SOL     OW 4116   2.894   0.549   0.016
 1368SOL    HW1 4117   2.853   0.631  -0.023
 1368SOL    HW2 4118   2.958   0.575   0.089
 1369SOL     OW 4119   1.940   0.556   1.386
 1369SOL    HW1 4120   2.032   0.555   1.345
 1369SOL    HW2 4121   1.934   0.630   1.453
 1370SOL     OW 4122   2.423   0.222   1.147
 1370SOL    HW1 4123   2.461   0.138   1.184
 1370SOL    HW2 4124   2.335   0.241   1.191
 1371SOL     OW 4125   2.728   0.454   0.642
 1371SOL    HW1 4126   2.696   0.526   0.580
 1371SOL    HW2 4127   2.752   0.373   0.589
 1372SOL     OW 4128   2.879   0.039   0.753
 1372SOL    HW1 4129   2.807   0.044   0.684
 1372SOL    HW2 4130   2.855  -0.030   0.822
 1373SOL     OW 4131   3.291   1.173   0.867
 1373SOL    HW1 4132   3.236   1.089   0.860
 1373SOL    HW2 4133   3.317   1.202   0.775
 1374SOL     OW 4134   3.328   0.590   0.992
 1374SOL    HW1 4135   3.298   0.495   0.999
 1374SOL    HW2 4136   3.401   0.606   1.058
 1375SOL     OW 4137   3.719   0.833   0.377
 1375SOL    HW1 4138   3.761   0.769   0.441
 1375SOL    HW2 4139   3.681   0.782   0.299
 1376SOL     OW 4140   2.350   1.385   0.174
 1376SOL    HW1 4141   2.263   1.370   0.221
 1376SOL    HW2 4142   2.333   1.411   0.079
 1377SOL     OW 4143   3.526   1.280   0.657
 1377SOL    HW1 4144   3.625   1.288   0.671
 1377SOL    HW2 4145   3.481   1.364   0.688
 1378SOL     OW 4146   3.252   0.575   0.078
 1378SOL    HW1 4147   3.198   0.554   0.159
 1378SOL    HW2 4148   3.343   0.534   0.087
 1379SOL     OW 4149   2.389   0.256   0.328
 1379SOL    HW1 4150   2.416   0.197   0.253
 1379SOL    HW2 4151   2.389   0.351   0.297
 1380SOL     OW 4152   3.616   1.223   1.588
 1380SOL    HW1 4153   3.707   1.184   1.575
 1380SOL    HW2 4154   3.624   1.319   1.612
 1381SOL     OW 4155   2.926   1.347   1.340
 1381SOL    HW1 4156   2.846   1.324   1.395
 1381SOL    HW2 4157   3.009   1.321   1.389
 1382SOL     OW 4158   3.454   1.629   1.625
 1382SOL    HW1 4159   3.481   1.663   1.535
 1382SOL    HW2 4160   3.533   1.591   1.671
 1383SOL     OW 4161   2.973   1.195   1.100
 1383SOL    HW1 4162   2.933   1.239   1.181
 1383SOL    HW2 4163   2.932   1.232   1.017
 1384SOL     OW 4164   3.500   1.099   1.079
 1384SOL    HW1 4165   3.505   1.180   1.138
 1384SOL    HW2 4166   3.414   1.101   1.028
 1385SOL     OW 4167   2.777   0.089   1.402
 1385SOL    HW1 4168   2.802   0.069   1.307
 1385SOL    HW2 4169   2.849   0.145   1.444
 1386SOL     OW 4170   2.842   1.116   1.719
 1386SOL    HW1 4171   2.743   1.122   1.729
 1386SOL    HW2 4172   2.865   1.036   1.663
 1387SOL     OW 4173   2.567   1.050   0.368
 1387SOL    HW1 4174   2.553   1.057   0.467
 1387SOL    HW2 4175   2.651   0.999   0.350
 1388SOL     OW 4176   2.272   0.813   1.251
 1388SOL    HW1 4177   2.358   0.825   1.301
 1388SOL    HW2 4178   2.230   0.726   1.278
 1389SOL     OW 4179   3.136   0.386   1.262
 1389SOL    HW1 4180   3.157   0.460   1.326
 1389SOL    HW2 4181   3.047   0.403   1.219
 1390SOL     OW 4182   1.926   1.564   1.331
 1390SOL    HW1 4183   1.880   1.646   1.297
 1390SOL    HW2 4184   2.024   1.583   1.340
 1391SOL     OW 4185   2.229   1.100   0.501
 1391SOL    HW1 4186   2.222   1.183   0.445
 1391SOL    HW2 4187   2.233   1.020   0.441
 1392SOL     OW 4188   2.428   0.537   0.865
 1392SOL    HW1 4189   2.440   0.603   0.791
 1392SOL    HW2 4190   2.474   0.571   0.948
 1393SOL     OW 4191   3.114   1.348   0.388
 1393SOL    HW1 4192   3.164   1.425   0.428
 1393SOL    HW2 4193   3.019   1.350   0.420
 1394SOL     OW 4194   3.134   1.445   1.142
 1394SOL    HW1 4195   3.181   1.458   1.229
 1394SOL    HW2 4196   3.068   1.371   1.151
 1395SOL     OW 4197   3.444   0.639   0.472
 1395SOL    HW1 4198   3.413   0.700   0.545
 1395SOL    HW2 4199   3.494   0.691   0.403
 1396SOL     OW 4200   2.216   1.510   1.329
 1396SOL    HW1 4201   2.195   1.466   1.242
 1396SOL    HW2 4202   2.313   1.536   1.332
 1397SOL     OW 4203   2.264   0.751   1.598
 1397SOL    HW1 4204   2.332   0.806   1.551
 1397SOL    HW2 4205   2.304   0.663   1.625
 1398SOL     OW 4206   3.449   0.779   1.670
 1398SOL    HW1 4207   3.357   0.817   1.665
 1398SOL    HW2 4208   3.509   0.826   1.605
 1399SOL     OW 4209   2.875   0.105   1.770
 1399SOL    HW1 4210   2.881   0.190   1.718
 1399SOL    HW2 4211   2.907   0.029   1.713
 1400SOL     OW 4212   2.366   0.050   1.740
 1400SOL    HW1 4213   2.324  -0.007   1.670
 1400SOL    HW2 4214   2.300   0.119   1.772
 1401SOL     OW 4215   2.435   0.870   1.029
 1401SOL    HW1 4216   2.479   0.959   1.020
 1401SOL    HW2 4217   2.372   0.870   1.106
 1402SOL     OW 4218   3.222   0.862   1.045
 1402SOL    HW1 4219   3.147   0.862   0.979
 1402SOL    HW2 4220   3.259   0.770   1.054
 1403SOL     OW 4221   3.071   0.525   0.275
 1403SOL    HW1 4222   3.084   0.441   0.329
 1403SOL    HW2 4223   3.042   0.599   0.335
 1404SOL     OW 4224   2.169   0.213   1.231
 1404SOL    HW1 4225   2.146   0.250   1.321
 1404SOL    HW2 4226   2.139   0.118   1.225
 1405SOL     OW 4227   1.899   1.310   1.282
 1405SOL    HW1 4228   1.952   1.261   1.350
 1405SOL    HW2 4229   1.921   1.408   1.287
 1406SOL     OW 4230   2.594   0.634   1.064
 1406SOL    HW1 4231   2.653   0.608   0.988
 1406SOL    HW2 4232   2.566   0.730   1.053
 1407SOL     OW 4233   3.590   0.935   1.854
 1407SOL    HW1 4234   3.544   0.928   1.765
 1407SOL    HW2 4235   3.528   0.979   1.920
 1408SOL     OW 4236   2.169   0.063   0.618
 1408SOL    HW1 4237   2.158   0.157   0.651
 1408SOL    HW2 4238   2.164   0.000   0.695
 1409SOL     OW 4239   3.484   0.367   0.374
 1409SOL    HW1 4240   3.486   0.291   0.438
 1409SOL    HW2 4241   3.436   0.444   0.414
 1410SOL     OW 4242   2.885   0.766   0.966
 1410SOL    HW1 4243   2.900   0.787   1.062
 1410SOL    HW2 4244   2.855   0.671   0.957
 1411SOL     OW 4245   2.842   1.573   1.700
 1411SOL    HW1 4246   2.822   1.617   1.612
 1411SOL    HW2 4247   2.881   1.482   1.684
 1412SOL     OW 4248   3.721   1.518   1.605
 1412SOL    HW1 4249   3.735   1.545   1.510
 1412SOL    HW2 4250   3.804   1.540   1.658
 1413SOL     OW 4251   2.212   0.898   1.804
 1413SOL    HW1 4252   2.288   0.942   1.852
 1413SOL    HW2 4253   2.247   0.851   1.722
 1414SOL     OW 4254   3.402   0.274   0.125
 1414SOL    HW1 4255   3.341   0.199   0.148
 1414SOL    HW2 4256   3.424   0.326   0.208
 1415SOL     OW 4257   3.165   0.838   0.042
 1415SOL    HW1 4258   3.199   0.745   0.057
 1415SOL    HW2 4259   3.183   0.865  -0.053
 1416SOL     OW 4260   2.930   1.333   0.849
 1416SOL    HW1 4261   2.937   1.249   0.794
 1416SOL    HW2 4262   2.992   1.402   0.813
 1417SOL     OW 4263   2.181   0.810   0.949
 1417SOL    HW1 4264   2.274   0.846   0.954
 1417SOL    HW2 4265   2.175   0.725   1.001
 1418SOL     OW 4266   2.201   0.509   1.006
 1418SOL    HW1 4267   2.149   0.426   0.989
 1418SOL    HW2 4268   2.278   0.514   0.942
 1419SOL     OW 4269   3.000   0.380   1.678
 1419SOL    HW1 4270   2.955   0.443   1.742
 1419SOL    HW2 4271   3.093   0.411   1.661
 1420SOL     OW 4272   3.022   0.207   1.477
 1420SOL    HW1 4273   3.022   0.271   1.554
 1420SOL    HW2 4274   3.050   0.255   1.394
 1421SOL     OW 4275   1.870   1.326   0.200
 1421SOL    HW1 4276   1.777   1.347   0.169
 1421SOL    HW2 4277   1.880   1.227   0.213
 1422SOL     OW 4278   1.950   1.801   0.927
 1422SOL    HW1 4279   1.908   1.715   0.900
 1422SOL    HW2 4280   2.044   1.804   0.893
 1423SOL     OW 4281   2.366   1.568   0.910
 1423SOL    HW1 4282   2.432   1.642   0.919
 1423SOL    HW2 4283   2.410   1.489   0.868
 1424SOL     OW 4284   2.864   0.796   1.238
 1424SOL    HW1 4285   2.905   0.764   1.324
 1424SOL    HW2 4286   2.768   0.769   1.235
 1425SOL     OW 4287   1.902   0.544   1.114
 1425SOL    HW1 4288   1.987   0.511   1.073
 1425SOL    HW2 4289   1.915   0.559   1.212
 1426SOL     OW 4290   2.051   0.520   1.722
 1426SOL    HW1 4291   2.110   0.480   1.652
 1426SOL    HW2 4292   1.993   0.591   1.681
 1427SOL     OW 4293   3.231   0.950   1.660
 1427SOL    HW1 4294   3.270   1.039   1.680
 1427SOL    HW2 4295   3.241   0.930   1.563
 1428SOL     OW 4296   2.677   0.572   0.325
 1428SOL    HW1 4297   2.684   0.483   0.279
 1428SOL    HW2 4298   2.583   0.606   0.317
 1429SOL     OW 4299   3.519   0.604   1.206
 1429SOL    HW1 4300   3.481   0.535   1.268
 1429SOL    HW2 4301   3.601   0.568   1.162
 1430SOL     OW 4302   2.114   1.564   1.744
 1430SOL    HW1 4303   2.084   1.621   1.820
 1430SOL    HW2 4304   2.107   1.467   1.770
 1431SOL     OW 4305   2.533   0.464   1.269
 1431SOL    HW1 4306   2.499   0.375   1.239
 1431SOL    HW2 4307   2.559   0.518   1.189
 1432SOL     OW 4308   2.792   1.678   1.465
 1432SOL    HW1 4309   2.768   1.660   1.370
 1432SOL    HW2 4310   2.822   1.772   1.475
 1433SOL     OW 4311   2.335   0.500   0.191
 1433SOL    HW1 4312   2.396   0.580   0.195
 1433SOL    HW2 4313   2.240   0.531   0.198
 1434SOL     OW 4314   2.021   1.137   1.466
 1434SOL    HW1 4315   2.043   1.076   1.542
 1434SOL    HW2 4316   2.031   1.088   1.380
 1435SOL     OW 4317   3.209   1.059   1.234
 1435SOL    HW1 4318   3.233   0.996   1.160
 1435SOL    HW2 4319   3.119   1.099   1.216
 1436SOL     OW 4320   3.164   0.855   0.309
 1436SOL    HW1 4321   3.078   0.824   0.351
 1436SOL    HW2 4322   3.160   0.841   0.210
 1437SOL     OW 4323   3.621   1.747   1.154
 1437SOL    HW1 4324   3.682   1.777   1.081
 1437SOL    HW2 4325   3.583   1.658   1.132
 1438SOL     OW 4326   3.114   1.731   1.128
 1438SOL    HW1 4327   3.198   1.736   1.074
 1438SOL    HW2 4328   3.091   1.635   1.146
 1439SOL     OW 4329   1.945   1.258   1.022
 1439SOL    HW1 4330   1.940   1.257   1.122
 1439SOL    HW2 4331   1.862   1.217   0.984
 1440SOL     OW 4332   2.550   1.662   1.716
 1440SOL    HW1 4333   2.494   1.743   1.725
 1440SOL    HW2 4334   2.602   1.666   1.630
 1441SOL     OW 4335   2.765   0.086   0.133
 1441SOL    HW1 4336   2.816   0.087   0.047
 1441SOL    HW2 4337   2.821   0.044   0.204
 1442SOL     OW 4338   3.588   0.135   0.523
 1442SOL    HW1 4339   3.661   0.118   0.456
 1442SOL    HW2 4340   3.557   0.048   0.561
 1443SOL     OW 4341   3.250   1.573   0.477
 1443SOL    HW1 4342   3.317   1.585   0.403
 1443SOL    HW2 4343   3.210   1.662   0.500
 1444SOL     OW 4344   1.992   1.794   1.851
 1444SOL    HW1 4345   1.951   1.720   1.904
 1444SOL    HW2 4346   2.056   1.845   1.909
 1445SOL     OW 4347   3.142   0.927   0.672
 1445SOL    HW1 4348   3.202   0.846   0.674
 1445SOL    HW2 4349   3.182   0.996   0.612
 1446SOL     OW 4350   2.692   1.273   1.422
 1446SOL    HW1 4351   2.687   1.306   1.517
 1446SOL    HW2 4352   2.606   1.292   1.376
 1447SOL     OW 4353   2.534   1.616   0.154
 1447SOL    HW1 4354   2.543   1.626   0.055
 1447SOL    HW2 4355   2.494   1.527   0.175
 1448SOL     OW 4356   3.512   1.720   1.394
 1448SOL    HW1 4357   3.565   1.730   1.310
 1448SOL    HW2 4358   3.485   1.810   1.428
 1449SOL     OW 4359   3.703   0.175   0.963
 1449SOL    HW1 4360   3.742   0.090   0.927
 1449SOL    HW2 4361   3.605   0.177   0.944
 1450SOL     OW 4362   2.125   0.326   0.720
 1450SOL    HW1 4363   2.046   0.377   0.686
 1450SOL    HW2 4364   2.116   0.311   0.818
 1451SOL     OW 4365   3.056   1.612   0.031
 1451SOL    HW1 4366   3.062   1.519   0.068
 1451SOL    HW2 4367   2.997   1.612  -0.049
 1452SOL     OW 4368   2.684   1.002   1.372
 1452SOL    HW1 4369   2.724   1.001   1.280
 1452SOL    HW2 4370   2.694   1.094   1.412
 1453SOL     OW 4371   2.778   0.910   0.291
 1453SOL    HW1 4372   2.841   0.948   0.223
 1453SOL    HW2 4373   2.818   0.827   0.330
 1454SOL     OW 4374   3.366   1.607   0.044
 1454SOL    HW1 4375   3.274   1.644   0.051
 1454SOL    HW2 4376   3.404   1.627  -0.046
 1455SOL     OW 4377   2.234   1.288   1.490
 1455SOL    HW1 4378   2.221   1.381   1.456
 1455SOL    HW2 4379   2.150   1.236   1.477
 1456SOL     OW 4380   3.476   1.292   1.289
 1456SOL    HW1 4381   3.536   1.295   1.369
 1456SOL    HW2 4382   3.401   1.356   1.302
 1457SOL     OW 4383   2.901   1.098   0.696
 1457SOL    HW1 4384   2.831   1.051   0.750
 1457SOL    HW2 4385   2.960   1.030   0.653
 1458SOL     OW 4386   2.876   0.236   0.971
 1458SOL    HW1 4387   2.868   0.200   0.878
 1458SOL    HW2 4388   2.874   0.160   1.036
 1459SOL     OW 4389   2.452   1.487   0.491
 1459SOL    HW1 4390   2.494   1.429   0.421
 1459SOL    HW2 4391   2.408   1.566   0.447
 1460SOL     OW 4392   3.571   0.385   1.381
 1460SOL    HW1 4393   3.644   0.454   1.385
 1460SOL    HW2 4394   3.599   0.310   1.322
 1461SOL     OW 4395   2.117   1.348   0.290
 1461SOL    HW1 4396   2.021   1.349   0.263
 1461SOL    HW2 4397   2.129   1.401   0.374
 1462SOL     OW 4398   1.967   1.013   1.726
 1462SOL    HW1 4399   1.890   0.980   1.780
 1462SOL    HW2 4400   2.052   0.983   1.768
 1463SOL     OW 4401   2.534   0.203   1.489
 1463SOL    HW1 4402   2.624   0.187   1.449
 1463SOL    HW2 4403   2.542   0.208   1.588
 1464SOL     OW 4404   1.937   0.345   0.033
 1464SOL    HW1 4405   1.845   0.317   0.004
 1464SOL    HW2 4406   1.968   0.422  -0.023
 1465SOL     OW 4407   3.302   0.856   1.398
 1465SOL    HW1 4408   3.245   0.908   1.335
 1465SOL    HW2 4409   3.398   0.868   1.374
 1466SOL     OW 4410   1.934   0.166   0.318
 1466SOL    HW1 4411   1.917   0.249   0.264
 1466SOL    HW2 4412   2.024   0.129   0.296
 1467SOL     OW 4413   3.045   1.335   0.119
 1467SOL    HW1 4414   2.946   1.324   0.121
 1467SOL    HW2 4415   3.079   1.350   0.212
 1468SOL     OW 4416   2.475   0.842   1.431
 1468SOL    HW1 4417   2.531   0.923   1.414
 1468SOL    HW2 4418   2.534   0.762   1.434
 1469SOL     OW 4419   3.355   1.767   0.959
 1469SOL    HW1 4420   3.388   1.831   0.890
 1469SOL    HW2 4421   3.421   1.761   1.034
 1470SOL     OW 4422   2.578   0.565   1.708
 1470SOL    HW1 4423   2.597   0.630   1.782
 1470SOL    HW2 4424   2.638   0.485   1.717
 1471SOL     OW 4425   3.312   1.220   1.633
 1471SOL    HW1 4426   3.303   1.210   1.732
 1471SOL    HW2 4427   3.408   1.213   1.607
 1472SOL     OW 4428   2.252   1.741   1.560
 1472SOL    HW1 4429   2.161   1.782   1.558
 1472SOL    HW2 4430   2.245   1.647   1.592
 1473SOL     OW 4431   3.536   0.883   1.254
 1473SOL    HW1 4432   3.509   0.794   1.217
 1473SOL    HW2 4433   3.537   0.951   1.181
 1474SOL     OW 4434   3.087   0.325   0.449
 1474SOL    HW1 4435   3.152   0.251   0.438
 1474SOL    HW2 4436   3.107   0.375   0.533
 1475SOL     OW 4437   2.456   0.745   0.652
 1475SOL    HW1 4438   2.506   0.830   0.633
 1475SOL    HW2 4439   2.368   0.747   0.604
 1476SOL     OW 4440   3.639   0.342   1.642
 1476SOL    HW1 4441   3.622   0.373   1.548
 1476SOL    HW2 4442   3.555   0.305   1.680
 1477SOL     OW 4443   3.592   0.934   1.517
 1477SOL    HW1 4444   3.630   1.025   1.532
 1477SOL    HW2 4445   3.584   0.917   1.418
 1478SOL     OW 4446   2.721   1.374   0.016
 1478SOL    HW1 4447   2.675   1.389   0.104
 1478SOL    HW2 4448   2.765   1.459  -0.014
 1479SOL     OW 4449   2.523   1.790   0.953
 1479SOL    HW1 4450   2.477   1.878   0.940
 1479SOL    HW2 4451   2.622   1.802   0.946
 1480SOL     OW 4452   2.721   0.956   0.861
 1480SOL    HW1 4453   2.775   0.887   0.909
 1480SOL    HW2 4454   2.689   1.025   0.927
 1481SOL     OW 4455   2.945   0.984   0.087
 1481SOL    HW1 4456   2.922   1.037   0.005
 1481SOL    HW2 4457   3.026   0.928   0.068
 1482SOL     OW 4458   3.723   1.569   0.851
 1482SOL    HW1 4459   3.652   1.557   0.781
 1482SOL    HW2 4460   3.724   1.490   0.911
 1483SOL     OW 4461   2.083   1.314   1.844
 1483SOL    HW1 4462   2.018   1.241   1.823
 1483SOL    HW2 4463   2.087   1.328   1.942
 1484SOL     OW 4464   1.941   1.240   0.653
 1484SOL    HW1 4465   1.940   1.193   0.741
 1484SOL    HW2 4466   2.023   1.212   0.602
 1485SOL     OW 4467   2.534   1.391   1.624
 1485SOL    HW1 4468   2.456   1.341   1.662
 1485SOL    HW2 4469   2.531   1.486   1.655
 1486SOL     OW 4470   3.686   0.192   1.227
 1486SOL    HW1 4471   3.682   0.102   1.271
 1486SOL    HW2 4472   3.689   0.181   1.128
 1487SOL     OW 4473   2.290   0.424   0.520
 1487SOL    HW1 4474   2.320   0.352   0.458
 1487SOL    HW2 4475   2.251   0.384   0.603
 1488SOL     OW 4476   3.567   1.487   1.104
 1488SOL    HW1 4477   3.474   1.462   1.077
 1488SOL    HW2 4478   3.593   1.437   1.186
 1489SOL     OW 4479   2.179   0.547   1.280
 1489SOL    HW1 4480   2.217   0.488   1.352
 1489SOL    HW2 4481   2.219   0.521   1.192
 1490SOL     OW 4482   2.674   1.586   0.687
 1490SOL    HW1 4483   2.706   1.596   0.593
 1490SOL    HW2 4484   2.595   1.524   0.689
 1491SOL     OW 4485   3.286   0.214   1.112
 1491SOL    HW1 4486   3.338   0.149   1.167
 1491SOL    HW2 4487   3.237   0.277   1.173
 1492SOL     OW 4488   2.863   0.034   1.154
 1492SOL    HW1 4489   2.800  -0.038   1.123
 1492SOL    HW2 4490   2.956  -0.002   1.154
 1493SOL     OW 4491   2.632   1.330   0.301
 1493SOL    HW1 4492   2.586   1.243   0.318
 1493SOL    HW2 4493   2.723   1.327   0.342
 1494SOL     OW 4494   2.480   1.567   1.284
 1494SOL    HW1 4495   2.475   1.649   1.341
 1494SOL    HW2 4496   2.569   1.564   1.239
 1495SOL     OW 4497   3.214   0.052   0.168
 1495SOL    HW1 4498   3.249   0.011   0.084
 1495SOL    HW2 4499   3.124   0.014   0.188
 1496SOL     OW 4500   3.162   0.453   0.691
 1496SOL    HW1 4501   3.103   0.533   0.695
 1496SOL    HW2 4502   3.177   0.418   0.784
 1497SOL     OW 4503   3.455   0.221   0.882
 1497SOL    HW1 4504   3.371   0.220   0.936
 1497SOL    HW2 4505   3.457   0.304   0.826
 1498SOL     OW 4506   1.901   1.077   0.300
 1498SOL    HW1 4507   2.000   1.066   0.291
 1498SOL    HW2 4508   1.861   0.991   0.332
 1499SOL     OW 4509   2.737   1.646   0.337
 1499SOL    HW1 4510   2.660   1.611   0.283
 1499SOL    HW2 4511   2.705   1.717   0.399
 1500SOL     OW 4512   2.092   0.628   1.975
 1500SOL    HW1 4513   1.999   0.626   2.012
 1500SOL    HW2 4514   2.093   0.589   1.883
 1501SOL     OW 4515   2.087   0.275   2.858
 1501SOL    HW1 4516   2.122   0.258   2.950
 1501SOL    HW2 4517   1.999   0.230   2.846
 1502SOL     OW 4518   1.881   0.368   2.509
 1502SOL    HW1 4519   1.799   0.411   2.548
 1502SOL    HW2 4520   1.853   0.295   2.446
 1503SOL     OW 4521   2.431   1.275   3.027
 1503SOL    HW1 4522   2.338   1.268   2.990
 1503SOL    HW2 4523   2.442   1.364   3.071
 1504SOL     OW 4524   3.417   1.511   2.565
 1504SOL    HW1 4525   3.360   1.495   2.646
 1504SOL    HW2 4526   3.358   1.521   2.485
 1505SOL     OW 4527   2.997   0.703   2.579
 1505SOL    HW1 4528   3.054   0.781   2.554
 1505SOL    HW2 4529   2.937   0.729   2.655
 1506SOL     OW 4530   3.617   0.607   2.093
 1506SOL    HW1 4531   3.605   0.594   1.994
 1506SOL    HW2 4532   3.587   0.526   2.142
 1507SOL     OW 4533   2.630   1.144   2.885
 1507SOL    HW1 4534   2.552   1.161   2.945
 1507SOL    HW2 4535   2.664   1.231   2.849
 1508SOL     OW 4536   2.712   0.798   3.685
 1508SOL    HW1 4537   2.708   0.874   3.750
 1508SOL    HW2 4538   2.734   0.834   3.594
 1509SOL     OW 4539   2.547   1.012   2.527
 1509SOL    HW1 4540   2.616   0.996   2.597
 1509SOL    HW2 4541   2.474   1.069   2.565
 1510SOL     OW 4542   2.548   1.161   3.665
 1510SOL    HW1 4543   2.608   1.240   3.679
 1510SOL    HW2 4544   2.462   1.192   3.624
 1511SOL     OW 4545   2.197   1.435   2.923
 1511SOL    HW1 4546   2.119   1.404   2.870
 1511SOL    HW2 4547   2.255   1.493   2.866
 1512SOL     OW 4548   3.322   1.505   3.201
 1512SOL    HW1 4549   3.346   1.599   3.227
 1512SOL    HW2 4550   3.306   1.451   3.283
 1513SOL     OW 4551   2.300   0.392   3.361
 1513SOL    HW1 4552   2.382   0.336   3.370
 1513SOL    HW2 4553   2.219   0.334   3.365
 1514SOL     OW 4554   3.465   0.447   2.599
 1514SOL    HW1 4555   3.391   0.493   2.549
 1514SOL    HW2 4556   3.516   0.515   2.652
 1515SOL     OW 4557   2.093   1.713   2.345
 1515SOL    HW1 4558   2.127   1.790   2.399
 1515SOL    HW2 4559   2.137   1.713   2.255
 1516SOL     OW 4560   2.989   1.341   3.552
 1516SOL    HW1 4561   3.036   1.341   3.640
 1516SOL    HW2 4562   2.941   1.254   3.541
 1517SOL     OW 4563   2.092   1.434   2.400
 1517SOL    HW1 4564   2.066   1.530   2.400
 1517SOL    HW2 4565   2.021   1.380   2.445
 1518SOL     OW 4566   2.102   1.091   2.748
 1518SOL    HW1 4567   2.116   1.007   2.800
 1518SOL    HW2 4568   2.047   1.155   2.803
 1519SOL     OW 4569   2.482   1.786   3.301
 1519SOL    HW1 4570   2.390   1.769   3.336
 1519SOL    HW2 4571   2.510   1.878   3.327
 1520SOL     OW 4572   2.468   0.964   1.985
 1520SOL    HW1 4573   2.475   1.048   1.931
 1520SOL    HW2 4574   2.514   0.977   2.073
 1521SOL     OW 4575   3.456   0.114   3.342
 1521SOL    HW1 4576   3.438   0.181   3.270
 1521SOL    HW2 4577   3.453   0.160   3.431
 1522SOL     OW 4578   1.984   0.643   2.425
 1522SOL    HW1 4579   1.939   0.555   2.442
 1522SOL    HW2 4580   1.983   0.697   2.509
 1523SOL     OW 4581   3.704   1.767   2.221
 1523SOL    HW1 4582   3.758   1.738   2.301
 1523SOL    HW2 4583   3.734   1.857   2.192
 1524SOL     OW 4584   1.889   1.596   1.979
 1524SOL    HW1 4585   1.870   1.500   2.000
 1524SOL    HW2 4586   1.856   1.654   2.054
 1525SOL     OW 4587   3.551   0.922   2.474
 1525SOL    HW1 4588   3.646   0.893   2.482
 1525SOL    HW2 4589   3.543   0.987   2.399
 1526SOL     OW 4590   3.503   1.108   2.294
 1526SOL    HW1 4591   3.589   1.110   2.242
 1526SOL    HW2 4592   3.517   1.155   2.382
 1527SOL     OW 4593   1.975   0.737   3.459
 1527SOL    HW1 4594   2.063   0.724   3.504
 1527SOL    HW2 4595   1.962   0.834   3.437
 1528SOL     OW 4596   2.475   1.365   2.588
 1528SOL    HW1 4597   2.426   1.278   2.597
 1528SOL    HW2 4598   2.452   1.408   2.501
 1529SOL     OW 4599   3.155   1.228   3.285
 1529SOL    HW1 4600   3.192   1.155   3.227
 1529SOL    HW2 4601   3.207   1.233   3.370
 1530SOL     OW 4602   2.671   0.004   2.364
 1530SOL    HW1 4603   2.711   0.095   2.355
 1530SOL    HW2 4604   2.571   0.012   2.370
 1531SOL     OW 4605   2.059   0.976   3.126
 1531SOL    HW1 4606   2.148   0.931   3.112
 1531SOL    HW2 4607   1.986   0.911   3.107
 1532SOL     OW 4608   3.387   0.999   2.052
 1532SOL    HW1 4609   3.324   0.923   2.065
 1532SOL    HW2 4610   3.435   1.017   2.138
 1533SOL     OW 4611   3.049   1.792   3.478
 1533SOL    HW1 4612   3.073   1.852   3.402
 1533SOL    HW2 4613   3.056   1.697   3.448
 1534SOL     OW 4614   2.179   0.251   3.663
 1534SOL    HW1 4615   2.250   0.322   3.669
 1534SOL    HW2 4616   2.091   0.290   3.691
 1535SOL     OW 4617   3.328   1.417   2.815
 1535SOL    HW1 4618   3.269   1.423   2.895
 1535SOL    HW2 4619   3.313   1.329   2.769
 1536SOL     OW 4620   3.529   1.714   2.434
 1536SOL    HW1 4621   3.488   1.691   2.346
 1536SOL    HW2 4622   3.511   1.640   2.499
 1537SOL     OW 4623   2.460   0.729   2.132
 1537SOL    HW1 4624   2.484   0.798   2.064
 1537SOL    HW2 4625   2.382   0.762   2.186
 1538SOL     OW 4626   3.143   0.345   2.806
 1538SOL    HW1 4627   3.057   0.295   2.793
 1538SOL    HW2 4628   3.205   0.291   2.862
 1539SOL     OW 4629   3.438   1.662   2.169
 1539SOL    HW1 4630   3.527   1.708   2.172
 1539SOL    HW2 4631   3.417   1.638   2.074
 1540SOL     OW 4632   2.669   0.605   3.327
 1540SOL    HW1 4633   2.622   0.602   3.416
 1540SOL    HW2 4634   2.618   0.550   3.261
 1541SOL     OW 4635   3.256   0.469   3.536
 1541SOL    HW1 4636   3.236   0.512   3.624
 1541SOL    HW2 4637   3.334   0.407   3.545
 1542SOL     OW 4638   2.835   0.890   3.434
 1542SOL    HW1 4639   2.881   0.806   3.405
 1542SOL    HW2 4640   2.779   0.924   3.359
 1543SOL     OW 4641   2.853   0.410   3.104
 1543SOL    HW1 4642   2.776   0.444   3.158
 1543SOL    HW2 4643   2.819   0.359   3.025
 1544SOL     OW 4644   2.903   0.701   2.291
 1544SOL    HW1 4645   2.929   0.697   2.387
 1544SOL    HW2 4646   2.818   0.650   2.277
 1545SOL     OW 4647   1.938   0.811   2.651
 1545SOL    HW1 4648   2.037   0.799   2.660
 1545SOL    HW2 4649   1.914   0.906   2.672
 1546SOL     OW 4650   1.992   1.821   3.433
 1546SOL    HW1 4651   1.982   1.806   3.532
 1546SOL    HW2 4652   1.906   1.857   3.397
 1547SOL     OW 4653   2.727   0.348   2.057
 1547SOL    HW1 4654   2.786   0.411   2.008
 1547SOL    HW2 4655   2.746   0.254   2.028
 1548SOL     OW 4656   3.581   0.585   3.693
 1548SOL    HW1 4657   3.555   0.674   3.657
 1548SOL    HW2 4658   3.579   0.517   3.620
 1549SOL     OW 4659   3.224   1.144   2.407
 1549SOL    HW1 4660   3.307   1.115   2.359
 1549SOL    HW2 4661   3.175   1.211   2.351
 1550SOL     OW 4662   2.412   0.196   2.747
 1550SOL    HW1 4663   2.407   0.191   2.847
 1550SOL    HW2 4664   2.414   0.292   2.718
 1551SOL     OW 4665   2.870   1.456   2.339
 1551SOL    HW1 4666   2.824   1.528   2.287
 1551SOL    HW2 4667   2.866   1.476   2.437
 1552SOL     OW 4668   2.213   1.801   2.715
 1552SOL    HW1 4669   2.263   1.715   2.721
 1552SOL    HW2 4670   2.278   1.878   2.712
 1553SOL     OW 4671   3.657   1.066   2.735
 1553SOL    HW1 4672   3.595   1.051   2.659
 1553SOL    HW2 4673   3.605   1.077   2.820
 1554SOL     OW 4674   3.089   1.550   3.368
 1554SOL    HW1 4675   3.095   1.473   3.432
 1554SOL    HW2 4676   3.037   1.524   3.288
 1555SOL     OW 4677   2.183   0.943   2.104
 1555SOL    HW1 4678   2.265   0.982   2.062
 1555SOL    HW2 4679   2.156   0.861   2.055
 1556SOL     OW 4680   3.320   0.735   2.590
 1556SOL    HW1 4681   3.315   0.670   2.665
 1556SOL    HW2 4682   3.400   0.794   2.603
 1557SOL     OW 4683   2.323   1.266   3.589
 1557SOL    HW1 4684   2.273   1.267   3.503
 1557SOL    HW2 4685   2.260   1.248   3.665
 1558SOL     OW 4686   2.973   1.776   2.099
 1558SOL    HW1 4687   2.913   1.714   2.149
 1558SOL    HW2 4688   3.004   1.732   2.014
 1559SOL     OW 4689   2.064   0.285   3.360
 1559SOL    HW1 4690   1.984   0.345   3.347
 1559SOL    HW2 4691   2.054   0.236   3.446
 1560SOL     OW 4692   3.494   1.377   1.943
 1560SOL    HW1 4693   3.462   1.471   1.933
 1560SOL    HW2 4694   3.418   1.314   1.931
 1561SOL     OW 4695   2.326   1.743   2.185
 1561SOL    HW1 4696   2.359   1.782   2.271
 1561SOL    HW2 4697   2.402   1.736   2.120
 1562SOL     OW 4698   3.262   0.107   2.288
 1562SOL    HW1 4699   3.238   0.070   2.198
 1562SOL    HW2 4700   3.361   0.123   2.292
 1563SOL     OW 4701   2.111   1.785   3.103
 1563SOL    HW1 4702   2.168   1.720   3.153
 1563SOL    HW2 4703   2.095   1.752   3.010
 1564SOL     OW 4704   2.802   1.698   2.766
 1564SOL    HW1 4705   2.882   1.641   2.787
 1564SOL    HW2 4706   2.753   1.658   2.689
 1565SOL     OW 4707   2.244   0.700   2.342
 1565SOL    HW1 4708   2.289   0.610   2.339
 1565SOL    HW2 4709   2.150   0.689   2.375
 1566SOL     OW 4710   3.409   0.222   3.591
 1566SOL    HW1 4711   3.404   0.259   3.683
 1566SOL    HW2 4712   3.337   0.153   3.579
 1567SOL     OW 4713   2.476   0.122   1.979
 1567SOL    HW1 4714   2.574   0.100   1.986
 1567SOL    HW2 4715   2.445   0.105   1.886
 1568SOL     OW 4716   2.643   0.264   3.611
 1568SOL    HW1 4717   2.710   0.203   3.654
 1568SOL    HW2 4718   2.570   0.283   3.676
 1569SOL     OW 4719   2.750   1.514   3.057
 1569SOL    HW1 4720   2.727   1.489   2.963
 1569SOL    HW2 4721   2.811   1.445   3.096
 1570SOL     OW 4722   3.213   0.590   3.295
 1570SOL    HW1 4723   3.241   0.547   3.380
 1570SOL    HW2 4724   3.238   0.686   3.296
 1571SOL     OW 4725   2.665   1.402   2.786
 1571SOL    HW1 4726   2.755   1.416   2.744
 1571SOL    HW2 4727   2.594   1.404   2.715
 1572SOL     OW 4728   2.784   0.503   2.761
 1572SOL    HW1 4729   2.759   0.494   2.665
 1572SOL    HW2 4730   2.832   0.421   2.792
 1573SOL     OW 4731   2.401   0.064   2.374
 1573SOL    HW1 4732   2.320   0.065   2.432
 1573SOL    HW2 4733   2.404   0.147   2.319
 1574SOL     OW 4734   3.296   1.188   1.903
 1574SOL    HW1 4735   3.328   1.112   1.960
 1574SOL    HW2 4736   3.204   1.215   1.933
 1575SOL     OW 4737   2.159   0.035   2.033
 1575SOL    HW1 4738   2.208   0.119   2.012
 1575SOL    HW2 4739   2.221  -0.030   2.078
 1576SOL     OW 4740   2.797   0.236   2.342
 1576SOL    HW1 4741   2.749   0.277   2.264
 1576SOL    HW2 4742   2.896   0.234   2.323
 1577SOL     OW 4743   2.938   0.683   3.326
 1577SOL    HW1 4744   2.858   0.622   3.329
 1577SOL    HW2 4745   3.019   0.630   3.302
 1578SOL     OW 4746   3.089   1.570   2.655
 1578SOL    HW1 4747   3.110   1.644   2.590
 1578SOL    HW2 4748   3.157   1.570   2.728
 1579SOL     OW 4749   2.321   1.152   2.603
 1579SOL    HW1 4750   2.250   1.125   2.668
 1579SOL    HW2 4751   2.295   1.124   2.510
 1580SOL     OW 4752   3.133   1.797   2.453
 1580SOL    HW1 4753   3.177   1.861   2.389
 1580SOL    HW2 4754   3.083   1.849   2.523
 1581SOL     OW 4755   2.894   0.549   1.878
 1581SOL    HW1 4756   2.853   0.631   1.839
 1581SOL    HW2 4757   2.958   0.575   1.951
 1582SOL     OW 4758   1.940   0.556   3.248
 1582SOL    HW1 4759   2.032   0.555   3.207
 1582SOL    HW2 4760   1.934   0.630   3.315
 1583SOL     OW 4761   2.423   0.222   3.009
 1583SOL    HW1 4762   2.461   0.138   3.046
 1583SOL    HW2 4763   2.335   0.241   3.053
 1584SOL     OW 4764   2.728   0.454   2.504
 1584SOL    HW1 4765   2.696   0.526   2.442
 1584SOL    HW2 4766   2.752   0.373   2.451
 1585SOL     OW 4767   2.879   0.039   2.615
 1585SOL    HW1 4768   2.807   0.044   2.546
 1585SOL    HW2 4769   2.855  -0.030   2.684
 1586SOL     OW 4770   3.291   1.173   2.729
 1586SOL    HW1 4771   3.236   1.089   2.722
 1586SOL    HW2 4772   3.317   1.202   2.637
 1587SOL     OW 4773   3.328   0.590   2.854
 1587SOL    HW1 4774   3.298   0.495   2.861
 1587SOL    HW2 4775   3.401   0.606   2.920
 1588SOL     OW 4776   3.719   0.833   2.239
 1588SOL    HW1 4777   3.761   0.769   2.303
 1588SOL    HW2 4778   3.681   0.782   2.161
 1589SOL     OW 4779   2.350   1.385   2.036
 1589SOL    HW1 4780   2.263   1.370   2.083
 1589SOL    HW2 4781   2.333   1.411   1.941
 1590SOL     OW 4782   3.526   1.280   2.519
 1590SOL    HW1 4783   3.625   1.288   2.533
 1590SOL    HW2 4784   3.481   1.364   2.550
 1591SOL     OW 4785   3.252   0.575   1.940
 1591SOL    HW1 4786   3.198   0.554   2.021
 1591SOL    HW2 4787   3.343   0.534   1.949
 1592SOL     OW 4788   2.389   0.256   2.190
 1592SOL    HW1 4789   2.416   0.197   2.115
 1592SOL    HW2 4790   2.389   0.351   2.159
 1593SOL     OW 4791   3.616   1.223   3.450
 1593SOL    HW1 4792   3.707   1.184   3.437
 1593SOL    HW2 4793   3.624   1.319   3.474
 1594SOL     OW 4794   2.926   1.347   3.202
 1594SOL    HW1 4795   2.846   1.324   3.257
 1594SOL    HW2 4796   3.009   1.321   3.251
 1595SOL     OW 4797   3.454   1.629   3.487
 1595SOL    HW1 4798   3.481   1.663   3.397
 1595SOL    HW2 4799   3.533   1.591   3.533
 1596SOL     OW 4800   2.973   1.195   2.962
 1596SOL    HW1 4801   2.933   1.239   3.043
 1596SOL    HW2 4802   2.932   1.232   2.879
 1597SOL     OW 4803   3.500   1.099   2.941
 1597SOL    HW1 4804   3.505   1.180   3.000
 1597SOL    HW2 4805   3.414   1.101   2.890
 1598SOL     OW 4806   2.777   0.089   3.264
 1598SOL    HW1 4807   2.802   0.069   3.169
 1598SOL    HW2 4808   2.849   0.145   3.306
 1599SOL     OW 4809   2.842   1.116   3.581
 1599SOL    HW1 4810   2.743   1.122   3.591
 1599SOL    HW2 4811   2.865   1.036   3.525
 1600SOL     OW 4812   2.567   1.050   2.230
 1600SOL    HW1 4813   2.553   1.057   2.329
 1600SOL    HW2 4814   2.651   0.999   2.212
 1601SOL     OW 4815   2.272   0.813   3.113
 1601SOL    HW1 4816   2.358   0.825   3.163
 1601SOL    HW2 4817   2.230   0.726   3.140
 1602SOL     OW 4818   3.136   0.386   3.124
 1602SOL    HW1 4819   3.157   0.460   3.188
 1602SOL    HW2 4820   3.047   0.403   3.081
 1603SOL     OW 4821   1.926   1.564   3.193
 1603SOL    HW1 4822   1.880   1.646   3.159
 1603SOL    HW2 4823   2.024   1.583   3.202
 1604SOL     OW 4824   2.229   1.100   2.363
 1604SOL    HW1 4825   2.222   1.183   2.307
 1604SOL    HW2 4826   2.233   1.020   2.303
 1605SOL     OW 4827   2.428   0.537   2.727
 1605SOL    HW1 4828   2.440   0.603   2.653
 1605SOL    HW2 4829   2.474   0.571   2.810
 1606SOL     OW 4830   3.114   1.348   2.250
 1606SOL    HW1 4831   3.164   1.425   2.290
 1606SOL    HW2 4832   3.019   1.350   2.282
 1607SOL     OW 4833   3.134   1.445   3.004
 1607SOL    HW1 4834   3.181   1.458   3.091
 1607SOL    HW2 4835   3.068   1.371   3.013
 1608SOL     OW 4836   3.444   0.639   2.334
 1608SOL    HW1 4837   3.413   0.700   2.407
 1608SOL    HW2 4838   3.494   0.691   2.265
 1609SOL     OW 4839   2.216   1.510   3.191
 1609SOL    HW1 4840   2.195   1.466   3.104
 1609SOL    HW2 4841   2.313   1.536   3.194
 1610SOL     OW 4842   2.264   0.751   3.460
 1610SOL    HW1 4843   2.332   0.806   3.413
 1610SOL    HW2 4844   2.304   0.663   3.487
 1611SOL     OW 4845   3.449   0.779   3.532
 1611SOL    HW1 4846   3.357   0.817   3.527
 1611SOL    HW2 4847   3.509   0.826   3.467
 1612SOL     OW 4848   2.875   0.105   3.632
 1612SOL    HW1 4849   2.881   0.190   3.580
 1612SOL    HW2 4850   2.907   0.029   3.575
 1613SOL     OW 4851   2.366   0.050   3.602
 1613SOL    HW1 4852   2.324  -0.007   3.532
 1613SOL    HW2 4853   2.300   0.119   3.634
 1614SOL     OW 4854   2.435   0.870   2.891
 1614SOL    HW1 4855   2.479   0.959   2.882
 1614SOL    HW2 4856   2.372   0.870   2.968
 1615SOL     OW 4857   3.222   0.862   2.907
 1615SOL    HW1 4858   3.147   0.862   2.841
 1615SOL    HW2 4859   3.259   0.770   2.916
 1616SOL     OW 4860   3.071   0.525   2.137
 1616SOL    HW1 4861   3.084   0.441   2.191
 1616SOL    HW2 4862   3.042   0.599   2.197
 1617SOL     OW 4863   2.169   0.213   3.093
 1617SOL    HW1 4864   2.146   0.250   3.183
 1617SOL    HW2 4865   2.139   0.118   3.087
 1618SOL     OW 4866   1.899   1.310   3.144
 1618SOL    HW1 4867   1.952   1.261   3.212
 1618SOL    HW2 4868   1.921   1.408   3.149
 1619SOL     OW 4869   2.594   0.634   2.926
 1619SOL    HW1 4870   2.653   0.608   2.850
 1619SOL    HW2 4871   2.566   0.730   2.915
 1620SOL     OW 4872   3.590   0.935   3.716
 1620SOL    HW1 4873   3.544   0.928   3.627
 1620SOL    HW2 4874   3.528   0.979   3.782
 1621SOL     OW 4875   2.169   0.063   2.480
 1621SOL    HW1 4876   2.158   0.157   2.513
 1621SOL    HW2 4877   2.164   0.000   2.557
 1622SOL     OW 4878   3.484   0.367   2.236
 1622SOL    HW1 4879   3.486   0.291   2.300
 1622SOL    HW2 4880   3.436   0.444   2.276
 1623SOL     OW 4881   2.885   0.766   2.828
 1623SOL    HW1 4882   2.900   0.787   2.924
 1623SOL    HW2 4883   2.855   0.671   2.819
 1624SOL     OW 4884   2.842   1.573   3.562
 1624SOL    HW1 4885   2.822   1.617   3.474
 1624SOL    HW2 4886   2.881   1.482   3.546
 1625SOL     OW 4887   3.721   1.518   3.467
 1625SOL    HW1 4888   3.735   1.545   3.372
 1625SOL    HW2 4889   3.804   1.540   3.520
 1626SOL     OW 4890   2.212   0.898   3.666
 1626SOL    HW1 4891   2.288   0.942   3.714
 1626SOL    HW2 4892   2.247   0.851   3.584
 1627SOL     OW 4893   3.402   0.274   1.987
 1627SOL    HW1 4894   3.341   0.199   2.010
 1627SOL    HW2 4895   3.424   0.326   2.070
 1628SOL     OW 4896   3.165   0.838   1.904
 1628SOL    HW1 4897   3.199   0.745   1.919
 1628SOL    HW2 4898   3.183   0.865   1.809
 1629SOL     OW 4899   2.930   1.333   2.711
 1629SOL    HW1 4900   2.937   1.249   2.656
 1629SOL    HW2 4901   2.992   1.402   2.675
 1630SOL     OW 4902   2.181   0.810   2.811
 1630SOL    HW1 4903   2.274   0.846   2.816
 1630SOL    HW2 4904   2.175   0.725   2.863
 1631SOL     OW 4905   2.201   0.509   2.868
 1631SOL    HW1 4906   2.149   0.426   2.851
 1631SOL    HW2 4907   2.278   0.514   2.804
 1632SOL     OW 4908   3.000   0.380   3.540
 1632SOL    HW1 4909   2.955   0.443   3.604
 1632SOL    HW2 4910   3.093   0.411   3.523
 1633SOL     OW 4911   3.022   0.207   3.339
 1633SOL    HW1 4912   3.022   0.271   3.416
 1633SOL    HW2 4913   3.050   0.255   3.256
 1634SOL     OW 4914   1.870   1.326   2.062
 1634SOL    HW1 4915   1.777   1.347   2.031
 1634SOL    HW2 4916   1.880   1.227   2.075
 1635SOL     OW 4917   1.950   1.801   2.789
 1635SOL    HW1 4918   1.908   1.715   2.762
 1635SOL    HW2 4919   2.044   1.804   2.755
 1636SOL     OW 4920   2.366   1.568   2.772
 1636SOL    HW1 4921   2.432   1.642   2.781
 1636SOL    HW2 4922   2.410   1.489   2.730
 1637SOL     OW 4923   2.864   0.796   3.100
 1637SOL    HW1 4924   2.905   0.764   3.186
 1637SOL    HW2 4925   2.768   0.769   3.097
 1638SOL     OW 4926   1.902   0.544   2.976
 1638SOL    HW1 4927   1.987   0.511   2.935
 1638SOL    HW2 4928   1.915   0.559   3.074
 1639SOL     OW 4929   2.051   0.520   3.584
 1639SOL    HW1 4930   2.110   0.480   3.514
 1639SOL    HW2 4931   1.993   0.591   3.543
 1640SOL     OW 4932   3.231   0.950   3.522
 1640SOL    HW1 4933   3.270   1.039   3.542
 1640SOL    HW2 4934   3.241   0.930   3.425
 1641SOL     OW 4935   2.677   0.572   2.187
 1641SOL    HW1 4936   2.684   0.483   2.141
 1641SOL    HW2 4937   2.583   0.606   2.179
 1642SOL     OW 4938   3.519   0.604   3.068
 1642SOL    HW1 4939   3.481   0.535   3.130
 1642SOL    HW2 4940   3.601   0.568   3.024
 1643SOL     OW 4941   2.114   1.564   3.606
 1643SOL    HW1 4942   2.084   1.621   3.682
 1643SOL    HW2 4943   2.107   1.467   3.632
 1644SOL     OW 4944   2.533   0.464   3.131
 1644SOL    HW1 4945   2.499   0.375   3.101
 1644SOL    HW2 4946   2.559   0.518   3.051
 1645SOL     OW 4947   2.792   1.678   3.327
 1645SOL    HW1 4948   2.768   1.660   3.232
 1645SOL    HW2 4949   2.822   1.772   3.337
 1646SOL     OW 4950   2.335   0.500   2.053
 1646SOL    HW1 4951   2.396   0.580   2.057
 1646SOL    HW2 4952   2.240   0.531   2.060
 1647SOL     OW 4953   2.021   1.137   3.328
 1647SOL    HW1 4954   2.043   1.076   3.404
 1647SOL    HW2 4955   2.031   1.088   3.242
 1648SOL     OW 4956   3.209   1.059   3.096
 1648SOL    HW1 4957   3.233   0.996   3.022
 1648SOL    HW2 4958   3.119   1.099   3.078
 1649SOL     OW 4959   3.164   0.855   2.171
 1649SOL    HW1 4960   3.078   0.824   2.213
 1649SOL    HW2 4961   3.160   0.841   2.072
 1650SOL     OW 4962   3.621   1.747   3.016
 1650SOL    HW1 4963   3.682   1.777   2.943
 1650SOL    HW2 4964   3.583   1.658   2.994
 1651SOL     OW 4965   3.114   1.731   2.990
 1651SOL    HW1 4966   3.198   1.736   2.936
 1651SOL    HW2 4967   3.091   1.635   3.008
 1652SOL     OW 4968   1.945   1.258   2.884
 1652SOL    HW1 4969   1.940   1.257   2.984
 1652SOL    HW2 4970   1.862   1.217   2.846
 1653SOL     OW 4971   2.550   1.662   3.578
 1653SOL    HW1 4972   2.494   1.743   3.587
 1653SOL    HW2 4973   2.602   1.666   3.492
 1654SOL     OW 4974   3.588   0.135   2.385
 1654SOL    HW1 4975   3.661   0.118   2.318
 1654SOL    HW2 4976   3.557   0.048   2.423
 1655SOL     OW 4977   3.250   1.573   2.339
 1655SOL    HW1 4978   3.317   1.585   2.265
 1655SOL    HW2 4979   3.210   1.662   2.362
 1656SOL     OW 4980   1.992   1.794   3.713
 1656SOL    HW1 4981   1.951   1.720   3.766
 1656SOL    HW2 4982   2.056   1.845   3.771
 1657SOL     OW 4983   3.142   0.927   2.534
 1657SOL    HW1 4984   3.202   0.846   2.536
 1657SOL    HW2 4985   3.182   0.996   2.474
 1658SOL     OW 4986   2.692   1.273   3.284
 1658SOL    HW1 4987   2.687   1.306   3.379
 1658SOL    HW2 4988   2.606   1.292   3.238
 1659SOL     OW 4989   2.534   1.616   2.016
 1659SOL    HW1 4990   2.543   1.626   1.917
 1659SOL    HW2 4991   2.494   1.527   2.037
 1660SOL     OW 4992   3.512   1.720   3.256
 1660SOL    HW1 4993   3.565   1.730   3.172
 1660SOL    HW2 4994   3.485   1.810   3.290
 1661SOL     OW 4995   3.703   0.175   2.825
 1661SOL    HW1 4996   3.742   0.090   2.789
 1661SOL    HW2 4997   3.605   0.177   2.806
 1662SOL     OW 4998   2.125   0.326   2.582
 1662SOL    HW1 4999   2.046   0.377   2.548
 1662SOL    HW2 5000   2.116   0.311   2.680
 1663SOL     OW 5001   3.056   1.612   1.893
 1663SOL    HW1 5002   3.062   1.519   1.930
 1663SOL    HW2 5003   2.997   1.612   1.813
 1664SOL     OW 5004   2.684   1.002   3.234
 1664SOL    HW1 5005   2.724   1.001   3.142
 1664SOL    HW2 5006   2.694   1.094   3.274
 1665SOL     OW 5007   2.778   0.910   2.153
 1665SOL    HW1 5008   2.841   0.948   2.085
 1665SOL    HW2 5009   2.818   0.827   2.192
 1666SOL     OW 5010   3.366   1.607   1.906
 1666SOL    HW1 5011   3.274   1.644   1.913
 1666SOL    HW2 5012   3.404   1.627   1.816
 1667SOL     OW 5013   2.234   1.288   3.352
 1667SOL    HW1 5014   2.221   1.381   3.318
 1667SOL    HW2 5015   2.150   1.236   3.339
 1668SOL     OW 5016   3.476   1.292   3.151
 1668SOL    HW1 5017   3.536   1.295   3.231
 1668SOL    HW2 5018   3.401   1.356   3.164
 1669SOL     OW 5019   2.901   1.098   2.558
 1669SOL    HW1 5020   2.831   1.051   2.612
 1669SOL    HW2 5021   2.960   1.030   2.515
 1670SOL     OW 5022   2.876   0.236   2.833
 1670SOL    HW1 5023   2.868   0.200   2.740
 1670SOL    HW2 5024   2.874   0.160   2.898
 1671SOL     OW 5025   2.452   1.487   2.353
 1671SOL    HW1 5026   2.494   1.429   2.283
 1671SOL    HW2 5027   2.408   1.566   2.309
 1672SOL     OW 5028   3.571   0.385   3.243
 1672SOL    HW1 5029   3.644   0.454   3.247
 1672SOL    HW2 5030   3.599   0.310   3.184
 1673SOL     OW 5031   2.117   1.348   2.152
 1673SOL    HW1 5032   2.021   1.349   2.125
 1673SOL    HW2 5033   2.129   1.401   2.236
 1674SOL     OW 5034   1.967   1.013   3.588
 1674SOL    HW1 5035   1.890   0.980   3.642
 1674SOL    HW2 5036   2.052   0.983   3.630
 1675SOL     OW 5037   2.534   0.203   3.351
 1675SOL    HW1 5038   2.624   0.187   3.311
 1675SOL    HW2 5039   2.542   0.208   3.450
 1676SOL     OW 5040   1.937   0.345   1.895
 1676SOL    HW1 5041   1.845   0.317   1.866
 1676SOL    HW2 5042   1.968   0.422   1.839
 1677SOL     OW 5043   3.302   0.856   3.260
 1677SOL    HW1 5044   3.245   0.908   3.197
 1677SOL    HW2 5045   3.398   0.868   3.236
 1678SOL     OW 5046   1.934   0.166   2.180
 1678SOL    HW1 5047   1.917   0.249   2.126
 1678SOL    HW2 5048   2.024   0.129   2.158
 1679SOL     OW 5049   3.045   1.335   1.981
 1679SOL    HW1 5050   2.946   1.324   1.983
 1679SOL    HW2 5051   3.079   1.350   2.074
 1680SOL     OW 5052   2.475   0.842   3.293
 1680SOL    HW1 5053   2.531   0.923   3.276
 1680SOL    HW2 5054   2.534   0.762   3.296
 1681SOL     OW 5055   3.355   1.767   2.821
 1681SOL    HW1 5056   3.388   1.831   2.752
 1681SOL    HW2 5057   3.421   1.761   2.896
 1682SOL     OW 5058   2.578   0.565   3.570
 1682SOL    HW1 5059   2.597   0.630   3.644
 1682SOL    HW2 5060   2.638   0.485   3.579
 1683SOL     OW 5061   3.312   1.220   3.495
 1683SOL    HW1 5062   3.303   1.210   3.594
 1683SOL    HW2 5063   3.408   1.213   3.469
 1684SOL     OW 5064   2.252   1.741   3.422
 1684SOL    HW1 5065   2.161   1.782   3.420
 1684SOL    HW2 5066   2.245   1.647   3.454
 1685SOL     OW 5067   3.536   0.883   3.116
 1685SOL    HW1 5068   3.509   0.794   3.079
 1685SOL    HW2 5069   3.537   0.951   3.043
 1686SOL     OW 5070   3.087   0.325   2.311
 1686SOL    HW1 5071   3.152   0.251   2.300
 1686SOL    HW2 5072   3.107   0.375   2.395
 1687SOL     OW 5073   2.456   0.745   2.514
 1687SOL    HW1 5074   2.506   0.830   2.495
 1687SOL    HW2 5075   2.368   0.747   2.466
 1688SOL     OW 5076   3.639   0.342   3.504
 1688SOL    HW1 5077   3.622   0.373   3.410
 1688SOL    HW2 5078   3.555   0.305   3.542
 1689SOL     OW 5079   3.592   0.934   3.379
 1689SOL    HW1 5080   3.630   1.025   3.394
 1689SOL    HW2 5081   3.584   0.917   3.280
 1690SOL     OW 5082   2.721   1.374   1.878
 1690SOL    HW1 5083   2.675   1.389   1.966
 1690SOL    HW2 5084   2.765   1.459   1.848
 1691SOL     OW 5085   2.523   1.790   2.815
 1691SOL    HW1 5086   2.477   1.878   2.802
 1691SOL    HW2 5087   2.622   1.802   2.808
 1692SOL     OW 5088   2.721   0.956   2.723
 1692SOL    HW1 5089   2.775   0.887   2.771
 1692SOL    HW2 5090   2.689   1.025   2.789
 1693SOL     OW 5091   2.945   0.984   1.949
 1693SOL    HW1 5092   2.922   1.037   1.867
 1693SOL    HW2 5093   3.026   0.928   1.930
 1694SOL     OW 5094   3.723   1.569   2.713
 1694SOL    HW1 5095   3.652   1.557   2.643
 1694SOL    HW2 5096   3.724   1.490   2.773
 1695SOL     OW 5097   2.083   1.314   3.706
 1695SOL    HW1 5098   2.018   1.241   3.685
 1695SOL    HW2 5099   2.087   1.328   3.804
 1696SOL     OW 5100   1.941   1.240   2.515
 1696SOL    HW1 5101   1.940   1.193   2.603
 1696SOL    HW2 5102   2.023   1.212   2.464
 1697SOL     OW 5103   2.534   1.391   3.486
 1697SOL    HW1 5104   2.456   1.341   3.524
 1697SOL    HW2 5105   2.531   1.486   3.517
 1698SOL     OW 5106   3.686   0.192   3.089
 1698SOL    HW1 5107   3.682   0.102   3.133
 1698SOL    HW2 5108   3.689   0.181   2.990
 1699SOL     OW 5109   2.290   0.424   2.382
 1699SOL    HW1 5110   2.320   0.352   2.320
 1699SOL    HW2 5111   2.251   0.384   2.465
 1700SOL     OW 5112   3.567   1.487   2.966
 1700SOL    HW1 5113   3.474   1.462   2.939
 1700SOL    HW2 5114   3.593   1.437   3.048
 1701SOL     OW 5115   2.179   0.547   3.142
 1701SOL    HW1 5116   2.217   0.488   3.214
 1701SOL    HW2 5117   2.219   0.521   3.054
 1702SOL     OW 5118   2.674   1.586   2.549
 1702SOL    HW1 5119   2.706   1.596   2.455
 1702SOL    HW2 5120   2.595   1.524   2.551
 1703SOL     OW 5121   3.286   0.214   2.974
 1703SOL    HW1 5122   3.338   0.149   3.029
 1703SOL    HW2 5123   3.237   0.277   3.035
 1704SOL     OW 5124   2.863   0.034   3.016
 1704SOL    HW1 5125   2.800  -0.038   2.985
 1704SOL    HW2 5126   2.956  -0.002   3.016
 1705SOL     OW 5127   2.632   1.330   2.163
 1705SOL    HW1 5128   2.586   1.243   2.180
 1705SOL    HW2 5129   2.723   1.327   2.204
 1706SOL     OW 5130   2.480   1.567   3.146
 1706SOL    HW1 5131   2.475   1.649   3.203
 1706SOL    HW2 5132   2.569   1.564   3.101
 1707SOL     OW 5133   3.214   0.052   2.030
 1707SOL    HW1 5134   3.249   0.011   1.946
 1707SOL    HW2 5135   3.124   0.014   2.050
 1708SOL     OW 5136   3.162   0.453   2.553
 1708SOL    HW1 5137   3.103   0.533   2.557
 1708SOL    HW2 5138   3.177   0.418   2.646
 1709SOL     OW 5139   3.455   0.221   2.744
 1709SOL    HW1 5140   3.371   0.220   2.798
 1709SOL    HW2 5141   3.457   0.304   2.688
 1710SOL     OW 5142   1.901   1.077   2.162
 1710SOL    HW1 5143   2.000   1.066   2.153
 1710SOL    HW2 5144   1.861   0.991   2.194
 1711SOL     OW 5145   2.737   1.646   2.199
 1711SOL    HW1 5146   2.660   1.611   2.145
 1711SOL    HW2 5147   2.705   1.717   2.261
 1712SOL     OW 5148   2.092   0.628   3.837
 1712SOL    HW1 5149   1.999   0.626   3.874
 1712SOL    HW2 5150   2.093   0.589   3.745
 1713SOL     OW 5151   2.087   0.275   4.720
 1713SOL    HW1 5152   2.122   0.258   4.812
 1713SOL    HW2 5153   1.999   0.230   4.708
 1714SOL     OW 5154   1.881   0.368   4.371
 1714SOL    HW1 5155   1.799   0.411   4.410
 1714SOL    HW2 5156   1.853   0.295   4.308
 1715SOL     OW 5157   3.417   1.511   4.427
 1715SOL    HW1 5158   3.360   1.495   4.508
 1715SOL    HW2 5159   3.358   1.521   4.347
 1716SOL     OW 5160   2.997   0.703   4.441
 1716SOL    HW1 5161   3.054   0.781   4.416
 1716SOL    HW2 5162   2.937   0.729   4.517
 1717SOL     OW 5163   3.617   0.607   3.955
 1717SOL    HW1 5164   3.605   0.594   3.856
 1717SOL    HW2 5165   3.587   0.526   4.004
 1718SOL     OW 5166   2.547   1.012   4.389
 1718SOL    HW1 5167   2.616   0.996   4.459
 1718SOL    HW2 5168   2.474   1.069   4.427
 1719SOL     OW 5169   3.465   0.447   4.461
 1719SOL    HW1 5170   3.391   0.493   4.411
 1719SOL    HW2 5171   3.516   0.515   4.514
 1720SOL     OW 5172   2.093   1.713   4.207
 1720SOL    HW1 5173   2.127   1.790   4.261
 1720SOL    HW2 5174   2.137   1.713   4.117
 1721SOL     OW 5175   2.092   1.434   4.262
 1721SOL    HW1 5176   2.066   1.530   4.262
 1721SOL    HW2 5177   2.021   1.380   4.307
 1722SOL     OW 5178   2.102   1.091   4.610
 1722SOL    HW1 5179   2.116   1.007   4.662
 1722SOL    HW2 5180   2.047   1.155   4.665
 1723SOL     OW 5181   2.468   0.964   3.847
 1723SOL    HW1 5182   2.475   1.048   3.793
 1723SOL    HW2 5183   2.514   0.977   3.935
 1724SOL     OW 5184   1.984   0.643   4.287
 1724SOL    HW1 5185   1.939   0.555   4.304
 1724SOL    HW2 5186   1.983   0.697   4.371
 1725SOL     OW 5187   3.704   1.767   4.083
 1725SOL    HW1 5188   3.758   1.738   4.163
 1725SOL    HW2 5189   3.734   1.857   4.054
 1726SOL     OW 5190   1.889   1.596   3.841
 1726SOL    HW1 5191   1.870   1.500   3.862
 1726SOL    HW2 5192   1.856   1.654   3.916
 1727SOL     OW 5193   3.551   0.922   4.336
 1727SOL    HW1 5194   3.646   0.893   4.344
 1727SOL    HW2 5195   3.543   0.987   4.261
 1728SOL     OW 5196   3.503   1.108   4.156
 1728SOL    HW1 5197   3.589   1.110   4.104
 1728SOL    HW2 5198   3.517   1.155   4.244
 1729SOL     OW 5199   2.475   1.365   4.450
 1729SOL    HW1 5200   2.426   1.278   4.459
 1729SOL    HW2 5201   2.452   1.408   4.363
 1730SOL     OW 5202   2.671   0.004   4.226
 1730SOL    HW1 5203   2.711   0.095   4.217
 1730SOL    HW2 5204   2.571   0.012   4.232
 1731SOL     OW 5205   3.387   0.999   3.914
 1731SOL    HW1 5206   3.324   0.923   3.927
 1731SOL    HW2 5207   3.435   1.017   4.000
 1732SOL     OW 5208   3.529   1.714   4.296
 1732SOL    HW1 5209   3.488   1.691   4.208
 1732SOL    HW2 5210   3.511   1.640   4.361
 1733SOL     OW 5211   2.460   0.729   3.994
 1733SOL    HW1 5212   2.484   0.798   3.926
 1733SOL    HW2 5213   2.382   0.762   4.048
 1734SOL     OW 5214   3.143   0.345   4.668
 1734SOL    HW1 5215   3.057   0.295   4.655
 1734SOL    HW2 5216   3.205   0.291   4.724
 1735SOL     OW 5217   3.438   1.662   4.031
 1735SOL    HW1 5218   3.527   1.708   4.034
 1735SOL    HW2 5219   3.417   1.638   3.936
 1736SOL     OW 5220   2.903   0.701   4.153
 1736SOL    HW1 5221   2.929   0.697   4.249
 1736SOL    HW2 5222   2.818   0.650   4.139
 1737SOL     OW 5223   1.938   0.811   4.513
 1737SOL    HW1 5224   2.037   0.799   4.522
 1737SOL    HW2 5225   1.914   0.906   4.534
 1738SOL     OW 5226   2.727   0.348   3.919
 1738SOL    HW1 5227   2.786   0.411   3.870
 1738SOL    HW2 5228   2.746   0.254   3.890
 1739SOL     OW 5229   3.224   1.144   4.269
 1739SOL    HW1 5230   3.307   1.115   4.221
 1739SOL    HW2 5231   3.175   1.211   4.213
 1740SOL     OW 5232   2.870   1.456   4.201
 1740SOL    HW1 5233   2.824   1.528   4.149
 1740SOL    HW2 5234   2.866   1.476   4.299
 1741SOL     OW 5235   2.213   1.801   4.577
 1741SOL    HW1 5236   2.263   1.715   4.583
 1741SOL    HW2 5237   2.278   1.878   4.574
 1742SOL     OW 5238   3.657   1.066   4.597
 1742SOL    HW1 5239   3.595   1.051   4.521
 1742SOL    HW2 5240   3.605   1.077   4.682
 1743SOL     OW 5241   2.183   0.943   3.966
 1743SOL    HW1 5242   2.265   0.982   3.924
 1743SOL    HW2 5243   2.156   0.861   3.917
 1744SOL     OW 5244   3.320   0.735   4.452
 1744SOL    HW1 5245   3.315   0.670   4.527
 1744SOL    HW2 5246   3.400   0.794   4.465
 1745SOL     OW 5247   2.973   1.776   3.961
 1745SOL    HW1 5248   2.913   1.714   4.011
 1745SOL    HW2 5249   3.004   1.732   3.876
 1746SOL     OW 5250   3.494   1.377   3.805
 1746SOL    HW1 5251   3.462   1.471   3.795
 1746SOL    HW2 5252   3.418   1.314   3.793
 1747SOL     OW 5253   2.326   1.743   4.047
 1747SOL    HW1 5254   2.359   1.782   4.133
 1747SOL    HW2 5255   2.402   1.736   3.982
 1748SOL     OW 5256   3.262   0.107   4.150
 1748SOL    HW1 5257   3.238   0.070   4.060
 1748SOL    HW2 5258   3.361   0.123   4.154
 1749SOL     OW 5259   2.802   1.698   4.628
 1749SOL    HW1 5260   2.882   1.641   4.649
 1749SOL    HW2 5261   2.753   1.658   4.551
 1750SOL     OW 5262   2.244   0.700   4.204
 1750SOL    HW1 5263   2.289   0.610   4.201
 1750SOL    HW2 5264   2.150   0.689   4.237
 1751SOL     OW 5265   2.476   0.122   3.841
 1751SOL    HW1 5266   2.574   0.100   3.848
 1751SOL    HW2 5267   2.445   0.105   3.748
 1752SOL     OW 5268   2.401   0.064   4.236
 1752SOL    HW1 5269   2.320   0.065   4.294
 1752SOL    HW2 5270   2.404   0.147   4.181
 1753SOL     OW 5271   3.296   1.188   3.765
 1753SOL    HW1 5272   3.328   1.112   3.822
 1753SOL    HW2 5273   3.204   1.215   3.795
 1754SOL     OW 5274   2.159   0.035   3.895
 1754SOL    HW1 5275   2.208   0.119   3.874
 1754SOL    HW2 5276   2.221  -0.030   3.940
 1755SOL     OW 5277   2.797   0.236   4.204
 1755SOL    HW1 5278   2.749   0.277   4.126
 1755SOL    HW2 5279   2.896   0.234   4.185
 1756SOL     OW 5280   2.321   1.152   4.465
 1756SOL    HW1 5281   2.250   1.125   4.530
 1756SOL    HW2 5282   2.295   1.124   4.372
 1757SOL     OW 5283   3.133   1.797   4.315
 1757SOL    HW1 5284   3.177   1.861   4.251
 1757SOL    HW2 5285   3.083   1.849   4.385
 1758SOL     OW 5286   2.894   0.549   3.740
 1758SOL    HW1 5287   2.853   0.631   3.701
 1758SOL    HW2 5288   2.958   0.575   3.813
 1759SOL     OW 5289   2.728   0.454   4.366
 1759SOL    HW1 5290   2.696   0.526   4.304
 1759SOL    HW2 5291   2.752   0.373   4.313
 1760SOL     OW 5292   2.879   0.039   4.477
 1760SOL    HW1 5293   2.807   0.044   4.408
 1760SOL    HW2 5294   2.855  -0.030   4.546
 1761SOL     OW 5295   3.719   0.833   4.101
 1761SOL    HW1 5296   3.761   0.769   4.165
 1761SOL    HW2 5297   3.681   0.782   4.023
 1762SOL     OW 5298   2.350   1.385   3.898
 1762SOL    HW1 5299   2.263   1.370   3.945
 1762SOL    HW2 5300   2.333   1.411   3.803
 1763SOL     OW 5301   3.526   1.280   4.381
 1763SOL    HW1 5302   3.625   1.288   4.395
 1763SOL    HW2 5303   3.481   1.364   4.412
 1764SOL     OW 5304   3.252   0.575   3.802
 1764SOL    HW1 5305   3.198   0.554   3.883
 1764SOL    HW2 5306   3.343   0.534   3.811
 1765SOL     OW 5307   2.389   0.256   4.052
 1765SOL    HW1 5308   2.416   0.197   3.977
 1765SOL    HW2 5309   2.389   0.351   4.021
 1766SOL     OW 5310   2.567   1.050   4.092
 1766SOL    HW1 5311   2.553   1.057   4.191
 1766SOL    HW2 5312   2.651   0.999   4.074
 1767SOL     OW 5313   2.229   1.100   4.225
 1767SOL    HW1 5314   2.222   1.183   4.169
 1767SOL    HW2 5315   2.233   1.020   4.165
 1768SOL     OW 5316   3.114   1.348   4.112
 1768SOL    HW1 5317   3.164   1.425   4.152
 1768SOL    HW2 5318   3.019   1.350   4.144
 1769SOL     OW 5319   3.444   0.639   4.196
 1769SOL    HW1 5320   3.413   0.700   4.269
 1769SOL    HW2 5321   3.494   0.691   4.127
 1770SOL     OW 5322   3.071   0.525   3.999
 1770SOL    HW1 5323   3.084   0.441   4.053
 1770SOL    HW2 5324   3.042   0.599   4.059
 1771SOL     OW 5325   2.169   0.063   4.342
 1771SOL    HW1 5326   2.158   0.157   4.375
 1771SOL    HW2 5327   2.164   0.000   4.419
 1772SOL     OW 5328   3.484   0.367   4.098
 1772SOL    HW1 5329   3.486   0.291   4.162
 1772SOL    HW2 5330   3.436   0.444   4.138
 1773SOL     OW 5331   3.402   0.274   3.849
 1773SOL    HW1 5332   3.341   0.199   3.872
 1773SOL    HW2 5333   3.424   0.326   3.932
 1774SOL     OW 5334   3.165   0.838   3.766
 1774SOL    HW1 5335   3.199   0.745   3.781
 1774SOL    HW2 5336   3.183   0.865   3.671
 1775SOL     OW 5337   1.870   1.326   3.924
 1775SOL    HW1 5338   1.777   1.347   3.893
 1775SOL    HW2 5339   1.880   1.227   3.937
 1776SOL     OW 5340   2.677   0.572   4.049
 1776SOL    HW1 5341   2.684   0.483   4.003
 1776SOL    HW2 5342   2.583   0.606   4.041
 1777SOL     OW 5343   2.335   0.500   3.915
 1777SOL    HW1 5344   2.396   0.580   3.919
 1777SOL    HW2 5345   2.240   0.531   3.922
 1778SOL     OW 5346   3.164   0.855   4.033
 1778SOL    HW1 5347   3.078   0.824   4.075
 1778SOL    HW2 5348   3.160   0.841   3.934
 1779SOL     OW 5349   3.588   0.135   4.247
 1779SOL    HW1 5350   3.661   0.118   4.180
 1779SOL    HW2 5351   3.557   0.048   4.285
 1780SOL     OW 5352   3.250   1.573   4.201
 1780SOL    HW1 5353   3.317   1.585   4.127
 1780SOL    HW2 5354   3.210   1.662   4.224
 1781SOL     OW 5355   3.142   0.927   4.396
 1781SOL    HW1 5356   3.202   0.846   4.398
 1781SOL    HW2 5357   3.182   0.996   4.336
 1782SOL     OW 5358   2.534   1.616   3.878
 1782SOL    HW1 5359   2.543   1.626   3.779
 1782SOL    HW2 5360   2.494   1.527   3.899
 1783SOL     OW 5361   3.703   0.175   4.687
 1783SOL    HW1 5362   3.742   0.090   4.651
 1783SOL    HW2 5363   3.605   0.177   4.668
 1784SOL     OW 5364   2.125   0.326   4.444
 1784SOL    HW1 5365   2.046   0.377   4.410
 1784SOL    HW2 5366   2.116   0.311   4.542
 1785SOL     OW 5367   3.056   1.612   3.755
 1785SOL    HW1 5368   3.062   1.519   3.792
 1785SOL    HW2 5369   2.997   1.612   3.675
 1786SOL     OW 5370   2.778   0.910   4.015
 1786SOL    HW1 5371   2.841   0.948   3.947
 1786SOL    HW2 5372   2.818   0.827   4.054
 1787SOL     OW 5373   3.366   1.607   3.768
 1787SOL    HW1 5374   3.274   1.644   3.775
 1787SOL    HW2 5375   3.404   1.627   3.678
 1788SOL     OW 5376   2.901   1.098   4.420
 1788SOL    HW1 5377   2.831   1.051   4.474
 1788SOL    HW2 5378   2.960   1.030   4.377
 1789SOL     OW 5379   2.452   1.487   4.215
 1789SOL    HW1 5380   2.494   1.429   4.145
 1789SOL    HW2 5381   2.408   1.566   4.171
 1790SOL     OW 5382   2.117   1.348   4.014
 1790SOL    HW1 5383   2.021   1.349   3.987
 1790SOL    HW2 5384   2.129   1.401   4.098
 1791SOL     OW 5385   1.937   0.345   3.757
 1791SOL    HW1 5386   1.845   0.317   3.728
 1791SOL    HW2 5387   1.968   0.422   3.701
 1792SOL     OW 5388   1.934   0.166   4.042
 1792SOL    HW1 5389   1.917   0.249   3.988
 1792SOL    HW2 5390   2.024   0.129   4.020
 1793SOL     OW 5391   3.045   1.335   3.843
 1793SOL    HW1 5392   2.946   1.324   3.845
 1793SOL    HW2 5393   3.079   1.350   3.936
 1794SOL     OW 5394   3.087   0.325   4.173
 1794SOL    HW1 5395   3.152   0.251   4.162
 1794SOL    HW2 5396   3.107   0.375   4.257
 1795SOL     OW 5397   2.456   0.745   4.376
 1795SOL    HW1 5398   2.506   0.830   4.357
 1795SOL    HW2 5399   2.368   0.747   4.328
 1796SOL     OW 5400   2.721   1.374   3.740
 1796SOL    HW1 5401   2.675   1.389   3.828
 1796SOL    HW2 5402   2.765   1.459   3.710
 1797SOL     OW 5403   2.523   1.790   4.677
 1797SOL    HW1 5404   2.477   1.878   4.664
 1797SOL    HW2 5405   2.622   1.802   4.670
 1798SOL     OW 5406   2.721   0.956   4.585
 1798SOL    HW1 5407   2.775   0.887   4.633
 1798SOL    HW2 5408   2.689   1.025   4.651
 1799SOL     OW 5409   2.945   0.984   3.811
 1799SOL    HW1 5410   2.922   1.037   3.729
 1799SOL    HW2 5411   3.026   0.928   3.792
 1800SOL     OW 5412   1.941   1.240   4.377
 1800SOL    HW1 5413   1.940   1.193   4.465
 1800SOL    HW2 5414   2.023   1.212   4.326
 1801SOL     OW 5415   2.290   0.424   4.244
 1801SOL    HW1 5416   2.320   0.352   4.182
 1801SOL    HW2 5417   2.251   0.384   4.327
 1802SOL     OW 5418   3.567   1.487   4.828
 1802SOL    HW1 5419   3.474   1.462   4.801
 1802SOL    HW2 5420   3.593   1.437   4.910
 1803SOL     OW 5421   2.674   1.586   4.411
 1803SOL    HW1 5422   2.706   1.596   4.317
 1803SOL    HW2 5423   2.595   1.524   4.413
 1804SOL     OW 5424   2.632   1.330   4.025
 1804SOL    HW1 5425   2.586   1.243   4.042
 1804SOL    HW2 5426   2.723   1.327   4.066
 1805SOL     OW 5427   3.214   0.052   3.892
 1805SOL    HW1 5428   3.249   0.011   3.808
 1805SOL    HW2 5429   3.124   0.014   3.912
 1806SOL     OW 5430   3.162   0.453   4.415
 1806SOL    HW1 5431   3.103   0.533   4.419
 1806SOL    HW2 5432   3.177   0.418   4.508
 1807SOL     OW 5433   1.901   1.077   4.024
 1807SOL    HW1 5434   2.000   1.066   4.015
 1807SOL    HW2 5435   1.861   0.991   4.056
 1808SOL     OW 5436   2.737   1.646   4.061
 1808SOL    HW1 5437   2.660   1.611   4.007
 1808SOL    HW2 5438   2.705   1.717   4.123
 1809SOL     OW 5439   2.092   2.490   0.113
 1809SOL    HW1 5440   1.999   2.488   0.150
 1809SOL    HW2 5441   2.093   2.451   0.021
 1810SOL     OW 5442   2.087   2.137   0.996
 1810SOL    HW1 5443   2.122   2.120   1.088
 1810SOL    HW2 5444   1.999   2.092   0.984
 1811SOL     OW 5445   1.881   2.230   0.647
 1811SOL    HW1 5446   1.799   2.273   0.686
 1811SOL    HW2 5447   1.853   2.157   0.584
 1812SOL     OW 5448   2.431   3.137   1.165
 1812SOL    HW1 5449   2.338   3.130   1.128
 1812SOL    HW2 5450   2.442   3.226   1.209
 1813SOL     OW 5451   3.417   3.373   0.703
 1813SOL    HW1 5452   3.360   3.357   0.784
 1813SOL    HW2 5453   3.358   3.383   0.623
 1814SOL     OW 5454   2.997   2.565   0.717
 1814SOL    HW1 5455   3.054   2.643   0.692
 1814SOL    HW2 5456   2.937   2.591   0.793
 1815SOL     OW 5457   3.617   2.469   0.231
 1815SOL    HW1 5458   3.605   2.456   0.132
 1815SOL    HW2 5459   3.587   2.388   0.280
 1816SOL     OW 5460   2.630   3.006   1.023
 1816SOL    HW1 5461   2.552   3.023   1.083
 1816SOL    HW2 5462   2.664   3.093   0.987
 1817SOL     OW 5463   2.712   2.660   1.823
 1817SOL    HW1 5464   2.708   2.736   1.888
 1817SOL    HW2 5465   2.734   2.696   1.732
 1818SOL     OW 5466   2.547   2.874   0.665
 1818SOL    HW1 5467   2.616   2.858   0.735
 1818SOL    HW2 5468   2.474   2.931   0.703
 1819SOL     OW 5469   2.548   3.023   1.803
 1819SOL    HW1 5470   2.608   3.102   1.817
 1819SOL    HW2 5471   2.462   3.054   1.762
 1820SOL     OW 5472   2.197   3.297   1.061
 1820SOL    HW1 5473   2.119   3.266   1.008
 1820SOL    HW2 5474   2.255   3.355   1.004
 1821SOL     OW 5475   3.322   3.367   1.339
 1821SOL    HW1 5476   3.346   3.461   1.365
 1821SOL    HW2 5477   3.306   3.313   1.421
 1822SOL     OW 5478   2.300   2.254   1.499
 1822SOL    HW1 5479   2.382   2.198   1.508
 1822SOL    HW2 5480   2.219   2.196   1.503
 1823SOL     OW 5481   3.465   2.309   0.737
 1823SOL    HW1 5482   3.391   2.355   0.687
 1823SOL    HW2 5483   3.516   2.377   0.790
 1824SOL     OW 5484   2.093   3.575   0.483
 1824SOL    HW1 5485   2.127   3.652   0.537
 1824SOL    HW2 5486   2.137   3.575   0.393
 1825SOL     OW 5487   2.989   3.203   1.690
 1825SOL    HW1 5488   3.036   3.203   1.778
 1825SOL    HW2 5489   2.941   3.116   1.679
 1826SOL     OW 5490   2.092   3.296   0.538
 1826SOL    HW1 5491   2.066   3.392   0.538
 1826SOL    HW2 5492   2.021   3.242   0.583
 1827SOL     OW 5493   2.102   2.953   0.886
 1827SOL    HW1 5494   2.116   2.869   0.938
 1827SOL    HW2 5495   2.047   3.017   0.941
 1828SOL     OW 5496   2.482   3.648   1.439
 1828SOL    HW1 5497   2.390   3.631   1.474
 1828SOL    HW2 5498   2.510   3.740   1.465
 1829SOL     OW 5499   2.468   2.826   0.123
 1829SOL    HW1 5500   2.475   2.910   0.069
 1829SOL    HW2 5501   2.514   2.839   0.211
 1830SOL     OW 5502   3.456   1.976   1.480
 1830SOL    HW1 5503   3.438   2.043   1.408
 1830SOL    HW2 5504   3.453   2.022   1.569
 1831SOL     OW 5505   1.984   2.505   0.563
 1831SOL    HW1 5506   1.939   2.417   0.580
 1831SOL    HW2 5507   1.983   2.559   0.647
 1832SOL     OW 5508   3.704   3.629   0.359
 1832SOL    HW1 5509   3.758   3.600   0.439
 1832SOL    HW2 5510   3.734   3.719   0.330
 1833SOL     OW 5511   1.889   3.458   0.117
 1833SOL    HW1 5512   1.870   3.362   0.138
 1833SOL    HW2 5513   1.856   3.516   0.192
 1834SOL     OW 5514   3.551   2.784   0.612
 1834SOL    HW1 5515   3.646   2.755   0.620
 1834SOL    HW2 5516   3.543   2.849   0.537
 1835SOL     OW 5517   3.503   2.970   0.432
 1835SOL    HW1 5518   3.589   2.972   0.380
 1835SOL    HW2 5519   3.517   3.017   0.520
 1836SOL     OW 5520   1.975   2.599   1.597
 1836SOL    HW1 5521   2.063   2.586   1.642
 1836SOL    HW2 5522   1.962   2.696   1.575
 1837SOL     OW 5523   2.475   3.227   0.726
 1837SOL    HW1 5524   2.426   3.140   0.735
 1837SOL    HW2 5525   2.452   3.270   0.639
 1838SOL     OW 5526   3.155   3.090   1.423
 1838SOL    HW1 5527   3.192   3.017   1.365
 1838SOL    HW2 5528   3.207   3.095   1.508
 1839SOL     OW 5529   2.671   1.866   0.502
 1839SOL    HW1 5530   2.711   1.957   0.493
 1839SOL    HW2 5531   2.571   1.874   0.508
 1840SOL     OW 5532   2.059   2.838   1.264
 1840SOL    HW1 5533   2.148   2.793   1.250
 1840SOL    HW2 5534   1.986   2.773   1.245
 1841SOL     OW 5535   3.387   2.861   0.190
 1841SOL    HW1 5536   3.324   2.785   0.203
 1841SOL    HW2 5537   3.435   2.879   0.276
 1842SOL     OW 5538   3.049   3.654   1.616
 1842SOL    HW1 5539   3.073   3.714   1.540
 1842SOL    HW2 5540   3.056   3.559   1.586
 1843SOL     OW 5541   2.179   2.113   1.801
 1843SOL    HW1 5542   2.250   2.184   1.807
 1843SOL    HW2 5543   2.091   2.152   1.829
 1844SOL     OW 5544   3.328   3.279   0.953
 1844SOL    HW1 5545   3.269   3.285   1.033
 1844SOL    HW2 5546   3.313   3.191   0.907
 1845SOL     OW 5547   3.529   3.576   0.572
 1845SOL    HW1 5548   3.488   3.553   0.484
 1845SOL    HW2 5549   3.511   3.502   0.637
 1846SOL     OW 5550   2.460   2.591   0.270
 1846SOL    HW1 5551   2.484   2.660   0.202
 1846SOL    HW2 5552   2.382   2.624   0.324
 1847SOL     OW 5553   3.143   2.207   0.944
 1847SOL    HW1 5554   3.057   2.157   0.931
 1847SOL    HW2 5555   3.205   2.153   1.000
 1848SOL     OW 5556   3.438   3.524   0.307
 1848SOL    HW1 5557   3.527   3.570   0.310
 1848SOL    HW2 5558   3.417   3.500   0.212
 1849SOL     OW 5559   2.669   2.467   1.465
 1849SOL    HW1 5560   2.622   2.464   1.554
 1849SOL    HW2 5561   2.618   2.412   1.399
 1850SOL     OW 5562   3.256   2.331   1.674
 1850SOL    HW1 5563   3.236   2.374   1.762
 1850SOL    HW2 5564   3.334   2.269   1.683
 1851SOL     OW 5565   2.835   2.752   1.572
 1851SOL    HW1 5566   2.881   2.668   1.543
 1851SOL    HW2 5567   2.779   2.786   1.497
 1852SOL     OW 5568   2.853   2.272   1.242
 1852SOL    HW1 5569   2.776   2.306   1.296
 1852SOL    HW2 5570   2.819   2.221   1.163
 1853SOL     OW 5571   2.903   2.563   0.429
 1853SOL    HW1 5572   2.929   2.559   0.525
 1853SOL    HW2 5573   2.818   2.512   0.415
 1854SOL     OW 5574   1.938   2.673   0.789
 1854SOL    HW1 5575   2.037   2.661   0.798
 1854SOL    HW2 5576   1.914   2.768   0.810
 1855SOL     OW 5577   1.992   3.683   1.571
 1855SOL    HW1 5578   1.982   3.668   1.670
 1855SOL    HW2 5579   1.906   3.719   1.535
 1856SOL     OW 5580   2.727   2.210   0.195
 1856SOL    HW1 5581   2.786   2.273   0.146
 1856SOL    HW2 5582   2.746   2.116   0.166
 1857SOL     OW 5583   3.581   2.447   1.831
 1857SOL    HW1 5584   3.555   2.536   1.795
 1857SOL    HW2 5585   3.579   2.379   1.758
 1858SOL     OW 5586   3.224   3.006   0.545
 1858SOL    HW1 5587   3.307   2.977   0.497
 1858SOL    HW2 5588   3.175   3.073   0.489
 1859SOL     OW 5589   2.412   2.058   0.885
 1859SOL    HW1 5590   2.407   2.053   0.985
 1859SOL    HW2 5591   2.414   2.154   0.856
 1860SOL     OW 5592   2.870   3.318   0.477
 1860SOL    HW1 5593   2.824   3.390   0.425
 1860SOL    HW2 5594   2.866   3.338   0.575
 1861SOL     OW 5595   2.213   3.663   0.853
 1861SOL    HW1 5596   2.263   3.577   0.859
 1861SOL    HW2 5597   2.278   3.740   0.850
 1862SOL     OW 5598   3.657   2.928   0.873
 1862SOL    HW1 5599   3.595   2.913   0.797
 1862SOL    HW2 5600   3.605   2.939   0.958
 1863SOL     OW 5601   3.089   3.412   1.506
 1863SOL    HW1 5602   3.095   3.335   1.570
 1863SOL    HW2 5603   3.037   3.386   1.426
 1864SOL     OW 5604   2.183   2.805   0.242
 1864SOL    HW1 5605   2.265   2.844   0.200
 1864SOL    HW2 5606   2.156   2.723   0.193
 1865SOL     OW 5607   3.320   2.597   0.728
 1865SOL    HW1 5608   3.315   2.532   0.803
 1865SOL    HW2 5609   3.400   2.656   0.741
 1866SOL     OW 5610   2.323   3.128   1.727
 1866SOL    HW1 5611   2.273   3.129   1.641
 1866SOL    HW2 5612   2.260   3.110   1.803
 1867SOL     OW 5613   2.973   3.638   0.237
 1867SOL    HW1 5614   2.913   3.576   0.287
 1867SOL    HW2 5615   3.004   3.594   0.152
 1868SOL     OW 5616   2.064   2.147   1.498
 1868SOL    HW1 5617   1.984   2.207   1.485
 1868SOL    HW2 5618   2.054   2.098   1.584
 1869SOL     OW 5619   3.494   3.239   0.081
 1869SOL    HW1 5620   3.462   3.333   0.071
 1869SOL    HW2 5621   3.418   3.176   0.069
 1870SOL     OW 5622   2.326   3.605   0.323
 1870SOL    HW1 5623   2.359   3.644   0.409
 1870SOL    HW2 5624   2.402   3.598   0.258
 1871SOL     OW 5625   3.262   1.969   0.426
 1871SOL    HW1 5626   3.238   1.932   0.336
 1871SOL    HW2 5627   3.361   1.985   0.430
 1872SOL     OW 5628   2.111   3.647   1.241
 1872SOL    HW1 5629   2.168   3.582   1.291
 1872SOL    HW2 5630   2.095   3.614   1.148
 1873SOL     OW 5631   2.802   3.560   0.904
 1873SOL    HW1 5632   2.882   3.503   0.925
 1873SOL    HW2 5633   2.753   3.520   0.827
 1874SOL     OW 5634   2.244   2.562   0.480
 1874SOL    HW1 5635   2.289   2.472   0.477
 1874SOL    HW2 5636   2.150   2.551   0.513
 1875SOL     OW 5637   3.409   2.084   1.729
 1875SOL    HW1 5638   3.404   2.121   1.821
 1875SOL    HW2 5639   3.337   2.015   1.717
 1876SOL     OW 5640   2.643   2.126   1.749
 1876SOL    HW1 5641   2.710   2.065   1.792
 1876SOL    HW2 5642   2.570   2.145   1.814
 1877SOL     OW 5643   2.750   3.376   1.195
 1877SOL    HW1 5644   2.727   3.351   1.101
 1877SOL    HW2 5645   2.811   3.307   1.234
 1878SOL     OW 5646   3.213   2.452   1.433
 1878SOL    HW1 5647   3.241   2.409   1.518
 1878SOL    HW2 5648   3.238   2.548   1.434
 1879SOL     OW 5649   2.665   3.264   0.924
 1879SOL    HW1 5650   2.755   3.278   0.882
 1879SOL    HW2 5651   2.594   3.266   0.853
 1880SOL     OW 5652   2.784   2.365   0.899
 1880SOL    HW1 5653   2.759   2.356   0.803
 1880SOL    HW2 5654   2.832   2.283   0.930
 1881SOL     OW 5655   2.401   1.926   0.512
 1881SOL    HW1 5656   2.320   1.927   0.570
 1881SOL    HW2 5657   2.404   2.009   0.457
 1882SOL     OW 5658   3.296   3.050   0.041
 1882SOL    HW1 5659   3.328   2.974   0.098
 1882SOL    HW2 5660   3.204   3.077   0.071
 1883SOL     OW 5661   2.159   1.897   0.171
 1883SOL    HW1 5662   2.208   1.981   0.150
 1883SOL    HW2 5663   2.221   1.832   0.216
 1884SOL     OW 5664   2.797   2.098   0.480
 1884SOL    HW1 5665   2.749   2.139   0.402
 1884SOL    HW2 5666   2.896   2.096   0.461
 1885SOL     OW 5667   2.938   2.545   1.464
 1885SOL    HW1 5668   2.858   2.484   1.467
 1885SOL    HW2 5669   3.019   2.492   1.440
 1886SOL     OW 5670   3.089   3.432   0.793
 1886SOL    HW1 5671   3.110   3.506   0.728
 1886SOL    HW2 5672   3.157   3.432   0.866
 1887SOL     OW 5673   2.321   3.014   0.741
 1887SOL    HW1 5674   2.250   2.987   0.806
 1887SOL    HW2 5675   2.295   2.986   0.648
 1888SOL     OW 5676   3.133   3.659   0.591
 1888SOL    HW1 5677   3.177   3.723   0.527
 1888SOL    HW2 5678   3.083   3.711   0.661
 1889SOL     OW 5679   2.894   2.411   0.016
 1889SOL    HW1 5680   2.853   2.493  -0.023
 1889SOL    HW2 5681   2.958   2.437   0.089
 1890SOL     OW 5682   1.940   2.418   1.386
 1890SOL    HW1 5683   2.032   2.417   1.345
 1890SOL    HW2 5684   1.934   2.492   1.453
 1891SOL     OW 5685   2.423   2.084   1.147
 1891SOL    HW1 5686   2.461   2.000   1.184
 1891SOL    HW2 5687   2.335   2.103   1.191
 1892SOL     OW 5688   2.728   2.316   0.642
 1892SOL    HW1 5689   2.696   2.388   0.580
 1892SOL    HW2 5690   2.752   2.235   0.589
 1893SOL     OW 5691   2.879   1.901   0.753
 1893SOL    HW1 5692   2.807   1.906   0.684
 1893SOL    HW2 5693   2.855   1.832   0.822
 1894SOL     OW 5694   3.291   3.035   0.867
 1894SOL    HW1 5695   3.236   2.951   0.860
 1894SOL    HW2 5696   3.317   3.064   0.775
 1895SOL     OW 5697   3.328   2.452   0.992
 1895SOL    HW1 5698   3.298   2.357   0.999
 1895SOL    HW2 5699   3.401   2.468   1.058
 1896SOL     OW 5700   3.719   2.695   0.377
 1896SOL    HW1 5701   3.761   2.631   0.441
 1896SOL    HW2 5702   3.681   2.644   0.299
 1897SOL     OW 5703   2.350   3.247   0.174
 1897SOL    HW1 5704   2.263   3.232   0.221
 1897SOL    HW2 5705   2.333   3.273   0.079
 1898SOL     OW 5706   3.526   3.142   0.657
 1898SOL    HW1 5707   3.625   3.150   0.671
 1898SOL    HW2 5708   3.481   3.226   0.688
 1899SOL     OW 5709   3.252   2.437   0.078
 1899SOL    HW1 5710   3.198   2.416   0.159
 1899SOL    HW2 5711   3.343   2.396   0.087
 1900SOL     OW 5712   2.389   2.118   0.328
 1900SOL    HW1 5713   2.416   2.059   0.253
 1900SOL    HW2 5714   2.389   2.213   0.297
 1901SOL     OW 5715   3.616   3.085   1.588
 1901SOL    HW1 5716   3.707   3.046   1.575
 1901SOL    HW2 5717   3.624   3.181   1.612
 1902SOL     OW 5718   2.926   3.209   1.340
 1902SOL    HW1 5719   2.846   3.186   1.395
 1902SOL    HW2 5720   3.009   3.183   1.389
 1903SOL     OW 5721   3.454   3.491   1.625
 1903SOL    HW1 5722   3.481   3.525   1.535
 1903SOL    HW2 5723   3.533   3.453   1.671
 1904SOL     OW 5724   2.973   3.057   1.100
 1904SOL    HW1 5725   2.933   3.101   1.181
 1904SOL    HW2 5726   2.932   3.094   1.017
 1905SOL     OW 5727   3.500   2.961   1.079
 1905SOL    HW1 5728   3.505   3.042   1.138
 1905SOL    HW2 5729   3.414   2.963   1.028
 1906SOL     OW 5730   2.777   1.951   1.402
 1906SOL    HW1 5731   2.802   1.931   1.307
 1906SOL    HW2 5732   2.849   2.007   1.444
 1907SOL     OW 5733   2.842   2.978   1.719
 1907SOL    HW1 5734   2.743   2.984   1.729
 1907SOL    HW2 5735   2.865   2.898   1.663
 1908SOL     OW 5736   2.567   2.912   0.368
 1908SOL    HW1 5737   2.553   2.919   0.467
 1908SOL    HW2 5738   2.651   2.861   0.350
 1909SOL     OW 5739   2.272   2.675   1.251
 1909SOL    HW1 5740   2.358   2.687   1.301
 1909SOL    HW2 5741   2.230   2.588   1.278
 1910SOL     OW 5742   3.136   2.248   1.262
 1910SOL    HW1 5743   3.157   2.322   1.326
 1910SOL    HW2 5744   3.047   2.265   1.219
 1911SOL     OW 5745   1.926   3.426   1.331
 1911SOL    HW1 5746   1.880   3.508   1.297
 1911SOL    HW2 5747   2.024   3.445   1.340
 1912SOL     OW 5748   2.229   2.962   0.501
 1912SOL    HW1 5749   2.222   3.045   0.445
 1912SOL    HW2 5750   2.233   2.882   0.441
 1913SOL     OW 5751   2.428   2.399   0.865
 1913SOL    HW1 5752   2.440   2.465   0.791
 1913SOL    HW2 5753   2.474   2.433   0.948
 1914SOL     OW 5754   3.114   3.210   0.388
 1914SOL    HW1 5755   3.164   3.287   0.428
 1914SOL    HW2 5756   3.019   3.212   0.420
 1915SOL     OW 5757   3.134   3.307   1.142
 1915SOL    HW1 5758   3.181   3.320   1.229
 1915SOL    HW2 5759   3.068   3.233   1.151
 1916SOL     OW 5760   3.444   2.501   0.472
 1916SOL    HW1 5761   3.413   2.562   0.545
 1916SOL    HW2 5762   3.494   2.553   0.403
 1917SOL     OW 5763   2.216   3.372   1.329
 1917SOL    HW1 5764   2.195   3.328   1.242
 1917SOL    HW2 5765   2.313   3.398   1.332
 1918SOL     OW 5766   2.264   2.613   1.598
 1918SOL    HW1 5767   2.332   2.668   1.551
 1918SOL    HW2 5768   2.304   2.525   1.625
 1919SOL     OW 5769   3.449   2.641   1.670
 1919SOL    HW1 5770   3.357   2.679   1.665
 1919SOL    HW2 5771   3.509   2.688   1.605
 1920SOL     OW 5772   2.875   1.967   1.770
 1920SOL    HW1 5773   2.881   2.052   1.718
 1920SOL    HW2 5774   2.907   1.891   1.713
 1921SOL     OW 5775   2.366   1.912   1.740
 1921SOL    HW1 5776   2.324   1.855   1.670
 1921SOL    HW2 5777   2.300   1.981   1.772
 1922SOL     OW 5778   2.435   2.732   1.029
 1922SOL    HW1 5779   2.479   2.821   1.020
 1922SOL    HW2 5780   2.372   2.732   1.106
 1923SOL     OW 5781   3.222   2.724   1.045
 1923SOL    HW1 5782   3.147   2.724   0.979
 1923SOL    HW2 5783   3.259   2.632   1.054
 1924SOL     OW 5784   3.071   2.387   0.275
 1924SOL    HW1 5785   3.084   2.303   0.329
 1924SOL    HW2 5786   3.042   2.461   0.335
 1925SOL     OW 5787   2.169   2.075   1.231
 1925SOL    HW1 5788   2.146   2.112   1.321
 1925SOL    HW2 5789   2.139   1.980   1.225
 1926SOL     OW 5790   1.899   3.172   1.282
 1926SOL    HW1 5791   1.952   3.123   1.350
 1926SOL    HW2 5792   1.921   3.270   1.287
 1927SOL     OW 5793   2.594   2.496   1.064
 1927SOL    HW1 5794   2.653   2.470   0.988
 1927SOL    HW2 5795   2.566   2.592   1.053
 1928SOL     OW 5796   3.590   2.797   1.854
 1928SOL    HW1 5797   3.544   2.790   1.765
 1928SOL    HW2 5798   3.528   2.841   1.920
 1929SOL     OW 5799   2.169   1.925   0.618
 1929SOL    HW1 5800   2.158   2.019   0.651
 1929SOL    HW2 5801   2.164   1.862   0.695
 1930SOL     OW 5802   3.484   2.229   0.374
 1930SOL    HW1 5803   3.486   2.153   0.438
 1930SOL    HW2 5804   3.436   2.306   0.414
 1931SOL     OW 5805   2.885   2.628   0.966
 1931SOL    HW1 5806   2.900   2.649   1.062
 1931SOL    HW2 5807   2.855   2.533   0.957
 1932SOL     OW 5808   2.842   3.435   1.700
 1932SOL    HW1 5809   2.822   3.479   1.612
 1932SOL    HW2 5810   2.881   3.344   1.684
 1933SOL     OW 5811   3.721   3.380   1.605
 1933SOL    HW1 5812   3.735   3.407   1.510
 1933SOL    HW2 5813   3.804   3.402   1.658
 1934SOL     OW 5814   2.212   2.760   1.804
 1934SOL    HW1 5815   2.288   2.804   1.852
 1934SOL    HW2 5816   2.247   2.713   1.722
 1935SOL     OW 5817   3.402   2.136   0.125
 1935SOL    HW1 5818   3.341   2.061   0.148
 1935SOL    HW2 5819   3.424   2.188   0.208
 1936SOL     OW 5820   3.165   2.700   0.042
 1936SOL    HW1 5821   3.199   2.607   0.057
 1936SOL    HW2 5822   3.183   2.727  -0.053
 1937SOL     OW 5823   2.930   3.195   0.849
 1937SOL    HW1 5824   2.937   3.111   0.794
 1937SOL    HW2 5825   2.992   3.264   0.813
 1938SOL     OW 5826   2.181   2.672   0.949
 1938SOL    HW1 5827   2.274   2.708   0.954
 1938SOL    HW2 5828   2.175   2.587   1.001
 1939SOL     OW 5829   2.201   2.371   1.006
 1939SOL    HW1 5830   2.149   2.288   0.989
 1939SOL    HW2 5831   2.278   2.376   0.942
 1940SOL     OW 5832   3.000   2.242   1.678
 1940SOL    HW1 5833   2.955   2.305   1.742
 1940SOL    HW2 5834   3.093   2.273   1.661
 1941SOL     OW 5835   3.022   2.069   1.477
 1941SOL    HW1 5836   3.022   2.133   1.554
 1941SOL    HW2 5837   3.050   2.117   1.394
 1942SOL     OW 5838   1.870   3.188   0.200
 1942SOL    HW1 5839   1.777   3.209   0.169
 1942SOL    HW2 5840   1.880   3.089   0.213
 1943SOL     OW 5841   1.950   3.663   0.927
 1943SOL    HW1 5842   1.908   3.577   0.900
 1943SOL    HW2 5843   2.044   3.666   0.893
 1944SOL     OW 5844   2.366   3.430   0.910
 1944SOL    HW1 5845   2.432   3.504   0.919
 1944SOL    HW2 5846   2.410   3.351   0.868
 1945SOL     OW 5847   2.864   2.658   1.238
 1945SOL    HW1 5848   2.905   2.626   1.324
 1945SOL    HW2 5849   2.768   2.631   1.235
 1946SOL     OW 5850   1.902   2.406   1.114
 1946SOL    HW1 5851   1.987   2.373   1.073
 1946SOL    HW2 5852   1.915   2.421   1.212
 1947SOL     OW 5853   2.051   2.382   1.722
 1947SOL    HW1 5854   2.110   2.342   1.652
 1947SOL    HW2 5855   1.993   2.453   1.681
 1948SOL     OW 5856   3.231   2.812   1.660
 1948SOL    HW1 5857   3.270   2.901   1.680
 1948SOL    HW2 5858   3.241   2.792   1.563
 1949SOL     OW 5859   2.677   2.434   0.325
 1949SOL    HW1 5860   2.684   2.345   0.279
 1949SOL    HW2 5861   2.583   2.468   0.317
 1950SOL     OW 5862   3.519   2.466   1.206
 1950SOL    HW1 5863   3.481   2.397   1.268
 1950SOL    HW2 5864   3.601   2.430   1.162
 1951SOL     OW 5865   2.114   3.426   1.744
 1951SOL    HW1 5866   2.084   3.483   1.820
 1951SOL    HW2 5867   2.107   3.329   1.770
 1952SOL     OW 5868   2.533   2.326   1.269
 1952SOL    HW1 5869   2.499   2.237   1.239
 1952SOL    HW2 5870   2.559   2.380   1.189
 1953SOL     OW 5871   2.792   3.540   1.465
 1953SOL    HW1 5872   2.768   3.522   1.370
 1953SOL    HW2 5873   2.822   3.634   1.475
 1954SOL     OW 5874   2.335   2.362   0.191
 1954SOL    HW1 5875   2.396   2.442   0.195
 1954SOL    HW2 5876   2.240   2.393   0.198
 1955SOL     OW 5877   2.021   2.999   1.466
 1955SOL    HW1 5878   2.043   2.938   1.542
 1955SOL    HW2 5879   2.031   2.950   1.380
 1956SOL     OW 5880   3.209   2.921   1.234
 1956SOL    HW1 5881   3.233   2.858   1.160
 1956SOL    HW2 5882   3.119   2.961   1.216
 1957SOL     OW 5883   3.164   2.717   0.309
 1957SOL    HW1 5884   3.078   2.686   0.351
 1957SOL    HW2 5885   3.160   2.703   0.210
 1958SOL     OW 5886   3.621   3.609   1.154
 1958SOL    HW1 5887   3.682   3.639   1.081
 1958SOL    HW2 5888   3.583   3.520   1.132
 1959SOL     OW 5889   3.114   3.593   1.128
 1959SOL    HW1 5890   3.198   3.598   1.074
 1959SOL    HW2 5891   3.091   3.497   1.146
 1960SOL     OW 5892   1.945   3.120   1.022
 1960SOL    HW1 5893   1.940   3.119   1.122
 1960SOL    HW2 5894   1.862   3.079   0.984
 1961SOL     OW 5895   2.550   3.524   1.716
 1961SOL    HW1 5896   2.494   3.605   1.725
 1961SOL    HW2 5897   2.602   3.528   1.630
 1962SOL     OW 5898   2.765   1.948   0.133
 1962SOL    HW1 5899   2.816   1.949   0.047
 1962SOL    HW2 5900   2.821   1.906   0.204
 1963SOL     OW 5901   3.588   1.997   0.523
 1963SOL    HW1 5902   3.661   1.980   0.456
 1963SOL    HW2 5903   3.557   1.910   0.561
 1964SOL     OW 5904   3.250   3.435   0.477
 1964SOL    HW1 5905   3.317   3.447   0.403
 1964SOL    HW2 5906   3.210   3.524   0.500
 1965SOL     OW 5907   1.992   3.656   1.851
 1965SOL    HW1 5908   1.951   3.582   1.904
 1965SOL    HW2 5909   2.056   3.707   1.909
 1966SOL     OW 5910   3.142   2.789   0.672
 1966SOL    HW1 5911   3.202   2.708   0.674
 1966SOL    HW2 5912   3.182   2.858   0.612
 1967SOL     OW 5913   2.692   3.135   1.422
 1967SOL    HW1 5914   2.687   3.168   1.517
 1967SOL    HW2 5915   2.606   3.154   1.376
 1968SOL     OW 5916   2.534   3.478   0.154
 1968SOL    HW1 5917   2.543   3.488   0.055
 1968SOL    HW2 5918   2.494   3.389   0.175
 1969SOL     OW 5919   3.512   3.582   1.394
 1969SOL    HW1 5920   3.565   3.592   1.310
 1969SOL    HW2 5921   3.485   3.672   1.428
 1970SOL     OW 5922   3.703   2.037   0.963
 1970SOL    HW1 5923   3.742   1.952   0.927
 1970SOL    HW2 5924   3.605   2.039   0.944
 1971SOL     OW 5925   2.125   2.188   0.720
 1971SOL    HW1 5926   2.046   2.239   0.686
 1971SOL    HW2 5927   2.116   2.173   0.818
 1972SOL     OW 5928   3.056   3.474   0.031
 1972SOL    HW1 5929   3.062   3.381   0.068
 1972SOL    HW2 5930   2.997   3.474  -0.049
 1973SOL     OW 5931   2.684   2.864   1.372
 1973SOL    HW1 5932   2.724   2.863   1.280
 1973SOL    HW2 5933   2.694   2.956   1.412
 1974SOL     OW 5934   2.778   2.772   0.291
 1974SOL    HW1 5935   2.841   2.810   0.223
 1974SOL    HW2 5936   2.818   2.689   0.330
 1975SOL     OW 5937   3.366   3.469   0.044
 1975SOL    HW1 5938   3.274   3.506   0.051
 1975SOL    HW2 5939   3.404   3.489  -0.046
 1976SOL     OW 5940   2.234   3.150   1.490
 1976SOL    HW1 5941   2.221   3.243   1.456
 1976SOL    HW2 5942   2.150   3.098   1.477
 1977SOL     OW 5943   3.476   3.154   1.289
 1977SOL    HW1 5944   3.536   3.157   1.369
 1977SOL    HW2 5945   3.401   3.218   1.302
 1978SOL     OW 5946   2.901   2.960   0.696
 1978SOL    HW1 5947   2.831   2.913   0.750
 1978SOL    HW2 5948   2.960   2.892   0.653
 1979SOL     OW 5949   2.876   2.098   0.971
 1979SOL    HW1 5950   2.868   2.062   0.878
 1979SOL    HW2 5951   2.874   2.022   1.036
 1980SOL     OW 5952   2.452   3.349   0.491
 1980SOL    HW1 5953   2.494   3.291   0.421
 1980SOL    HW2 5954   2.408   3.428   0.447
 1981SOL     OW 5955   3.571   2.247   1.381
 1981SOL    HW1 5956   3.644   2.316   1.385
 1981SOL    HW2 5957   3.599   2.172   1.322
 1982SOL     OW 5958   2.117   3.210   0.290
 1982SOL    HW1 5959   2.021   3.211   0.263
 1982SOL    HW2 5960   2.129   3.263   0.374
 1983SOL     OW 5961   1.967   2.875   1.726
 1983SOL    HW1 5962   1.890   2.842   1.780
 1983SOL    HW2 5963   2.052   2.845   1.768
 1984SOL     OW 5964   2.534   2.065   1.489
 1984SOL    HW1 5965   2.624   2.049   1.449
 1984SOL    HW2 5966   2.542   2.070   1.588
 1985SOL     OW 5967   1.937   2.207   0.033
 1985SOL    HW1 5968   1.845   2.179   0.004
 1985SOL    HW2 5969   1.968   2.284  -0.023
 1986SOL     OW 5970   3.302   2.718   1.398
 1986SOL    HW1 5971   3.245   2.770   1.335
 1986SOL    HW2 5972   3.398   2.730   1.374
 1987SOL     OW 5973   1.934   2.028   0.318
 1987SOL    HW1 5974   1.917   2.111   0.264
 1987SOL    HW2 5975   2.024   1.991   0.296
 1988SOL     OW 5976   3.045   3.197   0.119
 1988SOL    HW1 5977   2.946   3.186   0.121
 1988SOL    HW2 5978   3.079   3.212   0.212
 1989SOL     OW 5979   2.475   2.704   1.431
 1989SOL    HW1 5980   2.531   2.785   1.414
 1989SOL    HW2 5981   2.534   2.624   1.434
 1990SOL     OW 5982   3.355   3.629   0.959
 1990SOL    HW1 5983   3.388   3.693   0.890
 1990SOL    HW2 5984   3.421   3.623   1.034
 1991SOL     OW 5985   2.578   2.427   1.708
 1991SOL    HW1 5986   2.597   2.492   1.782
 1991SOL    HW2 5987   2.638   2.347   1.717
 1992SOL     OW 5988   3.312   3.082   1.633
 1992SOL    HW1 5989   3.303   3.072   1.732
 1992SOL    HW2 5990   3.408   3.075   1.607
 1993SOL     OW 5991   2.252   3.603   1.560
 1993SOL    HW1 5992   2.161   3.644   1.558
 1993SOL    HW2 5993   2.245   3.509   1.592
 1994SOL     OW 5994   3.536   2.745   1.254
 1994SOL    HW1 5995   3.509   2.656   1.217
 1994SOL    HW2 5996   3.537   2.813   1.181
 1995SOL     OW 5997   3.087   2.187   0.449
 1995SOL    HW1 5998   3.152   2.113   0.438
 1995SOL    HW2 5999   3.107   2.237   0.533
 1996SOL     OW 6000   2.456   2.607   0.652
 1996SOL    HW1 6001   2.506   2.692   0.633
 1996SOL    HW2 6002   2.368   2.609   0.604
 1997SOL     OW 6003   3.639   2.204   1.642
 1997SOL    HW1 6004   3.622   2.235   1.548
 1997SOL    HW2 6005   3.555   2.167   1.680
 1998SOL     OW 6006   3.592   2.796   1.517
 1998SOL    HW1 6007   3.630   2.887   1.532
 1998SOL    HW2 6008   3.584   2.779   1.418
 1999SOL     OW 6009   2.721   3.236   0.016
 1999SOL    HW1 6010   2.675   3.251   0.104
 1999SOL    HW2 6011   2.765   3.321  -0.014
 2000SOL     OW 6012   2.523   3.652   0.953
 2000SOL    HW1 6013   2.477   3.740   0.940
 2000SOL    HW2 6014   2.622   3.664   0.946
 2001SOL     OW 6015   2.721   2.818   0.861
 2001SOL    HW1 6016   2.775   2.749   0.909
 2001SOL    HW2 6017   2.689   2.887   0.927
 2002SOL     OW 6018   2.945   2.846   0.087
 2002SOL    HW1 6019   2.922   2.899   0.005
 2002SOL    HW2 6020   3.026   2.790   0.068
 2003SOL     OW 6021   3.723   3.431   0.851
 2003SOL    HW1 6022   3.652   3.419   0.781
 2003SOL    HW2 6023   3.724   3.352   0.911
 2004SOL     OW 6024   2.083   3.176   1.844
 2004SOL    HW1 6025   2.018   3.103   1.823
 2004SOL    HW2 6026   2.087   3.190   1.942
 2005SOL     OW 6027   1.941   3.102   0.653
 2005SOL    HW1 6028   1.940   3.055   0.741
 2005SOL    HW2 6029   2.023   3.074   0.602
 2006SOL     OW 6030   2.534   3.253   1.624
 2006SOL    HW1 6031   2.456   3.203   1.662
 2006SOL    HW2 6032   2.531   3.348   1.655
 2007SOL     OW 6033   3.686   2.054   1.227
 2007SOL    HW1 6034   3.682   1.964   1.271
 2007SOL    HW2 6035   3.689   2.043   1.128
 2008SOL     OW 6036   2.290   2.286   0.520
 2008SOL    HW1 6037   2.320   2.214   0.458
 2008SOL    HW2 6038   2.251   2.246   0.603
 2009SOL     OW 6039   3.567   3.349   1.104
 2009SOL    HW1 6040   3.474   3.324   1.077
 2009SOL    HW2 6041   3.593   3.299   1.186
 2010SOL     OW 6042   2.179   2.409   1.280
 2010SOL    HW1 6043   2.217   2.350   1.352
 2010SOL    HW2 6044   2.219   2.383   1.192
 2011SOL     OW 6045   2.674   3.448   0.687
 2011SOL    HW1 6046   2.706   3.458   0.593
 2011SOL    HW2 6047   2.595   3.386   0.689
 2012SOL     OW 6048   3.286   2.076   1.112
 2012SOL    HW1 6049   3.338   2.011   1.167
 2012SOL    HW2 6050   3.237   2.139   1.173
 2013SOL     OW 6051   2.863   1.896   1.154
 2013SOL    HW1 6052   2.800   1.824   1.123
 2013SOL    HW2 6053   2.956   1.860   1.154
 2014SOL     OW 6054   2.632   3.192   0.301
 2014SOL    HW1 6055   2.586   3.105   0.318
 2014SOL    HW2 6056   2.723   3.189   0.342
 2015SOL     OW 6057   2.480   3.429   1.284
 2015SOL    HW1 6058   2.475   3.511   1.341
 2015SOL    HW2 6059   2.569   3.426   1.239
 2016SOL     OW 6060   3.214   1.914   0.168
 2016SOL    HW1 6061   3.249   1.873   0.084
 2016SOL    HW2 6062   3.124   1.876   0.188
 2017SOL     OW 6063   3.162   2.315   0.691
 2017SOL    HW1 6064   3.103   2.395   0.695
 2017SOL    HW2 6065   3.177   2.280   0.784
 2018SOL     OW 6066   3.455   2.083   0.882
 2018SOL    HW1 6067   3.371   2.082   0.936
 2018SOL    HW2 6068   3.457   2.166   0.826
 2019SOL     OW 6069   1.901   2.939   0.300
 2019SOL    HW1 6070   2.000   2.928   0.291
 2019SOL    HW2 6071   1.861   2.853   0.332
 2020SOL     OW 6072   2.737   3.508   0.337
 2020SOL    HW1 6073   2.660   3.473   0.283
 2020SOL    HW2 6074   2.705   3.579   0.399
 2021SOL     OW 6075   2.087   2.137   2.858
 2021SOL    HW1 6076   2.122   2.120   2.950
 2021SOL    HW2 6077   1.999   2.092   2.846
 2022SOL     OW 6078   1.881   2.230   2.509
 2022SOL    HW1 6079   1.799   2.273   2.548
 2022SOL    HW2 6080   1.853   2.157   2.446
 2023SOL     OW 6081   2.431   3.137   3.027
 2023SOL    HW1 6082   2.338   3.130   2.990
 2023SOL    HW2 6083   2.442   3.226   3.071
 2024SOL     OW 6084   3.417   3.373   2.565
 2024SOL    HW1 6085   3.360   3.357   2.646
 2024SOL    HW2 6086   3.358   3.383   2.485
 2025SOL     OW 6087   2.997   2.565   2.579
 2025SOL    HW1 6088   3.054   2.643   2.554
 2025SOL    HW2 6089   2.937   2.591   2.655
 2026SOL     OW 6090   3.617   2.469   2.093
 2026SOL    HW1 6091   3.605   2.456   1.994
 2026SOL    HW2 6092   3.587   2.388   2.142
 2027SOL     OW 6093   2.630   3.006   2.885
 2027SOL    HW1 6094   2.552   3.023   2.945
 2027SOL    HW2 6095   2.664   3.093   2.849
 2028SOL     OW 6096   2.712   2.660   3.685
 2028SOL    HW1 6097   2.708   2.736   3.750
 2028SOL    HW2 6098   2.734   2.696   3.594
 2029SOL     OW 6099   2.547   2.874   2.527
 2029SOL    HW1 6100   2.616   2.858   2.597
 2029SOL    HW2 6101   2.474   2.931   2.565
 2030SOL     OW 6102   2.548   3.023   3.665
 2030SOL    HW1 6103   2.608   3.102   3.679
 2030SOL    HW2 6104   2.462   3.054   3.624
 2031SOL     OW 6105   2.197   3.297   2.923
 2031SOL    HW1 6106   2.119   3.266   2.870
 2031SOL    HW2 6107   2.255   3.355   2.866
 2032SOL     OW 6108   3.322   3.367   3.201
 2032SOL    HW1 6109   3.346   3.461   3.227
 2032SOL    HW2 6110   3.306   3.313   3.283
 2033SOL     OW 6111   2.300   2.254   3.361
 2033SOL    HW1 6112   2.382   2.198   3.370
 2033SOL    HW2 6113   2.219   2.196   3.365
 2034SOL     OW 6114   3.465   2.309   2.599
 2034SOL    HW1 6115   3.391   2.355   2.549
 2034SOL    HW2 6116   3.516   2.377   2.652
 2035SOL     OW 6117   2.093   3.575   2.345
 2035SOL    HW1 6118   2.127   3.652   2.399
 2035SOL    HW2 6119   2.137   3.575   2.255
 2036SOL     OW 6120   2.989   3.203   3.552
 2036SOL    HW1 6121   3.036   3.203   3.640
 2036SOL    HW2 6122   2.941   3.116   3.541
 2037SOL     OW 6123   2.092   3.296   2.400
 2037SOL    HW1 6124   2.066   3.392   2.400
 2037SOL    HW2 6125   2.021   3.242   2.445
 2038SOL     OW 6126   2.102   2.953   2.748
 2038SOL    HW1 6127   2.116   2.869   2.800
 2038SOL    HW2 6128   2.047   3.017   2.803
 2039SOL     OW 6129   2.482   3.648   3.301
 2039SOL    HW1 6130   2.390   3.631   3.336
 2039SOL    HW2 6131   2.510   3.740   3.327
 2040SOL     OW 6132   2.468   2.826   1.985
 2040SOL    HW1 6133   2.475   2.910   1.931
 2040SOL    HW2 6134   2.514   2.839   2.073
 2041SOL     OW 6135   3.456   1.976   3.342
 2041SOL    HW1 6136   3.438   2.043   3.270
 2041SOL    HW2 6137   3.453   2.022   3.431
 2042SOL     OW 6138   3.704   3.629   2.221
 2042SOL    HW1 6139   3.758   3.600   2.301
 2042SOL    HW2 6140   3.734   3.719   2.192
 2043SOL     OW 6141   1.889   3.458   1.979
 2043SOL    HW1 6142   1.870   3.362   2.000
 2043SOL    HW2 6143   1.856   3.516   2.054
 2044SOL     OW 6144   3.551   2.784   2.474
 2044SOL    HW1 6145   3.646   2.755   2.482
 2044SOL    HW2 6146   3.543   2.849   2.399
 2045SOL     OW 6147   3.503   2.970   2.294
 2045SOL    HW1 6148   3.589   2.972   2.242
 2045SOL    HW2 6149   3.517   3.017   2.382
 2046SOL     OW 6150   1.975   2.599   3.459
 2046SOL    HW1 6151   2.063   2.586   3.504
 2046SOL    HW2 6152   1.962   2.696   3.437
 2047SOL     OW 6153   2.475   3.227   2.588
 2047SOL    HW1 6154   2.426   3.140   2.597
 2047SOL    HW2 6155   2.452   3.270   2.501
 2048SOL     OW 6156   3.155   3.090   3.285
 2048SOL    HW1 6157   3.192   3.017   3.227
 2048SOL    HW2 6158   3.207   3.095   3.370
 2049SOL     OW 6159   2.671   1.866   2.364
 2049SOL    HW1 6160   2.711   1.957   2.355
 2049SOL    HW2 6161   2.571   1.874   2.370
 2050SOL     OW 6162   2.059   2.838   3.126
 2050SOL    HW1 6163   2.148   2.793   3.112
 2050SOL    HW2 6164   1.986   2.773   3.107
 2051SOL     OW 6165   3.387   2.861   2.052
 2051SOL    HW1 6166   3.324   2.785   2.065
 2051SOL    HW2 6167   3.435   2.879   2.138
 2052SOL     OW 6168   3.049   3.654   3.478
 2052SOL    HW1 6169   3.073   3.714   3.402
 2052SOL    HW2 6170   3.056   3.559   3.448
 2053SOL     OW 6171   2.179   2.113   3.663
 2053SOL    HW1 6172   2.250   2.184   3.669
 2053SOL    HW2 6173   2.091   2.152   3.691
 2054SOL     OW 6174   3.328   3.279   2.815
 2054SOL    HW1 6175   3.269   3.285   2.895
 2054SOL    HW2 6176   3.313   3.191   2.769
 2055SOL     OW 6177   3.529   3.576   2.434
 2055SOL    HW1 6178   3.488   3.553   2.346
 2055SOL    HW2 6179   3.511   3.502   2.499
 2056SOL     OW 6180   2.460   2.591   2.132
 2056SOL    HW1 6181   2.484   2.660   2.064
 2056SOL    HW2 6182   2.382   2.624   2.186
 2057SOL     OW 6183   3.143   2.207   2.806
 2057SOL    HW1 6184   3.057   2.157   2.793
 2057SOL    HW2 6185   3.205   2.153   2.862
 2058SOL     OW 6186   3.438   3.524   2.169
 2058SOL    HW1 6187   3.527   3.570   2.172
 2058SOL    HW2 6188   3.417   3.500   2.074
 2059SOL     OW 6189   2.669   2.467   3.327
 2059SOL    HW1 6190   2.622   2.464   3.416
 2059SOL    HW2 6191   2.618   2.412   3.261
 2060SOL     OW 6192   3.256   2.331   3.536
 2060SOL    HW1 6193   3.236   2.374   3.624
 2060SOL    HW2 6194   3.334   2.269   3.545
 2061SOL     OW 6195   2.835   2.752   3.434
 2061SOL    HW1 6196   2.881   2.668   3.405
 2061SOL    HW2 6197   2.779   2.786   3.359
 2062SOL     OW 6198   2.853   2.272   3.104
 2062SOL    HW1 6199   2.776   2.306   3.158
 2062SOL    HW2 6200   2.819   2.221   3.025
 2063SOL     OW 6201   2.903   2.563   2.291
 2063SOL    HW1 6202   2.929   2.559   2.387
 2063SOL    HW2 6203   2.818   2.512   2.277
 2064SOL     OW 6204   1.938   2.673   2.651
 2064SOL    HW1 6205   2.037   2.661   2.660
 2064SOL    HW2 6206   1.914   2.768   2.672
 2065SOL     OW 6207   1.992   3.683   3.433
 2065SOL    HW1 6208   1.982   3.668   3.532
 2065SOL    HW2 6209   1.906   3.719   3.397
 2066SOL     OW 6210   2.727   2.210   2.057
 2066SOL    HW1 6211   2.786   2.273   2.008
 2066SOL    HW2 6212   2.746   2.116   2.028
 2067SOL     OW 6213   3.581   2.447   3.693
 2067SOL    HW1 6214   3.555   2.536   3.657
 2067SOL    HW2 6215   3.579   2.379   3.620
 2068SOL     OW 6216   3.224   3.006   2.407
 2068SOL    HW1 6217   3.307   2.977   2.359
 2068SOL    HW2 6218   3.175   3.073   2.351
 2069SOL     OW 6219   2.412   2.058   2.747
 2069SOL    HW1 6220   2.407   2.053   2.847
 2069SOL    HW2 6221   2.414   2.154   2.718
 2070SOL     OW 6222   2.870   3.318   2.339
 2070SOL    HW1 6223   2.824   3.390   2.287
 2070SOL    HW2 6224   2.866   3.338   2.437
 2071SOL     OW 6225   2.213   3.663   2.715
 2071SOL    HW1 6226   2.263   3.577   2.721
 2071SOL    HW2 6227   2.278   3.740   2.712
 2072SOL     OW 6228   3.657   2.928   2.735
 2072SOL    HW1 6229   3.595   2.913   2.659
 2072SOL    HW2 6230   3.605   2.939   2.820
 2073SOL     OW 6231   3.089   3.412   3.368
 2073SOL    HW1 6232   3.095   3.335   3.432
 2073SOL    HW2 6233   3.037   3.386   3.288
 2074SOL     OW 6234   2.183   2.805   2.104
 2074SOL    HW1 6235   2.265   2.844   2.062
 2074SOL    HW2 6236   2.156   2.723   2.055
 2075SOL     OW 6237   3.320   2.597   2.590
 2075SOL    HW1 6238   3.315   2.532   2.665
 2075SOL    HW2 6239   3.400   2.656   2.603
 2076SOL     OW 6240   2.323   3.128   3.589
 2076SOL    HW1 6241   2.273   3.129   3.503
 2076SOL    HW2 6242   2.260   3.110   3.665
 2077SOL     OW 6243   2.973   3.638   2.099
 2077SOL    HW1 6244   2.913   3.576   2.149
 2077SOL    HW2 6245   3.004   3.594   2.014
 2078SOL     OW 6246   2.064   2.147   3.360
 2078SOL    HW1 6247   1.984   2.207   3.347
 2078SOL    HW2 6248   2.054   2.098   3.446
 2079SOL     OW 6249   3.494   3.239   1.943
 2079SOL    HW1 6250   3.462   3.333   1.933
 2079SOL    HW2 6251   3.418   3.176   1.931
 2080SOL     OW 6252   2.326   3.605   2.185
 2080SOL    HW1 6253   2.359   3.644   2.271
 2080SOL    HW2 6254   2.402   3.598   2.120
 2081SOL     OW 6255   3.262   1.969   2.288
 2081SOL    HW1 6256   3.238   1.932   2.198
 2081SOL    HW2 6257   3.361   1.985   2.292
 2082SOL     OW 6258   2.111   3.647   3.103
 2082SOL    HW1 6259   2.168   3.582   3.153
 2082SOL    HW2 6260   2.095   3.614   3.010
 2083SOL     OW 6261   2.802   3.560   2.766
 2083SOL    HW1 6262   2.882   3.503   2.787
 2083SOL    HW2 6263   2.753   3.520   2.689
 2084SOL     OW 6264   3.409   2.084   3.591
 2084SOL    HW1 6265   3.404   2.121   3.683
 2084SOL    HW2 6266   3.337   2.015   3.579
 2085SOL     OW 6267   2.476   1.984   1.979
 2085SOL    HW1 6268   2.574   1.962   1.986
 2085SOL    HW2 6269   2.445   1.967   1.886
 2086SOL     OW 6270   2.643   2.126   3.611
 2086SOL    HW1 6271   2.710   2.065   3.654
 2086SOL    HW2 6272   2.570   2.145   3.676
 2087SOL     OW 6273   2.750   3.376   3.057
 2087SOL    HW1 6274   2.727   3.351   2.963
 2087SOL    HW2 6275   2.811   3.307   3.096
 2088SOL     OW 6276   3.213   2.452   3.295
 2088SOL    HW1 6277   3.241   2.409   3.380
 2088SOL    HW2 6278   3.238   2.548   3.296
 2089SOL     OW 6279   2.665   3.264   2.786
 2089SOL    HW1 6280   2.755   3.278   2.744
 2089SOL    HW2 6281   2.594   3.266   2.715
 2090SOL     OW 6282   2.784   2.365   2.761
 2090SOL    HW1 6283   2.759   2.356   2.665
 2090SOL    HW2 6284   2.832   2.283   2.792
 2091SOL     OW 6285   2.401   1.926   2.374
 2091SOL    HW1 6286   2.320   1.927   2.432
 2091SOL    HW2 6287   2.404   2.009   2.319
 2092SOL     OW 6288   3.296   3.050   1.903
 2092SOL    HW1 6289   3.328   2.974   1.960
 2092SOL    HW2 6290   3.204   3.077   1.933
 2093SOL     OW 6291   2.159   1.897   2.033
 2093SOL    HW1 6292   2.208   1.981   2.012
 2093SOL    HW2 6293   2.221   1.832   2.078
 2094SOL     OW 6294   2.797   2.098   2.342
 2094SOL    HW1 6295   2.749   2.139   2.264
 2094SOL    HW2 6296   2.896   2.096   2.323
 2095SOL     OW 6297   2.938   2.545   3.326
 2095SOL    HW1 6298   2.858   2.484   3.329
 2095SOL    HW2 6299   3.019   2.492   3.302
 2096SOL     OW 6300   3.089   3.432   2.655
 2096SOL    HW1 6301   3.110   3.506   2.590
 2096SOL    HW2 6302   3.157   3.432   2.728
 2097SOL     OW 6303   2.321   3.014   2.603
 2097SOL    HW1 6304   2.250   2.987   2.668
 2097SOL    HW2 6305   2.295   2.986   2.510
 2098SOL     OW 6306   3.133   3.659   2.453
 2098SOL    HW1 6307   3.177   3.723   2.389
 2098SOL    HW2 6308   3.083   3.711   2.523
 2099SOL     OW 6309   2.894   2.411   1.878
 2099SOL    HW1 6310   2.853   2.493   1.839
 2099SOL    HW2 6311   2.958   2.437   1.951
 2100SOL     OW 6312   1.940   2.418   3.248
 2100SOL    HW1 6313   2.032   2.417   3.207
 2100SOL    HW2 6314   1.934   2.492   3.315
 2101SOL     OW 6315   2.423   2.084   3.009
 2101SOL    HW1 6316   2.461   2.000   3.046
 2101SOL    HW2 6317   2.335   2.103   3.053
 2102SOL     OW 6318   2.728   2.316   2.504
 2102SOL    HW1 6319   2.696   2.388   2.442
 2102SOL    HW2 6320   2.752   2.235   2.451
 2103SOL     OW 6321   2.879   1.901   2.615
 2103SOL    HW1 6322   2.807   1.906   2.546
 2103SOL    HW2 6323   2.855   1.832   2.684
 2104SOL     OW 6324   3.291   3.035   2.729
 2104SOL    HW1 6325   3.236   2.951   2.722
 2104SOL    HW2 6326   3.317   3.064   2.637
 2105SOL     OW 6327   3.328   2.452   2.854
 2105SOL    HW1 6328   3.298   2.357   2.861
 2105SOL    HW2 6329   3.401   2.468   2.920
 2106SOL     OW 6330   3.719   2.695   2.239
 2106SOL    HW1 6331   3.761   2.631   2.303
 2106SOL    HW2 6332   3.681   2.644   2.161
 2107SOL     OW 6333   2.350   3.247   2.036
 2107SOL    HW1 6334   2.263   3.232   2.083
 2107SOL    HW2 6335   2.333   3.273   1.941
 2108SOL     OW 6336   3.526   3.142   2.519
 2108SOL    HW1 6337   3.625   3.150   2.533
 2108SOL    HW2 6338   3.481   3.226   2.550
 2109SOL     OW 6339   3.252   2.437   1.940
 2109SOL    HW1 6340   3.198   2.416   2.021
 2109SOL    HW2 6341   3.343   2.396   1.949
 2110SOL     OW 6342   3.616   3.085   3.450
 2110SOL    HW1 6343   3.707   3.046   3.437
 2110SOL    HW2 6344   3.624   3.181   3.474
 2111SOL     OW 6345   2.926   3.209   3.202
 2111SOL    HW1 6346   2.846   3.186   3.257
 2111SOL    HW2 6347   3.009   3.183   3.251
 2112SOL     OW 6348   3.454   3.491   3.487
 2112SOL    HW1 6349   3.481   3.525   3.397
 2112SOL    HW2 6350   3.533   3.453   3.533
 2113SOL     OW 6351   2.973   3.057   2.962
 2113SOL    HW1 6352   2.933   3.101   3.043
 2113SOL    HW2 6353   2.932   3.094   2.879
 2114SOL     OW 6354   3.500   2.961   2.941
 2114SOL    HW1 6355   3.505   3.042   3.000
 2114SOL    HW2 6356   3.414   2.963   2.890
 2115SOL     OW 6357   2.777   1.951   3.264
 2115SOL    HW1 6358   2.802   1.931   3.169
 2115SOL    HW2 6359   2.849   2.007   3.306
 2116SOL     OW 6360   2.842   2.978   3.581
 2116SOL    HW1 6361   2.743   2.984   3.591
 2116SOL    HW2 6362   2.865   2.898   3.525
 2117SOL     OW 6363   2.567   2.912   2.230
 2117SOL    HW1 6364   2.553   2.919   2.329
 2117SOL    HW2 6365   2.651   2.861   2.212
 2118SOL     OW 6366   2.272   2.675   3.113
 2118SOL    HW1 6367   2.358   2.687   3.163
 2118SOL    HW2 6368   2.230   2.588   3.140
 2119SOL     OW 6369   3.136   2.248   3.124
 2119SOL    HW1 6370   3.157   2.322   3.188
 2119SOL    HW2 6371   3.047   2.265   3.081
 2120SOL     OW 6372   1.926   3.426   3.193
 2120SOL    HW1 6373   1.880   3.508   3.159
 2120SOL    HW2 6374   2.024   3.445   3.202
 2121SOL     OW 6375   2.229   2.962   2.363
 2121SOL    HW1 6376   2.222   3.045   2.307
 2121SOL    HW2 6377   2.233   2.882   2.303
 2122SOL     OW 6378   2.428   2.399   2.727
 2122SOL    HW1 6379   2.440   2.465   2.653
 2122SOL    HW2 6380   2.474   2.433   2.810
 2123SOL     OW 6381   3.114   3.210   2.250
 2123SOL    HW1 6382   3.164   3.287   2.290
 2123SOL    HW2 6383   3.019   3.212   2.282
 2124SOL     OW 6384   3.134   3.307   3.004
 2124SOL    HW1 6385   3.181   3.320   3.091
 2124SOL    HW2 6386   3.068   3.233   3.013
 2125SOL     OW 6387   3.444   2.501   2.334
 2125SOL    HW1 6388   3.413   2.562   2.407
 2125SOL    HW2 6389   3.494   2.553   2.265
 2126SOL     OW 6390   2.216   3.372   3.191
 2126SOL    HW1 6391   2.195   3.328   3.104
 2126SOL    HW2 6392   2.313   3.398   3.194
 2127SOL     OW 6393   2.264   2.613   3.460
 2127SOL    HW1 6394   2.332   2.668   3.413
 2127SOL    HW2 6395   2.304   2.525   3.487
 2128SOL     OW 6396   3.449   2.641   3.532
 2128SOL    HW1 6397   3.357   2.679   3.527
 2128SOL    HW2 6398   3.509   2.688   3.467
 2129SOL     OW 6399   2.875   1.967   3.632
 2129SOL    HW1 6400   2.881   2.052   3.580
 2129SOL    HW2 6401   2.907   1.891   3.575
 2130SOL     OW 6402   2.366   1.912   3.602
 2130SOL    HW1 6403   2.324   1.855   3.532
 2130SOL    HW2 6404   2.300   1.981   3.634
 2131SOL     OW 6405   2.435   2.732   2.891
 2131SOL    HW1 6406   2.479   2.821   2.882
 2131SOL    HW2 6407   2.372   2.732   2.968
 2132SOL     OW 6408   3.222   2.724   2.907
 2132SOL    HW1 6409   3.147   2.724   2.841
 2132SOL    HW2 6410   3.259   2.632   2.916
 2133SOL     OW 6411   3.071   2.387   2.137
 2133SOL    HW1 6412   3.084   2.303   2.191
 2133SOL    HW2 6413   3.042   2.461   2.197
 2134SOL     OW 6414   2.169   2.075   3.093
 2134SOL    HW1 6415   2.146   2.112   3.183
 2134SOL    HW2 6416   2.139   1.980   3.087
 2135SOL     OW 6417   1.899   3.172   3.144
 2135SOL    HW1 6418   1.952   3.123   3.212
 2135SOL    HW2 6419   1.921   3.270   3.149
 2136SOL     OW 6420   2.594   2.496   2.926
 2136SOL    HW1 6421   2.653   2.470   2.850
 2136SOL    HW2 6422   2.566   2.592   2.915
 2137SOL     OW 6423   3.590   2.797   3.716
 2137SOL    HW1 6424   3.544   2.790   3.627
 2137SOL    HW2 6425   3.528   2.841   3.782
 2138SOL     OW 6426   2.169   1.925   2.480
 2138SOL    HW1 6427   2.158   2.019   2.513
 2138SOL    HW2 6428   2.164   1.862   2.557
 2139SOL     OW 6429   3.484   2.229   2.236
 2139SOL    HW1 6430   3.486   2.153   2.300
 2139SOL    HW2 6431   3.436   2.306   2.276
 2140SOL     OW 6432   2.885   2.628   2.828
 2140SOL    HW1 6433   2.900   2.649   2.924
 2140SOL    HW2 6434   2.855   2.533   2.819
 2141SOL     OW 6435   2.842   3.435   3.562
 2141SOL    HW1 6436   2.822   3.479   3.474
 2141SOL    HW2 6437   2.881   3.344   3.546
 2142SOL     OW 6438   3.721   3.380   3.467
 2142SOL    HW1 6439   3.735   3.407   3.372
 2142SOL    HW2 6440   3.804   3.402   3.520
 2143SOL     OW 6441   2.212   2.760   3.666
 2143SOL    HW1 6442   2.288   2.804   3.714
 2143SOL    HW2 6443   2.247   2.713   3.584
 2144SOL     OW 6444   3.402   2.136   1.987
 2144SOL    HW1 6445   3.341   2.061   2.010
 2144SOL    HW2 6446   3.424   2.188   2.070
 2145SOL     OW 6447   3.165   2.700   1.904
 2145SOL    HW1 6448   3.199   2.607   1.919
 2145SOL    HW2 6449   3.183   2.727   1.809
 2146SOL     OW 6450   2.930   3.195   2.711
 2146SOL    HW1 6451   2.937   3.111   2.656
 2146SOL    HW2 6452   2.992   3.264   2.675
 2147SOL     OW 6453   2.181   2.672   2.811
 2147SOL    HW1 6454   2.274   2.708   2.816
 2147SOL    HW2 6455   2.175   2.587   2.863
 2148SOL     OW 6456   2.201   2.371   2.868
 2148SOL    HW1 6457   2.149   2.288   2.851
 2148SOL    HW2 6458   2.278   2.376   2.804
 2149SOL     OW 6459   3.000   2.242   3.540
 2149SOL    HW1 6460   2.955   2.305   3.604
 2149SOL    HW2 6461   3.093   2.273   3.523
 2150SOL     OW 6462   3.022   2.069   3.339
 2150SOL    HW1 6463   3.022   2.133   3.416
 2150SOL    HW2 6464   3.050   2.117   3.256
 2151SOL     OW 6465   1.870   3.188   2.062
 2151SOL    HW1 6466   1.777   3.209   2.031
 2151SOL    HW2 6467   1.880   3.089   2.075
 2152SOL     OW 6468   1.950   3.663   2.789
 2152SOL    HW1 6469   1.908   3.577   2.762
 2152SOL    HW2 6470   2.044   3.666   2.755
 2153SOL     OW 6471   2.366   3.430   2.772
 2153SOL    HW1 6472   2.432   3.504   2.781
 2153SOL    HW2 6473   2.410   3.351   2.730
 2154SOL     OW 6474   2.864   2.658   3.100
 2154SOL    HW1 6475   2.905   2.626   3.186
 2154SOL    HW2 6476   2.768   2.631   3.097
 2155SOL     OW 6477   1.902   2.406   2.976
 2155SOL    HW1 6478   1.987   2.373   2.935
 2155SOL    HW2 6479   1.915   2.421   3.074
 2156SOL     OW 6480   2.051   2.382   3.584
 2156SOL    HW1 6481   2.110   2.342   3.514
 2156SOL    HW2 6482   1.993   2.453   3.543
 2157SOL     OW 6483   3.231   2.812   3.522
 2157SOL    HW1 6484   3.270   2.901   3.542
 2157SOL    HW2 6485   3.241   2.792   3.425
 2158SOL     OW 6486   2.677   2.434   2.187
 2158SOL    HW1 6487   2.684   2.345   2.141
 2158SOL    HW2 6488   2.583   2.468   2.179
 2159SOL     OW 6489   3.519   2.466   3.068
 2159SOL    HW1 6490   3.481   2.397   3.130
 2159SOL    HW2 6491   3.601   2.430   3.024
 2160SOL     OW 6492   2.114   3.426   3.606
 2160SOL    HW1 6493   2.084   3.483   3.682
 2160SOL    HW2 6494   2.107   3.329   3.632
 2161SOL     OW 6495   2.533   2.326   3.131
 2161SOL    HW1 6496   2.499   2.237   3.101
 2161SOL    HW2 6497   2.559   2.380   3.051
 2162SOL     OW 6498   2.792   3.540   3.327
 2162SOL    HW1 6499   2.768   3.522   3.232
 2162SOL    HW2 6500   2.822   3.634   3.337
 2163SOL     OW 6501   2.021   2.999   3.328
 2163SOL    HW1 6502   2.043   2.938   3.404
 2163SOL    HW2 6503   2.031   2.950   3.242
 2164SOL     OW 6504   3.209   2.921   3.096
 2164SOL    HW1 6505   3.233   2.858   3.022
 2164SOL    HW2 6506   3.119   2.961   3.078
 2165SOL     OW 6507   3.164   2.717   2.171
 2165SOL    HW1 6508   3.078   2.686   2.213
 2165SOL    HW2 6509   3.160   2.703   2.072
 2166SOL     OW 6510   3.621   3.609   3.016
 2166SOL    HW1 6511   3.682   3.639   2.943
 2166SOL    HW2 6512   3.583   3.520   2.994
 2167SOL     OW 6513   3.114   3.593   2.990
 2167SOL    HW1 6514   3.198   3.598   2.936
 2167SOL    HW2 6515   3.091   3.497   3.008
 2168SOL     OW 6516   1.945   3.120   2.884
 2168SOL    HW1 6517   1.940   3.119   2.984
 2168SOL    HW2 6518   1.862   3.079   2.846
 2169SOL     OW 6519   2.550   3.524   3.578
 2169SOL    HW1 6520   2.494   3.605   3.587
 2169SOL    HW2 6521   2.602   3.528   3.492
 2170SOL     OW 6522   3.588   1.997   2.385
 2170SOL    HW1 6523   3.661   1.980   2.318
 2170SOL    HW2 6524   3.557   1.910   2.423
 2171SOL     OW 6525   3.250   3.435   2.339
 2171SOL    HW1 6526   3.317   3.447   2.265
 2171SOL    HW2 6527   3.210   3.524   2.362
 2172SOL     OW 6528   1.992   3.656   3.713
 2172SOL    HW1 6529   1.951   3.582   3.766
 2172SOL    HW2 6530   2.056   3.707   3.771
 2173SOL     OW 6531   3.142   2.789   2.534
 2173SOL    HW1 6532   3.202   2.708   2.536
 2173SOL    HW2 6533   3.182   2.858   2.474
 2174SOL     OW 6534   2.692   3.135   3.284
 2174SOL    HW1 6535   2.687   3.168   3.379
 2174SOL    HW2 6536   2.606   3.154   3.238
 2175SOL     OW 6537   2.534   3.478   2.016
 2175SOL    HW1 6538   2.543   3.488   1.917
 2175SOL    HW2 6539   2.494   3.389   2.037
 2176SOL     OW 6540   3.512   3.582   3.256
 2176SOL    HW1 6541   3.565   3.592   3.172
 2176SOL    HW2 6542   3.485   3.672   3.290
 2177SOL     OW 6543   3.703   2.037   2.825
 2177SOL    HW1 6544   3.742   1.952   2.789
 2177SOL    HW2 6545   3.605   2.039   2.806
 2178SOL     OW 6546   2.125   2.188   2.582
 2178SOL    HW1 6547   2.046   2.239   2.548
 2178SOL    HW2 6548   2.116   2.173   2.680
 2179SOL     OW 6549   3.056   3.474   1.893
 2179SOL    HW1 6550   3.062   3.381   1.930
 2179SOL    HW2 6551   2.997   3.474   1.813
 2180SOL     OW 6552   2.684   2.864   3.234
 2180SOL    HW1 6553   2.724   2.863   3.142
 2180SOL    HW2 6554   2.694   2.956   3.274
 2181SOL     OW 6555   2.778   2.772   2.153
 2181SOL    HW1 6556   2.841   2.810   2.085
 2181SOL    HW2 6557   2.818   2.689   2.192
 2182SOL     OW 6558   3.366   3.469   1.906
 2182SOL    HW1 6559   3.274   3.506   1.913
 2182SOL    HW2 6560   3.404   3.489   1.816
 2183SOL     OW 6561   2.234   3.150   3.352
 2183SOL    HW1 6562   2.221   3.243   3.318
 2183SOL    HW2 6563   2.150   3.098   3.339
 2184SOL     OW 6564   3.476   3.154   3.151
 2184SOL    HW1 6565   3.536   3.157   3.231
 2184SOL    HW2 6566   3.401   3.218   3.164
 2185SOL     OW 6567   2.901   2.960   2.558
 2185SOL    HW1 6568   2.831   2.913   2.612
 2185SOL    HW2 6569   2.960   2.892   2.515
 2186SOL     OW 6570   2.876   2.098   2.833
 2186SOL    HW1 6571   2.868   2.062   2.740
 2186SOL    HW2 6572   2.874   2.022   2.898
 2187SOL     OW 6573   2.452   3.349   2.353
 2187SOL    HW1 6574   2.494   3.291   2.283
 2187SOL    HW2 6575   2.408   3.428   2.309
 2188SOL     OW 6576   3.571   2.247   3.243
 2188SOL    HW1 6577   3.644   2.316   3.247
 2188SOL    HW2 6578   3.599   2.172   3.184
 2189SOL     OW 6579   2.117   3.210   2.152
 2189SOL    HW1 6580   2.021   3.211   2.125
 2189SOL    HW2 6581   2.129   3.263   2.236
 2190SOL     OW 6582   1.967   2.875   3.588
 2190SOL    HW1 6583   1.890   2.842   3.642
 2190SOL    HW2 6584   2.052   2.845   3.630
 2191SOL     OW 6585   2.534   2.065   3.351
 2191SOL    HW1 6586   2.624   2.049   3.311
 2191SOL    HW2 6587   2.542   2.070   3.450
 2192SOL     OW 6588   1.937   2.207   1.895
 2192SOL    HW1 6589   1.845   2.179   1.866
 2192SOL    HW2 6590   1.968   2.284   1.839
 2193SOL     OW 6591   3.302   2.718   3.260
 2193SOL    HW1 6592   3.245   2.770   3.197
 2193SOL    HW2 6593   3.398   2.730   3.236
 2194SOL     OW 6594   1.934   2.028   2.180
 2194SOL    HW1 6595   1.917   2.111   2.126
 2194SOL    HW2 6596   2.024   1.991   2.158
 2195SOL     OW 6597   3.045   3.197   1.981
 2195SOL    HW1 6598   2.946   3.186   1.983
 2195SOL    HW2 6599   3.079   3.212   2.074
 2196SOL     OW 6600   2.475   2.704   3.293
 2196SOL    HW1 6601   2.531   2.785   3.276
 2196SOL    HW2 6602   2.534   2.624   3.296
 2197SOL     OW 6603   3.355   3.629   2.821
 2197SOL    HW1 6604   3.388   3.693   2.752
 2197SOL    HW2 6605   3.421   3.623   2.896
 2198SOL     OW 6606   2.578   2.427   3.570
 2198SOL    HW1 6607   2.597   2.492   3.644
 2198SOL    HW2 6608   2.638   2.347   3.579
 2199SOL     OW 6609   3.312   3.082   3.495
 2199SOL    HW1 6610   3.303   3.072   3.594
 2199SOL    HW2 6611   3.408   3.075   3.469
 2200SOL     OW 6612   2.252   3.603   3.422
 2200SOL    HW1 6613   2.161   3.644   3.420
 2200SOL    HW2 6614   2.245   3.509   3.454
 2201SOL     OW 6615   3.536   2.745   3.116
 2201SOL    HW1 6616   3.509   2.656   3.079
 2201SOL    HW2 6617   3.537   2.813   3.043
 2202SOL     OW 6618   3.087   2.187   2.311
 2202SOL    HW1 6619   3.152   2.113   2.300
 2202SOL    HW2 6620   3.107   2.237   2.395
 2203SOL     OW 6621   2.456   2.607   2.514
 2203SOL    HW1 6622   2.506   2.692   2.495
 2203SOL    HW2 6623   2.368   2.609   2.466
 2204SOL     OW 6624   3.639   2.204   3.504
 2204SOL    HW1 6625   3.622   2.235   3.410
 2204SOL    HW2 6626   3.555   2.167   3.542
 2205SOL     OW 6627   3.592   2.796   3.379
 2205SOL    HW1 6628   3.630   2.887   3.394
 2205SOL    HW2 6629   3.584   2.779   3.280
 2206SOL     OW 6630   2.721   3.236   1.878
 2206SOL    HW1 6631   2.675   3.251   1.966
 2206SOL    HW2 6632   2.765   3.321   1.848
 2207SOL     OW 6633   2.523   3.652   2.815
 2207SOL    HW1 6634   2.477   3.740   2.802
 2207SOL    HW2 6635   2.622   3.664   2.808
 2208SOL     OW 6636   2.721   2.818   2.723
 2208SOL    HW1 6637   2.775   2.749   2.771
 2208SOL    HW2 6638   2.689   2.887   2.789
 2209SOL     OW 6639   2.945   2.846   1.949
 2209SOL    HW1 6640   2.922   2.899   1.867
 2209SOL    HW2 6641   3.026   2.790   1.930
 2210SOL     OW 6642   3.723   3.431   2.713
 2210SOL    HW1 6643   3.652   3.419   2.643
 2210SOL    HW2 6644   3.724   3.352   2.773
 2211SOL     OW 6645   2.083   3.176   3.706
 2211SOL    HW1 6646   2.018   3.103   3.685
 2211SOL    HW2 6647   2.087   3.190   3.804
 2212SOL     OW 6648   1.941   3.102   2.515
 2212SOL    HW1 6649   1.940   3.055   2.603
 2212SOL    HW2 6650   2.023   3.074   2.464
 2213SOL     OW 6651   2.534   3.253   3.486
 2213SOL    HW1 6652   2.456   3.203   3.524
 2213SOL    HW2 6653   2.531   3.348   3.517
 2214SOL     OW 6654   3.686   2.054   3.089
 2214SOL    HW1 6655   3.682   1.964   3.133
 2214SOL    HW2 6656   3.689   2.043   2.990
 2215SOL     OW 6657   3.567   3.349   2.966
 2215SOL    HW1 6658   3.474   3.324   2.939
 2215SOL    HW2 6659   3.593   3.299   3.048
 2216SOL     OW 6660   2.179   2.409   3.142
 2216SOL    HW1 6661   2.217   2.350   3.214
 2216SOL    HW2 6662   2.219   2.383   3.054
 2217SOL     OW 6663   2.674   3.448   2.549
 2217SOL    HW1 6664   2.706   3.458   2.455
 2217SOL    HW2 6665   2.595   3.386   2.551
 2218SOL     OW 6666   3.286   2.076   2.974
 2218SOL    HW1 6667   3.338   2.011   3.029
 2218SOL    HW2 6668   3.237   2.139   3.035
 2219SOL     OW 6669   2.863   1.896   3.016
 2219SOL    HW1 6670   2.800   1.824   2.985
 2219SOL    HW2 6671   2.956   1.860   3.016
 2220SOL     OW 6672   2.632   3.192   2.163
 2220SOL    HW1 6673   2.586   3.105   2.180
 2220SOL    HW2 6674   2.723   3.189   2.204
 2221SOL     OW 6675   2.480   3.429   3.146
 2221SOL    HW1 6676   2.475   3.511   3.203
 2221SOL    HW2 6677   2.569   3.426   3.101
 2222SOL     OW 6678   3.214   1.914   2.030
 2222SOL    HW1 6679   3.249   1.873   1.946
 2222SOL    HW2 6680   3.124   1.876   2.050
 2223SOL     OW 6681   3.162   2.315   2.553
 2223SOL    HW1 6682   3.103   2.395   2.557
 2223SOL    HW2 6683   3.177   2.280   2.646
 2224SOL     OW 6684   3.455   2.083   2.744
 2224SOL    HW1 6685   3.371   2.082   2.798
 2224SOL    HW2 6686   3.457   2.166   2.688
 2225SOL     OW 6687   1.901   2.939   2.162
 2225SOL    HW1 6688   2.000   2.928   2.153
 2225SOL    HW2 6689   1.861   2.853   2.194
 2226SOL     OW 6690   2.737   3.508   2.199
 2226SOL    HW1 6691   2.660   3.473   2.145
 2226SOL    HW2 6692   2.705   3.579   2.261
 2227SOL     OW 6693   2.092   2.490   3.837
 2227SOL    HW1 6694   1.999   2.488   3.874
 2227SOL    HW2 6695   2.093   2.451   3.745
 2228SOL     OW 6696   2.087   2.137   4.720
 2228SOL    HW1 6697   2.122   2.120   4.812
 2228SOL    HW2 6698   1.999   2.092   4.708
 2229SOL     OW 6699   1.881   2.230   4.371
 2229SOL    HW1 6700   1.799   2.273   4.410
 2229SOL    HW2 6701   1.853   2.157   4.308
 2230SOL     OW 6702   3.417   3.373   4.427
 2230SOL    HW1 6703   3.360   3.357   4.508
 2230SOL    HW2 6704   3.358   3.383   4.347
 2231SOL     OW 6705   2.997   2.565   4.441
 2231SOL    HW1 6706   3.054   2.643   4.416
 2231SOL    HW2 6707   2.937   2.591   4.517
 2232SOL     OW 6708   3.617   2.469   3.955
 2232SOL    HW1 6709   3.605   2.456   3.856
 2232SOL    HW2 6710   3.587   2.388   4.004
 2233SOL     OW 6711   2.547   2.874   4.389
 2233SOL    HW1 6712   2.616   2.858   4.459
 2233SOL    HW2 6713   2.474   2.931   4.427
 2234SOL     OW 6714   3.465   2.309   4.461
 2234SOL    HW1 6715   3.391   2.355   4.411
 2234SOL    HW2 6716   3.516   2.377   4.514
 2235SOL     OW 6717   2.093   3.575   4.207
 2235SOL    HW1 6718   2.127   3.652   4.261
 2235SOL    HW2 6719   2.137   3.575   4.117
 2236SOL     OW 6720   2.092   3.296   4.262
 2236SOL    HW1 6721   2.066   3.392   4.262
 2236SOL    HW2 6722   2.021   3.242   4.307
 2237SOL     OW 6723   2.102   2.953   4.610
 2237SOL    HW1 6724   2.116   2.869   4.662
 2237SOL    HW2 6725   2.047   3.017   4.665
 2238SOL     OW 6726   2.468   2.826   3.847
 2238SOL    HW1 6727   2.475   2.910   3.793
 2238SOL    HW2 6728   2.514   2.839   3.935
 2239SOL     OW 6729   1.984   2.505   4.287
 2239SOL    HW1 6730   1.939   2.417   4.304
 2239SOL    HW2 6731   1.983   2.559   4.371
 2240SOL     OW 6732   3.704   3.629   4.083
 2240SOL    HW1 6733   3.758   3.600   4.163
 2240SOL    HW2 6734   3.734   3.719   4.054
 2241SOL     OW 6735   1.889   3.458   3.841
 2241SOL    HW1 6736   1.870   3.362   3.862
 2241SOL    HW2 6737   1.856   3.516   3.916
 2242SOL     OW 6738   3.551   2.784   4.336
 2242SOL    HW1 6739   3.646   2.755   4.344
 2242SOL    HW2 6740   3.543   2.849   4.261
 2243SOL     OW 6741   3.503   2.970   4.156
 2243SOL    HW1 6742   3.589   2.972   4.104
 2243SOL    HW2 6743   3.517   3.017   4.244
 2244SOL     OW 6744   2.475   3.227   4.450
 2244SOL    HW1 6745   2.426   3.140   4.459
 2244SOL    HW2 6746   2.452   3.270   4.363
 2245SOL     OW 6747   2.671   1.866   4.226
 2245SOL    HW1 6748   2.711   1.957   4.217
 2245SOL    HW2 6749   2.571   1.874   4.232
 2246SOL     OW 6750   3.387   2.861   3.914
 2246SOL    HW1 6751   3.324   2.785   3.927
 2246SOL    HW2 6752   3.435   2.879   4.000
 2247SOL     OW 6753   3.529   3.576   4.296
 2247SOL    HW1 6754   3.488   3.553   4.208
 2247SOL    HW2 6755   3.511   3.502   4.361
 2248SOL     OW 6756   2.460   2.591   3.994
 2248SOL    HW1 6757   2.484   2.660   3.926
 2248SOL    HW2 6758   2.382   2.624   4.048
 2249SOL     OW 6759   3.143   2.207   4.668
 2249SOL    HW1 6760   3.057   2.157   4.655
 2249SOL    HW2 6761   3.205   2.153   4.724
 2250SOL     OW 6762   3.438   3.524   4.031
 2250SOL    HW1 6763   3.527   3.570   4.034
 2250SOL    HW2 6764   3.417   3.500   3.936
 2251SOL     OW 6765   2.903   2.563   4.153
 2251SOL    HW1 6766   2.929   2.559   4.249
 2251SOL    HW2 6767   2.818   2.512   4.139
 2252SOL     OW 6768   1.938   2.673   4.513
 2252SOL    HW1 6769   2.037   2.661   4.522
 2252SOL    HW2 6770   1.914   2.768   4.534
 2253SOL     OW 6771   2.727   2.210   3.919
 2253SOL    HW1 6772   2.786   2.273   3.870
 2253SOL    HW2 6773   2.746   2.116   3.890
 2254SOL     OW 6774   3.224   3.006   4.269
 2254SOL    HW1 6775   3.307   2.977   4.221
 2254SOL    HW2 6776   3.175   3.073   4.213
 2255SOL     OW 6777   2.870   3.318   4.201
 2255SOL    HW1 6778   2.824   3.390   4.149
 2255SOL    HW2 6779   2.866   3.338   4.299
 2256SOL     OW 6780   2.213   3.663   4.577
 2256SOL    HW1 6781   2.263   3.577   4.583
 2256SOL    HW2 6782   2.278   3.740   4.574
 2257SOL     OW 6783   3.657   2.928   4.597
 2257SOL    HW1 6784   3.595   2.913   4.521
 2257SOL    HW2 6785   3.605   2.939   4.682
 2258SOL     OW 6786   2.183   2.805   3.966
 2258SOL    HW1 6787   2.265   2.844   3.924
 2258SOL    HW2 6788   2.156   2.723   3.917
 2259SOL     OW 6789   3.320   2.597   4.452
 2259SOL    HW1 6790   3.315   2.532   4.527
 2259SOL    HW2 6791   3.400   2.656   4.465
 2260SOL     OW 6792   2.973   3.638   3.961
 2260SOL    HW1 6793   2.913   3.576   4.011
 2260SOL    HW2 6794   3.004   3.594   3.876
 2261SOL     OW 6795   3.494   3.239   3.805
 2261SOL    HW1 6796   3.462   3.333   3.795
 2261SOL    HW2 6797   3.418   3.176   3.793
 2262SOL     OW 6798   2.326   3.605   4.047
 2262SOL    HW1 6799   2.359   3.644   4.133
 2262SOL    HW2 6800   2.402   3.598   3.982
 2263SOL     OW 6801   3.262   1.969   4.150
 2263SOL    HW1 6802   3.238   1.932   4.060
 2263SOL    HW2 6803   3.361   1.985   4.154
 2264SOL     OW 6804   2.802   3.560   4.628
 2264SOL    HW1 6805   2.882   3.503   4.649
 2264SOL    HW2 6806   2.753   3.520   4.551
 2265SOL     OW 6807   2.244   2.562   4.204
 2265SOL    HW1 6808   2.289   2.472   4.201
 2265SOL    HW2 6809   2.150   2.551   4.237
 2266SOL     OW 6810   2.476   1.984   3.841
 2266SOL    HW1 6811   2.574   1.962   3.848
 2266SOL    HW2 6812   2.445   1.967   3.748
 2267SOL     OW 6813   2.401   1.926   4.236
 2267SOL    HW1 6814   2.320   1.927   4.294
 2267SOL    HW2 6815   2.404   2.009   4.181
 2268SOL     OW 6816   3.296   3.050   3.765
 2268SOL    HW1 6817   3.328   2.974   3.822
 2268SOL    HW2 6818   3.204   3.077   3.795
 2269SOL     OW 6819   2.159   1.897   3.895
 2269SOL    HW1 6820   2.208   1.981   3.874
 2269SOL    HW2 6821   2.221   1.832   3.940
 2270SOL     OW 6822   2.797   2.098   4.204
 2270SOL    HW1 6823   2.749   2.139   4.126
 2270SOL    HW2 6824   2.896   2.096   4.185
 2271SOL     OW 6825   2.321   3.014   4.465
 2271SOL    HW1 6826   2.250   2.987   4.530
 2271SOL    HW2 6827   2.295   2.986   4.372
 2272SOL     OW 6828   3.133   3.659   4.315
 2272SOL    HW1 6829   3.177   3.723   4.251
 2272SOL    HW2 6830   3.083   3.711   4.385
 2273SOL     OW 6831   2.894   2.411   3.740
 2273SOL    HW1 6832   2.853   2.493   3.701
 2273SOL    HW2 6833   2.958   2.437   3.813
 2274SOL     OW 6834   2.728   2.316   4.366
 2274SOL    HW1 6835   2.696   2.388   4.304
 2274SOL    HW2 6836   2.752   2.235   4.313
 2275SOL     OW 6837   2.879   1.901   4.477
 2275SOL    HW1 6838   2.807   1.906   4.408
 2275SOL    HW2 6839   2.855   1.832   4.546
 2276SOL     OW 6840   3.719   2.695   4.101
 2276SOL    HW1 6841   3.761   2.631   4.165
 2276SOL    HW2 6842   3.681   2.644   4.023
 2277SOL     OW 6843   2.350   3.247   3.898
 2277SOL    HW1 6844   2.263   3.232   3.945
 2277SOL    HW2 6845   2.333   3.273   3.803
 2278SOL     OW 6846   3.526   3.142   4.381
 2278SOL    HW1 6847   3.625   3.150   4.395
 2278SOL    HW2 6848   3.481   3.226   4.412
 2279SOL     OW 6849   3.252   2.437   3.802
 2279SOL    HW1 6850   3.198   2.416   3.883
 2279SOL    HW2 6851   3.343   2.396   3.811
 2280SOL     OW 6852   2.389   2.118   4.052
 2280SOL    HW1 6853   2.416   2.059   3.977
 2280SOL    HW2 6854   2.389   2.213   4.021
 2281SOL     OW 6855   2.567   2.912   4.092
 2281SOL    HW1 6856   2.553   2.919   4.191
 2281SOL    HW2 6857   2.651   2.861   4.074
 2282SOL     OW 6858   2.229   2.962   4.225
 2282SOL    HW1 6859   2.222   3.045   4.169
 2282SOL    HW2 6860   2.233   2.882   4.165
 2283SOL     OW 6861   3.114   3.210   4.112
 2283SOL    HW1 6862   3.164   3.287   4.152
 2283SOL    HW2 6863   3.019   3.212   4.144
 2284SOL     OW 6864   3.444   2.501   4.196
 2284SOL    HW1 6865   3.413   2.562   4.269
 2284SOL    HW2 6866   3.494   2.553   4.127
 2285SOL     OW 6867   3.071   2.387   3.999
 2285SOL    HW1 6868   3.084   2.303   4.053
 2285SOL    HW2 6869   3.042   2.461   4.059
 2286SOL     OW 6870   2.169   1.925   4.342
 2286SOL    HW1 6871   2.158   2.019   4.375
 2286SOL    HW2 6872   2.164   1.862   4.419
 2287SOL     OW 6873   3.484   2.229   4.098
 2287SOL    HW1 6874   3.486   2.153   4.162
 2287SOL    HW2 6875   3.436   2.306   4.138
 2288SOL     OW 6876   3.402   2.136   3.849
 2288SOL    HW1 6877   3.341   2.061   3.872
 2288SOL    HW2 6878   3.424   2.188   3.932
 2289SOL     OW 6879   3.165   2.700   3.766
 2289SOL    HW1 6880   3.199   2.607   3.781
 2289SOL    HW2 6881   3.183   2.727   3.671
 2290SOL     OW 6882   1.870   3.188   3.924
 2290SOL    HW1 6883   1.777   3.209   3.893
 2290SOL    HW2 6884   1.880   3.089   3.937
 2291SOL     OW 6885   2.677   2.434   4.049
 2291SOL    HW1 6886   2.684   2.345   4.003
 2291SOL    HW2 6887   2.583   2.468   4.041
 2292SOL     OW 6888   2.335   2.362   3.915
 2292SOL    HW1 6889   2.396   2.442   3.919
 2292SOL    HW2 6890   2.240   2.393   3.922
 2293SOL     OW 6891   3.164   2.717   4.033
 2293SOL    HW1 6892   3.078   2.686   4.075
 2293SOL    HW2 6893   3.160   2.703   3.934
 2294SOL     OW 6894   3.588   1.997   4.247
 2294SOL    HW1 6895   3.661   1.980   4.180
 2294SOL    HW2 6896   3.557   1.910   4.285
 2295SOL     OW 6897   3.250   3.435   4.201
 2295SOL    HW1 6898   3.317   3.447   4.127
 2295SOL    HW2 6899   3.210   3.524   4.224
 2296SOL     OW 6900   3.142   2.789   4.396
 2296SOL    HW1 6901   3.202   2.708   4.398
 2296SOL    HW2 6902   3.182   2.858   4.336
 2297SOL     OW 6903   2.534   3.478   3.878
 2297SOL    HW1 6904   2.543   3.488   3.779
 2297SOL    HW2 6905   2.494   3.389   3.899
 2298SOL     OW 6906   3.703   2.037   4.687
 2298SOL    HW1 6907   3.742   1.952   4.651
 2298SOL    HW2 6908   3.605   2.039   4.668
 2299SOL     OW 6909   2.125   2.188   4.444
 2299SOL    HW1 6910   2.046   2.239   4.410
 2299SOL    HW2 6911   2.116   2.173   4.542
 2300SOL     OW 6912   3.056   3.474   3.755
 2300SOL    HW1 6913   3.062   3.381   3.792
 2300SOL    HW2 6914   2.997   3.474   3.675
 2301SOL     OW 6915   2.778   2.772   4.015
 2301SOL    HW1 6916   2.841   2.810   3.947
 2301SOL    HW2 6917   2.818   2.689   4.054
 2302SOL     OW 6918   3.366   3.469   3.768
 2302SOL    HW1 6919   3.274   3.506   3.775
 2302SOL    HW2 6920   3.404   3.489   3.678
 2303SOL     OW 6921   2.901   2.960   4.420
 2303SOL    HW1 6922   2.831   2.913   4.474
 2303SOL    HW2 6923   2.960   2.892   4.377
 2304SOL     OW 6924   2.452   3.349   4.215
 2304SOL    HW1 6925   2.494   3.291   4.145
 2304SOL    HW2 6926   2.408   3.428   4.171
 2305SOL     OW 6927   2.117   3.210   4.014
 2305SOL    HW1 6928   2.021   3.211   3.987
 2305SOL    HW2 6929   2.129   3.263   4.098
 2306SOL     OW 6930   1.937   2.207   3.757
 2306SOL    HW1 6931   1.845   2.179   3.728
 2306SOL    HW2 6932   1.968   2.284   3.701
 2307SOL     OW 6933   1.934   2.028   4.042
 2307SOL    HW1 6934   1.917   2.111   3.988
 2307SOL    HW2 6935   2.024   1.991   4.020
 2308SOL     OW 6936   3.045   3.197   3.843
 2308SOL    HW1 6937   2.946   3.186   3.845
 2308SOL    HW2 6938   3.079   3.212   3.936
 2309SOL     OW 6939   3.087   2.187   4.173
 2309SOL    HW1 6940   3.152   2.113   4.162
 2309SOL    HW2 6941   3.107   2.237   4.257
 2310SOL     OW 6942   2.456   2.607   4.376
 2310SOL    HW1 6943   2.506   2.692   4.357
 2310SOL    HW2 6944   2.368   2.609   4.328
 2311SOL     OW 6945   2.721   3.236   3.740
 2311SOL    HW1 6946   2.675   3.251   3.828
 2311SOL    HW2 6947   2.765   3.321   3.710
 2312SOL     OW 6948   2.523   3.652   4.677
 2312SOL    HW1 6949   2.477   3.740   4.664
 2312SOL    HW2 6950   2.622   3.664   4.670
 2313SOL     OW 6951   2.721   2.818   4.585
 2313SOL    HW1 6952   2.775   2.749   4.633
 2313SOL    HW2 6953   2.689   2.887   4.651
 2314SOL     OW 6954   2.945   2.846   3.811
 2314SOL    HW1 6955   2.922   2.899   3.729
 2314SOL    HW2 6956   3.026   2.790   3.792
 2315SOL     OW 6957   1.941   3.102   4.377
 2315SOL    HW1 6958   1.940   3.055   4.465
 2315SOL    HW2 6959   2.023   3.074   4.326
 2316SOL     OW 6960   2.290   2.286   4.244
 2316SOL    HW1 6961   2.320   2.214   4.182
 2316SOL    HW2 6962   2.251   2.246   4.327
 2317SOL     OW 6963   3.567   3.349   4.828
 2317SOL    HW1 6964   3.474   3.324   4.801
 2317SOL    HW2 6965   3.593   3.299   4.910
 2318SOL     OW 6966   2.674   3.448   4.411
 2318SOL    HW1 6967   2.706   3.458   4.317
 2318SOL    HW2 6968   2.595   3.386   4.413
 2319SOL     OW 6969   2.632   3.192   4.025
 2319SOL    HW1 6970   2.586   3.105   4.042
 2319SOL    HW2 6971   2.723   3.189   4.066
 2320SOL     OW 6972   3.214   1.914   3.892
 2320SOL    HW1 6973   3.249   1.873   3.808
 2320SOL    HW2 6974   3.124   1.876   3.912
 2321SOL     OW 6975   3.162   2.315   4.415
 2321SOL    HW1 6976   3.103   2.395   4.419
 2321SOL    HW2 6977   3.177   2.280   4.508
 2322SOL     OW 6978   1.901   2.939   4.024
 2322SOL    HW1 6979   2.000   2.928   4.015
 2322SOL    HW2 6980   1.861   2.853   4.056
 2323SOL     OW 6981   2.737   3.508   4.061
 2323SOL    HW1 6982   2.660   3.473   4.007
 2323SOL    HW2 6983   2.705   3.579   4.123
 2324SOL     OW 6984   2.092   4.352   0.113
 2324SOL    HW1 6985   1.999   4.350   0.150
 2324SOL    HW2 6986   2.093   4.313   0.021
 2325SOL     OW 6987   2.087   3.999   0.996
 2325SOL    HW1 6988   2.122   3.982   1.088
 2325SOL    HW2 6989   1.999   3.954   0.984
 2326SOL     OW 6990   1.881   4.092   0.647
 2326SOL    HW1 6991   1.799   4.135   0.686
 2326SOL    HW2 6992   1.853   4.019   0.584
 2327SOL     OW 6993   3.617   4.331   0.231
 2327SOL    HW1 6994   3.605   4.318   0.132
 2327SOL    HW2 6995   3.587   4.250   0.280
 2328SOL     OW 6996   2.712   4.522   1.823
 2328SOL    HW1 6997   2.708   4.598   1.888
 2328SOL    HW2 6998   2.734   4.558   1.732
 2329SOL     OW 6999   2.547   4.736   0.665
 2329SOL    HW1 7000   2.616   4.720   0.735
 2329SOL    HW2 7001   2.474   4.793   0.703
 2330SOL     OW 7002   2.300   4.116   1.499
 2330SOL    HW1 7003   2.382   4.060   1.508
 2330SOL    HW2 7004   2.219   4.058   1.503
 2331SOL     OW 7005   3.465   4.171   0.737
 2331SOL    HW1 7006   3.391   4.217   0.687
 2331SOL    HW2 7007   3.516   4.239   0.790
 2332SOL     OW 7008   3.456   3.838   1.480
 2332SOL    HW1 7009   3.438   3.905   1.408
 2332SOL    HW2 7010   3.453   3.884   1.569
 2333SOL     OW 7011   1.984   4.367   0.563
 2333SOL    HW1 7012   1.939   4.279   0.580
 2333SOL    HW2 7013   1.983   4.421   0.647
 2334SOL     OW 7014   1.975   4.461   1.597
 2334SOL    HW1 7015   2.063   4.448   1.642
 2334SOL    HW2 7016   1.962   4.558   1.575
 2335SOL     OW 7017   2.671   3.728   0.502
 2335SOL    HW1 7018   2.711   3.819   0.493
 2335SOL    HW2 7019   2.571   3.736   0.508
 2336SOL     OW 7020   2.179   3.975   1.801
 2336SOL    HW1 7021   2.250   4.046   1.807
 2336SOL    HW2 7022   2.091   4.014   1.829
 2337SOL     OW 7023   2.460   4.453   0.270
 2337SOL    HW1 7024   2.484   4.522   0.202
 2337SOL    HW2 7025   2.382   4.486   0.324
 2338SOL     OW 7026   3.143   4.069   0.944
 2338SOL    HW1 7027   3.057   4.019   0.931
 2338SOL    HW2 7028   3.205   4.015   1.000
 2339SOL     OW 7029   2.669   4.329   1.465
 2339SOL    HW1 7030   2.622   4.326   1.554
 2339SOL    HW2 7031   2.618   4.274   1.399
 2340SOL     OW 7032   3.256   4.193   1.674
 2340SOL    HW1 7033   3.236   4.236   1.762
 2340SOL    HW2 7034   3.334   4.131   1.683
 2341SOL     OW 7035   2.853   4.134   1.242
 2341SOL    HW1 7036   2.776   4.168   1.296
 2341SOL    HW2 7037   2.819   4.083   1.163
 2342SOL     OW 7038   2.903   4.425   0.429
 2342SOL    HW1 7039   2.929   4.421   0.525
 2342SOL    HW2 7040   2.818   4.374   0.415
 2343SOL     OW 7041   2.727   4.072   0.195
 2343SOL    HW1 7042   2.786   4.135   0.146
 2343SOL    HW2 7043   2.746   3.978   0.166
 2344SOL     OW 7044   3.581   4.309   1.831
 2344SOL    HW1 7045   3.555   4.398   1.795
 2344SOL    HW2 7046   3.579   4.241   1.758
 2345SOL     OW 7047   2.412   3.920   0.885
 2345SOL    HW1 7048   2.407   3.915   0.985
 2345SOL    HW2 7049   2.414   4.016   0.856
 2346SOL     OW 7050   3.320   4.459   0.728
 2346SOL    HW1 7051   3.315   4.394   0.803
 2346SOL    HW2 7052   3.400   4.518   0.741
 2347SOL     OW 7053   2.064   4.009   1.498
 2347SOL    HW1 7054   1.984   4.069   1.485
 2347SOL    HW2 7055   2.054   3.960   1.584
 2348SOL     OW 7056   3.262   3.831   0.426
 2348SOL    HW1 7057   3.238   3.794   0.336
 2348SOL    HW2 7058   3.361   3.847   0.430
 2349SOL     OW 7059   2.244   4.424   0.480
 2349SOL    HW1 7060   2.289   4.334   0.477
 2349SOL    HW2 7061   2.150   4.413   0.513
 2350SOL     OW 7062   3.409   3.946   1.729
 2350SOL    HW1 7063   3.404   3.983   1.821
 2350SOL    HW2 7064   3.337   3.877   1.717
 2351SOL     OW 7065   2.643   3.988   1.749
 2351SOL    HW1 7066   2.710   3.927   1.792
 2351SOL    HW2 7067   2.570   4.007   1.814
 2352SOL     OW 7068   3.213   4.314   1.433
 2352SOL    HW1 7069   3.241   4.271   1.518
 2352SOL    HW2 7070   3.238   4.410   1.434
 2353SOL     OW 7071   2.784   4.227   0.899
 2353SOL    HW1 7072   2.759   4.218   0.803
 2353SOL    HW2 7073   2.832   4.145   0.930
 2354SOL     OW 7074   2.401   3.788   0.512
 2354SOL    HW1 7075   2.320   3.789   0.570
 2354SOL    HW2 7076   2.404   3.871   0.457
 2355SOL     OW 7077   2.159   3.759   0.171
 2355SOL    HW1 7078   2.208   3.843   0.150
 2355SOL    HW2 7079   2.221   3.694   0.216
 2356SOL     OW 7080   2.797   3.960   0.480
 2356SOL    HW1 7081   2.749   4.001   0.402
 2356SOL    HW2 7082   2.896   3.958   0.461
 2357SOL     OW 7083   2.938   4.407   1.464
 2357SOL    HW1 7084   2.858   4.346   1.467
 2357SOL    HW2 7085   3.019   4.354   1.440
 2358SOL     OW 7086   2.894   4.273   0.016
 2358SOL    HW1 7087   2.853   4.355  -0.023
 2358SOL    HW2 7088   2.958   4.299   0.089
 2359SOL     OW 7089   1.940   4.280   1.386
 2359SOL    HW1 7090   2.032   4.279   1.345
 2359SOL    HW2 7091   1.934   4.354   1.453
 2360SOL     OW 7092   2.423   3.946   1.147
 2360SOL    HW1 7093   2.461   3.862   1.184
 2360SOL    HW2 7094   2.335   3.965   1.191
 2361SOL     OW 7095   2.728   4.178   0.642
 2361SOL    HW1 7096   2.696   4.250   0.580
 2361SOL    HW2 7097   2.752   4.097   0.589
 2362SOL     OW 7098   2.879   3.763   0.753
 2362SOL    HW1 7099   2.807   3.768   0.684
 2362SOL    HW2 7100   2.855   3.694   0.822
 2363SOL     OW 7101   3.328   4.314   0.992
 2363SOL    HW1 7102   3.298   4.219   0.999
 2363SOL    HW2 7103   3.401   4.330   1.058
 2364SOL     OW 7104   3.719   4.557   0.377
 2364SOL    HW1 7105   3.761   4.493   0.441
 2364SOL    HW2 7106   3.681   4.506   0.299
 2365SOL     OW 7107   3.252   4.299   0.078
 2365SOL    HW1 7108   3.198   4.278   0.159
 2365SOL    HW2 7109   3.343   4.258   0.087
 2366SOL     OW 7110   2.389   3.980   0.328
 2366SOL    HW1 7111   2.416   3.921   0.253
 2366SOL    HW2 7112   2.389   4.075   0.297
 2367SOL     OW 7113   2.777   3.813   1.402
 2367SOL    HW1 7114   2.802   3.793   1.307
 2367SOL    HW2 7115   2.849   3.869   1.444
 2368SOL     OW 7116   2.567   4.774   0.368
 2368SOL    HW1 7117   2.553   4.781   0.467
 2368SOL    HW2 7118   2.651   4.723   0.350
 2369SOL     OW 7119   2.272   4.537   1.251
 2369SOL    HW1 7120   2.358   4.549   1.301
 2369SOL    HW2 7121   2.230   4.450   1.278
 2370SOL     OW 7122   3.136   4.110   1.262
 2370SOL    HW1 7123   3.157   4.184   1.326
 2370SOL    HW2 7124   3.047   4.127   1.219
 2371SOL     OW 7125   2.428   4.261   0.865
 2371SOL    HW1 7126   2.440   4.327   0.791
 2371SOL    HW2 7127   2.474   4.295   0.948
 2372SOL     OW 7128   3.444   4.363   0.472
 2372SOL    HW1 7129   3.413   4.424   0.545
 2372SOL    HW2 7130   3.494   4.415   0.403
 2373SOL     OW 7131   3.449   4.503   1.670
 2373SOL    HW1 7132   3.357   4.541   1.665
 2373SOL    HW2 7133   3.509   4.550   1.605
 2374SOL     OW 7134   2.875   3.829   1.770
 2374SOL    HW1 7135   2.881   3.914   1.718
 2374SOL    HW2 7136   2.907   3.753   1.713
 2375SOL     OW 7137   2.366   3.774   1.740
 2375SOL    HW1 7138   2.324   3.717   1.670
 2375SOL    HW2 7139   2.300   3.843   1.772
 2376SOL     OW 7140   3.222   4.586   1.045
 2376SOL    HW1 7141   3.147   4.586   0.979
 2376SOL    HW2 7142   3.259   4.494   1.054
 2377SOL     OW 7143   3.071   4.249   0.275
 2377SOL    HW1 7144   3.084   4.165   0.329
 2377SOL    HW2 7145   3.042   4.323   0.335
 2378SOL     OW 7146   2.169   3.937   1.231
 2378SOL    HW1 7147   2.146   3.974   1.321
 2378SOL    HW2 7148   2.139   3.842   1.225
 2379SOL     OW 7149   2.594   4.358   1.064
 2379SOL    HW1 7150   2.653   4.332   0.988
 2379SOL    HW2 7151   2.566   4.454   1.053
 2380SOL     OW 7152   3.590   4.659   1.854
 2380SOL    HW1 7153   3.544   4.652   1.765
 2380SOL    HW2 7154   3.528   4.703   1.920
 2381SOL     OW 7155   2.169   3.787   0.618
 2381SOL    HW1 7156   2.158   3.881   0.651
 2381SOL    HW2 7157   2.164   3.724   0.695
 2382SOL     OW 7158   3.484   4.091   0.374
 2382SOL    HW1 7159   3.486   4.015   0.438
 2382SOL    HW2 7160   3.436   4.168   0.414
 2383SOL     OW 7161   3.402   3.998   0.125
 2383SOL    HW1 7162   3.341   3.923   0.148
 2383SOL    HW2 7163   3.424   4.050   0.208
 2384SOL     OW 7164   2.181   4.534   0.949
 2384SOL    HW1 7165   2.274   4.570   0.954
 2384SOL    HW2 7166   2.175   4.449   1.001
 2385SOL     OW 7167   2.201   4.233   1.006
 2385SOL    HW1 7168   2.149   4.150   0.989
 2385SOL    HW2 7169   2.278   4.238   0.942
 2386SOL     OW 7170   3.000   4.104   1.678
 2386SOL    HW1 7171   2.955   4.167   1.742
 2386SOL    HW2 7172   3.093   4.135   1.661
 2387SOL     OW 7173   3.022   3.931   1.477
 2387SOL    HW1 7174   3.022   3.995   1.554
 2387SOL    HW2 7175   3.050   3.979   1.394
 2388SOL     OW 7176   1.902   4.268   1.114
 2388SOL    HW1 7177   1.987   4.235   1.073
 2388SOL    HW2 7178   1.915   4.283   1.212
 2389SOL     OW 7179   2.051   4.244   1.722
 2389SOL    HW1 7180   2.110   4.204   1.652
 2389SOL    HW2 7181   1.993   4.315   1.681
 2390SOL     OW 7182   2.677   4.296   0.325
 2390SOL    HW1 7183   2.684   4.207   0.279
 2390SOL    HW2 7184   2.583   4.330   0.317
 2391SOL     OW 7185   3.519   4.328   1.206
 2391SOL    HW1 7186   3.481   4.259   1.268
 2391SOL    HW2 7187   3.601   4.292   1.162
 2392SOL     OW 7188   2.533   4.188   1.269
 2392SOL    HW1 7189   2.499   4.099   1.239
 2392SOL    HW2 7190   2.559   4.242   1.189
 2393SOL     OW 7191   2.335   4.224   0.191
 2393SOL    HW1 7192   2.396   4.304   0.195
 2393SOL    HW2 7193   2.240   4.255   0.198
 2394SOL     OW 7194   2.765   3.810   0.133
 2394SOL    HW1 7195   2.816   3.811   0.047
 2394SOL    HW2 7196   2.821   3.768   0.204
 2395SOL     OW 7197   3.588   3.859   0.523
 2395SOL    HW1 7198   3.661   3.842   0.456
 2395SOL    HW2 7199   3.557   3.772   0.561
 2396SOL     OW 7200   3.142   4.651   0.672
 2396SOL    HW1 7201   3.202   4.570   0.674
 2396SOL    HW2 7202   3.182   4.720   0.612
 2397SOL     OW 7203   3.703   3.899   0.963
 2397SOL    HW1 7204   3.742   3.814   0.927
 2397SOL    HW2 7205   3.605   3.901   0.944
 2398SOL     OW 7206   2.125   4.050   0.720
 2398SOL    HW1 7207   2.046   4.101   0.686
 2398SOL    HW2 7208   2.116   4.035   0.818
 2399SOL     OW 7209   2.876   3.960   0.971
 2399SOL    HW1 7210   2.868   3.924   0.878
 2399SOL    HW2 7211   2.874   3.884   1.036
 2400SOL     OW 7212   3.571   4.109   1.381
 2400SOL    HW1 7213   3.644   4.178   1.385
 2400SOL    HW2 7214   3.599   4.034   1.322
 2401SOL     OW 7215   1.967   4.737   1.726
 2401SOL    HW1 7216   1.890   4.704   1.780
 2401SOL    HW2 7217   2.052   4.707   1.768
 2402SOL     OW 7218   2.534   3.927   1.489
 2402SOL    HW1 7219   2.624   3.911   1.449
 2402SOL    HW2 7220   2.542   3.932   1.588
 2403SOL     OW 7221   1.937   4.069   0.033
 2403SOL    HW1 7222   1.845   4.041   0.004
 2403SOL    HW2 7223   1.968   4.146  -0.023
 2404SOL     OW 7224   3.302   4.580   1.398
 2404SOL    HW1 7225   3.245   4.632   1.335
 2404SOL    HW2 7226   3.398   4.592   1.374
 2405SOL     OW 7227   1.934   3.890   0.318
 2405SOL    HW1 7228   1.917   3.973   0.264
 2405SOL    HW2 7229   2.024   3.853   0.296
 2406SOL     OW 7230   2.475   4.566   1.431
 2406SOL    HW1 7231   2.531   4.647   1.414
 2406SOL    HW2 7232   2.534   4.486   1.434
 2407SOL     OW 7233   2.578   4.289   1.708
 2407SOL    HW1 7234   2.597   4.354   1.782
 2407SOL    HW2 7235   2.638   4.209   1.717
 2408SOL     OW 7236   3.536   4.607   1.254
 2408SOL    HW1 7237   3.509   4.518   1.217
 2408SOL    HW2 7238   3.537   4.675   1.181
 2409SOL     OW 7239   3.087   4.049   0.449
 2409SOL    HW1 7240   3.152   3.975   0.438
 2409SOL    HW2 7241   3.107   4.099   0.533
 2410SOL     OW 7242   2.456   4.469   0.652
 2410SOL    HW1 7243   2.506   4.554   0.633
 2410SOL    HW2 7244   2.368   4.471   0.604
 2411SOL     OW 7245   3.639   4.066   1.642
 2411SOL    HW1 7246   3.622   4.097   1.548
 2411SOL    HW2 7247   3.555   4.029   1.680
 2412SOL     OW 7248   3.686   3.916   1.227
 2412SOL    HW1 7249   3.682   3.826   1.271
 2412SOL    HW2 7250   3.689   3.905   1.128
 2413SOL     OW 7251   2.290   4.148   0.520
 2413SOL    HW1 7252   2.320   4.076   0.458
 2413SOL    HW2 7253   2.251   4.108   0.603
 2414SOL     OW 7254   2.179   4.271   1.280
 2414SOL    HW1 7255   2.217   4.212   1.352
 2414SOL    HW2 7256   2.219   4.245   1.192
 2415SOL     OW 7257   3.286   3.938   1.112
 2415SOL    HW1 7258   3.338   3.873   1.167
 2415SOL    HW2 7259   3.237   4.001   1.173
 2416SOL     OW 7260   2.863   3.758   1.154
 2416SOL    HW1 7261   2.800   3.686   1.123
 2416SOL    HW2 7262   2.956   3.722   1.154
 2417SOL     OW 7263   3.214   3.776   0.168
 2417SOL    HW1 7264   3.249   3.735   0.084
 2417SOL    HW2 7265   3.124   3.738   0.188
 2418SOL     OW 7266   3.162   4.177   0.691
 2418SOL    HW1 7267   3.103   4.257   0.695
 2418SOL    HW2 7268   3.177   4.142   0.784
 2419SOL     OW 7269   3.455   3.945   0.882
 2419SOL    HW1 7270   3.371   3.944   0.936
 2419SOL    HW2 7271   3.457   4.028   0.826
 2420SOL     OW 7272   2.092   4.352   1.975
 2420SOL    HW1 7273   1.999   4.350   2.012
 2420SOL    HW2 7274   2.093   4.313   1.883
 2421SOL     OW 7275   2.087   3.999   2.858
 2421SOL    HW1 7276   2.122   3.982   2.950
 2421SOL    HW2 7277   1.999   3.954   2.846
 2422SOL     OW 7278   1.881   4.092   2.509
 2422SOL    HW1 7279   1.799   4.135   2.548
 2422SOL    HW2 7280   1.853   4.019   2.446
 2423SOL     OW 7281   3.617   4.331   2.093
 2423SOL    HW1 7282   3.605   4.318   1.994
 2423SOL    HW2 7283   3.587   4.250   2.142
 2424SOL     OW 7284   2.712   4.522   3.685
 2424SOL    HW1 7285   2.708   4.598   3.750
 2424SOL    HW2 7286   2.734   4.558   3.594
 2425SOL     OW 7287   2.547   4.736   2.527
 2425SOL    HW1 7288   2.616   4.720   2.597
 2425SOL    HW2 7289   2.474   4.793   2.565
 2426SOL     OW 7290   2.300   4.116   3.361
 2426SOL    HW1 7291   2.382   4.060   3.370
 2426SOL    HW2 7292   2.219   4.058   3.365
 2427SOL     OW 7293   3.465   4.171   2.599
 2427SOL    HW1 7294   3.391   4.217   2.549
 2427SOL    HW2 7295   3.516   4.239   2.652
 2428SOL     OW 7296   3.456   3.838   3.342
 2428SOL    HW1 7297   3.438   3.905   3.270
 2428SOL    HW2 7298   3.453   3.884   3.431
 2429SOL     OW 7299   1.984   4.367   2.425
 2429SOL    HW1 7300   1.939   4.279   2.442
 2429SOL    HW2 7301   1.983   4.421   2.509
 2430SOL     OW 7302   1.975   4.461   3.459
 2430SOL    HW1 7303   2.063   4.448   3.504
 2430SOL    HW2 7304   1.962   4.558   3.437
 2431SOL     OW 7305   2.671   3.728   2.364
 2431SOL    HW1 7306   2.711   3.819   2.355
 2431SOL    HW2 7307   2.571   3.736   2.370
 2432SOL     OW 7308   2.179   3.975   3.663
 2432SOL    HW1 7309   2.250   4.046   3.669
 2432SOL    HW2 7310   2.091   4.014   3.691
 2433SOL     OW 7311   2.460   4.453   2.132
 2433SOL    HW1 7312   2.484   4.522   2.064
 2433SOL    HW2 7313   2.382   4.486   2.186
 2434SOL     OW 7314   3.143   4.069   2.806
 2434SOL    HW1 7315   3.057   4.019   2.793
 2434SOL    HW2 7316   3.205   4.015   2.862
 2435SOL     OW 7317   2.669   4.329   3.327
 2435SOL    HW1 7318   2.622   4.326   3.416
 2435SOL    HW2 7319   2.618   4.274   3.261
 2436SOL     OW 7320   3.256   4.193   3.536
 2436SOL    HW1 7321   3.236   4.236   3.624
 2436SOL    HW2 7322   3.334   4.131   3.545
 2437SOL     OW 7323   2.853   4.134   3.104
 2437SOL    HW1 7324   2.776   4.168   3.158
 2437SOL    HW2 7325   2.819   4.083   3.025
 2438SOL     OW 7326   2.903   4.425   2.291
 2438SOL    HW1 7327   2.929   4.421   2.387
 2438SOL    HW2 7328   2.818   4.374   2.277
 2439SOL     OW 7329   2.727   4.072   2.057
 2439SOL    HW1 7330   2.786   4.135   2.008
 2439SOL    HW2 7331   2.746   3.978   2.028
 2440SOL     OW 7332   3.581   4.309   3.693
 2440SOL    HW1 7333   3.555   4.398   3.657
 2440SOL    HW2 7334   3.579   4.241   3.620
 2441SOL     OW 7335   2.412   3.920   2.747
 2441SOL    HW1 7336   2.407   3.915   2.847
 2441SOL    HW2 7337   2.414   4.016   2.718
 2442SOL     OW 7338   3.320   4.459   2.590
 2442SOL    HW1 7339   3.315   4.394   2.665
 2442SOL    HW2 7340   3.400   4.518   2.603
 2443SOL     OW 7341   2.064   4.009   3.360
 2443SOL    HW1 7342   1.984   4.069   3.347
 2443SOL    HW2 7343   2.054   3.960   3.446
 2444SOL     OW 7344   3.262   3.831   2.288
 2444SOL    HW1 7345   3.238   3.794   2.198
 2444SOL    HW2 7346   3.361   3.847   2.292
 2445SOL     OW 7347   2.244   4.424   2.342
 2445SOL    HW1 7348   2.289   4.334   2.339
 2445SOL    HW2 7349   2.150   4.413   2.375
 2446SOL     OW 7350   3.409   3.946   3.591
 2446SOL    HW1 7351   3.404   3.983   3.683
 2446SOL    HW2 7352   3.337   3.877   3.579
 2447SOL     OW 7353   2.476   3.846   1.979
 2447SOL    HW1 7354   2.574   3.824   1.986
 2447SOL    HW2 7355   2.445   3.829   1.886
 2448SOL     OW 7356   2.643   3.988   3.611
 2448SOL    HW1 7357   2.710   3.927   3.654
 2448SOL    HW2 7358   2.570   4.007   3.676
 2449SOL     OW 7359   3.213   4.314   3.295
 2449SOL    HW1 7360   3.241   4.271   3.380
 2449SOL    HW2 7361   3.238   4.410   3.296
 2450SOL     OW 7362   2.784   4.227   2.761
 2450SOL    HW1 7363   2.759   4.218   2.665
 2450SOL    HW2 7364   2.832   4.145   2.792
 2451SOL     OW 7365   2.401   3.788   2.374
 2451SOL    HW1 7366   2.320   3.789   2.432
 2451SOL    HW2 7367   2.404   3.871   2.319
 2452SOL     OW 7368   2.159   3.759   2.033
 2452SOL    HW1 7369   2.208   3.843   2.012
 2452SOL    HW2 7370   2.221   3.694   2.078
 2453SOL     OW 7371   2.797   3.960   2.342
 2453SOL    HW1 7372   2.749   4.001   2.264
 2453SOL    HW2 7373   2.896   3.958   2.323
 2454SOL     OW 7374   2.938   4.407   3.326
 2454SOL    HW1 7375   2.858   4.346   3.329
 2454SOL    HW2 7376   3.019   4.354   3.302
 2455SOL     OW 7377   2.894   4.273   1.878
 2455SOL    HW1 7378   2.853   4.355   1.839
 2455SOL    HW2 7379   2.958   4.299   1.951
 2456SOL     OW 7380   1.940   4.280   3.248
 2456SOL    HW1 7381   2.032   4.279   3.207
 2456SOL    HW2 7382   1.934   4.354   3.315
 2457SOL     OW 7383   2.423   3.946   3.009
 2457SOL    HW1 7384   2.461   3.862   3.046
 2457SOL    HW2 7385   2.335   3.965   3.053
 2458SOL     OW 7386   2.728   4.178   2.504
 2458SOL    HW1 7387   2.696   4.250   2.442
 2458SOL    HW2 7388   2.752   4.097   2.451
 2459SOL     OW 7389   2.879   3.763   2.615
 2459SOL    HW1 7390   2.807   3.768   2.546
 2459SOL    HW2 7391   2.855   3.694   2.684
 2460SOL     OW 7392   3.328   4.314   2.854
 2460SOL    HW1 7393   3.298   4.219   2.861
 2460SOL    HW2 7394   3.401   4.330   2.920
 2461SOL     OW 7395   3.719   4.557   2.239
 2461SOL    HW1 7396   3.761   4.493   2.303
 2461SOL    HW2 7397   3.681   4.506   2.161
 2462SOL     OW 7398   3.252   4.299   1.940
 2462SOL    HW1 7399   3.198   4.278   2.021
 2462SOL    HW2 7400   3.343   4.258   1.949
 2463SOL     OW 7401   2.389   3.980   2.190
 2463SOL    HW1 7402   2.416   3.921   2.115
 2463SOL    HW2 7403   2.389   4.075   2.159
 2464SOL     OW 7404   2.777   3.813   3.264
 2464SOL    HW1 7405   2.802   3.793   3.169
 2464SOL    HW2 7406   2.849   3.869   3.306
 2465SOL     OW 7407   2.567   4.774   2.230
 2465SOL    HW1 7408   2.553   4.781   2.329
 2465SOL    HW2 7409   2.651   4.723   2.212
 2466SOL     OW 7410   2.272   4.537   3.113
 2466SOL    HW1 7411   2.358   4.549   3.163
 2466SOL    HW2 7412   2.230   4.450   3.140
 2467SOL     OW 7413   3.136   4.110   3.124
 2467SOL    HW1 7414   3.157   4.184   3.188
 2467SOL    HW2 7415   3.047   4.127   3.081
 2468SOL     OW 7416   2.428   4.261   2.727
 2468SOL    HW1 7417   2.440   4.327   2.653
 2468SOL    HW2 7418   2.474   4.295   2.810
 2469SOL     OW 7419   3.444   4.363   2.334
 2469SOL    HW1 7420   3.413   4.424   2.407
 2469SOL    HW2 7421   3.494   4.415   2.265
 2470SOL     OW 7422   3.449   4.503   3.532
 2470SOL    HW1 7423   3.357   4.541   3.527
 2470SOL    HW2 7424   3.509   4.550   3.467
 2471SOL     OW 7425   2.875   3.829   3.632
 2471SOL    HW1 7426   2.881   3.914   3.580
 2471SOL    HW2 7427   2.907   3.753   3.575
 2472SOL     OW 7428   2.366   3.774   3.602
 2472SOL    HW1 7429   2.324   3.717   3.532
 2472SOL    HW2 7430   2.300   3.843   3.634
 2473SOL     OW 7431   3.222   4.586   2.907
 2473SOL    HW1 7432   3.147   4.586   2.841
 2473SOL    HW2 7433   3.259   4.494   2.916
 2474SOL     OW 7434   3.071   4.249   2.137
 2474SOL    HW1 7435   3.084   4.165   2.191
 2474SOL    HW2 7436   3.042   4.323   2.197
 2475SOL     OW 7437   2.169   3.937   3.093
 2475SOL    HW1 7438   2.146   3.974   3.183
 2475SOL    HW2 7439   2.139   3.842   3.087
 2476SOL     OW 7440   2.594   4.358   2.926
 2476SOL    HW1 7441   2.653   4.332   2.850
 2476SOL    HW2 7442   2.566   4.454   2.915
 2477SOL     OW 7443   3.590   4.659   3.716
 2477SOL    HW1 7444   3.544   4.652   3.627
 2477SOL    HW2 7445   3.528   4.703   3.782
 2478SOL     OW 7446   2.169   3.787   2.480
 2478SOL    HW1 7447   2.158   3.881   2.513
 2478SOL    HW2 7448   2.164   3.724   2.557
 2479SOL     OW 7449   3.484   4.091   2.236
 2479SOL    HW1 7450   3.486   4.015   2.300
 2479SOL    HW2 7451   3.436   4.168   2.276
 2480SOL     OW 7452   3.402   3.998   1.987
 2480SOL    HW1 7453   3.341   3.923   2.010
 2480SOL    HW2 7454   3.424   4.050   2.070
 2481SOL     OW 7455   2.181   4.534   2.811
 2481SOL    HW1 7456   2.274   4.570   2.816
 2481SOL    HW2 7457   2.175   4.449   2.863
 2482SOL     OW 7458   2.201   4.233   2.868
 2482SOL    HW1 7459   2.149   4.150   2.851
 2482SOL    HW2 7460   2.278   4.238   2.804
 2483SOL     OW 7461   3.000   4.104   3.540
 2483SOL    HW1 7462   2.955   4.167   3.604
 2483SOL    HW2 7463   3.093   4.135   3.523
 2484SOL     OW 7464   3.022   3.931   3.339
 2484SOL    HW1 7465   3.022   3.995   3.416
 2484SOL    HW2 7466   3.050   3.979   3.256
 2485SOL     OW 7467   1.902   4.268   2.976
 2485SOL    HW1 7468   1.987   4.235   2.935
 2485SOL    HW2 7469   1.915   4.283   3.074
 2486SOL     OW 7470   2.051   4.244   3.584
 2486SOL    HW1 7471   2.110   4.204   3.514
 2486SOL    HW2 7472   1.993   4.315   3.543
 2487SOL     OW 7473   2.677   4.296   2.187
 2487SOL    HW1 7474   2.684   4.207   2.141
 2487SOL    HW2 7475   2.583   4.330   2.179
 2488SOL     OW 7476   3.519   4.328   3.068
 2488SOL    HW1 7477   3.481   4.259   3.130
 2488SOL    HW2 7478   3.601   4.292   3.024
 2489SOL     OW 7479   2.533   4.188   3.131
 2489SOL    HW1 7480   2.499   4.099   3.101
 2489SOL    HW2 7481   2.559   4.242   3.051
 2490SOL     OW 7482   2.335   4.224   2.053
 2490SOL    HW1 7483   2.396   4.304   2.057
 2490SOL    HW2 7484   2.240   4.255   2.060
 2491SOL     OW 7485   3.588   3.859   2.385
 2491SOL    HW1 7486   3.661   3.842   2.318
 2491SOL    HW2 7487   3.557   3.772   2.423
 2492SOL     OW 7488   3.142   4.651   2.534
 2492SOL    HW1 7489   3.202   4.570   2.536
 2492SOL    HW2 7490   3.182   4.720   2.474
 2493SOL     OW 7491   3.703   3.899   2.825
 2493SOL    HW1 7492   3.742   3.814   2.789
 2493SOL    HW2 7493   3.605   3.901   2.806
 2494SOL     OW 7494   2.125   4.050   2.582
 2494SOL    HW1 7495   2.046   4.101   2.548
 2494SOL    HW2 7496   2.116   4.035   2.680
 2495SOL     OW 7497   2.778   4.634   2.153
 2495SOL    HW1 7498   2.841   4.672   2.085
 2495SOL    HW2 7499   2.818   4.551   2.192
 2496SOL     OW 7500   2.876   3.960   2.833
 2496SOL    HW1 7501   2.868   3.924   2.740
 2496SOL    HW2 7502   2.874   3.884   2.898
 2497SOL     OW 7503   3.571   4.109   3.243
 2497SOL    HW1 7504   3.644   4.178   3.247
 2497SOL    HW2 7505   3.599   4.034   3.184
 2498SOL     OW 7506   1.967   4.737   3.588
 2498SOL    HW1 7507   1.890   4.704   3.642
 2498SOL    HW2 7508   2.052   4.707   3.630
 2499SOL     OW 7509   2.534   3.927   3.351
 2499SOL    HW1 7510   2.624   3.911   3.311
 2499SOL    HW2 7511   2.542   3.932   3.450
 2500SOL     OW 7512   1.937   4.069   1.895
 2500SOL    HW1 7513   1.845   4.041   1.866
 2500SOL    HW2 7514   1.968   4.146   1.839
 2501SOL     OW 7515   3.302   4.580   3.260
 2501SOL    HW1 7516   3.245   4.632   3.197
 2501SOL    HW2 7517   3.398   4.592   3.236
 2502SOL     OW 7518   1.934   3.890   2.180
 2502SOL    HW1 7519   1.917   3.973   2.126
 2502SOL    HW2 7520   2.024   3.853   2.158
 2503SOL     OW 7521   2.475   4.566   3.293
 2503SOL    HW1 7522   2.531   4.647   3.276
 2503SOL    HW2 7523   2.534   4.486   3.296
 2504SOL     OW 7524   2.578   4.289   3.570
 2504SOL    HW1 7525   2.597   4.354   3.644
 2504SOL    HW2 7526   2.638   4.209   3.579
 2505SOL     OW 7527   3.536   4.607   3.116
 2505SOL    HW1 7528   3.509   4.518   3.079
 2505SOL    HW2 7529   3.537   4.675   3.043
 2506SOL     OW 7530   3.087   4.049   2.311
 2506SOL    HW1 7531   3.152   3.975   2.300
 2506SOL    HW2 7532   3.107   4.099   2.395
 2507SOL     OW 7533   2.456   4.469   2.514
 2507SOL    HW1 7534   2.506   4.554   2.495
 2507SOL    HW2 7535   2.368   4.471   2.466
 2508SOL     OW 7536   3.639   4.066   3.504
 2508SOL    HW1 7537   3.622   4.097   3.410
 2508SOL    HW2 7538   3.555   4.029   3.542
 2509SOL     OW 7539   3.686   3.916   3.089
 2509SOL    HW1 7540   3.682   3.826   3.133
 2509SOL    HW2 7541   3.689   3.905   2.990
 2510SOL     OW 7542   2.290   4.148   2.382
 2510SOL    HW1 7543   2.320   4.076   2.320
 2510SOL    HW2 7544   2.251   4.108   2.465
 2511SOL     OW 7545   2.179   4.271   3.142
 2511SOL    HW1 7546   2.217   4.212   3.214
 2511SOL    HW2 7547   2.219   4.245   3.054
 2512SOL     OW 7548   3.286   3.938   2.974
 2512SOL    HW1 7549   3.338   3.873   3.029
 2512SOL    HW2 7550   3.237   4.001   3.035
 2513SOL     OW 7551   2.863   3.758   3.016
 2513SOL    HW1 7552   2.800   3.686   2.985
 2513SOL    HW2 7553   2.956   3.722   3.016
 2514SOL     OW 7554   3.214   3.776   2.030
 2514SOL    HW1 7555   3.249   3.735   1.946
 2514SOL    HW2 7556   3.124   3.738   2.050
 2515SOL     OW 7557   3.162   4.177   2.553
 2515SOL    HW1 7558   3.103   4.257   2.557
 2515SOL    HW2 7559   3.177   4.142   2.646
 2516SOL     OW 7560   3.455   3.945   2.744
 2516SOL    HW1 7561   3.371   3.944   2.798
 2516SOL    HW2 7562   3.457   4.028   2.688
 2517SOL     OW 7563   2.092   4.352   3.837
 2517SOL    HW1 7564   1.999   4.350   3.874
 2517SOL    HW2 7565   2.093   4.313   3.745
 2518SOL     OW 7566   2.087   3.999   4.720
 2518SOL    HW1 7567   2.122   3.982   4.812
 2518SOL    HW2 7568   1.999   3.954   4.708
 2519SOL     OW 7569   1.881   4.092   4.371
 2519SOL    HW1 7570   1.799   4.135   4.410
 2519SOL    HW2 7571   1.853   4.019   4.308
 2520SOL     OW 7572   3.617   4.331   3.955
 2520SOL    HW1 7573   3.605   4.318   3.856
 2520SOL    HW2 7574   3.587   4.250   4.004
 2521SOL     OW 7575   2.547   4.736   4.389
 2521SOL    HW1 7576   2.616   4.720   4.459
 2521SOL    HW2 7577   2.474   4.793   4.427
 2522SOL     OW 7578   3.465   4.171   4.461
 2522SOL    HW1 7579   3.391   4.217   4.411
 2522SOL    HW2 7580   3.516   4.239   4.514
 2523SOL     OW 7581   1.984   4.367   4.287
 2523SOL    HW1 7582   1.939   4.279   4.304
 2523SOL    HW2 7583   1.983   4.421   4.371
 2524SOL     OW 7584   2.671   3.728   4.226
 2524SOL    HW1 7585   2.711   3.819   4.217
 2524SOL    HW2 7586   2.571   3.736   4.232
 2525SOL     OW 7587   2.460   4.453   3.994
 2525SOL    HW1 7588   2.484   4.522   3.926
 2525SOL    HW2 7589   2.382   4.486   4.048
 2526SOL     OW 7590   3.143   4.069   4.668
 2526SOL    HW1 7591   3.057   4.019   4.655
 2526SOL    HW2 7592   3.205   4.015   4.724
 2527SOL     OW 7593   2.903   4.425   4.153
 2527SOL    HW1 7594   2.929   4.421   4.249
 2527SOL    HW2 7595   2.818   4.374   4.139
 2528SOL     OW 7596   2.727   4.072   3.919
 2528SOL    HW1 7597   2.786   4.135   3.870
 2528SOL    HW2 7598   2.746   3.978   3.890
 2529SOL     OW 7599   3.320   4.459   4.452
 2529SOL    HW1 7600   3.315   4.394   4.527
 2529SOL    HW2 7601   3.400   4.518   4.465
 2530SOL     OW 7602   3.262   3.831   4.150
 2530SOL    HW1 7603   3.238   3.794   4.060
 2530SOL    HW2 7604   3.361   3.847   4.154
 2531SOL     OW 7605   2.244   4.424   4.204
 2531SOL    HW1 7606   2.289   4.334   4.201
 2531SOL    HW2 7607   2.150   4.413   4.237
 2532SOL     OW 7608   2.476   3.846   3.841
 2532SOL    HW1 7609   2.574   3.824   3.848
 2532SOL    HW2 7610   2.445   3.829   3.748
 2533SOL     OW 7611   2.401   3.788   4.236
 2533SOL    HW1 7612   2.320   3.789   4.294
 2533SOL    HW2 7613   2.404   3.871   4.181
 2534SOL     OW 7614   2.159   3.759   3.895
 2534SOL    HW1 7615   2.208   3.843   3.874
 2534SOL    HW2 7616   2.221   3.694   3.940
 2535SOL     OW 7617   2.797   3.960   4.204
 2535SOL    HW1 7618   2.749   4.001   4.126
 2535SOL    HW2 7619   2.896   3.958   4.185
 2536SOL     OW 7620   2.894   4.273   3.740
 2536SOL    HW1 7621   2.853   4.355   3.701
 2536SOL    HW2 7622   2.958   4.299   3.813
 2537SOL     OW 7623   2.728   4.178   4.366
 2537SOL    HW1 7624   2.696   4.250   4.304
 2537SOL    HW2 7625   2.752   4.097   4.313
 2538SOL     OW 7626   2.879   3.763   4.477
 2538SOL    HW1 7627   2.807   3.768   4.408
 2538SOL    HW2 7628   2.855   3.694   4.546
 2539SOL     OW 7629   3.719   4.557   4.101
 2539SOL    HW1 7630   3.761   4.493   4.165
 2539SOL    HW2 7631   3.681   4.506   4.023
 2540SOL     OW 7632   3.252   4.299   3.802
 2540SOL    HW1 7633   3.198   4.278   3.883
 2540SOL    HW2 7634   3.343   4.258   3.811
 2541SOL     OW 7635   2.389   3.980   4.052
 2541SOL    HW1 7636   2.416   3.921   3.977
 2541SOL    HW2 7637   2.389   4.075   4.021
 2542SOL     OW 7638   2.567   4.774   4.092
 2542SOL    HW1 7639   2.553   4.781   4.191
 2542SOL    HW2 7640   2.651   4.723   4.074
 2543SOL     OW 7641   3.444   4.363   4.196
 2543SOL    HW1 7642   3.413   4.424   4.269
 2543SOL    HW2 7643   3.494   4.415   4.127
 2544SOL     OW 7644   3.071   4.249   3.999
 2544SOL    HW1 7645   3.084   4.165   4.053
 2544SOL    HW2 7646   3.042   4.323   4.059
 2545SOL     OW 7647   2.169   3.787   4.342
 2545SOL    HW1 7648   2.158   3.881   4.375
 2545SOL    HW2 7649   2.164   3.724   4.419
 2546SOL     OW 7650   3.484   4.091   4.098
 2546SOL    HW1 7651   3.486   4.015   4.162
 2546SOL    HW2 7652   3.436   4.168   4.138
 2547SOL     OW 7653   3.402   3.998   3.849
 2547SOL    HW1 7654   3.341   3.923   3.872
 2547SOL    HW2 7655   3.424   4.050   3.932
 2548SOL     OW 7656   2.677   4.296   4.049
 2548SOL    HW1 7657   2.684   4.207   4.003
 2548SOL    HW2 7658   2.583   4.330   4.041
 2549SOL     OW 7659   2.335   4.224   3.915
 2549SOL    HW1 7660   2.396   4.304   3.919
 2549SOL    HW2 7661   2.240   4.255   3.922
 2550SOL     OW 7662   3.588   3.859   4.247
 2550SOL    HW1 7663   3.661   3.842   4.180
 2550SOL    HW2 7664   3.557   3.772   4.285
 2551SOL     OW 7665   3.142   4.651   4.396
 2551SOL    HW1 7666   3.202   4.570   4.398
 2551SOL    HW2 7667   3.182   4.720   4.336
 2552SOL     OW 7668   3.703   3.899   4.687
 2552SOL    HW1 7669   3.742   3.814   4.651
 2552SOL    HW2 7670   3.605   3.901   4.668
 2553SOL     OW 7671   2.125   4.050   4.444
 2553SOL    HW1 7672   2.046   4.101   4.410
 2553SOL    HW2 7673   2.116   4.035   4.542
 2554SOL     OW 7674   2.778   4.634   4.015
 2554SOL    HW1 7675   2.841   4.672   3.947
 2554SOL    HW2 7676   2.818   4.551   4.054
 2555SOL     OW 7677   2.901   4.822   4.420
 2555SOL    HW1 7678   2.831   4.775   4.474
 2555SOL    HW2 7679   2.960   4.754   4.377
 2556SOL     OW 7680   1.937   4.069   3.757
 2556SOL    HW1 7681   1.845   4.041   3.728
 2556SOL    HW2 7682   1.968   4.146   3.701
 2557SOL     OW 7683   1.934   3.890   4.042
 2557SOL    HW1 7684   1.917   3.973   3.988
 2557SOL    HW2 7685   2.024   3.853   4.020
 2558SOL     OW 7686   3.087   4.049   4.173
 2558SOL    HW1 7687   3.152   3.975   4.162
 2558SOL    HW2 7688   3.107   4.099   4.257
 2559SOL     OW 7689   2.456   4.469   4.376
 2559SOL    HW1 7690   2.506   4.554   4.357
 2559SOL    HW2 7691   2.368   4.471   4.328
 2560SOL     OW 7692   2.290   4.148   4.244
 2560SOL    HW1 7693   2.320   4.076   4.182
 2560SOL    HW2 7694   2.251   4.108   4.327
 2561SOL     OW 7695   3.214   3.776   3.892
 2561SOL    HW1 7696   3.249   3.735   3.808
 2561SOL    HW2 7697   3.124   3.738   3.912
 2562SOL     OW 7698   3.162   4.177   4.415
 2562SOL    HW1 7699   3.103   4.257   4.419
 2562SOL    HW2 7700   3.177   4.142   4.508
 2563SOL     OW 7701   3.954   0.628   0.113
 2563SOL    HW1 7702   3.861   0.626   0.150
 2563SOL    HW2 7703   3.955   0.589   0.021
 2564SOL     OW 7704   3.949   0.275   0.996
 2564SOL    HW1 7705   3.984   0.258   1.088
 2564SOL    HW2 7706   3.861   0.230   0.984
 2565SOL     OW 7707   3.743   0.368   0.647
 2565SOL    HW1 7708   3.661   0.411   0.686
 2565SOL    HW2 7709   3.715   0.295   0.584
 2566SOL     OW 7710   4.293   1.275   1.165
 2566SOL    HW1 7711   4.200   1.268   1.128
 2566SOL    HW2 7712   4.304   1.364   1.209
 2567SOL     OW 7713   4.574   0.798   1.823
 2567SOL    HW1 7714   4.570   0.874   1.888
 2567SOL    HW2 7715   4.596   0.834   1.732
 2568SOL     OW 7716   4.409   1.012   0.665
 2568SOL    HW1 7717   4.478   0.996   0.735
 2568SOL    HW2 7718   4.336   1.069   0.703
 2569SOL     OW 7719   4.410   1.161   1.803
 2569SOL    HW1 7720   4.470   1.240   1.817
 2569SOL    HW2 7721   4.324   1.192   1.762
 2570SOL     OW 7722   4.059   1.435   1.061
 2570SOL    HW1 7723   3.981   1.404   1.008
 2570SOL    HW2 7724   4.117   1.493   1.004
 2571SOL     OW 7725   4.162   0.392   1.499
 2571SOL    HW1 7726   4.244   0.336   1.508
 2571SOL    HW2 7727   4.081   0.334   1.503
 2572SOL     OW 7728   3.955   1.713   0.483
 2572SOL    HW1 7729   3.989   1.790   0.537
 2572SOL    HW2 7730   3.999   1.713   0.393
 2573SOL     OW 7731   3.954   1.434   0.538
 2573SOL    HW1 7732   3.928   1.530   0.538
 2573SOL    HW2 7733   3.883   1.380   0.583
 2574SOL     OW 7734   3.964   1.091   0.886
 2574SOL    HW1 7735   3.978   1.007   0.938
 2574SOL    HW2 7736   3.909   1.155   0.941
 2575SOL     OW 7737   4.344   1.786   1.439
 2575SOL    HW1 7738   4.252   1.769   1.474
 2575SOL    HW2 7739   4.372   1.878   1.465
 2576SOL     OW 7740   4.330   0.964   0.123
 2576SOL    HW1 7741   4.337   1.048   0.069
 2576SOL    HW2 7742   4.376   0.977   0.211
 2577SOL     OW 7743   3.846   0.643   0.563
 2577SOL    HW1 7744   3.801   0.555   0.580
 2577SOL    HW2 7745   3.845   0.697   0.647
 2578SOL     OW 7746   3.751   1.596   0.117
 2578SOL    HW1 7747   3.732   1.500   0.138
 2578SOL    HW2 7748   3.718   1.654   0.192
 2579SOL     OW 7749   3.837   0.737   1.597
 2579SOL    HW1 7750   3.925   0.724   1.642
 2579SOL    HW2 7751   3.824   0.834   1.575
 2580SOL     OW 7752   4.337   1.365   0.726
 2580SOL    HW1 7753   4.288   1.278   0.735
 2580SOL    HW2 7754   4.314   1.408   0.639
 2581SOL     OW 7755   4.533   0.004   0.502
 2581SOL    HW1 7756   4.573   0.095   0.493
 2581SOL    HW2 7757   4.433   0.012   0.508
 2582SOL     OW 7758   3.921   0.976   1.264
 2582SOL    HW1 7759   4.010   0.931   1.250
 2582SOL    HW2 7760   3.848   0.911   1.245
 2583SOL     OW 7761   4.041   0.251   1.801
 2583SOL    HW1 7762   4.112   0.322   1.807
 2583SOL    HW2 7763   3.953   0.290   1.829
 2584SOL     OW 7764   4.322   0.729   0.270
 2584SOL    HW1 7765   4.346   0.798   0.202
 2584SOL    HW2 7766   4.244   0.762   0.324
 2585SOL     OW 7767   3.800   0.811   0.789
 2585SOL    HW1 7768   3.899   0.799   0.798
 2585SOL    HW2 7769   3.776   0.906   0.810
 2586SOL     OW 7770   3.854   1.821   1.571
 2586SOL    HW1 7771   3.844   1.806   1.670
 2586SOL    HW2 7772   3.768   1.857   1.535
 2587SOL     OW 7773   4.274   0.196   0.885
 2587SOL    HW1 7774   4.269   0.191   0.985
 2587SOL    HW2 7775   4.276   0.292   0.856
 2588SOL     OW 7776   4.075   1.801   0.853
 2588SOL    HW1 7777   4.125   1.715   0.859
 2588SOL    HW2 7778   4.140   1.878   0.850
 2589SOL     OW 7779   4.045   0.943   0.242
 2589SOL    HW1 7780   4.127   0.982   0.200
 2589SOL    HW2 7781   4.018   0.861   0.193
 2590SOL     OW 7782   4.185   1.266   1.727
 2590SOL    HW1 7783   4.135   1.267   1.641
 2590SOL    HW2 7784   4.122   1.248   1.803
 2591SOL     OW 7785   3.926   0.285   1.498
 2591SOL    HW1 7786   3.846   0.345   1.485
 2591SOL    HW2 7787   3.916   0.236   1.584
 2592SOL     OW 7788   4.188   1.743   0.323
 2592SOL    HW1 7789   4.221   1.782   0.409
 2592SOL    HW2 7790   4.264   1.736   0.258
 2593SOL     OW 7791   3.973   1.785   1.241
 2593SOL    HW1 7792   4.030   1.720   1.291
 2593SOL    HW2 7793   3.957   1.752   1.148
 2594SOL     OW 7794   4.106   0.700   0.480
 2594SOL    HW1 7795   4.151   0.610   0.477
 2594SOL    HW2 7796   4.012   0.689   0.513
 2595SOL     OW 7797   4.338   0.122   0.117
 2595SOL    HW1 7798   4.436   0.100   0.124
 2595SOL    HW2 7799   4.307   0.105   0.024
 2596SOL     OW 7800   4.527   1.402   0.924
 2596SOL    HW1 7801   4.617   1.416   0.882
 2596SOL    HW2 7802   4.456   1.404   0.853
 2597SOL     OW 7803   4.646   0.503   0.899
 2597SOL    HW1 7804   4.621   0.494   0.803
 2597SOL    HW2 7805   4.694   0.421   0.930
 2598SOL     OW 7806   4.263   0.064   0.512
 2598SOL    HW1 7807   4.182   0.065   0.570
 2598SOL    HW2 7808   4.266   0.147   0.457
 2599SOL     OW 7809   4.021   0.035   0.171
 2599SOL    HW1 7810   4.070   0.119   0.150
 2599SOL    HW2 7811   4.083  -0.030   0.216
 2600SOL     OW 7812   4.183   1.152   0.741
 2600SOL    HW1 7813   4.112   1.125   0.806
 2600SOL    HW2 7814   4.157   1.124   0.648
 2601SOL     OW 7815   3.802   0.556   1.386
 2601SOL    HW1 7816   3.894   0.555   1.345
 2601SOL    HW2 7817   3.796   0.630   1.453
 2602SOL     OW 7818   4.285   0.222   1.147
 2602SOL    HW1 7819   4.323   0.138   1.184
 2602SOL    HW2 7820   4.197   0.241   1.191
 2603SOL     OW 7821   4.212   1.385   0.174
 2603SOL    HW1 7822   4.125   1.370   0.221
 2603SOL    HW2 7823   4.195   1.411   0.079
 2604SOL     OW 7824   4.251   0.256   0.328
 2604SOL    HW1 7825   4.278   0.197   0.253
 2604SOL    HW2 7826   4.251   0.351   0.297
 2605SOL     OW 7827   4.639   0.089   1.402
 2605SOL    HW1 7828   4.664   0.069   1.307
 2605SOL    HW2 7829   4.711   0.145   1.444
 2606SOL     OW 7830   4.134   0.813   1.251
 2606SOL    HW1 7831   4.220   0.825   1.301
 2606SOL    HW2 7832   4.092   0.726   1.278
 2607SOL     OW 7833   3.788   1.564   1.331
 2607SOL    HW1 7834   3.742   1.646   1.297
 2607SOL    HW2 7835   3.886   1.583   1.340
 2608SOL     OW 7836   4.091   1.100   0.501
 2608SOL    HW1 7837   4.084   1.183   0.445
 2608SOL    HW2 7838   4.095   1.020   0.441
 2609SOL     OW 7839   4.290   0.537   0.865
 2609SOL    HW1 7840   4.302   0.603   0.791
 2609SOL    HW2 7841   4.336   0.571   0.948
 2610SOL     OW 7842   4.078   1.510   1.329
 2610SOL    HW1 7843   4.057   1.466   1.242
 2610SOL    HW2 7844   4.175   1.536   1.332
 2611SOL     OW 7845   4.126   0.751   1.598
 2611SOL    HW1 7846   4.194   0.806   1.551
 2611SOL    HW2 7847   4.166   0.663   1.625
 2612SOL     OW 7848   4.228   0.050   1.740
 2612SOL    HW1 7849   4.186  -0.007   1.670
 2612SOL    HW2 7850   4.162   0.119   1.772
 2613SOL     OW 7851   4.297   0.870   1.029
 2613SOL    HW1 7852   4.341   0.959   1.020
 2613SOL    HW2 7853   4.234   0.870   1.106
 2614SOL     OW 7854   4.031   0.213   1.231
 2614SOL    HW1 7855   4.008   0.250   1.321
 2614SOL    HW2 7856   4.001   0.118   1.225
 2615SOL     OW 7857   3.761   1.310   1.282
 2615SOL    HW1 7858   3.814   1.261   1.350
 2615SOL    HW2 7859   3.783   1.408   1.287
 2616SOL     OW 7860   4.456   0.634   1.064
 2616SOL    HW1 7861   4.515   0.608   0.988
 2616SOL    HW2 7862   4.428   0.730   1.053
 2617SOL     OW 7863   4.031   0.063   0.618
 2617SOL    HW1 7864   4.020   0.157   0.651
 2617SOL    HW2 7865   4.026   0.000   0.695
 2618SOL     OW 7866   4.074   0.898   1.804
 2618SOL    HW1 7867   4.150   0.942   1.852
 2618SOL    HW2 7868   4.109   0.851   1.722
 2619SOL     OW 7869   4.792   1.333   0.849
 2619SOL    HW1 7870   4.799   1.249   0.794
 2619SOL    HW2 7871   4.854   1.402   0.813
 2620SOL     OW 7872   4.043   0.810   0.949
 2620SOL    HW1 7873   4.136   0.846   0.954
 2620SOL    HW2 7874   4.037   0.725   1.001
 2621SOL     OW 7875   4.063   0.509   1.006
 2621SOL    HW1 7876   4.011   0.426   0.989
 2621SOL    HW2 7877   4.140   0.514   0.942
 2622SOL     OW 7878   3.732   1.326   0.200
 2622SOL    HW1 7879   3.639   1.347   0.169
 2622SOL    HW2 7880   3.742   1.227   0.213
 2623SOL     OW 7881   3.812   1.801   0.927
 2623SOL    HW1 7882   3.770   1.715   0.900
 2623SOL    HW2 7883   3.906   1.804   0.893
 2624SOL     OW 7884   4.228   1.568   0.910
 2624SOL    HW1 7885   4.294   1.642   0.919
 2624SOL    HW2 7886   4.272   1.489   0.868
 2625SOL     OW 7887   3.764   0.544   1.114
 2625SOL    HW1 7888   3.849   0.511   1.073
 2625SOL    HW2 7889   3.777   0.559   1.212
 2626SOL     OW 7890   3.913   0.520   1.722
 2626SOL    HW1 7891   3.972   0.480   1.652
 2626SOL    HW2 7892   3.855   0.591   1.681
 2627SOL     OW 7893   4.539   0.572   0.325
 2627SOL    HW1 7894   4.546   0.483   0.279
 2627SOL    HW2 7895   4.445   0.606   0.317
 2628SOL     OW 7896   3.976   1.564   1.744
 2628SOL    HW1 7897   3.946   1.621   1.820
 2628SOL    HW2 7898   3.969   1.467   1.770
 2629SOL     OW 7899   4.395   0.464   1.269
 2629SOL    HW1 7900   4.361   0.375   1.239
 2629SOL    HW2 7901   4.421   0.518   1.189
 2630SOL     OW 7902   4.197   0.500   0.191
 2630SOL    HW1 7903   4.258   0.580   0.195
 2630SOL    HW2 7904   4.102   0.531   0.198
 2631SOL     OW 7905   3.883   1.137   1.466
 2631SOL    HW1 7906   3.905   1.076   1.542
 2631SOL    HW2 7907   3.893   1.088   1.380
 2632SOL     OW 7908   3.807   1.258   1.022
 2632SOL    HW1 7909   3.802   1.257   1.122
 2632SOL    HW2 7910   3.724   1.217   0.984
 2633SOL     OW 7911   4.412   1.662   1.716
 2633SOL    HW1 7912   4.356   1.743   1.725
 2633SOL    HW2 7913   4.464   1.666   1.630
 2634SOL     OW 7914   3.854   1.794   1.851
 2634SOL    HW1 7915   3.813   1.720   1.904
 2634SOL    HW2 7916   3.918   1.845   1.909
 2635SOL     OW 7917   4.396   1.616   0.154
 2635SOL    HW1 7918   4.405   1.626   0.055
 2635SOL    HW2 7919   4.356   1.527   0.175
 2636SOL     OW 7920   3.987   0.326   0.720
 2636SOL    HW1 7921   3.908   0.377   0.686
 2636SOL    HW2 7922   3.978   0.311   0.818
 2637SOL     OW 7923   4.546   1.002   1.372
 2637SOL    HW1 7924   4.586   1.001   1.280
 2637SOL    HW2 7925   4.556   1.094   1.412
 2638SOL     OW 7926   4.096   1.288   1.490
 2638SOL    HW1 7927   4.083   1.381   1.456
 2638SOL    HW2 7928   4.012   1.236   1.477
 2639SOL     OW 7929   4.314   1.487   0.491
 2639SOL    HW1 7930   4.356   1.429   0.421
 2639SOL    HW2 7931   4.270   1.566   0.447
 2640SOL     OW 7932   3.979   1.348   0.290
 2640SOL    HW1 7933   3.883   1.349   0.263
 2640SOL    HW2 7934   3.991   1.401   0.374
 2641SOL     OW 7935   3.829   1.013   1.726
 2641SOL    HW1 7936   3.752   0.980   1.780
 2641SOL    HW2 7937   3.914   0.983   1.768
 2642SOL     OW 7938   4.396   0.203   1.489
 2642SOL    HW1 7939   4.486   0.187   1.449
 2642SOL    HW2 7940   4.404   0.208   1.588
 2643SOL     OW 7941   3.799   0.345   0.033
 2643SOL    HW1 7942   3.707   0.317   0.004
 2643SOL    HW2 7943   3.830   0.422  -0.023
 2644SOL     OW 7944   3.796   0.166   0.318
 2644SOL    HW1 7945   3.779   0.249   0.264
 2644SOL    HW2 7946   3.886   0.129   0.296
 2645SOL     OW 7947   4.337   0.842   1.431
 2645SOL    HW1 7948   4.393   0.923   1.414
 2645SOL    HW2 7949   4.396   0.762   1.434
 2646SOL     OW 7950   4.440   0.565   1.708
 2646SOL    HW1 7951   4.459   0.630   1.782
 2646SOL    HW2 7952   4.500   0.485   1.717
 2647SOL     OW 7953   4.114   1.741   1.560
 2647SOL    HW1 7954   4.023   1.782   1.558
 2647SOL    HW2 7955   4.107   1.647   1.592
 2648SOL     OW 7956   4.318   0.745   0.652
 2648SOL    HW1 7957   4.368   0.830   0.633
 2648SOL    HW2 7958   4.230   0.747   0.604
 2649SOL     OW 7959   4.385   1.790   0.953
 2649SOL    HW1 7960   4.339   1.878   0.940
 2649SOL    HW2 7961   4.484   1.802   0.946
 2650SOL     OW 7962   3.945   1.314   1.844
 2650SOL    HW1 7963   3.880   1.241   1.823
 2650SOL    HW2 7964   3.949   1.328   1.942
 2651SOL     OW 7965   3.803   1.240   0.653
 2651SOL    HW1 7966   3.802   1.193   0.741
 2651SOL    HW2 7967   3.885   1.212   0.602
 2652SOL     OW 7968   4.396   1.391   1.624
 2652SOL    HW1 7969   4.318   1.341   1.662
 2652SOL    HW2 7970   4.393   1.486   1.655
 2653SOL     OW 7971   4.152   0.424   0.520
 2653SOL    HW1 7972   4.182   0.352   0.458
 2653SOL    HW2 7973   4.113   0.384   0.603
 2654SOL     OW 7974   4.041   0.547   1.280
 2654SOL    HW1 7975   4.079   0.488   1.352
 2654SOL    HW2 7976   4.081   0.521   1.192
 2655SOL     OW 7977   4.536   1.586   0.687
 2655SOL    HW1 7978   4.568   1.596   0.593
 2655SOL    HW2 7979   4.457   1.524   0.689
 2656SOL     OW 7980   4.725   0.034   1.154
 2656SOL    HW1 7981   4.662  -0.038   1.123
 2656SOL    HW2 7982   4.818  -0.002   1.154
 2657SOL     OW 7983   4.342   1.567   1.284
 2657SOL    HW1 7984   4.337   1.649   1.341
 2657SOL    HW2 7985   4.431   1.564   1.239
 2658SOL     OW 7986   3.763   1.077   0.300
 2658SOL    HW1 7987   3.862   1.066   0.291
 2658SOL    HW2 7988   3.723   0.991   0.332
 2659SOL     OW 7989   3.954   0.628   1.975
 2659SOL    HW1 7990   3.861   0.626   2.012
 2659SOL    HW2 7991   3.955   0.589   1.883
 2660SOL     OW 7992   3.949   0.275   2.858
 2660SOL    HW1 7993   3.984   0.258   2.950
 2660SOL    HW2 7994   3.861   0.230   2.846
 2661SOL     OW 7995   3.743   0.368   2.509
 2661SOL    HW1 7996   3.661   0.411   2.548
 2661SOL    HW2 7997   3.715   0.295   2.446
 2662SOL     OW 7998   4.293   1.275   3.027
 2662SOL    HW1 7999   4.200   1.268   2.990
 2662SOL    HW2 8000   4.304   1.364   3.071
 2663SOL     OW 8001   4.574   0.798   3.685
 2663SOL    HW1 8002   4.570   0.874   3.750
 2663SOL    HW2 8003   4.596   0.834   3.594
 2664SOL     OW 8004   4.409   1.012   2.527
 2664SOL    HW1 8005   4.478   0.996   2.597
 2664SOL    HW2 8006   4.336   1.069   2.565
 2665SOL     OW 8007   4.410   1.161   3.665
 2665SOL    HW1 8008   4.470   1.240   3.679
 2665SOL    HW2 8009   4.324   1.192   3.624
 2666SOL     OW 8010   4.059   1.435   2.923
 2666SOL    HW1 8011   3.981   1.404   2.870
 2666SOL    HW2 8012   4.117   1.493   2.866
 2667SOL     OW 8013   4.162   0.392   3.361
 2667SOL    HW1 8014   4.244   0.336   3.370
 2667SOL    HW2 8015   4.081   0.334   3.365
 2668SOL     OW 8016   3.955   1.713   2.345
 2668SOL    HW1 8017   3.989   1.790   2.399
 2668SOL    HW2 8018   3.999   1.713   2.255
 2669SOL     OW 8019   3.954   1.434   2.400
 2669SOL    HW1 8020   3.928   1.530   2.400
 2669SOL    HW2 8021   3.883   1.380   2.445
 2670SOL     OW 8022   3.964   1.091   2.748
 2670SOL    HW1 8023   3.978   1.007   2.800
 2670SOL    HW2 8024   3.909   1.155   2.803
 2671SOL     OW 8025   4.344   1.786   3.301
 2671SOL    HW1 8026   4.252   1.769   3.336
 2671SOL    HW2 8027   4.372   1.878   3.327
 2672SOL     OW 8028   4.330   0.964   1.985
 2672SOL    HW1 8029   4.337   1.048   1.931
 2672SOL    HW2 8030   4.376   0.977   2.073
 2673SOL     OW 8031   3.846   0.643   2.425
 2673SOL    HW1 8032   3.801   0.555   2.442
 2673SOL    HW2 8033   3.845   0.697   2.509
 2674SOL     OW 8034   3.751   1.596   1.979
 2674SOL    HW1 8035   3.732   1.500   2.000
 2674SOL    HW2 8036   3.718   1.654   2.054
 2675SOL     OW 8037   3.837   0.737   3.459
 2675SOL    HW1 8038   3.925   0.724   3.504
 2675SOL    HW2 8039   3.824   0.834   3.437
 2676SOL     OW 8040   4.337   1.365   2.588
 2676SOL    HW1 8041   4.288   1.278   2.597
 2676SOL    HW2 8042   4.314   1.408   2.501
 2677SOL     OW 8043   4.533   0.004   2.364
 2677SOL    HW1 8044   4.573   0.095   2.355
 2677SOL    HW2 8045   4.433   0.012   2.370
 2678SOL     OW 8046   3.921   0.976   3.126
 2678SOL    HW1 8047   4.010   0.931   3.112
 2678SOL    HW2 8048   3.848   0.911   3.107
 2679SOL     OW 8049   4.041   0.251   3.663
 2679SOL    HW1 8050   4.112   0.322   3.669
 2679SOL    HW2 8051   3.953   0.290   3.691
 2680SOL     OW 8052   4.322   0.729   2.132
 2680SOL    HW1 8053   4.346   0.798   2.064
 2680SOL    HW2 8054   4.244   0.762   2.186
 2681SOL     OW 8055   3.800   0.811   2.651
 2681SOL    HW1 8056   3.899   0.799   2.660
 2681SOL    HW2 8057   3.776   0.906   2.672
 2682SOL     OW 8058   3.854   1.821   3.433
 2682SOL    HW1 8059   3.844   1.806   3.532
 2682SOL    HW2 8060   3.768   1.857   3.397
 2683SOL     OW 8061   4.274   0.196   2.747
 2683SOL    HW1 8062   4.269   0.191   2.847
 2683SOL    HW2 8063   4.276   0.292   2.718
 2684SOL     OW 8064   4.075   1.801   2.715
 2684SOL    HW1 8065   4.125   1.715   2.721
 2684SOL    HW2 8066   4.140   1.878   2.712
 2685SOL     OW 8067   4.045   0.943   2.104
 2685SOL    HW1 8068   4.127   0.982   2.062
 2685SOL    HW2 8069   4.018   0.861   2.055
 2686SOL     OW 8070   4.185   1.266   3.589
 2686SOL    HW1 8071   4.135   1.267   3.503
 2686SOL    HW2 8072   4.122   1.248   3.665
 2687SOL     OW 8073   3.926   0.285   3.360
 2687SOL    HW1 8074   3.846   0.345   3.347
 2687SOL    HW2 8075   3.916   0.236   3.446
 2688SOL     OW 8076   4.188   1.743   2.185
 2688SOL    HW1 8077   4.221   1.782   2.271
 2688SOL    HW2 8078   4.264   1.736   2.120
 2689SOL     OW 8079   3.973   1.785   3.103
 2689SOL    HW1 8080   4.030   1.720   3.153
 2689SOL    HW2 8081   3.957   1.752   3.010
 2690SOL     OW 8082   4.106   0.700   2.342
 2690SOL    HW1 8083   4.151   0.610   2.339
 2690SOL    HW2 8084   4.012   0.689   2.375
 2691SOL     OW 8085   4.338   0.122   1.979
 2691SOL    HW1 8086   4.436   0.100   1.986
 2691SOL    HW2 8087   4.307   0.105   1.886
 2692SOL     OW 8088   4.527   1.402   2.786
 2692SOL    HW1 8089   4.617   1.416   2.744
 2692SOL    HW2 8090   4.456   1.404   2.715
 2693SOL     OW 8091   4.646   0.503   2.761
 2693SOL    HW1 8092   4.621   0.494   2.665
 2693SOL    HW2 8093   4.694   0.421   2.792
 2694SOL     OW 8094   4.263   0.064   2.374
 2694SOL    HW1 8095   4.182   0.065   2.432
 2694SOL    HW2 8096   4.266   0.147   2.319
 2695SOL     OW 8097   4.021   0.035   2.033
 2695SOL    HW1 8098   4.070   0.119   2.012
 2695SOL    HW2 8099   4.083  -0.030   2.078
 2696SOL     OW 8100   4.183   1.152   2.603
 2696SOL    HW1 8101   4.112   1.125   2.668
 2696SOL    HW2 8102   4.157   1.124   2.510
 2697SOL     OW 8103   3.802   0.556   3.248
 2697SOL    HW1 8104   3.894   0.555   3.207
 2697SOL    HW2 8105   3.796   0.630   3.315
 2698SOL     OW 8106   4.285   0.222   3.009
 2698SOL    HW1 8107   4.323   0.138   3.046
 2698SOL    HW2 8108   4.197   0.241   3.053
 2699SOL     OW 8109   4.212   1.385   2.036
 2699SOL    HW1 8110   4.125   1.370   2.083
 2699SOL    HW2 8111   4.195   1.411   1.941
 2700SOL     OW 8112   4.251   0.256   2.190
 2700SOL    HW1 8113   4.278   0.197   2.115
 2700SOL    HW2 8114   4.251   0.351   2.159
 2701SOL     OW 8115   4.639   0.089   3.264
 2701SOL    HW1 8116   4.664   0.069   3.169
 2701SOL    HW2 8117   4.711   0.145   3.306
 2702SOL     OW 8118   4.134   0.813   3.113
 2702SOL    HW1 8119   4.220   0.825   3.163
 2702SOL    HW2 8120   4.092   0.726   3.140
 2703SOL     OW 8121   3.788   1.564   3.193
 2703SOL    HW1 8122   3.742   1.646   3.159
 2703SOL    HW2 8123   3.886   1.583   3.202
 2704SOL     OW 8124   4.091   1.100   2.363
 2704SOL    HW1 8125   4.084   1.183   2.307
 2704SOL    HW2 8126   4.095   1.020   2.303
 2705SOL     OW 8127   4.290   0.537   2.727
 2705SOL    HW1 8128   4.302   0.603   2.653
 2705SOL    HW2 8129   4.336   0.571   2.810
 2706SOL     OW 8130   4.078   1.510   3.191
 2706SOL    HW1 8131   4.057   1.466   3.104
 2706SOL    HW2 8132   4.175   1.536   3.194
 2707SOL     OW 8133   4.126   0.751   3.460
 2707SOL    HW1 8134   4.194   0.806   3.413
 2707SOL    HW2 8135   4.166   0.663   3.487
 2708SOL     OW 8136   4.228   0.050   3.602
 2708SOL    HW1 8137   4.186  -0.007   3.532
 2708SOL    HW2 8138   4.162   0.119   3.634
 2709SOL     OW 8139   4.297   0.870   2.891
 2709SOL    HW1 8140   4.341   0.959   2.882
 2709SOL    HW2 8141   4.234   0.870   2.968
 2710SOL     OW 8142   4.031   0.213   3.093
 2710SOL    HW1 8143   4.008   0.250   3.183
 2710SOL    HW2 8144   4.001   0.118   3.087
 2711SOL     OW 8145   3.761   1.310   3.144
 2711SOL    HW1 8146   3.814   1.261   3.212
 2711SOL    HW2 8147   3.783   1.408   3.149
 2712SOL     OW 8148   4.456   0.634   2.926
 2712SOL    HW1 8149   4.515   0.608   2.850
 2712SOL    HW2 8150   4.428   0.730   2.915
 2713SOL     OW 8151   4.031   0.063   2.480
 2713SOL    HW1 8152   4.020   0.157   2.513
 2713SOL    HW2 8153   4.026   0.000   2.557
 2714SOL     OW 8154   4.074   0.898   3.666
 2714SOL    HW1 8155   4.150   0.942   3.714
 2714SOL    HW2 8156   4.109   0.851   3.584
 2715SOL     OW 8157   4.792   1.333   2.711
 2715SOL    HW1 8158   4.799   1.249   2.656
 2715SOL    HW2 8159   4.854   1.402   2.675
 2716SOL     OW 8160   4.043   0.810   2.811
 2716SOL    HW1 8161   4.136   0.846   2.816
 2716SOL    HW2 8162   4.037   0.725   2.863
 2717SOL     OW 8163   4.063   0.509   2.868
 2717SOL    HW1 8164   4.011   0.426   2.851
 2717SOL    HW2 8165   4.140   0.514   2.804
 2718SOL     OW 8166   3.732   1.326   2.062
 2718SOL    HW1 8167   3.639   1.347   2.031
 2718SOL    HW2 8168   3.742   1.227   2.075
 2719SOL     OW 8169   3.812   1.801   2.789
 2719SOL    HW1 8170   3.770   1.715   2.762
 2719SOL    HW2 8171   3.906   1.804   2.755
 2720SOL     OW 8172   4.228   1.568   2.772
 2720SOL    HW1 8173   4.294   1.642   2.781
 2720SOL    HW2 8174   4.272   1.489   2.730
 2721SOL     OW 8175   3.764   0.544   2.976
 2721SOL    HW1 8176   3.849   0.511   2.935
 2721SOL    HW2 8177   3.777   0.559   3.074
 2722SOL     OW 8178   3.913   0.520   3.584
 2722SOL    HW1 8179   3.972   0.480   3.514
 2722SOL    HW2 8180   3.855   0.591   3.543
 2723SOL     OW 8181   4.539   0.572   2.187
 2723SOL    HW1 8182   4.546   0.483   2.141
 2723SOL    HW2 8183   4.445   0.606   2.179
 2724SOL     OW 8184   3.976   1.564   3.606
 2724SOL    HW1 8185   3.946   1.621   3.682
 2724SOL    HW2 8186   3.969   1.467   3.632
 2725SOL     OW 8187   4.395   0.464   3.131
 2725SOL    HW1 8188   4.361   0.375   3.101
 2725SOL    HW2 8189   4.421   0.518   3.051
 2726SOL     OW 8190   4.197   0.500   2.053
 2726SOL    HW1 8191   4.258   0.580   2.057
 2726SOL    HW2 8192   4.102   0.531   2.060
 2727SOL     OW 8193   3.883   1.137   3.328
 2727SOL    HW1 8194   3.905   1.076   3.404
 2727SOL    HW2 8195   3.893   1.088   3.242
 2728SOL     OW 8196   3.807   1.258   2.884
 2728SOL    HW1 8197   3.802   1.257   2.984
 2728SOL    HW2 8198   3.724   1.217   2.846
 2729SOL     OW 8199   4.412   1.662   3.578
 2729SOL    HW1 8200   4.356   1.743   3.587
 2729SOL    HW2 8201   4.464   1.666   3.492
 2730SOL     OW 8202   4.627   0.086   1.995
 2730SOL    HW1 8203   4.678   0.087   1.909
 2730SOL    HW2 8204   4.683   0.044   2.066
 2731SOL     OW 8205   3.854   1.794   3.713
 2731SOL    HW1 8206   3.813   1.720   3.766
 2731SOL    HW2 8207   3.918   1.845   3.771
 2732SOL     OW 8208   4.396   1.616   2.016
 2732SOL    HW1 8209   4.405   1.626   1.917
 2732SOL    HW2 8210   4.356   1.527   2.037
 2733SOL     OW 8211   3.987   0.326   2.582
 2733SOL    HW1 8212   3.908   0.377   2.548
 2733SOL    HW2 8213   3.978   0.311   2.680
 2734SOL     OW 8214   4.546   1.002   3.234
 2734SOL    HW1 8215   4.586   1.001   3.142
 2734SOL    HW2 8216   4.556   1.094   3.274
 2735SOL     OW 8217   4.096   1.288   3.352
 2735SOL    HW1 8218   4.083   1.381   3.318
 2735SOL    HW2 8219   4.012   1.236   3.339
 2736SOL     OW 8220   4.314   1.487   2.353
 2736SOL    HW1 8221   4.356   1.429   2.283
 2736SOL    HW2 8222   4.270   1.566   2.309
 2737SOL     OW 8223   3.979   1.348   2.152
 2737SOL    HW1 8224   3.883   1.349   2.125
 2737SOL    HW2 8225   3.991   1.401   2.236
 2738SOL     OW 8226   3.829   1.013   3.588
 2738SOL    HW1 8227   3.752   0.980   3.642
 2738SOL    HW2 8228   3.914   0.983   3.630
 2739SOL     OW 8229   4.396   0.203   3.351
 2739SOL    HW1 8230   4.486   0.187   3.311
 2739SOL    HW2 8231   4.404   0.208   3.450
 2740SOL     OW 8232   3.799   0.345   1.895
 2740SOL    HW1 8233   3.707   0.317   1.866
 2740SOL    HW2 8234   3.830   0.422   1.839
 2741SOL     OW 8235   3.796   0.166   2.180
 2741SOL    HW1 8236   3.779   0.249   2.126
 2741SOL    HW2 8237   3.886   0.129   2.158
 2742SOL     OW 8238   4.337   0.842   3.293
 2742SOL    HW1 8239   4.393   0.923   3.276
 2742SOL    HW2 8240   4.396   0.762   3.296
 2743SOL     OW 8241   4.440   0.565   3.570
 2743SOL    HW1 8242   4.459   0.630   3.644
 2743SOL    HW2 8243   4.500   0.485   3.579
 2744SOL     OW 8244   4.114   1.741   3.422
 2744SOL    HW1 8245   4.023   1.782   3.420
 2744SOL    HW2 8246   4.107   1.647   3.454
 2745SOL     OW 8247   4.318   0.745   2.514
 2745SOL    HW1 8248   4.368   0.830   2.495
 2745SOL    HW2 8249   4.230   0.747   2.466
 2746SOL     OW 8250   4.385   1.790   2.815
 2746SOL    HW1 8251   4.339   1.878   2.802
 2746SOL    HW2 8252   4.484   1.802   2.808
 2747SOL     OW 8253   3.945   1.314   3.706
 2747SOL    HW1 8254   3.880   1.241   3.685
 2747SOL    HW2 8255   3.949   1.328   3.804
 2748SOL     OW 8256   3.803   1.240   2.515
 2748SOL    HW1 8257   3.802   1.193   2.603
 2748SOL    HW2 8258   3.885   1.212   2.464
 2749SOL     OW 8259   4.396   1.391   3.486
 2749SOL    HW1 8260   4.318   1.341   3.524
 2749SOL    HW2 8261   4.393   1.486   3.517
 2750SOL     OW 8262   4.152   0.424   2.382
 2750SOL    HW1 8263   4.182   0.352   2.320
 2750SOL    HW2 8264   4.113   0.384   2.465
 2751SOL     OW 8265   4.041   0.547   3.142
 2751SOL    HW1 8266   4.079   0.488   3.214
 2751SOL    HW2 8267   4.081   0.521   3.054
 2752SOL     OW 8268   4.536   1.586   2.549
 2752SOL    HW1 8269   4.568   1.596   2.455
 2752SOL    HW2 8270   4.457   1.524   2.551
 2753SOL     OW 8271   4.725   0.034   3.016
 2753SOL    HW1 8272   4.662  -0.038   2.985
 2753SOL    HW2 8273   4.818  -0.002   3.016
 2754SOL     OW 8274   4.342   1.567   3.146
 2754SOL    HW1 8275   4.337   1.649   3.203
 2754SOL    HW2 8276   4.431   1.564   3.101
 2755SOL     OW 8277   3.763   1.077   2.162
 2755SOL    HW1 8278   3.862   1.066   2.153
 2755SOL    HW2 8279   3.723   0.991   2.194
 2756SOL     OW 8280   3.954   0.628   3.837
 2756SOL    HW1 8281   3.861   0.626   3.874
 2756SOL    HW2 8282   3.955   0.589   3.745
 2757SOL     OW 8283   3.949   0.275   4.720
 2757SOL    HW1 8284   3.984   0.258   4.812
 2757SOL    HW2 8285   3.861   0.230   4.708
 2758SOL     OW 8286   3.743   0.368   4.371
 2758SOL    HW1 8287   3.661   0.411   4.410
 2758SOL    HW2 8288   3.715   0.295   4.308
 2759SOL     OW 8289   4.409   1.012   4.389
 2759SOL    HW1 8290   4.478   0.996   4.459
 2759SOL    HW2 8291   4.336   1.069   4.427
 2760SOL     OW 8292   3.955   1.713   4.207
 2760SOL    HW1 8293   3.989   1.790   4.261
 2760SOL    HW2 8294   3.999   1.713   4.117
 2761SOL     OW 8295   3.954   1.434   4.262
 2761SOL    HW1 8296   3.928   1.530   4.262
 2761SOL    HW2 8297   3.883   1.380   4.307
 2762SOL     OW 8298   3.964   1.091   4.610
 2762SOL    HW1 8299   3.978   1.007   4.662
 2762SOL    HW2 8300   3.909   1.155   4.665
 2763SOL     OW 8301   4.330   0.964   3.847
 2763SOL    HW1 8302   4.337   1.048   3.793
 2763SOL    HW2 8303   4.376   0.977   3.935
 2764SOL     OW 8304   3.846   0.643   4.287
 2764SOL    HW1 8305   3.801   0.555   4.304
 2764SOL    HW2 8306   3.845   0.697   4.371
 2765SOL     OW 8307   3.751   1.596   3.841
 2765SOL    HW1 8308   3.732   1.500   3.862
 2765SOL    HW2 8309   3.718   1.654   3.916
 2766SOL     OW 8310   4.337   1.365   4.450
 2766SOL    HW1 8311   4.288   1.278   4.459
 2766SOL    HW2 8312   4.314   1.408   4.363
 2767SOL     OW 8313   4.533   0.004   4.226
 2767SOL    HW1 8314   4.573   0.095   4.217
 2767SOL    HW2 8315   4.433   0.012   4.232
 2768SOL     OW 8316   4.322   0.729   3.994
 2768SOL    HW1 8317   4.346   0.798   3.926
 2768SOL    HW2 8318   4.244   0.762   4.048
 2769SOL     OW 8319   3.800   0.811   4.513
 2769SOL    HW1 8320   3.899   0.799   4.522
 2769SOL    HW2 8321   3.776   0.906   4.534
 2770SOL     OW 8322   4.075   1.801   4.577
 2770SOL    HW1 8323   4.125   1.715   4.583
 2770SOL    HW2 8324   4.140   1.878   4.574
 2771SOL     OW 8325   4.045   0.943   3.966
 2771SOL    HW1 8326   4.127   0.982   3.924
 2771SOL    HW2 8327   4.018   0.861   3.917
 2772SOL     OW 8328   4.188   1.743   4.047
 2772SOL    HW1 8329   4.221   1.782   4.133
 2772SOL    HW2 8330   4.264   1.736   3.982
 2773SOL     OW 8331   4.106   0.700   4.204
 2773SOL    HW1 8332   4.151   0.610   4.201
 2773SOL    HW2 8333   4.012   0.689   4.237
 2774SOL     OW 8334   4.338   0.122   3.841
 2774SOL    HW1 8335   4.436   0.100   3.848
 2774SOL    HW2 8336   4.307   0.105   3.748
 2775SOL     OW 8337   4.263   0.064   4.236
 2775SOL    HW1 8338   4.182   0.065   4.294
 2775SOL    HW2 8339   4.266   0.147   4.181
 2776SOL     OW 8340   4.021   0.035   3.895
 2776SOL    HW1 8341   4.070   0.119   3.874
 2776SOL    HW2 8342   4.083  -0.030   3.940
 2777SOL     OW 8343   4.183   1.152   4.465
 2777SOL    HW1 8344   4.112   1.125   4.530
 2777SOL    HW2 8345   4.157   1.124   4.372
 2778SOL     OW 8346   4.212   1.385   3.898
 2778SOL    HW1 8347   4.125   1.370   3.945
 2778SOL    HW2 8348   4.195   1.411   3.803
 2779SOL     OW 8349   4.251   0.256   4.052
 2779SOL    HW1 8350   4.278   0.197   3.977
 2779SOL    HW2 8351   4.251   0.351   4.021
 2780SOL     OW 8352   4.091   1.100   4.225
 2780SOL    HW1 8353   4.084   1.183   4.169
 2780SOL    HW2 8354   4.095   1.020   4.165
 2781SOL     OW 8355   4.031   0.063   4.342
 2781SOL    HW1 8356   4.020   0.157   4.375
 2781SOL    HW2 8357   4.026   0.000   4.419
 2782SOL     OW 8358   4.792   1.333   4.573
 2782SOL    HW1 8359   4.799   1.249   4.518
 2782SOL    HW2 8360   4.854   1.402   4.537
 2783SOL     OW 8361   3.732   1.326   3.924
 2783SOL    HW1 8362   3.639   1.347   3.893
 2783SOL    HW2 8363   3.742   1.227   3.937
 2784SOL     OW 8364   4.539   0.572   4.049
 2784SOL    HW1 8365   4.546   0.483   4.003
 2784SOL    HW2 8366   4.445   0.606   4.041
 2785SOL     OW 8367   4.197   0.500   3.915
 2785SOL    HW1 8368   4.258   0.580   3.919
 2785SOL    HW2 8369   4.102   0.531   3.922
 2786SOL     OW 8370   4.627   0.086   3.857
 2786SOL    HW1 8371   4.678   0.087   3.771
 2786SOL    HW2 8372   4.683   0.044   3.928
 2787SOL     OW 8373   4.396   1.616   3.878
 2787SOL    HW1 8374   4.405   1.626   3.779
 2787SOL    HW2 8375   4.356   1.527   3.899
 2788SOL     OW 8376   3.987   0.326   4.444
 2788SOL    HW1 8377   3.908   0.377   4.410
 2788SOL    HW2 8378   3.978   0.311   4.542
 2789SOL     OW 8379   4.314   1.487   4.215
 2789SOL    HW1 8380   4.356   1.429   4.145
 2789SOL    HW2 8381   4.270   1.566   4.171
 2790SOL     OW 8382   3.979   1.348   4.014
 2790SOL    HW1 8383   3.883   1.349   3.987
 2790SOL    HW2 8384   3.991   1.401   4.098
 2791SOL     OW 8385   3.799   0.345   3.757
 2791SOL    HW1 8386   3.707   0.317   3.728
 2791SOL    HW2 8387   3.830   0.422   3.701
 2792SOL     OW 8388   3.796   0.166   4.042
 2792SOL    HW1 8389   3.779   0.249   3.988
 2792SOL    HW2 8390   3.886   0.129   4.020
 2793SOL     OW 8391   4.318   0.745   4.376
 2793SOL    HW1 8392   4.368   0.830   4.357
 2793SOL    HW2 8393   4.230   0.747   4.328
 2794SOL     OW 8394   4.385   1.790   4.677
 2794SOL    HW1 8395   4.339   1.878   4.664
 2794SOL    HW2 8396   4.484   1.802   4.670
 2795SOL     OW 8397   3.803   1.240   4.377
 2795SOL    HW1 8398   3.802   1.193   4.465
 2795SOL    HW2 8399   3.885   1.212   4.326
 2796SOL     OW 8400   4.152   0.424   4.244
 2796SOL    HW1 8401   4.182   0.352   4.182
 2796SOL    HW2 8402   4.113   0.384   4.327
 2797SOL     OW 8403   4.536   1.586   4.411
 2797SOL    HW1 8404   4.568   1.596   4.317
 2797SOL    HW2 8405   4.457   1.524   4.413
 2798SOL     OW 8406   3.763   1.077   4.024
 2798SOL    HW1 8407   3.862   1.066   4.015
 2798SOL    HW2 8408   3.723   0.991   4.056
 2799SOL     OW 8409   3.954   2.490   0.113
 2799SOL    HW1 8410   3.861   2.488   0.150
 2799SOL    HW2 8411   3.955   2.451   0.021
 2800SOL     OW 8412   3.949   2.137   0.996
 2800SOL    HW1 8413   3.984   2.120   1.088
 2800SOL    HW2 8414   3.861   2.092   0.984
 2801SOL     OW 8415   3.743   2.230   0.647
 2801SOL    HW1 8416   3.661   2.273   0.686
 2801SOL    HW2 8417   3.715   2.157   0.584
 2802SOL     OW 8418   4.293   3.137   1.165
 2802SOL    HW1 8419   4.200   3.130   1.128
 2802SOL    HW2 8420   4.304   3.226   1.209
 2803SOL     OW 8421   4.574   2.660   1.823
 2803SOL    HW1 8422   4.570   2.736   1.888
 2803SOL    HW2 8423   4.596   2.696   1.732
 2804SOL     OW 8424   4.409   2.874   0.665
 2804SOL    HW1 8425   4.478   2.858   0.735
 2804SOL    HW2 8426   4.336   2.931   0.703
 2805SOL     OW 8427   4.410   3.023   1.803
 2805SOL    HW1 8428   4.470   3.102   1.817
 2805SOL    HW2 8429   4.324   3.054   1.762
 2806SOL     OW 8430   4.059   3.297   1.061
 2806SOL    HW1 8431   3.981   3.266   1.008
 2806SOL    HW2 8432   4.117   3.355   1.004
 2807SOL     OW 8433   4.162   2.254   1.499
 2807SOL    HW1 8434   4.244   2.198   1.508
 2807SOL    HW2 8435   4.081   2.196   1.503
 2808SOL     OW 8436   3.955   3.575   0.483
 2808SOL    HW1 8437   3.989   3.652   0.537
 2808SOL    HW2 8438   3.999   3.575   0.393
 2809SOL     OW 8439   3.954   3.296   0.538
 2809SOL    HW1 8440   3.928   3.392   0.538
 2809SOL    HW2 8441   3.883   3.242   0.583
 2810SOL     OW 8442   3.964   2.953   0.886
 2810SOL    HW1 8443   3.978   2.869   0.938
 2810SOL    HW2 8444   3.909   3.017   0.941
 2811SOL     OW 8445   4.344   3.648   1.439
 2811SOL    HW1 8446   4.252   3.631   1.474
 2811SOL    HW2 8447   4.372   3.740   1.465
 2812SOL     OW 8448   4.330   2.826   0.123
 2812SOL    HW1 8449   4.337   2.910   0.069
 2812SOL    HW2 8450   4.376   2.839   0.211
 2813SOL     OW 8451   3.846   2.505   0.563
 2813SOL    HW1 8452   3.801   2.417   0.580
 2813SOL    HW2 8453   3.845   2.559   0.647
 2814SOL     OW 8454   3.751   3.458   0.117
 2814SOL    HW1 8455   3.732   3.362   0.138
 2814SOL    HW2 8456   3.718   3.516   0.192
 2815SOL     OW 8457   3.837   2.599   1.597
 2815SOL    HW1 8458   3.925   2.586   1.642
 2815SOL    HW2 8459   3.824   2.696   1.575
 2816SOL     OW 8460   4.337   3.227   0.726
 2816SOL    HW1 8461   4.288   3.140   0.735
 2816SOL    HW2 8462   4.314   3.270   0.639
 2817SOL     OW 8463   4.533   1.866   0.502
 2817SOL    HW1 8464   4.573   1.957   0.493
 2817SOL    HW2 8465   4.433   1.874   0.508
 2818SOL     OW 8466   3.921   2.838   1.264
 2818SOL    HW1 8467   4.010   2.793   1.250
 2818SOL    HW2 8468   3.848   2.773   1.245
 2819SOL     OW 8469   4.041   2.113   1.801
 2819SOL    HW1 8470   4.112   2.184   1.807
 2819SOL    HW2 8471   3.953   2.152   1.829
 2820SOL     OW 8472   4.322   2.591   0.270
 2820SOL    HW1 8473   4.346   2.660   0.202
 2820SOL    HW2 8474   4.244   2.624   0.324
 2821SOL     OW 8475   3.800   2.673   0.789
 2821SOL    HW1 8476   3.899   2.661   0.798
 2821SOL    HW2 8477   3.776   2.768   0.810
 2822SOL     OW 8478   3.854   3.683   1.571
 2822SOL    HW1 8479   3.844   3.668   1.670
 2822SOL    HW2 8480   3.768   3.719   1.535
 2823SOL     OW 8481   4.274   2.058   0.885
 2823SOL    HW1 8482   4.269   2.053   0.985
 2823SOL    HW2 8483   4.276   2.154   0.856
 2824SOL     OW 8484   4.075   3.663   0.853
 2824SOL    HW1 8485   4.125   3.577   0.859
 2824SOL    HW2 8486   4.140   3.740   0.850
 2825SOL     OW 8487   4.045   2.805   0.242
 2825SOL    HW1 8488   4.127   2.844   0.200
 2825SOL    HW2 8489   4.018   2.723   0.193
 2826SOL     OW 8490   4.185   3.128   1.727
 2826SOL    HW1 8491   4.135   3.129   1.641
 2826SOL    HW2 8492   4.122   3.110   1.803
 2827SOL     OW 8493   3.926   2.147   1.498
 2827SOL    HW1 8494   3.846   2.207   1.485
 2827SOL    HW2 8495   3.916   2.098   1.584
 2828SOL     OW 8496   4.188   3.605   0.323
 2828SOL    HW1 8497   4.221   3.644   0.409
 2828SOL    HW2 8498   4.264   3.598   0.258
 2829SOL     OW 8499   3.973   3.647   1.241
 2829SOL    HW1 8500   4.030   3.582   1.291
 2829SOL    HW2 8501   3.957   3.614   1.148
 2830SOL     OW 8502   4.106   2.562   0.480
 2830SOL    HW1 8503   4.151   2.472   0.477
 2830SOL    HW2 8504   4.012   2.551   0.513
 2831SOL     OW 8505   4.527   3.264   0.924
 2831SOL    HW1 8506   4.617   3.278   0.882
 2831SOL    HW2 8507   4.456   3.266   0.853
 2832SOL     OW 8508   4.646   2.365   0.899
 2832SOL    HW1 8509   4.621   2.356   0.803
 2832SOL    HW2 8510   4.694   2.283   0.930
 2833SOL     OW 8511   4.263   1.926   0.512
 2833SOL    HW1 8512   4.182   1.927   0.570
 2833SOL    HW2 8513   4.266   2.009   0.457
 2834SOL     OW 8514   4.021   1.897   0.171
 2834SOL    HW1 8515   4.070   1.981   0.150
 2834SOL    HW2 8516   4.083   1.832   0.216
 2835SOL     OW 8517   4.183   3.014   0.741
 2835SOL    HW1 8518   4.112   2.987   0.806
 2835SOL    HW2 8519   4.157   2.986   0.648
 2836SOL     OW 8520   3.802   2.418   1.386
 2836SOL    HW1 8521   3.894   2.417   1.345
 2836SOL    HW2 8522   3.796   2.492   1.453
 2837SOL     OW 8523   4.285   2.084   1.147
 2837SOL    HW1 8524   4.323   2.000   1.184
 2837SOL    HW2 8525   4.197   2.103   1.191
 2838SOL     OW 8526   4.212   3.247   0.174
 2838SOL    HW1 8527   4.125   3.232   0.221
 2838SOL    HW2 8528   4.195   3.273   0.079
 2839SOL     OW 8529   4.251   2.118   0.328
 2839SOL    HW1 8530   4.278   2.059   0.253
 2839SOL    HW2 8531   4.251   2.213   0.297
 2840SOL     OW 8532   4.639   1.951   1.402
 2840SOL    HW1 8533   4.664   1.931   1.307
 2840SOL    HW2 8534   4.711   2.007   1.444
 2841SOL     OW 8535   4.134   2.675   1.251
 2841SOL    HW1 8536   4.220   2.687   1.301
 2841SOL    HW2 8537   4.092   2.588   1.278
 2842SOL     OW 8538   3.788   3.426   1.331
 2842SOL    HW1 8539   3.742   3.508   1.297
 2842SOL    HW2 8540   3.886   3.445   1.340
 2843SOL     OW 8541   4.091   2.962   0.501
 2843SOL    HW1 8542   4.084   3.045   0.445
 2843SOL    HW2 8543   4.095   2.882   0.441
 2844SOL     OW 8544   4.290   2.399   0.865
 2844SOL    HW1 8545   4.302   2.465   0.791
 2844SOL    HW2 8546   4.336   2.433   0.948
 2845SOL     OW 8547   4.078   3.372   1.329
 2845SOL    HW1 8548   4.057   3.328   1.242
 2845SOL    HW2 8549   4.175   3.398   1.332
 2846SOL     OW 8550   4.126   2.613   1.598
 2846SOL    HW1 8551   4.194   2.668   1.551
 2846SOL    HW2 8552   4.166   2.525   1.625
 2847SOL     OW 8553   4.228   1.912   1.740
 2847SOL    HW1 8554   4.186   1.855   1.670
 2847SOL    HW2 8555   4.162   1.981   1.772
 2848SOL     OW 8556   4.297   2.732   1.029
 2848SOL    HW1 8557   4.341   2.821   1.020
 2848SOL    HW2 8558   4.234   2.732   1.106
 2849SOL     OW 8559   4.031   2.075   1.231
 2849SOL    HW1 8560   4.008   2.112   1.321
 2849SOL    HW2 8561   4.001   1.980   1.225
 2850SOL     OW 8562   3.761   3.172   1.282
 2850SOL    HW1 8563   3.814   3.123   1.350
 2850SOL    HW2 8564   3.783   3.270   1.287
 2851SOL     OW 8565   4.456   2.496   1.064
 2851SOL    HW1 8566   4.515   2.470   0.988
 2851SOL    HW2 8567   4.428   2.592   1.053
 2852SOL     OW 8568   4.031   1.925   0.618
 2852SOL    HW1 8569   4.020   2.019   0.651
 2852SOL    HW2 8570   4.026   1.862   0.695
 2853SOL     OW 8571   4.074   2.760   1.804
 2853SOL    HW1 8572   4.150   2.804   1.852
 2853SOL    HW2 8573   4.109   2.713   1.722
 2854SOL     OW 8574   4.792   3.195   0.849
 2854SOL    HW1 8575   4.799   3.111   0.794
 2854SOL    HW2 8576   4.854   3.264   0.813
 2855SOL     OW 8577   4.043   2.672   0.949
 2855SOL    HW1 8578   4.136   2.708   0.954
 2855SOL    HW2 8579   4.037   2.587   1.001
 2856SOL     OW 8580   4.063   2.371   1.006
 2856SOL    HW1 8581   4.011   2.288   0.989
 2856SOL    HW2 8582   4.140   2.376   0.942
 2857SOL     OW 8583   3.732   3.188   0.200
 2857SOL    HW1 8584   3.639   3.209   0.169
 2857SOL    HW2 8585   3.742   3.089   0.213
 2858SOL     OW 8586   3.812   3.663   0.927
 2858SOL    HW1 8587   3.770   3.577   0.900
 2858SOL    HW2 8588   3.906   3.666   0.893
 2859SOL     OW 8589   4.228   3.430   0.910
 2859SOL    HW1 8590   4.294   3.504   0.919
 2859SOL    HW2 8591   4.272   3.351   0.868
 2860SOL     OW 8592   3.764   2.406   1.114
 2860SOL    HW1 8593   3.849   2.373   1.073
 2860SOL    HW2 8594   3.777   2.421   1.212
 2861SOL     OW 8595   3.913   2.382   1.722
 2861SOL    HW1 8596   3.972   2.342   1.652
 2861SOL    HW2 8597   3.855   2.453   1.681
 2862SOL     OW 8598   4.539   2.434   0.325
 2862SOL    HW1 8599   4.546   2.345   0.279
 2862SOL    HW2 8600   4.445   2.468   0.317
 2863SOL     OW 8601   3.976   3.426   1.744
 2863SOL    HW1 8602   3.946   3.483   1.820
 2863SOL    HW2 8603   3.969   3.329   1.770
 2864SOL     OW 8604   4.395   2.326   1.269
 2864SOL    HW1 8605   4.361   2.237   1.239
 2864SOL    HW2 8606   4.421   2.380   1.189
 2865SOL     OW 8607   4.197   2.362   0.191
 2865SOL    HW1 8608   4.258   2.442   0.195
 2865SOL    HW2 8609   4.102   2.393   0.198
 2866SOL     OW 8610   3.883   2.999   1.466
 2866SOL    HW1 8611   3.905   2.938   1.542
 2866SOL    HW2 8612   3.893   2.950   1.380
 2867SOL     OW 8613   3.807   3.120   1.022
 2867SOL    HW1 8614   3.802   3.119   1.122
 2867SOL    HW2 8615   3.724   3.079   0.984
 2868SOL     OW 8616   4.412   3.524   1.716
 2868SOL    HW1 8617   4.356   3.605   1.725
 2868SOL    HW2 8618   4.464   3.528   1.630
 2869SOL     OW 8619   4.627   1.948   0.133
 2869SOL    HW1 8620   4.678   1.949   0.047
 2869SOL    HW2 8621   4.683   1.906   0.204
 2870SOL     OW 8622   3.854   3.656   1.851
 2870SOL    HW1 8623   3.813   3.582   1.904
 2870SOL    HW2 8624   3.918   3.707   1.909
 2871SOL     OW 8625   4.396   3.478   0.154
 2871SOL    HW1 8626   4.405   3.488   0.055
 2871SOL    HW2 8627   4.356   3.389   0.175
 2872SOL     OW 8628   3.987   2.188   0.720
 2872SOL    HW1 8629   3.908   2.239   0.686
 2872SOL    HW2 8630   3.978   2.173   0.818
 2873SOL     OW 8631   4.546   2.864   1.372
 2873SOL    HW1 8632   4.586   2.863   1.280
 2873SOL    HW2 8633   4.556   2.956   1.412
 2874SOL     OW 8634   4.096   3.150   1.490
 2874SOL    HW1 8635   4.083   3.243   1.456
 2874SOL    HW2 8636   4.012   3.098   1.477
 2875SOL     OW 8637   4.314   3.349   0.491
 2875SOL    HW1 8638   4.356   3.291   0.421
 2875SOL    HW2 8639   4.270   3.428   0.447
 2876SOL     OW 8640   3.979   3.210   0.290
 2876SOL    HW1 8641   3.883   3.211   0.263
 2876SOL    HW2 8642   3.991   3.263   0.374
 2877SOL     OW 8643   3.829   2.875   1.726
 2877SOL    HW1 8644   3.752   2.842   1.780
 2877SOL    HW2 8645   3.914   2.845   1.768
 2878SOL     OW 8646   4.396   2.065   1.489
 2878SOL    HW1 8647   4.486   2.049   1.449
 2878SOL    HW2 8648   4.404   2.070   1.588
 2879SOL     OW 8649   3.799   2.207   0.033
 2879SOL    HW1 8650   3.707   2.179   0.004
 2879SOL    HW2 8651   3.830   2.284  -0.023
 2880SOL     OW 8652   3.796   2.028   0.318
 2880SOL    HW1 8653   3.779   2.111   0.264
 2880SOL    HW2 8654   3.886   1.991   0.296
 2881SOL     OW 8655   4.337   2.704   1.431
 2881SOL    HW1 8656   4.393   2.785   1.414
 2881SOL    HW2 8657   4.396   2.624   1.434
 2882SOL     OW 8658   4.440   2.427   1.708
 2882SOL    HW1 8659   4.459   2.492   1.782
 2882SOL    HW2 8660   4.500   2.347   1.717
 2883SOL     OW 8661   4.114   3.603   1.560
 2883SOL    HW1 8662   4.023   3.644   1.558
 2883SOL    HW2 8663   4.107   3.509   1.592
 2884SOL     OW 8664   4.318   2.607   0.652
 2884SOL    HW1 8665   4.368   2.692   0.633
 2884SOL    HW2 8666   4.230   2.609   0.604
 2885SOL     OW 8667   4.385   3.652   0.953
 2885SOL    HW1 8668   4.339   3.740   0.940
 2885SOL    HW2 8669   4.484   3.664   0.946
 2886SOL     OW 8670   3.945   3.176   1.844
 2886SOL    HW1 8671   3.880   3.103   1.823
 2886SOL    HW2 8672   3.949   3.190   1.942
 2887SOL     OW 8673   3.803   3.102   0.653
 2887SOL    HW1 8674   3.802   3.055   0.741
 2887SOL    HW2 8675   3.885   3.074   0.602
 2888SOL     OW 8676   4.396   3.253   1.624
 2888SOL    HW1 8677   4.318   3.203   1.662
 2888SOL    HW2 8678   4.393   3.348   1.655
 2889SOL     OW 8679   4.152   2.286   0.520
 2889SOL    HW1 8680   4.182   2.214   0.458
 2889SOL    HW2 8681   4.113   2.246   0.603
 2890SOL     OW 8682   4.041   2.409   1.280
 2890SOL    HW1 8683   4.079   2.350   1.352
 2890SOL    HW2 8684   4.081   2.383   1.192
 2891SOL     OW 8685   4.536   3.448   0.687
 2891SOL    HW1 8686   4.568   3.458   0.593
 2891SOL    HW2 8687   4.457   3.386   0.689
 2892SOL     OW 8688   4.342   3.429   1.284
 2892SOL    HW1 8689   4.337   3.511   1.341
 2892SOL    HW2 8690   4.431   3.426   1.239
 2893SOL     OW 8691   3.763   2.939   0.300
 2893SOL    HW1 8692   3.862   2.928   0.291
 2893SOL    HW2 8693   3.723   2.853   0.332
 2894SOL     OW 8694   3.954   2.490   1.975
 2894SOL    HW1 8695   3.861   2.488   2.012
 2894SOL    HW2 8696   3.955   2.451   1.883
 2895SOL     OW 8697   3.949   2.137   2.858
 2895SOL    HW1 8698   3.984   2.120   2.950
 2895SOL    HW2 8699   3.861   2.092   2.846
 2896SOL     OW 8700   3.743   2.230   2.509
 2896SOL    HW1 8701   3.661   2.273   2.548
 2896SOL    HW2 8702   3.715   2.157   2.446
 2897SOL     OW 8703   4.293   3.137   3.027
 2897SOL    HW1 8704   4.200   3.130   2.990
 2897SOL    HW2 8705   4.304   3.226   3.071
 2898SOL     OW 8706   4.574   2.660   3.685
 2898SOL    HW1 8707   4.570   2.736   3.750
 2898SOL    HW2 8708   4.596   2.696   3.594
 2899SOL     OW 8709   4.409   2.874   2.527
 2899SOL    HW1 8710   4.478   2.858   2.597
 2899SOL    HW2 8711   4.336   2.931   2.565
 2900SOL     OW 8712   4.410   3.023   3.665
 2900SOL    HW1 8713   4.470   3.102   3.679
 2900SOL    HW2 8714   4.324   3.054   3.624
 2901SOL     OW 8715   4.059   3.297   2.923
 2901SOL    HW1 8716   3.981   3.266   2.870
 2901SOL    HW2 8717   4.117   3.355   2.866
 2902SOL     OW 8718   4.162   2.254   3.361
 2902SOL    HW1 8719   4.244   2.198   3.370
 2902SOL    HW2 8720   4.081   2.196   3.365
 2903SOL     OW 8721   3.955   3.575   2.345
 2903SOL    HW1 8722   3.989   3.652   2.399
 2903SOL    HW2 8723   3.999   3.575   2.255
 2904SOL     OW 8724   3.954   3.296   2.400
 2904SOL    HW1 8725   3.928   3.392   2.400
 2904SOL    HW2 8726   3.883   3.242   2.445
 2905SOL     OW 8727   3.964   2.953   2.748
 2905SOL    HW1 8728   3.978   2.869   2.800
 2905SOL    HW2 8729   3.909   3.017   2.803
 2906SOL     OW 8730   4.344   3.648   3.301
 2906SOL    HW1 8731   4.252   3.631   3.336
 2906SOL    HW2 8732   4.372   3.740   3.327
 2907SOL     OW 8733   4.330   2.826   1.985
 2907SOL    HW1 8734   4.337   2.910   1.931
 2907SOL    HW2 8735   4.376   2.839   2.073
 2908SOL     OW 8736   3.846   2.505   2.425
 2908SOL    HW1 8737   3.801   2.417   2.442
 2908SOL    HW2 8738   3.845   2.559   2.509
 2909SOL     OW 8739   3.751   3.458   1.979
 2909SOL    HW1 8740   3.732   3.362   2.000
 2909SOL    HW2 8741   3.718   3.516   2.054
 2910SOL     OW 8742   3.837   2.599   3.459
 2910SOL    HW1 8743   3.925   2.586   3.504
 2910SOL    HW2 8744   3.824   2.696   3.437
 2911SOL     OW 8745   4.337   3.227   2.588
 2911SOL    HW1 8746   4.288   3.140   2.597
 2911SOL    HW2 8747   4.314   3.270   2.501
 2912SOL     OW 8748   4.533   1.866   2.364
 2912SOL    HW1 8749   4.573   1.957   2.355
 2912SOL    HW2 8750   4.433   1.874   2.370
 2913SOL     OW 8751   3.921   2.838   3.126
 2913SOL    HW1 8752   4.010   2.793   3.112
 2913SOL    HW2 8753   3.848   2.773   3.107
 2914SOL     OW 8754   4.041   2.113   3.663
 2914SOL    HW1 8755   4.112   2.184   3.669
 2914SOL    HW2 8756   3.953   2.152   3.691
 2915SOL     OW 8757   4.322   2.591   2.132
 2915SOL    HW1 8758   4.346   2.660   2.064
 2915SOL    HW2 8759   4.244   2.624   2.186
 2916SOL     OW 8760   3.800   2.673   2.651
 2916SOL    HW1 8761   3.899   2.661   2.660
 2916SOL    HW2 8762   3.776   2.768   2.672
 2917SOL     OW 8763   3.854   3.683   3.433
 2917SOL    HW1 8764   3.844   3.668   3.532
 2917SOL    HW2 8765   3.768   3.719   3.397
 2918SOL     OW 8766   4.274   2.058   2.747
 2918SOL    HW1 8767   4.269   2.053   2.847
 2918SOL    HW2 8768   4.276   2.154   2.718
 2919SOL     OW 8769   4.075   3.663   2.715
 2919SOL    HW1 8770   4.125   3.577   2.721
 2919SOL    HW2 8771   4.140   3.740   2.712
 2920SOL     OW 8772   4.045   2.805   2.104
 2920SOL    HW1 8773   4.127   2.844   2.062
 2920SOL    HW2 8774   4.018   2.723   2.055
 2921SOL     OW 8775   4.185   3.128   3.589
 2921SOL    HW1 8776   4.135   3.129   3.503
 2921SOL    HW2 8777   4.122   3.110   3.665
 2922SOL     OW 8778   3.926   2.147   3.360
 2922SOL    HW1 8779   3.846   2.207   3.347
 2922SOL    HW2 8780   3.916   2.098   3.446
 2923SOL     OW 8781   4.188   3.605   2.185
 2923SOL    HW1 8782   4.221   3.644   2.271
 2923SOL    HW2 8783   4.264   3.598   2.120
 2924SOL     OW 8784   3.973   3.647   3.103
 2924SOL    HW1 8785   4.030   3.582   3.153
 2924SOL    HW2 8786   3.957   3.614   3.010
 2925SOL     OW 8787   4.106   2.562   2.342
 2925SOL    HW1 8788   4.151   2.472   2.339
 2925SOL    HW2 8789   4.012   2.551   2.375
 2926SOL     OW 8790   4.338   1.984   1.979
 2926SOL    HW1 8791   4.436   1.962   1.986
 2926SOL    HW2 8792   4.307   1.967   1.886
 2927SOL     OW 8793   4.527   3.264   2.786
 2927SOL    HW1 8794   4.617   3.278   2.744
 2927SOL    HW2 8795   4.456   3.266   2.715
 2928SOL     OW 8796   4.646   2.365   2.761
 2928SOL    HW1 8797   4.621   2.356   2.665
 2928SOL    HW2 8798   4.694   2.283   2.792
 2929SOL     OW 8799   4.263   1.926   2.374
 2929SOL    HW1 8800   4.182   1.927   2.432
 2929SOL    HW2 8801   4.266   2.009   2.319
 2930SOL     OW 8802   4.021   1.897   2.033
 2930SOL    HW1 8803   4.070   1.981   2.012
 2930SOL    HW2 8804   4.083   1.832   2.078
 2931SOL     OW 8805   4.183   3.014   2.603
 2931SOL    HW1 8806   4.112   2.987   2.668
 2931SOL    HW2 8807   4.157   2.986   2.510
 2932SOL     OW 8808   3.802   2.418   3.248
 2932SOL    HW1 8809   3.894   2.417   3.207
 2932SOL    HW2 8810   3.796   2.492   3.315
 2933SOL     OW 8811   4.285   2.084   3.009
 2933SOL    HW1 8812   4.323   2.000   3.046
 2933SOL    HW2 8813   4.197   2.103   3.053
 2934SOL     OW 8814   4.212   3.247   2.036
 2934SOL    HW1 8815   4.125   3.232   2.083
 2934SOL    HW2 8816   4.195   3.273   1.941
 2935SOL     OW 8817   4.251   2.118   2.190
 2935SOL    HW1 8818   4.278   2.059   2.115
 2935SOL    HW2 8819   4.251   2.213   2.159
 2936SOL     OW 8820   4.639   1.951   3.264
 2936SOL    HW1 8821   4.664   1.931   3.169
 2936SOL    HW2 8822   4.711   2.007   3.306
 2937SOL     OW 8823   4.134   2.675   3.113
 2937SOL    HW1 8824   4.220   2.687   3.163
 2937SOL    HW2 8825   4.092   2.588   3.140
 2938SOL     OW 8826   3.788   3.426   3.193
 2938SOL    HW1 8827   3.742   3.508   3.159
 2938SOL    HW2 8828   3.886   3.445   3.202
 2939SOL     OW 8829   4.091   2.962   2.363
 2939SOL    HW1 8830   4.084   3.045   2.307
 2939SOL    HW2 8831   4.095   2.882   2.303
 2940SOL     OW 8832   4.290   2.399   2.727
 2940SOL    HW1 8833   4.302   2.465   2.653
 2940SOL    HW2 8834   4.336   2.433   2.810
 2941SOL     OW 8835   4.078   3.372   3.191
 2941SOL    HW1 8836   4.057   3.328   3.104
 2941SOL    HW2 8837   4.175   3.398   3.194
 2942SOL     OW 8838   4.126   2.613   3.460
 2942SOL    HW1 8839   4.194   2.668   3.413
 2942SOL    HW2 8840   4.166   2.525   3.487
 2943SOL     OW 8841   4.228   1.912   3.602
 2943SOL    HW1 8842   4.186   1.855   3.532
 2943SOL    HW2 8843   4.162   1.981   3.634
 2944SOL     OW 8844   4.297   2.732   2.891
 2944SOL    HW1 8845   4.341   2.821   2.882
 2944SOL    HW2 8846   4.234   2.732   2.968
 2945SOL     OW 8847   4.031   2.075   3.093
 2945SOL    HW1 8848   4.008   2.112   3.183
 2945SOL    HW2 8849   4.001   1.980   3.087
 2946SOL     OW 8850   3.761   3.172   3.144
 2946SOL    HW1 8851   3.814   3.123   3.212
 2946SOL    HW2 8852   3.783   3.270   3.149
 2947SOL     OW 8853   4.456   2.496   2.926
 2947SOL    HW1 8854   4.515   2.470   2.850
 2947SOL    HW2 8855   4.428   2.592   2.915
 2948SOL     OW 8856   4.031   1.925   2.480
 2948SOL    HW1 8857   4.020   2.019   2.513
 2948SOL    HW2 8858   4.026   1.862   2.557
 2949SOL     OW 8859   4.074   2.760   3.666
 2949SOL    HW1 8860   4.150   2.804   3.714
 2949SOL    HW2 8861   4.109   2.713   3.584
 2950SOL     OW 8862   4.792   3.195   2.711
 2950SOL    HW1 8863   4.799   3.111   2.656
 2950SOL    HW2 8864   4.854   3.264   2.675
 2951SOL     OW 8865   4.043   2.672   2.811
 2951SOL    HW1 8866   4.136   2.708   2.816
 2951SOL    HW2 8867   4.037   2.587   2.863
 2952SOL     OW 8868   4.063   2.371   2.868
 2952SOL    HW1 8869   4.011   2.288   2.851
 2952SOL    HW2 8870   4.140   2.376   2.804
 2953SOL     OW 8871   3.732   3.188   2.062
 2953SOL    HW1 8872   3.639   3.209   2.031
 2953SOL    HW2 8873   3.742   3.089   2.075
 2954SOL     OW 8874   3.812   3.663   2.789
 2954SOL    HW1 8875   3.770   3.577   2.762
 2954SOL    HW2 8876   3.906   3.666   2.755
 2955SOL     OW 8877   4.228   3.430   2.772
 2955SOL    HW1 8878   4.294   3.504   2.781
 2955SOL    HW2 8879   4.272   3.351   2.730
 2956SOL     OW 8880   3.764   2.406   2.976
 2956SOL    HW1 8881   3.849   2.373   2.935
 2956SOL    HW2 8882   3.777   2.421   3.074
 2957SOL     OW 8883   3.913   2.382   3.584
 2957SOL    HW1 8884   3.972   2.342   3.514
 2957SOL    HW2 8885   3.855   2.453   3.543
 2958SOL     OW 8886   4.539   2.434   2.187
 2958SOL    HW1 8887   4.546   2.345   2.141
 2958SOL    HW2 8888   4.445   2.468   2.179
 2959SOL     OW 8889   3.976   3.426   3.606
 2959SOL    HW1 8890   3.946   3.483   3.682
 2959SOL    HW2 8891   3.969   3.329   3.632
 2960SOL     OW 8892   4.395   2.326   3.131
 2960SOL    HW1 8893   4.361   2.237   3.101
 2960SOL    HW2 8894   4.421   2.380   3.051
 2961SOL     OW 8895   4.197   2.362   2.053
 2961SOL    HW1 8896   4.258   2.442   2.057
 2961SOL    HW2 8897   4.102   2.393   2.060
 2962SOL     OW 8898   3.883   2.999   3.328
 2962SOL    HW1 8899   3.905   2.938   3.404
 2962SOL    HW2 8900   3.893   2.950   3.242
 2963SOL     OW 8901   3.807   3.120   2.884
 2963SOL    HW1 8902   3.802   3.119   2.984
 2963SOL    HW2 8903   3.724   3.079   2.846
 2964SOL     OW 8904   4.412   3.524   3.578
 2964SOL    HW1 8905   4.356   3.605   3.587
 2964SOL    HW2 8906   4.464   3.528   3.492
 2965SOL     OW 8907   4.627   1.948   1.995
 2965SOL    HW1 8908   4.678   1.949   1.909
 2965SOL    HW2 8909   4.683   1.906   2.066
 2966SOL     OW 8910   3.854   3.656   3.713
 2966SOL    HW1 8911   3.813   3.582   3.766
 2966SOL    HW2 8912   3.918   3.707   3.771
 2967SOL     OW 8913   4.396   3.478   2.016
 2967SOL    HW1 8914   4.405   3.488   1.917
 2967SOL    HW2 8915   4.356   3.389   2.037
 2968SOL     OW 8916   3.987   2.188   2.582
 2968SOL    HW1 8917   3.908   2.239   2.548
 2968SOL    HW2 8918   3.978   2.173   2.680
 2969SOL     OW 8919   4.546   2.864   3.234
 2969SOL    HW1 8920   4.586   2.863   3.142
 2969SOL    HW2 8921   4.556   2.956   3.274
 2970SOL     OW 8922   4.096   3.150   3.352
 2970SOL    HW1 8923   4.083   3.243   3.318
 2970SOL    HW2 8924   4.012   3.098   3.339
 2971SOL     OW 8925   4.314   3.349   2.353
 2971SOL    HW1 8926   4.356   3.291   2.283
 2971SOL    HW2 8927   4.270   3.428   2.309
 2972SOL     OW 8928   3.979   3.210   2.152
 2972SOL    HW1 8929   3.883   3.211   2.125
 2972SOL    HW2 8930   3.991   3.263   2.236
 2973SOL     OW 8931   3.829   2.875   3.588
 2973SOL    HW1 8932   3.752   2.842   3.642
 2973SOL    HW2 8933   3.914   2.845   3.630
 2974SOL     OW 8934   4.396   2.065   3.351
 2974SOL    HW1 8935   4.486   2.049   3.311
 2974SOL    HW2 8936   4.404   2.070   3.450
 2975SOL     OW 8937   3.799   2.207   1.895
 2975SOL    HW1 8938   3.707   2.179   1.866
 2975SOL    HW2 8939   3.830   2.284   1.839
 2976SOL     OW 8940   3.796   2.028   2.180
 2976SOL    HW1 8941   3.779   2.111   2.126
 2976SOL    HW2 8942   3.886   1.991   2.158
 2977SOL     OW 8943   4.337   2.704   3.293
 2977SOL    HW1 8944   4.393   2.785   3.276
 2977SOL    HW2 8945   4.396   2.624   3.296
 2978SOL     OW 8946   4.440   2.427   3.570
 2978SOL    HW1 8947   4.459   2.492   3.644
 2978SOL    HW2 8948   4.500   2.347   3.579
 2979SOL     OW 8949   4.114   3.603   3.422
 2979SOL    HW1 8950   4.023   3.644   3.420
 2979SOL    HW2 8951   4.107   3.509   3.454
 2980SOL     OW 8952   4.318   2.607   2.514
 2980SOL    HW1 8953   4.368   2.692   2.495
 2980SOL    HW2 8954   4.230   2.609   2.466
 2981SOL     OW 8955   4.385   3.652   2.815
 2981SOL    HW1 8956   4.339   3.740   2.802
 2981SOL    HW2 8957   4.484   3.664   2.808
 2982SOL     OW 8958   3.945   3.176   3.706
 2982SOL    HW1 8959   3.880   3.103   3.685
 2982SOL    HW2 8960   3.949   3.190   3.804
 2983SOL     OW 8961   3.803   3.102   2.515
 2983SOL    HW1 8962   3.802   3.055   2.603
 2983SOL    HW2 8963   3.885   3.074   2.464
 2984SOL     OW 8964   4.396   3.253   3.486
 2984SOL    HW1 8965   4.318   3.203   3.524
 2984SOL    HW2 8966   4.393   3.348   3.517
 2985SOL     OW 8967   4.152   2.286   2.382
 2985SOL    HW1 8968   4.182   2.214   2.320
 2985SOL    HW2 8969   4.113   2.246   2.465
 2986SOL     OW 8970   4.041   2.409   3.142
 2986SOL    HW1 8971   4.079   2.350   3.214
 2986SOL    HW2 8972   4.081   2.383   3.054
 2987SOL     OW 8973   4.536   3.448   2.549
 2987SOL    HW1 8974   4.568   3.458   2.455
 2987SOL    HW2 8975   4.457   3.386   2.551
 2988SOL     OW 8976   4.342   3.429   3.146
 2988SOL    HW1 8977   4.337   3.511   3.203
 2988SOL    HW2 8978   4.431   3.426   3.101
 2989SOL     OW 8979   3.763   2.939   2.162
 2989SOL    HW1 8980   3.862   2.928   2.153
 2989SOL    HW2 8981   3.723   2.853   2.194
 2990SOL     OW 8982   3.954   2.490   3.837
 2990SOL    HW1 8983   3.861   2.488   3.874
 2990SOL    HW2 8984   3.955   2.451   3.745
 2991SOL     OW 8985   3.949   2.137   4.720
 2991SOL    HW1 8986   3.984   2.120   4.812
 2991SOL    HW2 8987   3.861   2.092   4.708
 2992SOL     OW 8988   3.743   2.230   4.371
 2992SOL    HW1 8989   3.661   2.273   4.410
 2992SOL    HW2 8990   3.715   2.157   4.308
 2993SOL     OW 8991   4.409   2.874   4.389
 2993SOL    HW1 8992   4.478   2.858   4.459
 2993SOL    HW2 8993   4.336   2.931   4.427
 2994SOL     OW 8994   3.955   3.575   4.207
 2994SOL    HW1 8995   3.989   3.652   4.261
 2994SOL    HW2 8996   3.999   3.575   4.117
 2995SOL     OW 8997   3.954   3.296   4.262
 2995SOL    HW1 8998   3.928   3.392   4.262
 2995SOL    HW2 8999   3.883   3.242   4.307
 2996SOL     OW 9000   3.964   2.953   4.610
 2996SOL    HW1 9001   3.978   2.869   4.662
 2996SOL    HW2 9002   3.909   3.017   4.665
 2997SOL     OW 9003   4.330   2.826   3.847
 2997SOL    HW1 9004   4.337   2.910   3.793
 2997SOL    HW2 9005   4.376   2.839   3.935
 2998SOL     OW 9006   3.846   2.505   4.287
 2998SOL    HW1 9007   3.801   2.417   4.304
 2998SOL    HW2 9008   3.845   2.559   4.371
 2999SOL     OW 9009   3.751   3.458   3.841
 2999SOL    HW1 9010   3.732   3.362   3.862
 2999SOL    HW2 9011   3.718   3.516   3.916
 3000SOL     OW 9012   4.337   3.227   4.450
 3000SOL    HW1 9013   4.288   3.140   4.459
 3000SOL    HW2 9014   4.314   3.270   4.363
 3001SOL     OW 9015   4.533   1.866   4.226
 3001SOL    HW1 9016   4.573   1.957   4.217
 3001SOL    HW2 9017   4.433   1.874   4.232
 3002SOL     OW 9018   4.322   2.591   3.994
 3002SOL    HW1 9019   4.346   2.660   3.926
 3002SOL    HW2 9020   4.244   2.624   4.048
 3003SOL     OW 9021   3.800   2.673   4.513
 3003SOL    HW1 9022   3.899   2.661   4.522
 3003SOL    HW2 9023   3.776   2.768   4.534
 3004SOL     OW 9024   4.075   3.663   4.577
 3004SOL    HW1 9025   4.125   3.577   4.583
 3004SOL    HW2 9026   4.140   3.740   4.574
 3005SOL     OW 9027   4.045   2.805   3.966
 3005SOL    HW1 9028   4.127   2.844   3.924
 3005SOL    HW2 9029   4.018   2.723   3.917
 3006SOL     OW 9030   4.188   3.605   4.047
 3006SOL    HW1 9031   4.221   3.644   4.133
 3006SOL    HW2 9032   4.264   3.598   3.982
 3007SOL     OW 9033   4.106   2.562   4.204
 3007SOL    HW1 9034   4.151   2.472   4.201
 3007SOL    HW2 9035   4.012   2.551   4.237
 3008SOL     OW 9036   4.338   1.984   3.841
 3008SOL    HW1 9037   4.436   1.962   3.848
 3008SOL    HW2 9038   4.307   1.967   3.748
 3009SOL     OW 9039   4.263   1.926   4.236
 3009SOL    HW1 9040   4.182   1.927   4.294
 3009SOL    HW2 9041   4.266   2.009   4.181
 3010SOL     OW 9042   4.021   1.897   3.895
 3010SOL    HW1 9043   4.070   1.981   3.874
 3010SOL    HW2 9044   4.083   1.832   3.940
 3011SOL     OW 9045   4.183   3.014   4.465
 3011SOL    HW1 9046   4.112   2.987   4.530
 3011SOL    HW2 9047   4.157   2.986   4.372
 3012SOL     OW 9048   4.741   1.901   4.477
 3012SOL    HW1 9049   4.669   1.906   4.408
 3012SOL    HW2 9050   4.717   1.832   4.546
 3013SOL     OW 9051   4.212   3.247   3.898
 3013SOL    HW1 9052   4.125   3.232   3.945
 3013SOL    HW2 9053   4.195   3.273   3.803
 3014SOL     OW 9054   4.251   2.118   4.052
 3014SOL    HW1 9055   4.278   2.059   3.977
 3014SOL    HW2 9056   4.251   2.213   4.021
 3015SOL     OW 9057   4.091   2.962   4.225
 3015SOL    HW1 9058   4.084   3.045   4.169
 3015SOL    HW2 9059   4.095   2.882   4.165
 3016SOL     OW 9060   4.031   1.925   4.342
 3016SOL    HW1 9061   4.020   2.019   4.375
 3016SOL    HW2 9062   4.026   1.862   4.419
 3017SOL     OW 9063   4.792   3.195   4.573
 3017SOL    HW1 9064   4.799   3.111   4.518
 3017SOL    HW2 9065   4.854   3.264   4.537
 3018SOL     OW 9066   3.732   3.188   3.924
 3018SOL    HW1 9067   3.639   3.209   3.893
 3018SOL    HW2 9068   3.742   3.089   3.937
 3019SOL     OW 9069   4.539   2.434   4.049
 3019SOL    HW1 9070   4.546   2.345   4.003
 3019SOL    HW2 9071   4.445   2.468   4.041
 3020SOL     OW 9072   4.197   2.362   3.915
 3020SOL    HW1 9073   4.258   2.442   3.919
 3020SOL    HW2 9074   4.102   2.393   3.922
 3021SOL     OW 9075   4.627   1.948   3.857
 3021SOL    HW1 9076   4.678   1.949   3.771
 3021SOL    HW2 9077   4.683   1.906   3.928
 3022SOL     OW 9078   4.396   3.478   3.878
 3022SOL    HW1 9079   4.405   3.488   3.779
 3022SOL    HW2 9080   4.356   3.389   3.899
 3023SOL     OW 9081   3.987   2.188   4.444
 3023SOL    HW1 9082   3.908   2.239   4.410
 3023SOL    HW2 9083   3.978   2.173   4.542
 3024SOL     OW 9084   4.314   3.349   4.215
 3024SOL    HW1 9085   4.356   3.291   4.145
 3024SOL    HW2 9086   4.270   3.428   4.171
 3025SOL     OW 9087   3.979   3.210   4.014
 3025SOL    HW1 9088   3.883   3.211   3.987
 3025SOL    HW2 9089   3.991   3.263   4.098
 3026SOL     OW 9090   3.799   2.207   3.757
 3026SOL    HW1 9091   3.707   2.179   3.728
 3026SOL    HW2 9092   3.830   2.284   3.701
 3027SOL     OW 9093   3.796   2.028   4.042
 3027SOL    HW1 9094   3.779   2.111   3.988
 3027SOL    HW2 9095   3.886   1.991   4.020
 3028SOL     OW 9096   4.318   2.607   4.376
 3028SOL    HW1 9097   4.368   2.692   4.357
 3028SOL    HW2 9098   4.230   2.609   4.328
 3029SOL     OW 9099   4.385   3.652   4.677
 3029SOL    HW1 9100   4.339   3.740   4.664
 3029SOL    HW2 9101   4.484   3.664   4.670
 3030SOL     OW 9102   3.803   3.102   4.377
 3030SOL    HW1 9103   3.802   3.055   4.465
 3030SOL    HW2 9104   3.885   3.074   4.326
 3031SOL     OW 9105   4.152   2.286   4.244
 3031SOL    HW1 9106   4.182   2.214   4.182
 3031SOL    HW2 9107   4.113   2.246   4.327
 3032SOL     OW 9108   4.536   3.448   4.411
 3032SOL    HW1 9109   4.568   3.458   4.317
 3032SOL    HW2 9110   4.457   3.386   4.413
 3033SOL     OW 9111   3.763   2.939   4.024
 3033SOL    HW1 9112   3.862   2.928   4.015
 3033SOL    HW2 9113   3.723   2.853   4.056
 3034SOL     OW 9114   3.954   4.352   0.113
 3034SOL    HW1 9115   3.861   4.350   0.150
 3034SOL    HW2 9116   3.955   4.313   0.021
 3035SOL     OW 9117   3.949   3.999   0.996
 3035SOL    HW1 9118   3.984   3.982   1.088
 3035SOL    HW2 9119   3.861   3.954   0.984
 3036SOL     OW 9120   3.743   4.092   0.647
 3036SOL    HW1 9121   3.661   4.135   0.686
 3036SOL    HW2 9122   3.715   4.019   0.584
 3037SOL     OW 9123   4.409   4.736   0.665
 3037SOL    HW1 9124   4.478   4.720   0.735
 3037SOL    HW2 9125   4.336   4.793   0.703
 3038SOL     OW 9126   4.162   4.116   1.499
 3038SOL    HW1 9127   4.244   4.060   1.508
 3038SOL    HW2 9128   4.081   4.058   1.503
 3039SOL     OW 9129   3.846   4.367   0.563
 3039SOL    HW1 9130   3.801   4.279   0.580
 3039SOL    HW2 9131   3.845   4.421   0.647
 3040SOL     OW 9132   3.837   4.461   1.597
 3040SOL    HW1 9133   3.925   4.448   1.642
 3040SOL    HW2 9134   3.824   4.558   1.575
 3041SOL     OW 9135   4.533   3.728   0.502
 3041SOL    HW1 9136   4.573   3.819   0.493
 3041SOL    HW2 9137   4.433   3.736   0.508
 3042SOL     OW 9138   4.041   3.975   1.801
 3042SOL    HW1 9139   4.112   4.046   1.807
 3042SOL    HW2 9140   3.953   4.014   1.829
 3043SOL     OW 9141   4.322   4.453   0.270
 3043SOL    HW1 9142   4.346   4.522   0.202
 3043SOL    HW2 9143   4.244   4.486   0.324
 3044SOL     OW 9144   4.274   3.920   0.885
 3044SOL    HW1 9145   4.269   3.915   0.985
 3044SOL    HW2 9146   4.276   4.016   0.856
 3045SOL     OW 9147   3.926   4.009   1.498
 3045SOL    HW1 9148   3.846   4.069   1.485
 3045SOL    HW2 9149   3.916   3.960   1.584
 3046SOL     OW 9150   4.106   4.424   0.480
 3046SOL    HW1 9151   4.151   4.334   0.477
 3046SOL    HW2 9152   4.012   4.413   0.513
 3047SOL     OW 9153   4.646   4.227   0.899
 3047SOL    HW1 9154   4.621   4.218   0.803
 3047SOL    HW2 9155   4.694   4.145   0.930
 3048SOL     OW 9156   4.263   3.788   0.512
 3048SOL    HW1 9157   4.182   3.789   0.570
 3048SOL    HW2 9158   4.266   3.871   0.457
 3049SOL     OW 9159   4.021   3.759   0.171
 3049SOL    HW1 9160   4.070   3.843   0.150
 3049SOL    HW2 9161   4.083   3.694   0.216
 3050SOL     OW 9162   3.802   4.280   1.386
 3050SOL    HW1 9163   3.894   4.279   1.345
 3050SOL    HW2 9164   3.796   4.354   1.453
 3051SOL     OW 9165   4.285   3.946   1.147
 3051SOL    HW1 9166   4.323   3.862   1.184
 3051SOL    HW2 9167   4.197   3.965   1.191
 3052SOL     OW 9168   4.251   3.980   0.328
 3052SOL    HW1 9169   4.278   3.921   0.253
 3052SOL    HW2 9170   4.251   4.075   0.297
 3053SOL     OW 9171   4.639   3.813   1.402
 3053SOL    HW1 9172   4.664   3.793   1.307
 3053SOL    HW2 9173   4.711   3.869   1.444
 3054SOL     OW 9174   4.134   4.537   1.251
 3054SOL    HW1 9175   4.220   4.549   1.301
 3054SOL    HW2 9176   4.092   4.450   1.278
 3055SOL     OW 9177   4.290   4.261   0.865
 3055SOL    HW1 9178   4.302   4.327   0.791
 3055SOL    HW2 9179   4.336   4.295   0.948
 3056SOL     OW 9180   4.228   3.774   1.740
 3056SOL    HW1 9181   4.186   3.717   1.670
 3056SOL    HW2 9182   4.162   3.843   1.772
 3057SOL     OW 9183   4.031   3.937   1.231
 3057SOL    HW1 9184   4.008   3.974   1.321
 3057SOL    HW2 9185   4.001   3.842   1.225
 3058SOL     OW 9186   4.456   4.358   1.064
 3058SOL    HW1 9187   4.515   4.332   0.988
 3058SOL    HW2 9188   4.428   4.454   1.053
 3059SOL     OW 9189   4.031   3.787   0.618
 3059SOL    HW1 9190   4.020   3.881   0.651
 3059SOL    HW2 9191   4.026   3.724   0.695
 3060SOL     OW 9192   4.043   4.534   0.949
 3060SOL    HW1 9193   4.136   4.570   0.954
 3060SOL    HW2 9194   4.037   4.449   1.001
 3061SOL     OW 9195   4.063   4.233   1.006
 3061SOL    HW1 9196   4.011   4.150   0.989
 3061SOL    HW2 9197   4.140   4.238   0.942
 3062SOL     OW 9198   3.764   4.268   1.114
 3062SOL    HW1 9199   3.849   4.235   1.073
 3062SOL    HW2 9200   3.777   4.283   1.212
 3063SOL     OW 9201   3.913   4.244   1.722
 3063SOL    HW1 9202   3.972   4.204   1.652
 3063SOL    HW2 9203   3.855   4.315   1.681
 3064SOL     OW 9204   4.539   4.296   0.325
 3064SOL    HW1 9205   4.546   4.207   0.279
 3064SOL    HW2 9206   4.445   4.330   0.317
 3065SOL     OW 9207   4.395   4.188   1.269
 3065SOL    HW1 9208   4.361   4.099   1.239
 3065SOL    HW2 9209   4.421   4.242   1.189
 3066SOL     OW 9210   4.197   4.224   0.191
 3066SOL    HW1 9211   4.258   4.304   0.195
 3066SOL    HW2 9212   4.102   4.255   0.198
 3067SOL     OW 9213   4.627   3.810   0.133
 3067SOL    HW1 9214   4.678   3.811   0.047
 3067SOL    HW2 9215   4.683   3.768   0.204
 3068SOL     OW 9216   3.987   4.050   0.720
 3068SOL    HW1 9217   3.908   4.101   0.686
 3068SOL    HW2 9218   3.978   4.035   0.818
 3069SOL     OW 9219   3.829   4.737   1.726
 3069SOL    HW1 9220   3.752   4.704   1.780
 3069SOL    HW2 9221   3.914   4.707   1.768
 3070SOL     OW 9222   4.396   3.927   1.489
 3070SOL    HW1 9223   4.486   3.911   1.449
 3070SOL    HW2 9224   4.404   3.932   1.588
 3071SOL     OW 9225   3.799   4.069   0.033
 3071SOL    HW1 9226   3.707   4.041   0.004
 3071SOL    HW2 9227   3.830   4.146  -0.023
 3072SOL     OW 9228   3.796   3.890   0.318
 3072SOL    HW1 9229   3.779   3.973   0.264
 3072SOL    HW2 9230   3.886   3.853   0.296
 3073SOL     OW 9231   4.337   4.566   1.431
 3073SOL    HW1 9232   4.393   4.647   1.414
 3073SOL    HW2 9233   4.396   4.486   1.434
 3074SOL     OW 9234   4.440   4.289   1.708
 3074SOL    HW1 9235   4.459   4.354   1.782
 3074SOL    HW2 9236   4.500   4.209   1.717
 3075SOL     OW 9237   4.318   4.469   0.652
 3075SOL    HW1 9238   4.368   4.554   0.633
 3075SOL    HW2 9239   4.230   4.471   0.604
 3076SOL     OW 9240   4.152   4.148   0.520
 3076SOL    HW1 9241   4.182   4.076   0.458
 3076SOL    HW2 9242   4.113   4.108   0.603
 3077SOL     OW 9243   4.041   4.271   1.280
 3077SOL    HW1 9244   4.079   4.212   1.352
 3077SOL    HW2 9245   4.081   4.245   1.192
 3078SOL     OW 9246   3.954   4.352   1.975
 3078SOL    HW1 9247   3.861   4.350   2.012
 3078SOL    HW2 9248   3.955   4.313   1.883
 3079SOL     OW 9249   3.949   3.999   2.858
 3079SOL    HW1 9250   3.984   3.982   2.950
 3079SOL    HW2 9251   3.861   3.954   2.846
 3080SOL     OW 9252   3.743   4.092   2.509
 3080SOL    HW1 9253   3.661   4.135   2.548
 3080SOL    HW2 9254   3.715   4.019   2.446
 3081SOL     OW 9255   4.409   4.736   2.527
 3081SOL    HW1 9256   4.478   4.720   2.597
 3081SOL    HW2 9257   4.336   4.793   2.565
 3082SOL     OW 9258   4.162   4.116   3.361
 3082SOL    HW1 9259   4.244   4.060   3.370
 3082SOL    HW2 9260   4.081   4.058   3.365
 3083SOL     OW 9261   3.846   4.367   2.425
 3083SOL    HW1 9262   3.801   4.279   2.442
 3083SOL    HW2 9263   3.845   4.421   2.509
 3084SOL     OW 9264   3.837   4.461   3.459
 3084SOL    HW1 9265   3.925   4.448   3.504
 3084SOL    HW2 9266   3.824   4.558   3.437
 3085SOL     OW 9267   4.533   3.728   2.364
 3085SOL    HW1 9268   4.573   3.819   2.355
 3085SOL    HW2 9269   4.433   3.736   2.370
 3086SOL     OW 9270   4.041   3.975   3.663
 3086SOL    HW1 9271   4.112   4.046   3.669
 3086SOL    HW2 9272   3.953   4.014   3.691
 3087SOL     OW 9273   4.322   4.453   2.132
 3087SOL    HW1 9274   4.346   4.522   2.064
 3087SOL    HW2 9275   4.244   4.486   2.186
 3088SOL     OW 9276   4.274   3.920   2.747
 3088SOL    HW1 9277   4.269   3.915   2.847
 3088SOL    HW2 9278   4.276   4.016   2.718
 3089SOL     OW 9279   3.926   4.009   3.360
 3089SOL    HW1 9280   3.846   4.069   3.347
 3089SOL    HW2 9281   3.916   3.960   3.446
 3090SOL     OW 9282   4.106   4.424   2.342
 3090SOL    HW1 9283   4.151   4.334   2.339
 3090SOL    HW2 9284   4.012   4.413   2.375
 3091SOL     OW 9285   4.338   3.846   1.979
 3091SOL    HW1 9286   4.436   3.824   1.986
 3091SOL    HW2 9287   4.307   3.829   1.886
 3092SOL     OW 9288   4.646   4.227   2.761
 3092SOL    HW1 9289   4.621   4.218   2.665
 3092SOL    HW2 9290   4.694   4.145   2.792
 3093SOL     OW 9291   4.263   3.788   2.374
 3093SOL    HW1 9292   4.182   3.789   2.432
 3093SOL    HW2 9293   4.266   3.871   2.319
 3094SOL     OW 9294   4.021   3.759   2.033
 3094SOL    HW1 9295   4.070   3.843   2.012
 3094SOL    HW2 9296   4.083   3.694   2.078
 3095SOL     OW 9297   3.802   4.280   3.248
 3095SOL    HW1 9298   3.894   4.279   3.207
 3095SOL    HW2 9299   3.796   4.354   3.315
 3096SOL     OW 9300   4.285   3.946   3.009
 3096SOL    HW1 9301   4.323   3.862   3.046
 3096SOL    HW2 9302   4.197   3.965   3.053
 3097SOL     OW 9303   4.251   3.980   2.190
 3097SOL    HW1 9304   4.278   3.921   2.115
 3097SOL    HW2 9305   4.251   4.075   2.159
 3098SOL     OW 9306   4.639   3.813   3.264
 3098SOL    HW1 9307   4.664   3.793   3.169
 3098SOL    HW2 9308   4.711   3.869   3.306
 3099SOL     OW 9309   4.134   4.537   3.113
 3099SOL    HW1 9310   4.220   4.549   3.163
 3099SOL    HW2 9311   4.092   4.450   3.140
 3100SOL     OW 9312   4.290   4.261   2.727
 3100SOL    HW1 9313   4.302   4.327   2.653
 3100SOL    HW2 9314   4.336   4.295   2.810
 3101SOL     OW 9315   4.228   3.774   3.602
 3101SOL    HW1 9316   4.186   3.717   3.532
 3101SOL    HW2 9317   4.162   3.843   3.634
 3102SOL     OW 9318   4.031   3.937   3.093
 3102SOL    HW1 9319   4.008   3.974   3.183
 3102SOL    HW2 9320   4.001   3.842   3.087
 3103SOL     OW 9321   4.456   4.358   2.926
 3103SOL    HW1 9322   4.515   4.332   2.850
 3103SOL    HW2 9323   4.428   4.454   2.915
 3104SOL     OW 9324   4.031   3.787   2.480
 3104SOL    HW1 9325   4.020   3.881   2.513
 3104SOL    HW2 9326   4.026   3.724   2.557
 3105SOL     OW 9327   4.043   4.534   2.811
 3105SOL    HW1 9328   4.136   4.570   2.816
 3105SOL    HW2 9329   4.037   4.449   2.863
 3106SOL     OW 9330   4.063   4.233   2.868
 3106SOL    HW1 9331   4.011   4.150   2.851
 3106SOL    HW2 9332   4.140   4.238   2.804
 3107SOL     OW 9333   3.764   4.268   2.976
 3107SOL    HW1 9334   3.849   4.235   2.935
 3107SOL    HW2 9335   3.777   4.283   3.074
 3108SOL     OW 9336   3.913   4.244   3.584
 3108SOL    HW1 9337   3.972   4.204   3.514
 3108SOL    HW2 9338   3.855   4.315   3.543
 3109SOL     OW 9339   4.539   4.296   2.187
 3109SOL    HW1 9340   4.546   4.207   2.141
 3109SOL    HW2 9341   4.445   4.330   2.179
 3110SOL     OW 9342   4.395   4.188   3.131
 3110SOL    HW1 9343   4.361   4.099   3.101
 3110SOL    HW2 9344   4.421   4.242   3.051
 3111SOL     OW 9345   4.197   4.224   2.053
 3111SOL    HW1 9346   4.258   4.304   2.057
 3111SOL    HW2 9347   4.102   4.255   2.060
 3112SOL     OW 9348   4.627   3.810   1.995
 3112SOL    HW1 9349   4.678   3.811   1.909
 3112SOL    HW2 9350   4.683   3.768   2.066
 3113SOL     OW 9351   3.987   4.050   2.582
 3113SOL    HW1 9352   3.908   4.101   2.548
 3113SOL    HW2 9353   3.978   4.035   2.680
 3114SOL     OW 9354   3.829   4.737   3.588
 3114SOL    HW1 9355   3.752   4.704   3.642
 3114SOL    HW2 9356   3.914   4.707   3.630
 3115SOL     OW 9357   4.396   3.927   3.351
 3115SOL    HW1 9358   4.486   3.911   3.311
 3115SOL    HW2 9359   4.404   3.932   3.450
 3116SOL     OW 9360   3.799   4.069   1.895
 3116SOL    HW1 9361   3.707   4.041   1.866
 3116SOL    HW2 9362   3.830   4.146   1.839
 3117SOL     OW 9363   3.796   3.890   2.180
 3117SOL    HW1 9364   3.779   3.973   2.126
 3117SOL    HW2 9365   3.886   3.853   2.158
 3118SOL     OW 9366   4.337   4.566   3.293
 3118SOL    HW1 9367   4.393   4.647   3.276
 3118SOL    HW2 9368   4.396   4.486   3.296
 3119SOL     OW 9369   4.440   4.289   3.570
 3119SOL    HW1 9370   4.459   4.354   3.644
 3119SOL    HW2 9371   4.500   4.209   3.579
 3120SOL     OW 9372   4.318   4.469   2.514
 3120SOL    HW1 9373   4.368   4.554   2.495
 3120SOL    HW2 9374   4.230   4.471   2.466
 3121SOL     OW 9375   4.152   4.148   2.382
 3121SOL    HW1 9376   4.182   4.076   2.320
 3121SOL    HW2 9377   4.113   4.108   2.465
 3122SOL     OW 9378   4.041   4.271   3.142
 3122SOL    HW1 9379   4.079   4.212   3.214
 3122SOL    HW2 9380   4.081   4.245   3.054
 3123SOL     OW 9381   3.954   4.352   3.837
 3123SOL    HW1 9382   3.861   4.350   3.874
 3123SOL    HW2 9383   3.955   4.313   3.745
 3124SOL     OW 9384   3.949   3.999   4.720
 3124SOL    HW1 9385   3.984   3.982   4.812
 3124SOL    HW2 9386   3.861   3.954   4.708
 3125SOL     OW 9387   3.743   4.092   4.371
 3125SOL    HW1 9388   3.661   4.135   4.410
 3125SOL    HW2 9389   3.715   4.019   4.308
 3126SOL     OW 9390   4.409   4.736   4.389
 3126SOL    HW1 9391   4.478   4.720   4.459
 3126SOL    HW2 9392   4.336   4.793   4.427
 3127SOL     OW 9393   3.846   4.367   4.287
 3127SOL    HW1 9394   3.801   4.279   4.304
 3127SOL    HW2 9395   3.845   4.421   4.371
 3128SOL     OW 9396   4.533   3.728   4.226
 3128SOL    HW1 9397   4.573   3.819   4.217
 3128SOL    HW2 9398   4.433   3.736   4.232
 3129SOL     OW 9399   4.322   4.453   3.994
 3129SOL    HW1 9400   4.346   4.522   3.926
 3129SOL    HW2 9401   4.244   4.486   4.048
 3130SOL     OW 9402   4.106   4.424   4.204
 3130SOL    HW1 9403   4.151   4.334   4.201
 3130SOL    HW2 9404   4.012   4.413   4.237
 3131SOL     OW 9405   4.338   3.846   3.841
 3131SOL    HW1 9406   4.436   3.824   3.848
 3131SOL    HW2 9407   4.307   3.829   3.748
 3132SOL     OW 9408   4.263   3.788   4.236
 3132SOL    HW1 9409   4.182   3.789   4.294
 3132SOL    HW2 9410   4.266   3.871   4.181
 3133SOL     OW 9411   4.021   3.759   3.895
 3133SOL    HW1 9412   4.070   3.843   3.874
 3133SOL    HW2 9413   4.083   3.694   3.940
 3134SOL     OW 9414   4.741   3.763   4.477
 3134SOL    HW1 9415   4.669   3.768   4.408
 3134SOL    HW2 9416   4.717   3.694   4.546
 3135SOL     OW 9417   4.251   3.980   4.052
 3135SOL    HW1 9418   4.278   3.921   3.977
 3135SOL    HW2 9419   4.251   4.075   4.021
 3136SOL     OW 9420   4.031   3.787   4.342
 3136SOL    HW1 9421   4.020   3.881   4.375
 3136SOL    HW2 9422   4.026   3.724   4.419
 3137SOL     OW 9423   4.539   4.296   4.049
 3137SOL    HW1 9424   4.546   4.207   4.003
 3137SOL    HW2 9425   4.445   4.330   4.041
 3138SOL     OW 9426   4.197   4.224   3.915
 3138SOL    HW1 9427   4.258   4.304   3.919
 3138SOL    HW2 9428   4.102   4.255   3.922
 3139SOL     OW 9429   4.627   3.810   3.857
 3139SOL    HW1 9430   4.678   3.811   3.771
 3139SOL    HW2 9431   4.683   3.768   3.928
 3140SOL     OW 9432   3.987   4.050   4.444
 3140SOL    HW1 9433   3.908   4.101   4.410
 3140SOL    HW2 9434   3.978   4.035   4.542
 3141SOL     OW 9435   3.799   4.069   3.757
 3141SOL    HW1 9436   3.707   4.041   3.728
 3141SOL    HW2 9437   3.830   4.146   3.701
 3142SOL     OW 9438   3.796   3.890   4.042
 3142SOL    HW1 9439   3.779   3.973   3.988
 3142SOL    HW2 9440   3.886   3.853   4.020
 3143SOL     OW 9441   4.318   4.469   4.376
 3143SOL    HW1 9442   4.368   4.554   4.357
 3143SOL    HW2 9443   4.230   4.471   4.328
 3144SOL     OW 9444   4.152   4.148   4.244
 3144SOL    HW1 9445   4.182   4.076   4.182
 3144SOL    HW2 9446   4.113   4.108   4.327
   4.58645   4.58645   4.58645
