%VERSION  VERSION_STAMP = V0001.000  DATE = 05/20/26  23:55:03                  
%FLAG TITLE                                                                     
%FORMAT(20a4)                                                                   
CUP08011_AM1BCC_v1_0                                                            
%FLAG POINTERS                                                                  
%FORMAT(10I8)                                                                   
      39       9      16      23      36      33      52      47       0       0
     202       1      23      33      47      11      18      11       9       0
       0       0       0       0       0       0       0       0      39       0
       0
%FLAG ATOM_NAME                                                                 
%FORMAT(20a4)                                                                   
C1  C2  C3  C4  C5  C6  C7  C8  C9  C10 C11 C12 C13 N1  N2  N3  O1  O2  O3  O4  
F1  F2  F3  H1  H2  H3  H4  H5  H6  H7  H8  H9  H10 H11 H12 H13 H14 H15 H16 
%FLAG CHARGE                                                                    
%FORMAT(5E16.8)                                                                 
  9.11115000E-02  9.11115000E-02 -3.59525979E+00 -3.70277136E+00 -3.70277136E+00
  5.24073348E+00 -1.71471843E+00 -1.80582993E+00 -1.42862832E+00 -1.70196282E+00
  3.62259324E+00  3.23992494E+00  1.27045876E+01 -1.24276086E+01  5.87122506E+00
  5.87122506E+00 -3.42123683E+00 -3.42123683E+00 -3.42123683E+00 -3.42123683E+00
 -4.11155222E+00 -4.11155222E+00 -4.11155222E+00  3.46223700E+00  3.46223700E+00
  6.86980710E-01  6.86980710E-01  6.86980710E-01  8.87426010E-01  8.87426010E-01
  8.87426010E-01  8.14536810E-01  8.14536810E-01  8.96537160E-01  8.96537160E-01
  1.07876016E+00  1.07876016E+00  1.07876016E+00  1.07876016E+00
%FLAG ATOMIC_NUMBER                                                             
%FORMAT(10I8)                                                                   
       6       6       6       6       6       6       6       6       6       6
       6       6       6       7       7       7       8       8       8       8
       9       9       9       1       1       1       1       1       1       1
       1       1       1       1       1       1       1       1       1
%FLAG MASS                                                                      
%FORMAT(5E16.8)                                                                 
  1.20100000E+01  1.20100000E+01  1.20100000E+01  1.20100000E+01  1.20100000E+01
  1.20100000E+01  1.20100000E+01  1.20100000E+01  1.20100000E+01  1.20100000E+01
  1.20100000E+01  1.20100000E+01  1.20100000E+01  1.40100000E+01  1.40100000E+01
  1.40100000E+01  1.60000000E+01  1.60000000E+01  1.60000000E+01  1.60000000E+01
  1.90000000E+01  1.90000000E+01  1.90000000E+01  1.00800000E+00  1.00800000E+00
  1.00800000E+00  1.00800000E+00  1.00800000E+00  1.00800000E+00  1.00800000E+00
  1.00800000E+00  1.00800000E+00  1.00800000E+00  1.00800000E+00  1.00800000E+00
  1.00800000E+00  1.00800000E+00  1.00800000E+00  1.00800000E+00
%FLAG ATOM_TYPE_INDEX                                                           
%FORMAT(10I8)                                                                   
       1       1       1       1       1       1       2       2       2       2
       2       2       2       3       4       4       5       5       5       5
       6       6       6       7       7       8       8       8       8       8
       8       8       8       8       8       9       9       9       9
%FLAG NUMBER_EXCLUDED_ATOMS                                                     
%FORMAT(10I8)                                                                   
      15      14      11      11      10      17      10       8      12      12
       9       9       5      11       3       3       1       1       1       1
       2       1       1       1       1       4       3       2       4       3
       2       3       2       3       2       1       1       1       1
%FLAG NONBONDED_PARM_INDEX                                                      
%FORMAT(10I8)                                                                   
       1       2       4       7      11      16      22      29      37       2
       3       5       8      12      17      23      30      38       4       5
       6       9      13      18      24      31      39       7       8       9
      10      14      19      25      32      40      11      12      13      14
      15      20      26      33      41      16      17      18      19      20
      21      27      34      42      22      23      24      25      26      27
      28      35      43      29      30      31      32      33      34      35
      36      44      37      38      39      40      41      42      43      44
      45
%FLAG RESIDUE_LABEL                                                             
%FORMAT(20a4)                                                                   
MOL 
%FLAG RESIDUE_POINTER                                                           
%FORMAT(10I8)                                                                   
       1
%FLAG BOND_FORCE_CONSTANT                                                       
%FORMAT(5E16.8)                                                                 
  3.54250000E+02  3.60690000E+02  2.43910000E+02  2.50200000E+02  3.10840000E+02
  2.28890000E+02  3.45250000E+02  2.56920000E+02  3.44220000E+02  3.34280000E+02
  3.61740000E+02
%FLAG BOND_EQUIL_VALUE                                                          
%FORMAT(5E16.8)                                                                 
  1.39860000E+00  1.08600000E+00  1.51470000E+00  1.46960000E+00  1.40300000E+00
  1.53540000E+00  1.09620000E+00  1.46130000E+00  1.09690000E+00  1.35120000E+00
  1.23110000E+00
%FLAG ANGLE_FORCE_CONSTANT                                                      
%FORMAT(5E16.8)                                                                 
  6.36700000E+01  6.07400000E+01  6.61200000E+01  4.49000000E+01  7.92400000E+01
  6.71800000E+01  9.90800000E+01  7.69400000E+01  5.98700000E+01  4.32700000E+01
  6.48100000E+01  4.32800000E+01  7.64300000E+01  4.79700000E+01  1.31020000E+02
  1.06880000E+02  3.58000000E+01  3.56400000E+01
%FLAG ANGLE_EQUIL_VALUE                                                         
%FORMAT(5E16.8)                                                                 
  2.09474507E+00  2.10888224E+00  2.07694270E+00  2.09230160E+00  1.95092987E+00
  2.11411823E+00  2.05530061E+00  2.08619295E+00  1.96576518E+00  1.91427794E+00
  1.98060048E+00  1.91270715E+00  2.03435665E+00  1.91427794E+00  2.18253516E+00
  1.87396082E+00  1.88024401E+00  1.89455572E+00
%FLAG DIHEDRAL_FORCE_CONSTANT                                                   
%FORMAT(5E16.8)                                                                 
  3.62500000E+00  0.00000000E+00  7.20000000E-01  7.53000000E-01  3.32000000E-01
  5.20000000E-01  1.30000000E-01  2.10000000E-01  1.55555556E-01  1.20000000E-01
  1.10000000E+00
%FLAG DIHEDRAL_PERIODICITY                                                      
%FORMAT(5E16.8)                                                                 
  2.00000000E+00  2.00000000E+00  2.00000000E+00  2.00000000E+00  2.00000000E+00
  3.00000000E+00  3.00000000E+00  3.00000000E+00  3.00000000E+00  3.00000000E+00
  2.00000000E+00
%FLAG DIHEDRAL_PHASE                                                            
%FORMAT(5E16.8)                                                                 
  3.14159400E+00  0.00000000E+00  3.14159400E+00  3.14159400E+00  0.00000000E+00
  0.00000000E+00  0.00000000E+00  0.00000000E+00  0.00000000E+00  0.00000000E+00
  3.14159400E+00
%FLAG SCEE_SCALE_FACTOR                                                         
%FORMAT(5E16.8)                                                                 
  1.20000000E+00  1.20000000E+00  1.20000000E+00  1.20000000E+00  1.20000000E+00
  1.20000000E+00  1.20000000E+00  1.20000000E+00  1.20000000E+00  1.20000000E+00
  0.00000000E+00
%FLAG SCNB_SCALE_FACTOR                                                         
%FORMAT(5E16.8)                                                                 
  2.00000000E+00  2.00000000E+00  2.00000000E+00  2.00000000E+00  2.00000000E+00
  2.00000000E+00  2.00000000E+00  2.00000000E+00  2.00000000E+00  2.00000000E+00
  0.00000000E+00
%FLAG SOLTY                                                                     
%FORMAT(5E16.8)                                                                 
  0.00000000E+00  0.00000000E+00  0.00000000E+00  0.00000000E+00  0.00000000E+00
  0.00000000E+00  0.00000000E+00  0.00000000E+00  0.00000000E+00
%FLAG LENNARD_JONES_ACOEF                                                       
%FORMAT(5E16.8)                                                                 
  6.96551276E+05  8.43969952E+05  1.02073671E+06  8.17329084E+05  9.93125065E+05
  9.54790629E+05  7.10207765E+05  8.59569453E+05  8.34792752E+05  7.23647490E+05
  5.17507491E+05  6.30925504E+05  6.01376873E+05  5.29641935E+05  3.76435470E+05
  3.80155513E+05  4.63627012E+05  4.41532129E+05  3.89148854E+05  2.76207447E+05
  2.02652992E+05  7.52549148E+04  9.27554496E+04  8.59636060E+04  7.75325560E+04
  5.27277400E+04  3.86097375E+04  6.90855956E+03  8.12662403E+04  1.00235148E+05
  9.27277603E+04  8.37616145E+04  5.68021765E+04  4.15877422E+04  7.41026906E+03
  7.94617769E+03  5.63013422E+04  6.97998263E+04  6.37258620E+04  5.82112737E+04
  3.86646725E+04  2.82810778E+04  4.88692384E+03  5.22955465E+03  3.39005767E+03
%FLAG LENNARD_JONES_BCOEF                                                       
%FORMAT(5E16.8)                                                                 
  5.24668528E+02  5.90251928E+02  6.63431737E+02  6.90283231E+02  7.77671659E+02
  9.06156687E+02  5.11427129E+02  5.75038595E+02  6.73442883E+02  4.98353106E+02
  4.98871431E+02  5.62969425E+02  6.53166727E+02  4.87196412E+02  4.69350655E+02
  3.71304925E+02  4.19082844E+02  4.86017154E+02  3.62652376E+02  3.49131956E+02
  2.59697739E+02  1.09570372E+02  1.24325688E+02  1.42233990E+02  1.07361937E+02
  1.01173582E+02  7.51823196E+01  2.10929191E+01  1.21392023E+02  1.37787728E+02
  1.57492664E+02  1.18970742E+02  1.11953944E+02  8.31877412E+01  2.32899892E+01
  2.57122925E+01  1.01040256E+02  1.14981426E+02  1.30560951E+02  9.91793374E+01
  9.23664132E+01  6.86000827E+01  1.89134207E+01  2.08590256E+01  1.67944276E+01
%FLAG BONDS_INC_HYDROGEN                                                        
%FORMAT(10I8)                                                                   
       0      69       2       3      72       2      18      75       7      18
      78       7      18      81       7      21      84       7      21      87
       7      21      90       7      24      93       7      24      96       7
      27      99       7      27     102       7      30     105       9      30
     108       9      33     111       9      33     114       9
%FLAG BONDS_WITHOUT_HYDROGEN                                                    
%FORMAT(10I8)                                                                   
       0       6       1       0       9       1       3       6       1       3
      12       1       6      36       3       9      15       1       9      42
       4      12      15       1      12      45       4      15      39       5
      18      24       6      21      30       6      24      27       6      27
      33       6      30      39       8      33      39       8      36      60
      10      36      63      10      36      66      10      42      48      11
      42      51      11      45      54      11      45      57      11
%FLAG ANGLES_INC_HYDROGEN                                                       
%FORMAT(10I8)                                                                   
       6       0      69       4       6       3      72       4       9       0
      69       4      12       3      72       4      18      24      93      10
      18      24      96      10      21      30     105      12      21      30
     108      12      24      18      75      10      24      18      78      10
      24      18      81      10      24      27      99      10      24      27
     102      10      27      24      93      10      27      24      96      10
      27      33     111      12      27      33     114      12      30      21
      84      10      30      21      87      10      30      21      90      10
      33      27      99      10      33      27     102      10      39      30
     105      14      39      30     108      14      39      33     111      14
      39      33     114      14      75      18      78      17      75      18
      81      17      78      18      81      17      84      21      87      17
      84      21      90      17      87      21      90      17      93      24
      96      17      99      27     102      17     105      30     108      18
     111      33     114      18
%FLAG ANGLES_WITHOUT_HYDROGEN                                                   
%FORMAT(10I8)                                                                   
       0       6       3       1       0       6      36       2       0       9
      15       1       0       9      42       3       3       6      36       2
       3      12      15       1       3      12      45       3       6       0
       9       1       6       3      12       1       6      36      60       5
       6      36      63       5       6      36      66       5       9      15
      12       1       9      15      39       6       9      42      48       7
       9      42      51       7      12      15      39       6      12      45
      54       7      12      45      57       7      15       9      42       3
      15      12      45       3      15      39      30       8      15      39
      33       8      18      24      27       9      21      30      39      11
      24      27      33       9      27      33      39      11      30      39
      33      13      48      42      51      15      54      45      57      15
      60      36      63      16      60      36      66      16      63      36
      66      16
%FLAG DIHEDRALS_INC_HYDROGEN                                                    
%FORMAT(10I8)                                                                   
       0       6       3      72       1      69       0       6       3       1
      69       0       9      15       1      15      12       3      72       1
      15      39      30     105       5      15      39      30     108       5
      15      39      33     111       5      15      39      33     114       5
      18      24      27      99       7      18      24      27     102       7
      24      27      33     111       9      24      27      33     114       9
      27      24      18      75       7      27      24      18      78       7
      27      24      18      81       7      30      39      33     111       2
      30      39      33     114       2      33      27      24      93       7
      33      27      24      96       7      33      39      30     105       2
      33      39      30     108       2      69       0       6      36       1
      36       6       3      72       1      39      30      21      84       9
      39      30      21      87       9      39      30      21      90       9
      39      33      27      99       9      39      33      27     102       9
      69       0       9      42       1      45      12       3      72       1
      75      18      24      93      10      75      18      24      96      10
      78      18      24      93      10      78      18      24      96      10
      81      18      24      93      10      81      18      24      96      10
      84      21      30     105       9      84      21      30     108       9
      87      21      30     105       9      87      21      30     108       9
      90      21      30     105       9      90      21      30     108       9
      93      24      27      99      10      93      24      27     102      10
      96      24      27      99      10      96      24      27     102      10
      99      27      33     111       9      99      27      33     114       9
     102      27      33     111       9     102      27      33     114       9
      69       0      -9      -6      11       6      12      -3     -72      11
%FLAG DIHEDRALS_WITHOUT_HYDROGEN                                                
%FORMAT(10I8)                                                                   
       0       6       3      12       1       0       6      36      60       2
       0       6      36      63       2       0       6      36      66       2
       0       9     -15      12       1       0       9      15      39       1
       0       9      42      48       3       0       9      42      51       3
       9       0       6       3       1       3       6      36      60       2
       3       6      36      63       2       3       6      36      66       2
       3      12     -15       9       1       3      12      15      39       1
       3      12      45      54       3       3      12      45      57       3
       6       0       9      15       1       6       0       9      42       1
       6       3     -12      15       1       6       3      12      45       1
       9       0       6      36       1       9      15      12      45       1
       9      15      39      30       4       9      15      39      33       4
      12       3       6      36       1      12      15       9      42       1
      12      15      39      30       4      12      15      39      33       4
      15       9      42      48       3      15       9      42      51       3
      15      12      45      54       3      15      12      45      57       3
      15      39      30      21       2      15      39      33      27       2
      18      24      27      33       6      21      30      39      33       2
      24      27      33      39       8      27      33      39      30       2
      39      15       9      42       1      39      15      12      45       1
       0       3      -6     -36      11       0      15      -9     -42      11
       3      15     -12     -45      11       9      12     -15     -39      11
      30      33     -39     -15      11       9      48     -42     -51      11
      12      54     -45     -57      11
%FLAG EXCLUDED_ATOMS_LIST                                                       
%FORMAT(10I8)                                                                   
       2       3       4       5       6      13      14      15      17      18
      21      22      23      24      25       3       4       5       6      13
      14      16      19      20      21      22      23      24      25       4
       5       6      13      15      16      21      22      23      24      25
       5       6      11      12      13      14      15      16      17      18
      24       6      11      12      13      14      15      16      19      20
      25       8      10      11      12      14      15      16      17      18
      19      20      24      25      36      37      38      39       9      10
      12      26      27      28      32      33      34      35      11      12
      14      29      30      31      36      37      10      12      14      26
      27      28      32      33      34      35      38      39      11      12
      14      26      27      28      32      33      34      35      38      39
      12      14      29      30      31      36      37      38      39      14
      32      33      34      35      36      37      38      39      21      22
      23      24      25      15      16      29      30      31      34      35
      36      37      38      39      17      18      24      19      20      25
      18       0      20       0      22      23      23       0       0       0
      27      28      32      33      28      32      33      32      33      30
      31      36      37      31      36      37      36      37      33      34
      35      34      35      35      38      39      38      39      37       0
      39       0
%FLAG HBOND_ACOEF                                                               
%FORMAT(5E16.8)                                                                 

%FLAG HBOND_BCOEF                                                               
%FORMAT(5E16.8)                                                                 

%FLAG HBCUT                                                                     
%FORMAT(5E16.8)                                                                 

%FLAG AMBER_ATOM_TYPE                                                           
%FORMAT(20a4)                                                                   
ca  ca  ca  ca  ca  ca  c3  c3  c3  c3  c3  c3  c3  nh  no  no  o   o   o   o   
f   f   f   ha  ha  hc  hc  hc  hc  hc  hc  hc  hc  hc  hc  h1  h1  h1  h1  
%FLAG TREE_CHAIN_CLASSIFICATION                                                 
%FORMAT(20a4)                                                                   
BLA BLA BLA BLA BLA BLA BLA BLA BLA BLA BLA BLA BLA BLA BLA BLA BLA BLA BLA BLA 
BLA BLA BLA BLA BLA BLA BLA BLA BLA BLA BLA BLA BLA BLA BLA BLA BLA BLA BLA 
%FLAG JOIN_ARRAY                                                                
%FORMAT(10I8)                                                                   
       0       0       0       0       0       0       0       0       0       0
       0       0       0       0       0       0       0       0       0       0
       0       0       0       0       0       0       0       0       0       0
       0       0       0       0       0       0       0       0       0
%FLAG IROTAT                                                                    
%FORMAT(10I8)                                                                   
       0       0       0       0       0       0       0       0       0       0
       0       0       0       0       0       0       0       0       0       0
       0       0       0       0       0       0       0       0       0       0
       0       0       0       0       0       0       0       0       0
%FLAG RADIUS_SET                                                                
%FORMAT(1a80)                                                                   
modified Bondi radii (mbondi)                                                   
%FLAG RADII                                                                     
%FORMAT(5E16.8)                                                                 
  1.70000000E+00  1.70000000E+00  1.70000000E+00  1.70000000E+00  1.70000000E+00
  1.70000000E+00  1.70000000E+00  1.70000000E+00  1.70000000E+00  1.70000000E+00
  1.70000000E+00  1.70000000E+00  1.70000000E+00  1.55000000E+00  1.55000000E+00
  1.55000000E+00  1.50000000E+00  1.50000000E+00  1.50000000E+00  1.50000000E+00
  1.50000000E+00  1.50000000E+00  1.50000000E+00  1.30000000E+00  1.30000000E+00
  1.30000000E+00  1.30000000E+00  1.30000000E+00  1.30000000E+00  1.30000000E+00
  1.30000000E+00  1.30000000E+00  1.30000000E+00  1.30000000E+00  1.30000000E+00
  1.30000000E+00  1.30000000E+00  1.30000000E+00  1.30000000E+00
%FLAG SCREEN                                                                    
%FORMAT(5E16.8)                                                                 
  7.20000000E-01  7.20000000E-01  7.20000000E-01  7.20000000E-01  7.20000000E-01
  7.20000000E-01  7.20000000E-01  7.20000000E-01  7.20000000E-01  7.20000000E-01
  7.20000000E-01  7.20000000E-01  7.20000000E-01  7.90000000E-01  7.90000000E-01
  7.90000000E-01  8.50000000E-01  8.50000000E-01  8.50000000E-01  8.50000000E-01
  8.80000000E-01  8.80000000E-01  8.80000000E-01  8.50000000E-01  8.50000000E-01
  8.50000000E-01  8.50000000E-01  8.50000000E-01  8.50000000E-01  8.50000000E-01
  8.50000000E-01  8.50000000E-01  8.50000000E-01  8.50000000E-01  8.50000000E-01
  8.50000000E-01  8.50000000E-01  8.50000000E-01  8.50000000E-01
%FLAG IPOL                                                                      
%FORMAT(1I8)                                                                    
       0
