CUP08011_AM1BCC_v1_0
    39
  -0.7970000   7.5170000   2.7790000   1.2720000   6.3400000   2.4620000
   0.5660000   7.5480000   2.4600000  -1.4310000   6.2970000   3.1000000
   0.6080000   5.1400000   2.7840000  -0.7640000   5.0570000   3.1020000
  -2.6260000   2.5400000  -1.3040000  -1.1450000   2.1320000   5.1770000
  -3.0750000   2.6520000   0.1450000  -1.9660000   3.2210000   1.0310000
  -1.5530000   3.5550000   4.8190000  -2.4250000   3.3340000   2.4880000
   1.2480000   8.8460000   2.0920000  -1.3360000   3.8040000   3.3760000
  -2.8300000   6.3970000   3.4580000   1.4150000   3.9370000   2.7720000
  -3.1150000   6.2970000   4.6580000  -3.6250000   6.6260000   2.5380000
   1.6030000   3.4000000   1.6720000   1.9230000   3.5940000   3.8480000
   0.7180000   9.9180000   2.7400000   2.5760000   8.8470000   2.3820000
   1.1470000   9.1160000   0.7640000  -1.3720000   8.4460000   2.7850000
   2.3340000   6.3250000   2.2150000  -1.7590000   1.8780000  -1.3960000
  -3.4330000   2.1310000  -1.9200000  -2.3540000   3.5210000  -1.7060000
  -1.7570000   1.3920000   4.6520000  -0.0990000   1.9440000   4.9170000
  -1.2660000   1.9650000   6.2520000  -3.9600000   3.2950000   0.1980000
  -3.3700000   1.6610000   0.5070000  -1.0820000   2.5750000   0.9730000
  -1.6700000   4.2040000   0.6470000  -0.9580000   4.2420000   5.4340000
  -2.6060000   3.7110000   5.0810000  -2.7420000   2.3370000   2.8180000
  -3.3100000   3.9710000   2.5680000
