mobley_7829570_GMX.gro created by acpype (v: 2023.10.27) on Wed May 20 23:53:53 2026
 39
    1  MOL   C1    1  -0.080   0.752   0.278
    1  MOL   C2    2   0.127   0.634   0.246
    1  MOL   C3    3   0.057   0.755   0.246
    1  MOL   C4    4  -0.143   0.630   0.310
    1  MOL   C5    5   0.061   0.514   0.278
    1  MOL   C6    6  -0.076   0.506   0.310
    1  MOL   C7    7  -0.263   0.254  -0.130
    1  MOL   C8    8  -0.115   0.213   0.518
    1  MOL   C9    9  -0.308   0.265   0.014
    1  MOL  C10   10  -0.197   0.322   0.103
    1  MOL  C11   11  -0.155   0.356   0.482
    1  MOL  C12   12  -0.242   0.333   0.249
    1  MOL  C13   13   0.125   0.885   0.209
    1  MOL   N1   14  -0.134   0.380   0.338
    1  MOL   N2   15  -0.283   0.640   0.346
    1  MOL   N3   16   0.142   0.394   0.277
    1  MOL   O1   17  -0.312   0.630   0.466
    1  MOL   O2   18  -0.363   0.663   0.254
    1  MOL   O3   19   0.160   0.340   0.167
    1  MOL   O4   20   0.192   0.359   0.385
    1  MOL   F1   21   0.072   0.992   0.274
    1  MOL   F2   22   0.258   0.885   0.238
    1  MOL   F3   23   0.115   0.912   0.076
    1  MOL   H1   24  -0.137   0.845   0.279
    1  MOL   H2   25   0.233   0.633   0.222
    1  MOL   H3   26  -0.176   0.188  -0.140
    1  MOL   H4   27  -0.343   0.213  -0.192
    1  MOL   H5   28  -0.235   0.352  -0.171
    1  MOL   H6   29  -0.176   0.139   0.465
    1  MOL   H7   30  -0.010   0.194   0.492
    1  MOL   H8   31  -0.127   0.197   0.625
    1  MOL   H9   32  -0.396   0.330   0.020
    1  MOL  H10   33  -0.337   0.166   0.051
    1  MOL  H11   34  -0.108   0.258   0.097
    1  MOL  H12   35  -0.167   0.420   0.065
    1  MOL  H13   36  -0.096   0.424   0.543
    1  MOL  H14   37  -0.261   0.371   0.508
    1  MOL  H15   38  -0.274   0.234   0.282
    1  MOL  H16   39  -0.331   0.397   0.257
   13.07200    17.05200    16.34400
