; mobley_7829570_GMX_OPLS.top created by acpype (v: 2023.10.27) on Wed May 20 23:53:53 2026

; Include forcefield parameters
#include "ffoplsaa.itp"

; Include mobley_7829570_GMX.itp topology
#include "mobley_7829570_GMX.itp"

; Ligand position restraints
#ifdef POSRES_LIG
#include "posre_mobley_7829570.itp"
#endif

[ system ]
 mobley_7829570

[ molecules ]
; Compound        nmols
 mobley_7829570   1     
