mobley_3682850_GMX.gro created by acpype (v: 2023.10.27) on Wed May 20 23:42:56 2026
 8924
    1MOL     C1    1   2.169   2.229   2.376
    1MOL     C2    2   2.217   2.369   2.346
    1MOL     C3    3   2.156   2.135   2.259
    1MOL     C4    4   2.343   2.364   2.261
    1MOL     C5    5   2.283   2.135   2.175
    1MOL     C6    6   2.325   2.277   2.136
    1MOL     O1    7   2.131   2.197   2.489
    1MOL     H1    8   2.137   2.422   2.294
    1MOL     H2    9   2.238   2.421   2.440
    1MOL     H3   10   2.136   2.034   2.296
    1MOL     H4   11   2.069   2.167   2.199
    1MOL     H5   12   2.371   2.466   2.230
    1MOL     H6   13   2.426   2.325   2.320
    1MOL     H7   14   2.364   2.088   2.232
    1MOL     H8   15   2.268   2.075   2.085
    1MOL     H9   16   2.249   2.322   2.071
    1MOL    H10   17   2.418   2.274   2.080
    2SOL     OW   18   0.230   0.628   0.113
    2SOL    HW1   19   0.137   0.626   0.150
    2SOL    HW2   20   0.231   0.589   0.021
    3SOL     OW   21   0.225   0.275   0.996
    3SOL    HW1   22   0.260   0.258   1.088
    3SOL    HW2   23   0.137   0.230   0.984
    4SOL     OW   24   0.019   0.368   0.647
    4SOL    HW1   25  -0.063   0.411   0.686
    4SOL    HW2   26  -0.009   0.295   0.584
    5SOL     OW   27   0.569   1.275   1.165
    5SOL    HW1   28   0.476   1.268   1.128
    5SOL    HW2   29   0.580   1.364   1.209
    6SOL     OW   30   1.555   1.511   0.703
    6SOL    HW1   31   1.498   1.495   0.784
    6SOL    HW2   32   1.496   1.521   0.623
    7SOL     OW   33   1.135   0.703   0.717
    7SOL    HW1   34   1.192   0.781   0.692
    7SOL    HW2   35   1.075   0.729   0.793
    8SOL     OW   36   1.755   0.607   0.231
    8SOL    HW1   37   1.743   0.594   0.132
    8SOL    HW2   38   1.725   0.526   0.280
    9SOL     OW   39   0.768   1.144   1.023
    9SOL    HW1   40   0.690   1.161   1.083
    9SOL    HW2   41   0.802   1.231   0.987
   10SOL     OW   42   0.850   0.798   1.823
   10SOL    HW1   43   0.846   0.874   1.888
   10SOL    HW2   44   0.872   0.834   1.732
   11SOL     OW   45   0.685   1.012   0.665
   11SOL    HW1   46   0.754   0.996   0.735
   11SOL    HW2   47   0.612   1.069   0.703
   12SOL     OW   48   0.686   1.161   1.803
   12SOL    HW1   49   0.746   1.240   1.817
   12SOL    HW2   50   0.600   1.192   1.762
   13SOL     OW   51   0.335   1.435   1.061
   13SOL    HW1   52   0.257   1.404   1.008
   13SOL    HW2   53   0.393   1.493   1.004
   14SOL     OW   54   1.460   1.505   1.339
   14SOL    HW1   55   1.484   1.599   1.365
   14SOL    HW2   56   1.444   1.451   1.421
   15SOL     OW   57   0.438   0.392   1.499
   15SOL    HW1   58   0.520   0.336   1.508
   15SOL    HW2   59   0.357   0.334   1.503
   16SOL     OW   60   1.603   0.447   0.737
   16SOL    HW1   61   1.529   0.493   0.687
   16SOL    HW2   62   1.654   0.515   0.790
   17SOL     OW   63   0.231   1.713   0.483
   17SOL    HW1   64   0.265   1.790   0.537
   17SOL    HW2   65   0.275   1.713   0.393
   18SOL     OW   66   1.127   1.341   1.690
   18SOL    HW1   67   1.174   1.341   1.778
   18SOL    HW2   68   1.079   1.254   1.679
   19SOL     OW   69   0.230   1.434   0.538
   19SOL    HW1   70   0.204   1.530   0.538
   19SOL    HW2   71   0.159   1.380   0.583
   20SOL     OW   72   0.240   1.091   0.886
   20SOL    HW1   73   0.254   1.007   0.938
   20SOL    HW2   74   0.185   1.155   0.941
   21SOL     OW   75   0.620   1.786   1.439
   21SOL    HW1   76   0.528   1.769   1.474
   21SOL    HW2   77   0.648   1.878   1.465
   22SOL     OW   78   0.606   0.964   0.123
   22SOL    HW1   79   0.613   1.048   0.069
   22SOL    HW2   80   0.652   0.977   0.211
   23SOL     OW   81   1.594   0.114   1.480
   23SOL    HW1   82   1.576   0.181   1.408
   23SOL    HW2   83   1.591   0.160   1.569
   24SOL     OW   84   0.122   0.643   0.563
   24SOL    HW1   85   0.077   0.555   0.580
   24SOL    HW2   86   0.121   0.697   0.647
   25SOL     OW   87   1.842   1.767   0.359
   25SOL    HW1   88   1.896   1.738   0.439
   25SOL    HW2   89   1.872   1.857   0.330
   26SOL     OW   90   0.027   1.596   0.117
   26SOL    HW1   91   0.008   1.500   0.138
   26SOL    HW2   92  -0.006   1.654   0.192
   27SOL     OW   93   1.689   0.922   0.612
   27SOL    HW1   94   1.784   0.893   0.620
   27SOL    HW2   95   1.681   0.987   0.537
   28SOL     OW   96   1.641   1.108   0.432
   28SOL    HW1   97   1.727   1.110   0.380
   28SOL    HW2   98   1.655   1.155   0.520
   29SOL     OW   99   0.113   0.737   1.597
   29SOL    HW1  100   0.201   0.724   1.642
   29SOL    HW2  101   0.100   0.834   1.575
   30SOL     OW  102   0.613   1.365   0.726
   30SOL    HW1  103   0.564   1.278   0.735
   30SOL    HW2  104   0.590   1.408   0.639
   31SOL     OW  105   1.293   1.228   1.423
   31SOL    HW1  106   1.330   1.155   1.365
   31SOL    HW2  107   1.345   1.233   1.508
   32SOL     OW  108   0.809   0.004   0.502
   32SOL    HW1  109   0.849   0.095   0.493
   32SOL    HW2  110   0.709   0.012   0.508
   33SOL     OW  111   0.197   0.976   1.264
   33SOL    HW1  112   0.286   0.931   1.250
   33SOL    HW2  113   0.124   0.911   1.245
   34SOL     OW  114   1.525   0.999   0.190
   34SOL    HW1  115   1.462   0.923   0.203
   34SOL    HW2  116   1.573   1.017   0.276
   35SOL     OW  117   1.187   1.792   1.616
   35SOL    HW1  118   1.211   1.852   1.540
   35SOL    HW2  119   1.194   1.697   1.586
   36SOL     OW  120   0.317   0.251   1.801
   36SOL    HW1  121   0.388   0.322   1.807
   36SOL    HW2  122   0.229   0.290   1.829
   37SOL     OW  123   1.466   1.417   0.953
   37SOL    HW1  124   1.407   1.423   1.033
   37SOL    HW2  125   1.451   1.329   0.907
   38SOL     OW  126   1.667   1.714   0.572
   38SOL    HW1  127   1.626   1.691   0.484
   38SOL    HW2  128   1.649   1.640   0.637
   39SOL     OW  129   0.598   0.729   0.270
   39SOL    HW1  130   0.622   0.798   0.202
   39SOL    HW2  131   0.520   0.762   0.324
   40SOL     OW  132   1.281   0.345   0.944
   40SOL    HW1  133   1.195   0.295   0.931
   40SOL    HW2  134   1.343   0.291   1.000
   41SOL     OW  135   1.576   1.662   0.307
   41SOL    HW1  136   1.665   1.708   0.310
   41SOL    HW2  137   1.555   1.638   0.212
   42SOL     OW  138   0.807   0.605   1.465
   42SOL    HW1  139   0.760   0.602   1.554
   42SOL    HW2  140   0.756   0.550   1.399
   43SOL     OW  141   1.394   0.469   1.674
   43SOL    HW1  142   1.374   0.512   1.762
   43SOL    HW2  143   1.472   0.407   1.683
   44SOL     OW  144   0.973   0.890   1.572
   44SOL    HW1  145   1.019   0.806   1.543
   44SOL    HW2  146   0.917   0.924   1.497
   45SOL     OW  147   0.991   0.410   1.242
   45SOL    HW1  148   0.914   0.444   1.296
   45SOL    HW2  149   0.957   0.359   1.163
   46SOL     OW  150   1.041   0.701   0.429
   46SOL    HW1  151   1.067   0.697   0.525
   46SOL    HW2  152   0.956   0.650   0.415
   47SOL     OW  153   0.076   0.811   0.789
   47SOL    HW1  154   0.175   0.799   0.798
   47SOL    HW2  155   0.052   0.906   0.810
   48SOL     OW  156   0.130   1.821   1.571
   48SOL    HW1  157   0.120   1.806   1.670
   48SOL    HW2  158   0.044   1.857   1.535
   49SOL     OW  159   0.865   0.348   0.195
   49SOL    HW1  160   0.924   0.411   0.146
   49SOL    HW2  161   0.884   0.254   0.166
   50SOL     OW  162   1.719   0.585   1.831
   50SOL    HW1  163   1.693   0.674   1.795
   50SOL    HW2  164   1.717   0.517   1.758
   51SOL     OW  165   1.362   1.144   0.545
   51SOL    HW1  166   1.445   1.115   0.497
   51SOL    HW2  167   1.313   1.211   0.489
   52SOL     OW  168   0.550   0.196   0.885
   52SOL    HW1  169   0.545   0.191   0.985
   52SOL    HW2  170   0.552   0.292   0.856
   53SOL     OW  171   1.008   1.456   0.477
   53SOL    HW1  172   0.962   1.528   0.425
   53SOL    HW2  173   1.004   1.476   0.575
   54SOL     OW  174   0.351   1.801   0.853
   54SOL    HW1  175   0.401   1.715   0.859
   54SOL    HW2  176   0.416   1.878   0.850
   55SOL     OW  177   1.795   1.066   0.873
   55SOL    HW1  178   1.733   1.051   0.797
   55SOL    HW2  179   1.743   1.077   0.958
   56SOL     OW  180   1.227   1.550   1.506
   56SOL    HW1  181   1.233   1.473   1.570
   56SOL    HW2  182   1.175   1.524   1.426
   57SOL     OW  183   0.321   0.943   0.242
   57SOL    HW1  184   0.403   0.982   0.200
   57SOL    HW2  185   0.294   0.861   0.193
   58SOL     OW  186   1.458   0.735   0.728
   58SOL    HW1  187   1.453   0.670   0.803
   58SOL    HW2  188   1.538   0.794   0.741
   59SOL     OW  189   0.461   1.266   1.727
   59SOL    HW1  190   0.411   1.267   1.641
   59SOL    HW2  191   0.398   1.248   1.803
   60SOL     OW  192   1.111   1.776   0.237
   60SOL    HW1  193   1.051   1.714   0.287
   60SOL    HW2  194   1.142   1.732   0.152
   61SOL     OW  195   0.202   0.285   1.498
   61SOL    HW1  196   0.122   0.345   1.485
   61SOL    HW2  197   0.192   0.236   1.584
   62SOL     OW  198   1.632   1.377   0.081
   62SOL    HW1  199   1.600   1.471   0.071
   62SOL    HW2  200   1.556   1.314   0.069
   63SOL     OW  201   0.464   1.743   0.323
   63SOL    HW1  202   0.497   1.782   0.409
   63SOL    HW2  203   0.540   1.736   0.258
   64SOL     OW  204   1.400   0.107   0.426
   64SOL    HW1  205   1.376   0.070   0.336
   64SOL    HW2  206   1.499   0.123   0.430
   65SOL     OW  207   0.249   1.785   1.241
   65SOL    HW1  208   0.306   1.720   1.291
   65SOL    HW2  209   0.233   1.752   1.148
   66SOL     OW  210   0.940   1.698   0.904
   66SOL    HW1  211   1.020   1.641   0.925
   66SOL    HW2  212   0.891   1.658   0.827
   67SOL     OW  213   0.382   0.700   0.480
   67SOL    HW1  214   0.427   0.610   0.477
   67SOL    HW2  215   0.288   0.689   0.513
   68SOL     OW  216   1.547   0.222   1.729
   68SOL    HW1  217   1.542   0.259   1.821
   68SOL    HW2  218   1.475   0.153   1.717
   69SOL     OW  219   0.614   0.122   0.117
   69SOL    HW1  220   0.712   0.100   0.124
   69SOL    HW2  221   0.583   0.105   0.024
   70SOL     OW  222   0.781   0.264   1.749
   70SOL    HW1  223   0.848   0.203   1.792
   70SOL    HW2  224   0.708   0.283   1.814
   71SOL     OW  225   0.888   1.514   1.195
   71SOL    HW1  226   0.865   1.489   1.101
   71SOL    HW2  227   0.949   1.445   1.234
   72SOL     OW  228   1.351   0.590   1.433
   72SOL    HW1  229   1.379   0.547   1.518
   72SOL    HW2  230   1.376   0.686   1.434
   73SOL     OW  231   0.803   1.402   0.924
   73SOL    HW1  232   0.893   1.416   0.882
   73SOL    HW2  233   0.732   1.404   0.853
   74SOL     OW  234   0.922   0.503   0.899
   74SOL    HW1  235   0.897   0.494   0.803
   74SOL    HW2  236   0.970   0.421   0.930
   75SOL     OW  237   0.539   0.064   0.512
   75SOL    HW1  238   0.458   0.065   0.570
   75SOL    HW2  239   0.542   0.147   0.457
   76SOL     OW  240   1.434   1.188   0.041
   76SOL    HW1  241   1.466   1.112   0.098
   76SOL    HW2  242   1.342   1.215   0.071
   77SOL     OW  243   0.297   0.035   0.171
   77SOL    HW1  244   0.346   0.119   0.150
   77SOL    HW2  245   0.359  -0.030   0.216
   78SOL     OW  246   0.935   0.236   0.480
   78SOL    HW1  247   0.887   0.277   0.402
   78SOL    HW2  248   1.034   0.234   0.461
   79SOL     OW  249   1.076   0.683   1.464
   79SOL    HW1  250   0.996   0.622   1.467
   79SOL    HW2  251   1.157   0.630   1.440
   80SOL     OW  252   1.227   1.570   0.793
   80SOL    HW1  253   1.248   1.644   0.728
   80SOL    HW2  254   1.295   1.570   0.866
   81SOL     OW  255   0.459   1.152   0.741
   81SOL    HW1  256   0.388   1.125   0.806
   81SOL    HW2  257   0.433   1.124   0.648
   82SOL     OW  258   1.271   1.797   0.591
   82SOL    HW1  259   1.315   1.861   0.527
   82SOL    HW2  260   1.221   1.849   0.661
   83SOL     OW  261   1.032   0.549   0.016
   83SOL    HW1  262   0.991   0.631  -0.023
   83SOL    HW2  263   1.096   0.575   0.089
   84SOL     OW  264   0.078   0.556   1.386
   84SOL    HW1  265   0.170   0.555   1.345
   84SOL    HW2  266   0.072   0.630   1.453
   85SOL     OW  267   0.561   0.222   1.147
   85SOL    HW1  268   0.599   0.138   1.184
   85SOL    HW2  269   0.473   0.241   1.191
   86SOL     OW  270   0.866   0.454   0.642
   86SOL    HW1  271   0.834   0.526   0.580
   86SOL    HW2  272   0.890   0.373   0.589
   87SOL     OW  273   1.017   0.039   0.753
   87SOL    HW1  274   0.945   0.044   0.684
   87SOL    HW2  275   0.993  -0.030   0.822
   88SOL     OW  276   1.429   1.173   0.867
   88SOL    HW1  277   1.374   1.089   0.860
   88SOL    HW2  278   1.455   1.202   0.775
   89SOL     OW  279   1.466   0.590   0.992
   89SOL    HW1  280   1.436   0.495   0.999
   89SOL    HW2  281   1.539   0.606   1.058
   90SOL     OW  282   1.857   0.833   0.377
   90SOL    HW1  283   1.899   0.769   0.441
   90SOL    HW2  284   1.819   0.782   0.299
   91SOL     OW  285   0.488   1.385   0.174
   91SOL    HW1  286   0.401   1.370   0.221
   91SOL    HW2  287   0.471   1.411   0.079
   92SOL     OW  288   1.664   1.280   0.657
   92SOL    HW1  289   1.763   1.288   0.671
   92SOL    HW2  290   1.619   1.364   0.688
   93SOL     OW  291   1.390   0.575   0.078
   93SOL    HW1  292   1.336   0.554   0.159
   93SOL    HW2  293   1.481   0.534   0.087
   94SOL     OW  294   0.527   0.256   0.328
   94SOL    HW1  295   0.554   0.197   0.253
   94SOL    HW2  296   0.527   0.351   0.297
   95SOL     OW  297   1.754   1.223   1.588
   95SOL    HW1  298   1.845   1.184   1.575
   95SOL    HW2  299   1.762   1.319   1.612
   96SOL     OW  300   1.064   1.347   1.340
   96SOL    HW1  301   0.984   1.324   1.395
   96SOL    HW2  302   1.147   1.321   1.389
   97SOL     OW  303   1.592   1.629   1.625
   97SOL    HW1  304   1.619   1.663   1.535
   97SOL    HW2  305   1.671   1.591   1.671
   98SOL     OW  306   1.111   1.195   1.100
   98SOL    HW1  307   1.071   1.239   1.181
   98SOL    HW2  308   1.070   1.232   1.017
   99SOL     OW  309   1.638   1.099   1.079
   99SOL    HW1  310   1.643   1.180   1.138
   99SOL    HW2  311   1.552   1.101   1.028
  100SOL     OW  312   0.915   0.089   1.402
  100SOL    HW1  313   0.940   0.069   1.307
  100SOL    HW2  314   0.987   0.145   1.444
  101SOL     OW  315   0.980   1.116   1.719
  101SOL    HW1  316   0.881   1.122   1.729
  101SOL    HW2  317   1.003   1.036   1.663
  102SOL     OW  318   0.705   1.050   0.368
  102SOL    HW1  319   0.691   1.057   0.467
  102SOL    HW2  320   0.789   0.999   0.350
  103SOL     OW  321   0.410   0.813   1.251
  103SOL    HW1  322   0.496   0.825   1.301
  103SOL    HW2  323   0.368   0.726   1.278
  104SOL     OW  324   1.274   0.386   1.262
  104SOL    HW1  325   1.295   0.460   1.326
  104SOL    HW2  326   1.185   0.403   1.219
  105SOL     OW  327   0.064   1.564   1.331
  105SOL    HW1  328   0.018   1.646   1.297
  105SOL    HW2  329   0.162   1.583   1.340
  106SOL     OW  330   0.367   1.100   0.501
  106SOL    HW1  331   0.360   1.183   0.445
  106SOL    HW2  332   0.371   1.020   0.441
  107SOL     OW  333   0.566   0.537   0.865
  107SOL    HW1  334   0.578   0.603   0.791
  107SOL    HW2  335   0.612   0.571   0.948
  108SOL     OW  336   1.252   1.348   0.388
  108SOL    HW1  337   1.302   1.425   0.428
  108SOL    HW2  338   1.157   1.350   0.420
  109SOL     OW  339   1.272   1.445   1.142
  109SOL    HW1  340   1.319   1.458   1.229
  109SOL    HW2  341   1.206   1.371   1.151
  110SOL     OW  342   1.582   0.639   0.472
  110SOL    HW1  343   1.551   0.700   0.545
  110SOL    HW2  344   1.632   0.691   0.403
  111SOL     OW  345   0.354   1.510   1.329
  111SOL    HW1  346   0.333   1.466   1.242
  111SOL    HW2  347   0.451   1.536   1.332
  112SOL     OW  348   0.402   0.751   1.598
  112SOL    HW1  349   0.470   0.806   1.551
  112SOL    HW2  350   0.442   0.663   1.625
  113SOL     OW  351   1.587   0.779   1.670
  113SOL    HW1  352   1.495   0.817   1.665
  113SOL    HW2  353   1.647   0.826   1.605
  114SOL     OW  354   1.013   0.105   1.770
  114SOL    HW1  355   1.019   0.190   1.718
  114SOL    HW2  356   1.045   0.029   1.713
  115SOL     OW  357   0.504   0.050   1.740
  115SOL    HW1  358   0.462  -0.007   1.670
  115SOL    HW2  359   0.438   0.119   1.772
  116SOL     OW  360   0.573   0.870   1.029
  116SOL    HW1  361   0.617   0.959   1.020
  116SOL    HW2  362   0.510   0.870   1.106
  117SOL     OW  363   1.360   0.862   1.045
  117SOL    HW1  364   1.285   0.862   0.979
  117SOL    HW2  365   1.397   0.770   1.054
  118SOL     OW  366   1.209   0.525   0.275
  118SOL    HW1  367   1.222   0.441   0.329
  118SOL    HW2  368   1.180   0.599   0.335
  119SOL     OW  369   0.307   0.213   1.231
  119SOL    HW1  370   0.284   0.250   1.321
  119SOL    HW2  371   0.277   0.118   1.225
  120SOL     OW  372   0.037   1.310   1.282
  120SOL    HW1  373   0.090   1.261   1.350
  120SOL    HW2  374   0.059   1.408   1.287
  121SOL     OW  375   0.732   0.634   1.064
  121SOL    HW1  376   0.791   0.608   0.988
  121SOL    HW2  377   0.704   0.730   1.053
  122SOL     OW  378   1.728   0.935   1.854
  122SOL    HW1  379   1.682   0.928   1.765
  122SOL    HW2  380   1.666   0.979   1.920
  123SOL     OW  381   0.307   0.063   0.618
  123SOL    HW1  382   0.296   0.157   0.651
  123SOL    HW2  383   0.302   0.000   0.695
  124SOL     OW  384   1.622   0.367   0.374
  124SOL    HW1  385   1.624   0.291   0.438
  124SOL    HW2  386   1.574   0.444   0.414
  125SOL     OW  387   1.023   0.766   0.966
  125SOL    HW1  388   1.038   0.787   1.062
  125SOL    HW2  389   0.993   0.671   0.957
  126SOL     OW  390   0.980   1.573   1.700
  126SOL    HW1  391   0.960   1.617   1.612
  126SOL    HW2  392   1.019   1.482   1.684
  127SOL     OW  393   1.859   1.518   1.605
  127SOL    HW1  394   1.873   1.545   1.510
  127SOL    HW2  395   1.942   1.540   1.658
  128SOL     OW  396   0.350   0.898   1.804
  128SOL    HW1  397   0.426   0.942   1.852
  128SOL    HW2  398   0.385   0.851   1.722
  129SOL     OW  399   1.540   0.274   0.125
  129SOL    HW1  400   1.479   0.199   0.148
  129SOL    HW2  401   1.562   0.326   0.208
  130SOL     OW  402   1.303   0.838   0.042
  130SOL    HW1  403   1.337   0.745   0.057
  130SOL    HW2  404   1.321   0.865  -0.053
  131SOL     OW  405   1.068   1.333   0.849
  131SOL    HW1  406   1.075   1.249   0.794
  131SOL    HW2  407   1.130   1.402   0.813
  132SOL     OW  408   0.319   0.810   0.949
  132SOL    HW1  409   0.412   0.846   0.954
  132SOL    HW2  410   0.313   0.725   1.001
  133SOL     OW  411   0.339   0.509   1.006
  133SOL    HW1  412   0.287   0.426   0.989
  133SOL    HW2  413   0.416   0.514   0.942
  134SOL     OW  414   1.138   0.380   1.678
  134SOL    HW1  415   1.093   0.443   1.742
  134SOL    HW2  416   1.231   0.411   1.661
  135SOL     OW  417   1.160   0.207   1.477
  135SOL    HW1  418   1.160   0.271   1.554
  135SOL    HW2  419   1.188   0.255   1.394
  136SOL     OW  420   0.008   1.326   0.200
  136SOL    HW1  421  -0.085   1.347   0.169
  136SOL    HW2  422   0.018   1.227   0.213
  137SOL     OW  423   0.088   1.801   0.927
  137SOL    HW1  424   0.046   1.715   0.900
  137SOL    HW2  425   0.182   1.804   0.893
  138SOL     OW  426   0.504   1.568   0.910
  138SOL    HW1  427   0.570   1.642   0.919
  138SOL    HW2  428   0.548   1.489   0.868
  139SOL     OW  429   1.002   0.796   1.238
  139SOL    HW1  430   1.043   0.764   1.324
  139SOL    HW2  431   0.906   0.769   1.235
  140SOL     OW  432   0.040   0.544   1.114
  140SOL    HW1  433   0.125   0.511   1.073
  140SOL    HW2  434   0.053   0.559   1.212
  141SOL     OW  435   0.189   0.520   1.722
  141SOL    HW1  436   0.248   0.480   1.652
  141SOL    HW2  437   0.131   0.591   1.681
  142SOL     OW  438   1.369   0.950   1.660
  142SOL    HW1  439   1.408   1.039   1.680
  142SOL    HW2  440   1.379   0.930   1.563
  143SOL     OW  441   0.815   0.572   0.325
  143SOL    HW1  442   0.822   0.483   0.279
  143SOL    HW2  443   0.721   0.606   0.317
  144SOL     OW  444   1.657   0.604   1.206
  144SOL    HW1  445   1.619   0.535   1.268
  144SOL    HW2  446   1.739   0.568   1.162
  145SOL     OW  447   0.252   1.564   1.744
  145SOL    HW1  448   0.222   1.621   1.820
  145SOL    HW2  449   0.245   1.467   1.770
  146SOL     OW  450   0.671   0.464   1.269
  146SOL    HW1  451   0.637   0.375   1.239
  146SOL    HW2  452   0.697   0.518   1.189
  147SOL     OW  453   0.930   1.678   1.465
  147SOL    HW1  454   0.906   1.660   1.370
  147SOL    HW2  455   0.960   1.772   1.475
  148SOL     OW  456   0.473   0.500   0.191
  148SOL    HW1  457   0.534   0.580   0.195
  148SOL    HW2  458   0.378   0.531   0.198
  149SOL     OW  459   0.159   1.137   1.466
  149SOL    HW1  460   0.181   1.076   1.542
  149SOL    HW2  461   0.169   1.088   1.380
  150SOL     OW  462   1.347   1.059   1.234
  150SOL    HW1  463   1.371   0.996   1.160
  150SOL    HW2  464   1.257   1.099   1.216
  151SOL     OW  465   1.302   0.855   0.309
  151SOL    HW1  466   1.216   0.824   0.351
  151SOL    HW2  467   1.298   0.841   0.210
  152SOL     OW  468   1.759   1.747   1.154
  152SOL    HW1  469   1.820   1.777   1.081
  152SOL    HW2  470   1.721   1.658   1.132
  153SOL     OW  471   1.252   1.731   1.128
  153SOL    HW1  472   1.336   1.736   1.074
  153SOL    HW2  473   1.229   1.635   1.146
  154SOL     OW  474   0.083   1.258   1.022
  154SOL    HW1  475   0.078   1.257   1.122
  154SOL    HW2  476   0.000   1.217   0.984
  155SOL     OW  477   0.688   1.662   1.716
  155SOL    HW1  478   0.632   1.743   1.725
  155SOL    HW2  479   0.740   1.666   1.630
  156SOL     OW  480   0.903   0.086   0.133
  156SOL    HW1  481   0.954   0.087   0.047
  156SOL    HW2  482   0.959   0.044   0.204
  157SOL     OW  483   1.726   0.135   0.523
  157SOL    HW1  484   1.799   0.118   0.456
  157SOL    HW2  485   1.695   0.048   0.561
  158SOL     OW  486   1.388   1.573   0.477
  158SOL    HW1  487   1.455   1.585   0.403
  158SOL    HW2  488   1.348   1.662   0.500
  159SOL     OW  489   0.130   1.794   1.851
  159SOL    HW1  490   0.089   1.720   1.904
  159SOL    HW2  491   0.194   1.845   1.909
  160SOL     OW  492   1.280   0.927   0.672
  160SOL    HW1  493   1.340   0.846   0.674
  160SOL    HW2  494   1.320   0.996   0.612
  161SOL     OW  495   0.830   1.273   1.422
  161SOL    HW1  496   0.825   1.306   1.517
  161SOL    HW2  497   0.744   1.292   1.376
  162SOL     OW  498   0.672   1.616   0.154
  162SOL    HW1  499   0.681   1.626   0.055
  162SOL    HW2  500   0.632   1.527   0.175
  163SOL     OW  501   1.650   1.720   1.394
  163SOL    HW1  502   1.703   1.730   1.310
  163SOL    HW2  503   1.623   1.810   1.428
  164SOL     OW  504   1.841   0.175   0.963
  164SOL    HW1  505   1.880   0.090   0.927
  164SOL    HW2  506   1.743   0.177   0.944
  165SOL     OW  507   0.263   0.326   0.720
  165SOL    HW1  508   0.184   0.377   0.686
  165SOL    HW2  509   0.254   0.311   0.818
  166SOL     OW  510   1.194   1.612   0.031
  166SOL    HW1  511   1.200   1.519   0.068
  166SOL    HW2  512   1.135   1.612  -0.049
  167SOL     OW  513   0.822   1.002   1.372
  167SOL    HW1  514   0.862   1.001   1.280
  167SOL    HW2  515   0.832   1.094   1.412
  168SOL     OW  516   0.916   0.910   0.291
  168SOL    HW1  517   0.979   0.948   0.223
  168SOL    HW2  518   0.956   0.827   0.330
  169SOL     OW  519   1.504   1.607   0.044
  169SOL    HW1  520   1.412   1.644   0.051
  169SOL    HW2  521   1.542   1.627  -0.046
  170SOL     OW  522   0.372   1.288   1.490
  170SOL    HW1  523   0.359   1.381   1.456
  170SOL    HW2  524   0.288   1.236   1.477
  171SOL     OW  525   1.614   1.292   1.289
  171SOL    HW1  526   1.674   1.295   1.369
  171SOL    HW2  527   1.539   1.356   1.302
  172SOL     OW  528   1.039   1.098   0.696
  172SOL    HW1  529   0.969   1.051   0.750
  172SOL    HW2  530   1.098   1.030   0.653
  173SOL     OW  531   1.014   0.236   0.971
  173SOL    HW1  532   1.006   0.200   0.878
  173SOL    HW2  533   1.012   0.160   1.036
  174SOL     OW  534   0.590   1.487   0.491
  174SOL    HW1  535   0.632   1.429   0.421
  174SOL    HW2  536   0.546   1.566   0.447
  175SOL     OW  537   1.709   0.385   1.381
  175SOL    HW1  538   1.782   0.454   1.385
  175SOL    HW2  539   1.737   0.310   1.322
  176SOL     OW  540   0.255   1.348   0.290
  176SOL    HW1  541   0.159   1.349   0.263
  176SOL    HW2  542   0.267   1.401   0.374
  177SOL     OW  543   0.105   1.013   1.726
  177SOL    HW1  544   0.028   0.980   1.780
  177SOL    HW2  545   0.190   0.983   1.768
  178SOL     OW  546   0.672   0.203   1.489
  178SOL    HW1  547   0.762   0.187   1.449
  178SOL    HW2  548   0.680   0.208   1.588
  179SOL     OW  549   0.075   0.345   0.033
  179SOL    HW1  550  -0.017   0.317   0.004
  179SOL    HW2  551   0.106   0.422  -0.023
  180SOL     OW  552   1.440   0.856   1.398
  180SOL    HW1  553   1.383   0.908   1.335
  180SOL    HW2  554   1.536   0.868   1.374
  181SOL     OW  555   0.072   0.166   0.318
  181SOL    HW1  556   0.055   0.249   0.264
  181SOL    HW2  557   0.162   0.129   0.296
  182SOL     OW  558   1.183   1.335   0.119
  182SOL    HW1  559   1.084   1.324   0.121
  182SOL    HW2  560   1.217   1.350   0.212
  183SOL     OW  561   0.613   0.842   1.431
  183SOL    HW1  562   0.669   0.923   1.414
  183SOL    HW2  563   0.672   0.762   1.434
  184SOL     OW  564   1.493   1.767   0.959
  184SOL    HW1  565   1.526   1.831   0.890
  184SOL    HW2  566   1.559   1.761   1.034
  185SOL     OW  567   0.716   0.565   1.708
  185SOL    HW1  568   0.735   0.630   1.782
  185SOL    HW2  569   0.776   0.485   1.717
  186SOL     OW  570   1.450   1.220   1.633
  186SOL    HW1  571   1.441   1.210   1.732
  186SOL    HW2  572   1.546   1.213   1.607
  187SOL     OW  573   0.390   1.741   1.560
  187SOL    HW1  574   0.299   1.782   1.558
  187SOL    HW2  575   0.383   1.647   1.592
  188SOL     OW  576   1.674   0.883   1.254
  188SOL    HW1  577   1.647   0.794   1.217
  188SOL    HW2  578   1.675   0.951   1.181
  189SOL     OW  579   1.225   0.325   0.449
  189SOL    HW1  580   1.290   0.251   0.438
  189SOL    HW2  581   1.245   0.375   0.533
  190SOL     OW  582   0.594   0.745   0.652
  190SOL    HW1  583   0.644   0.830   0.633
  190SOL    HW2  584   0.506   0.747   0.604
  191SOL     OW  585   1.777   0.342   1.642
  191SOL    HW1  586   1.760   0.373   1.548
  191SOL    HW2  587   1.693   0.305   1.680
  192SOL     OW  588   1.730   0.934   1.517
  192SOL    HW1  589   1.768   1.025   1.532
  192SOL    HW2  590   1.722   0.917   1.418
  193SOL     OW  591   0.859   1.374   0.016
  193SOL    HW1  592   0.813   1.389   0.104
  193SOL    HW2  593   0.903   1.459  -0.014
  194SOL     OW  594   0.661   1.790   0.953
  194SOL    HW1  595   0.615   1.878   0.940
  194SOL    HW2  596   0.760   1.802   0.946
  195SOL     OW  597   0.859   0.956   0.861
  195SOL    HW1  598   0.913   0.887   0.909
  195SOL    HW2  599   0.827   1.025   0.927
  196SOL     OW  600   1.083   0.984   0.087
  196SOL    HW1  601   1.060   1.037   0.005
  196SOL    HW2  602   1.164   0.928   0.068
  197SOL     OW  603   1.861   1.569   0.851
  197SOL    HW1  604   1.790   1.557   0.781
  197SOL    HW2  605   1.862   1.490   0.911
  198SOL     OW  606   0.221   1.314   1.844
  198SOL    HW1  607   0.156   1.241   1.823
  198SOL    HW2  608   0.225   1.328   1.942
  199SOL     OW  609   0.079   1.240   0.653
  199SOL    HW1  610   0.078   1.193   0.741
  199SOL    HW2  611   0.161   1.212   0.602
  200SOL     OW  612   0.672   1.391   1.624
  200SOL    HW1  613   0.594   1.341   1.662
  200SOL    HW2  614   0.669   1.486   1.655
  201SOL     OW  615   1.824   0.192   1.227
  201SOL    HW1  616   1.820   0.102   1.271
  201SOL    HW2  617   1.827   0.181   1.128
  202SOL     OW  618   0.428   0.424   0.520
  202SOL    HW1  619   0.458   0.352   0.458
  202SOL    HW2  620   0.389   0.384   0.603
  203SOL     OW  621   1.705   1.487   1.104
  203SOL    HW1  622   1.612   1.462   1.077
  203SOL    HW2  623   1.731   1.437   1.186
  204SOL     OW  624   0.317   0.547   1.280
  204SOL    HW1  625   0.355   0.488   1.352
  204SOL    HW2  626   0.357   0.521   1.192
  205SOL     OW  627   0.812   1.586   0.687
  205SOL    HW1  628   0.844   1.596   0.593
  205SOL    HW2  629   0.733   1.524   0.689
  206SOL     OW  630   1.424   0.214   1.112
  206SOL    HW1  631   1.476   0.149   1.167
  206SOL    HW2  632   1.375   0.277   1.173
  207SOL     OW  633   1.001   0.034   1.154
  207SOL    HW1  634   0.938  -0.038   1.123
  207SOL    HW2  635   1.094  -0.002   1.154
  208SOL     OW  636   0.770   1.330   0.301
  208SOL    HW1  637   0.724   1.243   0.318
  208SOL    HW2  638   0.861   1.327   0.342
  209SOL     OW  639   0.618   1.567   1.284
  209SOL    HW1  640   0.613   1.649   1.341
  209SOL    HW2  641   0.707   1.564   1.239
  210SOL     OW  642   1.352   0.052   0.168
  210SOL    HW1  643   1.387   0.011   0.084
  210SOL    HW2  644   1.262   0.014   0.188
  211SOL     OW  645   1.300   0.453   0.691
  211SOL    HW1  646   1.241   0.533   0.695
  211SOL    HW2  647   1.315   0.418   0.784
  212SOL     OW  648   1.593   0.221   0.882
  212SOL    HW1  649   1.509   0.220   0.936
  212SOL    HW2  650   1.595   0.304   0.826
  213SOL     OW  651   0.039   1.077   0.300
  213SOL    HW1  652   0.138   1.066   0.291
  213SOL    HW2  653  -0.001   0.991   0.332
  214SOL     OW  654   0.875   1.646   0.337
  214SOL    HW1  655   0.798   1.611   0.283
  214SOL    HW2  656   0.843   1.717   0.399
  215SOL     OW  657   0.230   0.628   1.975
  215SOL    HW1  658   0.137   0.626   2.012
  215SOL    HW2  659   0.231   0.589   1.883
  216SOL     OW  660   0.225   0.275   2.858
  216SOL    HW1  661   0.260   0.258   2.950
  216SOL    HW2  662   0.137   0.230   2.846
  217SOL     OW  663   0.019   0.368   2.509
  217SOL    HW1  664  -0.063   0.411   2.548
  217SOL    HW2  665  -0.009   0.295   2.446
  218SOL     OW  666   0.569   1.275   3.027
  218SOL    HW1  667   0.476   1.268   2.990
  218SOL    HW2  668   0.580   1.364   3.071
  219SOL     OW  669   1.555   1.511   2.565
  219SOL    HW1  670   1.498   1.495   2.646
  219SOL    HW2  671   1.496   1.521   2.485
  220SOL     OW  672   1.135   0.703   2.579
  220SOL    HW1  673   1.192   0.781   2.554
  220SOL    HW2  674   1.075   0.729   2.655
  221SOL     OW  675   1.755   0.607   2.093
  221SOL    HW1  676   1.743   0.594   1.994
  221SOL    HW2  677   1.725   0.526   2.142
  222SOL     OW  678   0.768   1.144   2.885
  222SOL    HW1  679   0.690   1.161   2.945
  222SOL    HW2  680   0.802   1.231   2.849
  223SOL     OW  681   0.850   0.798   3.685
  223SOL    HW1  682   0.846   0.874   3.750
  223SOL    HW2  683   0.872   0.834   3.594
  224SOL     OW  684   0.685   1.012   2.527
  224SOL    HW1  685   0.754   0.996   2.597
  224SOL    HW2  686   0.612   1.069   2.565
  225SOL     OW  687   0.686   1.161   3.665
  225SOL    HW1  688   0.746   1.240   3.679
  225SOL    HW2  689   0.600   1.192   3.624
  226SOL     OW  690   0.335   1.435   2.923
  226SOL    HW1  691   0.257   1.404   2.870
  226SOL    HW2  692   0.393   1.493   2.866
  227SOL     OW  693   1.460   1.505   3.201
  227SOL    HW1  694   1.484   1.599   3.227
  227SOL    HW2  695   1.444   1.451   3.283
  228SOL     OW  696   0.438   0.392   3.361
  228SOL    HW1  697   0.520   0.336   3.370
  228SOL    HW2  698   0.357   0.334   3.365
  229SOL     OW  699   1.603   0.447   2.599
  229SOL    HW1  700   1.529   0.493   2.549
  229SOL    HW2  701   1.654   0.515   2.652
  230SOL     OW  702   0.231   1.713   2.345
  230SOL    HW1  703   0.265   1.790   2.399
  230SOL    HW2  704   0.275   1.713   2.255
  231SOL     OW  705   1.127   1.341   3.552
  231SOL    HW1  706   1.174   1.341   3.640
  231SOL    HW2  707   1.079   1.254   3.541
  232SOL     OW  708   0.230   1.434   2.400
  232SOL    HW1  709   0.204   1.530   2.400
  232SOL    HW2  710   0.159   1.380   2.445
  233SOL     OW  711   0.240   1.091   2.748
  233SOL    HW1  712   0.254   1.007   2.800
  233SOL    HW2  713   0.185   1.155   2.803
  234SOL     OW  714   0.620   1.786   3.301
  234SOL    HW1  715   0.528   1.769   3.336
  234SOL    HW2  716   0.648   1.878   3.327
  235SOL     OW  717   0.606   0.964   1.985
  235SOL    HW1  718   0.613   1.048   1.931
  235SOL    HW2  719   0.652   0.977   2.073
  236SOL     OW  720   1.594   0.114   3.342
  236SOL    HW1  721   1.576   0.181   3.270
  236SOL    HW2  722   1.591   0.160   3.431
  237SOL     OW  723   0.122   0.643   2.425
  237SOL    HW1  724   0.077   0.555   2.442
  237SOL    HW2  725   0.121   0.697   2.509
  238SOL     OW  726   1.842   1.767   2.221
  238SOL    HW1  727   1.896   1.738   2.301
  238SOL    HW2  728   1.872   1.857   2.192
  239SOL     OW  729   0.027   1.596   1.979
  239SOL    HW1  730   0.008   1.500   2.000
  239SOL    HW2  731  -0.006   1.654   2.054
  240SOL     OW  732   1.689   0.922   2.474
  240SOL    HW1  733   1.784   0.893   2.482
  240SOL    HW2  734   1.681   0.987   2.399
  241SOL     OW  735   1.641   1.108   2.294
  241SOL    HW1  736   1.727   1.110   2.242
  241SOL    HW2  737   1.655   1.155   2.382
  242SOL     OW  738   0.113   0.737   3.459
  242SOL    HW1  739   0.201   0.724   3.504
  242SOL    HW2  740   0.100   0.834   3.437
  243SOL     OW  741   0.613   1.365   2.588
  243SOL    HW1  742   0.564   1.278   2.597
  243SOL    HW2  743   0.590   1.408   2.501
  244SOL     OW  744   1.293   1.228   3.285
  244SOL    HW1  745   1.330   1.155   3.227
  244SOL    HW2  746   1.345   1.233   3.370
  245SOL     OW  747   0.809   0.004   2.364
  245SOL    HW1  748   0.849   0.095   2.355
  245SOL    HW2  749   0.709   0.012   2.370
  246SOL     OW  750   0.197   0.976   3.126
  246SOL    HW1  751   0.286   0.931   3.112
  246SOL    HW2  752   0.124   0.911   3.107
  247SOL     OW  753   1.525   0.999   2.052
  247SOL    HW1  754   1.462   0.923   2.065
  247SOL    HW2  755   1.573   1.017   2.138
  248SOL     OW  756   1.187   1.792   3.478
  248SOL    HW1  757   1.211   1.852   3.402
  248SOL    HW2  758   1.194   1.697   3.448
  249SOL     OW  759   0.317   0.251   3.663
  249SOL    HW1  760   0.388   0.322   3.669
  249SOL    HW2  761   0.229   0.290   3.691
  250SOL     OW  762   1.466   1.417   2.815
  250SOL    HW1  763   1.407   1.423   2.895
  250SOL    HW2  764   1.451   1.329   2.769
  251SOL     OW  765   1.667   1.714   2.434
  251SOL    HW1  766   1.626   1.691   2.346
  251SOL    HW2  767   1.649   1.640   2.499
  252SOL     OW  768   0.598   0.729   2.132
  252SOL    HW1  769   0.622   0.798   2.064
  252SOL    HW2  770   0.520   0.762   2.186
  253SOL     OW  771   1.281   0.345   2.806
  253SOL    HW1  772   1.195   0.295   2.793
  253SOL    HW2  773   1.343   0.291   2.862
  254SOL     OW  774   1.576   1.662   2.169
  254SOL    HW1  775   1.665   1.708   2.172
  254SOL    HW2  776   1.555   1.638   2.074
  255SOL     OW  777   0.807   0.605   3.327
  255SOL    HW1  778   0.760   0.602   3.416
  255SOL    HW2  779   0.756   0.550   3.261
  256SOL     OW  780   1.394   0.469   3.536
  256SOL    HW1  781   1.374   0.512   3.624
  256SOL    HW2  782   1.472   0.407   3.545
  257SOL     OW  783   0.973   0.890   3.434
  257SOL    HW1  784   1.019   0.806   3.405
  257SOL    HW2  785   0.917   0.924   3.359
  258SOL     OW  786   0.991   0.410   3.104
  258SOL    HW1  787   0.914   0.444   3.158
  258SOL    HW2  788   0.957   0.359   3.025
  259SOL     OW  789   1.041   0.701   2.291
  259SOL    HW1  790   1.067   0.697   2.387
  259SOL    HW2  791   0.956   0.650   2.277
  260SOL     OW  792   0.076   0.811   2.651
  260SOL    HW1  793   0.175   0.799   2.660
  260SOL    HW2  794   0.052   0.906   2.672
  261SOL     OW  795   0.130   1.821   3.433
  261SOL    HW1  796   0.120   1.806   3.532
  261SOL    HW2  797   0.044   1.857   3.397
  262SOL     OW  798   0.865   0.348   2.057
  262SOL    HW1  799   0.924   0.411   2.008
  262SOL    HW2  800   0.884   0.254   2.028
  263SOL     OW  801   1.719   0.585   3.693
  263SOL    HW1  802   1.693   0.674   3.657
  263SOL    HW2  803   1.717   0.517   3.620
  264SOL     OW  804   1.362   1.144   2.407
  264SOL    HW1  805   1.445   1.115   2.359
  264SOL    HW2  806   1.313   1.211   2.351
  265SOL     OW  807   0.550   0.196   2.747
  265SOL    HW1  808   0.545   0.191   2.847
  265SOL    HW2  809   0.552   0.292   2.718
  266SOL     OW  810   1.008   1.456   2.339
  266SOL    HW1  811   0.962   1.528   2.287
  266SOL    HW2  812   1.004   1.476   2.437
  267SOL     OW  813   0.351   1.801   2.715
  267SOL    HW1  814   0.401   1.715   2.721
  267SOL    HW2  815   0.416   1.878   2.712
  268SOL     OW  816   1.795   1.066   2.735
  268SOL    HW1  817   1.733   1.051   2.659
  268SOL    HW2  818   1.743   1.077   2.820
  269SOL     OW  819   1.227   1.550   3.368
  269SOL    HW1  820   1.233   1.473   3.432
  269SOL    HW2  821   1.175   1.524   3.288
  270SOL     OW  822   0.321   0.943   2.104
  270SOL    HW1  823   0.403   0.982   2.062
  270SOL    HW2  824   0.294   0.861   2.055
  271SOL     OW  825   1.458   0.735   2.590
  271SOL    HW1  826   1.453   0.670   2.665
  271SOL    HW2  827   1.538   0.794   2.603
  272SOL     OW  828   0.461   1.266   3.589
  272SOL    HW1  829   0.411   1.267   3.503
  272SOL    HW2  830   0.398   1.248   3.665
  273SOL     OW  831   1.111   1.776   2.099
  273SOL    HW1  832   1.051   1.714   2.149
  273SOL    HW2  833   1.142   1.732   2.014
  274SOL     OW  834   0.202   0.285   3.360
  274SOL    HW1  835   0.122   0.345   3.347
  274SOL    HW2  836   0.192   0.236   3.446
  275SOL     OW  837   1.632   1.377   1.943
  275SOL    HW1  838   1.600   1.471   1.933
  275SOL    HW2  839   1.556   1.314   1.931
  276SOL     OW  840   0.464   1.743   2.185
  276SOL    HW1  841   0.497   1.782   2.271
  276SOL    HW2  842   0.540   1.736   2.120
  277SOL     OW  843   1.400   0.107   2.288
  277SOL    HW1  844   1.376   0.070   2.198
  277SOL    HW2  845   1.499   0.123   2.292
  278SOL     OW  846   0.249   1.785   3.103
  278SOL    HW1  847   0.306   1.720   3.153
  278SOL    HW2  848   0.233   1.752   3.010
  279SOL     OW  849   0.940   1.698   2.766
  279SOL    HW1  850   1.020   1.641   2.787
  279SOL    HW2  851   0.891   1.658   2.689
  280SOL     OW  852   0.382   0.700   2.342
  280SOL    HW1  853   0.427   0.610   2.339
  280SOL    HW2  854   0.288   0.689   2.375
  281SOL     OW  855   1.547   0.222   3.591
  281SOL    HW1  856   1.542   0.259   3.683
  281SOL    HW2  857   1.475   0.153   3.579
  282SOL     OW  858   0.614   0.122   1.979
  282SOL    HW1  859   0.712   0.100   1.986
  282SOL    HW2  860   0.583   0.105   1.886
  283SOL     OW  861   0.781   0.264   3.611
  283SOL    HW1  862   0.848   0.203   3.654
  283SOL    HW2  863   0.708   0.283   3.676
  284SOL     OW  864   0.888   1.514   3.057
  284SOL    HW1  865   0.865   1.489   2.963
  284SOL    HW2  866   0.949   1.445   3.096
  285SOL     OW  867   1.351   0.590   3.295
  285SOL    HW1  868   1.379   0.547   3.380
  285SOL    HW2  869   1.376   0.686   3.296
  286SOL     OW  870   0.803   1.402   2.786
  286SOL    HW1  871   0.893   1.416   2.744
  286SOL    HW2  872   0.732   1.404   2.715
  287SOL     OW  873   0.922   0.503   2.761
  287SOL    HW1  874   0.897   0.494   2.665
  287SOL    HW2  875   0.970   0.421   2.792
  288SOL     OW  876   0.539   0.064   2.374
  288SOL    HW1  877   0.458   0.065   2.432
  288SOL    HW2  878   0.542   0.147   2.319
  289SOL     OW  879   1.434   1.188   1.903
  289SOL    HW1  880   1.466   1.112   1.960
  289SOL    HW2  881   1.342   1.215   1.933
  290SOL     OW  882   0.297   0.035   2.033
  290SOL    HW1  883   0.346   0.119   2.012
  290SOL    HW2  884   0.359  -0.030   2.078
  291SOL     OW  885   0.935   0.236   2.342
  291SOL    HW1  886   0.887   0.277   2.264
  291SOL    HW2  887   1.034   0.234   2.323
  292SOL     OW  888   1.076   0.683   3.326
  292SOL    HW1  889   0.996   0.622   3.329
  292SOL    HW2  890   1.157   0.630   3.302
  293SOL     OW  891   1.227   1.570   2.655
  293SOL    HW1  892   1.248   1.644   2.590
  293SOL    HW2  893   1.295   1.570   2.728
  294SOL     OW  894   0.459   1.152   2.603
  294SOL    HW1  895   0.388   1.125   2.668
  294SOL    HW2  896   0.433   1.124   2.510
  295SOL     OW  897   1.271   1.797   2.453
  295SOL    HW1  898   1.315   1.861   2.389
  295SOL    HW2  899   1.221   1.849   2.523
  296SOL     OW  900   1.032   0.549   1.878
  296SOL    HW1  901   0.991   0.631   1.839
  296SOL    HW2  902   1.096   0.575   1.951
  297SOL     OW  903   0.078   0.556   3.248
  297SOL    HW1  904   0.170   0.555   3.207
  297SOL    HW2  905   0.072   0.630   3.315
  298SOL     OW  906   0.561   0.222   3.009
  298SOL    HW1  907   0.599   0.138   3.046
  298SOL    HW2  908   0.473   0.241   3.053
  299SOL     OW  909   0.866   0.454   2.504
  299SOL    HW1  910   0.834   0.526   2.442
  299SOL    HW2  911   0.890   0.373   2.451
  300SOL     OW  912   1.017   0.039   2.615
  300SOL    HW1  913   0.945   0.044   2.546
  300SOL    HW2  914   0.993  -0.030   2.684
  301SOL     OW  915   1.429   1.173   2.729
  301SOL    HW1  916   1.374   1.089   2.722
  301SOL    HW2  917   1.455   1.202   2.637
  302SOL     OW  918   1.466   0.590   2.854
  302SOL    HW1  919   1.436   0.495   2.861
  302SOL    HW2  920   1.539   0.606   2.920
  303SOL     OW  921   1.857   0.833   2.239
  303SOL    HW1  922   1.899   0.769   2.303
  303SOL    HW2  923   1.819   0.782   2.161
  304SOL     OW  924   0.488   1.385   2.036
  304SOL    HW1  925   0.401   1.370   2.083
  304SOL    HW2  926   0.471   1.411   1.941
  305SOL     OW  927   1.664   1.280   2.519
  305SOL    HW1  928   1.763   1.288   2.533
  305SOL    HW2  929   1.619   1.364   2.550
  306SOL     OW  930   1.390   0.575   1.940
  306SOL    HW1  931   1.336   0.554   2.021
  306SOL    HW2  932   1.481   0.534   1.949
  307SOL     OW  933   0.527   0.256   2.190
  307SOL    HW1  934   0.554   0.197   2.115
  307SOL    HW2  935   0.527   0.351   2.159
  308SOL     OW  936   1.754   1.223   3.450
  308SOL    HW1  937   1.845   1.184   3.437
  308SOL    HW2  938   1.762   1.319   3.474
  309SOL     OW  939   1.064   1.347   3.202
  309SOL    HW1  940   0.984   1.324   3.257
  309SOL    HW2  941   1.147   1.321   3.251
  310SOL     OW  942   1.592   1.629   3.487
  310SOL    HW1  943   1.619   1.663   3.397
  310SOL    HW2  944   1.671   1.591   3.533
  311SOL     OW  945   1.111   1.195   2.962
  311SOL    HW1  946   1.071   1.239   3.043
  311SOL    HW2  947   1.070   1.232   2.879
  312SOL     OW  948   1.638   1.099   2.941
  312SOL    HW1  949   1.643   1.180   3.000
  312SOL    HW2  950   1.552   1.101   2.890
  313SOL     OW  951   0.915   0.089   3.264
  313SOL    HW1  952   0.940   0.069   3.169
  313SOL    HW2  953   0.987   0.145   3.306
  314SOL     OW  954   0.980   1.116   3.581
  314SOL    HW1  955   0.881   1.122   3.591
  314SOL    HW2  956   1.003   1.036   3.525
  315SOL     OW  957   0.705   1.050   2.230
  315SOL    HW1  958   0.691   1.057   2.329
  315SOL    HW2  959   0.789   0.999   2.212
  316SOL     OW  960   0.410   0.813   3.113
  316SOL    HW1  961   0.496   0.825   3.163
  316SOL    HW2  962   0.368   0.726   3.140
  317SOL     OW  963   1.274   0.386   3.124
  317SOL    HW1  964   1.295   0.460   3.188
  317SOL    HW2  965   1.185   0.403   3.081
  318SOL     OW  966   0.064   1.564   3.193
  318SOL    HW1  967   0.018   1.646   3.159
  318SOL    HW2  968   0.162   1.583   3.202
  319SOL     OW  969   0.367   1.100   2.363
  319SOL    HW1  970   0.360   1.183   2.307
  319SOL    HW2  971   0.371   1.020   2.303
  320SOL     OW  972   0.566   0.537   2.727
  320SOL    HW1  973   0.578   0.603   2.653
  320SOL    HW2  974   0.612   0.571   2.810
  321SOL     OW  975   1.252   1.348   2.250
  321SOL    HW1  976   1.302   1.425   2.290
  321SOL    HW2  977   1.157   1.350   2.282
  322SOL     OW  978   1.272   1.445   3.004
  322SOL    HW1  979   1.319   1.458   3.091
  322SOL    HW2  980   1.206   1.371   3.013
  323SOL     OW  981   1.582   0.639   2.334
  323SOL    HW1  982   1.551   0.700   2.407
  323SOL    HW2  983   1.632   0.691   2.265
  324SOL     OW  984   0.354   1.510   3.191
  324SOL    HW1  985   0.333   1.466   3.104
  324SOL    HW2  986   0.451   1.536   3.194
  325SOL     OW  987   0.402   0.751   3.460
  325SOL    HW1  988   0.470   0.806   3.413
  325SOL    HW2  989   0.442   0.663   3.487
  326SOL     OW  990   1.587   0.779   3.532
  326SOL    HW1  991   1.495   0.817   3.527
  326SOL    HW2  992   1.647   0.826   3.467
  327SOL     OW  993   1.013   0.105   3.632
  327SOL    HW1  994   1.019   0.190   3.580
  327SOL    HW2  995   1.045   0.029   3.575
  328SOL     OW  996   0.504   0.050   3.602
  328SOL    HW1  997   0.462  -0.007   3.532
  328SOL    HW2  998   0.438   0.119   3.634
  329SOL     OW  999   0.573   0.870   2.891
  329SOL    HW1 1000   0.617   0.959   2.882
  329SOL    HW2 1001   0.510   0.870   2.968
  330SOL     OW 1002   1.360   0.862   2.907
  330SOL    HW1 1003   1.285   0.862   2.841
  330SOL    HW2 1004   1.397   0.770   2.916
  331SOL     OW 1005   1.209   0.525   2.137
  331SOL    HW1 1006   1.222   0.441   2.191
  331SOL    HW2 1007   1.180   0.599   2.197
  332SOL     OW 1008   0.307   0.213   3.093
  332SOL    HW1 1009   0.284   0.250   3.183
  332SOL    HW2 1010   0.277   0.118   3.087
  333SOL     OW 1011   0.037   1.310   3.144
  333SOL    HW1 1012   0.090   1.261   3.212
  333SOL    HW2 1013   0.059   1.408   3.149
  334SOL     OW 1014   0.732   0.634   2.926
  334SOL    HW1 1015   0.791   0.608   2.850
  334SOL    HW2 1016   0.704   0.730   2.915
  335SOL     OW 1017   1.728   0.935   3.716
  335SOL    HW1 1018   1.682   0.928   3.627
  335SOL    HW2 1019   1.666   0.979   3.782
  336SOL     OW 1020   0.307   0.063   2.480
  336SOL    HW1 1021   0.296   0.157   2.513
  336SOL    HW2 1022   0.302   0.000   2.557
  337SOL     OW 1023   1.622   0.367   2.236
  337SOL    HW1 1024   1.624   0.291   2.300
  337SOL    HW2 1025   1.574   0.444   2.276
  338SOL     OW 1026   1.023   0.766   2.828
  338SOL    HW1 1027   1.038   0.787   2.924
  338SOL    HW2 1028   0.993   0.671   2.819
  339SOL     OW 1029   0.980   1.573   3.562
  339SOL    HW1 1030   0.960   1.617   3.474
  339SOL    HW2 1031   1.019   1.482   3.546
  340SOL     OW 1032   1.859   1.518   3.467
  340SOL    HW1 1033   1.873   1.545   3.372
  340SOL    HW2 1034   1.942   1.540   3.520
  341SOL     OW 1035   0.350   0.898   3.666
  341SOL    HW1 1036   0.426   0.942   3.714
  341SOL    HW2 1037   0.385   0.851   3.584
  342SOL     OW 1038   1.540   0.274   1.987
  342SOL    HW1 1039   1.479   0.199   2.010
  342SOL    HW2 1040   1.562   0.326   2.070
  343SOL     OW 1041   1.303   0.838   1.904
  343SOL    HW1 1042   1.337   0.745   1.919
  343SOL    HW2 1043   1.321   0.865   1.809
  344SOL     OW 1044   1.068   1.333   2.711
  344SOL    HW1 1045   1.075   1.249   2.656
  344SOL    HW2 1046   1.130   1.402   2.675
  345SOL     OW 1047   0.319   0.810   2.811
  345SOL    HW1 1048   0.412   0.846   2.816
  345SOL    HW2 1049   0.313   0.725   2.863
  346SOL     OW 1050   0.339   0.509   2.868
  346SOL    HW1 1051   0.287   0.426   2.851
  346SOL    HW2 1052   0.416   0.514   2.804
  347SOL     OW 1053   1.138   0.380   3.540
  347SOL    HW1 1054   1.093   0.443   3.604
  347SOL    HW2 1055   1.231   0.411   3.523
  348SOL     OW 1056   1.160   0.207   3.339
  348SOL    HW1 1057   1.160   0.271   3.416
  348SOL    HW2 1058   1.188   0.255   3.256
  349SOL     OW 1059   0.008   1.326   2.062
  349SOL    HW1 1060  -0.085   1.347   2.031
  349SOL    HW2 1061   0.018   1.227   2.075
  350SOL     OW 1062   0.088   1.801   2.789
  350SOL    HW1 1063   0.046   1.715   2.762
  350SOL    HW2 1064   0.182   1.804   2.755
  351SOL     OW 1065   0.504   1.568   2.772
  351SOL    HW1 1066   0.570   1.642   2.781
  351SOL    HW2 1067   0.548   1.489   2.730
  352SOL     OW 1068   1.002   0.796   3.100
  352SOL    HW1 1069   1.043   0.764   3.186
  352SOL    HW2 1070   0.906   0.769   3.097
  353SOL     OW 1071   0.040   0.544   2.976
  353SOL    HW1 1072   0.125   0.511   2.935
  353SOL    HW2 1073   0.053   0.559   3.074
  354SOL     OW 1074   0.189   0.520   3.584
  354SOL    HW1 1075   0.248   0.480   3.514
  354SOL    HW2 1076   0.131   0.591   3.543
  355SOL     OW 1077   1.369   0.950   3.522
  355SOL    HW1 1078   1.408   1.039   3.542
  355SOL    HW2 1079   1.379   0.930   3.425
  356SOL     OW 1080   0.815   0.572   2.187
  356SOL    HW1 1081   0.822   0.483   2.141
  356SOL    HW2 1082   0.721   0.606   2.179
  357SOL     OW 1083   1.657   0.604   3.068
  357SOL    HW1 1084   1.619   0.535   3.130
  357SOL    HW2 1085   1.739   0.568   3.024
  358SOL     OW 1086   0.252   1.564   3.606
  358SOL    HW1 1087   0.222   1.621   3.682
  358SOL    HW2 1088   0.245   1.467   3.632
  359SOL     OW 1089   0.671   0.464   3.131
  359SOL    HW1 1090   0.637   0.375   3.101
  359SOL    HW2 1091   0.697   0.518   3.051
  360SOL     OW 1092   0.930   1.678   3.327
  360SOL    HW1 1093   0.906   1.660   3.232
  360SOL    HW2 1094   0.960   1.772   3.337
  361SOL     OW 1095   0.473   0.500   2.053
  361SOL    HW1 1096   0.534   0.580   2.057
  361SOL    HW2 1097   0.378   0.531   2.060
  362SOL     OW 1098   0.159   1.137   3.328
  362SOL    HW1 1099   0.181   1.076   3.404
  362SOL    HW2 1100   0.169   1.088   3.242
  363SOL     OW 1101   1.347   1.059   3.096
  363SOL    HW1 1102   1.371   0.996   3.022
  363SOL    HW2 1103   1.257   1.099   3.078
  364SOL     OW 1104   1.302   0.855   2.171
  364SOL    HW1 1105   1.216   0.824   2.213
  364SOL    HW2 1106   1.298   0.841   2.072
  365SOL     OW 1107   1.759   1.747   3.016
  365SOL    HW1 1108   1.820   1.777   2.943
  365SOL    HW2 1109   1.721   1.658   2.994
  366SOL     OW 1110   1.252   1.731   2.990
  366SOL    HW1 1111   1.336   1.736   2.936
  366SOL    HW2 1112   1.229   1.635   3.008
  367SOL     OW 1113   0.083   1.258   2.884
  367SOL    HW1 1114   0.078   1.257   2.984
  367SOL    HW2 1115   0.000   1.217   2.846
  368SOL     OW 1116   0.688   1.662   3.578
  368SOL    HW1 1117   0.632   1.743   3.587
  368SOL    HW2 1118   0.740   1.666   3.492
  369SOL     OW 1119   1.726   0.135   2.385
  369SOL    HW1 1120   1.799   0.118   2.318
  369SOL    HW2 1121   1.695   0.048   2.423
  370SOL     OW 1122   1.388   1.573   2.339
  370SOL    HW1 1123   1.455   1.585   2.265
  370SOL    HW2 1124   1.348   1.662   2.362
  371SOL     OW 1125   0.130   1.794   3.713
  371SOL    HW1 1126   0.089   1.720   3.766
  371SOL    HW2 1127   0.194   1.845   3.771
  372SOL     OW 1128   1.280   0.927   2.534
  372SOL    HW1 1129   1.340   0.846   2.536
  372SOL    HW2 1130   1.320   0.996   2.474
  373SOL     OW 1131   0.830   1.273   3.284
  373SOL    HW1 1132   0.825   1.306   3.379
  373SOL    HW2 1133   0.744   1.292   3.238
  374SOL     OW 1134   0.672   1.616   2.016
  374SOL    HW1 1135   0.681   1.626   1.917
  374SOL    HW2 1136   0.632   1.527   2.037
  375SOL     OW 1137   1.650   1.720   3.256
  375SOL    HW1 1138   1.703   1.730   3.172
  375SOL    HW2 1139   1.623   1.810   3.290
  376SOL     OW 1140   1.841   0.175   2.825
  376SOL    HW1 1141   1.880   0.090   2.789
  376SOL    HW2 1142   1.743   0.177   2.806
  377SOL     OW 1143   0.263   0.326   2.582
  377SOL    HW1 1144   0.184   0.377   2.548
  377SOL    HW2 1145   0.254   0.311   2.680
  378SOL     OW 1146   1.194   1.612   1.893
  378SOL    HW1 1147   1.200   1.519   1.930
  378SOL    HW2 1148   1.135   1.612   1.813
  379SOL     OW 1149   0.822   1.002   3.234
  379SOL    HW1 1150   0.862   1.001   3.142
  379SOL    HW2 1151   0.832   1.094   3.274
  380SOL     OW 1152   0.916   0.910   2.153
  380SOL    HW1 1153   0.979   0.948   2.085
  380SOL    HW2 1154   0.956   0.827   2.192
  381SOL     OW 1155   1.504   1.607   1.906
  381SOL    HW1 1156   1.412   1.644   1.913
  381SOL    HW2 1157   1.542   1.627   1.816
  382SOL     OW 1158   0.372   1.288   3.352
  382SOL    HW1 1159   0.359   1.381   3.318
  382SOL    HW2 1160   0.288   1.236   3.339
  383SOL     OW 1161   1.614   1.292   3.151
  383SOL    HW1 1162   1.674   1.295   3.231
  383SOL    HW2 1163   1.539   1.356   3.164
  384SOL     OW 1164   1.039   1.098   2.558
  384SOL    HW1 1165   0.969   1.051   2.612
  384SOL    HW2 1166   1.098   1.030   2.515
  385SOL     OW 1167   1.014   0.236   2.833
  385SOL    HW1 1168   1.006   0.200   2.740
  385SOL    HW2 1169   1.012   0.160   2.898
  386SOL     OW 1170   0.590   1.487   2.353
  386SOL    HW1 1171   0.632   1.429   2.283
  386SOL    HW2 1172   0.546   1.566   2.309
  387SOL     OW 1173   1.709   0.385   3.243
  387SOL    HW1 1174   1.782   0.454   3.247
  387SOL    HW2 1175   1.737   0.310   3.184
  388SOL     OW 1176   0.255   1.348   2.152
  388SOL    HW1 1177   0.159   1.349   2.125
  388SOL    HW2 1178   0.267   1.401   2.236
  389SOL     OW 1179   0.105   1.013   3.588
  389SOL    HW1 1180   0.028   0.980   3.642
  389SOL    HW2 1181   0.190   0.983   3.630
  390SOL     OW 1182   0.672   0.203   3.351
  390SOL    HW1 1183   0.762   0.187   3.311
  390SOL    HW2 1184   0.680   0.208   3.450
  391SOL     OW 1185   0.075   0.345   1.895
  391SOL    HW1 1186  -0.017   0.317   1.866
  391SOL    HW2 1187   0.106   0.422   1.839
  392SOL     OW 1188   1.440   0.856   3.260
  392SOL    HW1 1189   1.383   0.908   3.197
  392SOL    HW2 1190   1.536   0.868   3.236
  393SOL     OW 1191   0.072   0.166   2.180
  393SOL    HW1 1192   0.055   0.249   2.126
  393SOL    HW2 1193   0.162   0.129   2.158
  394SOL     OW 1194   1.183   1.335   1.981
  394SOL    HW1 1195   1.084   1.324   1.983
  394SOL    HW2 1196   1.217   1.350   2.074
  395SOL     OW 1197   0.613   0.842   3.293
  395SOL    HW1 1198   0.669   0.923   3.276
  395SOL    HW2 1199   0.672   0.762   3.296
  396SOL     OW 1200   1.493   1.767   2.821
  396SOL    HW1 1201   1.526   1.831   2.752
  396SOL    HW2 1202   1.559   1.761   2.896
  397SOL     OW 1203   0.716   0.565   3.570
  397SOL    HW1 1204   0.735   0.630   3.644
  397SOL    HW2 1205   0.776   0.485   3.579
  398SOL     OW 1206   1.450   1.220   3.495
  398SOL    HW1 1207   1.441   1.210   3.594
  398SOL    HW2 1208   1.546   1.213   3.469
  399SOL     OW 1209   0.390   1.741   3.422
  399SOL    HW1 1210   0.299   1.782   3.420
  399SOL    HW2 1211   0.383   1.647   3.454
  400SOL     OW 1212   1.674   0.883   3.116
  400SOL    HW1 1213   1.647   0.794   3.079
  400SOL    HW2 1214   1.675   0.951   3.043
  401SOL     OW 1215   1.225   0.325   2.311
  401SOL    HW1 1216   1.290   0.251   2.300
  401SOL    HW2 1217   1.245   0.375   2.395
  402SOL     OW 1218   0.594   0.745   2.514
  402SOL    HW1 1219   0.644   0.830   2.495
  402SOL    HW2 1220   0.506   0.747   2.466
  403SOL     OW 1221   1.777   0.342   3.504
  403SOL    HW1 1222   1.760   0.373   3.410
  403SOL    HW2 1223   1.693   0.305   3.542
  404SOL     OW 1224   1.730   0.934   3.379
  404SOL    HW1 1225   1.768   1.025   3.394
  404SOL    HW2 1226   1.722   0.917   3.280
  405SOL     OW 1227   0.859   1.374   1.878
  405SOL    HW1 1228   0.813   1.389   1.966
  405SOL    HW2 1229   0.903   1.459   1.848
  406SOL     OW 1230   0.661   1.790   2.815
  406SOL    HW1 1231   0.615   1.878   2.802
  406SOL    HW2 1232   0.760   1.802   2.808
  407SOL     OW 1233   0.859   0.956   2.723
  407SOL    HW1 1234   0.913   0.887   2.771
  407SOL    HW2 1235   0.827   1.025   2.789
  408SOL     OW 1236   1.083   0.984   1.949
  408SOL    HW1 1237   1.060   1.037   1.867
  408SOL    HW2 1238   1.164   0.928   1.930
  409SOL     OW 1239   1.861   1.569   2.713
  409SOL    HW1 1240   1.790   1.557   2.643
  409SOL    HW2 1241   1.862   1.490   2.773
  410SOL     OW 1242   0.221   1.314   3.706
  410SOL    HW1 1243   0.156   1.241   3.685
  410SOL    HW2 1244   0.225   1.328   3.804
  411SOL     OW 1245   0.079   1.240   2.515
  411SOL    HW1 1246   0.078   1.193   2.603
  411SOL    HW2 1247   0.161   1.212   2.464
  412SOL     OW 1248   0.672   1.391   3.486
  412SOL    HW1 1249   0.594   1.341   3.524
  412SOL    HW2 1250   0.669   1.486   3.517
  413SOL     OW 1251   1.824   0.192   3.089
  413SOL    HW1 1252   1.820   0.102   3.133
  413SOL    HW2 1253   1.827   0.181   2.990
  414SOL     OW 1254   0.428   0.424   2.382
  414SOL    HW1 1255   0.458   0.352   2.320
  414SOL    HW2 1256   0.389   0.384   2.465
  415SOL     OW 1257   1.705   1.487   2.966
  415SOL    HW1 1258   1.612   1.462   2.939
  415SOL    HW2 1259   1.731   1.437   3.048
  416SOL     OW 1260   0.317   0.547   3.142
  416SOL    HW1 1261   0.355   0.488   3.214
  416SOL    HW2 1262   0.357   0.521   3.054
  417SOL     OW 1263   0.812   1.586   2.549
  417SOL    HW1 1264   0.844   1.596   2.455
  417SOL    HW2 1265   0.733   1.524   2.551
  418SOL     OW 1266   1.424   0.214   2.974
  418SOL    HW1 1267   1.476   0.149   3.029
  418SOL    HW2 1268   1.375   0.277   3.035
  419SOL     OW 1269   1.001   0.034   3.016
  419SOL    HW1 1270   0.938  -0.038   2.985
  419SOL    HW2 1271   1.094  -0.002   3.016
  420SOL     OW 1272   0.770   1.330   2.163
  420SOL    HW1 1273   0.724   1.243   2.180
  420SOL    HW2 1274   0.861   1.327   2.204
  421SOL     OW 1275   0.618   1.567   3.146
  421SOL    HW1 1276   0.613   1.649   3.203
  421SOL    HW2 1277   0.707   1.564   3.101
  422SOL     OW 1278   1.352   0.052   2.030
  422SOL    HW1 1279   1.387   0.011   1.946
  422SOL    HW2 1280   1.262   0.014   2.050
  423SOL     OW 1281   1.300   0.453   2.553
  423SOL    HW1 1282   1.241   0.533   2.557
  423SOL    HW2 1283   1.315   0.418   2.646
  424SOL     OW 1284   1.593   0.221   2.744
  424SOL    HW1 1285   1.509   0.220   2.798
  424SOL    HW2 1286   1.595   0.304   2.688
  425SOL     OW 1287   0.039   1.077   2.162
  425SOL    HW1 1288   0.138   1.066   2.153
  425SOL    HW2 1289  -0.001   0.991   2.194
  426SOL     OW 1290   0.875   1.646   2.199
  426SOL    HW1 1291   0.798   1.611   2.145
  426SOL    HW2 1292   0.843   1.717   2.261
  427SOL     OW 1293   0.230   0.628   3.837
  427SOL    HW1 1294   0.137   0.626   3.874
  427SOL    HW2 1295   0.231   0.589   3.745
  428SOL     OW 1296   1.755   0.607   3.955
  428SOL    HW1 1297   1.743   0.594   3.856
  428SOL    HW2 1298   1.725   0.526   4.004
  429SOL     OW 1299   0.685   1.012   4.389
  429SOL    HW1 1300   0.754   0.996   4.459
  429SOL    HW2 1301   0.612   1.069   4.427
  430SOL     OW 1302   1.603   0.447   4.461
  430SOL    HW1 1303   1.529   0.493   4.411
  430SOL    HW2 1304   1.654   0.515   4.514
  431SOL     OW 1305   0.231   1.713   4.207
  431SOL    HW1 1306   0.265   1.790   4.261
  431SOL    HW2 1307   0.275   1.713   4.117
  432SOL     OW 1308   0.230   1.434   4.262
  432SOL    HW1 1309   0.204   1.530   4.262
  432SOL    HW2 1310   0.159   1.380   4.307
  433SOL     OW 1311   0.606   0.964   3.847
  433SOL    HW1 1312   0.613   1.048   3.793
  433SOL    HW2 1313   0.652   0.977   3.935
  434SOL     OW 1314   0.122   0.643   4.287
  434SOL    HW1 1315   0.077   0.555   4.304
  434SOL    HW2 1316   0.121   0.697   4.371
  435SOL     OW 1317   1.842   1.767   4.083
  435SOL    HW1 1318   1.896   1.738   4.163
  435SOL    HW2 1319   1.872   1.857   4.054
  436SOL     OW 1320   0.027   1.596   3.841
  436SOL    HW1 1321   0.008   1.500   3.862
  436SOL    HW2 1322  -0.006   1.654   3.916
  437SOL     OW 1323   1.689   0.922   4.336
  437SOL    HW1 1324   1.784   0.893   4.344
  437SOL    HW2 1325   1.681   0.987   4.261
  438SOL     OW 1326   1.641   1.108   4.156
  438SOL    HW1 1327   1.727   1.110   4.104
  438SOL    HW2 1328   1.655   1.155   4.244
  439SOL     OW 1329   0.613   1.365   4.450
  439SOL    HW1 1330   0.564   1.278   4.459
  439SOL    HW2 1331   0.590   1.408   4.363
  440SOL     OW 1332   0.809   0.004   4.226
  440SOL    HW1 1333   0.849   0.095   4.217
  440SOL    HW2 1334   0.709   0.012   4.232
  441SOL     OW 1335   1.525   0.999   3.914
  441SOL    HW1 1336   1.462   0.923   3.927
  441SOL    HW2 1337   1.573   1.017   4.000
  442SOL     OW 1338   1.667   1.714   4.296
  442SOL    HW1 1339   1.626   1.691   4.208
  442SOL    HW2 1340   1.649   1.640   4.361
  443SOL     OW 1341   0.598   0.729   3.994
  443SOL    HW1 1342   0.622   0.798   3.926
  443SOL    HW2 1343   0.520   0.762   4.048
  444SOL     OW 1344   1.281   0.345   4.668
  444SOL    HW1 1345   1.195   0.295   4.655
  444SOL    HW2 1346   1.343   0.291   4.724
  445SOL     OW 1347   1.576   1.662   4.031
  445SOL    HW1 1348   1.665   1.708   4.034
  445SOL    HW2 1349   1.555   1.638   3.936
  446SOL     OW 1350   1.041   0.701   4.153
  446SOL    HW1 1351   1.067   0.697   4.249
  446SOL    HW2 1352   0.956   0.650   4.139
  447SOL     OW 1353   0.076   0.811   4.513
  447SOL    HW1 1354   0.175   0.799   4.522
  447SOL    HW2 1355   0.052   0.906   4.534
  448SOL     OW 1356   0.865   0.348   3.919
  448SOL    HW1 1357   0.924   0.411   3.870
  448SOL    HW2 1358   0.884   0.254   3.890
  449SOL     OW 1359   1.362   1.144   4.269
  449SOL    HW1 1360   1.445   1.115   4.221
  449SOL    HW2 1361   1.313   1.211   4.213
  450SOL     OW 1362   1.008   1.456   4.201
  450SOL    HW1 1363   0.962   1.528   4.149
  450SOL    HW2 1364   1.004   1.476   4.299
  451SOL     OW 1365   0.351   1.801   4.577
  451SOL    HW1 1366   0.401   1.715   4.583
  451SOL    HW2 1367   0.416   1.878   4.574
  452SOL     OW 1368   1.795   1.066   4.597
  452SOL    HW1 1369   1.733   1.051   4.521
  452SOL    HW2 1370   1.743   1.077   4.682
  453SOL     OW 1371   0.321   0.943   3.966
  453SOL    HW1 1372   0.403   0.982   3.924
  453SOL    HW2 1373   0.294   0.861   3.917
  454SOL     OW 1374   1.111   1.776   3.961
  454SOL    HW1 1375   1.051   1.714   4.011
  454SOL    HW2 1376   1.142   1.732   3.876
  455SOL     OW 1377   1.632   1.377   3.805
  455SOL    HW1 1378   1.600   1.471   3.795
  455SOL    HW2 1379   1.556   1.314   3.793
  456SOL     OW 1380   0.464   1.743   4.047
  456SOL    HW1 1381   0.497   1.782   4.133
  456SOL    HW2 1382   0.540   1.736   3.982
  457SOL     OW 1383   1.400   0.107   4.150
  457SOL    HW1 1384   1.376   0.070   4.060
  457SOL    HW2 1385   1.499   0.123   4.154
  458SOL     OW 1386   0.940   1.698   4.628
  458SOL    HW1 1387   1.020   1.641   4.649
  458SOL    HW2 1388   0.891   1.658   4.551
  459SOL     OW 1389   0.382   0.700   4.204
  459SOL    HW1 1390   0.427   0.610   4.201
  459SOL    HW2 1391   0.288   0.689   4.237
  460SOL     OW 1392   0.614   0.122   3.841
  460SOL    HW1 1393   0.712   0.100   3.848
  460SOL    HW2 1394   0.583   0.105   3.748
  461SOL     OW 1395   0.539   0.064   4.236
  461SOL    HW1 1396   0.458   0.065   4.294
  461SOL    HW2 1397   0.542   0.147   4.181
  462SOL     OW 1398   1.434   1.188   3.765
  462SOL    HW1 1399   1.466   1.112   3.822
  462SOL    HW2 1400   1.342   1.215   3.795
  463SOL     OW 1401   0.297   0.035   3.895
  463SOL    HW1 1402   0.346   0.119   3.874
  463SOL    HW2 1403   0.359  -0.030   3.940
  464SOL     OW 1404   0.935   0.236   4.204
  464SOL    HW1 1405   0.887   0.277   4.126
  464SOL    HW2 1406   1.034   0.234   4.185
  465SOL     OW 1407   0.459   1.152   4.465
  465SOL    HW1 1408   0.388   1.125   4.530
  465SOL    HW2 1409   0.433   1.124   4.372
  466SOL     OW 1410   1.271   1.797   4.315
  466SOL    HW1 1411   1.315   1.861   4.251
  466SOL    HW2 1412   1.221   1.849   4.385
  467SOL     OW 1413   1.032   0.549   3.740
  467SOL    HW1 1414   0.991   0.631   3.701
  467SOL    HW2 1415   1.096   0.575   3.813
  468SOL     OW 1416   0.866   0.454   4.366
  468SOL    HW1 1417   0.834   0.526   4.304
  468SOL    HW2 1418   0.890   0.373   4.313
  469SOL     OW 1419   1.857   0.833   4.101
  469SOL    HW1 1420   1.899   0.769   4.165
  469SOL    HW2 1421   1.819   0.782   4.023
  470SOL     OW 1422   0.488   1.385   3.898
  470SOL    HW1 1423   0.401   1.370   3.945
  470SOL    HW2 1424   0.471   1.411   3.803
  471SOL     OW 1425   1.664   1.280   4.381
  471SOL    HW1 1426   1.763   1.288   4.395
  471SOL    HW2 1427   1.619   1.364   4.412
  472SOL     OW 1428   1.390   0.575   3.802
  472SOL    HW1 1429   1.336   0.554   3.883
  472SOL    HW2 1430   1.481   0.534   3.811
  473SOL     OW 1431   0.527   0.256   4.052
  473SOL    HW1 1432   0.554   0.197   3.977
  473SOL    HW2 1433   0.527   0.351   4.021
  474SOL     OW 1434   1.111   1.195   4.824
  474SOL    HW1 1435   1.071   1.239   4.905
  474SOL    HW2 1436   1.070   1.232   4.741
  475SOL     OW 1437   0.705   1.050   4.092
  475SOL    HW1 1438   0.691   1.057   4.191
  475SOL    HW2 1439   0.789   0.999   4.074
  476SOL     OW 1440   0.367   1.100   4.225
  476SOL    HW1 1441   0.360   1.183   4.169
  476SOL    HW2 1442   0.371   1.020   4.165
  477SOL     OW 1443   1.252   1.348   4.112
  477SOL    HW1 1444   1.302   1.425   4.152
  477SOL    HW2 1445   1.157   1.350   4.144
  478SOL     OW 1446   1.582   0.639   4.196
  478SOL    HW1 1447   1.551   0.700   4.269
  478SOL    HW2 1448   1.632   0.691   4.127
  479SOL     OW 1449   1.209   0.525   3.999
  479SOL    HW1 1450   1.222   0.441   4.053
  479SOL    HW2 1451   1.180   0.599   4.059
  480SOL     OW 1452   0.307   0.063   4.342
  480SOL    HW1 1453   0.296   0.157   4.375
  480SOL    HW2 1454   0.302   0.000   4.419
  481SOL     OW 1455   1.622   0.367   4.098
  481SOL    HW1 1456   1.624   0.291   4.162
  481SOL    HW2 1457   1.574   0.444   4.138
  482SOL     OW 1458   1.540   0.274   3.849
  482SOL    HW1 1459   1.479   0.199   3.872
  482SOL    HW2 1460   1.562   0.326   3.932
  483SOL     OW 1461   1.303   0.838   3.766
  483SOL    HW1 1462   1.337   0.745   3.781
  483SOL    HW2 1463   1.321   0.865   3.671
  484SOL     OW 1464   0.008   1.326   3.924
  484SOL    HW1 1465  -0.085   1.347   3.893
  484SOL    HW2 1466   0.018   1.227   3.937
  485SOL     OW 1467   0.815   0.572   4.049
  485SOL    HW1 1468   0.822   0.483   4.003
  485SOL    HW2 1469   0.721   0.606   4.041
  486SOL     OW 1470   0.473   0.500   3.915
  486SOL    HW1 1471   0.534   0.580   3.919
  486SOL    HW2 1472   0.378   0.531   3.922
  487SOL     OW 1473   1.302   0.855   4.033
  487SOL    HW1 1474   1.216   0.824   4.075
  487SOL    HW2 1475   1.298   0.841   3.934
  488SOL     OW 1476   1.726   0.135   4.247
  488SOL    HW1 1477   1.799   0.118   4.180
  488SOL    HW2 1478   1.695   0.048   4.285
  489SOL     OW 1479   1.388   1.573   4.201
  489SOL    HW1 1480   1.455   1.585   4.127
  489SOL    HW2 1481   1.348   1.662   4.224
  490SOL     OW 1482   0.672   1.616   3.878
  490SOL    HW1 1483   0.681   1.626   3.779
  490SOL    HW2 1484   0.632   1.527   3.899
  491SOL     OW 1485   1.841   0.175   4.687
  491SOL    HW1 1486   1.880   0.090   4.651
  491SOL    HW2 1487   1.743   0.177   4.668
  492SOL     OW 1488   1.194   1.612   3.755
  492SOL    HW1 1489   1.200   1.519   3.792
  492SOL    HW2 1490   1.135   1.612   3.675
  493SOL     OW 1491   0.916   0.910   4.015
  493SOL    HW1 1492   0.979   0.948   3.947
  493SOL    HW2 1493   0.956   0.827   4.054
  494SOL     OW 1494   1.504   1.607   3.768
  494SOL    HW1 1495   1.412   1.644   3.775
  494SOL    HW2 1496   1.542   1.627   3.678
  495SOL     OW 1497   0.590   1.487   4.215
  495SOL    HW1 1498   0.632   1.429   4.145
  495SOL    HW2 1499   0.546   1.566   4.171
  496SOL     OW 1500   0.255   1.348   4.014
  496SOL    HW1 1501   0.159   1.349   3.987
  496SOL    HW2 1502   0.267   1.401   4.098
  497SOL     OW 1503   0.075   0.345   3.757
  497SOL    HW1 1504  -0.017   0.317   3.728
  497SOL    HW2 1505   0.106   0.422   3.701
  498SOL     OW 1506   0.072   0.166   4.042
  498SOL    HW1 1507   0.055   0.249   3.988
  498SOL    HW2 1508   0.162   0.129   4.020
  499SOL     OW 1509   1.183   1.335   3.843
  499SOL    HW1 1510   1.084   1.324   3.845
  499SOL    HW2 1511   1.217   1.350   3.936
  500SOL     OW 1512   1.225   0.325   4.173
  500SOL    HW1 1513   1.290   0.251   4.162
  500SOL    HW2 1514   1.245   0.375   4.257
  501SOL     OW 1515   0.594   0.745   4.376
  501SOL    HW1 1516   0.644   0.830   4.357
  501SOL    HW2 1517   0.506   0.747   4.328
  502SOL     OW 1518   0.859   1.374   3.740
  502SOL    HW1 1519   0.813   1.389   3.828
  502SOL    HW2 1520   0.903   1.459   3.710
  503SOL     OW 1521   0.661   1.790   4.677
  503SOL    HW1 1522   0.615   1.878   4.664
  503SOL    HW2 1523   0.760   1.802   4.670
  504SOL     OW 1524   1.083   0.984   3.811
  504SOL    HW1 1525   1.060   1.037   3.729
  504SOL    HW2 1526   1.164   0.928   3.792
  505SOL     OW 1527   0.079   1.240   4.377
  505SOL    HW1 1528   0.078   1.193   4.465
  505SOL    HW2 1529   0.161   1.212   4.326
  506SOL     OW 1530   0.428   0.424   4.244
  506SOL    HW1 1531   0.458   0.352   4.182
  506SOL    HW2 1532   0.389   0.384   4.327
  507SOL     OW 1533   0.812   1.586   4.411
  507SOL    HW1 1534   0.844   1.596   4.317
  507SOL    HW2 1535   0.733   1.524   4.413
  508SOL     OW 1536   0.770   1.330   4.025
  508SOL    HW1 1537   0.724   1.243   4.042
  508SOL    HW2 1538   0.861   1.327   4.066
  509SOL     OW 1539   1.352   0.052   3.892
  509SOL    HW1 1540   1.387   0.011   3.808
  509SOL    HW2 1541   1.262   0.014   3.912
  510SOL     OW 1542   1.300   0.453   4.415
  510SOL    HW1 1543   1.241   0.533   4.419
  510SOL    HW2 1544   1.315   0.418   4.508
  511SOL     OW 1545   0.039   1.077   4.024
  511SOL    HW1 1546   0.138   1.066   4.015
  511SOL    HW2 1547  -0.001   0.991   4.056
  512SOL     OW 1548   0.875   1.646   4.061
  512SOL    HW1 1549   0.798   1.611   4.007
  512SOL    HW2 1550   0.843   1.717   4.123
  513SOL     OW 1551   0.230   2.490   0.113
  513SOL    HW1 1552   0.137   2.488   0.150
  513SOL    HW2 1553   0.231   2.451   0.021
  514SOL     OW 1554   0.225   2.137   0.996
  514SOL    HW1 1555   0.260   2.120   1.088
  514SOL    HW2 1556   0.137   2.092   0.984
  515SOL     OW 1557   0.019   2.230   0.647
  515SOL    HW1 1558  -0.063   2.273   0.686
  515SOL    HW2 1559  -0.009   2.157   0.584
  516SOL     OW 1560   0.569   3.137   1.165
  516SOL    HW1 1561   0.476   3.130   1.128
  516SOL    HW2 1562   0.580   3.226   1.209
  517SOL     OW 1563   1.555   3.373   0.703
  517SOL    HW1 1564   1.498   3.357   0.784
  517SOL    HW2 1565   1.496   3.383   0.623
  518SOL     OW 1566   1.135   2.565   0.717
  518SOL    HW1 1567   1.192   2.643   0.692
  518SOL    HW2 1568   1.075   2.591   0.793
  519SOL     OW 1569   1.755   2.469   0.231
  519SOL    HW1 1570   1.743   2.456   0.132
  519SOL    HW2 1571   1.725   2.388   0.280
  520SOL     OW 1572   0.768   3.006   1.023
  520SOL    HW1 1573   0.690   3.023   1.083
  520SOL    HW2 1574   0.802   3.093   0.987
  521SOL     OW 1575   0.850   2.660   1.823
  521SOL    HW1 1576   0.846   2.736   1.888
  521SOL    HW2 1577   0.872   2.696   1.732
  522SOL     OW 1578   0.685   2.874   0.665
  522SOL    HW1 1579   0.754   2.858   0.735
  522SOL    HW2 1580   0.612   2.931   0.703
  523SOL     OW 1581   0.686   3.023   1.803
  523SOL    HW1 1582   0.746   3.102   1.817
  523SOL    HW2 1583   0.600   3.054   1.762
  524SOL     OW 1584   0.335   3.297   1.061
  524SOL    HW1 1585   0.257   3.266   1.008
  524SOL    HW2 1586   0.393   3.355   1.004
  525SOL     OW 1587   1.460   3.367   1.339
  525SOL    HW1 1588   1.484   3.461   1.365
  525SOL    HW2 1589   1.444   3.313   1.421
  526SOL     OW 1590   0.438   2.254   1.499
  526SOL    HW1 1591   0.520   2.198   1.508
  526SOL    HW2 1592   0.357   2.196   1.503
  527SOL     OW 1593   1.603   2.309   0.737
  527SOL    HW1 1594   1.529   2.355   0.687
  527SOL    HW2 1595   1.654   2.377   0.790
  528SOL     OW 1596   0.231   3.575   0.483
  528SOL    HW1 1597   0.265   3.652   0.537
  528SOL    HW2 1598   0.275   3.575   0.393
  529SOL     OW 1599   1.127   3.203   1.690
  529SOL    HW1 1600   1.174   3.203   1.778
  529SOL    HW2 1601   1.079   3.116   1.679
  530SOL     OW 1602   0.230   3.296   0.538
  530SOL    HW1 1603   0.204   3.392   0.538
  530SOL    HW2 1604   0.159   3.242   0.583
  531SOL     OW 1605   0.240   2.953   0.886
  531SOL    HW1 1606   0.254   2.869   0.938
  531SOL    HW2 1607   0.185   3.017   0.941
  532SOL     OW 1608   0.620   3.648   1.439
  532SOL    HW1 1609   0.528   3.631   1.474
  532SOL    HW2 1610   0.648   3.740   1.465
  533SOL     OW 1611   0.606   2.826   0.123
  533SOL    HW1 1612   0.613   2.910   0.069
  533SOL    HW2 1613   0.652   2.839   0.211
  534SOL     OW 1614   1.594   1.976   1.480
  534SOL    HW1 1615   1.576   2.043   1.408
  534SOL    HW2 1616   1.591   2.022   1.569
  535SOL     OW 1617   0.122   2.505   0.563
  535SOL    HW1 1618   0.077   2.417   0.580
  535SOL    HW2 1619   0.121   2.559   0.647
  536SOL     OW 1620   1.842   3.629   0.359
  536SOL    HW1 1621   1.896   3.600   0.439
  536SOL    HW2 1622   1.872   3.719   0.330
  537SOL     OW 1623   0.027   3.458   0.117
  537SOL    HW1 1624   0.008   3.362   0.138
  537SOL    HW2 1625  -0.006   3.516   0.192
  538SOL     OW 1626   1.689   2.784   0.612
  538SOL    HW1 1627   1.784   2.755   0.620
  538SOL    HW2 1628   1.681   2.849   0.537
  539SOL     OW 1629   1.641   2.970   0.432
  539SOL    HW1 1630   1.727   2.972   0.380
  539SOL    HW2 1631   1.655   3.017   0.520
  540SOL     OW 1632   0.113   2.599   1.597
  540SOL    HW1 1633   0.201   2.586   1.642
  540SOL    HW2 1634   0.100   2.696   1.575
  541SOL     OW 1635   0.613   3.227   0.726
  541SOL    HW1 1636   0.564   3.140   0.735
  541SOL    HW2 1637   0.590   3.270   0.639
  542SOL     OW 1638   1.293   3.090   1.423
  542SOL    HW1 1639   1.330   3.017   1.365
  542SOL    HW2 1640   1.345   3.095   1.508
  543SOL     OW 1641   0.809   1.866   0.502
  543SOL    HW1 1642   0.849   1.957   0.493
  543SOL    HW2 1643   0.709   1.874   0.508
  544SOL     OW 1644   0.197   2.838   1.264
  544SOL    HW1 1645   0.286   2.793   1.250
  544SOL    HW2 1646   0.124   2.773   1.245
  545SOL     OW 1647   1.525   2.861   0.190
  545SOL    HW1 1648   1.462   2.785   0.203
  545SOL    HW2 1649   1.573   2.879   0.276
  546SOL     OW 1650   1.187   3.654   1.616
  546SOL    HW1 1651   1.211   3.714   1.540
  546SOL    HW2 1652   1.194   3.559   1.586
  547SOL     OW 1653   0.317   2.113   1.801
  547SOL    HW1 1654   0.388   2.184   1.807
  547SOL    HW2 1655   0.229   2.152   1.829
  548SOL     OW 1656   1.466   3.279   0.953
  548SOL    HW1 1657   1.407   3.285   1.033
  548SOL    HW2 1658   1.451   3.191   0.907
  549SOL     OW 1659   1.667   3.576   0.572
  549SOL    HW1 1660   1.626   3.553   0.484
  549SOL    HW2 1661   1.649   3.502   0.637
  550SOL     OW 1662   0.598   2.591   0.270
  550SOL    HW1 1663   0.622   2.660   0.202
  550SOL    HW2 1664   0.520   2.624   0.324
  551SOL     OW 1665   1.281   2.207   0.944
  551SOL    HW1 1666   1.195   2.157   0.931
  551SOL    HW2 1667   1.343   2.153   1.000
  552SOL     OW 1668   1.576   3.524   0.307
  552SOL    HW1 1669   1.665   3.570   0.310
  552SOL    HW2 1670   1.555   3.500   0.212
  553SOL     OW 1671   0.807   2.467   1.465
  553SOL    HW1 1672   0.760   2.464   1.554
  553SOL    HW2 1673   0.756   2.412   1.399
  554SOL     OW 1674   1.394   2.331   1.674
  554SOL    HW1 1675   1.374   2.374   1.762
  554SOL    HW2 1676   1.472   2.269   1.683
  555SOL     OW 1677   0.973   2.752   1.572
  555SOL    HW1 1678   1.019   2.668   1.543
  555SOL    HW2 1679   0.917   2.786   1.497
  556SOL     OW 1680   0.991   2.272   1.242
  556SOL    HW1 1681   0.914   2.306   1.296
  556SOL    HW2 1682   0.957   2.221   1.163
  557SOL     OW 1683   1.041   2.563   0.429
  557SOL    HW1 1684   1.067   2.559   0.525
  557SOL    HW2 1685   0.956   2.512   0.415
  558SOL     OW 1686   0.076   2.673   0.789
  558SOL    HW1 1687   0.175   2.661   0.798
  558SOL    HW2 1688   0.052   2.768   0.810
  559SOL     OW 1689   0.130   3.683   1.571
  559SOL    HW1 1690   0.120   3.668   1.670
  559SOL    HW2 1691   0.044   3.719   1.535
  560SOL     OW 1692   0.865   2.210   0.195
  560SOL    HW1 1693   0.924   2.273   0.146
  560SOL    HW2 1694   0.884   2.116   0.166
  561SOL     OW 1695   1.719   2.447   1.831
  561SOL    HW1 1696   1.693   2.536   1.795
  561SOL    HW2 1697   1.717   2.379   1.758
  562SOL     OW 1698   1.362   3.006   0.545
  562SOL    HW1 1699   1.445   2.977   0.497
  562SOL    HW2 1700   1.313   3.073   0.489
  563SOL     OW 1701   0.550   2.058   0.885
  563SOL    HW1 1702   0.545   2.053   0.985
  563SOL    HW2 1703   0.552   2.154   0.856
  564SOL     OW 1704   1.008   3.318   0.477
  564SOL    HW1 1705   0.962   3.390   0.425
  564SOL    HW2 1706   1.004   3.338   0.575
  565SOL     OW 1707   0.351   3.663   0.853
  565SOL    HW1 1708   0.401   3.577   0.859
  565SOL    HW2 1709   0.416   3.740   0.850
  566SOL     OW 1710   1.795   2.928   0.873
  566SOL    HW1 1711   1.733   2.913   0.797
  566SOL    HW2 1712   1.743   2.939   0.958
  567SOL     OW 1713   1.227   3.412   1.506
  567SOL    HW1 1714   1.233   3.335   1.570
  567SOL    HW2 1715   1.175   3.386   1.426
  568SOL     OW 1716   0.321   2.805   0.242
  568SOL    HW1 1717   0.403   2.844   0.200
  568SOL    HW2 1718   0.294   2.723   0.193
  569SOL     OW 1719   1.458   2.597   0.728
  569SOL    HW1 1720   1.453   2.532   0.803
  569SOL    HW2 1721   1.538   2.656   0.741
  570SOL     OW 1722   0.461   3.128   1.727
  570SOL    HW1 1723   0.411   3.129   1.641
  570SOL    HW2 1724   0.398   3.110   1.803
  571SOL     OW 1725   1.111   3.638   0.237
  571SOL    HW1 1726   1.051   3.576   0.287
  571SOL    HW2 1727   1.142   3.594   0.152
  572SOL     OW 1728   0.202   2.147   1.498
  572SOL    HW1 1729   0.122   2.207   1.485
  572SOL    HW2 1730   0.192   2.098   1.584
  573SOL     OW 1731   1.632   3.239   0.081
  573SOL    HW1 1732   1.600   3.333   0.071
  573SOL    HW2 1733   1.556   3.176   0.069
  574SOL     OW 1734   0.464   3.605   0.323
  574SOL    HW1 1735   0.497   3.644   0.409
  574SOL    HW2 1736   0.540   3.598   0.258
  575SOL     OW 1737   1.400   1.969   0.426
  575SOL    HW1 1738   1.376   1.932   0.336
  575SOL    HW2 1739   1.499   1.985   0.430
  576SOL     OW 1740   0.249   3.647   1.241
  576SOL    HW1 1741   0.306   3.582   1.291
  576SOL    HW2 1742   0.233   3.614   1.148
  577SOL     OW 1743   0.940   3.560   0.904
  577SOL    HW1 1744   1.020   3.503   0.925
  577SOL    HW2 1745   0.891   3.520   0.827
  578SOL     OW 1746   0.382   2.562   0.480
  578SOL    HW1 1747   0.427   2.472   0.477
  578SOL    HW2 1748   0.288   2.551   0.513
  579SOL     OW 1749   1.547   2.084   1.729
  579SOL    HW1 1750   1.542   2.121   1.821
  579SOL    HW2 1751   1.475   2.015   1.717
  580SOL     OW 1752   0.781   2.126   1.749
  580SOL    HW1 1753   0.848   2.065   1.792
  580SOL    HW2 1754   0.708   2.145   1.814
  581SOL     OW 1755   0.888   3.376   1.195
  581SOL    HW1 1756   0.865   3.351   1.101
  581SOL    HW2 1757   0.949   3.307   1.234
  582SOL     OW 1758   1.351   2.452   1.433
  582SOL    HW1 1759   1.379   2.409   1.518
  582SOL    HW2 1760   1.376   2.548   1.434
  583SOL     OW 1761   0.803   3.264   0.924
  583SOL    HW1 1762   0.893   3.278   0.882
  583SOL    HW2 1763   0.732   3.266   0.853
  584SOL     OW 1764   0.922   2.365   0.899
  584SOL    HW1 1765   0.897   2.356   0.803
  584SOL    HW2 1766   0.970   2.283   0.930
  585SOL     OW 1767   0.539   1.926   0.512
  585SOL    HW1 1768   0.458   1.927   0.570
  585SOL    HW2 1769   0.542   2.009   0.457
  586SOL     OW 1770   1.434   3.050   0.041
  586SOL    HW1 1771   1.466   2.974   0.098
  586SOL    HW2 1772   1.342   3.077   0.071
  587SOL     OW 1773   0.935   2.098   0.480
  587SOL    HW1 1774   0.887   2.139   0.402
  587SOL    HW2 1775   1.034   2.096   0.461
  588SOL     OW 1776   1.076   2.545   1.464
  588SOL    HW1 1777   0.996   2.484   1.467
  588SOL    HW2 1778   1.157   2.492   1.440
  589SOL     OW 1779   1.227   3.432   0.793
  589SOL    HW1 1780   1.248   3.506   0.728
  589SOL    HW2 1781   1.295   3.432   0.866
  590SOL     OW 1782   0.459   3.014   0.741
  590SOL    HW1 1783   0.388   2.987   0.806
  590SOL    HW2 1784   0.433   2.986   0.648
  591SOL     OW 1785   1.271   3.659   0.591
  591SOL    HW1 1786   1.315   3.723   0.527
  591SOL    HW2 1787   1.221   3.711   0.661
  592SOL     OW 1788   1.032   2.411   0.016
  592SOL    HW1 1789   0.991   2.493  -0.023
  592SOL    HW2 1790   1.096   2.437   0.089
  593SOL     OW 1791   0.078   2.418   1.386
  593SOL    HW1 1792   0.170   2.417   1.345
  593SOL    HW2 1793   0.072   2.492   1.453
  594SOL     OW 1794   0.561   2.084   1.147
  594SOL    HW1 1795   0.599   2.000   1.184
  594SOL    HW2 1796   0.473   2.103   1.191
  595SOL     OW 1797   0.866   2.316   0.642
  595SOL    HW1 1798   0.834   2.388   0.580
  595SOL    HW2 1799   0.890   2.235   0.589
  596SOL     OW 1800   1.017   1.901   0.753
  596SOL    HW1 1801   0.945   1.906   0.684
  596SOL    HW2 1802   0.993   1.832   0.822
  597SOL     OW 1803   1.429   3.035   0.867
  597SOL    HW1 1804   1.374   2.951   0.860
  597SOL    HW2 1805   1.455   3.064   0.775
  598SOL     OW 1806   1.466   2.452   0.992
  598SOL    HW1 1807   1.436   2.357   0.999
  598SOL    HW2 1808   1.539   2.468   1.058
  599SOL     OW 1809   1.857   2.695   0.377
  599SOL    HW1 1810   1.899   2.631   0.441
  599SOL    HW2 1811   1.819   2.644   0.299
  600SOL     OW 1812   0.488   3.247   0.174
  600SOL    HW1 1813   0.401   3.232   0.221
  600SOL    HW2 1814   0.471   3.273   0.079
  601SOL     OW 1815   1.664   3.142   0.657
  601SOL    HW1 1816   1.763   3.150   0.671
  601SOL    HW2 1817   1.619   3.226   0.688
  602SOL     OW 1818   1.390   2.437   0.078
  602SOL    HW1 1819   1.336   2.416   0.159
  602SOL    HW2 1820   1.481   2.396   0.087
  603SOL     OW 1821   0.527   2.118   0.328
  603SOL    HW1 1822   0.554   2.059   0.253
  603SOL    HW2 1823   0.527   2.213   0.297
  604SOL     OW 1824   1.754   3.085   1.588
  604SOL    HW1 1825   1.845   3.046   1.575
  604SOL    HW2 1826   1.762   3.181   1.612
  605SOL     OW 1827   1.064   3.209   1.340
  605SOL    HW1 1828   0.984   3.186   1.395
  605SOL    HW2 1829   1.147   3.183   1.389
  606SOL     OW 1830   1.592   3.491   1.625
  606SOL    HW1 1831   1.619   3.525   1.535
  606SOL    HW2 1832   1.671   3.453   1.671
  607SOL     OW 1833   1.111   3.057   1.100
  607SOL    HW1 1834   1.071   3.101   1.181
  607SOL    HW2 1835   1.070   3.094   1.017
  608SOL     OW 1836   1.638   2.961   1.079
  608SOL    HW1 1837   1.643   3.042   1.138
  608SOL    HW2 1838   1.552   2.963   1.028
  609SOL     OW 1839   0.915   1.951   1.402
  609SOL    HW1 1840   0.940   1.931   1.307
  609SOL    HW2 1841   0.987   2.007   1.444
  610SOL     OW 1842   0.980   2.978   1.719
  610SOL    HW1 1843   0.881   2.984   1.729
  610SOL    HW2 1844   1.003   2.898   1.663
  611SOL     OW 1845   0.705   2.912   0.368
  611SOL    HW1 1846   0.691   2.919   0.467
  611SOL    HW2 1847   0.789   2.861   0.350
  612SOL     OW 1848   0.410   2.675   1.251
  612SOL    HW1 1849   0.496   2.687   1.301
  612SOL    HW2 1850   0.368   2.588   1.278
  613SOL     OW 1851   1.274   2.248   1.262
  613SOL    HW1 1852   1.295   2.322   1.326
  613SOL    HW2 1853   1.185   2.265   1.219
  614SOL     OW 1854   0.064   3.426   1.331
  614SOL    HW1 1855   0.018   3.508   1.297
  614SOL    HW2 1856   0.162   3.445   1.340
  615SOL     OW 1857   0.367   2.962   0.501
  615SOL    HW1 1858   0.360   3.045   0.445
  615SOL    HW2 1859   0.371   2.882   0.441
  616SOL     OW 1860   0.566   2.399   0.865
  616SOL    HW1 1861   0.578   2.465   0.791
  616SOL    HW2 1862   0.612   2.433   0.948
  617SOL     OW 1863   1.252   3.210   0.388
  617SOL    HW1 1864   1.302   3.287   0.428
  617SOL    HW2 1865   1.157   3.212   0.420
  618SOL     OW 1866   1.272   3.307   1.142
  618SOL    HW1 1867   1.319   3.320   1.229
  618SOL    HW2 1868   1.206   3.233   1.151
  619SOL     OW 1869   1.582   2.501   0.472
  619SOL    HW1 1870   1.551   2.562   0.545
  619SOL    HW2 1871   1.632   2.553   0.403
  620SOL     OW 1872   0.354   3.372   1.329
  620SOL    HW1 1873   0.333   3.328   1.242
  620SOL    HW2 1874   0.451   3.398   1.332
  621SOL     OW 1875   0.402   2.613   1.598
  621SOL    HW1 1876   0.470   2.668   1.551
  621SOL    HW2 1877   0.442   2.525   1.625
  622SOL     OW 1878   1.587   2.641   1.670
  622SOL    HW1 1879   1.495   2.679   1.665
  622SOL    HW2 1880   1.647   2.688   1.605
  623SOL     OW 1881   1.013   1.967   1.770
  623SOL    HW1 1882   1.019   2.052   1.718
  623SOL    HW2 1883   1.045   1.891   1.713
  624SOL     OW 1884   0.504   1.912   1.740
  624SOL    HW1 1885   0.462   1.855   1.670
  624SOL    HW2 1886   0.438   1.981   1.772
  625SOL     OW 1887   0.573   2.732   1.029
  625SOL    HW1 1888   0.617   2.821   1.020
  625SOL    HW2 1889   0.510   2.732   1.106
  626SOL     OW 1890   1.360   2.724   1.045
  626SOL    HW1 1891   1.285   2.724   0.979
  626SOL    HW2 1892   1.397   2.632   1.054
  627SOL     OW 1893   1.209   2.387   0.275
  627SOL    HW1 1894   1.222   2.303   0.329
  627SOL    HW2 1895   1.180   2.461   0.335
  628SOL     OW 1896   0.307   2.075   1.231
  628SOL    HW1 1897   0.284   2.112   1.321
  628SOL    HW2 1898   0.277   1.980   1.225
  629SOL     OW 1899   0.037   3.172   1.282
  629SOL    HW1 1900   0.090   3.123   1.350
  629SOL    HW2 1901   0.059   3.270   1.287
  630SOL     OW 1902   0.732   2.496   1.064
  630SOL    HW1 1903   0.791   2.470   0.988
  630SOL    HW2 1904   0.704   2.592   1.053
  631SOL     OW 1905   1.728   2.797   1.854
  631SOL    HW1 1906   1.682   2.790   1.765
  631SOL    HW2 1907   1.666   2.841   1.920
  632SOL     OW 1908   0.307   1.925   0.618
  632SOL    HW1 1909   0.296   2.019   0.651
  632SOL    HW2 1910   0.302   1.862   0.695
  633SOL     OW 1911   1.622   2.229   0.374
  633SOL    HW1 1912   1.624   2.153   0.438
  633SOL    HW2 1913   1.574   2.306   0.414
  634SOL     OW 1914   1.023   2.628   0.966
  634SOL    HW1 1915   1.038   2.649   1.062
  634SOL    HW2 1916   0.993   2.533   0.957
  635SOL     OW 1917   0.980   3.435   1.700
  635SOL    HW1 1918   0.960   3.479   1.612
  635SOL    HW2 1919   1.019   3.344   1.684
  636SOL     OW 1920   1.859   3.380   1.605
  636SOL    HW1 1921   1.873   3.407   1.510
  636SOL    HW2 1922   1.942   3.402   1.658
  637SOL     OW 1923   0.350   2.760   1.804
  637SOL    HW1 1924   0.426   2.804   1.852
  637SOL    HW2 1925   0.385   2.713   1.722
  638SOL     OW 1926   1.540   2.136   0.125
  638SOL    HW1 1927   1.479   2.061   0.148
  638SOL    HW2 1928   1.562   2.188   0.208
  639SOL     OW 1929   1.303   2.700   0.042
  639SOL    HW1 1930   1.337   2.607   0.057
  639SOL    HW2 1931   1.321   2.727  -0.053
  640SOL     OW 1932   1.068   3.195   0.849
  640SOL    HW1 1933   1.075   3.111   0.794
  640SOL    HW2 1934   1.130   3.264   0.813
  641SOL     OW 1935   0.319   2.672   0.949
  641SOL    HW1 1936   0.412   2.708   0.954
  641SOL    HW2 1937   0.313   2.587   1.001
  642SOL     OW 1938   0.339   2.371   1.006
  642SOL    HW1 1939   0.287   2.288   0.989
  642SOL    HW2 1940   0.416   2.376   0.942
  643SOL     OW 1941   1.138   2.242   1.678
  643SOL    HW1 1942   1.093   2.305   1.742
  643SOL    HW2 1943   1.231   2.273   1.661
  644SOL     OW 1944   1.160   2.069   1.477
  644SOL    HW1 1945   1.160   2.133   1.554
  644SOL    HW2 1946   1.188   2.117   1.394
  645SOL     OW 1947   0.008   3.188   0.200
  645SOL    HW1 1948  -0.085   3.209   0.169
  645SOL    HW2 1949   0.018   3.089   0.213
  646SOL     OW 1950   0.088   3.663   0.927
  646SOL    HW1 1951   0.046   3.577   0.900
  646SOL    HW2 1952   0.182   3.666   0.893
  647SOL     OW 1953   0.504   3.430   0.910
  647SOL    HW1 1954   0.570   3.504   0.919
  647SOL    HW2 1955   0.548   3.351   0.868
  648SOL     OW 1956   1.002   2.658   1.238
  648SOL    HW1 1957   1.043   2.626   1.324
  648SOL    HW2 1958   0.906   2.631   1.235
  649SOL     OW 1959   0.040   2.406   1.114
  649SOL    HW1 1960   0.125   2.373   1.073
  649SOL    HW2 1961   0.053   2.421   1.212
  650SOL     OW 1962   0.189   2.382   1.722
  650SOL    HW1 1963   0.248   2.342   1.652
  650SOL    HW2 1964   0.131   2.453   1.681
  651SOL     OW 1965   1.369   2.812   1.660
  651SOL    HW1 1966   1.408   2.901   1.680
  651SOL    HW2 1967   1.379   2.792   1.563
  652SOL     OW 1968   0.815   2.434   0.325
  652SOL    HW1 1969   0.822   2.345   0.279
  652SOL    HW2 1970   0.721   2.468   0.317
  653SOL     OW 1971   1.657   2.466   1.206
  653SOL    HW1 1972   1.619   2.397   1.268
  653SOL    HW2 1973   1.739   2.430   1.162
  654SOL     OW 1974   0.252   3.426   1.744
  654SOL    HW1 1975   0.222   3.483   1.820
  654SOL    HW2 1976   0.245   3.329   1.770
  655SOL     OW 1977   0.671   2.326   1.269
  655SOL    HW1 1978   0.637   2.237   1.239
  655SOL    HW2 1979   0.697   2.380   1.189
  656SOL     OW 1980   0.930   3.540   1.465
  656SOL    HW1 1981   0.906   3.522   1.370
  656SOL    HW2 1982   0.960   3.634   1.475
  657SOL     OW 1983   0.473   2.362   0.191
  657SOL    HW1 1984   0.534   2.442   0.195
  657SOL    HW2 1985   0.378   2.393   0.198
  658SOL     OW 1986   0.159   2.999   1.466
  658SOL    HW1 1987   0.181   2.938   1.542
  658SOL    HW2 1988   0.169   2.950   1.380
  659SOL     OW 1989   1.347   2.921   1.234
  659SOL    HW1 1990   1.371   2.858   1.160
  659SOL    HW2 1991   1.257   2.961   1.216
  660SOL     OW 1992   1.302   2.717   0.309
  660SOL    HW1 1993   1.216   2.686   0.351
  660SOL    HW2 1994   1.298   2.703   0.210
  661SOL     OW 1995   1.759   3.609   1.154
  661SOL    HW1 1996   1.820   3.639   1.081
  661SOL    HW2 1997   1.721   3.520   1.132
  662SOL     OW 1998   1.252   3.593   1.128
  662SOL    HW1 1999   1.336   3.598   1.074
  662SOL    HW2 2000   1.229   3.497   1.146
  663SOL     OW 2001   0.083   3.120   1.022
  663SOL    HW1 2002   0.078   3.119   1.122
  663SOL    HW2 2003   0.000   3.079   0.984
  664SOL     OW 2004   0.688   3.524   1.716
  664SOL    HW1 2005   0.632   3.605   1.725
  664SOL    HW2 2006   0.740   3.528   1.630
  665SOL     OW 2007   0.903   1.948   0.133
  665SOL    HW1 2008   0.954   1.949   0.047
  665SOL    HW2 2009   0.959   1.906   0.204
  666SOL     OW 2010   1.726   1.997   0.523
  666SOL    HW1 2011   1.799   1.980   0.456
  666SOL    HW2 2012   1.695   1.910   0.561
  667SOL     OW 2013   1.388   3.435   0.477
  667SOL    HW1 2014   1.455   3.447   0.403
  667SOL    HW2 2015   1.348   3.524   0.500
  668SOL     OW 2016   0.130   3.656   1.851
  668SOL    HW1 2017   0.089   3.582   1.904
  668SOL    HW2 2018   0.194   3.707   1.909
  669SOL     OW 2019   1.280   2.789   0.672
  669SOL    HW1 2020   1.340   2.708   0.674
  669SOL    HW2 2021   1.320   2.858   0.612
  670SOL     OW 2022   0.830   3.135   1.422
  670SOL    HW1 2023   0.825   3.168   1.517
  670SOL    HW2 2024   0.744   3.154   1.376
  671SOL     OW 2025   0.672   3.478   0.154
  671SOL    HW1 2026   0.681   3.488   0.055
  671SOL    HW2 2027   0.632   3.389   0.175
  672SOL     OW 2028   1.650   3.582   1.394
  672SOL    HW1 2029   1.703   3.592   1.310
  672SOL    HW2 2030   1.623   3.672   1.428
  673SOL     OW 2031   1.841   2.037   0.963
  673SOL    HW1 2032   1.880   1.952   0.927
  673SOL    HW2 2033   1.743   2.039   0.944
  674SOL     OW 2034   0.263   2.188   0.720
  674SOL    HW1 2035   0.184   2.239   0.686
  674SOL    HW2 2036   0.254   2.173   0.818
  675SOL     OW 2037   1.194   3.474   0.031
  675SOL    HW1 2038   1.200   3.381   0.068
  675SOL    HW2 2039   1.135   3.474  -0.049
  676SOL     OW 2040   0.822   2.864   1.372
  676SOL    HW1 2041   0.862   2.863   1.280
  676SOL    HW2 2042   0.832   2.956   1.412
  677SOL     OW 2043   0.916   2.772   0.291
  677SOL    HW1 2044   0.979   2.810   0.223
  677SOL    HW2 2045   0.956   2.689   0.330
  678SOL     OW 2046   1.504   3.469   0.044
  678SOL    HW1 2047   1.412   3.506   0.051
  678SOL    HW2 2048   1.542   3.489  -0.046
  679SOL     OW 2049   0.372   3.150   1.490
  679SOL    HW1 2050   0.359   3.243   1.456
  679SOL    HW2 2051   0.288   3.098   1.477
  680SOL     OW 2052   1.614   3.154   1.289
  680SOL    HW1 2053   1.674   3.157   1.369
  680SOL    HW2 2054   1.539   3.218   1.302
  681SOL     OW 2055   1.039   2.960   0.696
  681SOL    HW1 2056   0.969   2.913   0.750
  681SOL    HW2 2057   1.098   2.892   0.653
  682SOL     OW 2058   1.014   2.098   0.971
  682SOL    HW1 2059   1.006   2.062   0.878
  682SOL    HW2 2060   1.012   2.022   1.036
  683SOL     OW 2061   0.590   3.349   0.491
  683SOL    HW1 2062   0.632   3.291   0.421
  683SOL    HW2 2063   0.546   3.428   0.447
  684SOL     OW 2064   1.709   2.247   1.381
  684SOL    HW1 2065   1.782   2.316   1.385
  684SOL    HW2 2066   1.737   2.172   1.322
  685SOL     OW 2067   0.255   3.210   0.290
  685SOL    HW1 2068   0.159   3.211   0.263
  685SOL    HW2 2069   0.267   3.263   0.374
  686SOL     OW 2070   0.105   2.875   1.726
  686SOL    HW1 2071   0.028   2.842   1.780
  686SOL    HW2 2072   0.190   2.845   1.768
  687SOL     OW 2073   0.672   2.065   1.489
  687SOL    HW1 2074   0.762   2.049   1.449
  687SOL    HW2 2075   0.680   2.070   1.588
  688SOL     OW 2076   0.075   2.207   0.033
  688SOL    HW1 2077  -0.017   2.179   0.004
  688SOL    HW2 2078   0.106   2.284  -0.023
  689SOL     OW 2079   1.440   2.718   1.398
  689SOL    HW1 2080   1.383   2.770   1.335
  689SOL    HW2 2081   1.536   2.730   1.374
  690SOL     OW 2082   0.072   2.028   0.318
  690SOL    HW1 2083   0.055   2.111   0.264
  690SOL    HW2 2084   0.162   1.991   0.296
  691SOL     OW 2085   1.183   3.197   0.119
  691SOL    HW1 2086   1.084   3.186   0.121
  691SOL    HW2 2087   1.217   3.212   0.212
  692SOL     OW 2088   0.613   2.704   1.431
  692SOL    HW1 2089   0.669   2.785   1.414
  692SOL    HW2 2090   0.672   2.624   1.434
  693SOL     OW 2091   1.493   3.629   0.959
  693SOL    HW1 2092   1.526   3.693   0.890
  693SOL    HW2 2093   1.559   3.623   1.034
  694SOL     OW 2094   0.716   2.427   1.708
  694SOL    HW1 2095   0.735   2.492   1.782
  694SOL    HW2 2096   0.776   2.347   1.717
  695SOL     OW 2097   1.450   3.082   1.633
  695SOL    HW1 2098   1.441   3.072   1.732
  695SOL    HW2 2099   1.546   3.075   1.607
  696SOL     OW 2100   0.390   3.603   1.560
  696SOL    HW1 2101   0.299   3.644   1.558
  696SOL    HW2 2102   0.383   3.509   1.592
  697SOL     OW 2103   1.674   2.745   1.254
  697SOL    HW1 2104   1.647   2.656   1.217
  697SOL    HW2 2105   1.675   2.813   1.181
  698SOL     OW 2106   1.225   2.187   0.449
  698SOL    HW1 2107   1.290   2.113   0.438
  698SOL    HW2 2108   1.245   2.237   0.533
  699SOL     OW 2109   0.594   2.607   0.652
  699SOL    HW1 2110   0.644   2.692   0.633
  699SOL    HW2 2111   0.506   2.609   0.604
  700SOL     OW 2112   1.777   2.204   1.642
  700SOL    HW1 2113   1.760   2.235   1.548
  700SOL    HW2 2114   1.693   2.167   1.680
  701SOL     OW 2115   1.730   2.796   1.517
  701SOL    HW1 2116   1.768   2.887   1.532
  701SOL    HW2 2117   1.722   2.779   1.418
  702SOL     OW 2118   0.859   3.236   0.016
  702SOL    HW1 2119   0.813   3.251   0.104
  702SOL    HW2 2120   0.903   3.321  -0.014
  703SOL     OW 2121   0.661   3.652   0.953
  703SOL    HW1 2122   0.615   3.740   0.940
  703SOL    HW2 2123   0.760   3.664   0.946
  704SOL     OW 2124   0.859   2.818   0.861
  704SOL    HW1 2125   0.913   2.749   0.909
  704SOL    HW2 2126   0.827   2.887   0.927
  705SOL     OW 2127   1.083   2.846   0.087
  705SOL    HW1 2128   1.060   2.899   0.005
  705SOL    HW2 2129   1.164   2.790   0.068
  706SOL     OW 2130   1.861   3.431   0.851
  706SOL    HW1 2131   1.790   3.419   0.781
  706SOL    HW2 2132   1.862   3.352   0.911
  707SOL     OW 2133   0.221   3.176   1.844
  707SOL    HW1 2134   0.156   3.103   1.823
  707SOL    HW2 2135   0.225   3.190   1.942
  708SOL     OW 2136   0.079   3.102   0.653
  708SOL    HW1 2137   0.078   3.055   0.741
  708SOL    HW2 2138   0.161   3.074   0.602
  709SOL     OW 2139   0.672   3.253   1.624
  709SOL    HW1 2140   0.594   3.203   1.662
  709SOL    HW2 2141   0.669   3.348   1.655
  710SOL     OW 2142   1.824   2.054   1.227
  710SOL    HW1 2143   1.820   1.964   1.271
  710SOL    HW2 2144   1.827   2.043   1.128
  711SOL     OW 2145   0.428   2.286   0.520
  711SOL    HW1 2146   0.458   2.214   0.458
  711SOL    HW2 2147   0.389   2.246   0.603
  712SOL     OW 2148   1.705   3.349   1.104
  712SOL    HW1 2149   1.612   3.324   1.077
  712SOL    HW2 2150   1.731   3.299   1.186
  713SOL     OW 2151   0.317   2.409   1.280
  713SOL    HW1 2152   0.355   2.350   1.352
  713SOL    HW2 2153   0.357   2.383   1.192
  714SOL     OW 2154   0.812   3.448   0.687
  714SOL    HW1 2155   0.844   3.458   0.593
  714SOL    HW2 2156   0.733   3.386   0.689
  715SOL     OW 2157   1.424   2.076   1.112
  715SOL    HW1 2158   1.476   2.011   1.167
  715SOL    HW2 2159   1.375   2.139   1.173
  716SOL     OW 2160   1.001   1.896   1.154
  716SOL    HW1 2161   0.938   1.824   1.123
  716SOL    HW2 2162   1.094   1.860   1.154
  717SOL     OW 2163   0.770   3.192   0.301
  717SOL    HW1 2164   0.724   3.105   0.318
  717SOL    HW2 2165   0.861   3.189   0.342
  718SOL     OW 2166   0.618   3.429   1.284
  718SOL    HW1 2167   0.613   3.511   1.341
  718SOL    HW2 2168   0.707   3.426   1.239
  719SOL     OW 2169   1.352   1.914   0.168
  719SOL    HW1 2170   1.387   1.873   0.084
  719SOL    HW2 2171   1.262   1.876   0.188
  720SOL     OW 2172   1.300   2.315   0.691
  720SOL    HW1 2173   1.241   2.395   0.695
  720SOL    HW2 2174   1.315   2.280   0.784
  721SOL     OW 2175   1.593   2.083   0.882
  721SOL    HW1 2176   1.509   2.082   0.936
  721SOL    HW2 2177   1.595   2.166   0.826
  722SOL     OW 2178   0.039   2.939   0.300
  722SOL    HW1 2179   0.138   2.928   0.291
  722SOL    HW2 2180  -0.001   2.853   0.332
  723SOL     OW 2181   0.875   3.508   0.337
  723SOL    HW1 2182   0.798   3.473   0.283
  723SOL    HW2 2183   0.843   3.579   0.399
  724SOL     OW 2184   0.230   2.490   1.975
  724SOL    HW1 2185   0.137   2.488   2.012
  724SOL    HW2 2186   0.231   2.451   1.883
  725SOL     OW 2187   0.225   2.137   2.858
  725SOL    HW1 2188   0.260   2.120   2.950
  725SOL    HW2 2189   0.137   2.092   2.846
  726SOL     OW 2190   0.019   2.230   2.509
  726SOL    HW1 2191  -0.063   2.273   2.548
  726SOL    HW2 2192  -0.009   2.157   2.446
  727SOL     OW 2193   0.569   3.137   3.027
  727SOL    HW1 2194   0.476   3.130   2.990
  727SOL    HW2 2195   0.580   3.226   3.071
  728SOL     OW 2196   1.555   3.373   2.565
  728SOL    HW1 2197   1.498   3.357   2.646
  728SOL    HW2 2198   1.496   3.383   2.485
  729SOL     OW 2199   1.135   2.565   2.579
  729SOL    HW1 2200   1.192   2.643   2.554
  729SOL    HW2 2201   1.075   2.591   2.655
  730SOL     OW 2202   1.755   2.469   2.093
  730SOL    HW1 2203   1.743   2.456   1.994
  730SOL    HW2 2204   1.725   2.388   2.142
  731SOL     OW 2205   0.768   3.006   2.885
  731SOL    HW1 2206   0.690   3.023   2.945
  731SOL    HW2 2207   0.802   3.093   2.849
  732SOL     OW 2208   0.850   2.660   3.685
  732SOL    HW1 2209   0.846   2.736   3.750
  732SOL    HW2 2210   0.872   2.696   3.594
  733SOL     OW 2211   0.685   2.874   2.527
  733SOL    HW1 2212   0.754   2.858   2.597
  733SOL    HW2 2213   0.612   2.931   2.565
  734SOL     OW 2214   0.686   3.023   3.665
  734SOL    HW1 2215   0.746   3.102   3.679
  734SOL    HW2 2216   0.600   3.054   3.624
  735SOL     OW 2217   0.335   3.297   2.923
  735SOL    HW1 2218   0.257   3.266   2.870
  735SOL    HW2 2219   0.393   3.355   2.866
  736SOL     OW 2220   1.460   3.367   3.201
  736SOL    HW1 2221   1.484   3.461   3.227
  736SOL    HW2 2222   1.444   3.313   3.283
  737SOL     OW 2223   0.438   2.254   3.361
  737SOL    HW1 2224   0.520   2.198   3.370
  737SOL    HW2 2225   0.357   2.196   3.365
  738SOL     OW 2226   1.603   2.309   2.599
  738SOL    HW1 2227   1.529   2.355   2.549
  738SOL    HW2 2228   1.654   2.377   2.652
  739SOL     OW 2229   0.231   3.575   2.345
  739SOL    HW1 2230   0.265   3.652   2.399
  739SOL    HW2 2231   0.275   3.575   2.255
  740SOL     OW 2232   1.127   3.203   3.552
  740SOL    HW1 2233   1.174   3.203   3.640
  740SOL    HW2 2234   1.079   3.116   3.541
  741SOL     OW 2235   0.230   3.296   2.400
  741SOL    HW1 2236   0.204   3.392   2.400
  741SOL    HW2 2237   0.159   3.242   2.445
  742SOL     OW 2238   0.240   2.953   2.748
  742SOL    HW1 2239   0.254   2.869   2.800
  742SOL    HW2 2240   0.185   3.017   2.803
  743SOL     OW 2241   0.620   3.648   3.301
  743SOL    HW1 2242   0.528   3.631   3.336
  743SOL    HW2 2243   0.648   3.740   3.327
  744SOL     OW 2244   0.606   2.826   1.985
  744SOL    HW1 2245   0.613   2.910   1.931
  744SOL    HW2 2246   0.652   2.839   2.073
  745SOL     OW 2247   1.594   1.976   3.342
  745SOL    HW1 2248   1.576   2.043   3.270
  745SOL    HW2 2249   1.591   2.022   3.431
  746SOL     OW 2250   0.122   2.505   2.425
  746SOL    HW1 2251   0.077   2.417   2.442
  746SOL    HW2 2252   0.121   2.559   2.509
  747SOL     OW 2253   1.842   3.629   2.221
  747SOL    HW1 2254   1.896   3.600   2.301
  747SOL    HW2 2255   1.872   3.719   2.192
  748SOL     OW 2256   0.027   3.458   1.979
  748SOL    HW1 2257   0.008   3.362   2.000
  748SOL    HW2 2258  -0.006   3.516   2.054
  749SOL     OW 2259   1.689   2.784   2.474
  749SOL    HW1 2260   1.784   2.755   2.482
  749SOL    HW2 2261   1.681   2.849   2.399
  750SOL     OW 2262   1.641   2.970   2.294
  750SOL    HW1 2263   1.727   2.972   2.242
  750SOL    HW2 2264   1.655   3.017   2.382
  751SOL     OW 2265   0.113   2.599   3.459
  751SOL    HW1 2266   0.201   2.586   3.504
  751SOL    HW2 2267   0.100   2.696   3.437
  752SOL     OW 2268   0.613   3.227   2.588
  752SOL    HW1 2269   0.564   3.140   2.597
  752SOL    HW2 2270   0.590   3.270   2.501
  753SOL     OW 2271   1.293   3.090   3.285
  753SOL    HW1 2272   1.330   3.017   3.227
  753SOL    HW2 2273   1.345   3.095   3.370
  754SOL     OW 2274   0.809   1.866   2.364
  754SOL    HW1 2275   0.849   1.957   2.355
  754SOL    HW2 2276   0.709   1.874   2.370
  755SOL     OW 2277   0.197   2.838   3.126
  755SOL    HW1 2278   0.286   2.793   3.112
  755SOL    HW2 2279   0.124   2.773   3.107
  756SOL     OW 2280   1.525   2.861   2.052
  756SOL    HW1 2281   1.462   2.785   2.065
  756SOL    HW2 2282   1.573   2.879   2.138
  757SOL     OW 2283   1.187   3.654   3.478
  757SOL    HW1 2284   1.211   3.714   3.402
  757SOL    HW2 2285   1.194   3.559   3.448
  758SOL     OW 2286   0.317   2.113   3.663
  758SOL    HW1 2287   0.388   2.184   3.669
  758SOL    HW2 2288   0.229   2.152   3.691
  759SOL     OW 2289   1.466   3.279   2.815
  759SOL    HW1 2290   1.407   3.285   2.895
  759SOL    HW2 2291   1.451   3.191   2.769
  760SOL     OW 2292   1.667   3.576   2.434
  760SOL    HW1 2293   1.626   3.553   2.346
  760SOL    HW2 2294   1.649   3.502   2.499
  761SOL     OW 2295   0.598   2.591   2.132
  761SOL    HW1 2296   0.622   2.660   2.064
  761SOL    HW2 2297   0.520   2.624   2.186
  762SOL     OW 2298   1.281   2.207   2.806
  762SOL    HW1 2299   1.195   2.157   2.793
  762SOL    HW2 2300   1.343   2.153   2.862
  763SOL     OW 2301   1.576   3.524   2.169
  763SOL    HW1 2302   1.665   3.570   2.172
  763SOL    HW2 2303   1.555   3.500   2.074
  764SOL     OW 2304   0.807   2.467   3.327
  764SOL    HW1 2305   0.760   2.464   3.416
  764SOL    HW2 2306   0.756   2.412   3.261
  765SOL     OW 2307   1.394   2.331   3.536
  765SOL    HW1 2308   1.374   2.374   3.624
  765SOL    HW2 2309   1.472   2.269   3.545
  766SOL     OW 2310   0.973   2.752   3.434
  766SOL    HW1 2311   1.019   2.668   3.405
  766SOL    HW2 2312   0.917   2.786   3.359
  767SOL     OW 2313   0.991   2.272   3.104
  767SOL    HW1 2314   0.914   2.306   3.158
  767SOL    HW2 2315   0.957   2.221   3.025
  768SOL     OW 2316   1.041   2.563   2.291
  768SOL    HW1 2317   1.067   2.559   2.387
  768SOL    HW2 2318   0.956   2.512   2.277
  769SOL     OW 2319   0.076   2.673   2.651
  769SOL    HW1 2320   0.175   2.661   2.660
  769SOL    HW2 2321   0.052   2.768   2.672
  770SOL     OW 2322   0.130   3.683   3.433
  770SOL    HW1 2323   0.120   3.668   3.532
  770SOL    HW2 2324   0.044   3.719   3.397
  771SOL     OW 2325   0.865   2.210   2.057
  771SOL    HW1 2326   0.924   2.273   2.008
  771SOL    HW2 2327   0.884   2.116   2.028
  772SOL     OW 2328   1.719   2.447   3.693
  772SOL    HW1 2329   1.693   2.536   3.657
  772SOL    HW2 2330   1.717   2.379   3.620
  773SOL     OW 2331   1.362   3.006   2.407
  773SOL    HW1 2332   1.445   2.977   2.359
  773SOL    HW2 2333   1.313   3.073   2.351
  774SOL     OW 2334   0.550   2.058   2.747
  774SOL    HW1 2335   0.545   2.053   2.847
  774SOL    HW2 2336   0.552   2.154   2.718
  775SOL     OW 2337   1.008   3.318   2.339
  775SOL    HW1 2338   0.962   3.390   2.287
  775SOL    HW2 2339   1.004   3.338   2.437
  776SOL     OW 2340   0.351   3.663   2.715
  776SOL    HW1 2341   0.401   3.577   2.721
  776SOL    HW2 2342   0.416   3.740   2.712
  777SOL     OW 2343   1.795   2.928   2.735
  777SOL    HW1 2344   1.733   2.913   2.659
  777SOL    HW2 2345   1.743   2.939   2.820
  778SOL     OW 2346   1.227   3.412   3.368
  778SOL    HW1 2347   1.233   3.335   3.432
  778SOL    HW2 2348   1.175   3.386   3.288
  779SOL     OW 2349   0.321   2.805   2.104
  779SOL    HW1 2350   0.403   2.844   2.062
  779SOL    HW2 2351   0.294   2.723   2.055
  780SOL     OW 2352   1.458   2.597   2.590
  780SOL    HW1 2353   1.453   2.532   2.665
  780SOL    HW2 2354   1.538   2.656   2.603
  781SOL     OW 2355   0.461   3.128   3.589
  781SOL    HW1 2356   0.411   3.129   3.503
  781SOL    HW2 2357   0.398   3.110   3.665
  782SOL     OW 2358   1.111   3.638   2.099
  782SOL    HW1 2359   1.051   3.576   2.149
  782SOL    HW2 2360   1.142   3.594   2.014
  783SOL     OW 2361   0.202   2.147   3.360
  783SOL    HW1 2362   0.122   2.207   3.347
  783SOL    HW2 2363   0.192   2.098   3.446
  784SOL     OW 2364   1.632   3.239   1.943
  784SOL    HW1 2365   1.600   3.333   1.933
  784SOL    HW2 2366   1.556   3.176   1.931
  785SOL     OW 2367   0.464   3.605   2.185
  785SOL    HW1 2368   0.497   3.644   2.271
  785SOL    HW2 2369   0.540   3.598   2.120
  786SOL     OW 2370   1.400   1.969   2.288
  786SOL    HW1 2371   1.376   1.932   2.198
  786SOL    HW2 2372   1.499   1.985   2.292
  787SOL     OW 2373   0.249   3.647   3.103
  787SOL    HW1 2374   0.306   3.582   3.153
  787SOL    HW2 2375   0.233   3.614   3.010
  788SOL     OW 2376   0.940   3.560   2.766
  788SOL    HW1 2377   1.020   3.503   2.787
  788SOL    HW2 2378   0.891   3.520   2.689
  789SOL     OW 2379   0.382   2.562   2.342
  789SOL    HW1 2380   0.427   2.472   2.339
  789SOL    HW2 2381   0.288   2.551   2.375
  790SOL     OW 2382   1.547   2.084   3.591
  790SOL    HW1 2383   1.542   2.121   3.683
  790SOL    HW2 2384   1.475   2.015   3.579
  791SOL     OW 2385   0.614   1.984   1.979
  791SOL    HW1 2386   0.712   1.962   1.986
  791SOL    HW2 2387   0.583   1.967   1.886
  792SOL     OW 2388   0.781   2.126   3.611
  792SOL    HW1 2389   0.848   2.065   3.654
  792SOL    HW2 2390   0.708   2.145   3.676
  793SOL     OW 2391   0.888   3.376   3.057
  793SOL    HW1 2392   0.865   3.351   2.963
  793SOL    HW2 2393   0.949   3.307   3.096
  794SOL     OW 2394   1.351   2.452   3.295
  794SOL    HW1 2395   1.379   2.409   3.380
  794SOL    HW2 2396   1.376   2.548   3.296
  795SOL     OW 2397   0.803   3.264   2.786
  795SOL    HW1 2398   0.893   3.278   2.744
  795SOL    HW2 2399   0.732   3.266   2.715
  796SOL     OW 2400   0.922   2.365   2.761
  796SOL    HW1 2401   0.897   2.356   2.665
  796SOL    HW2 2402   0.970   2.283   2.792
  797SOL     OW 2403   0.539   1.926   2.374
  797SOL    HW1 2404   0.458   1.927   2.432
  797SOL    HW2 2405   0.542   2.009   2.319
  798SOL     OW 2406   1.434   3.050   1.903
  798SOL    HW1 2407   1.466   2.974   1.960
  798SOL    HW2 2408   1.342   3.077   1.933
  799SOL     OW 2409   0.297   1.897   2.033
  799SOL    HW1 2410   0.346   1.981   2.012
  799SOL    HW2 2411   0.359   1.832   2.078
  800SOL     OW 2412   0.935   2.098   2.342
  800SOL    HW1 2413   0.887   2.139   2.264
  800SOL    HW2 2414   1.034   2.096   2.323
  801SOL     OW 2415   1.076   2.545   3.326
  801SOL    HW1 2416   0.996   2.484   3.329
  801SOL    HW2 2417   1.157   2.492   3.302
  802SOL     OW 2418   1.227   3.432   2.655
  802SOL    HW1 2419   1.248   3.506   2.590
  802SOL    HW2 2420   1.295   3.432   2.728
  803SOL     OW 2421   0.459   3.014   2.603
  803SOL    HW1 2422   0.388   2.987   2.668
  803SOL    HW2 2423   0.433   2.986   2.510
  804SOL     OW 2424   1.271   3.659   2.453
  804SOL    HW1 2425   1.315   3.723   2.389
  804SOL    HW2 2426   1.221   3.711   2.523
  805SOL     OW 2427   1.032   2.411   1.878
  805SOL    HW1 2428   0.991   2.493   1.839
  805SOL    HW2 2429   1.096   2.437   1.951
  806SOL     OW 2430   0.078   2.418   3.248
  806SOL    HW1 2431   0.170   2.417   3.207
  806SOL    HW2 2432   0.072   2.492   3.315
  807SOL     OW 2433   0.561   2.084   3.009
  807SOL    HW1 2434   0.599   2.000   3.046
  807SOL    HW2 2435   0.473   2.103   3.053
  808SOL     OW 2436   0.866   2.316   2.504
  808SOL    HW1 2437   0.834   2.388   2.442
  808SOL    HW2 2438   0.890   2.235   2.451
  809SOL     OW 2439   1.017   1.901   2.615
  809SOL    HW1 2440   0.945   1.906   2.546
  809SOL    HW2 2441   0.993   1.832   2.684
  810SOL     OW 2442   1.429   3.035   2.729
  810SOL    HW1 2443   1.374   2.951   2.722
  810SOL    HW2 2444   1.455   3.064   2.637
  811SOL     OW 2445   1.466   2.452   2.854
  811SOL    HW1 2446   1.436   2.357   2.861
  811SOL    HW2 2447   1.539   2.468   2.920
  812SOL     OW 2448   1.857   2.695   2.239
  812SOL    HW1 2449   1.899   2.631   2.303
  812SOL    HW2 2450   1.819   2.644   2.161
  813SOL     OW 2451   0.488   3.247   2.036
  813SOL    HW1 2452   0.401   3.232   2.083
  813SOL    HW2 2453   0.471   3.273   1.941
  814SOL     OW 2454   1.664   3.142   2.519
  814SOL    HW1 2455   1.763   3.150   2.533
  814SOL    HW2 2456   1.619   3.226   2.550
  815SOL     OW 2457   1.390   2.437   1.940
  815SOL    HW1 2458   1.336   2.416   2.021
  815SOL    HW2 2459   1.481   2.396   1.949
  816SOL     OW 2460   0.527   2.118   2.190
  816SOL    HW1 2461   0.554   2.059   2.115
  816SOL    HW2 2462   0.527   2.213   2.159
  817SOL     OW 2463   1.754   3.085   3.450
  817SOL    HW1 2464   1.845   3.046   3.437
  817SOL    HW2 2465   1.762   3.181   3.474
  818SOL     OW 2466   1.064   3.209   3.202
  818SOL    HW1 2467   0.984   3.186   3.257
  818SOL    HW2 2468   1.147   3.183   3.251
  819SOL     OW 2469   1.592   3.491   3.487
  819SOL    HW1 2470   1.619   3.525   3.397
  819SOL    HW2 2471   1.671   3.453   3.533
  820SOL     OW 2472   1.111   3.057   2.962
  820SOL    HW1 2473   1.071   3.101   3.043
  820SOL    HW2 2474   1.070   3.094   2.879
  821SOL     OW 2475   1.638   2.961   2.941
  821SOL    HW1 2476   1.643   3.042   3.000
  821SOL    HW2 2477   1.552   2.963   2.890
  822SOL     OW 2478   0.915   1.951   3.264
  822SOL    HW1 2479   0.940   1.931   3.169
  822SOL    HW2 2480   0.987   2.007   3.306
  823SOL     OW 2481   0.980   2.978   3.581
  823SOL    HW1 2482   0.881   2.984   3.591
  823SOL    HW2 2483   1.003   2.898   3.525
  824SOL     OW 2484   0.705   2.912   2.230
  824SOL    HW1 2485   0.691   2.919   2.329
  824SOL    HW2 2486   0.789   2.861   2.212
  825SOL     OW 2487   0.410   2.675   3.113
  825SOL    HW1 2488   0.496   2.687   3.163
  825SOL    HW2 2489   0.368   2.588   3.140
  826SOL     OW 2490   1.274   2.248   3.124
  826SOL    HW1 2491   1.295   2.322   3.188
  826SOL    HW2 2492   1.185   2.265   3.081
  827SOL     OW 2493   0.064   3.426   3.193
  827SOL    HW1 2494   0.018   3.508   3.159
  827SOL    HW2 2495   0.162   3.445   3.202
  828SOL     OW 2496   0.367   2.962   2.363
  828SOL    HW1 2497   0.360   3.045   2.307
  828SOL    HW2 2498   0.371   2.882   2.303
  829SOL     OW 2499   0.566   2.399   2.727
  829SOL    HW1 2500   0.578   2.465   2.653
  829SOL    HW2 2501   0.612   2.433   2.810
  830SOL     OW 2502   1.252   3.210   2.250
  830SOL    HW1 2503   1.302   3.287   2.290
  830SOL    HW2 2504   1.157   3.212   2.282
  831SOL     OW 2505   1.272   3.307   3.004
  831SOL    HW1 2506   1.319   3.320   3.091
  831SOL    HW2 2507   1.206   3.233   3.013
  832SOL     OW 2508   1.582   2.501   2.334
  832SOL    HW1 2509   1.551   2.562   2.407
  832SOL    HW2 2510   1.632   2.553   2.265
  833SOL     OW 2511   0.354   3.372   3.191
  833SOL    HW1 2512   0.333   3.328   3.104
  833SOL    HW2 2513   0.451   3.398   3.194
  834SOL     OW 2514   0.402   2.613   3.460
  834SOL    HW1 2515   0.470   2.668   3.413
  834SOL    HW2 2516   0.442   2.525   3.487
  835SOL     OW 2517   1.587   2.641   3.532
  835SOL    HW1 2518   1.495   2.679   3.527
  835SOL    HW2 2519   1.647   2.688   3.467
  836SOL     OW 2520   1.013   1.967   3.632
  836SOL    HW1 2521   1.019   2.052   3.580
  836SOL    HW2 2522   1.045   1.891   3.575
  837SOL     OW 2523   0.504   1.912   3.602
  837SOL    HW1 2524   0.462   1.855   3.532
  837SOL    HW2 2525   0.438   1.981   3.634
  838SOL     OW 2526   0.573   2.732   2.891
  838SOL    HW1 2527   0.617   2.821   2.882
  838SOL    HW2 2528   0.510   2.732   2.968
  839SOL     OW 2529   1.360   2.724   2.907
  839SOL    HW1 2530   1.285   2.724   2.841
  839SOL    HW2 2531   1.397   2.632   2.916
  840SOL     OW 2532   1.209   2.387   2.137
  840SOL    HW1 2533   1.222   2.303   2.191
  840SOL    HW2 2534   1.180   2.461   2.197
  841SOL     OW 2535   0.307   2.075   3.093
  841SOL    HW1 2536   0.284   2.112   3.183
  841SOL    HW2 2537   0.277   1.980   3.087
  842SOL     OW 2538   0.037   3.172   3.144
  842SOL    HW1 2539   0.090   3.123   3.212
  842SOL    HW2 2540   0.059   3.270   3.149
  843SOL     OW 2541   0.732   2.496   2.926
  843SOL    HW1 2542   0.791   2.470   2.850
  843SOL    HW2 2543   0.704   2.592   2.915
  844SOL     OW 2544   1.728   2.797   3.716
  844SOL    HW1 2545   1.682   2.790   3.627
  844SOL    HW2 2546   1.666   2.841   3.782
  845SOL     OW 2547   0.307   1.925   2.480
  845SOL    HW1 2548   0.296   2.019   2.513
  845SOL    HW2 2549   0.302   1.862   2.557
  846SOL     OW 2550   1.622   2.229   2.236
  846SOL    HW1 2551   1.624   2.153   2.300
  846SOL    HW2 2552   1.574   2.306   2.276
  847SOL     OW 2553   1.023   2.628   2.828
  847SOL    HW1 2554   1.038   2.649   2.924
  847SOL    HW2 2555   0.993   2.533   2.819
  848SOL     OW 2556   0.980   3.435   3.562
  848SOL    HW1 2557   0.960   3.479   3.474
  848SOL    HW2 2558   1.019   3.344   3.546
  849SOL     OW 2559   1.859   3.380   3.467
  849SOL    HW1 2560   1.873   3.407   3.372
  849SOL    HW2 2561   1.942   3.402   3.520
  850SOL     OW 2562   0.350   2.760   3.666
  850SOL    HW1 2563   0.426   2.804   3.714
  850SOL    HW2 2564   0.385   2.713   3.584
  851SOL     OW 2565   1.540   2.136   1.987
  851SOL    HW1 2566   1.479   2.061   2.010
  851SOL    HW2 2567   1.562   2.188   2.070
  852SOL     OW 2568   1.303   2.700   1.904
  852SOL    HW1 2569   1.337   2.607   1.919
  852SOL    HW2 2570   1.321   2.727   1.809
  853SOL     OW 2571   1.068   3.195   2.711
  853SOL    HW1 2572   1.075   3.111   2.656
  853SOL    HW2 2573   1.130   3.264   2.675
  854SOL     OW 2574   0.319   2.672   2.811
  854SOL    HW1 2575   0.412   2.708   2.816
  854SOL    HW2 2576   0.313   2.587   2.863
  855SOL     OW 2577   0.339   2.371   2.868
  855SOL    HW1 2578   0.287   2.288   2.851
  855SOL    HW2 2579   0.416   2.376   2.804
  856SOL     OW 2580   1.138   2.242   3.540
  856SOL    HW1 2581   1.093   2.305   3.604
  856SOL    HW2 2582   1.231   2.273   3.523
  857SOL     OW 2583   1.160   2.069   3.339
  857SOL    HW1 2584   1.160   2.133   3.416
  857SOL    HW2 2585   1.188   2.117   3.256
  858SOL     OW 2586   0.008   3.188   2.062
  858SOL    HW1 2587  -0.085   3.209   2.031
  858SOL    HW2 2588   0.018   3.089   2.075
  859SOL     OW 2589   0.088   3.663   2.789
  859SOL    HW1 2590   0.046   3.577   2.762
  859SOL    HW2 2591   0.182   3.666   2.755
  860SOL     OW 2592   0.504   3.430   2.772
  860SOL    HW1 2593   0.570   3.504   2.781
  860SOL    HW2 2594   0.548   3.351   2.730
  861SOL     OW 2595   1.002   2.658   3.100
  861SOL    HW1 2596   1.043   2.626   3.186
  861SOL    HW2 2597   0.906   2.631   3.097
  862SOL     OW 2598   0.040   2.406   2.976
  862SOL    HW1 2599   0.125   2.373   2.935
  862SOL    HW2 2600   0.053   2.421   3.074
  863SOL     OW 2601   0.189   2.382   3.584
  863SOL    HW1 2602   0.248   2.342   3.514
  863SOL    HW2 2603   0.131   2.453   3.543
  864SOL     OW 2604   1.369   2.812   3.522
  864SOL    HW1 2605   1.408   2.901   3.542
  864SOL    HW2 2606   1.379   2.792   3.425
  865SOL     OW 2607   0.815   2.434   2.187
  865SOL    HW1 2608   0.822   2.345   2.141
  865SOL    HW2 2609   0.721   2.468   2.179
  866SOL     OW 2610   1.657   2.466   3.068
  866SOL    HW1 2611   1.619   2.397   3.130
  866SOL    HW2 2612   1.739   2.430   3.024
  867SOL     OW 2613   0.252   3.426   3.606
  867SOL    HW1 2614   0.222   3.483   3.682
  867SOL    HW2 2615   0.245   3.329   3.632
  868SOL     OW 2616   0.671   2.326   3.131
  868SOL    HW1 2617   0.637   2.237   3.101
  868SOL    HW2 2618   0.697   2.380   3.051
  869SOL     OW 2619   0.930   3.540   3.327
  869SOL    HW1 2620   0.906   3.522   3.232
  869SOL    HW2 2621   0.960   3.634   3.337
  870SOL     OW 2622   0.473   2.362   2.053
  870SOL    HW1 2623   0.534   2.442   2.057
  870SOL    HW2 2624   0.378   2.393   2.060
  871SOL     OW 2625   0.159   2.999   3.328
  871SOL    HW1 2626   0.181   2.938   3.404
  871SOL    HW2 2627   0.169   2.950   3.242
  872SOL     OW 2628   1.347   2.921   3.096
  872SOL    HW1 2629   1.371   2.858   3.022
  872SOL    HW2 2630   1.257   2.961   3.078
  873SOL     OW 2631   1.302   2.717   2.171
  873SOL    HW1 2632   1.216   2.686   2.213
  873SOL    HW2 2633   1.298   2.703   2.072
  874SOL     OW 2634   1.759   3.609   3.016
  874SOL    HW1 2635   1.820   3.639   2.943
  874SOL    HW2 2636   1.721   3.520   2.994
  875SOL     OW 2637   1.252   3.593   2.990
  875SOL    HW1 2638   1.336   3.598   2.936
  875SOL    HW2 2639   1.229   3.497   3.008
  876SOL     OW 2640   0.083   3.120   2.884
  876SOL    HW1 2641   0.078   3.119   2.984
  876SOL    HW2 2642   0.000   3.079   2.846
  877SOL     OW 2643   0.688   3.524   3.578
  877SOL    HW1 2644   0.632   3.605   3.587
  877SOL    HW2 2645   0.740   3.528   3.492
  878SOL     OW 2646   1.726   1.997   2.385
  878SOL    HW1 2647   1.799   1.980   2.318
  878SOL    HW2 2648   1.695   1.910   2.423
  879SOL     OW 2649   1.388   3.435   2.339
  879SOL    HW1 2650   1.455   3.447   2.265
  879SOL    HW2 2651   1.348   3.524   2.362
  880SOL     OW 2652   0.130   3.656   3.713
  880SOL    HW1 2653   0.089   3.582   3.766
  880SOL    HW2 2654   0.194   3.707   3.771
  881SOL     OW 2655   1.280   2.789   2.534
  881SOL    HW1 2656   1.340   2.708   2.536
  881SOL    HW2 2657   1.320   2.858   2.474
  882SOL     OW 2658   0.830   3.135   3.284
  882SOL    HW1 2659   0.825   3.168   3.379
  882SOL    HW2 2660   0.744   3.154   3.238
  883SOL     OW 2661   0.672   3.478   2.016
  883SOL    HW1 2662   0.681   3.488   1.917
  883SOL    HW2 2663   0.632   3.389   2.037
  884SOL     OW 2664   1.650   3.582   3.256
  884SOL    HW1 2665   1.703   3.592   3.172
  884SOL    HW2 2666   1.623   3.672   3.290
  885SOL     OW 2667   1.841   2.037   2.825
  885SOL    HW1 2668   1.880   1.952   2.789
  885SOL    HW2 2669   1.743   2.039   2.806
  886SOL     OW 2670   0.263   2.188   2.582
  886SOL    HW1 2671   0.184   2.239   2.548
  886SOL    HW2 2672   0.254   2.173   2.680
  887SOL     OW 2673   1.194   3.474   1.893
  887SOL    HW1 2674   1.200   3.381   1.930
  887SOL    HW2 2675   1.135   3.474   1.813
  888SOL     OW 2676   0.822   2.864   3.234
  888SOL    HW1 2677   0.862   2.863   3.142
  888SOL    HW2 2678   0.832   2.956   3.274
  889SOL     OW 2679   0.916   2.772   2.153
  889SOL    HW1 2680   0.979   2.810   2.085
  889SOL    HW2 2681   0.956   2.689   2.192
  890SOL     OW 2682   1.504   3.469   1.906
  890SOL    HW1 2683   1.412   3.506   1.913
  890SOL    HW2 2684   1.542   3.489   1.816
  891SOL     OW 2685   0.372   3.150   3.352
  891SOL    HW1 2686   0.359   3.243   3.318
  891SOL    HW2 2687   0.288   3.098   3.339
  892SOL     OW 2688   1.614   3.154   3.151
  892SOL    HW1 2689   1.674   3.157   3.231
  892SOL    HW2 2690   1.539   3.218   3.164
  893SOL     OW 2691   1.039   2.960   2.558
  893SOL    HW1 2692   0.969   2.913   2.612
  893SOL    HW2 2693   1.098   2.892   2.515
  894SOL     OW 2694   1.014   2.098   2.833
  894SOL    HW1 2695   1.006   2.062   2.740
  894SOL    HW2 2696   1.012   2.022   2.898
  895SOL     OW 2697   0.590   3.349   2.353
  895SOL    HW1 2698   0.632   3.291   2.283
  895SOL    HW2 2699   0.546   3.428   2.309
  896SOL     OW 2700   1.709   2.247   3.243
  896SOL    HW1 2701   1.782   2.316   3.247
  896SOL    HW2 2702   1.737   2.172   3.184
  897SOL     OW 2703   0.255   3.210   2.152
  897SOL    HW1 2704   0.159   3.211   2.125
  897SOL    HW2 2705   0.267   3.263   2.236
  898SOL     OW 2706   0.105   2.875   3.588
  898SOL    HW1 2707   0.028   2.842   3.642
  898SOL    HW2 2708   0.190   2.845   3.630
  899SOL     OW 2709   0.672   2.065   3.351
  899SOL    HW1 2710   0.762   2.049   3.311
  899SOL    HW2 2711   0.680   2.070   3.450
  900SOL     OW 2712   0.075   2.207   1.895
  900SOL    HW1 2713  -0.017   2.179   1.866
  900SOL    HW2 2714   0.106   2.284   1.839
  901SOL     OW 2715   1.440   2.718   3.260
  901SOL    HW1 2716   1.383   2.770   3.197
  901SOL    HW2 2717   1.536   2.730   3.236
  902SOL     OW 2718   0.072   2.028   2.180
  902SOL    HW1 2719   0.055   2.111   2.126
  902SOL    HW2 2720   0.162   1.991   2.158
  903SOL     OW 2721   1.183   3.197   1.981
  903SOL    HW1 2722   1.084   3.186   1.983
  903SOL    HW2 2723   1.217   3.212   2.074
  904SOL     OW 2724   0.613   2.704   3.293
  904SOL    HW1 2725   0.669   2.785   3.276
  904SOL    HW2 2726   0.672   2.624   3.296
  905SOL     OW 2727   1.493   3.629   2.821
  905SOL    HW1 2728   1.526   3.693   2.752
  905SOL    HW2 2729   1.559   3.623   2.896
  906SOL     OW 2730   0.716   2.427   3.570
  906SOL    HW1 2731   0.735   2.492   3.644
  906SOL    HW2 2732   0.776   2.347   3.579
  907SOL     OW 2733   1.450   3.082   3.495
  907SOL    HW1 2734   1.441   3.072   3.594
  907SOL    HW2 2735   1.546   3.075   3.469
  908SOL     OW 2736   0.390   3.603   3.422
  908SOL    HW1 2737   0.299   3.644   3.420
  908SOL    HW2 2738   0.383   3.509   3.454
  909SOL     OW 2739   1.674   2.745   3.116
  909SOL    HW1 2740   1.647   2.656   3.079
  909SOL    HW2 2741   1.675   2.813   3.043
  910SOL     OW 2742   1.225   2.187   2.311
  910SOL    HW1 2743   1.290   2.113   2.300
  910SOL    HW2 2744   1.245   2.237   2.395
  911SOL     OW 2745   0.594   2.607   2.514
  911SOL    HW1 2746   0.644   2.692   2.495
  911SOL    HW2 2747   0.506   2.609   2.466
  912SOL     OW 2748   1.777   2.204   3.504
  912SOL    HW1 2749   1.760   2.235   3.410
  912SOL    HW2 2750   1.693   2.167   3.542
  913SOL     OW 2751   1.730   2.796   3.379
  913SOL    HW1 2752   1.768   2.887   3.394
  913SOL    HW2 2753   1.722   2.779   3.280
  914SOL     OW 2754   0.859   3.236   1.878
  914SOL    HW1 2755   0.813   3.251   1.966
  914SOL    HW2 2756   0.903   3.321   1.848
  915SOL     OW 2757   0.661   3.652   2.815
  915SOL    HW1 2758   0.615   3.740   2.802
  915SOL    HW2 2759   0.760   3.664   2.808
  916SOL     OW 2760   0.859   2.818   2.723
  916SOL    HW1 2761   0.913   2.749   2.771
  916SOL    HW2 2762   0.827   2.887   2.789
  917SOL     OW 2763   1.083   2.846   1.949
  917SOL    HW1 2764   1.060   2.899   1.867
  917SOL    HW2 2765   1.164   2.790   1.930
  918SOL     OW 2766   1.861   3.431   2.713
  918SOL    HW1 2767   1.790   3.419   2.643
  918SOL    HW2 2768   1.862   3.352   2.773
  919SOL     OW 2769   0.221   3.176   3.706
  919SOL    HW1 2770   0.156   3.103   3.685
  919SOL    HW2 2771   0.225   3.190   3.804
  920SOL     OW 2772   0.079   3.102   2.515
  920SOL    HW1 2773   0.078   3.055   2.603
  920SOL    HW2 2774   0.161   3.074   2.464
  921SOL     OW 2775   0.672   3.253   3.486
  921SOL    HW1 2776   0.594   3.203   3.524
  921SOL    HW2 2777   0.669   3.348   3.517
  922SOL     OW 2778   1.824   2.054   3.089
  922SOL    HW1 2779   1.820   1.964   3.133
  922SOL    HW2 2780   1.827   2.043   2.990
  923SOL     OW 2781   0.428   2.286   2.382
  923SOL    HW1 2782   0.458   2.214   2.320
  923SOL    HW2 2783   0.389   2.246   2.465
  924SOL     OW 2784   1.705   3.349   2.966
  924SOL    HW1 2785   1.612   3.324   2.939
  924SOL    HW2 2786   1.731   3.299   3.048
  925SOL     OW 2787   0.317   2.409   3.142
  925SOL    HW1 2788   0.355   2.350   3.214
  925SOL    HW2 2789   0.357   2.383   3.054
  926SOL     OW 2790   0.812   3.448   2.549
  926SOL    HW1 2791   0.844   3.458   2.455
  926SOL    HW2 2792   0.733   3.386   2.551
  927SOL     OW 2793   1.424   2.076   2.974
  927SOL    HW1 2794   1.476   2.011   3.029
  927SOL    HW2 2795   1.375   2.139   3.035
  928SOL     OW 2796   1.001   1.896   3.016
  928SOL    HW1 2797   0.938   1.824   2.985
  928SOL    HW2 2798   1.094   1.860   3.016
  929SOL     OW 2799   0.770   3.192   2.163
  929SOL    HW1 2800   0.724   3.105   2.180
  929SOL    HW2 2801   0.861   3.189   2.204
  930SOL     OW 2802   0.618   3.429   3.146
  930SOL    HW1 2803   0.613   3.511   3.203
  930SOL    HW2 2804   0.707   3.426   3.101
  931SOL     OW 2805   1.352   1.914   2.030
  931SOL    HW1 2806   1.387   1.873   1.946
  931SOL    HW2 2807   1.262   1.876   2.050
  932SOL     OW 2808   1.300   2.315   2.553
  932SOL    HW1 2809   1.241   2.395   2.557
  932SOL    HW2 2810   1.315   2.280   2.646
  933SOL     OW 2811   1.593   2.083   2.744
  933SOL    HW1 2812   1.509   2.082   2.798
  933SOL    HW2 2813   1.595   2.166   2.688
  934SOL     OW 2814   0.039   2.939   2.162
  934SOL    HW1 2815   0.138   2.928   2.153
  934SOL    HW2 2816  -0.001   2.853   2.194
  935SOL     OW 2817   0.875   3.508   2.199
  935SOL    HW1 2818   0.798   3.473   2.145
  935SOL    HW2 2819   0.843   3.579   2.261
  936SOL     OW 2820   0.230   2.490   3.837
  936SOL    HW1 2821   0.137   2.488   3.874
  936SOL    HW2 2822   0.231   2.451   3.745
  937SOL     OW 2823   1.755   2.469   3.955
  937SOL    HW1 2824   1.743   2.456   3.856
  937SOL    HW2 2825   1.725   2.388   4.004
  938SOL     OW 2826   0.685   2.874   4.389
  938SOL    HW1 2827   0.754   2.858   4.459
  938SOL    HW2 2828   0.612   2.931   4.427
  939SOL     OW 2829   1.603   2.309   4.461
  939SOL    HW1 2830   1.529   2.355   4.411
  939SOL    HW2 2831   1.654   2.377   4.514
  940SOL     OW 2832   0.231   3.575   4.207
  940SOL    HW1 2833   0.265   3.652   4.261
  940SOL    HW2 2834   0.275   3.575   4.117
  941SOL     OW 2835   0.230   3.296   4.262
  941SOL    HW1 2836   0.204   3.392   4.262
  941SOL    HW2 2837   0.159   3.242   4.307
  942SOL     OW 2838   0.606   2.826   3.847
  942SOL    HW1 2839   0.613   2.910   3.793
  942SOL    HW2 2840   0.652   2.839   3.935
  943SOL     OW 2841   0.122   2.505   4.287
  943SOL    HW1 2842   0.077   2.417   4.304
  943SOL    HW2 2843   0.121   2.559   4.371
  944SOL     OW 2844   1.842   3.629   4.083
  944SOL    HW1 2845   1.896   3.600   4.163
  944SOL    HW2 2846   1.872   3.719   4.054
  945SOL     OW 2847   0.027   3.458   3.841
  945SOL    HW1 2848   0.008   3.362   3.862
  945SOL    HW2 2849  -0.006   3.516   3.916
  946SOL     OW 2850   1.689   2.784   4.336
  946SOL    HW1 2851   1.784   2.755   4.344
  946SOL    HW2 2852   1.681   2.849   4.261
  947SOL     OW 2853   1.641   2.970   4.156
  947SOL    HW1 2854   1.727   2.972   4.104
  947SOL    HW2 2855   1.655   3.017   4.244
  948SOL     OW 2856   0.613   3.227   4.450
  948SOL    HW1 2857   0.564   3.140   4.459
  948SOL    HW2 2858   0.590   3.270   4.363
  949SOL     OW 2859   0.809   1.866   4.226
  949SOL    HW1 2860   0.849   1.957   4.217
  949SOL    HW2 2861   0.709   1.874   4.232
  950SOL     OW 2862   1.525   2.861   3.914
  950SOL    HW1 2863   1.462   2.785   3.927
  950SOL    HW2 2864   1.573   2.879   4.000
  951SOL     OW 2865   1.667   3.576   4.296
  951SOL    HW1 2866   1.626   3.553   4.208
  951SOL    HW2 2867   1.649   3.502   4.361
  952SOL     OW 2868   0.598   2.591   3.994
  952SOL    HW1 2869   0.622   2.660   3.926
  952SOL    HW2 2870   0.520   2.624   4.048
  953SOL     OW 2871   1.281   2.207   4.668
  953SOL    HW1 2872   1.195   2.157   4.655
  953SOL    HW2 2873   1.343   2.153   4.724
  954SOL     OW 2874   1.576   3.524   4.031
  954SOL    HW1 2875   1.665   3.570   4.034
  954SOL    HW2 2876   1.555   3.500   3.936
  955SOL     OW 2877   1.041   2.563   4.153
  955SOL    HW1 2878   1.067   2.559   4.249
  955SOL    HW2 2879   0.956   2.512   4.139
  956SOL     OW 2880   0.076   2.673   4.513
  956SOL    HW1 2881   0.175   2.661   4.522
  956SOL    HW2 2882   0.052   2.768   4.534
  957SOL     OW 2883   0.865   2.210   3.919
  957SOL    HW1 2884   0.924   2.273   3.870
  957SOL    HW2 2885   0.884   2.116   3.890
  958SOL     OW 2886   1.362   3.006   4.269
  958SOL    HW1 2887   1.445   2.977   4.221
  958SOL    HW2 2888   1.313   3.073   4.213
  959SOL     OW 2889   1.008   3.318   4.201
  959SOL    HW1 2890   0.962   3.390   4.149
  959SOL    HW2 2891   1.004   3.338   4.299
  960SOL     OW 2892   0.351   3.663   4.577
  960SOL    HW1 2893   0.401   3.577   4.583
  960SOL    HW2 2894   0.416   3.740   4.574
  961SOL     OW 2895   1.795   2.928   4.597
  961SOL    HW1 2896   1.733   2.913   4.521
  961SOL    HW2 2897   1.743   2.939   4.682
  962SOL     OW 2898   0.321   2.805   3.966
  962SOL    HW1 2899   0.403   2.844   3.924
  962SOL    HW2 2900   0.294   2.723   3.917
  963SOL     OW 2901   1.111   3.638   3.961
  963SOL    HW1 2902   1.051   3.576   4.011
  963SOL    HW2 2903   1.142   3.594   3.876
  964SOL     OW 2904   1.632   3.239   3.805
  964SOL    HW1 2905   1.600   3.333   3.795
  964SOL    HW2 2906   1.556   3.176   3.793
  965SOL     OW 2907   0.464   3.605   4.047
  965SOL    HW1 2908   0.497   3.644   4.133
  965SOL    HW2 2909   0.540   3.598   3.982
  966SOL     OW 2910   1.400   1.969   4.150
  966SOL    HW1 2911   1.376   1.932   4.060
  966SOL    HW2 2912   1.499   1.985   4.154
  967SOL     OW 2913   0.940   3.560   4.628
  967SOL    HW1 2914   1.020   3.503   4.649
  967SOL    HW2 2915   0.891   3.520   4.551
  968SOL     OW 2916   0.382   2.562   4.204
  968SOL    HW1 2917   0.427   2.472   4.201
  968SOL    HW2 2918   0.288   2.551   4.237
  969SOL     OW 2919   0.614   1.984   3.841
  969SOL    HW1 2920   0.712   1.962   3.848
  969SOL    HW2 2921   0.583   1.967   3.748
  970SOL     OW 2922   0.539   1.926   4.236
  970SOL    HW1 2923   0.458   1.927   4.294
  970SOL    HW2 2924   0.542   2.009   4.181
  971SOL     OW 2925   1.434   3.050   3.765
  971SOL    HW1 2926   1.466   2.974   3.822
  971SOL    HW2 2927   1.342   3.077   3.795
  972SOL     OW 2928   0.297   1.897   3.895
  972SOL    HW1 2929   0.346   1.981   3.874
  972SOL    HW2 2930   0.359   1.832   3.940
  973SOL     OW 2931   0.935   2.098   4.204
  973SOL    HW1 2932   0.887   2.139   4.126
  973SOL    HW2 2933   1.034   2.096   4.185
  974SOL     OW 2934   0.459   3.014   4.465
  974SOL    HW1 2935   0.388   2.987   4.530
  974SOL    HW2 2936   0.433   2.986   4.372
  975SOL     OW 2937   1.271   3.659   4.315
  975SOL    HW1 2938   1.315   3.723   4.251
  975SOL    HW2 2939   1.221   3.711   4.385
  976SOL     OW 2940   1.032   2.411   3.740
  976SOL    HW1 2941   0.991   2.493   3.701
  976SOL    HW2 2942   1.096   2.437   3.813
  977SOL     OW 2943   0.866   2.316   4.366
  977SOL    HW1 2944   0.834   2.388   4.304
  977SOL    HW2 2945   0.890   2.235   4.313
  978SOL     OW 2946   1.857   2.695   4.101
  978SOL    HW1 2947   1.899   2.631   4.165
  978SOL    HW2 2948   1.819   2.644   4.023
  979SOL     OW 2949   0.488   3.247   3.898
  979SOL    HW1 2950   0.401   3.232   3.945
  979SOL    HW2 2951   0.471   3.273   3.803
  980SOL     OW 2952   1.664   3.142   4.381
  980SOL    HW1 2953   1.763   3.150   4.395
  980SOL    HW2 2954   1.619   3.226   4.412
  981SOL     OW 2955   1.390   2.437   3.802
  981SOL    HW1 2956   1.336   2.416   3.883
  981SOL    HW2 2957   1.481   2.396   3.811
  982SOL     OW 2958   0.527   2.118   4.052
  982SOL    HW1 2959   0.554   2.059   3.977
  982SOL    HW2 2960   0.527   2.213   4.021
  983SOL     OW 2961   1.111   3.057   4.824
  983SOL    HW1 2962   1.071   3.101   4.905
  983SOL    HW2 2963   1.070   3.094   4.741
  984SOL     OW 2964   0.705   2.912   4.092
  984SOL    HW1 2965   0.691   2.919   4.191
  984SOL    HW2 2966   0.789   2.861   4.074
  985SOL     OW 2967   0.367   2.962   4.225
  985SOL    HW1 2968   0.360   3.045   4.169
  985SOL    HW2 2969   0.371   2.882   4.165
  986SOL     OW 2970   1.252   3.210   4.112
  986SOL    HW1 2971   1.302   3.287   4.152
  986SOL    HW2 2972   1.157   3.212   4.144
  987SOL     OW 2973   1.582   2.501   4.196
  987SOL    HW1 2974   1.551   2.562   4.269
  987SOL    HW2 2975   1.632   2.553   4.127
  988SOL     OW 2976   1.209   2.387   3.999
  988SOL    HW1 2977   1.222   2.303   4.053
  988SOL    HW2 2978   1.180   2.461   4.059
  989SOL     OW 2979   0.307   1.925   4.342
  989SOL    HW1 2980   0.296   2.019   4.375
  989SOL    HW2 2981   0.302   1.862   4.419
  990SOL     OW 2982   1.622   2.229   4.098
  990SOL    HW1 2983   1.624   2.153   4.162
  990SOL    HW2 2984   1.574   2.306   4.138
  991SOL     OW 2985   1.540   2.136   3.849
  991SOL    HW1 2986   1.479   2.061   3.872
  991SOL    HW2 2987   1.562   2.188   3.932
  992SOL     OW 2988   1.303   2.700   3.766
  992SOL    HW1 2989   1.337   2.607   3.781
  992SOL    HW2 2990   1.321   2.727   3.671
  993SOL     OW 2991   0.008   3.188   3.924
  993SOL    HW1 2992  -0.085   3.209   3.893
  993SOL    HW2 2993   0.018   3.089   3.937
  994SOL     OW 2994   0.815   2.434   4.049
  994SOL    HW1 2995   0.822   2.345   4.003
  994SOL    HW2 2996   0.721   2.468   4.041
  995SOL     OW 2997   0.473   2.362   3.915
  995SOL    HW1 2998   0.534   2.442   3.919
  995SOL    HW2 2999   0.378   2.393   3.922
  996SOL     OW 3000   1.302   2.717   4.033
  996SOL    HW1 3001   1.216   2.686   4.075
  996SOL    HW2 3002   1.298   2.703   3.934
  997SOL     OW 3003   1.726   1.997   4.247
  997SOL    HW1 3004   1.799   1.980   4.180
  997SOL    HW2 3005   1.695   1.910   4.285
  998SOL     OW 3006   1.388   3.435   4.201
  998SOL    HW1 3007   1.455   3.447   4.127
  998SOL    HW2 3008   1.348   3.524   4.224
  999SOL     OW 3009   0.672   3.478   3.878
  999SOL    HW1 3010   0.681   3.488   3.779
  999SOL    HW2 3011   0.632   3.389   3.899
 1000SOL     OW 3012   1.841   2.037   4.687
 1000SOL    HW1 3013   1.880   1.952   4.651
 1000SOL    HW2 3014   1.743   2.039   4.668
 1001SOL     OW 3015   1.194   3.474   3.755
 1001SOL    HW1 3016   1.200   3.381   3.792
 1001SOL    HW2 3017   1.135   3.474   3.675
 1002SOL     OW 3018   0.916   2.772   4.015
 1002SOL    HW1 3019   0.979   2.810   3.947
 1002SOL    HW2 3020   0.956   2.689   4.054
 1003SOL     OW 3021   1.504   3.469   3.768
 1003SOL    HW1 3022   1.412   3.506   3.775
 1003SOL    HW2 3023   1.542   3.489   3.678
 1004SOL     OW 3024   0.590   3.349   4.215
 1004SOL    HW1 3025   0.632   3.291   4.145
 1004SOL    HW2 3026   0.546   3.428   4.171
 1005SOL     OW 3027   0.255   3.210   4.014
 1005SOL    HW1 3028   0.159   3.211   3.987
 1005SOL    HW2 3029   0.267   3.263   4.098
 1006SOL     OW 3030   0.075   2.207   3.757
 1006SOL    HW1 3031  -0.017   2.179   3.728
 1006SOL    HW2 3032   0.106   2.284   3.701
 1007SOL     OW 3033   0.072   2.028   4.042
 1007SOL    HW1 3034   0.055   2.111   3.988
 1007SOL    HW2 3035   0.162   1.991   4.020
 1008SOL     OW 3036   1.183   3.197   3.843
 1008SOL    HW1 3037   1.084   3.186   3.845
 1008SOL    HW2 3038   1.217   3.212   3.936
 1009SOL     OW 3039   1.225   2.187   4.173
 1009SOL    HW1 3040   1.290   2.113   4.162
 1009SOL    HW2 3041   1.245   2.237   4.257
 1010SOL     OW 3042   0.594   2.607   4.376
 1010SOL    HW1 3043   0.644   2.692   4.357
 1010SOL    HW2 3044   0.506   2.609   4.328
 1011SOL     OW 3045   0.859   3.236   3.740
 1011SOL    HW1 3046   0.813   3.251   3.828
 1011SOL    HW2 3047   0.903   3.321   3.710
 1012SOL     OW 3048   0.661   3.652   4.677
 1012SOL    HW1 3049   0.615   3.740   4.664
 1012SOL    HW2 3050   0.760   3.664   4.670
 1013SOL     OW 3051   1.083   2.846   3.811
 1013SOL    HW1 3052   1.060   2.899   3.729
 1013SOL    HW2 3053   1.164   2.790   3.792
 1014SOL     OW 3054   0.079   3.102   4.377
 1014SOL    HW1 3055   0.078   3.055   4.465
 1014SOL    HW2 3056   0.161   3.074   4.326
 1015SOL     OW 3057   0.428   2.286   4.244
 1015SOL    HW1 3058   0.458   2.214   4.182
 1015SOL    HW2 3059   0.389   2.246   4.327
 1016SOL     OW 3060   0.812   3.448   4.411
 1016SOL    HW1 3061   0.844   3.458   4.317
 1016SOL    HW2 3062   0.733   3.386   4.413
 1017SOL     OW 3063   0.770   3.192   4.025
 1017SOL    HW1 3064   0.724   3.105   4.042
 1017SOL    HW2 3065   0.861   3.189   4.066
 1018SOL     OW 3066   1.352   1.914   3.892
 1018SOL    HW1 3067   1.387   1.873   3.808
 1018SOL    HW2 3068   1.262   1.876   3.912
 1019SOL     OW 3069   1.300   2.315   4.415
 1019SOL    HW1 3070   1.241   2.395   4.419
 1019SOL    HW2 3071   1.315   2.280   4.508
 1020SOL     OW 3072   0.039   2.939   4.024
 1020SOL    HW1 3073   0.138   2.928   4.015
 1020SOL    HW2 3074  -0.001   2.853   4.056
 1021SOL     OW 3075   0.875   3.508   4.061
 1021SOL    HW1 3076   0.798   3.473   4.007
 1021SOL    HW2 3077   0.843   3.579   4.123
 1022SOL     OW 3078   0.230   4.352   0.113
 1022SOL    HW1 3079   0.137   4.350   0.150
 1022SOL    HW2 3080   0.231   4.313   0.021
 1023SOL     OW 3081   0.225   3.999   0.996
 1023SOL    HW1 3082   0.260   3.982   1.088
 1023SOL    HW2 3083   0.137   3.954   0.984
 1024SOL     OW 3084   0.019   4.092   0.647
 1024SOL    HW1 3085  -0.063   4.135   0.686
 1024SOL    HW2 3086  -0.009   4.019   0.584
 1025SOL     OW 3087   1.755   4.331   0.231
 1025SOL    HW1 3088   1.743   4.318   0.132
 1025SOL    HW2 3089   1.725   4.250   0.280
 1026SOL     OW 3090   0.850   4.522   1.823
 1026SOL    HW1 3091   0.846   4.598   1.888
 1026SOL    HW2 3092   0.872   4.558   1.732
 1027SOL     OW 3093   0.685   4.736   0.665
 1027SOL    HW1 3094   0.754   4.720   0.735
 1027SOL    HW2 3095   0.612   4.793   0.703
 1028SOL     OW 3096   0.438   4.116   1.499
 1028SOL    HW1 3097   0.520   4.060   1.508
 1028SOL    HW2 3098   0.357   4.058   1.503
 1029SOL     OW 3099   1.603   4.171   0.737
 1029SOL    HW1 3100   1.529   4.217   0.687
 1029SOL    HW2 3101   1.654   4.239   0.790
 1030SOL     OW 3102   1.594   3.838   1.480
 1030SOL    HW1 3103   1.576   3.905   1.408
 1030SOL    HW2 3104   1.591   3.884   1.569
 1031SOL     OW 3105   0.122   4.367   0.563
 1031SOL    HW1 3106   0.077   4.279   0.580
 1031SOL    HW2 3107   0.121   4.421   0.647
 1032SOL     OW 3108   0.113   4.461   1.597
 1032SOL    HW1 3109   0.201   4.448   1.642
 1032SOL    HW2 3110   0.100   4.558   1.575
 1033SOL     OW 3111   0.809   3.728   0.502
 1033SOL    HW1 3112   0.849   3.819   0.493
 1033SOL    HW2 3113   0.709   3.736   0.508
 1034SOL     OW 3114   0.317   3.975   1.801
 1034SOL    HW1 3115   0.388   4.046   1.807
 1034SOL    HW2 3116   0.229   4.014   1.829
 1035SOL     OW 3117   1.281   4.069   0.944
 1035SOL    HW1 3118   1.195   4.019   0.931
 1035SOL    HW2 3119   1.343   4.015   1.000
 1036SOL     OW 3120   0.807   4.329   1.465
 1036SOL    HW1 3121   0.760   4.326   1.554
 1036SOL    HW2 3122   0.756   4.274   1.399
 1037SOL     OW 3123   1.394   4.193   1.674
 1037SOL    HW1 3124   1.374   4.236   1.762
 1037SOL    HW2 3125   1.472   4.131   1.683
 1038SOL     OW 3126   0.991   4.134   1.242
 1038SOL    HW1 3127   0.914   4.168   1.296
 1038SOL    HW2 3128   0.957   4.083   1.163
 1039SOL     OW 3129   1.041   4.425   0.429
 1039SOL    HW1 3130   1.067   4.421   0.525
 1039SOL    HW2 3131   0.956   4.374   0.415
 1040SOL     OW 3132   0.076   4.535   0.789
 1040SOL    HW1 3133   0.175   4.523   0.798
 1040SOL    HW2 3134   0.052   4.630   0.810
 1041SOL     OW 3135   0.865   4.072   0.195
 1041SOL    HW1 3136   0.924   4.135   0.146
 1041SOL    HW2 3137   0.884   3.978   0.166
 1042SOL     OW 3138   1.719   4.309   1.831
 1042SOL    HW1 3139   1.693   4.398   1.795
 1042SOL    HW2 3140   1.717   4.241   1.758
 1043SOL     OW 3141   0.550   3.920   0.885
 1043SOL    HW1 3142   0.545   3.915   0.985
 1043SOL    HW2 3143   0.552   4.016   0.856
 1044SOL     OW 3144   1.458   4.459   0.728
 1044SOL    HW1 3145   1.453   4.394   0.803
 1044SOL    HW2 3146   1.538   4.518   0.741
 1045SOL     OW 3147   0.202   4.009   1.498
 1045SOL    HW1 3148   0.122   4.069   1.485
 1045SOL    HW2 3149   0.192   3.960   1.584
 1046SOL     OW 3150   1.400   3.831   0.426
 1046SOL    HW1 3151   1.376   3.794   0.336
 1046SOL    HW2 3152   1.499   3.847   0.430
 1047SOL     OW 3153   0.382   4.424   0.480
 1047SOL    HW1 3154   0.427   4.334   0.477
 1047SOL    HW2 3155   0.288   4.413   0.513
 1048SOL     OW 3156   1.547   3.946   1.729
 1048SOL    HW1 3157   1.542   3.983   1.821
 1048SOL    HW2 3158   1.475   3.877   1.717
 1049SOL     OW 3159   0.781   3.988   1.749
 1049SOL    HW1 3160   0.848   3.927   1.792
 1049SOL    HW2 3161   0.708   4.007   1.814
 1050SOL     OW 3162   1.351   4.314   1.433
 1050SOL    HW1 3163   1.379   4.271   1.518
 1050SOL    HW2 3164   1.376   4.410   1.434
 1051SOL     OW 3165   0.922   4.227   0.899
 1051SOL    HW1 3166   0.897   4.218   0.803
 1051SOL    HW2 3167   0.970   4.145   0.930
 1052SOL     OW 3168   0.539   3.788   0.512
 1052SOL    HW1 3169   0.458   3.789   0.570
 1052SOL    HW2 3170   0.542   3.871   0.457
 1053SOL     OW 3171   0.935   3.960   0.480
 1053SOL    HW1 3172   0.887   4.001   0.402
 1053SOL    HW2 3173   1.034   3.958   0.461
 1054SOL     OW 3174   1.076   4.407   1.464
 1054SOL    HW1 3175   0.996   4.346   1.467
 1054SOL    HW2 3176   1.157   4.354   1.440
 1055SOL     OW 3177   1.032   4.273   0.016
 1055SOL    HW1 3178   0.991   4.355  -0.023
 1055SOL    HW2 3179   1.096   4.299   0.089
 1056SOL     OW 3180   0.078   4.280   1.386
 1056SOL    HW1 3181   0.170   4.279   1.345
 1056SOL    HW2 3182   0.072   4.354   1.453
 1057SOL     OW 3183   0.561   3.946   1.147
 1057SOL    HW1 3184   0.599   3.862   1.184
 1057SOL    HW2 3185   0.473   3.965   1.191
 1058SOL     OW 3186   0.866   4.178   0.642
 1058SOL    HW1 3187   0.834   4.250   0.580
 1058SOL    HW2 3188   0.890   4.097   0.589
 1059SOL     OW 3189   1.017   3.763   0.753
 1059SOL    HW1 3190   0.945   3.768   0.684
 1059SOL    HW2 3191   0.993   3.694   0.822
 1060SOL     OW 3192   1.466   4.314   0.992
 1060SOL    HW1 3193   1.436   4.219   0.999
 1060SOL    HW2 3194   1.539   4.330   1.058
 1061SOL     OW 3195   1.390   4.299   0.078
 1061SOL    HW1 3196   1.336   4.278   0.159
 1061SOL    HW2 3197   1.481   4.258   0.087
 1062SOL     OW 3198   0.527   3.980   0.328
 1062SOL    HW1 3199   0.554   3.921   0.253
 1062SOL    HW2 3200   0.527   4.075   0.297
 1063SOL     OW 3201   0.915   3.813   1.402
 1063SOL    HW1 3202   0.940   3.793   1.307
 1063SOL    HW2 3203   0.987   3.869   1.444
 1064SOL     OW 3204   0.410   4.537   1.251
 1064SOL    HW1 3205   0.496   4.549   1.301
 1064SOL    HW2 3206   0.368   4.450   1.278
 1065SOL     OW 3207   1.274   4.110   1.262
 1065SOL    HW1 3208   1.295   4.184   1.326
 1065SOL    HW2 3209   1.185   4.127   1.219
 1066SOL     OW 3210   0.566   4.261   0.865
 1066SOL    HW1 3211   0.578   4.327   0.791
 1066SOL    HW2 3212   0.612   4.295   0.948
 1067SOL     OW 3213   1.582   4.363   0.472
 1067SOL    HW1 3214   1.551   4.424   0.545
 1067SOL    HW2 3215   1.632   4.415   0.403
 1068SOL     OW 3216   1.013   3.829   1.770
 1068SOL    HW1 3217   1.019   3.914   1.718
 1068SOL    HW2 3218   1.045   3.753   1.713
 1069SOL     OW 3219   0.504   3.774   1.740
 1069SOL    HW1 3220   0.462   3.717   1.670
 1069SOL    HW2 3221   0.438   3.843   1.772
 1070SOL     OW 3222   1.209   4.249   0.275
 1070SOL    HW1 3223   1.222   4.165   0.329
 1070SOL    HW2 3224   1.180   4.323   0.335
 1071SOL     OW 3225   0.307   3.937   1.231
 1071SOL    HW1 3226   0.284   3.974   1.321
 1071SOL    HW2 3227   0.277   3.842   1.225
 1072SOL     OW 3228   0.732   4.358   1.064
 1072SOL    HW1 3229   0.791   4.332   0.988
 1072SOL    HW2 3230   0.704   4.454   1.053
 1073SOL     OW 3231   1.728   4.659   1.854
 1073SOL    HW1 3232   1.682   4.652   1.765
 1073SOL    HW2 3233   1.666   4.703   1.920
 1074SOL     OW 3234   0.307   3.787   0.618
 1074SOL    HW1 3235   0.296   3.881   0.651
 1074SOL    HW2 3236   0.302   3.724   0.695
 1075SOL     OW 3237   1.622   4.091   0.374
 1075SOL    HW1 3238   1.624   4.015   0.438
 1075SOL    HW2 3239   1.574   4.168   0.414
 1076SOL     OW 3240   1.540   3.998   0.125
 1076SOL    HW1 3241   1.479   3.923   0.148
 1076SOL    HW2 3242   1.562   4.050   0.208
 1077SOL     OW 3243   0.319   4.534   0.949
 1077SOL    HW1 3244   0.412   4.570   0.954
 1077SOL    HW2 3245   0.313   4.449   1.001
 1078SOL     OW 3246   0.339   4.233   1.006
 1078SOL    HW1 3247   0.287   4.150   0.989
 1078SOL    HW2 3248   0.416   4.238   0.942
 1079SOL     OW 3249   1.138   4.104   1.678
 1079SOL    HW1 3250   1.093   4.167   1.742
 1079SOL    HW2 3251   1.231   4.135   1.661
 1080SOL     OW 3252   1.160   3.931   1.477
 1080SOL    HW1 3253   1.160   3.995   1.554
 1080SOL    HW2 3254   1.188   3.979   1.394
 1081SOL     OW 3255   0.040   4.268   1.114
 1081SOL    HW1 3256   0.125   4.235   1.073
 1081SOL    HW2 3257   0.053   4.283   1.212
 1082SOL     OW 3258   0.189   4.244   1.722
 1082SOL    HW1 3259   0.248   4.204   1.652
 1082SOL    HW2 3260   0.131   4.315   1.681
 1083SOL     OW 3261   0.815   4.296   0.325
 1083SOL    HW1 3262   0.822   4.207   0.279
 1083SOL    HW2 3263   0.721   4.330   0.317
 1084SOL     OW 3264   1.657   4.328   1.206
 1084SOL    HW1 3265   1.619   4.259   1.268
 1084SOL    HW2 3266   1.739   4.292   1.162
 1085SOL     OW 3267   0.671   4.188   1.269
 1085SOL    HW1 3268   0.637   4.099   1.239
 1085SOL    HW2 3269   0.697   4.242   1.189
 1086SOL     OW 3270   0.473   4.224   0.191
 1086SOL    HW1 3271   0.534   4.304   0.195
 1086SOL    HW2 3272   0.378   4.255   0.198
 1087SOL     OW 3273   0.903   3.810   0.133
 1087SOL    HW1 3274   0.954   3.811   0.047
 1087SOL    HW2 3275   0.959   3.768   0.204
 1088SOL     OW 3276   1.726   3.859   0.523
 1088SOL    HW1 3277   1.799   3.842   0.456
 1088SOL    HW2 3278   1.695   3.772   0.561
 1089SOL     OW 3279   1.280   4.651   0.672
 1089SOL    HW1 3280   1.340   4.570   0.674
 1089SOL    HW2 3281   1.320   4.720   0.612
 1090SOL     OW 3282   1.841   3.899   0.963
 1090SOL    HW1 3283   1.880   3.814   0.927
 1090SOL    HW2 3284   1.743   3.901   0.944
 1091SOL     OW 3285   0.263   4.050   0.720
 1091SOL    HW1 3286   0.184   4.101   0.686
 1091SOL    HW2 3287   0.254   4.035   0.818
 1092SOL     OW 3288   1.039   4.822   0.696
 1092SOL    HW1 3289   0.969   4.775   0.750
 1092SOL    HW2 3290   1.098   4.754   0.653
 1093SOL     OW 3291   1.014   3.960   0.971
 1093SOL    HW1 3292   1.006   3.924   0.878
 1093SOL    HW2 3293   1.012   3.884   1.036
 1094SOL     OW 3294   1.709   4.109   1.381
 1094SOL    HW1 3295   1.782   4.178   1.385
 1094SOL    HW2 3296   1.737   4.034   1.322
 1095SOL     OW 3297   0.672   3.927   1.489
 1095SOL    HW1 3298   0.762   3.911   1.449
 1095SOL    HW2 3299   0.680   3.932   1.588
 1096SOL     OW 3300   0.075   4.069   0.033
 1096SOL    HW1 3301  -0.017   4.041   0.004
 1096SOL    HW2 3302   0.106   4.146  -0.023
 1097SOL     OW 3303   0.072   3.890   0.318
 1097SOL    HW1 3304   0.055   3.973   0.264
 1097SOL    HW2 3305   0.162   3.853   0.296
 1098SOL     OW 3306   0.716   4.289   1.708
 1098SOL    HW1 3307   0.735   4.354   1.782
 1098SOL    HW2 3308   0.776   4.209   1.717
 1099SOL     OW 3309   1.225   4.049   0.449
 1099SOL    HW1 3310   1.290   3.975   0.438
 1099SOL    HW2 3311   1.245   4.099   0.533
 1100SOL     OW 3312   1.777   4.066   1.642
 1100SOL    HW1 3313   1.760   4.097   1.548
 1100SOL    HW2 3314   1.693   4.029   1.680
 1101SOL     OW 3315   1.083   4.708   0.087
 1101SOL    HW1 3316   1.060   4.761   0.005
 1101SOL    HW2 3317   1.164   4.652   0.068
 1102SOL     OW 3318   1.824   3.916   1.227
 1102SOL    HW1 3319   1.820   3.826   1.271
 1102SOL    HW2 3320   1.827   3.905   1.128
 1103SOL     OW 3321   0.428   4.148   0.520
 1103SOL    HW1 3322   0.458   4.076   0.458
 1103SOL    HW2 3323   0.389   4.108   0.603
 1104SOL     OW 3324   0.317   4.271   1.280
 1104SOL    HW1 3325   0.355   4.212   1.352
 1104SOL    HW2 3326   0.357   4.245   1.192
 1105SOL     OW 3327   1.424   3.938   1.112
 1105SOL    HW1 3328   1.476   3.873   1.167
 1105SOL    HW2 3329   1.375   4.001   1.173
 1106SOL     OW 3330   1.001   3.758   1.154
 1106SOL    HW1 3331   0.938   3.686   1.123
 1106SOL    HW2 3332   1.094   3.722   1.154
 1107SOL     OW 3333   1.352   3.776   0.168
 1107SOL    HW1 3334   1.387   3.735   0.084
 1107SOL    HW2 3335   1.262   3.738   0.188
 1108SOL     OW 3336   1.300   4.177   0.691
 1108SOL    HW1 3337   1.241   4.257   0.695
 1108SOL    HW2 3338   1.315   4.142   0.784
 1109SOL     OW 3339   1.593   3.945   0.882
 1109SOL    HW1 3340   1.509   3.944   0.936
 1109SOL    HW2 3341   1.595   4.028   0.826
 1110SOL     OW 3342   0.230   4.352   1.975
 1110SOL    HW1 3343   0.137   4.350   2.012
 1110SOL    HW2 3344   0.231   4.313   1.883
 1111SOL     OW 3345   0.225   3.999   2.858
 1111SOL    HW1 3346   0.260   3.982   2.950
 1111SOL    HW2 3347   0.137   3.954   2.846
 1112SOL     OW 3348   0.019   4.092   2.509
 1112SOL    HW1 3349  -0.063   4.135   2.548
 1112SOL    HW2 3350  -0.009   4.019   2.446
 1113SOL     OW 3351   1.755   4.331   2.093
 1113SOL    HW1 3352   1.743   4.318   1.994
 1113SOL    HW2 3353   1.725   4.250   2.142
 1114SOL     OW 3354   0.850   4.522   3.685
 1114SOL    HW1 3355   0.846   4.598   3.750
 1114SOL    HW2 3356   0.872   4.558   3.594
 1115SOL     OW 3357   0.685   4.736   2.527
 1115SOL    HW1 3358   0.754   4.720   2.597
 1115SOL    HW2 3359   0.612   4.793   2.565
 1116SOL     OW 3360   0.438   4.116   3.361
 1116SOL    HW1 3361   0.520   4.060   3.370
 1116SOL    HW2 3362   0.357   4.058   3.365
 1117SOL     OW 3363   1.603   4.171   2.599
 1117SOL    HW1 3364   1.529   4.217   2.549
 1117SOL    HW2 3365   1.654   4.239   2.652
 1118SOL     OW 3366   1.594   3.838   3.342
 1118SOL    HW1 3367   1.576   3.905   3.270
 1118SOL    HW2 3368   1.591   3.884   3.431
 1119SOL     OW 3369   0.122   4.367   2.425
 1119SOL    HW1 3370   0.077   4.279   2.442
 1119SOL    HW2 3371   0.121   4.421   2.509
 1120SOL     OW 3372   0.113   4.461   3.459
 1120SOL    HW1 3373   0.201   4.448   3.504
 1120SOL    HW2 3374   0.100   4.558   3.437
 1121SOL     OW 3375   0.809   3.728   2.364
 1121SOL    HW1 3376   0.849   3.819   2.355
 1121SOL    HW2 3377   0.709   3.736   2.370
 1122SOL     OW 3378   0.317   3.975   3.663
 1122SOL    HW1 3379   0.388   4.046   3.669
 1122SOL    HW2 3380   0.229   4.014   3.691
 1123SOL     OW 3381   1.281   4.069   2.806
 1123SOL    HW1 3382   1.195   4.019   2.793
 1123SOL    HW2 3383   1.343   4.015   2.862
 1124SOL     OW 3384   0.807   4.329   3.327
 1124SOL    HW1 3385   0.760   4.326   3.416
 1124SOL    HW2 3386   0.756   4.274   3.261
 1125SOL     OW 3387   1.394   4.193   3.536
 1125SOL    HW1 3388   1.374   4.236   3.624
 1125SOL    HW2 3389   1.472   4.131   3.545
 1126SOL     OW 3390   0.991   4.134   3.104
 1126SOL    HW1 3391   0.914   4.168   3.158
 1126SOL    HW2 3392   0.957   4.083   3.025
 1127SOL     OW 3393   1.041   4.425   2.291
 1127SOL    HW1 3394   1.067   4.421   2.387
 1127SOL    HW2 3395   0.956   4.374   2.277
 1128SOL     OW 3396   0.076   4.535   2.651
 1128SOL    HW1 3397   0.175   4.523   2.660
 1128SOL    HW2 3398   0.052   4.630   2.672
 1129SOL     OW 3399   0.865   4.072   2.057
 1129SOL    HW1 3400   0.924   4.135   2.008
 1129SOL    HW2 3401   0.884   3.978   2.028
 1130SOL     OW 3402   1.719   4.309   3.693
 1130SOL    HW1 3403   1.693   4.398   3.657
 1130SOL    HW2 3404   1.717   4.241   3.620
 1131SOL     OW 3405   0.550   3.920   2.747
 1131SOL    HW1 3406   0.545   3.915   2.847
 1131SOL    HW2 3407   0.552   4.016   2.718
 1132SOL     OW 3408   1.458   4.459   2.590
 1132SOL    HW1 3409   1.453   4.394   2.665
 1132SOL    HW2 3410   1.538   4.518   2.603
 1133SOL     OW 3411   0.202   4.009   3.360
 1133SOL    HW1 3412   0.122   4.069   3.347
 1133SOL    HW2 3413   0.192   3.960   3.446
 1134SOL     OW 3414   1.400   3.831   2.288
 1134SOL    HW1 3415   1.376   3.794   2.198
 1134SOL    HW2 3416   1.499   3.847   2.292
 1135SOL     OW 3417   0.382   4.424   2.342
 1135SOL    HW1 3418   0.427   4.334   2.339
 1135SOL    HW2 3419   0.288   4.413   2.375
 1136SOL     OW 3420   1.547   3.946   3.591
 1136SOL    HW1 3421   1.542   3.983   3.683
 1136SOL    HW2 3422   1.475   3.877   3.579
 1137SOL     OW 3423   0.614   3.846   1.979
 1137SOL    HW1 3424   0.712   3.824   1.986
 1137SOL    HW2 3425   0.583   3.829   1.886
 1138SOL     OW 3426   0.781   3.988   3.611
 1138SOL    HW1 3427   0.848   3.927   3.654
 1138SOL    HW2 3428   0.708   4.007   3.676
 1139SOL     OW 3429   1.351   4.314   3.295
 1139SOL    HW1 3430   1.379   4.271   3.380
 1139SOL    HW2 3431   1.376   4.410   3.296
 1140SOL     OW 3432   0.922   4.227   2.761
 1140SOL    HW1 3433   0.897   4.218   2.665
 1140SOL    HW2 3434   0.970   4.145   2.792
 1141SOL     OW 3435   0.539   3.788   2.374
 1141SOL    HW1 3436   0.458   3.789   2.432
 1141SOL    HW2 3437   0.542   3.871   2.319
 1142SOL     OW 3438   0.297   3.759   2.033
 1142SOL    HW1 3439   0.346   3.843   2.012
 1142SOL    HW2 3440   0.359   3.694   2.078
 1143SOL     OW 3441   0.935   3.960   2.342
 1143SOL    HW1 3442   0.887   4.001   2.264
 1143SOL    HW2 3443   1.034   3.958   2.323
 1144SOL     OW 3444   1.076   4.407   3.326
 1144SOL    HW1 3445   0.996   4.346   3.329
 1144SOL    HW2 3446   1.157   4.354   3.302
 1145SOL     OW 3447   1.032   4.273   1.878
 1145SOL    HW1 3448   0.991   4.355   1.839
 1145SOL    HW2 3449   1.096   4.299   1.951
 1146SOL     OW 3450   0.078   4.280   3.248
 1146SOL    HW1 3451   0.170   4.279   3.207
 1146SOL    HW2 3452   0.072   4.354   3.315
 1147SOL     OW 3453   0.561   3.946   3.009
 1147SOL    HW1 3454   0.599   3.862   3.046
 1147SOL    HW2 3455   0.473   3.965   3.053
 1148SOL     OW 3456   0.866   4.178   2.504
 1148SOL    HW1 3457   0.834   4.250   2.442
 1148SOL    HW2 3458   0.890   4.097   2.451
 1149SOL     OW 3459   1.017   3.763   2.615
 1149SOL    HW1 3460   0.945   3.768   2.546
 1149SOL    HW2 3461   0.993   3.694   2.684
 1150SOL     OW 3462   1.466   4.314   2.854
 1150SOL    HW1 3463   1.436   4.219   2.861
 1150SOL    HW2 3464   1.539   4.330   2.920
 1151SOL     OW 3465   1.390   4.299   1.940
 1151SOL    HW1 3466   1.336   4.278   2.021
 1151SOL    HW2 3467   1.481   4.258   1.949
 1152SOL     OW 3468   0.527   3.980   2.190
 1152SOL    HW1 3469   0.554   3.921   2.115
 1152SOL    HW2 3470   0.527   4.075   2.159
 1153SOL     OW 3471   0.915   3.813   3.264
 1153SOL    HW1 3472   0.940   3.793   3.169
 1153SOL    HW2 3473   0.987   3.869   3.306
 1154SOL     OW 3474   0.410   4.537   3.113
 1154SOL    HW1 3475   0.496   4.549   3.163
 1154SOL    HW2 3476   0.368   4.450   3.140
 1155SOL     OW 3477   1.274   4.110   3.124
 1155SOL    HW1 3478   1.295   4.184   3.188
 1155SOL    HW2 3479   1.185   4.127   3.081
 1156SOL     OW 3480   0.566   4.261   2.727
 1156SOL    HW1 3481   0.578   4.327   2.653
 1156SOL    HW2 3482   0.612   4.295   2.810
 1157SOL     OW 3483   1.582   4.363   2.334
 1157SOL    HW1 3484   1.551   4.424   2.407
 1157SOL    HW2 3485   1.632   4.415   2.265
 1158SOL     OW 3486   1.013   3.829   3.632
 1158SOL    HW1 3487   1.019   3.914   3.580
 1158SOL    HW2 3488   1.045   3.753   3.575
 1159SOL     OW 3489   0.504   3.774   3.602
 1159SOL    HW1 3490   0.462   3.717   3.532
 1159SOL    HW2 3491   0.438   3.843   3.634
 1160SOL     OW 3492   1.209   4.249   2.137
 1160SOL    HW1 3493   1.222   4.165   2.191
 1160SOL    HW2 3494   1.180   4.323   2.197
 1161SOL     OW 3495   0.307   3.937   3.093
 1161SOL    HW1 3496   0.284   3.974   3.183
 1161SOL    HW2 3497   0.277   3.842   3.087
 1162SOL     OW 3498   0.732   4.358   2.926
 1162SOL    HW1 3499   0.791   4.332   2.850
 1162SOL    HW2 3500   0.704   4.454   2.915
 1163SOL     OW 3501   1.728   4.659   3.716
 1163SOL    HW1 3502   1.682   4.652   3.627
 1163SOL    HW2 3503   1.666   4.703   3.782
 1164SOL     OW 3504   0.307   3.787   2.480
 1164SOL    HW1 3505   0.296   3.881   2.513
 1164SOL    HW2 3506   0.302   3.724   2.557
 1165SOL     OW 3507   1.622   4.091   2.236
 1165SOL    HW1 3508   1.624   4.015   2.300
 1165SOL    HW2 3509   1.574   4.168   2.276
 1166SOL     OW 3510   1.540   3.998   1.987
 1166SOL    HW1 3511   1.479   3.923   2.010
 1166SOL    HW2 3512   1.562   4.050   2.070
 1167SOL     OW 3513   0.319   4.534   2.811
 1167SOL    HW1 3514   0.412   4.570   2.816
 1167SOL    HW2 3515   0.313   4.449   2.863
 1168SOL     OW 3516   0.339   4.233   2.868
 1168SOL    HW1 3517   0.287   4.150   2.851
 1168SOL    HW2 3518   0.416   4.238   2.804
 1169SOL     OW 3519   1.138   4.104   3.540
 1169SOL    HW1 3520   1.093   4.167   3.604
 1169SOL    HW2 3521   1.231   4.135   3.523
 1170SOL     OW 3522   1.160   3.931   3.339
 1170SOL    HW1 3523   1.160   3.995   3.416
 1170SOL    HW2 3524   1.188   3.979   3.256
 1171SOL     OW 3525   0.040   4.268   2.976
 1171SOL    HW1 3526   0.125   4.235   2.935
 1171SOL    HW2 3527   0.053   4.283   3.074
 1172SOL     OW 3528   0.189   4.244   3.584
 1172SOL    HW1 3529   0.248   4.204   3.514
 1172SOL    HW2 3530   0.131   4.315   3.543
 1173SOL     OW 3531   0.815   4.296   2.187
 1173SOL    HW1 3532   0.822   4.207   2.141
 1173SOL    HW2 3533   0.721   4.330   2.179
 1174SOL     OW 3534   1.657   4.328   3.068
 1174SOL    HW1 3535   1.619   4.259   3.130
 1174SOL    HW2 3536   1.739   4.292   3.024
 1175SOL     OW 3537   0.671   4.188   3.131
 1175SOL    HW1 3538   0.637   4.099   3.101
 1175SOL    HW2 3539   0.697   4.242   3.051
 1176SOL     OW 3540   0.473   4.224   2.053
 1176SOL    HW1 3541   0.534   4.304   2.057
 1176SOL    HW2 3542   0.378   4.255   2.060
 1177SOL     OW 3543   1.726   3.859   2.385
 1177SOL    HW1 3544   1.799   3.842   2.318
 1177SOL    HW2 3545   1.695   3.772   2.423
 1178SOL     OW 3546   1.280   4.651   2.534
 1178SOL    HW1 3547   1.340   4.570   2.536
 1178SOL    HW2 3548   1.320   4.720   2.474
 1179SOL     OW 3549   1.841   3.899   2.825
 1179SOL    HW1 3550   1.880   3.814   2.789
 1179SOL    HW2 3551   1.743   3.901   2.806
 1180SOL     OW 3552   0.263   4.050   2.582
 1180SOL    HW1 3553   0.184   4.101   2.548
 1180SOL    HW2 3554   0.254   4.035   2.680
 1181SOL     OW 3555   0.916   4.634   2.153
 1181SOL    HW1 3556   0.979   4.672   2.085
 1181SOL    HW2 3557   0.956   4.551   2.192
 1182SOL     OW 3558   1.039   4.822   2.558
 1182SOL    HW1 3559   0.969   4.775   2.612
 1182SOL    HW2 3560   1.098   4.754   2.515
 1183SOL     OW 3561   1.014   3.960   2.833
 1183SOL    HW1 3562   1.006   3.924   2.740
 1183SOL    HW2 3563   1.012   3.884   2.898
 1184SOL     OW 3564   1.709   4.109   3.243
 1184SOL    HW1 3565   1.782   4.178   3.247
 1184SOL    HW2 3566   1.737   4.034   3.184
 1185SOL     OW 3567   0.672   3.927   3.351
 1185SOL    HW1 3568   0.762   3.911   3.311
 1185SOL    HW2 3569   0.680   3.932   3.450
 1186SOL     OW 3570   0.075   4.069   1.895
 1186SOL    HW1 3571  -0.017   4.041   1.866
 1186SOL    HW2 3572   0.106   4.146   1.839
 1187SOL     OW 3573   0.072   3.890   2.180
 1187SOL    HW1 3574   0.055   3.973   2.126
 1187SOL    HW2 3575   0.162   3.853   2.158
 1188SOL     OW 3576   0.716   4.289   3.570
 1188SOL    HW1 3577   0.735   4.354   3.644
 1188SOL    HW2 3578   0.776   4.209   3.579
 1189SOL     OW 3579   1.225   4.049   2.311
 1189SOL    HW1 3580   1.290   3.975   2.300
 1189SOL    HW2 3581   1.245   4.099   2.395
 1190SOL     OW 3582   1.777   4.066   3.504
 1190SOL    HW1 3583   1.760   4.097   3.410
 1190SOL    HW2 3584   1.693   4.029   3.542
 1191SOL     OW 3585   1.083   4.708   1.949
 1191SOL    HW1 3586   1.060   4.761   1.867
 1191SOL    HW2 3587   1.164   4.652   1.930
 1192SOL     OW 3588   1.824   3.916   3.089
 1192SOL    HW1 3589   1.820   3.826   3.133
 1192SOL    HW2 3590   1.827   3.905   2.990
 1193SOL     OW 3591   0.428   4.148   2.382
 1193SOL    HW1 3592   0.458   4.076   2.320
 1193SOL    HW2 3593   0.389   4.108   2.465
 1194SOL     OW 3594   0.317   4.271   3.142
 1194SOL    HW1 3595   0.355   4.212   3.214
 1194SOL    HW2 3596   0.357   4.245   3.054
 1195SOL     OW 3597   1.424   3.938   2.974
 1195SOL    HW1 3598   1.476   3.873   3.029
 1195SOL    HW2 3599   1.375   4.001   3.035
 1196SOL     OW 3600   1.001   3.758   3.016
 1196SOL    HW1 3601   0.938   3.686   2.985
 1196SOL    HW2 3602   1.094   3.722   3.016
 1197SOL     OW 3603   1.352   3.776   2.030
 1197SOL    HW1 3604   1.387   3.735   1.946
 1197SOL    HW2 3605   1.262   3.738   2.050
 1198SOL     OW 3606   1.300   4.177   2.553
 1198SOL    HW1 3607   1.241   4.257   2.557
 1198SOL    HW2 3608   1.315   4.142   2.646
 1199SOL     OW 3609   1.593   3.945   2.744
 1199SOL    HW1 3610   1.509   3.944   2.798
 1199SOL    HW2 3611   1.595   4.028   2.688
 1200SOL     OW 3612   0.230   4.352   3.837
 1200SOL    HW1 3613   0.137   4.350   3.874
 1200SOL    HW2 3614   0.231   4.313   3.745
 1201SOL     OW 3615   1.755   4.331   3.955
 1201SOL    HW1 3616   1.743   4.318   3.856
 1201SOL    HW2 3617   1.725   4.250   4.004
 1202SOL     OW 3618   0.685   4.736   4.389
 1202SOL    HW1 3619   0.754   4.720   4.459
 1202SOL    HW2 3620   0.612   4.793   4.427
 1203SOL     OW 3621   1.603   4.171   4.461
 1203SOL    HW1 3622   1.529   4.217   4.411
 1203SOL    HW2 3623   1.654   4.239   4.514
 1204SOL     OW 3624   0.240   4.815   4.610
 1204SOL    HW1 3625   0.254   4.731   4.662
 1204SOL    HW2 3626   0.185   4.879   4.665
 1205SOL     OW 3627   0.122   4.367   4.287
 1205SOL    HW1 3628   0.077   4.279   4.304
 1205SOL    HW2 3629   0.121   4.421   4.371
 1206SOL     OW 3630   0.809   3.728   4.226
 1206SOL    HW1 3631   0.849   3.819   4.217
 1206SOL    HW2 3632   0.709   3.736   4.232
 1207SOL     OW 3633   1.281   4.069   4.668
 1207SOL    HW1 3634   1.195   4.019   4.655
 1207SOL    HW2 3635   1.343   4.015   4.724
 1208SOL     OW 3636   1.041   4.425   4.153
 1208SOL    HW1 3637   1.067   4.421   4.249
 1208SOL    HW2 3638   0.956   4.374   4.139
 1209SOL     OW 3639   0.076   4.535   4.513
 1209SOL    HW1 3640   0.175   4.523   4.522
 1209SOL    HW2 3641   0.052   4.630   4.534
 1210SOL     OW 3642   0.865   4.072   3.919
 1210SOL    HW1 3643   0.924   4.135   3.870
 1210SOL    HW2 3644   0.884   3.978   3.890
 1211SOL     OW 3645   1.400   3.831   4.150
 1211SOL    HW1 3646   1.376   3.794   4.060
 1211SOL    HW2 3647   1.499   3.847   4.154
 1212SOL     OW 3648   0.382   4.424   4.204
 1212SOL    HW1 3649   0.427   4.334   4.201
 1212SOL    HW2 3650   0.288   4.413   4.237
 1213SOL     OW 3651   0.614   3.846   3.841
 1213SOL    HW1 3652   0.712   3.824   3.848
 1213SOL    HW2 3653   0.583   3.829   3.748
 1214SOL     OW 3654   0.539   3.788   4.236
 1214SOL    HW1 3655   0.458   3.789   4.294
 1214SOL    HW2 3656   0.542   3.871   4.181
 1215SOL     OW 3657   0.297   3.759   3.895
 1215SOL    HW1 3658   0.346   3.843   3.874
 1215SOL    HW2 3659   0.359   3.694   3.940
 1216SOL     OW 3660   0.935   3.960   4.204
 1216SOL    HW1 3661   0.887   4.001   4.126
 1216SOL    HW2 3662   1.034   3.958   4.185
 1217SOL     OW 3663   1.032   4.273   3.740
 1217SOL    HW1 3664   0.991   4.355   3.701
 1217SOL    HW2 3665   1.096   4.299   3.813
 1218SOL     OW 3666   0.866   4.178   4.366
 1218SOL    HW1 3667   0.834   4.250   4.304
 1218SOL    HW2 3668   0.890   4.097   4.313
 1219SOL     OW 3669   1.390   4.299   3.802
 1219SOL    HW1 3670   1.336   4.278   3.883
 1219SOL    HW2 3671   1.481   4.258   3.811
 1220SOL     OW 3672   0.527   3.980   4.052
 1220SOL    HW1 3673   0.554   3.921   3.977
 1220SOL    HW2 3674   0.527   4.075   4.021
 1221SOL     OW 3675   1.582   4.363   4.196
 1221SOL    HW1 3676   1.551   4.424   4.269
 1221SOL    HW2 3677   1.632   4.415   4.127
 1222SOL     OW 3678   1.209   4.249   3.999
 1222SOL    HW1 3679   1.222   4.165   4.053
 1222SOL    HW2 3680   1.180   4.323   4.059
 1223SOL     OW 3681   0.307   3.787   4.342
 1223SOL    HW1 3682   0.296   3.881   4.375
 1223SOL    HW2 3683   0.302   3.724   4.419
 1224SOL     OW 3684   1.622   4.091   4.098
 1224SOL    HW1 3685   1.624   4.015   4.162
 1224SOL    HW2 3686   1.574   4.168   4.138
 1225SOL     OW 3687   1.540   3.998   3.849
 1225SOL    HW1 3688   1.479   3.923   3.872
 1225SOL    HW2 3689   1.562   4.050   3.932
 1226SOL     OW 3690   0.815   4.296   4.049
 1226SOL    HW1 3691   0.822   4.207   4.003
 1226SOL    HW2 3692   0.721   4.330   4.041
 1227SOL     OW 3693   0.473   4.224   3.915
 1227SOL    HW1 3694   0.534   4.304   3.919
 1227SOL    HW2 3695   0.378   4.255   3.922
 1228SOL     OW 3696   1.726   3.859   4.247
 1228SOL    HW1 3697   1.799   3.842   4.180
 1228SOL    HW2 3698   1.695   3.772   4.285
 1229SOL     OW 3699   1.280   4.651   4.396
 1229SOL    HW1 3700   1.340   4.570   4.398
 1229SOL    HW2 3701   1.320   4.720   4.336
 1230SOL     OW 3702   1.841   3.899   4.687
 1230SOL    HW1 3703   1.880   3.814   4.651
 1230SOL    HW2 3704   1.743   3.901   4.668
 1231SOL     OW 3705   0.916   4.634   4.015
 1231SOL    HW1 3706   0.979   4.672   3.947
 1231SOL    HW2 3707   0.956   4.551   4.054
 1232SOL     OW 3708   0.075   4.069   3.757
 1232SOL    HW1 3709  -0.017   4.041   3.728
 1232SOL    HW2 3710   0.106   4.146   3.701
 1233SOL     OW 3711   0.072   3.890   4.042
 1233SOL    HW1 3712   0.055   3.973   3.988
 1233SOL    HW2 3713   0.162   3.853   4.020
 1234SOL     OW 3714   1.225   4.049   4.173
 1234SOL    HW1 3715   1.290   3.975   4.162
 1234SOL    HW2 3716   1.245   4.099   4.257
 1235SOL     OW 3717   1.083   4.708   3.811
 1235SOL    HW1 3718   1.060   4.761   3.729
 1235SOL    HW2 3719   1.164   4.652   3.792
 1236SOL     OW 3720   0.428   4.148   4.244
 1236SOL    HW1 3721   0.458   4.076   4.182
 1236SOL    HW2 3722   0.389   4.108   4.327
 1237SOL     OW 3723   1.352   3.776   3.892
 1237SOL    HW1 3724   1.387   3.735   3.808
 1237SOL    HW2 3725   1.262   3.738   3.912
 1238SOL     OW 3726   1.300   4.177   4.415
 1238SOL    HW1 3727   1.241   4.257   4.419
 1238SOL    HW2 3728   1.315   4.142   4.508
 1239SOL     OW 3729   2.092   0.628   0.113
 1239SOL    HW1 3730   1.999   0.626   0.150
 1239SOL    HW2 3731   2.093   0.589   0.021
 1240SOL     OW 3732   2.087   0.275   0.996
 1240SOL    HW1 3733   2.122   0.258   1.088
 1240SOL    HW2 3734   1.999   0.230   0.984
 1241SOL     OW 3735   1.881   0.368   0.647
 1241SOL    HW1 3736   1.799   0.411   0.686
 1241SOL    HW2 3737   1.853   0.295   0.584
 1242SOL     OW 3738   2.431   1.275   1.165
 1242SOL    HW1 3739   2.338   1.268   1.128
 1242SOL    HW2 3740   2.442   1.364   1.209
 1243SOL     OW 3741   3.417   1.511   0.703
 1243SOL    HW1 3742   3.360   1.495   0.784
 1243SOL    HW2 3743   3.358   1.521   0.623
 1244SOL     OW 3744   2.997   0.703   0.717
 1244SOL    HW1 3745   3.054   0.781   0.692
 1244SOL    HW2 3746   2.937   0.729   0.793
 1245SOL     OW 3747   3.617   0.607   0.231
 1245SOL    HW1 3748   3.605   0.594   0.132
 1245SOL    HW2 3749   3.587   0.526   0.280
 1246SOL     OW 3750   2.630   1.144   1.023
 1246SOL    HW1 3751   2.552   1.161   1.083
 1246SOL    HW2 3752   2.664   1.231   0.987
 1247SOL     OW 3753   2.712   0.798   1.823
 1247SOL    HW1 3754   2.708   0.874   1.888
 1247SOL    HW2 3755   2.734   0.834   1.732
 1248SOL     OW 3756   2.547   1.012   0.665
 1248SOL    HW1 3757   2.616   0.996   0.735
 1248SOL    HW2 3758   2.474   1.069   0.703
 1249SOL     OW 3759   2.548   1.161   1.803
 1249SOL    HW1 3760   2.608   1.240   1.817
 1249SOL    HW2 3761   2.462   1.192   1.762
 1250SOL     OW 3762   2.197   1.435   1.061
 1250SOL    HW1 3763   2.119   1.404   1.008
 1250SOL    HW2 3764   2.255   1.493   1.004
 1251SOL     OW 3765   3.322   1.505   1.339
 1251SOL    HW1 3766   3.346   1.599   1.365
 1251SOL    HW2 3767   3.306   1.451   1.421
 1252SOL     OW 3768   2.300   0.392   1.499
 1252SOL    HW1 3769   2.382   0.336   1.508
 1252SOL    HW2 3770   2.219   0.334   1.503
 1253SOL     OW 3771   3.465   0.447   0.737
 1253SOL    HW1 3772   3.391   0.493   0.687
 1253SOL    HW2 3773   3.516   0.515   0.790
 1254SOL     OW 3774   2.093   1.713   0.483
 1254SOL    HW1 3775   2.127   1.790   0.537
 1254SOL    HW2 3776   2.137   1.713   0.393
 1255SOL     OW 3777   2.989   1.341   1.690
 1255SOL    HW1 3778   3.036   1.341   1.778
 1255SOL    HW2 3779   2.941   1.254   1.679
 1256SOL     OW 3780   2.092   1.434   0.538
 1256SOL    HW1 3781   2.066   1.530   0.538
 1256SOL    HW2 3782   2.021   1.380   0.583
 1257SOL     OW 3783   2.102   1.091   0.886
 1257SOL    HW1 3784   2.116   1.007   0.938
 1257SOL    HW2 3785   2.047   1.155   0.941
 1258SOL     OW 3786   2.482   1.786   1.439
 1258SOL    HW1 3787   2.390   1.769   1.474
 1258SOL    HW2 3788   2.510   1.878   1.465
 1259SOL     OW 3789   2.468   0.964   0.123
 1259SOL    HW1 3790   2.475   1.048   0.069
 1259SOL    HW2 3791   2.514   0.977   0.211
 1260SOL     OW 3792   3.456   0.114   1.480
 1260SOL    HW1 3793   3.438   0.181   1.408
 1260SOL    HW2 3794   3.453   0.160   1.569
 1261SOL     OW 3795   1.984   0.643   0.563
 1261SOL    HW1 3796   1.939   0.555   0.580
 1261SOL    HW2 3797   1.983   0.697   0.647
 1262SOL     OW 3798   3.704   1.767   0.359
 1262SOL    HW1 3799   3.758   1.738   0.439
 1262SOL    HW2 3800   3.734   1.857   0.330
 1263SOL     OW 3801   1.889   1.596   0.117
 1263SOL    HW1 3802   1.870   1.500   0.138
 1263SOL    HW2 3803   1.856   1.654   0.192
 1264SOL     OW 3804   3.551   0.922   0.612
 1264SOL    HW1 3805   3.646   0.893   0.620
 1264SOL    HW2 3806   3.543   0.987   0.537
 1265SOL     OW 3807   3.503   1.108   0.432
 1265SOL    HW1 3808   3.589   1.110   0.380
 1265SOL    HW2 3809   3.517   1.155   0.520
 1266SOL     OW 3810   1.975   0.737   1.597
 1266SOL    HW1 3811   2.063   0.724   1.642
 1266SOL    HW2 3812   1.962   0.834   1.575
 1267SOL     OW 3813   2.475   1.365   0.726
 1267SOL    HW1 3814   2.426   1.278   0.735
 1267SOL    HW2 3815   2.452   1.408   0.639
 1268SOL     OW 3816   3.155   1.228   1.423
 1268SOL    HW1 3817   3.192   1.155   1.365
 1268SOL    HW2 3818   3.207   1.233   1.508
 1269SOL     OW 3819   2.671   0.004   0.502
 1269SOL    HW1 3820   2.711   0.095   0.493
 1269SOL    HW2 3821   2.571   0.012   0.508
 1270SOL     OW 3822   2.059   0.976   1.264
 1270SOL    HW1 3823   2.148   0.931   1.250
 1270SOL    HW2 3824   1.986   0.911   1.245
 1271SOL     OW 3825   3.387   0.999   0.190
 1271SOL    HW1 3826   3.324   0.923   0.203
 1271SOL    HW2 3827   3.435   1.017   0.276
 1272SOL     OW 3828   3.049   1.792   1.616
 1272SOL    HW1 3829   3.073   1.852   1.540
 1272SOL    HW2 3830   3.056   1.697   1.586
 1273SOL     OW 3831   2.179   0.251   1.801
 1273SOL    HW1 3832   2.250   0.322   1.807
 1273SOL    HW2 3833   2.091   0.290   1.829
 1274SOL     OW 3834   3.328   1.417   0.953
 1274SOL    HW1 3835   3.269   1.423   1.033
 1274SOL    HW2 3836   3.313   1.329   0.907
 1275SOL     OW 3837   3.529   1.714   0.572
 1275SOL    HW1 3838   3.488   1.691   0.484
 1275SOL    HW2 3839   3.511   1.640   0.637
 1276SOL     OW 3840   2.460   0.729   0.270
 1276SOL    HW1 3841   2.484   0.798   0.202
 1276SOL    HW2 3842   2.382   0.762   0.324
 1277SOL     OW 3843   3.143   0.345   0.944
 1277SOL    HW1 3844   3.057   0.295   0.931
 1277SOL    HW2 3845   3.205   0.291   1.000
 1278SOL     OW 3846   3.438   1.662   0.307
 1278SOL    HW1 3847   3.527   1.708   0.310
 1278SOL    HW2 3848   3.417   1.638   0.212
 1279SOL     OW 3849   2.669   0.605   1.465
 1279SOL    HW1 3850   2.622   0.602   1.554
 1279SOL    HW2 3851   2.618   0.550   1.399
 1280SOL     OW 3852   3.256   0.469   1.674
 1280SOL    HW1 3853   3.236   0.512   1.762
 1280SOL    HW2 3854   3.334   0.407   1.683
 1281SOL     OW 3855   2.835   0.890   1.572
 1281SOL    HW1 3856   2.881   0.806   1.543
 1281SOL    HW2 3857   2.779   0.924   1.497
 1282SOL     OW 3858   2.853   0.410   1.242
 1282SOL    HW1 3859   2.776   0.444   1.296
 1282SOL    HW2 3860   2.819   0.359   1.163
 1283SOL     OW 3861   2.903   0.701   0.429
 1283SOL    HW1 3862   2.929   0.697   0.525
 1283SOL    HW2 3863   2.818   0.650   0.415
 1284SOL     OW 3864   1.938   0.811   0.789
 1284SOL    HW1 3865   2.037   0.799   0.798
 1284SOL    HW2 3866   1.914   0.906   0.810
 1285SOL     OW 3867   1.992   1.821   1.571
 1285SOL    HW1 3868   1.982   1.806   1.670
 1285SOL    HW2 3869   1.906   1.857   1.535
 1286SOL     OW 3870   2.727   0.348   0.195
 1286SOL    HW1 3871   2.786   0.411   0.146
 1286SOL    HW2 3872   2.746   0.254   0.166
 1287SOL     OW 3873   3.581   0.585   1.831
 1287SOL    HW1 3874   3.555   0.674   1.795
 1287SOL    HW2 3875   3.579   0.517   1.758
 1288SOL     OW 3876   3.224   1.144   0.545
 1288SOL    HW1 3877   3.307   1.115   0.497
 1288SOL    HW2 3878   3.175   1.211   0.489
 1289SOL     OW 3879   2.412   0.196   0.885
 1289SOL    HW1 3880   2.407   0.191   0.985
 1289SOL    HW2 3881   2.414   0.292   0.856
 1290SOL     OW 3882   2.870   1.456   0.477
 1290SOL    HW1 3883   2.824   1.528   0.425
 1290SOL    HW2 3884   2.866   1.476   0.575
 1291SOL     OW 3885   2.213   1.801   0.853
 1291SOL    HW1 3886   2.263   1.715   0.859
 1291SOL    HW2 3887   2.278   1.878   0.850
 1292SOL     OW 3888   3.657   1.066   0.873
 1292SOL    HW1 3889   3.595   1.051   0.797
 1292SOL    HW2 3890   3.605   1.077   0.958
 1293SOL     OW 3891   3.089   1.550   1.506
 1293SOL    HW1 3892   3.095   1.473   1.570
 1293SOL    HW2 3893   3.037   1.524   1.426
 1294SOL     OW 3894   2.183   0.943   0.242
 1294SOL    HW1 3895   2.265   0.982   0.200
 1294SOL    HW2 3896   2.156   0.861   0.193
 1295SOL     OW 3897   3.320   0.735   0.728
 1295SOL    HW1 3898   3.315   0.670   0.803
 1295SOL    HW2 3899   3.400   0.794   0.741
 1296SOL     OW 3900   2.323   1.266   1.727
 1296SOL    HW1 3901   2.273   1.267   1.641
 1296SOL    HW2 3902   2.260   1.248   1.803
 1297SOL     OW 3903   2.973   1.776   0.237
 1297SOL    HW1 3904   2.913   1.714   0.287
 1297SOL    HW2 3905   3.004   1.732   0.152
 1298SOL     OW 3906   2.064   0.285   1.498
 1298SOL    HW1 3907   1.984   0.345   1.485
 1298SOL    HW2 3908   2.054   0.236   1.584
 1299SOL     OW 3909   3.494   1.377   0.081
 1299SOL    HW1 3910   3.462   1.471   0.071
 1299SOL    HW2 3911   3.418   1.314   0.069
 1300SOL     OW 3912   2.326   1.743   0.323
 1300SOL    HW1 3913   2.359   1.782   0.409
 1300SOL    HW2 3914   2.402   1.736   0.258
 1301SOL     OW 3915   3.262   0.107   0.426
 1301SOL    HW1 3916   3.238   0.070   0.336
 1301SOL    HW2 3917   3.361   0.123   0.430
 1302SOL     OW 3918   2.111   1.785   1.241
 1302SOL    HW1 3919   2.168   1.720   1.291
 1302SOL    HW2 3920   2.095   1.752   1.148
 1303SOL     OW 3921   2.802   1.698   0.904
 1303SOL    HW1 3922   2.882   1.641   0.925
 1303SOL    HW2 3923   2.753   1.658   0.827
 1304SOL     OW 3924   2.244   0.700   0.480
 1304SOL    HW1 3925   2.289   0.610   0.477
 1304SOL    HW2 3926   2.150   0.689   0.513
 1305SOL     OW 3927   3.409   0.222   1.729
 1305SOL    HW1 3928   3.404   0.259   1.821
 1305SOL    HW2 3929   3.337   0.153   1.717
 1306SOL     OW 3930   2.476   0.122   0.117
 1306SOL    HW1 3931   2.574   0.100   0.124
 1306SOL    HW2 3932   2.445   0.105   0.024
 1307SOL     OW 3933   2.643   0.264   1.749
 1307SOL    HW1 3934   2.710   0.203   1.792
 1307SOL    HW2 3935   2.570   0.283   1.814
 1308SOL     OW 3936   2.750   1.514   1.195
 1308SOL    HW1 3937   2.727   1.489   1.101
 1308SOL    HW2 3938   2.811   1.445   1.234
 1309SOL     OW 3939   3.213   0.590   1.433
 1309SOL    HW1 3940   3.241   0.547   1.518
 1309SOL    HW2 3941   3.238   0.686   1.434
 1310SOL     OW 3942   2.665   1.402   0.924
 1310SOL    HW1 3943   2.755   1.416   0.882
 1310SOL    HW2 3944   2.594   1.404   0.853
 1311SOL     OW 3945   2.784   0.503   0.899
 1311SOL    HW1 3946   2.759   0.494   0.803
 1311SOL    HW2 3947   2.832   0.421   0.930
 1312SOL     OW 3948   2.401   0.064   0.512
 1312SOL    HW1 3949   2.320   0.065   0.570
 1312SOL    HW2 3950   2.404   0.147   0.457
 1313SOL     OW 3951   3.296   1.188   0.041
 1313SOL    HW1 3952   3.328   1.112   0.098
 1313SOL    HW2 3953   3.204   1.215   0.071
 1314SOL     OW 3954   2.159   0.035   0.171
 1314SOL    HW1 3955   2.208   0.119   0.150
 1314SOL    HW2 3956   2.221  -0.030   0.216
 1315SOL     OW 3957   2.797   0.236   0.480
 1315SOL    HW1 3958   2.749   0.277   0.402
 1315SOL    HW2 3959   2.896   0.234   0.461
 1316SOL     OW 3960   2.938   0.683   1.464
 1316SOL    HW1 3961   2.858   0.622   1.467
 1316SOL    HW2 3962   3.019   0.630   1.440
 1317SOL     OW 3963   3.089   1.570   0.793
 1317SOL    HW1 3964   3.110   1.644   0.728
 1317SOL    HW2 3965   3.157   1.570   0.866
 1318SOL     OW 3966   2.321   1.152   0.741
 1318SOL    HW1 3967   2.250   1.125   0.806
 1318SOL    HW2 3968   2.295   1.124   0.648
 1319SOL     OW 3969   3.133   1.797   0.591
 1319SOL    HW1 3970   3.177   1.861   0.527
 1319SOL    HW2 3971   3.083   1.849   0.661
 1320SOL     OW 3972   2.894   0.549   0.016
 1320SOL    HW1 3973   2.853   0.631  -0.023
 1320SOL    HW2 3974   2.958   0.575   0.089
 1321SOL     OW 3975   1.940   0.556   1.386
 1321SOL    HW1 3976   2.032   0.555   1.345
 1321SOL    HW2 3977   1.934   0.630   1.453
 1322SOL     OW 3978   2.423   0.222   1.147
 1322SOL    HW1 3979   2.461   0.138   1.184
 1322SOL    HW2 3980   2.335   0.241   1.191
 1323SOL     OW 3981   2.728   0.454   0.642
 1323SOL    HW1 3982   2.696   0.526   0.580
 1323SOL    HW2 3983   2.752   0.373   0.589
 1324SOL     OW 3984   2.879   0.039   0.753
 1324SOL    HW1 3985   2.807   0.044   0.684
 1324SOL    HW2 3986   2.855  -0.030   0.822
 1325SOL     OW 3987   3.291   1.173   0.867
 1325SOL    HW1 3988   3.236   1.089   0.860
 1325SOL    HW2 3989   3.317   1.202   0.775
 1326SOL     OW 3990   3.328   0.590   0.992
 1326SOL    HW1 3991   3.298   0.495   0.999
 1326SOL    HW2 3992   3.401   0.606   1.058
 1327SOL     OW 3993   3.719   0.833   0.377
 1327SOL    HW1 3994   3.761   0.769   0.441
 1327SOL    HW2 3995   3.681   0.782   0.299
 1328SOL     OW 3996   2.350   1.385   0.174
 1328SOL    HW1 3997   2.263   1.370   0.221
 1328SOL    HW2 3998   2.333   1.411   0.079
 1329SOL     OW 3999   3.526   1.280   0.657
 1329SOL    HW1 4000   3.625   1.288   0.671
 1329SOL    HW2 4001   3.481   1.364   0.688
 1330SOL     OW 4002   3.252   0.575   0.078
 1330SOL    HW1 4003   3.198   0.554   0.159
 1330SOL    HW2 4004   3.343   0.534   0.087
 1331SOL     OW 4005   2.389   0.256   0.328
 1331SOL    HW1 4006   2.416   0.197   0.253
 1331SOL    HW2 4007   2.389   0.351   0.297
 1332SOL     OW 4008   3.616   1.223   1.588
 1332SOL    HW1 4009   3.707   1.184   1.575
 1332SOL    HW2 4010   3.624   1.319   1.612
 1333SOL     OW 4011   2.926   1.347   1.340
 1333SOL    HW1 4012   2.846   1.324   1.395
 1333SOL    HW2 4013   3.009   1.321   1.389
 1334SOL     OW 4014   3.454   1.629   1.625
 1334SOL    HW1 4015   3.481   1.663   1.535
 1334SOL    HW2 4016   3.533   1.591   1.671
 1335SOL     OW 4017   2.973   1.195   1.100
 1335SOL    HW1 4018   2.933   1.239   1.181
 1335SOL    HW2 4019   2.932   1.232   1.017
 1336SOL     OW 4020   3.500   1.099   1.079
 1336SOL    HW1 4021   3.505   1.180   1.138
 1336SOL    HW2 4022   3.414   1.101   1.028
 1337SOL     OW 4023   2.777   0.089   1.402
 1337SOL    HW1 4024   2.802   0.069   1.307
 1337SOL    HW2 4025   2.849   0.145   1.444
 1338SOL     OW 4026   2.842   1.116   1.719
 1338SOL    HW1 4027   2.743   1.122   1.729
 1338SOL    HW2 4028   2.865   1.036   1.663
 1339SOL     OW 4029   2.567   1.050   0.368
 1339SOL    HW1 4030   2.553   1.057   0.467
 1339SOL    HW2 4031   2.651   0.999   0.350
 1340SOL     OW 4032   2.272   0.813   1.251
 1340SOL    HW1 4033   2.358   0.825   1.301
 1340SOL    HW2 4034   2.230   0.726   1.278
 1341SOL     OW 4035   3.136   0.386   1.262
 1341SOL    HW1 4036   3.157   0.460   1.326
 1341SOL    HW2 4037   3.047   0.403   1.219
 1342SOL     OW 4038   1.926   1.564   1.331
 1342SOL    HW1 4039   1.880   1.646   1.297
 1342SOL    HW2 4040   2.024   1.583   1.340
 1343SOL     OW 4041   2.229   1.100   0.501
 1343SOL    HW1 4042   2.222   1.183   0.445
 1343SOL    HW2 4043   2.233   1.020   0.441
 1344SOL     OW 4044   2.428   0.537   0.865
 1344SOL    HW1 4045   2.440   0.603   0.791
 1344SOL    HW2 4046   2.474   0.571   0.948
 1345SOL     OW 4047   3.114   1.348   0.388
 1345SOL    HW1 4048   3.164   1.425   0.428
 1345SOL    HW2 4049   3.019   1.350   0.420
 1346SOL     OW 4050   3.134   1.445   1.142
 1346SOL    HW1 4051   3.181   1.458   1.229
 1346SOL    HW2 4052   3.068   1.371   1.151
 1347SOL     OW 4053   3.444   0.639   0.472
 1347SOL    HW1 4054   3.413   0.700   0.545
 1347SOL    HW2 4055   3.494   0.691   0.403
 1348SOL     OW 4056   2.216   1.510   1.329
 1348SOL    HW1 4057   2.195   1.466   1.242
 1348SOL    HW2 4058   2.313   1.536   1.332
 1349SOL     OW 4059   2.264   0.751   1.598
 1349SOL    HW1 4060   2.332   0.806   1.551
 1349SOL    HW2 4061   2.304   0.663   1.625
 1350SOL     OW 4062   3.449   0.779   1.670
 1350SOL    HW1 4063   3.357   0.817   1.665
 1350SOL    HW2 4064   3.509   0.826   1.605
 1351SOL     OW 4065   2.875   0.105   1.770
 1351SOL    HW1 4066   2.881   0.190   1.718
 1351SOL    HW2 4067   2.907   0.029   1.713
 1352SOL     OW 4068   2.366   0.050   1.740
 1352SOL    HW1 4069   2.324  -0.007   1.670
 1352SOL    HW2 4070   2.300   0.119   1.772
 1353SOL     OW 4071   2.435   0.870   1.029
 1353SOL    HW1 4072   2.479   0.959   1.020
 1353SOL    HW2 4073   2.372   0.870   1.106
 1354SOL     OW 4074   3.222   0.862   1.045
 1354SOL    HW1 4075   3.147   0.862   0.979
 1354SOL    HW2 4076   3.259   0.770   1.054
 1355SOL     OW 4077   3.071   0.525   0.275
 1355SOL    HW1 4078   3.084   0.441   0.329
 1355SOL    HW2 4079   3.042   0.599   0.335
 1356SOL     OW 4080   2.169   0.213   1.231
 1356SOL    HW1 4081   2.146   0.250   1.321
 1356SOL    HW2 4082   2.139   0.118   1.225
 1357SOL     OW 4083   1.899   1.310   1.282
 1357SOL    HW1 4084   1.952   1.261   1.350
 1357SOL    HW2 4085   1.921   1.408   1.287
 1358SOL     OW 4086   2.594   0.634   1.064
 1358SOL    HW1 4087   2.653   0.608   0.988
 1358SOL    HW2 4088   2.566   0.730   1.053
 1359SOL     OW 4089   3.590   0.935   1.854
 1359SOL    HW1 4090   3.544   0.928   1.765
 1359SOL    HW2 4091   3.528   0.979   1.920
 1360SOL     OW 4092   2.169   0.063   0.618
 1360SOL    HW1 4093   2.158   0.157   0.651
 1360SOL    HW2 4094   2.164   0.000   0.695
 1361SOL     OW 4095   3.484   0.367   0.374
 1361SOL    HW1 4096   3.486   0.291   0.438
 1361SOL    HW2 4097   3.436   0.444   0.414
 1362SOL     OW 4098   2.885   0.766   0.966
 1362SOL    HW1 4099   2.900   0.787   1.062
 1362SOL    HW2 4100   2.855   0.671   0.957
 1363SOL     OW 4101   2.842   1.573   1.700
 1363SOL    HW1 4102   2.822   1.617   1.612
 1363SOL    HW2 4103   2.881   1.482   1.684
 1364SOL     OW 4104   3.721   1.518   1.605
 1364SOL    HW1 4105   3.735   1.545   1.510
 1364SOL    HW2 4106   3.804   1.540   1.658
 1365SOL     OW 4107   2.212   0.898   1.804
 1365SOL    HW1 4108   2.288   0.942   1.852
 1365SOL    HW2 4109   2.247   0.851   1.722
 1366SOL     OW 4110   3.402   0.274   0.125
 1366SOL    HW1 4111   3.341   0.199   0.148
 1366SOL    HW2 4112   3.424   0.326   0.208
 1367SOL     OW 4113   3.165   0.838   0.042
 1367SOL    HW1 4114   3.199   0.745   0.057
 1367SOL    HW2 4115   3.183   0.865  -0.053
 1368SOL     OW 4116   2.930   1.333   0.849
 1368SOL    HW1 4117   2.937   1.249   0.794
 1368SOL    HW2 4118   2.992   1.402   0.813
 1369SOL     OW 4119   2.181   0.810   0.949
 1369SOL    HW1 4120   2.274   0.846   0.954
 1369SOL    HW2 4121   2.175   0.725   1.001
 1370SOL     OW 4122   2.201   0.509   1.006
 1370SOL    HW1 4123   2.149   0.426   0.989
 1370SOL    HW2 4124   2.278   0.514   0.942
 1371SOL     OW 4125   3.000   0.380   1.678
 1371SOL    HW1 4126   2.955   0.443   1.742
 1371SOL    HW2 4127   3.093   0.411   1.661
 1372SOL     OW 4128   3.022   0.207   1.477
 1372SOL    HW1 4129   3.022   0.271   1.554
 1372SOL    HW2 4130   3.050   0.255   1.394
 1373SOL     OW 4131   1.870   1.326   0.200
 1373SOL    HW1 4132   1.777   1.347   0.169
 1373SOL    HW2 4133   1.880   1.227   0.213
 1374SOL     OW 4134   1.950   1.801   0.927
 1374SOL    HW1 4135   1.908   1.715   0.900
 1374SOL    HW2 4136   2.044   1.804   0.893
 1375SOL     OW 4137   2.366   1.568   0.910
 1375SOL    HW1 4138   2.432   1.642   0.919
 1375SOL    HW2 4139   2.410   1.489   0.868
 1376SOL     OW 4140   2.864   0.796   1.238
 1376SOL    HW1 4141   2.905   0.764   1.324
 1376SOL    HW2 4142   2.768   0.769   1.235
 1377SOL     OW 4143   1.902   0.544   1.114
 1377SOL    HW1 4144   1.987   0.511   1.073
 1377SOL    HW2 4145   1.915   0.559   1.212
 1378SOL     OW 4146   2.051   0.520   1.722
 1378SOL    HW1 4147   2.110   0.480   1.652
 1378SOL    HW2 4148   1.993   0.591   1.681
 1379SOL     OW 4149   3.231   0.950   1.660
 1379SOL    HW1 4150   3.270   1.039   1.680
 1379SOL    HW2 4151   3.241   0.930   1.563
 1380SOL     OW 4152   2.677   0.572   0.325
 1380SOL    HW1 4153   2.684   0.483   0.279
 1380SOL    HW2 4154   2.583   0.606   0.317
 1381SOL     OW 4155   3.519   0.604   1.206
 1381SOL    HW1 4156   3.481   0.535   1.268
 1381SOL    HW2 4157   3.601   0.568   1.162
 1382SOL     OW 4158   2.114   1.564   1.744
 1382SOL    HW1 4159   2.084   1.621   1.820
 1382SOL    HW2 4160   2.107   1.467   1.770
 1383SOL     OW 4161   2.533   0.464   1.269
 1383SOL    HW1 4162   2.499   0.375   1.239
 1383SOL    HW2 4163   2.559   0.518   1.189
 1384SOL     OW 4164   2.792   1.678   1.465
 1384SOL    HW1 4165   2.768   1.660   1.370
 1384SOL    HW2 4166   2.822   1.772   1.475
 1385SOL     OW 4167   2.335   0.500   0.191
 1385SOL    HW1 4168   2.396   0.580   0.195
 1385SOL    HW2 4169   2.240   0.531   0.198
 1386SOL     OW 4170   2.021   1.137   1.466
 1386SOL    HW1 4171   2.043   1.076   1.542
 1386SOL    HW2 4172   2.031   1.088   1.380
 1387SOL     OW 4173   3.209   1.059   1.234
 1387SOL    HW1 4174   3.233   0.996   1.160
 1387SOL    HW2 4175   3.119   1.099   1.216
 1388SOL     OW 4176   3.164   0.855   0.309
 1388SOL    HW1 4177   3.078   0.824   0.351
 1388SOL    HW2 4178   3.160   0.841   0.210
 1389SOL     OW 4179   3.621   1.747   1.154
 1389SOL    HW1 4180   3.682   1.777   1.081
 1389SOL    HW2 4181   3.583   1.658   1.132
 1390SOL     OW 4182   3.114   1.731   1.128
 1390SOL    HW1 4183   3.198   1.736   1.074
 1390SOL    HW2 4184   3.091   1.635   1.146
 1391SOL     OW 4185   1.945   1.258   1.022
 1391SOL    HW1 4186   1.940   1.257   1.122
 1391SOL    HW2 4187   1.862   1.217   0.984
 1392SOL     OW 4188   2.550   1.662   1.716
 1392SOL    HW1 4189   2.494   1.743   1.725
 1392SOL    HW2 4190   2.602   1.666   1.630
 1393SOL     OW 4191   2.765   0.086   0.133
 1393SOL    HW1 4192   2.816   0.087   0.047
 1393SOL    HW2 4193   2.821   0.044   0.204
 1394SOL     OW 4194   3.588   0.135   0.523
 1394SOL    HW1 4195   3.661   0.118   0.456
 1394SOL    HW2 4196   3.557   0.048   0.561
 1395SOL     OW 4197   3.250   1.573   0.477
 1395SOL    HW1 4198   3.317   1.585   0.403
 1395SOL    HW2 4199   3.210   1.662   0.500
 1396SOL     OW 4200   1.992   1.794   1.851
 1396SOL    HW1 4201   1.951   1.720   1.904
 1396SOL    HW2 4202   2.056   1.845   1.909
 1397SOL     OW 4203   3.142   0.927   0.672
 1397SOL    HW1 4204   3.202   0.846   0.674
 1397SOL    HW2 4205   3.182   0.996   0.612
 1398SOL     OW 4206   2.692   1.273   1.422
 1398SOL    HW1 4207   2.687   1.306   1.517
 1398SOL    HW2 4208   2.606   1.292   1.376
 1399SOL     OW 4209   2.534   1.616   0.154
 1399SOL    HW1 4210   2.543   1.626   0.055
 1399SOL    HW2 4211   2.494   1.527   0.175
 1400SOL     OW 4212   3.512   1.720   1.394
 1400SOL    HW1 4213   3.565   1.730   1.310
 1400SOL    HW2 4214   3.485   1.810   1.428
 1401SOL     OW 4215   3.703   0.175   0.963
 1401SOL    HW1 4216   3.742   0.090   0.927
 1401SOL    HW2 4217   3.605   0.177   0.944
 1402SOL     OW 4218   2.125   0.326   0.720
 1402SOL    HW1 4219   2.046   0.377   0.686
 1402SOL    HW2 4220   2.116   0.311   0.818
 1403SOL     OW 4221   3.056   1.612   0.031
 1403SOL    HW1 4222   3.062   1.519   0.068
 1403SOL    HW2 4223   2.997   1.612  -0.049
 1404SOL     OW 4224   2.684   1.002   1.372
 1404SOL    HW1 4225   2.724   1.001   1.280
 1404SOL    HW2 4226   2.694   1.094   1.412
 1405SOL     OW 4227   2.778   0.910   0.291
 1405SOL    HW1 4228   2.841   0.948   0.223
 1405SOL    HW2 4229   2.818   0.827   0.330
 1406SOL     OW 4230   3.366   1.607   0.044
 1406SOL    HW1 4231   3.274   1.644   0.051
 1406SOL    HW2 4232   3.404   1.627  -0.046
 1407SOL     OW 4233   2.234   1.288   1.490
 1407SOL    HW1 4234   2.221   1.381   1.456
 1407SOL    HW2 4235   2.150   1.236   1.477
 1408SOL     OW 4236   3.476   1.292   1.289
 1408SOL    HW1 4237   3.536   1.295   1.369
 1408SOL    HW2 4238   3.401   1.356   1.302
 1409SOL     OW 4239   2.901   1.098   0.696
 1409SOL    HW1 4240   2.831   1.051   0.750
 1409SOL    HW2 4241   2.960   1.030   0.653
 1410SOL     OW 4242   2.876   0.236   0.971
 1410SOL    HW1 4243   2.868   0.200   0.878
 1410SOL    HW2 4244   2.874   0.160   1.036
 1411SOL     OW 4245   2.452   1.487   0.491
 1411SOL    HW1 4246   2.494   1.429   0.421
 1411SOL    HW2 4247   2.408   1.566   0.447
 1412SOL     OW 4248   3.571   0.385   1.381
 1412SOL    HW1 4249   3.644   0.454   1.385
 1412SOL    HW2 4250   3.599   0.310   1.322
 1413SOL     OW 4251   2.117   1.348   0.290
 1413SOL    HW1 4252   2.021   1.349   0.263
 1413SOL    HW2 4253   2.129   1.401   0.374
 1414SOL     OW 4254   1.967   1.013   1.726
 1414SOL    HW1 4255   1.890   0.980   1.780
 1414SOL    HW2 4256   2.052   0.983   1.768
 1415SOL     OW 4257   2.534   0.203   1.489
 1415SOL    HW1 4258   2.624   0.187   1.449
 1415SOL    HW2 4259   2.542   0.208   1.588
 1416SOL     OW 4260   1.937   0.345   0.033
 1416SOL    HW1 4261   1.845   0.317   0.004
 1416SOL    HW2 4262   1.968   0.422  -0.023
 1417SOL     OW 4263   3.302   0.856   1.398
 1417SOL    HW1 4264   3.245   0.908   1.335
 1417SOL    HW2 4265   3.398   0.868   1.374
 1418SOL     OW 4266   3.045   1.335   0.119
 1418SOL    HW1 4267   2.946   1.324   0.121
 1418SOL    HW2 4268   3.079   1.350   0.212
 1419SOL     OW 4269   2.475   0.842   1.431
 1419SOL    HW1 4270   2.531   0.923   1.414
 1419SOL    HW2 4271   2.534   0.762   1.434
 1420SOL     OW 4272   3.355   1.767   0.959
 1420SOL    HW1 4273   3.388   1.831   0.890
 1420SOL    HW2 4274   3.421   1.761   1.034
 1421SOL     OW 4275   2.578   0.565   1.708
 1421SOL    HW1 4276   2.597   0.630   1.782
 1421SOL    HW2 4277   2.638   0.485   1.717
 1422SOL     OW 4278   3.312   1.220   1.633
 1422SOL    HW1 4279   3.303   1.210   1.732
 1422SOL    HW2 4280   3.408   1.213   1.607
 1423SOL     OW 4281   2.252   1.741   1.560
 1423SOL    HW1 4282   2.161   1.782   1.558
 1423SOL    HW2 4283   2.245   1.647   1.592
 1424SOL     OW 4284   3.536   0.883   1.254
 1424SOL    HW1 4285   3.509   0.794   1.217
 1424SOL    HW2 4286   3.537   0.951   1.181
 1425SOL     OW 4287   3.087   0.325   0.449
 1425SOL    HW1 4288   3.152   0.251   0.438
 1425SOL    HW2 4289   3.107   0.375   0.533
 1426SOL     OW 4290   2.456   0.745   0.652
 1426SOL    HW1 4291   2.506   0.830   0.633
 1426SOL    HW2 4292   2.368   0.747   0.604
 1427SOL     OW 4293   3.639   0.342   1.642
 1427SOL    HW1 4294   3.622   0.373   1.548
 1427SOL    HW2 4295   3.555   0.305   1.680
 1428SOL     OW 4296   3.592   0.934   1.517
 1428SOL    HW1 4297   3.630   1.025   1.532
 1428SOL    HW2 4298   3.584   0.917   1.418
 1429SOL     OW 4299   2.721   1.374   0.016
 1429SOL    HW1 4300   2.675   1.389   0.104
 1429SOL    HW2 4301   2.765   1.459  -0.014
 1430SOL     OW 4302   2.523   1.790   0.953
 1430SOL    HW1 4303   2.477   1.878   0.940
 1430SOL    HW2 4304   2.622   1.802   0.946
 1431SOL     OW 4305   2.721   0.956   0.861
 1431SOL    HW1 4306   2.775   0.887   0.909
 1431SOL    HW2 4307   2.689   1.025   0.927
 1432SOL     OW 4308   2.945   0.984   0.087
 1432SOL    HW1 4309   2.922   1.037   0.005
 1432SOL    HW2 4310   3.026   0.928   0.068
 1433SOL     OW 4311   3.723   1.569   0.851
 1433SOL    HW1 4312   3.652   1.557   0.781
 1433SOL    HW2 4313   3.724   1.490   0.911
 1434SOL     OW 4314   2.083   1.314   1.844
 1434SOL    HW1 4315   2.018   1.241   1.823
 1434SOL    HW2 4316   2.087   1.328   1.942
 1435SOL     OW 4317   1.941   1.240   0.653
 1435SOL    HW1 4318   1.940   1.193   0.741
 1435SOL    HW2 4319   2.023   1.212   0.602
 1436SOL     OW 4320   2.534   1.391   1.624
 1436SOL    HW1 4321   2.456   1.341   1.662
 1436SOL    HW2 4322   2.531   1.486   1.655
 1437SOL     OW 4323   3.686   0.192   1.227
 1437SOL    HW1 4324   3.682   0.102   1.271
 1437SOL    HW2 4325   3.689   0.181   1.128
 1438SOL     OW 4326   2.290   0.424   0.520
 1438SOL    HW1 4327   2.320   0.352   0.458
 1438SOL    HW2 4328   2.251   0.384   0.603
 1439SOL     OW 4329   3.567   1.487   1.104
 1439SOL    HW1 4330   3.474   1.462   1.077
 1439SOL    HW2 4331   3.593   1.437   1.186
 1440SOL     OW 4332   2.179   0.547   1.280
 1440SOL    HW1 4333   2.217   0.488   1.352
 1440SOL    HW2 4334   2.219   0.521   1.192
 1441SOL     OW 4335   2.674   1.586   0.687
 1441SOL    HW1 4336   2.706   1.596   0.593
 1441SOL    HW2 4337   2.595   1.524   0.689
 1442SOL     OW 4338   3.286   0.214   1.112
 1442SOL    HW1 4339   3.338   0.149   1.167
 1442SOL    HW2 4340   3.237   0.277   1.173
 1443SOL     OW 4341   2.863   0.034   1.154
 1443SOL    HW1 4342   2.800  -0.038   1.123
 1443SOL    HW2 4343   2.956  -0.002   1.154
 1444SOL     OW 4344   2.632   1.330   0.301
 1444SOL    HW1 4345   2.586   1.243   0.318
 1444SOL    HW2 4346   2.723   1.327   0.342
 1445SOL     OW 4347   2.480   1.567   1.284
 1445SOL    HW1 4348   2.475   1.649   1.341
 1445SOL    HW2 4349   2.569   1.564   1.239
 1446SOL     OW 4350   3.214   0.052   0.168
 1446SOL    HW1 4351   3.249   0.011   0.084
 1446SOL    HW2 4352   3.124   0.014   0.188
 1447SOL     OW 4353   3.162   0.453   0.691
 1447SOL    HW1 4354   3.103   0.533   0.695
 1447SOL    HW2 4355   3.177   0.418   0.784
 1448SOL     OW 4356   3.455   0.221   0.882
 1448SOL    HW1 4357   3.371   0.220   0.936
 1448SOL    HW2 4358   3.457   0.304   0.826
 1449SOL     OW 4359   1.901   1.077   0.300
 1449SOL    HW1 4360   2.000   1.066   0.291
 1449SOL    HW2 4361   1.861   0.991   0.332
 1450SOL     OW 4362   2.737   1.646   0.337
 1450SOL    HW1 4363   2.660   1.611   0.283
 1450SOL    HW2 4364   2.705   1.717   0.399
 1451SOL     OW 4365   2.092   0.628   1.975
 1451SOL    HW1 4366   1.999   0.626   2.012
 1451SOL    HW2 4367   2.093   0.589   1.883
 1452SOL     OW 4368   2.087   0.275   2.858
 1452SOL    HW1 4369   2.122   0.258   2.950
 1452SOL    HW2 4370   1.999   0.230   2.846
 1453SOL     OW 4371   1.881   0.368   2.509
 1453SOL    HW1 4372   1.799   0.411   2.548
 1453SOL    HW2 4373   1.853   0.295   2.446
 1454SOL     OW 4374   2.431   1.275   3.027
 1454SOL    HW1 4375   2.338   1.268   2.990
 1454SOL    HW2 4376   2.442   1.364   3.071
 1455SOL     OW 4377   3.417   1.511   2.565
 1455SOL    HW1 4378   3.360   1.495   2.646
 1455SOL    HW2 4379   3.358   1.521   2.485
 1456SOL     OW 4380   2.997   0.703   2.579
 1456SOL    HW1 4381   3.054   0.781   2.554
 1456SOL    HW2 4382   2.937   0.729   2.655
 1457SOL     OW 4383   3.617   0.607   2.093
 1457SOL    HW1 4384   3.605   0.594   1.994
 1457SOL    HW2 4385   3.587   0.526   2.142
 1458SOL     OW 4386   2.630   1.144   2.885
 1458SOL    HW1 4387   2.552   1.161   2.945
 1458SOL    HW2 4388   2.664   1.231   2.849
 1459SOL     OW 4389   2.712   0.798   3.685
 1459SOL    HW1 4390   2.708   0.874   3.750
 1459SOL    HW2 4391   2.734   0.834   3.594
 1460SOL     OW 4392   2.547   1.012   2.527
 1460SOL    HW1 4393   2.616   0.996   2.597
 1460SOL    HW2 4394   2.474   1.069   2.565
 1461SOL     OW 4395   2.548   1.161   3.665
 1461SOL    HW1 4396   2.608   1.240   3.679
 1461SOL    HW2 4397   2.462   1.192   3.624
 1462SOL     OW 4398   2.197   1.435   2.923
 1462SOL    HW1 4399   2.119   1.404   2.870
 1462SOL    HW2 4400   2.255   1.493   2.866
 1463SOL     OW 4401   3.322   1.505   3.201
 1463SOL    HW1 4402   3.346   1.599   3.227
 1463SOL    HW2 4403   3.306   1.451   3.283
 1464SOL     OW 4404   2.300   0.392   3.361
 1464SOL    HW1 4405   2.382   0.336   3.370
 1464SOL    HW2 4406   2.219   0.334   3.365
 1465SOL     OW 4407   3.465   0.447   2.599
 1465SOL    HW1 4408   3.391   0.493   2.549
 1465SOL    HW2 4409   3.516   0.515   2.652
 1466SOL     OW 4410   2.093   1.713   2.345
 1466SOL    HW1 4411   2.127   1.790   2.399
 1466SOL    HW2 4412   2.137   1.713   2.255
 1467SOL     OW 4413   2.989   1.341   3.552
 1467SOL    HW1 4414   3.036   1.341   3.640
 1467SOL    HW2 4415   2.941   1.254   3.541
 1468SOL     OW 4416   2.092   1.434   2.400
 1468SOL    HW1 4417   2.066   1.530   2.400
 1468SOL    HW2 4418   2.021   1.380   2.445
 1469SOL     OW 4419   2.102   1.091   2.748
 1469SOL    HW1 4420   2.116   1.007   2.800
 1469SOL    HW2 4421   2.047   1.155   2.803
 1470SOL     OW 4422   2.482   1.786   3.301
 1470SOL    HW1 4423   2.390   1.769   3.336
 1470SOL    HW2 4424   2.510   1.878   3.327
 1471SOL     OW 4425   2.468   0.964   1.985
 1471SOL    HW1 4426   2.475   1.048   1.931
 1471SOL    HW2 4427   2.514   0.977   2.073
 1472SOL     OW 4428   3.456   0.114   3.342
 1472SOL    HW1 4429   3.438   0.181   3.270
 1472SOL    HW2 4430   3.453   0.160   3.431
 1473SOL     OW 4431   1.984   0.643   2.425
 1473SOL    HW1 4432   1.939   0.555   2.442
 1473SOL    HW2 4433   1.983   0.697   2.509
 1474SOL     OW 4434   3.704   1.767   2.221
 1474SOL    HW1 4435   3.758   1.738   2.301
 1474SOL    HW2 4436   3.734   1.857   2.192
 1475SOL     OW 4437   1.889   1.596   1.979
 1475SOL    HW1 4438   1.870   1.500   2.000
 1475SOL    HW2 4439   1.856   1.654   2.054
 1476SOL     OW 4440   3.551   0.922   2.474
 1476SOL    HW1 4441   3.646   0.893   2.482
 1476SOL    HW2 4442   3.543   0.987   2.399
 1477SOL     OW 4443   3.503   1.108   2.294
 1477SOL    HW1 4444   3.589   1.110   2.242
 1477SOL    HW2 4445   3.517   1.155   2.382
 1478SOL     OW 4446   1.975   0.737   3.459
 1478SOL    HW1 4447   2.063   0.724   3.504
 1478SOL    HW2 4448   1.962   0.834   3.437
 1479SOL     OW 4449   2.475   1.365   2.588
 1479SOL    HW1 4450   2.426   1.278   2.597
 1479SOL    HW2 4451   2.452   1.408   2.501
 1480SOL     OW 4452   3.155   1.228   3.285
 1480SOL    HW1 4453   3.192   1.155   3.227
 1480SOL    HW2 4454   3.207   1.233   3.370
 1481SOL     OW 4455   2.671   0.004   2.364
 1481SOL    HW1 4456   2.711   0.095   2.355
 1481SOL    HW2 4457   2.571   0.012   2.370
 1482SOL     OW 4458   2.059   0.976   3.126
 1482SOL    HW1 4459   2.148   0.931   3.112
 1482SOL    HW2 4460   1.986   0.911   3.107
 1483SOL     OW 4461   3.387   0.999   2.052
 1483SOL    HW1 4462   3.324   0.923   2.065
 1483SOL    HW2 4463   3.435   1.017   2.138
 1484SOL     OW 4464   3.049   1.792   3.478
 1484SOL    HW1 4465   3.073   1.852   3.402
 1484SOL    HW2 4466   3.056   1.697   3.448
 1485SOL     OW 4467   2.179   0.251   3.663
 1485SOL    HW1 4468   2.250   0.322   3.669
 1485SOL    HW2 4469   2.091   0.290   3.691
 1486SOL     OW 4470   3.328   1.417   2.815
 1486SOL    HW1 4471   3.269   1.423   2.895
 1486SOL    HW2 4472   3.313   1.329   2.769
 1487SOL     OW 4473   3.529   1.714   2.434
 1487SOL    HW1 4474   3.488   1.691   2.346
 1487SOL    HW2 4475   3.511   1.640   2.499
 1488SOL     OW 4476   2.460   0.729   2.132
 1488SOL    HW1 4477   2.484   0.798   2.064
 1488SOL    HW2 4478   2.382   0.762   2.186
 1489SOL     OW 4479   3.143   0.345   2.806
 1489SOL    HW1 4480   3.057   0.295   2.793
 1489SOL    HW2 4481   3.205   0.291   2.862
 1490SOL     OW 4482   3.438   1.662   2.169
 1490SOL    HW1 4483   3.527   1.708   2.172
 1490SOL    HW2 4484   3.417   1.638   2.074
 1491SOL     OW 4485   2.669   0.605   3.327
 1491SOL    HW1 4486   2.622   0.602   3.416
 1491SOL    HW2 4487   2.618   0.550   3.261
 1492SOL     OW 4488   3.256   0.469   3.536
 1492SOL    HW1 4489   3.236   0.512   3.624
 1492SOL    HW2 4490   3.334   0.407   3.545
 1493SOL     OW 4491   2.835   0.890   3.434
 1493SOL    HW1 4492   2.881   0.806   3.405
 1493SOL    HW2 4493   2.779   0.924   3.359
 1494SOL     OW 4494   2.853   0.410   3.104
 1494SOL    HW1 4495   2.776   0.444   3.158
 1494SOL    HW2 4496   2.819   0.359   3.025
 1495SOL     OW 4497   2.903   0.701   2.291
 1495SOL    HW1 4498   2.929   0.697   2.387
 1495SOL    HW2 4499   2.818   0.650   2.277
 1496SOL     OW 4500   1.938   0.811   2.651
 1496SOL    HW1 4501   2.037   0.799   2.660
 1496SOL    HW2 4502   1.914   0.906   2.672
 1497SOL     OW 4503   1.992   1.821   3.433
 1497SOL    HW1 4504   1.982   1.806   3.532
 1497SOL    HW2 4505   1.906   1.857   3.397
 1498SOL     OW 4506   2.727   0.348   2.057
 1498SOL    HW1 4507   2.786   0.411   2.008
 1498SOL    HW2 4508   2.746   0.254   2.028
 1499SOL     OW 4509   3.581   0.585   3.693
 1499SOL    HW1 4510   3.555   0.674   3.657
 1499SOL    HW2 4511   3.579   0.517   3.620
 1500SOL     OW 4512   3.224   1.144   2.407
 1500SOL    HW1 4513   3.307   1.115   2.359
 1500SOL    HW2 4514   3.175   1.211   2.351
 1501SOL     OW 4515   2.412   0.196   2.747
 1501SOL    HW1 4516   2.407   0.191   2.847
 1501SOL    HW2 4517   2.414   0.292   2.718
 1502SOL     OW 4518   2.870   1.456   2.339
 1502SOL    HW1 4519   2.824   1.528   2.287
 1502SOL    HW2 4520   2.866   1.476   2.437
 1503SOL     OW 4521   2.213   1.801   2.715
 1503SOL    HW1 4522   2.263   1.715   2.721
 1503SOL    HW2 4523   2.278   1.878   2.712
 1504SOL     OW 4524   3.657   1.066   2.735
 1504SOL    HW1 4525   3.595   1.051   2.659
 1504SOL    HW2 4526   3.605   1.077   2.820
 1505SOL     OW 4527   3.089   1.550   3.368
 1505SOL    HW1 4528   3.095   1.473   3.432
 1505SOL    HW2 4529   3.037   1.524   3.288
 1506SOL     OW 4530   2.183   0.943   2.104
 1506SOL    HW1 4531   2.265   0.982   2.062
 1506SOL    HW2 4532   2.156   0.861   2.055
 1507SOL     OW 4533   3.320   0.735   2.590
 1507SOL    HW1 4534   3.315   0.670   2.665
 1507SOL    HW2 4535   3.400   0.794   2.603
 1508SOL     OW 4536   2.323   1.266   3.589
 1508SOL    HW1 4537   2.273   1.267   3.503
 1508SOL    HW2 4538   2.260   1.248   3.665
 1509SOL     OW 4539   2.973   1.776   2.099
 1509SOL    HW1 4540   2.913   1.714   2.149
 1509SOL    HW2 4541   3.004   1.732   2.014
 1510SOL     OW 4542   2.064   0.285   3.360
 1510SOL    HW1 4543   1.984   0.345   3.347
 1510SOL    HW2 4544   2.054   0.236   3.446
 1511SOL     OW 4545   3.494   1.377   1.943
 1511SOL    HW1 4546   3.462   1.471   1.933
 1511SOL    HW2 4547   3.418   1.314   1.931
 1512SOL     OW 4548   2.326   1.743   2.185
 1512SOL    HW1 4549   2.359   1.782   2.271
 1512SOL    HW2 4550   2.402   1.736   2.120
 1513SOL     OW 4551   3.262   0.107   2.288
 1513SOL    HW1 4552   3.238   0.070   2.198
 1513SOL    HW2 4553   3.361   0.123   2.292
 1514SOL     OW 4554   2.111   1.785   3.103
 1514SOL    HW1 4555   2.168   1.720   3.153
 1514SOL    HW2 4556   2.095   1.752   3.010
 1515SOL     OW 4557   2.802   1.698   2.766
 1515SOL    HW1 4558   2.882   1.641   2.787
 1515SOL    HW2 4559   2.753   1.658   2.689
 1516SOL     OW 4560   2.244   0.700   2.342
 1516SOL    HW1 4561   2.289   0.610   2.339
 1516SOL    HW2 4562   2.150   0.689   2.375
 1517SOL     OW 4563   3.409   0.222   3.591
 1517SOL    HW1 4564   3.404   0.259   3.683
 1517SOL    HW2 4565   3.337   0.153   3.579
 1518SOL     OW 4566   2.476   0.122   1.979
 1518SOL    HW1 4567   2.574   0.100   1.986
 1518SOL    HW2 4568   2.445   0.105   1.886
 1519SOL     OW 4569   2.643   0.264   3.611
 1519SOL    HW1 4570   2.710   0.203   3.654
 1519SOL    HW2 4571   2.570   0.283   3.676
 1520SOL     OW 4572   2.750   1.514   3.057
 1520SOL    HW1 4573   2.727   1.489   2.963
 1520SOL    HW2 4574   2.811   1.445   3.096
 1521SOL     OW 4575   3.213   0.590   3.295
 1521SOL    HW1 4576   3.241   0.547   3.380
 1521SOL    HW2 4577   3.238   0.686   3.296
 1522SOL     OW 4578   2.665   1.402   2.786
 1522SOL    HW1 4579   2.755   1.416   2.744
 1522SOL    HW2 4580   2.594   1.404   2.715
 1523SOL     OW 4581   2.784   0.503   2.761
 1523SOL    HW1 4582   2.759   0.494   2.665
 1523SOL    HW2 4583   2.832   0.421   2.792
 1524SOL     OW 4584   2.401   0.064   2.374
 1524SOL    HW1 4585   2.320   0.065   2.432
 1524SOL    HW2 4586   2.404   0.147   2.319
 1525SOL     OW 4587   3.296   1.188   1.903
 1525SOL    HW1 4588   3.328   1.112   1.960
 1525SOL    HW2 4589   3.204   1.215   1.933
 1526SOL     OW 4590   2.159   0.035   2.033
 1526SOL    HW1 4591   2.208   0.119   2.012
 1526SOL    HW2 4592   2.221  -0.030   2.078
 1527SOL     OW 4593   2.797   0.236   2.342
 1527SOL    HW1 4594   2.749   0.277   2.264
 1527SOL    HW2 4595   2.896   0.234   2.323
 1528SOL     OW 4596   2.938   0.683   3.326
 1528SOL    HW1 4597   2.858   0.622   3.329
 1528SOL    HW2 4598   3.019   0.630   3.302
 1529SOL     OW 4599   3.089   1.570   2.655
 1529SOL    HW1 4600   3.110   1.644   2.590
 1529SOL    HW2 4601   3.157   1.570   2.728
 1530SOL     OW 4602   2.321   1.152   2.603
 1530SOL    HW1 4603   2.250   1.125   2.668
 1530SOL    HW2 4604   2.295   1.124   2.510
 1531SOL     OW 4605   3.133   1.797   2.453
 1531SOL    HW1 4606   3.177   1.861   2.389
 1531SOL    HW2 4607   3.083   1.849   2.523
 1532SOL     OW 4608   2.894   0.549   1.878
 1532SOL    HW1 4609   2.853   0.631   1.839
 1532SOL    HW2 4610   2.958   0.575   1.951
 1533SOL     OW 4611   1.940   0.556   3.248
 1533SOL    HW1 4612   2.032   0.555   3.207
 1533SOL    HW2 4613   1.934   0.630   3.315
 1534SOL     OW 4614   2.423   0.222   3.009
 1534SOL    HW1 4615   2.461   0.138   3.046
 1534SOL    HW2 4616   2.335   0.241   3.053
 1535SOL     OW 4617   2.728   0.454   2.504
 1535SOL    HW1 4618   2.696   0.526   2.442
 1535SOL    HW2 4619   2.752   0.373   2.451
 1536SOL     OW 4620   2.879   0.039   2.615
 1536SOL    HW1 4621   2.807   0.044   2.546
 1536SOL    HW2 4622   2.855  -0.030   2.684
 1537SOL     OW 4623   3.291   1.173   2.729
 1537SOL    HW1 4624   3.236   1.089   2.722
 1537SOL    HW2 4625   3.317   1.202   2.637
 1538SOL     OW 4626   3.328   0.590   2.854
 1538SOL    HW1 4627   3.298   0.495   2.861
 1538SOL    HW2 4628   3.401   0.606   2.920
 1539SOL     OW 4629   3.719   0.833   2.239
 1539SOL    HW1 4630   3.761   0.769   2.303
 1539SOL    HW2 4631   3.681   0.782   2.161
 1540SOL     OW 4632   2.350   1.385   2.036
 1540SOL    HW1 4633   2.263   1.370   2.083
 1540SOL    HW2 4634   2.333   1.411   1.941
 1541SOL     OW 4635   3.526   1.280   2.519
 1541SOL    HW1 4636   3.625   1.288   2.533
 1541SOL    HW2 4637   3.481   1.364   2.550
 1542SOL     OW 4638   3.252   0.575   1.940
 1542SOL    HW1 4639   3.198   0.554   2.021
 1542SOL    HW2 4640   3.343   0.534   1.949
 1543SOL     OW 4641   2.389   0.256   2.190
 1543SOL    HW1 4642   2.416   0.197   2.115
 1543SOL    HW2 4643   2.389   0.351   2.159
 1544SOL     OW 4644   3.616   1.223   3.450
 1544SOL    HW1 4645   3.707   1.184   3.437
 1544SOL    HW2 4646   3.624   1.319   3.474
 1545SOL     OW 4647   2.926   1.347   3.202
 1545SOL    HW1 4648   2.846   1.324   3.257
 1545SOL    HW2 4649   3.009   1.321   3.251
 1546SOL     OW 4650   3.454   1.629   3.487
 1546SOL    HW1 4651   3.481   1.663   3.397
 1546SOL    HW2 4652   3.533   1.591   3.533
 1547SOL     OW 4653   2.973   1.195   2.962
 1547SOL    HW1 4654   2.933   1.239   3.043
 1547SOL    HW2 4655   2.932   1.232   2.879
 1548SOL     OW 4656   3.500   1.099   2.941
 1548SOL    HW1 4657   3.505   1.180   3.000
 1548SOL    HW2 4658   3.414   1.101   2.890
 1549SOL     OW 4659   2.777   0.089   3.264
 1549SOL    HW1 4660   2.802   0.069   3.169
 1549SOL    HW2 4661   2.849   0.145   3.306
 1550SOL     OW 4662   2.842   1.116   3.581
 1550SOL    HW1 4663   2.743   1.122   3.591
 1550SOL    HW2 4664   2.865   1.036   3.525
 1551SOL     OW 4665   2.567   1.050   2.230
 1551SOL    HW1 4666   2.553   1.057   2.329
 1551SOL    HW2 4667   2.651   0.999   2.212
 1552SOL     OW 4668   2.272   0.813   3.113
 1552SOL    HW1 4669   2.358   0.825   3.163
 1552SOL    HW2 4670   2.230   0.726   3.140
 1553SOL     OW 4671   3.136   0.386   3.124
 1553SOL    HW1 4672   3.157   0.460   3.188
 1553SOL    HW2 4673   3.047   0.403   3.081
 1554SOL     OW 4674   1.926   1.564   3.193
 1554SOL    HW1 4675   1.880   1.646   3.159
 1554SOL    HW2 4676   2.024   1.583   3.202
 1555SOL     OW 4677   2.229   1.100   2.363
 1555SOL    HW1 4678   2.222   1.183   2.307
 1555SOL    HW2 4679   2.233   1.020   2.303
 1556SOL     OW 4680   2.428   0.537   2.727
 1556SOL    HW1 4681   2.440   0.603   2.653
 1556SOL    HW2 4682   2.474   0.571   2.810
 1557SOL     OW 4683   3.114   1.348   2.250
 1557SOL    HW1 4684   3.164   1.425   2.290
 1557SOL    HW2 4685   3.019   1.350   2.282
 1558SOL     OW 4686   3.134   1.445   3.004
 1558SOL    HW1 4687   3.181   1.458   3.091
 1558SOL    HW2 4688   3.068   1.371   3.013
 1559SOL     OW 4689   3.444   0.639   2.334
 1559SOL    HW1 4690   3.413   0.700   2.407
 1559SOL    HW2 4691   3.494   0.691   2.265
 1560SOL     OW 4692   2.216   1.510   3.191
 1560SOL    HW1 4693   2.195   1.466   3.104
 1560SOL    HW2 4694   2.313   1.536   3.194
 1561SOL     OW 4695   2.264   0.751   3.460
 1561SOL    HW1 4696   2.332   0.806   3.413
 1561SOL    HW2 4697   2.304   0.663   3.487
 1562SOL     OW 4698   3.449   0.779   3.532
 1562SOL    HW1 4699   3.357   0.817   3.527
 1562SOL    HW2 4700   3.509   0.826   3.467
 1563SOL     OW 4701   2.875   0.105   3.632
 1563SOL    HW1 4702   2.881   0.190   3.580
 1563SOL    HW2 4703   2.907   0.029   3.575
 1564SOL     OW 4704   2.366   0.050   3.602
 1564SOL    HW1 4705   2.324  -0.007   3.532
 1564SOL    HW2 4706   2.300   0.119   3.634
 1565SOL     OW 4707   2.435   0.870   2.891
 1565SOL    HW1 4708   2.479   0.959   2.882
 1565SOL    HW2 4709   2.372   0.870   2.968
 1566SOL     OW 4710   3.222   0.862   2.907
 1566SOL    HW1 4711   3.147   0.862   2.841
 1566SOL    HW2 4712   3.259   0.770   2.916
 1567SOL     OW 4713   3.071   0.525   2.137
 1567SOL    HW1 4714   3.084   0.441   2.191
 1567SOL    HW2 4715   3.042   0.599   2.197
 1568SOL     OW 4716   2.169   0.213   3.093
 1568SOL    HW1 4717   2.146   0.250   3.183
 1568SOL    HW2 4718   2.139   0.118   3.087
 1569SOL     OW 4719   1.899   1.310   3.144
 1569SOL    HW1 4720   1.952   1.261   3.212
 1569SOL    HW2 4721   1.921   1.408   3.149
 1570SOL     OW 4722   2.594   0.634   2.926
 1570SOL    HW1 4723   2.653   0.608   2.850
 1570SOL    HW2 4724   2.566   0.730   2.915
 1571SOL     OW 4725   3.590   0.935   3.716
 1571SOL    HW1 4726   3.544   0.928   3.627
 1571SOL    HW2 4727   3.528   0.979   3.782
 1572SOL     OW 4728   2.169   0.063   2.480
 1572SOL    HW1 4729   2.158   0.157   2.513
 1572SOL    HW2 4730   2.164   0.000   2.557
 1573SOL     OW 4731   3.484   0.367   2.236
 1573SOL    HW1 4732   3.486   0.291   2.300
 1573SOL    HW2 4733   3.436   0.444   2.276
 1574SOL     OW 4734   2.885   0.766   2.828
 1574SOL    HW1 4735   2.900   0.787   2.924
 1574SOL    HW2 4736   2.855   0.671   2.819
 1575SOL     OW 4737   2.842   1.573   3.562
 1575SOL    HW1 4738   2.822   1.617   3.474
 1575SOL    HW2 4739   2.881   1.482   3.546
 1576SOL     OW 4740   3.721   1.518   3.467
 1576SOL    HW1 4741   3.735   1.545   3.372
 1576SOL    HW2 4742   3.804   1.540   3.520
 1577SOL     OW 4743   2.212   0.898   3.666
 1577SOL    HW1 4744   2.288   0.942   3.714
 1577SOL    HW2 4745   2.247   0.851   3.584
 1578SOL     OW 4746   3.402   0.274   1.987
 1578SOL    HW1 4747   3.341   0.199   2.010
 1578SOL    HW2 4748   3.424   0.326   2.070
 1579SOL     OW 4749   3.165   0.838   1.904
 1579SOL    HW1 4750   3.199   0.745   1.919
 1579SOL    HW2 4751   3.183   0.865   1.809
 1580SOL     OW 4752   2.930   1.333   2.711
 1580SOL    HW1 4753   2.937   1.249   2.656
 1580SOL    HW2 4754   2.992   1.402   2.675
 1581SOL     OW 4755   2.181   0.810   2.811
 1581SOL    HW1 4756   2.274   0.846   2.816
 1581SOL    HW2 4757   2.175   0.725   2.863
 1582SOL     OW 4758   2.201   0.509   2.868
 1582SOL    HW1 4759   2.149   0.426   2.851
 1582SOL    HW2 4760   2.278   0.514   2.804
 1583SOL     OW 4761   3.000   0.380   3.540
 1583SOL    HW1 4762   2.955   0.443   3.604
 1583SOL    HW2 4763   3.093   0.411   3.523
 1584SOL     OW 4764   3.022   0.207   3.339
 1584SOL    HW1 4765   3.022   0.271   3.416
 1584SOL    HW2 4766   3.050   0.255   3.256
 1585SOL     OW 4767   1.870   1.326   2.062
 1585SOL    HW1 4768   1.777   1.347   2.031
 1585SOL    HW2 4769   1.880   1.227   2.075
 1586SOL     OW 4770   1.950   1.801   2.789
 1586SOL    HW1 4771   1.908   1.715   2.762
 1586SOL    HW2 4772   2.044   1.804   2.755
 1587SOL     OW 4773   2.366   1.568   2.772
 1587SOL    HW1 4774   2.432   1.642   2.781
 1587SOL    HW2 4775   2.410   1.489   2.730
 1588SOL     OW 4776   2.864   0.796   3.100
 1588SOL    HW1 4777   2.905   0.764   3.186
 1588SOL    HW2 4778   2.768   0.769   3.097
 1589SOL     OW 4779   1.902   0.544   2.976
 1589SOL    HW1 4780   1.987   0.511   2.935
 1589SOL    HW2 4781   1.915   0.559   3.074
 1590SOL     OW 4782   2.051   0.520   3.584
 1590SOL    HW1 4783   2.110   0.480   3.514
 1590SOL    HW2 4784   1.993   0.591   3.543
 1591SOL     OW 4785   3.231   0.950   3.522
 1591SOL    HW1 4786   3.270   1.039   3.542
 1591SOL    HW2 4787   3.241   0.930   3.425
 1592SOL     OW 4788   2.677   0.572   2.187
 1592SOL    HW1 4789   2.684   0.483   2.141
 1592SOL    HW2 4790   2.583   0.606   2.179
 1593SOL     OW 4791   3.519   0.604   3.068
 1593SOL    HW1 4792   3.481   0.535   3.130
 1593SOL    HW2 4793   3.601   0.568   3.024
 1594SOL     OW 4794   2.114   1.564   3.606
 1594SOL    HW1 4795   2.084   1.621   3.682
 1594SOL    HW2 4796   2.107   1.467   3.632
 1595SOL     OW 4797   2.533   0.464   3.131
 1595SOL    HW1 4798   2.499   0.375   3.101
 1595SOL    HW2 4799   2.559   0.518   3.051
 1596SOL     OW 4800   2.792   1.678   3.327
 1596SOL    HW1 4801   2.768   1.660   3.232
 1596SOL    HW2 4802   2.822   1.772   3.337
 1597SOL     OW 4803   2.335   0.500   2.053
 1597SOL    HW1 4804   2.396   0.580   2.057
 1597SOL    HW2 4805   2.240   0.531   2.060
 1598SOL     OW 4806   2.021   1.137   3.328
 1598SOL    HW1 4807   2.043   1.076   3.404
 1598SOL    HW2 4808   2.031   1.088   3.242
 1599SOL     OW 4809   3.209   1.059   3.096
 1599SOL    HW1 4810   3.233   0.996   3.022
 1599SOL    HW2 4811   3.119   1.099   3.078
 1600SOL     OW 4812   3.164   0.855   2.171
 1600SOL    HW1 4813   3.078   0.824   2.213
 1600SOL    HW2 4814   3.160   0.841   2.072
 1601SOL     OW 4815   3.621   1.747   3.016
 1601SOL    HW1 4816   3.682   1.777   2.943
 1601SOL    HW2 4817   3.583   1.658   2.994
 1602SOL     OW 4818   3.114   1.731   2.990
 1602SOL    HW1 4819   3.198   1.736   2.936
 1602SOL    HW2 4820   3.091   1.635   3.008
 1603SOL     OW 4821   1.945   1.258   2.884
 1603SOL    HW1 4822   1.940   1.257   2.984
 1603SOL    HW2 4823   1.862   1.217   2.846
 1604SOL     OW 4824   2.550   1.662   3.578
 1604SOL    HW1 4825   2.494   1.743   3.587
 1604SOL    HW2 4826   2.602   1.666   3.492
 1605SOL     OW 4827   3.588   0.135   2.385
 1605SOL    HW1 4828   3.661   0.118   2.318
 1605SOL    HW2 4829   3.557   0.048   2.423
 1606SOL     OW 4830   3.250   1.573   2.339
 1606SOL    HW1 4831   3.317   1.585   2.265
 1606SOL    HW2 4832   3.210   1.662   2.362
 1607SOL     OW 4833   1.992   1.794   3.713
 1607SOL    HW1 4834   1.951   1.720   3.766
 1607SOL    HW2 4835   2.056   1.845   3.771
 1608SOL     OW 4836   3.142   0.927   2.534
 1608SOL    HW1 4837   3.202   0.846   2.536
 1608SOL    HW2 4838   3.182   0.996   2.474
 1609SOL     OW 4839   2.692   1.273   3.284
 1609SOL    HW1 4840   2.687   1.306   3.379
 1609SOL    HW2 4841   2.606   1.292   3.238
 1610SOL     OW 4842   2.534   1.616   2.016
 1610SOL    HW1 4843   2.543   1.626   1.917
 1610SOL    HW2 4844   2.494   1.527   2.037
 1611SOL     OW 4845   3.512   1.720   3.256
 1611SOL    HW1 4846   3.565   1.730   3.172
 1611SOL    HW2 4847   3.485   1.810   3.290
 1612SOL     OW 4848   3.703   0.175   2.825
 1612SOL    HW1 4849   3.742   0.090   2.789
 1612SOL    HW2 4850   3.605   0.177   2.806
 1613SOL     OW 4851   2.125   0.326   2.582
 1613SOL    HW1 4852   2.046   0.377   2.548
 1613SOL    HW2 4853   2.116   0.311   2.680
 1614SOL     OW 4854   3.056   1.612   1.893
 1614SOL    HW1 4855   3.062   1.519   1.930
 1614SOL    HW2 4856   2.997   1.612   1.813
 1615SOL     OW 4857   2.684   1.002   3.234
 1615SOL    HW1 4858   2.724   1.001   3.142
 1615SOL    HW2 4859   2.694   1.094   3.274
 1616SOL     OW 4860   2.778   0.910   2.153
 1616SOL    HW1 4861   2.841   0.948   2.085
 1616SOL    HW2 4862   2.818   0.827   2.192
 1617SOL     OW 4863   3.366   1.607   1.906
 1617SOL    HW1 4864   3.274   1.644   1.913
 1617SOL    HW2 4865   3.404   1.627   1.816
 1618SOL     OW 4866   2.234   1.288   3.352
 1618SOL    HW1 4867   2.221   1.381   3.318
 1618SOL    HW2 4868   2.150   1.236   3.339
 1619SOL     OW 4869   3.476   1.292   3.151
 1619SOL    HW1 4870   3.536   1.295   3.231
 1619SOL    HW2 4871   3.401   1.356   3.164
 1620SOL     OW 4872   2.901   1.098   2.558
 1620SOL    HW1 4873   2.831   1.051   2.612
 1620SOL    HW2 4874   2.960   1.030   2.515
 1621SOL     OW 4875   2.876   0.236   2.833
 1621SOL    HW1 4876   2.868   0.200   2.740
 1621SOL    HW2 4877   2.874   0.160   2.898
 1622SOL     OW 4878   2.452   1.487   2.353
 1622SOL    HW1 4879   2.494   1.429   2.283
 1622SOL    HW2 4880   2.408   1.566   2.309
 1623SOL     OW 4881   3.571   0.385   3.243
 1623SOL    HW1 4882   3.644   0.454   3.247
 1623SOL    HW2 4883   3.599   0.310   3.184
 1624SOL     OW 4884   2.117   1.348   2.152
 1624SOL    HW1 4885   2.021   1.349   2.125
 1624SOL    HW2 4886   2.129   1.401   2.236
 1625SOL     OW 4887   1.967   1.013   3.588
 1625SOL    HW1 4888   1.890   0.980   3.642
 1625SOL    HW2 4889   2.052   0.983   3.630
 1626SOL     OW 4890   2.534   0.203   3.351
 1626SOL    HW1 4891   2.624   0.187   3.311
 1626SOL    HW2 4892   2.542   0.208   3.450
 1627SOL     OW 4893   1.937   0.345   1.895
 1627SOL    HW1 4894   1.845   0.317   1.866
 1627SOL    HW2 4895   1.968   0.422   1.839
 1628SOL     OW 4896   3.302   0.856   3.260
 1628SOL    HW1 4897   3.245   0.908   3.197
 1628SOL    HW2 4898   3.398   0.868   3.236
 1629SOL     OW 4899   1.934   0.166   2.180
 1629SOL    HW1 4900   1.917   0.249   2.126
 1629SOL    HW2 4901   2.024   0.129   2.158
 1630SOL     OW 4902   3.045   1.335   1.981
 1630SOL    HW1 4903   2.946   1.324   1.983
 1630SOL    HW2 4904   3.079   1.350   2.074
 1631SOL     OW 4905   2.475   0.842   3.293
 1631SOL    HW1 4906   2.531   0.923   3.276
 1631SOL    HW2 4907   2.534   0.762   3.296
 1632SOL     OW 4908   3.355   1.767   2.821
 1632SOL    HW1 4909   3.388   1.831   2.752
 1632SOL    HW2 4910   3.421   1.761   2.896
 1633SOL     OW 4911   2.578   0.565   3.570
 1633SOL    HW1 4912   2.597   0.630   3.644
 1633SOL    HW2 4913   2.638   0.485   3.579
 1634SOL     OW 4914   3.312   1.220   3.495
 1634SOL    HW1 4915   3.303   1.210   3.594
 1634SOL    HW2 4916   3.408   1.213   3.469
 1635SOL     OW 4917   2.252   1.741   3.422
 1635SOL    HW1 4918   2.161   1.782   3.420
 1635SOL    HW2 4919   2.245   1.647   3.454
 1636SOL     OW 4920   3.536   0.883   3.116
 1636SOL    HW1 4921   3.509   0.794   3.079
 1636SOL    HW2 4922   3.537   0.951   3.043
 1637SOL     OW 4923   3.087   0.325   2.311
 1637SOL    HW1 4924   3.152   0.251   2.300
 1637SOL    HW2 4925   3.107   0.375   2.395
 1638SOL     OW 4926   2.456   0.745   2.514
 1638SOL    HW1 4927   2.506   0.830   2.495
 1638SOL    HW2 4928   2.368   0.747   2.466
 1639SOL     OW 4929   3.639   0.342   3.504
 1639SOL    HW1 4930   3.622   0.373   3.410
 1639SOL    HW2 4931   3.555   0.305   3.542
 1640SOL     OW 4932   3.592   0.934   3.379
 1640SOL    HW1 4933   3.630   1.025   3.394
 1640SOL    HW2 4934   3.584   0.917   3.280
 1641SOL     OW 4935   2.721   1.374   1.878
 1641SOL    HW1 4936   2.675   1.389   1.966
 1641SOL    HW2 4937   2.765   1.459   1.848
 1642SOL     OW 4938   2.523   1.790   2.815
 1642SOL    HW1 4939   2.477   1.878   2.802
 1642SOL    HW2 4940   2.622   1.802   2.808
 1643SOL     OW 4941   2.721   0.956   2.723
 1643SOL    HW1 4942   2.775   0.887   2.771
 1643SOL    HW2 4943   2.689   1.025   2.789
 1644SOL     OW 4944   2.945   0.984   1.949
 1644SOL    HW1 4945   2.922   1.037   1.867
 1644SOL    HW2 4946   3.026   0.928   1.930
 1645SOL     OW 4947   3.723   1.569   2.713
 1645SOL    HW1 4948   3.652   1.557   2.643
 1645SOL    HW2 4949   3.724   1.490   2.773
 1646SOL     OW 4950   2.083   1.314   3.706
 1646SOL    HW1 4951   2.018   1.241   3.685
 1646SOL    HW2 4952   2.087   1.328   3.804
 1647SOL     OW 4953   1.941   1.240   2.515
 1647SOL    HW1 4954   1.940   1.193   2.603
 1647SOL    HW2 4955   2.023   1.212   2.464
 1648SOL     OW 4956   2.534   1.391   3.486
 1648SOL    HW1 4957   2.456   1.341   3.524
 1648SOL    HW2 4958   2.531   1.486   3.517
 1649SOL     OW 4959   3.686   0.192   3.089
 1649SOL    HW1 4960   3.682   0.102   3.133
 1649SOL    HW2 4961   3.689   0.181   2.990
 1650SOL     OW 4962   2.290   0.424   2.382
 1650SOL    HW1 4963   2.320   0.352   2.320
 1650SOL    HW2 4964   2.251   0.384   2.465
 1651SOL     OW 4965   3.567   1.487   2.966
 1651SOL    HW1 4966   3.474   1.462   2.939
 1651SOL    HW2 4967   3.593   1.437   3.048
 1652SOL     OW 4968   2.179   0.547   3.142
 1652SOL    HW1 4969   2.217   0.488   3.214
 1652SOL    HW2 4970   2.219   0.521   3.054
 1653SOL     OW 4971   2.674   1.586   2.549
 1653SOL    HW1 4972   2.706   1.596   2.455
 1653SOL    HW2 4973   2.595   1.524   2.551
 1654SOL     OW 4974   3.286   0.214   2.974
 1654SOL    HW1 4975   3.338   0.149   3.029
 1654SOL    HW2 4976   3.237   0.277   3.035
 1655SOL     OW 4977   2.863   0.034   3.016
 1655SOL    HW1 4978   2.800  -0.038   2.985
 1655SOL    HW2 4979   2.956  -0.002   3.016
 1656SOL     OW 4980   2.632   1.330   2.163
 1656SOL    HW1 4981   2.586   1.243   2.180
 1656SOL    HW2 4982   2.723   1.327   2.204
 1657SOL     OW 4983   2.480   1.567   3.146
 1657SOL    HW1 4984   2.475   1.649   3.203
 1657SOL    HW2 4985   2.569   1.564   3.101
 1658SOL     OW 4986   3.214   0.052   2.030
 1658SOL    HW1 4987   3.249   0.011   1.946
 1658SOL    HW2 4988   3.124   0.014   2.050
 1659SOL     OW 4989   3.162   0.453   2.553
 1659SOL    HW1 4990   3.103   0.533   2.557
 1659SOL    HW2 4991   3.177   0.418   2.646
 1660SOL     OW 4992   3.455   0.221   2.744
 1660SOL    HW1 4993   3.371   0.220   2.798
 1660SOL    HW2 4994   3.457   0.304   2.688
 1661SOL     OW 4995   1.901   1.077   2.162
 1661SOL    HW1 4996   2.000   1.066   2.153
 1661SOL    HW2 4997   1.861   0.991   2.194
 1662SOL     OW 4998   2.737   1.646   2.199
 1662SOL    HW1 4999   2.660   1.611   2.145
 1662SOL    HW2 5000   2.705   1.717   2.261
 1663SOL     OW 5001   2.092   0.628   3.837
 1663SOL    HW1 5002   1.999   0.626   3.874
 1663SOL    HW2 5003   2.093   0.589   3.745
 1664SOL     OW 5004   2.087   0.275   4.720
 1664SOL    HW1 5005   2.122   0.258   4.812
 1664SOL    HW2 5006   1.999   0.230   4.708
 1665SOL     OW 5007   3.617   0.607   3.955
 1665SOL    HW1 5008   3.605   0.594   3.856
 1665SOL    HW2 5009   3.587   0.526   4.004
 1666SOL     OW 5010   2.547   1.012   4.389
 1666SOL    HW1 5011   2.616   0.996   4.459
 1666SOL    HW2 5012   2.474   1.069   4.427
 1667SOL     OW 5013   3.465   0.447   4.461
 1667SOL    HW1 5014   3.391   0.493   4.411
 1667SOL    HW2 5015   3.516   0.515   4.514
 1668SOL     OW 5016   2.093   1.713   4.207
 1668SOL    HW1 5017   2.127   1.790   4.261
 1668SOL    HW2 5018   2.137   1.713   4.117
 1669SOL     OW 5019   2.092   1.434   4.262
 1669SOL    HW1 5020   2.066   1.530   4.262
 1669SOL    HW2 5021   2.021   1.380   4.307
 1670SOL     OW 5022   2.468   0.964   3.847
 1670SOL    HW1 5023   2.475   1.048   3.793
 1670SOL    HW2 5024   2.514   0.977   3.935
 1671SOL     OW 5025   1.984   0.643   4.287
 1671SOL    HW1 5026   1.939   0.555   4.304
 1671SOL    HW2 5027   1.983   0.697   4.371
 1672SOL     OW 5028   3.704   1.767   4.083
 1672SOL    HW1 5029   3.758   1.738   4.163
 1672SOL    HW2 5030   3.734   1.857   4.054
 1673SOL     OW 5031   1.889   1.596   3.841
 1673SOL    HW1 5032   1.870   1.500   3.862
 1673SOL    HW2 5033   1.856   1.654   3.916
 1674SOL     OW 5034   3.551   0.922   4.336
 1674SOL    HW1 5035   3.646   0.893   4.344
 1674SOL    HW2 5036   3.543   0.987   4.261
 1675SOL     OW 5037   3.503   1.108   4.156
 1675SOL    HW1 5038   3.589   1.110   4.104
 1675SOL    HW2 5039   3.517   1.155   4.244
 1676SOL     OW 5040   2.475   1.365   4.450
 1676SOL    HW1 5041   2.426   1.278   4.459
 1676SOL    HW2 5042   2.452   1.408   4.363
 1677SOL     OW 5043   2.671   0.004   4.226
 1677SOL    HW1 5044   2.711   0.095   4.217
 1677SOL    HW2 5045   2.571   0.012   4.232
 1678SOL     OW 5046   3.387   0.999   3.914
 1678SOL    HW1 5047   3.324   0.923   3.927
 1678SOL    HW2 5048   3.435   1.017   4.000
 1679SOL     OW 5049   3.529   1.714   4.296
 1679SOL    HW1 5050   3.488   1.691   4.208
 1679SOL    HW2 5051   3.511   1.640   4.361
 1680SOL     OW 5052   2.460   0.729   3.994
 1680SOL    HW1 5053   2.484   0.798   3.926
 1680SOL    HW2 5054   2.382   0.762   4.048
 1681SOL     OW 5055   3.143   0.345   4.668
 1681SOL    HW1 5056   3.057   0.295   4.655
 1681SOL    HW2 5057   3.205   0.291   4.724
 1682SOL     OW 5058   3.438   1.662   4.031
 1682SOL    HW1 5059   3.527   1.708   4.034
 1682SOL    HW2 5060   3.417   1.638   3.936
 1683SOL     OW 5061   2.903   0.701   4.153
 1683SOL    HW1 5062   2.929   0.697   4.249
 1683SOL    HW2 5063   2.818   0.650   4.139
 1684SOL     OW 5064   1.938   0.811   4.513
 1684SOL    HW1 5065   2.037   0.799   4.522
 1684SOL    HW2 5066   1.914   0.906   4.534
 1685SOL     OW 5067   2.727   0.348   3.919
 1685SOL    HW1 5068   2.786   0.411   3.870
 1685SOL    HW2 5069   2.746   0.254   3.890
 1686SOL     OW 5070   3.224   1.144   4.269
 1686SOL    HW1 5071   3.307   1.115   4.221
 1686SOL    HW2 5072   3.175   1.211   4.213
 1687SOL     OW 5073   2.870   1.456   4.201
 1687SOL    HW1 5074   2.824   1.528   4.149
 1687SOL    HW2 5075   2.866   1.476   4.299
 1688SOL     OW 5076   2.213   1.801   4.577
 1688SOL    HW1 5077   2.263   1.715   4.583
 1688SOL    HW2 5078   2.278   1.878   4.574
 1689SOL     OW 5079   3.657   1.066   4.597
 1689SOL    HW1 5080   3.595   1.051   4.521
 1689SOL    HW2 5081   3.605   1.077   4.682
 1690SOL     OW 5082   2.183   0.943   3.966
 1690SOL    HW1 5083   2.265   0.982   3.924
 1690SOL    HW2 5084   2.156   0.861   3.917
 1691SOL     OW 5085   2.973   1.776   3.961
 1691SOL    HW1 5086   2.913   1.714   4.011
 1691SOL    HW2 5087   3.004   1.732   3.876
 1692SOL     OW 5088   3.494   1.377   3.805
 1692SOL    HW1 5089   3.462   1.471   3.795
 1692SOL    HW2 5090   3.418   1.314   3.793
 1693SOL     OW 5091   2.326   1.743   4.047
 1693SOL    HW1 5092   2.359   1.782   4.133
 1693SOL    HW2 5093   2.402   1.736   3.982
 1694SOL     OW 5094   3.262   0.107   4.150
 1694SOL    HW1 5095   3.238   0.070   4.060
 1694SOL    HW2 5096   3.361   0.123   4.154
 1695SOL     OW 5097   2.802   1.698   4.628
 1695SOL    HW1 5098   2.882   1.641   4.649
 1695SOL    HW2 5099   2.753   1.658   4.551
 1696SOL     OW 5100   2.244   0.700   4.204
 1696SOL    HW1 5101   2.289   0.610   4.201
 1696SOL    HW2 5102   2.150   0.689   4.237
 1697SOL     OW 5103   2.476   0.122   3.841
 1697SOL    HW1 5104   2.574   0.100   3.848
 1697SOL    HW2 5105   2.445   0.105   3.748
 1698SOL     OW 5106   2.401   0.064   4.236
 1698SOL    HW1 5107   2.320   0.065   4.294
 1698SOL    HW2 5108   2.404   0.147   4.181
 1699SOL     OW 5109   3.296   1.188   3.765
 1699SOL    HW1 5110   3.328   1.112   3.822
 1699SOL    HW2 5111   3.204   1.215   3.795
 1700SOL     OW 5112   2.159   0.035   3.895
 1700SOL    HW1 5113   2.208   0.119   3.874
 1700SOL    HW2 5114   2.221  -0.030   3.940
 1701SOL     OW 5115   2.797   0.236   4.204
 1701SOL    HW1 5116   2.749   0.277   4.126
 1701SOL    HW2 5117   2.896   0.234   4.185
 1702SOL     OW 5118   2.321   1.152   4.465
 1702SOL    HW1 5119   2.250   1.125   4.530
 1702SOL    HW2 5120   2.295   1.124   4.372
 1703SOL     OW 5121   3.133   1.797   4.315
 1703SOL    HW1 5122   3.177   1.861   4.251
 1703SOL    HW2 5123   3.083   1.849   4.385
 1704SOL     OW 5124   2.894   0.549   3.740
 1704SOL    HW1 5125   2.853   0.631   3.701
 1704SOL    HW2 5126   2.958   0.575   3.813
 1705SOL     OW 5127   2.728   0.454   4.366
 1705SOL    HW1 5128   2.696   0.526   4.304
 1705SOL    HW2 5129   2.752   0.373   4.313
 1706SOL     OW 5130   3.719   0.833   4.101
 1706SOL    HW1 5131   3.761   0.769   4.165
 1706SOL    HW2 5132   3.681   0.782   4.023
 1707SOL     OW 5133   2.350   1.385   3.898
 1707SOL    HW1 5134   2.263   1.370   3.945
 1707SOL    HW2 5135   2.333   1.411   3.803
 1708SOL     OW 5136   3.526   1.280   4.381
 1708SOL    HW1 5137   3.625   1.288   4.395
 1708SOL    HW2 5138   3.481   1.364   4.412
 1709SOL     OW 5139   3.252   0.575   3.802
 1709SOL    HW1 5140   3.198   0.554   3.883
 1709SOL    HW2 5141   3.343   0.534   3.811
 1710SOL     OW 5142   2.389   0.256   4.052
 1710SOL    HW1 5143   2.416   0.197   3.977
 1710SOL    HW2 5144   2.389   0.351   4.021
 1711SOL     OW 5145   2.973   1.195   4.824
 1711SOL    HW1 5146   2.933   1.239   4.905
 1711SOL    HW2 5147   2.932   1.232   4.741
 1712SOL     OW 5148   2.567   1.050   4.092
 1712SOL    HW1 5149   2.553   1.057   4.191
 1712SOL    HW2 5150   2.651   0.999   4.074
 1713SOL     OW 5151   2.229   1.100   4.225
 1713SOL    HW1 5152   2.222   1.183   4.169
 1713SOL    HW2 5153   2.233   1.020   4.165
 1714SOL     OW 5154   3.114   1.348   4.112
 1714SOL    HW1 5155   3.164   1.425   4.152
 1714SOL    HW2 5156   3.019   1.350   4.144
 1715SOL     OW 5157   3.444   0.639   4.196
 1715SOL    HW1 5158   3.413   0.700   4.269
 1715SOL    HW2 5159   3.494   0.691   4.127
 1716SOL     OW 5160   3.071   0.525   3.999
 1716SOL    HW1 5161   3.084   0.441   4.053
 1716SOL    HW2 5162   3.042   0.599   4.059
 1717SOL     OW 5163   2.169   0.063   4.342
 1717SOL    HW1 5164   2.158   0.157   4.375
 1717SOL    HW2 5165   2.164   0.000   4.419
 1718SOL     OW 5166   3.484   0.367   4.098
 1718SOL    HW1 5167   3.486   0.291   4.162
 1718SOL    HW2 5168   3.436   0.444   4.138
 1719SOL     OW 5169   3.402   0.274   3.849
 1719SOL    HW1 5170   3.341   0.199   3.872
 1719SOL    HW2 5171   3.424   0.326   3.932
 1720SOL     OW 5172   3.165   0.838   3.766
 1720SOL    HW1 5173   3.199   0.745   3.781
 1720SOL    HW2 5174   3.183   0.865   3.671
 1721SOL     OW 5175   1.870   1.326   3.924
 1721SOL    HW1 5176   1.777   1.347   3.893
 1721SOL    HW2 5177   1.880   1.227   3.937
 1722SOL     OW 5178   2.677   0.572   4.049
 1722SOL    HW1 5179   2.684   0.483   4.003
 1722SOL    HW2 5180   2.583   0.606   4.041
 1723SOL     OW 5181   2.335   0.500   3.915
 1723SOL    HW1 5182   2.396   0.580   3.919
 1723SOL    HW2 5183   2.240   0.531   3.922
 1724SOL     OW 5184   3.164   0.855   4.033
 1724SOL    HW1 5185   3.078   0.824   4.075
 1724SOL    HW2 5186   3.160   0.841   3.934
 1725SOL     OW 5187   3.588   0.135   4.247
 1725SOL    HW1 5188   3.661   0.118   4.180
 1725SOL    HW2 5189   3.557   0.048   4.285
 1726SOL     OW 5190   3.250   1.573   4.201
 1726SOL    HW1 5191   3.317   1.585   4.127
 1726SOL    HW2 5192   3.210   1.662   4.224
 1727SOL     OW 5193   2.534   1.616   3.878
 1727SOL    HW1 5194   2.543   1.626   3.779
 1727SOL    HW2 5195   2.494   1.527   3.899
 1728SOL     OW 5196   3.703   0.175   4.687
 1728SOL    HW1 5197   3.742   0.090   4.651
 1728SOL    HW2 5198   3.605   0.177   4.668
 1729SOL     OW 5199   3.056   1.612   3.755
 1729SOL    HW1 5200   3.062   1.519   3.792
 1729SOL    HW2 5201   2.997   1.612   3.675
 1730SOL     OW 5202   2.778   0.910   4.015
 1730SOL    HW1 5203   2.841   0.948   3.947
 1730SOL    HW2 5204   2.818   0.827   4.054
 1731SOL     OW 5205   3.366   1.607   3.768
 1731SOL    HW1 5206   3.274   1.644   3.775
 1731SOL    HW2 5207   3.404   1.627   3.678
 1732SOL     OW 5208   2.452   1.487   4.215
 1732SOL    HW1 5209   2.494   1.429   4.145
 1732SOL    HW2 5210   2.408   1.566   4.171
 1733SOL     OW 5211   2.117   1.348   4.014
 1733SOL    HW1 5212   2.021   1.349   3.987
 1733SOL    HW2 5213   2.129   1.401   4.098
 1734SOL     OW 5214   1.937   0.345   3.757
 1734SOL    HW1 5215   1.845   0.317   3.728
 1734SOL    HW2 5216   1.968   0.422   3.701
 1735SOL     OW 5217   1.934   0.166   4.042
 1735SOL    HW1 5218   1.917   0.249   3.988
 1735SOL    HW2 5219   2.024   0.129   4.020
 1736SOL     OW 5220   3.045   1.335   3.843
 1736SOL    HW1 5221   2.946   1.324   3.845
 1736SOL    HW2 5222   3.079   1.350   3.936
 1737SOL     OW 5223   3.087   0.325   4.173
 1737SOL    HW1 5224   3.152   0.251   4.162
 1737SOL    HW2 5225   3.107   0.375   4.257
 1738SOL     OW 5226   2.456   0.745   4.376
 1738SOL    HW1 5227   2.506   0.830   4.357
 1738SOL    HW2 5228   2.368   0.747   4.328
 1739SOL     OW 5229   2.721   1.374   3.740
 1739SOL    HW1 5230   2.675   1.389   3.828
 1739SOL    HW2 5231   2.765   1.459   3.710
 1740SOL     OW 5232   2.523   1.790   4.677
 1740SOL    HW1 5233   2.477   1.878   4.664
 1740SOL    HW2 5234   2.622   1.802   4.670
 1741SOL     OW 5235   2.945   0.984   3.811
 1741SOL    HW1 5236   2.922   1.037   3.729
 1741SOL    HW2 5237   3.026   0.928   3.792
 1742SOL     OW 5238   1.941   1.240   4.377
 1742SOL    HW1 5239   1.940   1.193   4.465
 1742SOL    HW2 5240   2.023   1.212   4.326
 1743SOL     OW 5241   2.290   0.424   4.244
 1743SOL    HW1 5242   2.320   0.352   4.182
 1743SOL    HW2 5243   2.251   0.384   4.327
 1744SOL     OW 5244   2.674   1.586   4.411
 1744SOL    HW1 5245   2.706   1.596   4.317
 1744SOL    HW2 5246   2.595   1.524   4.413
 1745SOL     OW 5247   2.632   1.330   4.025
 1745SOL    HW1 5248   2.586   1.243   4.042
 1745SOL    HW2 5249   2.723   1.327   4.066
 1746SOL     OW 5250   3.214   0.052   3.892
 1746SOL    HW1 5251   3.249   0.011   3.808
 1746SOL    HW2 5252   3.124   0.014   3.912
 1747SOL     OW 5253   3.162   0.453   4.415
 1747SOL    HW1 5254   3.103   0.533   4.419
 1747SOL    HW2 5255   3.177   0.418   4.508
 1748SOL     OW 5256   1.901   1.077   4.024
 1748SOL    HW1 5257   2.000   1.066   4.015
 1748SOL    HW2 5258   1.861   0.991   4.056
 1749SOL     OW 5259   2.737   1.646   4.061
 1749SOL    HW1 5260   2.660   1.611   4.007
 1749SOL    HW2 5261   2.705   1.717   4.123
 1750SOL     OW 5262   2.092   2.490   0.113
 1750SOL    HW1 5263   1.999   2.488   0.150
 1750SOL    HW2 5264   2.093   2.451   0.021
 1751SOL     OW 5265   2.087   2.137   0.996
 1751SOL    HW1 5266   2.122   2.120   1.088
 1751SOL    HW2 5267   1.999   2.092   0.984
 1752SOL     OW 5268   1.881   2.230   0.647
 1752SOL    HW1 5269   1.799   2.273   0.686
 1752SOL    HW2 5270   1.853   2.157   0.584
 1753SOL     OW 5271   2.431   3.137   1.165
 1753SOL    HW1 5272   2.338   3.130   1.128
 1753SOL    HW2 5273   2.442   3.226   1.209
 1754SOL     OW 5274   3.417   3.373   0.703
 1754SOL    HW1 5275   3.360   3.357   0.784
 1754SOL    HW2 5276   3.358   3.383   0.623
 1755SOL     OW 5277   2.997   2.565   0.717
 1755SOL    HW1 5278   3.054   2.643   0.692
 1755SOL    HW2 5279   2.937   2.591   0.793
 1756SOL     OW 5280   3.617   2.469   0.231
 1756SOL    HW1 5281   3.605   2.456   0.132
 1756SOL    HW2 5282   3.587   2.388   0.280
 1757SOL     OW 5283   2.630   3.006   1.023
 1757SOL    HW1 5284   2.552   3.023   1.083
 1757SOL    HW2 5285   2.664   3.093   0.987
 1758SOL     OW 5286   2.712   2.660   1.823
 1758SOL    HW1 5287   2.708   2.736   1.888
 1758SOL    HW2 5288   2.734   2.696   1.732
 1759SOL     OW 5289   2.547   2.874   0.665
 1759SOL    HW1 5290   2.616   2.858   0.735
 1759SOL    HW2 5291   2.474   2.931   0.703
 1760SOL     OW 5292   2.548   3.023   1.803
 1760SOL    HW1 5293   2.608   3.102   1.817
 1760SOL    HW2 5294   2.462   3.054   1.762
 1761SOL     OW 5295   2.197   3.297   1.061
 1761SOL    HW1 5296   2.119   3.266   1.008
 1761SOL    HW2 5297   2.255   3.355   1.004
 1762SOL     OW 5298   3.322   3.367   1.339
 1762SOL    HW1 5299   3.346   3.461   1.365
 1762SOL    HW2 5300   3.306   3.313   1.421
 1763SOL     OW 5301   2.300   2.254   1.499
 1763SOL    HW1 5302   2.382   2.198   1.508
 1763SOL    HW2 5303   2.219   2.196   1.503
 1764SOL     OW 5304   3.465   2.309   0.737
 1764SOL    HW1 5305   3.391   2.355   0.687
 1764SOL    HW2 5306   3.516   2.377   0.790
 1765SOL     OW 5307   2.093   3.575   0.483
 1765SOL    HW1 5308   2.127   3.652   0.537
 1765SOL    HW2 5309   2.137   3.575   0.393
 1766SOL     OW 5310   2.989   3.203   1.690
 1766SOL    HW1 5311   3.036   3.203   1.778
 1766SOL    HW2 5312   2.941   3.116   1.679
 1767SOL     OW 5313   2.092   3.296   0.538
 1767SOL    HW1 5314   2.066   3.392   0.538
 1767SOL    HW2 5315   2.021   3.242   0.583
 1768SOL     OW 5316   2.102   2.953   0.886
 1768SOL    HW1 5317   2.116   2.869   0.938
 1768SOL    HW2 5318   2.047   3.017   0.941
 1769SOL     OW 5319   2.482   3.648   1.439
 1769SOL    HW1 5320   2.390   3.631   1.474
 1769SOL    HW2 5321   2.510   3.740   1.465
 1770SOL     OW 5322   2.468   2.826   0.123
 1770SOL    HW1 5323   2.475   2.910   0.069
 1770SOL    HW2 5324   2.514   2.839   0.211
 1771SOL     OW 5325   3.456   1.976   1.480
 1771SOL    HW1 5326   3.438   2.043   1.408
 1771SOL    HW2 5327   3.453   2.022   1.569
 1772SOL     OW 5328   1.984   2.505   0.563
 1772SOL    HW1 5329   1.939   2.417   0.580
 1772SOL    HW2 5330   1.983   2.559   0.647
 1773SOL     OW 5331   3.704   3.629   0.359
 1773SOL    HW1 5332   3.758   3.600   0.439
 1773SOL    HW2 5333   3.734   3.719   0.330
 1774SOL     OW 5334   1.889   3.458   0.117
 1774SOL    HW1 5335   1.870   3.362   0.138
 1774SOL    HW2 5336   1.856   3.516   0.192
 1775SOL     OW 5337   3.551   2.784   0.612
 1775SOL    HW1 5338   3.646   2.755   0.620
 1775SOL    HW2 5339   3.543   2.849   0.537
 1776SOL     OW 5340   3.503   2.970   0.432
 1776SOL    HW1 5341   3.589   2.972   0.380
 1776SOL    HW2 5342   3.517   3.017   0.520
 1777SOL     OW 5343   1.975   2.599   1.597
 1777SOL    HW1 5344   2.063   2.586   1.642
 1777SOL    HW2 5345   1.962   2.696   1.575
 1778SOL     OW 5346   2.475   3.227   0.726
 1778SOL    HW1 5347   2.426   3.140   0.735
 1778SOL    HW2 5348   2.452   3.270   0.639
 1779SOL     OW 5349   3.155   3.090   1.423
 1779SOL    HW1 5350   3.192   3.017   1.365
 1779SOL    HW2 5351   3.207   3.095   1.508
 1780SOL     OW 5352   2.671   1.866   0.502
 1780SOL    HW1 5353   2.711   1.957   0.493
 1780SOL    HW2 5354   2.571   1.874   0.508
 1781SOL     OW 5355   2.059   2.838   1.264
 1781SOL    HW1 5356   2.148   2.793   1.250
 1781SOL    HW2 5357   1.986   2.773   1.245
 1782SOL     OW 5358   3.387   2.861   0.190
 1782SOL    HW1 5359   3.324   2.785   0.203
 1782SOL    HW2 5360   3.435   2.879   0.276
 1783SOL     OW 5361   3.049   3.654   1.616
 1783SOL    HW1 5362   3.073   3.714   1.540
 1783SOL    HW2 5363   3.056   3.559   1.586
 1784SOL     OW 5364   2.179   2.113   1.801
 1784SOL    HW1 5365   2.250   2.184   1.807
 1784SOL    HW2 5366   2.091   2.152   1.829
 1785SOL     OW 5367   3.328   3.279   0.953
 1785SOL    HW1 5368   3.269   3.285   1.033
 1785SOL    HW2 5369   3.313   3.191   0.907
 1786SOL     OW 5370   3.529   3.576   0.572
 1786SOL    HW1 5371   3.488   3.553   0.484
 1786SOL    HW2 5372   3.511   3.502   0.637
 1787SOL     OW 5373   2.460   2.591   0.270
 1787SOL    HW1 5374   2.484   2.660   0.202
 1787SOL    HW2 5375   2.382   2.624   0.324
 1788SOL     OW 5376   3.143   2.207   0.944
 1788SOL    HW1 5377   3.057   2.157   0.931
 1788SOL    HW2 5378   3.205   2.153   1.000
 1789SOL     OW 5379   3.438   3.524   0.307
 1789SOL    HW1 5380   3.527   3.570   0.310
 1789SOL    HW2 5381   3.417   3.500   0.212
 1790SOL     OW 5382   2.669   2.467   1.465
 1790SOL    HW1 5383   2.622   2.464   1.554
 1790SOL    HW2 5384   2.618   2.412   1.399
 1791SOL     OW 5385   3.256   2.331   1.674
 1791SOL    HW1 5386   3.236   2.374   1.762
 1791SOL    HW2 5387   3.334   2.269   1.683
 1792SOL     OW 5388   2.835   2.752   1.572
 1792SOL    HW1 5389   2.881   2.668   1.543
 1792SOL    HW2 5390   2.779   2.786   1.497
 1793SOL     OW 5391   2.853   2.272   1.242
 1793SOL    HW1 5392   2.776   2.306   1.296
 1793SOL    HW2 5393   2.819   2.221   1.163
 1794SOL     OW 5394   2.903   2.563   0.429
 1794SOL    HW1 5395   2.929   2.559   0.525
 1794SOL    HW2 5396   2.818   2.512   0.415
 1795SOL     OW 5397   1.938   2.673   0.789
 1795SOL    HW1 5398   2.037   2.661   0.798
 1795SOL    HW2 5399   1.914   2.768   0.810
 1796SOL     OW 5400   1.992   3.683   1.571
 1796SOL    HW1 5401   1.982   3.668   1.670
 1796SOL    HW2 5402   1.906   3.719   1.535
 1797SOL     OW 5403   2.727   2.210   0.195
 1797SOL    HW1 5404   2.786   2.273   0.146
 1797SOL    HW2 5405   2.746   2.116   0.166
 1798SOL     OW 5406   3.581   2.447   1.831
 1798SOL    HW1 5407   3.555   2.536   1.795
 1798SOL    HW2 5408   3.579   2.379   1.758
 1799SOL     OW 5409   3.224   3.006   0.545
 1799SOL    HW1 5410   3.307   2.977   0.497
 1799SOL    HW2 5411   3.175   3.073   0.489
 1800SOL     OW 5412   2.412   2.058   0.885
 1800SOL    HW1 5413   2.407   2.053   0.985
 1800SOL    HW2 5414   2.414   2.154   0.856
 1801SOL     OW 5415   2.870   3.318   0.477
 1801SOL    HW1 5416   2.824   3.390   0.425
 1801SOL    HW2 5417   2.866   3.338   0.575
 1802SOL     OW 5418   2.213   3.663   0.853
 1802SOL    HW1 5419   2.263   3.577   0.859
 1802SOL    HW2 5420   2.278   3.740   0.850
 1803SOL     OW 5421   3.657   2.928   0.873
 1803SOL    HW1 5422   3.595   2.913   0.797
 1803SOL    HW2 5423   3.605   2.939   0.958
 1804SOL     OW 5424   3.089   3.412   1.506
 1804SOL    HW1 5425   3.095   3.335   1.570
 1804SOL    HW2 5426   3.037   3.386   1.426
 1805SOL     OW 5427   2.183   2.805   0.242
 1805SOL    HW1 5428   2.265   2.844   0.200
 1805SOL    HW2 5429   2.156   2.723   0.193
 1806SOL     OW 5430   3.320   2.597   0.728
 1806SOL    HW1 5431   3.315   2.532   0.803
 1806SOL    HW2 5432   3.400   2.656   0.741
 1807SOL     OW 5433   2.323   3.128   1.727
 1807SOL    HW1 5434   2.273   3.129   1.641
 1807SOL    HW2 5435   2.260   3.110   1.803
 1808SOL     OW 5436   2.973   3.638   0.237
 1808SOL    HW1 5437   2.913   3.576   0.287
 1808SOL    HW2 5438   3.004   3.594   0.152
 1809SOL     OW 5439   2.064   2.147   1.498
 1809SOL    HW1 5440   1.984   2.207   1.485
 1809SOL    HW2 5441   2.054   2.098   1.584
 1810SOL     OW 5442   3.494   3.239   0.081
 1810SOL    HW1 5443   3.462   3.333   0.071
 1810SOL    HW2 5444   3.418   3.176   0.069
 1811SOL     OW 5445   2.326   3.605   0.323
 1811SOL    HW1 5446   2.359   3.644   0.409
 1811SOL    HW2 5447   2.402   3.598   0.258
 1812SOL     OW 5448   3.262   1.969   0.426
 1812SOL    HW1 5449   3.238   1.932   0.336
 1812SOL    HW2 5450   3.361   1.985   0.430
 1813SOL     OW 5451   2.111   3.647   1.241
 1813SOL    HW1 5452   2.168   3.582   1.291
 1813SOL    HW2 5453   2.095   3.614   1.148
 1814SOL     OW 5454   2.802   3.560   0.904
 1814SOL    HW1 5455   2.882   3.503   0.925
 1814SOL    HW2 5456   2.753   3.520   0.827
 1815SOL     OW 5457   2.244   2.562   0.480
 1815SOL    HW1 5458   2.289   2.472   0.477
 1815SOL    HW2 5459   2.150   2.551   0.513
 1816SOL     OW 5460   3.409   2.084   1.729
 1816SOL    HW1 5461   3.404   2.121   1.821
 1816SOL    HW2 5462   3.337   2.015   1.717
 1817SOL     OW 5463   2.643   2.126   1.749
 1817SOL    HW1 5464   2.710   2.065   1.792
 1817SOL    HW2 5465   2.570   2.145   1.814
 1818SOL     OW 5466   2.750   3.376   1.195
 1818SOL    HW1 5467   2.727   3.351   1.101
 1818SOL    HW2 5468   2.811   3.307   1.234
 1819SOL     OW 5469   3.213   2.452   1.433
 1819SOL    HW1 5470   3.241   2.409   1.518
 1819SOL    HW2 5471   3.238   2.548   1.434
 1820SOL     OW 5472   2.665   3.264   0.924
 1820SOL    HW1 5473   2.755   3.278   0.882
 1820SOL    HW2 5474   2.594   3.266   0.853
 1821SOL     OW 5475   2.784   2.365   0.899
 1821SOL    HW1 5476   2.759   2.356   0.803
 1821SOL    HW2 5477   2.832   2.283   0.930
 1822SOL     OW 5478   2.401   1.926   0.512
 1822SOL    HW1 5479   2.320   1.927   0.570
 1822SOL    HW2 5480   2.404   2.009   0.457
 1823SOL     OW 5481   3.296   3.050   0.041
 1823SOL    HW1 5482   3.328   2.974   0.098
 1823SOL    HW2 5483   3.204   3.077   0.071
 1824SOL     OW 5484   2.797   2.098   0.480
 1824SOL    HW1 5485   2.749   2.139   0.402
 1824SOL    HW2 5486   2.896   2.096   0.461
 1825SOL     OW 5487   2.938   2.545   1.464
 1825SOL    HW1 5488   2.858   2.484   1.467
 1825SOL    HW2 5489   3.019   2.492   1.440
 1826SOL     OW 5490   3.089   3.432   0.793
 1826SOL    HW1 5491   3.110   3.506   0.728
 1826SOL    HW2 5492   3.157   3.432   0.866
 1827SOL     OW 5493   2.321   3.014   0.741
 1827SOL    HW1 5494   2.250   2.987   0.806
 1827SOL    HW2 5495   2.295   2.986   0.648
 1828SOL     OW 5496   3.133   3.659   0.591
 1828SOL    HW1 5497   3.177   3.723   0.527
 1828SOL    HW2 5498   3.083   3.711   0.661
 1829SOL     OW 5499   2.894   2.411   0.016
 1829SOL    HW1 5500   2.853   2.493  -0.023
 1829SOL    HW2 5501   2.958   2.437   0.089
 1830SOL     OW 5502   1.940   2.418   1.386
 1830SOL    HW1 5503   2.032   2.417   1.345
 1830SOL    HW2 5504   1.934   2.492   1.453
 1831SOL     OW 5505   2.423   2.084   1.147
 1831SOL    HW1 5506   2.461   2.000   1.184
 1831SOL    HW2 5507   2.335   2.103   1.191
 1832SOL     OW 5508   2.728   2.316   0.642
 1832SOL    HW1 5509   2.696   2.388   0.580
 1832SOL    HW2 5510   2.752   2.235   0.589
 1833SOL     OW 5511   2.879   1.901   0.753
 1833SOL    HW1 5512   2.807   1.906   0.684
 1833SOL    HW2 5513   2.855   1.832   0.822
 1834SOL     OW 5514   3.291   3.035   0.867
 1834SOL    HW1 5515   3.236   2.951   0.860
 1834SOL    HW2 5516   3.317   3.064   0.775
 1835SOL     OW 5517   3.328   2.452   0.992
 1835SOL    HW1 5518   3.298   2.357   0.999
 1835SOL    HW2 5519   3.401   2.468   1.058
 1836SOL     OW 5520   3.719   2.695   0.377
 1836SOL    HW1 5521   3.761   2.631   0.441
 1836SOL    HW2 5522   3.681   2.644   0.299
 1837SOL     OW 5523   2.350   3.247   0.174
 1837SOL    HW1 5524   2.263   3.232   0.221
 1837SOL    HW2 5525   2.333   3.273   0.079
 1838SOL     OW 5526   3.526   3.142   0.657
 1838SOL    HW1 5527   3.625   3.150   0.671
 1838SOL    HW2 5528   3.481   3.226   0.688
 1839SOL     OW 5529   3.252   2.437   0.078
 1839SOL    HW1 5530   3.198   2.416   0.159
 1839SOL    HW2 5531   3.343   2.396   0.087
 1840SOL     OW 5532   2.389   2.118   0.328
 1840SOL    HW1 5533   2.416   2.059   0.253
 1840SOL    HW2 5534   2.389   2.213   0.297
 1841SOL     OW 5535   3.616   3.085   1.588
 1841SOL    HW1 5536   3.707   3.046   1.575
 1841SOL    HW2 5537   3.624   3.181   1.612
 1842SOL     OW 5538   2.926   3.209   1.340
 1842SOL    HW1 5539   2.846   3.186   1.395
 1842SOL    HW2 5540   3.009   3.183   1.389
 1843SOL     OW 5541   3.454   3.491   1.625
 1843SOL    HW1 5542   3.481   3.525   1.535
 1843SOL    HW2 5543   3.533   3.453   1.671
 1844SOL     OW 5544   2.973   3.057   1.100
 1844SOL    HW1 5545   2.933   3.101   1.181
 1844SOL    HW2 5546   2.932   3.094   1.017
 1845SOL     OW 5547   3.500   2.961   1.079
 1845SOL    HW1 5548   3.505   3.042   1.138
 1845SOL    HW2 5549   3.414   2.963   1.028
 1846SOL     OW 5550   2.777   1.951   1.402
 1846SOL    HW1 5551   2.802   1.931   1.307
 1846SOL    HW2 5552   2.849   2.007   1.444
 1847SOL     OW 5553   2.842   2.978   1.719
 1847SOL    HW1 5554   2.743   2.984   1.729
 1847SOL    HW2 5555   2.865   2.898   1.663
 1848SOL     OW 5556   2.567   2.912   0.368
 1848SOL    HW1 5557   2.553   2.919   0.467
 1848SOL    HW2 5558   2.651   2.861   0.350
 1849SOL     OW 5559   2.272   2.675   1.251
 1849SOL    HW1 5560   2.358   2.687   1.301
 1849SOL    HW2 5561   2.230   2.588   1.278
 1850SOL     OW 5562   3.136   2.248   1.262
 1850SOL    HW1 5563   3.157   2.322   1.326
 1850SOL    HW2 5564   3.047   2.265   1.219
 1851SOL     OW 5565   1.926   3.426   1.331
 1851SOL    HW1 5566   1.880   3.508   1.297
 1851SOL    HW2 5567   2.024   3.445   1.340
 1852SOL     OW 5568   2.229   2.962   0.501
 1852SOL    HW1 5569   2.222   3.045   0.445
 1852SOL    HW2 5570   2.233   2.882   0.441
 1853SOL     OW 5571   2.428   2.399   0.865
 1853SOL    HW1 5572   2.440   2.465   0.791
 1853SOL    HW2 5573   2.474   2.433   0.948
 1854SOL     OW 5574   3.114   3.210   0.388
 1854SOL    HW1 5575   3.164   3.287   0.428
 1854SOL    HW2 5576   3.019   3.212   0.420
 1855SOL     OW 5577   3.134   3.307   1.142
 1855SOL    HW1 5578   3.181   3.320   1.229
 1855SOL    HW2 5579   3.068   3.233   1.151
 1856SOL     OW 5580   3.444   2.501   0.472
 1856SOL    HW1 5581   3.413   2.562   0.545
 1856SOL    HW2 5582   3.494   2.553   0.403
 1857SOL     OW 5583   2.216   3.372   1.329
 1857SOL    HW1 5584   2.195   3.328   1.242
 1857SOL    HW2 5585   2.313   3.398   1.332
 1858SOL     OW 5586   2.264   2.613   1.598
 1858SOL    HW1 5587   2.332   2.668   1.551
 1858SOL    HW2 5588   2.304   2.525   1.625
 1859SOL     OW 5589   3.449   2.641   1.670
 1859SOL    HW1 5590   3.357   2.679   1.665
 1859SOL    HW2 5591   3.509   2.688   1.605
 1860SOL     OW 5592   2.875   1.967   1.770
 1860SOL    HW1 5593   2.881   2.052   1.718
 1860SOL    HW2 5594   2.907   1.891   1.713
 1861SOL     OW 5595   2.366   1.912   1.740
 1861SOL    HW1 5596   2.324   1.855   1.670
 1861SOL    HW2 5597   2.300   1.981   1.772
 1862SOL     OW 5598   2.435   2.732   1.029
 1862SOL    HW1 5599   2.479   2.821   1.020
 1862SOL    HW2 5600   2.372   2.732   1.106
 1863SOL     OW 5601   3.222   2.724   1.045
 1863SOL    HW1 5602   3.147   2.724   0.979
 1863SOL    HW2 5603   3.259   2.632   1.054
 1864SOL     OW 5604   3.071   2.387   0.275
 1864SOL    HW1 5605   3.084   2.303   0.329
 1864SOL    HW2 5606   3.042   2.461   0.335
 1865SOL     OW 5607   2.169   2.075   1.231
 1865SOL    HW1 5608   2.146   2.112   1.321
 1865SOL    HW2 5609   2.139   1.980   1.225
 1866SOL     OW 5610   1.899   3.172   1.282
 1866SOL    HW1 5611   1.952   3.123   1.350
 1866SOL    HW2 5612   1.921   3.270   1.287
 1867SOL     OW 5613   2.594   2.496   1.064
 1867SOL    HW1 5614   2.653   2.470   0.988
 1867SOL    HW2 5615   2.566   2.592   1.053
 1868SOL     OW 5616   3.590   2.797   1.854
 1868SOL    HW1 5617   3.544   2.790   1.765
 1868SOL    HW2 5618   3.528   2.841   1.920
 1869SOL     OW 5619   2.169   1.925   0.618
 1869SOL    HW1 5620   2.158   2.019   0.651
 1869SOL    HW2 5621   2.164   1.862   0.695
 1870SOL     OW 5622   3.484   2.229   0.374
 1870SOL    HW1 5623   3.486   2.153   0.438
 1870SOL    HW2 5624   3.436   2.306   0.414
 1871SOL     OW 5625   2.885   2.628   0.966
 1871SOL    HW1 5626   2.900   2.649   1.062
 1871SOL    HW2 5627   2.855   2.533   0.957
 1872SOL     OW 5628   2.842   3.435   1.700
 1872SOL    HW1 5629   2.822   3.479   1.612
 1872SOL    HW2 5630   2.881   3.344   1.684
 1873SOL     OW 5631   3.721   3.380   1.605
 1873SOL    HW1 5632   3.735   3.407   1.510
 1873SOL    HW2 5633   3.804   3.402   1.658
 1874SOL     OW 5634   2.212   2.760   1.804
 1874SOL    HW1 5635   2.288   2.804   1.852
 1874SOL    HW2 5636   2.247   2.713   1.722
 1875SOL     OW 5637   3.402   2.136   0.125
 1875SOL    HW1 5638   3.341   2.061   0.148
 1875SOL    HW2 5639   3.424   2.188   0.208
 1876SOL     OW 5640   3.165   2.700   0.042
 1876SOL    HW1 5641   3.199   2.607   0.057
 1876SOL    HW2 5642   3.183   2.727  -0.053
 1877SOL     OW 5643   2.930   3.195   0.849
 1877SOL    HW1 5644   2.937   3.111   0.794
 1877SOL    HW2 5645   2.992   3.264   0.813
 1878SOL     OW 5646   2.181   2.672   0.949
 1878SOL    HW1 5647   2.274   2.708   0.954
 1878SOL    HW2 5648   2.175   2.587   1.001
 1879SOL     OW 5649   2.201   2.371   1.006
 1879SOL    HW1 5650   2.149   2.288   0.989
 1879SOL    HW2 5651   2.278   2.376   0.942
 1880SOL     OW 5652   3.000   2.242   1.678
 1880SOL    HW1 5653   2.955   2.305   1.742
 1880SOL    HW2 5654   3.093   2.273   1.661
 1881SOL     OW 5655   3.022   2.069   1.477
 1881SOL    HW1 5656   3.022   2.133   1.554
 1881SOL    HW2 5657   3.050   2.117   1.394
 1882SOL     OW 5658   1.870   3.188   0.200
 1882SOL    HW1 5659   1.777   3.209   0.169
 1882SOL    HW2 5660   1.880   3.089   0.213
 1883SOL     OW 5661   1.950   3.663   0.927
 1883SOL    HW1 5662   1.908   3.577   0.900
 1883SOL    HW2 5663   2.044   3.666   0.893
 1884SOL     OW 5664   2.366   3.430   0.910
 1884SOL    HW1 5665   2.432   3.504   0.919
 1884SOL    HW2 5666   2.410   3.351   0.868
 1885SOL     OW 5667   2.864   2.658   1.238
 1885SOL    HW1 5668   2.905   2.626   1.324
 1885SOL    HW2 5669   2.768   2.631   1.235
 1886SOL     OW 5670   1.902   2.406   1.114
 1886SOL    HW1 5671   1.987   2.373   1.073
 1886SOL    HW2 5672   1.915   2.421   1.212
 1887SOL     OW 5673   2.051   2.382   1.722
 1887SOL    HW1 5674   2.110   2.342   1.652
 1887SOL    HW2 5675   1.993   2.453   1.681
 1888SOL     OW 5676   3.231   2.812   1.660
 1888SOL    HW1 5677   3.270   2.901   1.680
 1888SOL    HW2 5678   3.241   2.792   1.563
 1889SOL     OW 5679   2.677   2.434   0.325
 1889SOL    HW1 5680   2.684   2.345   0.279
 1889SOL    HW2 5681   2.583   2.468   0.317
 1890SOL     OW 5682   3.519   2.466   1.206
 1890SOL    HW1 5683   3.481   2.397   1.268
 1890SOL    HW2 5684   3.601   2.430   1.162
 1891SOL     OW 5685   2.114   3.426   1.744
 1891SOL    HW1 5686   2.084   3.483   1.820
 1891SOL    HW2 5687   2.107   3.329   1.770
 1892SOL     OW 5688   2.533   2.326   1.269
 1892SOL    HW1 5689   2.499   2.237   1.239
 1892SOL    HW2 5690   2.559   2.380   1.189
 1893SOL     OW 5691   2.792   3.540   1.465
 1893SOL    HW1 5692   2.768   3.522   1.370
 1893SOL    HW2 5693   2.822   3.634   1.475
 1894SOL     OW 5694   2.335   2.362   0.191
 1894SOL    HW1 5695   2.396   2.442   0.195
 1894SOL    HW2 5696   2.240   2.393   0.198
 1895SOL     OW 5697   2.021   2.999   1.466
 1895SOL    HW1 5698   2.043   2.938   1.542
 1895SOL    HW2 5699   2.031   2.950   1.380
 1896SOL     OW 5700   3.209   2.921   1.234
 1896SOL    HW1 5701   3.233   2.858   1.160
 1896SOL    HW2 5702   3.119   2.961   1.216
 1897SOL     OW 5703   3.164   2.717   0.309
 1897SOL    HW1 5704   3.078   2.686   0.351
 1897SOL    HW2 5705   3.160   2.703   0.210
 1898SOL     OW 5706   3.621   3.609   1.154
 1898SOL    HW1 5707   3.682   3.639   1.081
 1898SOL    HW2 5708   3.583   3.520   1.132
 1899SOL     OW 5709   3.114   3.593   1.128
 1899SOL    HW1 5710   3.198   3.598   1.074
 1899SOL    HW2 5711   3.091   3.497   1.146
 1900SOL     OW 5712   1.945   3.120   1.022
 1900SOL    HW1 5713   1.940   3.119   1.122
 1900SOL    HW2 5714   1.862   3.079   0.984
 1901SOL     OW 5715   2.550   3.524   1.716
 1901SOL    HW1 5716   2.494   3.605   1.725
 1901SOL    HW2 5717   2.602   3.528   1.630
 1902SOL     OW 5718   2.765   1.948   0.133
 1902SOL    HW1 5719   2.816   1.949   0.047
 1902SOL    HW2 5720   2.821   1.906   0.204
 1903SOL     OW 5721   3.588   1.997   0.523
 1903SOL    HW1 5722   3.661   1.980   0.456
 1903SOL    HW2 5723   3.557   1.910   0.561
 1904SOL     OW 5724   3.250   3.435   0.477
 1904SOL    HW1 5725   3.317   3.447   0.403
 1904SOL    HW2 5726   3.210   3.524   0.500
 1905SOL     OW 5727   1.992   3.656   1.851
 1905SOL    HW1 5728   1.951   3.582   1.904
 1905SOL    HW2 5729   2.056   3.707   1.909
 1906SOL     OW 5730   3.142   2.789   0.672
 1906SOL    HW1 5731   3.202   2.708   0.674
 1906SOL    HW2 5732   3.182   2.858   0.612
 1907SOL     OW 5733   2.692   3.135   1.422
 1907SOL    HW1 5734   2.687   3.168   1.517
 1907SOL    HW2 5735   2.606   3.154   1.376
 1908SOL     OW 5736   2.534   3.478   0.154
 1908SOL    HW1 5737   2.543   3.488   0.055
 1908SOL    HW2 5738   2.494   3.389   0.175
 1909SOL     OW 5739   3.512   3.582   1.394
 1909SOL    HW1 5740   3.565   3.592   1.310
 1909SOL    HW2 5741   3.485   3.672   1.428
 1910SOL     OW 5742   3.703   2.037   0.963
 1910SOL    HW1 5743   3.742   1.952   0.927
 1910SOL    HW2 5744   3.605   2.039   0.944
 1911SOL     OW 5745   2.125   2.188   0.720
 1911SOL    HW1 5746   2.046   2.239   0.686
 1911SOL    HW2 5747   2.116   2.173   0.818
 1912SOL     OW 5748   3.056   3.474   0.031
 1912SOL    HW1 5749   3.062   3.381   0.068
 1912SOL    HW2 5750   2.997   3.474  -0.049
 1913SOL     OW 5751   2.684   2.864   1.372
 1913SOL    HW1 5752   2.724   2.863   1.280
 1913SOL    HW2 5753   2.694   2.956   1.412
 1914SOL     OW 5754   2.778   2.772   0.291
 1914SOL    HW1 5755   2.841   2.810   0.223
 1914SOL    HW2 5756   2.818   2.689   0.330
 1915SOL     OW 5757   3.366   3.469   0.044
 1915SOL    HW1 5758   3.274   3.506   0.051
 1915SOL    HW2 5759   3.404   3.489  -0.046
 1916SOL     OW 5760   2.234   3.150   1.490
 1916SOL    HW1 5761   2.221   3.243   1.456
 1916SOL    HW2 5762   2.150   3.098   1.477
 1917SOL     OW 5763   3.476   3.154   1.289
 1917SOL    HW1 5764   3.536   3.157   1.369
 1917SOL    HW2 5765   3.401   3.218   1.302
 1918SOL     OW 5766   2.901   2.960   0.696
 1918SOL    HW1 5767   2.831   2.913   0.750
 1918SOL    HW2 5768   2.960   2.892   0.653
 1919SOL     OW 5769   2.876   2.098   0.971
 1919SOL    HW1 5770   2.868   2.062   0.878
 1919SOL    HW2 5771   2.874   2.022   1.036
 1920SOL     OW 5772   2.452   3.349   0.491
 1920SOL    HW1 5773   2.494   3.291   0.421
 1920SOL    HW2 5774   2.408   3.428   0.447
 1921SOL     OW 5775   3.571   2.247   1.381
 1921SOL    HW1 5776   3.644   2.316   1.385
 1921SOL    HW2 5777   3.599   2.172   1.322
 1922SOL     OW 5778   2.117   3.210   0.290
 1922SOL    HW1 5779   2.021   3.211   0.263
 1922SOL    HW2 5780   2.129   3.263   0.374
 1923SOL     OW 5781   1.967   2.875   1.726
 1923SOL    HW1 5782   1.890   2.842   1.780
 1923SOL    HW2 5783   2.052   2.845   1.768
 1924SOL     OW 5784   2.534   2.065   1.489
 1924SOL    HW1 5785   2.624   2.049   1.449
 1924SOL    HW2 5786   2.542   2.070   1.588
 1925SOL     OW 5787   1.937   2.207   0.033
 1925SOL    HW1 5788   1.845   2.179   0.004
 1925SOL    HW2 5789   1.968   2.284  -0.023
 1926SOL     OW 5790   3.302   2.718   1.398
 1926SOL    HW1 5791   3.245   2.770   1.335
 1926SOL    HW2 5792   3.398   2.730   1.374
 1927SOL     OW 5793   3.045   3.197   0.119
 1927SOL    HW1 5794   2.946   3.186   0.121
 1927SOL    HW2 5795   3.079   3.212   0.212
 1928SOL     OW 5796   2.475   2.704   1.431
 1928SOL    HW1 5797   2.531   2.785   1.414
 1928SOL    HW2 5798   2.534   2.624   1.434
 1929SOL     OW 5799   3.355   3.629   0.959
 1929SOL    HW1 5800   3.388   3.693   0.890
 1929SOL    HW2 5801   3.421   3.623   1.034
 1930SOL     OW 5802   2.578   2.427   1.708
 1930SOL    HW1 5803   2.597   2.492   1.782
 1930SOL    HW2 5804   2.638   2.347   1.717
 1931SOL     OW 5805   3.312   3.082   1.633
 1931SOL    HW1 5806   3.303   3.072   1.732
 1931SOL    HW2 5807   3.408   3.075   1.607
 1932SOL     OW 5808   2.252   3.603   1.560
 1932SOL    HW1 5809   2.161   3.644   1.558
 1932SOL    HW2 5810   2.245   3.509   1.592
 1933SOL     OW 5811   3.536   2.745   1.254
 1933SOL    HW1 5812   3.509   2.656   1.217
 1933SOL    HW2 5813   3.537   2.813   1.181
 1934SOL     OW 5814   3.087   2.187   0.449
 1934SOL    HW1 5815   3.152   2.113   0.438
 1934SOL    HW2 5816   3.107   2.237   0.533
 1935SOL     OW 5817   2.456   2.607   0.652
 1935SOL    HW1 5818   2.506   2.692   0.633
 1935SOL    HW2 5819   2.368   2.609   0.604
 1936SOL     OW 5820   3.639   2.204   1.642
 1936SOL    HW1 5821   3.622   2.235   1.548
 1936SOL    HW2 5822   3.555   2.167   1.680
 1937SOL     OW 5823   3.592   2.796   1.517
 1937SOL    HW1 5824   3.630   2.887   1.532
 1937SOL    HW2 5825   3.584   2.779   1.418
 1938SOL     OW 5826   2.721   3.236   0.016
 1938SOL    HW1 5827   2.675   3.251   0.104
 1938SOL    HW2 5828   2.765   3.321  -0.014
 1939SOL     OW 5829   2.523   3.652   0.953
 1939SOL    HW1 5830   2.477   3.740   0.940
 1939SOL    HW2 5831   2.622   3.664   0.946
 1940SOL     OW 5832   2.721   2.818   0.861
 1940SOL    HW1 5833   2.775   2.749   0.909
 1940SOL    HW2 5834   2.689   2.887   0.927
 1941SOL     OW 5835   2.945   2.846   0.087
 1941SOL    HW1 5836   2.922   2.899   0.005
 1941SOL    HW2 5837   3.026   2.790   0.068
 1942SOL     OW 5838   3.723   3.431   0.851
 1942SOL    HW1 5839   3.652   3.419   0.781
 1942SOL    HW2 5840   3.724   3.352   0.911
 1943SOL     OW 5841   2.083   3.176   1.844
 1943SOL    HW1 5842   2.018   3.103   1.823
 1943SOL    HW2 5843   2.087   3.190   1.942
 1944SOL     OW 5844   1.941   3.102   0.653
 1944SOL    HW1 5845   1.940   3.055   0.741
 1944SOL    HW2 5846   2.023   3.074   0.602
 1945SOL     OW 5847   2.534   3.253   1.624
 1945SOL    HW1 5848   2.456   3.203   1.662
 1945SOL    HW2 5849   2.531   3.348   1.655
 1946SOL     OW 5850   3.686   2.054   1.227
 1946SOL    HW1 5851   3.682   1.964   1.271
 1946SOL    HW2 5852   3.689   2.043   1.128
 1947SOL     OW 5853   2.290   2.286   0.520
 1947SOL    HW1 5854   2.320   2.214   0.458
 1947SOL    HW2 5855   2.251   2.246   0.603
 1948SOL     OW 5856   3.567   3.349   1.104
 1948SOL    HW1 5857   3.474   3.324   1.077
 1948SOL    HW2 5858   3.593   3.299   1.186
 1949SOL     OW 5859   2.179   2.409   1.280
 1949SOL    HW1 5860   2.217   2.350   1.352
 1949SOL    HW2 5861   2.219   2.383   1.192
 1950SOL     OW 5862   2.674   3.448   0.687
 1950SOL    HW1 5863   2.706   3.458   0.593
 1950SOL    HW2 5864   2.595   3.386   0.689
 1951SOL     OW 5865   3.286   2.076   1.112
 1951SOL    HW1 5866   3.338   2.011   1.167
 1951SOL    HW2 5867   3.237   2.139   1.173
 1952SOL     OW 5868   2.863   1.896   1.154
 1952SOL    HW1 5869   2.800   1.824   1.123
 1952SOL    HW2 5870   2.956   1.860   1.154
 1953SOL     OW 5871   2.632   3.192   0.301
 1953SOL    HW1 5872   2.586   3.105   0.318
 1953SOL    HW2 5873   2.723   3.189   0.342
 1954SOL     OW 5874   2.480   3.429   1.284
 1954SOL    HW1 5875   2.475   3.511   1.341
 1954SOL    HW2 5876   2.569   3.426   1.239
 1955SOL     OW 5877   3.214   1.914   0.168
 1955SOL    HW1 5878   3.249   1.873   0.084
 1955SOL    HW2 5879   3.124   1.876   0.188
 1956SOL     OW 5880   3.162   2.315   0.691
 1956SOL    HW1 5881   3.103   2.395   0.695
 1956SOL    HW2 5882   3.177   2.280   0.784
 1957SOL     OW 5883   3.455   2.083   0.882
 1957SOL    HW1 5884   3.371   2.082   0.936
 1957SOL    HW2 5885   3.457   2.166   0.826
 1958SOL     OW 5886   1.901   2.939   0.300
 1958SOL    HW1 5887   2.000   2.928   0.291
 1958SOL    HW2 5888   1.861   2.853   0.332
 1959SOL     OW 5889   2.737   3.508   0.337
 1959SOL    HW1 5890   2.660   3.473   0.283
 1959SOL    HW2 5891   2.705   3.579   0.399
 1960SOL     OW 5892   2.092   2.490   1.975
 1960SOL    HW1 5893   1.999   2.488   2.012
 1960SOL    HW2 5894   2.093   2.451   1.883
 1961SOL     OW 5895   2.087   2.137   2.858
 1961SOL    HW1 5896   2.122   2.120   2.950
 1961SOL    HW2 5897   1.999   2.092   2.846
 1962SOL     OW 5898   1.881   2.230   2.509
 1962SOL    HW1 5899   1.799   2.273   2.548
 1962SOL    HW2 5900   1.853   2.157   2.446
 1963SOL     OW 5901   2.431   3.137   3.027
 1963SOL    HW1 5902   2.338   3.130   2.990
 1963SOL    HW2 5903   2.442   3.226   3.071
 1964SOL     OW 5904   3.417   3.373   2.565
 1964SOL    HW1 5905   3.360   3.357   2.646
 1964SOL    HW2 5906   3.358   3.383   2.485
 1965SOL     OW 5907   2.997   2.565   2.579
 1965SOL    HW1 5908   3.054   2.643   2.554
 1965SOL    HW2 5909   2.937   2.591   2.655
 1966SOL     OW 5910   3.617   2.469   2.093
 1966SOL    HW1 5911   3.605   2.456   1.994
 1966SOL    HW2 5912   3.587   2.388   2.142
 1967SOL     OW 5913   2.630   3.006   2.885
 1967SOL    HW1 5914   2.552   3.023   2.945
 1967SOL    HW2 5915   2.664   3.093   2.849
 1968SOL     OW 5916   2.712   2.660   3.685
 1968SOL    HW1 5917   2.708   2.736   3.750
 1968SOL    HW2 5918   2.734   2.696   3.594
 1969SOL     OW 5919   2.547   2.874   2.527
 1969SOL    HW1 5920   2.616   2.858   2.597
 1969SOL    HW2 5921   2.474   2.931   2.565
 1970SOL     OW 5922   2.548   3.023   3.665
 1970SOL    HW1 5923   2.608   3.102   3.679
 1970SOL    HW2 5924   2.462   3.054   3.624
 1971SOL     OW 5925   2.197   3.297   2.923
 1971SOL    HW1 5926   2.119   3.266   2.870
 1971SOL    HW2 5927   2.255   3.355   2.866
 1972SOL     OW 5928   3.322   3.367   3.201
 1972SOL    HW1 5929   3.346   3.461   3.227
 1972SOL    HW2 5930   3.306   3.313   3.283
 1973SOL     OW 5931   2.300   2.254   3.361
 1973SOL    HW1 5932   2.382   2.198   3.370
 1973SOL    HW2 5933   2.219   2.196   3.365
 1974SOL     OW 5934   3.465   2.309   2.599
 1974SOL    HW1 5935   3.391   2.355   2.549
 1974SOL    HW2 5936   3.516   2.377   2.652
 1975SOL     OW 5937   2.093   3.575   2.345
 1975SOL    HW1 5938   2.127   3.652   2.399
 1975SOL    HW2 5939   2.137   3.575   2.255
 1976SOL     OW 5940   2.989   3.203   3.552
 1976SOL    HW1 5941   3.036   3.203   3.640
 1976SOL    HW2 5942   2.941   3.116   3.541
 1977SOL     OW 5943   2.092   3.296   2.400
 1977SOL    HW1 5944   2.066   3.392   2.400
 1977SOL    HW2 5945   2.021   3.242   2.445
 1978SOL     OW 5946   2.102   2.953   2.748
 1978SOL    HW1 5947   2.116   2.869   2.800
 1978SOL    HW2 5948   2.047   3.017   2.803
 1979SOL     OW 5949   2.482   3.648   3.301
 1979SOL    HW1 5950   2.390   3.631   3.336
 1979SOL    HW2 5951   2.510   3.740   3.327
 1980SOL     OW 5952   2.468   2.826   1.985
 1980SOL    HW1 5953   2.475   2.910   1.931
 1980SOL    HW2 5954   2.514   2.839   2.073
 1981SOL     OW 5955   3.456   1.976   3.342
 1981SOL    HW1 5956   3.438   2.043   3.270
 1981SOL    HW2 5957   3.453   2.022   3.431
 1982SOL     OW 5958   1.984   2.505   2.425
 1982SOL    HW1 5959   1.939   2.417   2.442
 1982SOL    HW2 5960   1.983   2.559   2.509
 1983SOL     OW 5961   3.704   3.629   2.221
 1983SOL    HW1 5962   3.758   3.600   2.301
 1983SOL    HW2 5963   3.734   3.719   2.192
 1984SOL     OW 5964   1.889   3.458   1.979
 1984SOL    HW1 5965   1.870   3.362   2.000
 1984SOL    HW2 5966   1.856   3.516   2.054
 1985SOL     OW 5967   3.551   2.784   2.474
 1985SOL    HW1 5968   3.646   2.755   2.482
 1985SOL    HW2 5969   3.543   2.849   2.399
 1986SOL     OW 5970   3.503   2.970   2.294
 1986SOL    HW1 5971   3.589   2.972   2.242
 1986SOL    HW2 5972   3.517   3.017   2.382
 1987SOL     OW 5973   1.975   2.599   3.459
 1987SOL    HW1 5974   2.063   2.586   3.504
 1987SOL    HW2 5975   1.962   2.696   3.437
 1988SOL     OW 5976   2.475   3.227   2.588
 1988SOL    HW1 5977   2.426   3.140   2.597
 1988SOL    HW2 5978   2.452   3.270   2.501
 1989SOL     OW 5979   3.155   3.090   3.285
 1989SOL    HW1 5980   3.192   3.017   3.227
 1989SOL    HW2 5981   3.207   3.095   3.370
 1990SOL     OW 5982   2.671   1.866   2.364
 1990SOL    HW1 5983   2.711   1.957   2.355
 1990SOL    HW2 5984   2.571   1.874   2.370
 1991SOL     OW 5985   2.059   2.838   3.126
 1991SOL    HW1 5986   2.148   2.793   3.112
 1991SOL    HW2 5987   1.986   2.773   3.107
 1992SOL     OW 5988   3.387   2.861   2.052
 1992SOL    HW1 5989   3.324   2.785   2.065
 1992SOL    HW2 5990   3.435   2.879   2.138
 1993SOL     OW 5991   3.049   3.654   3.478
 1993SOL    HW1 5992   3.073   3.714   3.402
 1993SOL    HW2 5993   3.056   3.559   3.448
 1994SOL     OW 5994   2.179   2.113   3.663
 1994SOL    HW1 5995   2.250   2.184   3.669
 1994SOL    HW2 5996   2.091   2.152   3.691
 1995SOL     OW 5997   3.328   3.279   2.815
 1995SOL    HW1 5998   3.269   3.285   2.895
 1995SOL    HW2 5999   3.313   3.191   2.769
 1996SOL     OW 6000   3.529   3.576   2.434
 1996SOL    HW1 6001   3.488   3.553   2.346
 1996SOL    HW2 6002   3.511   3.502   2.499
 1997SOL     OW 6003   2.460   2.591   2.132
 1997SOL    HW1 6004   2.484   2.660   2.064
 1997SOL    HW2 6005   2.382   2.624   2.186
 1998SOL     OW 6006   3.143   2.207   2.806
 1998SOL    HW1 6007   3.057   2.157   2.793
 1998SOL    HW2 6008   3.205   2.153   2.862
 1999SOL     OW 6009   3.438   3.524   2.169
 1999SOL    HW1 6010   3.527   3.570   2.172
 1999SOL    HW2 6011   3.417   3.500   2.074
 2000SOL     OW 6012   2.669   2.467   3.327
 2000SOL    HW1 6013   2.622   2.464   3.416
 2000SOL    HW2 6014   2.618   2.412   3.261
 2001SOL     OW 6015   3.256   2.331   3.536
 2001SOL    HW1 6016   3.236   2.374   3.624
 2001SOL    HW2 6017   3.334   2.269   3.545
 2002SOL     OW 6018   2.835   2.752   3.434
 2002SOL    HW1 6019   2.881   2.668   3.405
 2002SOL    HW2 6020   2.779   2.786   3.359
 2003SOL     OW 6021   2.853   2.272   3.104
 2003SOL    HW1 6022   2.776   2.306   3.158
 2003SOL    HW2 6023   2.819   2.221   3.025
 2004SOL     OW 6024   2.903   2.563   2.291
 2004SOL    HW1 6025   2.929   2.559   2.387
 2004SOL    HW2 6026   2.818   2.512   2.277
 2005SOL     OW 6027   1.938   2.673   2.651
 2005SOL    HW1 6028   2.037   2.661   2.660
 2005SOL    HW2 6029   1.914   2.768   2.672
 2006SOL     OW 6030   1.992   3.683   3.433
 2006SOL    HW1 6031   1.982   3.668   3.532
 2006SOL    HW2 6032   1.906   3.719   3.397
 2007SOL     OW 6033   2.727   2.210   2.057
 2007SOL    HW1 6034   2.786   2.273   2.008
 2007SOL    HW2 6035   2.746   2.116   2.028
 2008SOL     OW 6036   3.581   2.447   3.693
 2008SOL    HW1 6037   3.555   2.536   3.657
 2008SOL    HW2 6038   3.579   2.379   3.620
 2009SOL     OW 6039   3.224   3.006   2.407
 2009SOL    HW1 6040   3.307   2.977   2.359
 2009SOL    HW2 6041   3.175   3.073   2.351
 2010SOL     OW 6042   2.412   2.058   2.747
 2010SOL    HW1 6043   2.407   2.053   2.847
 2010SOL    HW2 6044   2.414   2.154   2.718
 2011SOL     OW 6045   2.870   3.318   2.339
 2011SOL    HW1 6046   2.824   3.390   2.287
 2011SOL    HW2 6047   2.866   3.338   2.437
 2012SOL     OW 6048   2.213   3.663   2.715
 2012SOL    HW1 6049   2.263   3.577   2.721
 2012SOL    HW2 6050   2.278   3.740   2.712
 2013SOL     OW 6051   3.657   2.928   2.735
 2013SOL    HW1 6052   3.595   2.913   2.659
 2013SOL    HW2 6053   3.605   2.939   2.820
 2014SOL     OW 6054   3.089   3.412   3.368
 2014SOL    HW1 6055   3.095   3.335   3.432
 2014SOL    HW2 6056   3.037   3.386   3.288
 2015SOL     OW 6057   2.183   2.805   2.104
 2015SOL    HW1 6058   2.265   2.844   2.062
 2015SOL    HW2 6059   2.156   2.723   2.055
 2016SOL     OW 6060   3.320   2.597   2.590
 2016SOL    HW1 6061   3.315   2.532   2.665
 2016SOL    HW2 6062   3.400   2.656   2.603
 2017SOL     OW 6063   2.323   3.128   3.589
 2017SOL    HW1 6064   2.273   3.129   3.503
 2017SOL    HW2 6065   2.260   3.110   3.665
 2018SOL     OW 6066   2.973   3.638   2.099
 2018SOL    HW1 6067   2.913   3.576   2.149
 2018SOL    HW2 6068   3.004   3.594   2.014
 2019SOL     OW 6069   2.064   2.147   3.360
 2019SOL    HW1 6070   1.984   2.207   3.347
 2019SOL    HW2 6071   2.054   2.098   3.446
 2020SOL     OW 6072   3.494   3.239   1.943
 2020SOL    HW1 6073   3.462   3.333   1.933
 2020SOL    HW2 6074   3.418   3.176   1.931
 2021SOL     OW 6075   2.326   3.605   2.185
 2021SOL    HW1 6076   2.359   3.644   2.271
 2021SOL    HW2 6077   2.402   3.598   2.120
 2022SOL     OW 6078   3.262   1.969   2.288
 2022SOL    HW1 6079   3.238   1.932   2.198
 2022SOL    HW2 6080   3.361   1.985   2.292
 2023SOL     OW 6081   2.111   3.647   3.103
 2023SOL    HW1 6082   2.168   3.582   3.153
 2023SOL    HW2 6083   2.095   3.614   3.010
 2024SOL     OW 6084   2.802   3.560   2.766
 2024SOL    HW1 6085   2.882   3.503   2.787
 2024SOL    HW2 6086   2.753   3.520   2.689
 2025SOL     OW 6087   3.409   2.084   3.591
 2025SOL    HW1 6088   3.404   2.121   3.683
 2025SOL    HW2 6089   3.337   2.015   3.579
 2026SOL     OW 6090   2.476   1.984   1.979
 2026SOL    HW1 6091   2.574   1.962   1.986
 2026SOL    HW2 6092   2.445   1.967   1.886
 2027SOL     OW 6093   2.643   2.126   3.611
 2027SOL    HW1 6094   2.710   2.065   3.654
 2027SOL    HW2 6095   2.570   2.145   3.676
 2028SOL     OW 6096   2.750   3.376   3.057
 2028SOL    HW1 6097   2.727   3.351   2.963
 2028SOL    HW2 6098   2.811   3.307   3.096
 2029SOL     OW 6099   3.213   2.452   3.295
 2029SOL    HW1 6100   3.241   2.409   3.380
 2029SOL    HW2 6101   3.238   2.548   3.296
 2030SOL     OW 6102   2.665   3.264   2.786
 2030SOL    HW1 6103   2.755   3.278   2.744
 2030SOL    HW2 6104   2.594   3.266   2.715
 2031SOL     OW 6105   2.784   2.365   2.761
 2031SOL    HW1 6106   2.759   2.356   2.665
 2031SOL    HW2 6107   2.832   2.283   2.792
 2032SOL     OW 6108   3.296   3.050   1.903
 2032SOL    HW1 6109   3.328   2.974   1.960
 2032SOL    HW2 6110   3.204   3.077   1.933
 2033SOL     OW 6111   2.797   2.098   2.342
 2033SOL    HW1 6112   2.749   2.139   2.264
 2033SOL    HW2 6113   2.896   2.096   2.323
 2034SOL     OW 6114   2.938   2.545   3.326
 2034SOL    HW1 6115   2.858   2.484   3.329
 2034SOL    HW2 6116   3.019   2.492   3.302
 2035SOL     OW 6117   3.089   3.432   2.655
 2035SOL    HW1 6118   3.110   3.506   2.590
 2035SOL    HW2 6119   3.157   3.432   2.728
 2036SOL     OW 6120   2.321   3.014   2.603
 2036SOL    HW1 6121   2.250   2.987   2.668
 2036SOL    HW2 6122   2.295   2.986   2.510
 2037SOL     OW 6123   3.133   3.659   2.453
 2037SOL    HW1 6124   3.177   3.723   2.389
 2037SOL    HW2 6125   3.083   3.711   2.523
 2038SOL     OW 6126   2.894   2.411   1.878
 2038SOL    HW1 6127   2.853   2.493   1.839
 2038SOL    HW2 6128   2.958   2.437   1.951
 2039SOL     OW 6129   1.940   2.418   3.248
 2039SOL    HW1 6130   2.032   2.417   3.207
 2039SOL    HW2 6131   1.934   2.492   3.315
 2040SOL     OW 6132   2.423   2.084   3.009
 2040SOL    HW1 6133   2.461   2.000   3.046
 2040SOL    HW2 6134   2.335   2.103   3.053
 2041SOL     OW 6135   2.728   2.316   2.504
 2041SOL    HW1 6136   2.696   2.388   2.442
 2041SOL    HW2 6137   2.752   2.235   2.451
 2042SOL     OW 6138   2.879   1.901   2.615
 2042SOL    HW1 6139   2.807   1.906   2.546
 2042SOL    HW2 6140   2.855   1.832   2.684
 2043SOL     OW 6141   3.291   3.035   2.729
 2043SOL    HW1 6142   3.236   2.951   2.722
 2043SOL    HW2 6143   3.317   3.064   2.637
 2044SOL     OW 6144   3.328   2.452   2.854
 2044SOL    HW1 6145   3.298   2.357   2.861
 2044SOL    HW2 6146   3.401   2.468   2.920
 2045SOL     OW 6147   3.719   2.695   2.239
 2045SOL    HW1 6148   3.761   2.631   2.303
 2045SOL    HW2 6149   3.681   2.644   2.161
 2046SOL     OW 6150   2.350   3.247   2.036
 2046SOL    HW1 6151   2.263   3.232   2.083
 2046SOL    HW2 6152   2.333   3.273   1.941
 2047SOL     OW 6153   3.526   3.142   2.519
 2047SOL    HW1 6154   3.625   3.150   2.533
 2047SOL    HW2 6155   3.481   3.226   2.550
 2048SOL     OW 6156   3.252   2.437   1.940
 2048SOL    HW1 6157   3.198   2.416   2.021
 2048SOL    HW2 6158   3.343   2.396   1.949
 2049SOL     OW 6159   3.616   3.085   3.450
 2049SOL    HW1 6160   3.707   3.046   3.437
 2049SOL    HW2 6161   3.624   3.181   3.474
 2050SOL     OW 6162   2.926   3.209   3.202
 2050SOL    HW1 6163   2.846   3.186   3.257
 2050SOL    HW2 6164   3.009   3.183   3.251
 2051SOL     OW 6165   3.454   3.491   3.487
 2051SOL    HW1 6166   3.481   3.525   3.397
 2051SOL    HW2 6167   3.533   3.453   3.533
 2052SOL     OW 6168   2.973   3.057   2.962
 2052SOL    HW1 6169   2.933   3.101   3.043
 2052SOL    HW2 6170   2.932   3.094   2.879
 2053SOL     OW 6171   3.500   2.961   2.941
 2053SOL    HW1 6172   3.505   3.042   3.000
 2053SOL    HW2 6173   3.414   2.963   2.890
 2054SOL     OW 6174   2.777   1.951   3.264
 2054SOL    HW1 6175   2.802   1.931   3.169
 2054SOL    HW2 6176   2.849   2.007   3.306
 2055SOL     OW 6177   2.842   2.978   3.581
 2055SOL    HW1 6178   2.743   2.984   3.591
 2055SOL    HW2 6179   2.865   2.898   3.525
 2056SOL     OW 6180   2.567   2.912   2.230
 2056SOL    HW1 6181   2.553   2.919   2.329
 2056SOL    HW2 6182   2.651   2.861   2.212
 2057SOL     OW 6183   2.272   2.675   3.113
 2057SOL    HW1 6184   2.358   2.687   3.163
 2057SOL    HW2 6185   2.230   2.588   3.140
 2058SOL     OW 6186   3.136   2.248   3.124
 2058SOL    HW1 6187   3.157   2.322   3.188
 2058SOL    HW2 6188   3.047   2.265   3.081
 2059SOL     OW 6189   1.926   3.426   3.193
 2059SOL    HW1 6190   1.880   3.508   3.159
 2059SOL    HW2 6191   2.024   3.445   3.202
 2060SOL     OW 6192   2.229   2.962   2.363
 2060SOL    HW1 6193   2.222   3.045   2.307
 2060SOL    HW2 6194   2.233   2.882   2.303
 2061SOL     OW 6195   2.428   2.399   2.727
 2061SOL    HW1 6196   2.440   2.465   2.653
 2061SOL    HW2 6197   2.474   2.433   2.810
 2062SOL     OW 6198   3.114   3.210   2.250
 2062SOL    HW1 6199   3.164   3.287   2.290
 2062SOL    HW2 6200   3.019   3.212   2.282
 2063SOL     OW 6201   3.134   3.307   3.004
 2063SOL    HW1 6202   3.181   3.320   3.091
 2063SOL    HW2 6203   3.068   3.233   3.013
 2064SOL     OW 6204   3.444   2.501   2.334
 2064SOL    HW1 6205   3.413   2.562   2.407
 2064SOL    HW2 6206   3.494   2.553   2.265
 2065SOL     OW 6207   2.216   3.372   3.191
 2065SOL    HW1 6208   2.195   3.328   3.104
 2065SOL    HW2 6209   2.313   3.398   3.194
 2066SOL     OW 6210   2.264   2.613   3.460
 2066SOL    HW1 6211   2.332   2.668   3.413
 2066SOL    HW2 6212   2.304   2.525   3.487
 2067SOL     OW 6213   3.449   2.641   3.532
 2067SOL    HW1 6214   3.357   2.679   3.527
 2067SOL    HW2 6215   3.509   2.688   3.467
 2068SOL     OW 6216   2.875   1.967   3.632
 2068SOL    HW1 6217   2.881   2.052   3.580
 2068SOL    HW2 6218   2.907   1.891   3.575
 2069SOL     OW 6219   2.366   1.912   3.602
 2069SOL    HW1 6220   2.324   1.855   3.532
 2069SOL    HW2 6221   2.300   1.981   3.634
 2070SOL     OW 6222   2.435   2.732   2.891
 2070SOL    HW1 6223   2.479   2.821   2.882
 2070SOL    HW2 6224   2.372   2.732   2.968
 2071SOL     OW 6225   3.222   2.724   2.907
 2071SOL    HW1 6226   3.147   2.724   2.841
 2071SOL    HW2 6227   3.259   2.632   2.916
 2072SOL     OW 6228   3.071   2.387   2.137
 2072SOL    HW1 6229   3.084   2.303   2.191
 2072SOL    HW2 6230   3.042   2.461   2.197
 2073SOL     OW 6231   2.169   2.075   3.093
 2073SOL    HW1 6232   2.146   2.112   3.183
 2073SOL    HW2 6233   2.139   1.980   3.087
 2074SOL     OW 6234   1.899   3.172   3.144
 2074SOL    HW1 6235   1.952   3.123   3.212
 2074SOL    HW2 6236   1.921   3.270   3.149
 2075SOL     OW 6237   2.594   2.496   2.926
 2075SOL    HW1 6238   2.653   2.470   2.850
 2075SOL    HW2 6239   2.566   2.592   2.915
 2076SOL     OW 6240   3.590   2.797   3.716
 2076SOL    HW1 6241   3.544   2.790   3.627
 2076SOL    HW2 6242   3.528   2.841   3.782
 2077SOL     OW 6243   2.169   1.925   2.480
 2077SOL    HW1 6244   2.158   2.019   2.513
 2077SOL    HW2 6245   2.164   1.862   2.557
 2078SOL     OW 6246   3.484   2.229   2.236
 2078SOL    HW1 6247   3.486   2.153   2.300
 2078SOL    HW2 6248   3.436   2.306   2.276
 2079SOL     OW 6249   2.885   2.628   2.828
 2079SOL    HW1 6250   2.900   2.649   2.924
 2079SOL    HW2 6251   2.855   2.533   2.819
 2080SOL     OW 6252   2.842   3.435   3.562
 2080SOL    HW1 6253   2.822   3.479   3.474
 2080SOL    HW2 6254   2.881   3.344   3.546
 2081SOL     OW 6255   3.721   3.380   3.467
 2081SOL    HW1 6256   3.735   3.407   3.372
 2081SOL    HW2 6257   3.804   3.402   3.520
 2082SOL     OW 6258   2.212   2.760   3.666
 2082SOL    HW1 6259   2.288   2.804   3.714
 2082SOL    HW2 6260   2.247   2.713   3.584
 2083SOL     OW 6261   3.402   2.136   1.987
 2083SOL    HW1 6262   3.341   2.061   2.010
 2083SOL    HW2 6263   3.424   2.188   2.070
 2084SOL     OW 6264   3.165   2.700   1.904
 2084SOL    HW1 6265   3.199   2.607   1.919
 2084SOL    HW2 6266   3.183   2.727   1.809
 2085SOL     OW 6267   2.930   3.195   2.711
 2085SOL    HW1 6268   2.937   3.111   2.656
 2085SOL    HW2 6269   2.992   3.264   2.675
 2086SOL     OW 6270   2.181   2.672   2.811
 2086SOL    HW1 6271   2.274   2.708   2.816
 2086SOL    HW2 6272   2.175   2.587   2.863
 2087SOL     OW 6273   2.201   2.371   2.868
 2087SOL    HW1 6274   2.149   2.288   2.851
 2087SOL    HW2 6275   2.278   2.376   2.804
 2088SOL     OW 6276   3.000   2.242   3.540
 2088SOL    HW1 6277   2.955   2.305   3.604
 2088SOL    HW2 6278   3.093   2.273   3.523
 2089SOL     OW 6279   3.022   2.069   3.339
 2089SOL    HW1 6280   3.022   2.133   3.416
 2089SOL    HW2 6281   3.050   2.117   3.256
 2090SOL     OW 6282   1.870   3.188   2.062
 2090SOL    HW1 6283   1.777   3.209   2.031
 2090SOL    HW2 6284   1.880   3.089   2.075
 2091SOL     OW 6285   1.950   3.663   2.789
 2091SOL    HW1 6286   1.908   3.577   2.762
 2091SOL    HW2 6287   2.044   3.666   2.755
 2092SOL     OW 6288   2.366   3.430   2.772
 2092SOL    HW1 6289   2.432   3.504   2.781
 2092SOL    HW2 6290   2.410   3.351   2.730
 2093SOL     OW 6291   2.864   2.658   3.100
 2093SOL    HW1 6292   2.905   2.626   3.186
 2093SOL    HW2 6293   2.768   2.631   3.097
 2094SOL     OW 6294   1.902   2.406   2.976
 2094SOL    HW1 6295   1.987   2.373   2.935
 2094SOL    HW2 6296   1.915   2.421   3.074
 2095SOL     OW 6297   2.051   2.382   3.584
 2095SOL    HW1 6298   2.110   2.342   3.514
 2095SOL    HW2 6299   1.993   2.453   3.543
 2096SOL     OW 6300   3.231   2.812   3.522
 2096SOL    HW1 6301   3.270   2.901   3.542
 2096SOL    HW2 6302   3.241   2.792   3.425
 2097SOL     OW 6303   2.677   2.434   2.187
 2097SOL    HW1 6304   2.684   2.345   2.141
 2097SOL    HW2 6305   2.583   2.468   2.179
 2098SOL     OW 6306   3.519   2.466   3.068
 2098SOL    HW1 6307   3.481   2.397   3.130
 2098SOL    HW2 6308   3.601   2.430   3.024
 2099SOL     OW 6309   2.114   3.426   3.606
 2099SOL    HW1 6310   2.084   3.483   3.682
 2099SOL    HW2 6311   2.107   3.329   3.632
 2100SOL     OW 6312   2.533   2.326   3.131
 2100SOL    HW1 6313   2.499   2.237   3.101
 2100SOL    HW2 6314   2.559   2.380   3.051
 2101SOL     OW 6315   2.792   3.540   3.327
 2101SOL    HW1 6316   2.768   3.522   3.232
 2101SOL    HW2 6317   2.822   3.634   3.337
 2102SOL     OW 6318   2.021   2.999   3.328
 2102SOL    HW1 6319   2.043   2.938   3.404
 2102SOL    HW2 6320   2.031   2.950   3.242
 2103SOL     OW 6321   3.209   2.921   3.096
 2103SOL    HW1 6322   3.233   2.858   3.022
 2103SOL    HW2 6323   3.119   2.961   3.078
 2104SOL     OW 6324   3.164   2.717   2.171
 2104SOL    HW1 6325   3.078   2.686   2.213
 2104SOL    HW2 6326   3.160   2.703   2.072
 2105SOL     OW 6327   3.621   3.609   3.016
 2105SOL    HW1 6328   3.682   3.639   2.943
 2105SOL    HW2 6329   3.583   3.520   2.994
 2106SOL     OW 6330   3.114   3.593   2.990
 2106SOL    HW1 6331   3.198   3.598   2.936
 2106SOL    HW2 6332   3.091   3.497   3.008
 2107SOL     OW 6333   1.945   3.120   2.884
 2107SOL    HW1 6334   1.940   3.119   2.984
 2107SOL    HW2 6335   1.862   3.079   2.846
 2108SOL     OW 6336   2.550   3.524   3.578
 2108SOL    HW1 6337   2.494   3.605   3.587
 2108SOL    HW2 6338   2.602   3.528   3.492
 2109SOL     OW 6339   3.588   1.997   2.385
 2109SOL    HW1 6340   3.661   1.980   2.318
 2109SOL    HW2 6341   3.557   1.910   2.423
 2110SOL     OW 6342   3.250   3.435   2.339
 2110SOL    HW1 6343   3.317   3.447   2.265
 2110SOL    HW2 6344   3.210   3.524   2.362
 2111SOL     OW 6345   1.992   3.656   3.713
 2111SOL    HW1 6346   1.951   3.582   3.766
 2111SOL    HW2 6347   2.056   3.707   3.771
 2112SOL     OW 6348   3.142   2.789   2.534
 2112SOL    HW1 6349   3.202   2.708   2.536
 2112SOL    HW2 6350   3.182   2.858   2.474
 2113SOL     OW 6351   2.692   3.135   3.284
 2113SOL    HW1 6352   2.687   3.168   3.379
 2113SOL    HW2 6353   2.606   3.154   3.238
 2114SOL     OW 6354   2.534   3.478   2.016
 2114SOL    HW1 6355   2.543   3.488   1.917
 2114SOL    HW2 6356   2.494   3.389   2.037
 2115SOL     OW 6357   3.512   3.582   3.256
 2115SOL    HW1 6358   3.565   3.592   3.172
 2115SOL    HW2 6359   3.485   3.672   3.290
 2116SOL     OW 6360   3.703   2.037   2.825
 2116SOL    HW1 6361   3.742   1.952   2.789
 2116SOL    HW2 6362   3.605   2.039   2.806
 2117SOL     OW 6363   3.056   3.474   1.893
 2117SOL    HW1 6364   3.062   3.381   1.930
 2117SOL    HW2 6365   2.997   3.474   1.813
 2118SOL     OW 6366   2.684   2.864   3.234
 2118SOL    HW1 6367   2.724   2.863   3.142
 2118SOL    HW2 6368   2.694   2.956   3.274
 2119SOL     OW 6369   2.778   2.772   2.153
 2119SOL    HW1 6370   2.841   2.810   2.085
 2119SOL    HW2 6371   2.818   2.689   2.192
 2120SOL     OW 6372   3.366   3.469   1.906
 2120SOL    HW1 6373   3.274   3.506   1.913
 2120SOL    HW2 6374   3.404   3.489   1.816
 2121SOL     OW 6375   2.234   3.150   3.352
 2121SOL    HW1 6376   2.221   3.243   3.318
 2121SOL    HW2 6377   2.150   3.098   3.339
 2122SOL     OW 6378   3.476   3.154   3.151
 2122SOL    HW1 6379   3.536   3.157   3.231
 2122SOL    HW2 6380   3.401   3.218   3.164
 2123SOL     OW 6381   2.901   2.960   2.558
 2123SOL    HW1 6382   2.831   2.913   2.612
 2123SOL    HW2 6383   2.960   2.892   2.515
 2124SOL     OW 6384   2.876   2.098   2.833
 2124SOL    HW1 6385   2.868   2.062   2.740
 2124SOL    HW2 6386   2.874   2.022   2.898
 2125SOL     OW 6387   2.452   3.349   2.353
 2125SOL    HW1 6388   2.494   3.291   2.283
 2125SOL    HW2 6389   2.408   3.428   2.309
 2126SOL     OW 6390   3.571   2.247   3.243
 2126SOL    HW1 6391   3.644   2.316   3.247
 2126SOL    HW2 6392   3.599   2.172   3.184
 2127SOL     OW 6393   2.117   3.210   2.152
 2127SOL    HW1 6394   2.021   3.211   2.125
 2127SOL    HW2 6395   2.129   3.263   2.236
 2128SOL     OW 6396   1.967   2.875   3.588
 2128SOL    HW1 6397   1.890   2.842   3.642
 2128SOL    HW2 6398   2.052   2.845   3.630
 2129SOL     OW 6399   2.534   2.065   3.351
 2129SOL    HW1 6400   2.624   2.049   3.311
 2129SOL    HW2 6401   2.542   2.070   3.450
 2130SOL     OW 6402   1.937   2.207   1.895
 2130SOL    HW1 6403   1.845   2.179   1.866
 2130SOL    HW2 6404   1.968   2.284   1.839
 2131SOL     OW 6405   3.302   2.718   3.260
 2131SOL    HW1 6406   3.245   2.770   3.197
 2131SOL    HW2 6407   3.398   2.730   3.236
 2132SOL     OW 6408   1.934   2.028   2.180
 2132SOL    HW1 6409   1.917   2.111   2.126
 2132SOL    HW2 6410   2.024   1.991   2.158
 2133SOL     OW 6411   3.045   3.197   1.981
 2133SOL    HW1 6412   2.946   3.186   1.983
 2133SOL    HW2 6413   3.079   3.212   2.074
 2134SOL     OW 6414   2.475   2.704   3.293
 2134SOL    HW1 6415   2.531   2.785   3.276
 2134SOL    HW2 6416   2.534   2.624   3.296
 2135SOL     OW 6417   3.355   3.629   2.821
 2135SOL    HW1 6418   3.388   3.693   2.752
 2135SOL    HW2 6419   3.421   3.623   2.896
 2136SOL     OW 6420   2.578   2.427   3.570
 2136SOL    HW1 6421   2.597   2.492   3.644
 2136SOL    HW2 6422   2.638   2.347   3.579
 2137SOL     OW 6423   3.312   3.082   3.495
 2137SOL    HW1 6424   3.303   3.072   3.594
 2137SOL    HW2 6425   3.408   3.075   3.469
 2138SOL     OW 6426   2.252   3.603   3.422
 2138SOL    HW1 6427   2.161   3.644   3.420
 2138SOL    HW2 6428   2.245   3.509   3.454
 2139SOL     OW 6429   3.536   2.745   3.116
 2139SOL    HW1 6430   3.509   2.656   3.079
 2139SOL    HW2 6431   3.537   2.813   3.043
 2140SOL     OW 6432   3.087   2.187   2.311
 2140SOL    HW1 6433   3.152   2.113   2.300
 2140SOL    HW2 6434   3.107   2.237   2.395
 2141SOL     OW 6435   2.456   2.607   2.514
 2141SOL    HW1 6436   2.506   2.692   2.495
 2141SOL    HW2 6437   2.368   2.609   2.466
 2142SOL     OW 6438   3.639   2.204   3.504
 2142SOL    HW1 6439   3.622   2.235   3.410
 2142SOL    HW2 6440   3.555   2.167   3.542
 2143SOL     OW 6441   3.592   2.796   3.379
 2143SOL    HW1 6442   3.630   2.887   3.394
 2143SOL    HW2 6443   3.584   2.779   3.280
 2144SOL     OW 6444   2.721   3.236   1.878
 2144SOL    HW1 6445   2.675   3.251   1.966
 2144SOL    HW2 6446   2.765   3.321   1.848
 2145SOL     OW 6447   2.523   3.652   2.815
 2145SOL    HW1 6448   2.477   3.740   2.802
 2145SOL    HW2 6449   2.622   3.664   2.808
 2146SOL     OW 6450   2.721   2.818   2.723
 2146SOL    HW1 6451   2.775   2.749   2.771
 2146SOL    HW2 6452   2.689   2.887   2.789
 2147SOL     OW 6453   2.945   2.846   1.949
 2147SOL    HW1 6454   2.922   2.899   1.867
 2147SOL    HW2 6455   3.026   2.790   1.930
 2148SOL     OW 6456   3.723   3.431   2.713
 2148SOL    HW1 6457   3.652   3.419   2.643
 2148SOL    HW2 6458   3.724   3.352   2.773
 2149SOL     OW 6459   2.083   3.176   3.706
 2149SOL    HW1 6460   2.018   3.103   3.685
 2149SOL    HW2 6461   2.087   3.190   3.804
 2150SOL     OW 6462   1.941   3.102   2.515
 2150SOL    HW1 6463   1.940   3.055   2.603
 2150SOL    HW2 6464   2.023   3.074   2.464
 2151SOL     OW 6465   2.534   3.253   3.486
 2151SOL    HW1 6466   2.456   3.203   3.524
 2151SOL    HW2 6467   2.531   3.348   3.517
 2152SOL     OW 6468   3.686   2.054   3.089
 2152SOL    HW1 6469   3.682   1.964   3.133
 2152SOL    HW2 6470   3.689   2.043   2.990
 2153SOL     OW 6471   3.567   3.349   2.966
 2153SOL    HW1 6472   3.474   3.324   2.939
 2153SOL    HW2 6473   3.593   3.299   3.048
 2154SOL     OW 6474   2.179   2.409   3.142
 2154SOL    HW1 6475   2.217   2.350   3.214
 2154SOL    HW2 6476   2.219   2.383   3.054
 2155SOL     OW 6477   2.674   3.448   2.549
 2155SOL    HW1 6478   2.706   3.458   2.455
 2155SOL    HW2 6479   2.595   3.386   2.551
 2156SOL     OW 6480   3.286   2.076   2.974
 2156SOL    HW1 6481   3.338   2.011   3.029
 2156SOL    HW2 6482   3.237   2.139   3.035
 2157SOL     OW 6483   2.863   1.896   3.016
 2157SOL    HW1 6484   2.800   1.824   2.985
 2157SOL    HW2 6485   2.956   1.860   3.016
 2158SOL     OW 6486   2.632   3.192   2.163
 2158SOL    HW1 6487   2.586   3.105   2.180
 2158SOL    HW2 6488   2.723   3.189   2.204
 2159SOL     OW 6489   2.480   3.429   3.146
 2159SOL    HW1 6490   2.475   3.511   3.203
 2159SOL    HW2 6491   2.569   3.426   3.101
 2160SOL     OW 6492   3.214   1.914   2.030
 2160SOL    HW1 6493   3.249   1.873   1.946
 2160SOL    HW2 6494   3.124   1.876   2.050
 2161SOL     OW 6495   3.162   2.315   2.553
 2161SOL    HW1 6496   3.103   2.395   2.557
 2161SOL    HW2 6497   3.177   2.280   2.646
 2162SOL     OW 6498   3.455   2.083   2.744
 2162SOL    HW1 6499   3.371   2.082   2.798
 2162SOL    HW2 6500   3.457   2.166   2.688
 2163SOL     OW 6501   1.901   2.939   2.162
 2163SOL    HW1 6502   2.000   2.928   2.153
 2163SOL    HW2 6503   1.861   2.853   2.194
 2164SOL     OW 6504   2.737   3.508   2.199
 2164SOL    HW1 6505   2.660   3.473   2.145
 2164SOL    HW2 6506   2.705   3.579   2.261
 2165SOL     OW 6507   2.092   2.490   3.837
 2165SOL    HW1 6508   1.999   2.488   3.874
 2165SOL    HW2 6509   2.093   2.451   3.745
 2166SOL     OW 6510   2.087   2.137   4.720
 2166SOL    HW1 6511   2.122   2.120   4.812
 2166SOL    HW2 6512   1.999   2.092   4.708
 2167SOL     OW 6513   3.617   2.469   3.955
 2167SOL    HW1 6514   3.605   2.456   3.856
 2167SOL    HW2 6515   3.587   2.388   4.004
 2168SOL     OW 6516   2.547   2.874   4.389
 2168SOL    HW1 6517   2.616   2.858   4.459
 2168SOL    HW2 6518   2.474   2.931   4.427
 2169SOL     OW 6519   3.465   2.309   4.461
 2169SOL    HW1 6520   3.391   2.355   4.411
 2169SOL    HW2 6521   3.516   2.377   4.514
 2170SOL     OW 6522   2.093   3.575   4.207
 2170SOL    HW1 6523   2.127   3.652   4.261
 2170SOL    HW2 6524   2.137   3.575   4.117
 2171SOL     OW 6525   2.092   3.296   4.262
 2171SOL    HW1 6526   2.066   3.392   4.262
 2171SOL    HW2 6527   2.021   3.242   4.307
 2172SOL     OW 6528   2.468   2.826   3.847
 2172SOL    HW1 6529   2.475   2.910   3.793
 2172SOL    HW2 6530   2.514   2.839   3.935
 2173SOL     OW 6531   1.984   2.505   4.287
 2173SOL    HW1 6532   1.939   2.417   4.304
 2173SOL    HW2 6533   1.983   2.559   4.371
 2174SOL     OW 6534   3.704   3.629   4.083
 2174SOL    HW1 6535   3.758   3.600   4.163
 2174SOL    HW2 6536   3.734   3.719   4.054
 2175SOL     OW 6537   1.889   3.458   3.841
 2175SOL    HW1 6538   1.870   3.362   3.862
 2175SOL    HW2 6539   1.856   3.516   3.916
 2176SOL     OW 6540   3.551   2.784   4.336
 2176SOL    HW1 6541   3.646   2.755   4.344
 2176SOL    HW2 6542   3.543   2.849   4.261
 2177SOL     OW 6543   3.503   2.970   4.156
 2177SOL    HW1 6544   3.589   2.972   4.104
 2177SOL    HW2 6545   3.517   3.017   4.244
 2178SOL     OW 6546   2.475   3.227   4.450
 2178SOL    HW1 6547   2.426   3.140   4.459
 2178SOL    HW2 6548   2.452   3.270   4.363
 2179SOL     OW 6549   2.671   1.866   4.226
 2179SOL    HW1 6550   2.711   1.957   4.217
 2179SOL    HW2 6551   2.571   1.874   4.232
 2180SOL     OW 6552   3.387   2.861   3.914
 2180SOL    HW1 6553   3.324   2.785   3.927
 2180SOL    HW2 6554   3.435   2.879   4.000
 2181SOL     OW 6555   3.529   3.576   4.296
 2181SOL    HW1 6556   3.488   3.553   4.208
 2181SOL    HW2 6557   3.511   3.502   4.361
 2182SOL     OW 6558   2.460   2.591   3.994
 2182SOL    HW1 6559   2.484   2.660   3.926
 2182SOL    HW2 6560   2.382   2.624   4.048
 2183SOL     OW 6561   3.143   2.207   4.668
 2183SOL    HW1 6562   3.057   2.157   4.655
 2183SOL    HW2 6563   3.205   2.153   4.724
 2184SOL     OW 6564   3.438   3.524   4.031
 2184SOL    HW1 6565   3.527   3.570   4.034
 2184SOL    HW2 6566   3.417   3.500   3.936
 2185SOL     OW 6567   2.903   2.563   4.153
 2185SOL    HW1 6568   2.929   2.559   4.249
 2185SOL    HW2 6569   2.818   2.512   4.139
 2186SOL     OW 6570   1.938   2.673   4.513
 2186SOL    HW1 6571   2.037   2.661   4.522
 2186SOL    HW2 6572   1.914   2.768   4.534
 2187SOL     OW 6573   2.727   2.210   3.919
 2187SOL    HW1 6574   2.786   2.273   3.870
 2187SOL    HW2 6575   2.746   2.116   3.890
 2188SOL     OW 6576   3.224   3.006   4.269
 2188SOL    HW1 6577   3.307   2.977   4.221
 2188SOL    HW2 6578   3.175   3.073   4.213
 2189SOL     OW 6579   2.870   3.318   4.201
 2189SOL    HW1 6580   2.824   3.390   4.149
 2189SOL    HW2 6581   2.866   3.338   4.299
 2190SOL     OW 6582   2.213   3.663   4.577
 2190SOL    HW1 6583   2.263   3.577   4.583
 2190SOL    HW2 6584   2.278   3.740   4.574
 2191SOL     OW 6585   3.657   2.928   4.597
 2191SOL    HW1 6586   3.595   2.913   4.521
 2191SOL    HW2 6587   3.605   2.939   4.682
 2192SOL     OW 6588   2.183   2.805   3.966
 2192SOL    HW1 6589   2.265   2.844   3.924
 2192SOL    HW2 6590   2.156   2.723   3.917
 2193SOL     OW 6591   2.973   3.638   3.961
 2193SOL    HW1 6592   2.913   3.576   4.011
 2193SOL    HW2 6593   3.004   3.594   3.876
 2194SOL     OW 6594   3.494   3.239   3.805
 2194SOL    HW1 6595   3.462   3.333   3.795
 2194SOL    HW2 6596   3.418   3.176   3.793
 2195SOL     OW 6597   2.326   3.605   4.047
 2195SOL    HW1 6598   2.359   3.644   4.133
 2195SOL    HW2 6599   2.402   3.598   3.982
 2196SOL     OW 6600   3.262   1.969   4.150
 2196SOL    HW1 6601   3.238   1.932   4.060
 2196SOL    HW2 6602   3.361   1.985   4.154
 2197SOL     OW 6603   2.802   3.560   4.628
 2197SOL    HW1 6604   2.882   3.503   4.649
 2197SOL    HW2 6605   2.753   3.520   4.551
 2198SOL     OW 6606   2.244   2.562   4.204
 2198SOL    HW1 6607   2.289   2.472   4.201
 2198SOL    HW2 6608   2.150   2.551   4.237
 2199SOL     OW 6609   2.476   1.984   3.841
 2199SOL    HW1 6610   2.574   1.962   3.848
 2199SOL    HW2 6611   2.445   1.967   3.748
 2200SOL     OW 6612   2.401   1.926   4.236
 2200SOL    HW1 6613   2.320   1.927   4.294
 2200SOL    HW2 6614   2.404   2.009   4.181
 2201SOL     OW 6615   3.296   3.050   3.765
 2201SOL    HW1 6616   3.328   2.974   3.822
 2201SOL    HW2 6617   3.204   3.077   3.795
 2202SOL     OW 6618   2.159   1.897   3.895
 2202SOL    HW1 6619   2.208   1.981   3.874
 2202SOL    HW2 6620   2.221   1.832   3.940
 2203SOL     OW 6621   2.797   2.098   4.204
 2203SOL    HW1 6622   2.749   2.139   4.126
 2203SOL    HW2 6623   2.896   2.096   4.185
 2204SOL     OW 6624   2.321   3.014   4.465
 2204SOL    HW1 6625   2.250   2.987   4.530
 2204SOL    HW2 6626   2.295   2.986   4.372
 2205SOL     OW 6627   3.133   3.659   4.315
 2205SOL    HW1 6628   3.177   3.723   4.251
 2205SOL    HW2 6629   3.083   3.711   4.385
 2206SOL     OW 6630   2.894   2.411   3.740
 2206SOL    HW1 6631   2.853   2.493   3.701
 2206SOL    HW2 6632   2.958   2.437   3.813
 2207SOL     OW 6633   2.728   2.316   4.366
 2207SOL    HW1 6634   2.696   2.388   4.304
 2207SOL    HW2 6635   2.752   2.235   4.313
 2208SOL     OW 6636   3.719   2.695   4.101
 2208SOL    HW1 6637   3.761   2.631   4.165
 2208SOL    HW2 6638   3.681   2.644   4.023
 2209SOL     OW 6639   2.350   3.247   3.898
 2209SOL    HW1 6640   2.263   3.232   3.945
 2209SOL    HW2 6641   2.333   3.273   3.803
 2210SOL     OW 6642   3.526   3.142   4.381
 2210SOL    HW1 6643   3.625   3.150   4.395
 2210SOL    HW2 6644   3.481   3.226   4.412
 2211SOL     OW 6645   3.252   2.437   3.802
 2211SOL    HW1 6646   3.198   2.416   3.883
 2211SOL    HW2 6647   3.343   2.396   3.811
 2212SOL     OW 6648   2.389   2.118   4.052
 2212SOL    HW1 6649   2.416   2.059   3.977
 2212SOL    HW2 6650   2.389   2.213   4.021
 2213SOL     OW 6651   2.973   3.057   4.824
 2213SOL    HW1 6652   2.933   3.101   4.905
 2213SOL    HW2 6653   2.932   3.094   4.741
 2214SOL     OW 6654   2.567   2.912   4.092
 2214SOL    HW1 6655   2.553   2.919   4.191
 2214SOL    HW2 6656   2.651   2.861   4.074
 2215SOL     OW 6657   2.229   2.962   4.225
 2215SOL    HW1 6658   2.222   3.045   4.169
 2215SOL    HW2 6659   2.233   2.882   4.165
 2216SOL     OW 6660   3.114   3.210   4.112
 2216SOL    HW1 6661   3.164   3.287   4.152
 2216SOL    HW2 6662   3.019   3.212   4.144
 2217SOL     OW 6663   3.444   2.501   4.196
 2217SOL    HW1 6664   3.413   2.562   4.269
 2217SOL    HW2 6665   3.494   2.553   4.127
 2218SOL     OW 6666   3.071   2.387   3.999
 2218SOL    HW1 6667   3.084   2.303   4.053
 2218SOL    HW2 6668   3.042   2.461   4.059
 2219SOL     OW 6669   2.169   1.925   4.342
 2219SOL    HW1 6670   2.158   2.019   4.375
 2219SOL    HW2 6671   2.164   1.862   4.419
 2220SOL     OW 6672   3.484   2.229   4.098
 2220SOL    HW1 6673   3.486   2.153   4.162
 2220SOL    HW2 6674   3.436   2.306   4.138
 2221SOL     OW 6675   3.402   2.136   3.849
 2221SOL    HW1 6676   3.341   2.061   3.872
 2221SOL    HW2 6677   3.424   2.188   3.932
 2222SOL     OW 6678   3.165   2.700   3.766
 2222SOL    HW1 6679   3.199   2.607   3.781
 2222SOL    HW2 6680   3.183   2.727   3.671
 2223SOL     OW 6681   1.870   3.188   3.924
 2223SOL    HW1 6682   1.777   3.209   3.893
 2223SOL    HW2 6683   1.880   3.089   3.937
 2224SOL     OW 6684   2.677   2.434   4.049
 2224SOL    HW1 6685   2.684   2.345   4.003
 2224SOL    HW2 6686   2.583   2.468   4.041
 2225SOL     OW 6687   2.335   2.362   3.915
 2225SOL    HW1 6688   2.396   2.442   3.919
 2225SOL    HW2 6689   2.240   2.393   3.922
 2226SOL     OW 6690   3.164   2.717   4.033
 2226SOL    HW1 6691   3.078   2.686   4.075
 2226SOL    HW2 6692   3.160   2.703   3.934
 2227SOL     OW 6693   3.588   1.997   4.247
 2227SOL    HW1 6694   3.661   1.980   4.180
 2227SOL    HW2 6695   3.557   1.910   4.285
 2228SOL     OW 6696   3.250   3.435   4.201
 2228SOL    HW1 6697   3.317   3.447   4.127
 2228SOL    HW2 6698   3.210   3.524   4.224
 2229SOL     OW 6699   2.534   3.478   3.878
 2229SOL    HW1 6700   2.543   3.488   3.779
 2229SOL    HW2 6701   2.494   3.389   3.899
 2230SOL     OW 6702   3.703   2.037   4.687
 2230SOL    HW1 6703   3.742   1.952   4.651
 2230SOL    HW2 6704   3.605   2.039   4.668
 2231SOL     OW 6705   3.056   3.474   3.755
 2231SOL    HW1 6706   3.062   3.381   3.792
 2231SOL    HW2 6707   2.997   3.474   3.675
 2232SOL     OW 6708   2.778   2.772   4.015
 2232SOL    HW1 6709   2.841   2.810   3.947
 2232SOL    HW2 6710   2.818   2.689   4.054
 2233SOL     OW 6711   3.366   3.469   3.768
 2233SOL    HW1 6712   3.274   3.506   3.775
 2233SOL    HW2 6713   3.404   3.489   3.678
 2234SOL     OW 6714   2.452   3.349   4.215
 2234SOL    HW1 6715   2.494   3.291   4.145
 2234SOL    HW2 6716   2.408   3.428   4.171
 2235SOL     OW 6717   2.117   3.210   4.014
 2235SOL    HW1 6718   2.021   3.211   3.987
 2235SOL    HW2 6719   2.129   3.263   4.098
 2236SOL     OW 6720   1.937   2.207   3.757
 2236SOL    HW1 6721   1.845   2.179   3.728
 2236SOL    HW2 6722   1.968   2.284   3.701
 2237SOL     OW 6723   1.934   2.028   4.042
 2237SOL    HW1 6724   1.917   2.111   3.988
 2237SOL    HW2 6725   2.024   1.991   4.020
 2238SOL     OW 6726   3.045   3.197   3.843
 2238SOL    HW1 6727   2.946   3.186   3.845
 2238SOL    HW2 6728   3.079   3.212   3.936
 2239SOL     OW 6729   3.087   2.187   4.173
 2239SOL    HW1 6730   3.152   2.113   4.162
 2239SOL    HW2 6731   3.107   2.237   4.257
 2240SOL     OW 6732   2.456   2.607   4.376
 2240SOL    HW1 6733   2.506   2.692   4.357
 2240SOL    HW2 6734   2.368   2.609   4.328
 2241SOL     OW 6735   2.721   3.236   3.740
 2241SOL    HW1 6736   2.675   3.251   3.828
 2241SOL    HW2 6737   2.765   3.321   3.710
 2242SOL     OW 6738   2.523   3.652   4.677
 2242SOL    HW1 6739   2.477   3.740   4.664
 2242SOL    HW2 6740   2.622   3.664   4.670
 2243SOL     OW 6741   2.945   2.846   3.811
 2243SOL    HW1 6742   2.922   2.899   3.729
 2243SOL    HW2 6743   3.026   2.790   3.792
 2244SOL     OW 6744   1.941   3.102   4.377
 2244SOL    HW1 6745   1.940   3.055   4.465
 2244SOL    HW2 6746   2.023   3.074   4.326
 2245SOL     OW 6747   2.290   2.286   4.244
 2245SOL    HW1 6748   2.320   2.214   4.182
 2245SOL    HW2 6749   2.251   2.246   4.327
 2246SOL     OW 6750   2.674   3.448   4.411
 2246SOL    HW1 6751   2.706   3.458   4.317
 2246SOL    HW2 6752   2.595   3.386   4.413
 2247SOL     OW 6753   2.632   3.192   4.025
 2247SOL    HW1 6754   2.586   3.105   4.042
 2247SOL    HW2 6755   2.723   3.189   4.066
 2248SOL     OW 6756   3.214   1.914   3.892
 2248SOL    HW1 6757   3.249   1.873   3.808
 2248SOL    HW2 6758   3.124   1.876   3.912
 2249SOL     OW 6759   3.162   2.315   4.415
 2249SOL    HW1 6760   3.103   2.395   4.419
 2249SOL    HW2 6761   3.177   2.280   4.508
 2250SOL     OW 6762   1.901   2.939   4.024
 2250SOL    HW1 6763   2.000   2.928   4.015
 2250SOL    HW2 6764   1.861   2.853   4.056
 2251SOL     OW 6765   2.737   3.508   4.061
 2251SOL    HW1 6766   2.660   3.473   4.007
 2251SOL    HW2 6767   2.705   3.579   4.123
 2252SOL     OW 6768   2.092   4.352   0.113
 2252SOL    HW1 6769   1.999   4.350   0.150
 2252SOL    HW2 6770   2.093   4.313   0.021
 2253SOL     OW 6771   2.087   3.999   0.996
 2253SOL    HW1 6772   2.122   3.982   1.088
 2253SOL    HW2 6773   1.999   3.954   0.984
 2254SOL     OW 6774   1.881   4.092   0.647
 2254SOL    HW1 6775   1.799   4.135   0.686
 2254SOL    HW2 6776   1.853   4.019   0.584
 2255SOL     OW 6777   3.617   4.331   0.231
 2255SOL    HW1 6778   3.605   4.318   0.132
 2255SOL    HW2 6779   3.587   4.250   0.280
 2256SOL     OW 6780   2.712   4.522   1.823
 2256SOL    HW1 6781   2.708   4.598   1.888
 2256SOL    HW2 6782   2.734   4.558   1.732
 2257SOL     OW 6783   2.547   4.736   0.665
 2257SOL    HW1 6784   2.616   4.720   0.735
 2257SOL    HW2 6785   2.474   4.793   0.703
 2258SOL     OW 6786   2.300   4.116   1.499
 2258SOL    HW1 6787   2.382   4.060   1.508
 2258SOL    HW2 6788   2.219   4.058   1.503
 2259SOL     OW 6789   3.465   4.171   0.737
 2259SOL    HW1 6790   3.391   4.217   0.687
 2259SOL    HW2 6791   3.516   4.239   0.790
 2260SOL     OW 6792   3.456   3.838   1.480
 2260SOL    HW1 6793   3.438   3.905   1.408
 2260SOL    HW2 6794   3.453   3.884   1.569
 2261SOL     OW 6795   1.984   4.367   0.563
 2261SOL    HW1 6796   1.939   4.279   0.580
 2261SOL    HW2 6797   1.983   4.421   0.647
 2262SOL     OW 6798   1.975   4.461   1.597
 2262SOL    HW1 6799   2.063   4.448   1.642
 2262SOL    HW2 6800   1.962   4.558   1.575
 2263SOL     OW 6801   2.671   3.728   0.502
 2263SOL    HW1 6802   2.711   3.819   0.493
 2263SOL    HW2 6803   2.571   3.736   0.508
 2264SOL     OW 6804   2.179   3.975   1.801
 2264SOL    HW1 6805   2.250   4.046   1.807
 2264SOL    HW2 6806   2.091   4.014   1.829
 2265SOL     OW 6807   3.143   4.069   0.944
 2265SOL    HW1 6808   3.057   4.019   0.931
 2265SOL    HW2 6809   3.205   4.015   1.000
 2266SOL     OW 6810   2.669   4.329   1.465
 2266SOL    HW1 6811   2.622   4.326   1.554
 2266SOL    HW2 6812   2.618   4.274   1.399
 2267SOL     OW 6813   3.256   4.193   1.674
 2267SOL    HW1 6814   3.236   4.236   1.762
 2267SOL    HW2 6815   3.334   4.131   1.683
 2268SOL     OW 6816   2.853   4.134   1.242
 2268SOL    HW1 6817   2.776   4.168   1.296
 2268SOL    HW2 6818   2.819   4.083   1.163
 2269SOL     OW 6819   2.903   4.425   0.429
 2269SOL    HW1 6820   2.929   4.421   0.525
 2269SOL    HW2 6821   2.818   4.374   0.415
 2270SOL     OW 6822   2.727   4.072   0.195
 2270SOL    HW1 6823   2.786   4.135   0.146
 2270SOL    HW2 6824   2.746   3.978   0.166
 2271SOL     OW 6825   3.581   4.309   1.831
 2271SOL    HW1 6826   3.555   4.398   1.795
 2271SOL    HW2 6827   3.579   4.241   1.758
 2272SOL     OW 6828   2.412   3.920   0.885
 2272SOL    HW1 6829   2.407   3.915   0.985
 2272SOL    HW2 6830   2.414   4.016   0.856
 2273SOL     OW 6831   3.320   4.459   0.728
 2273SOL    HW1 6832   3.315   4.394   0.803
 2273SOL    HW2 6833   3.400   4.518   0.741
 2274SOL     OW 6834   2.064   4.009   1.498
 2274SOL    HW1 6835   1.984   4.069   1.485
 2274SOL    HW2 6836   2.054   3.960   1.584
 2275SOL     OW 6837   3.262   3.831   0.426
 2275SOL    HW1 6838   3.238   3.794   0.336
 2275SOL    HW2 6839   3.361   3.847   0.430
 2276SOL     OW 6840   2.244   4.424   0.480
 2276SOL    HW1 6841   2.289   4.334   0.477
 2276SOL    HW2 6842   2.150   4.413   0.513
 2277SOL     OW 6843   3.409   3.946   1.729
 2277SOL    HW1 6844   3.404   3.983   1.821
 2277SOL    HW2 6845   3.337   3.877   1.717
 2278SOL     OW 6846   2.643   3.988   1.749
 2278SOL    HW1 6847   2.710   3.927   1.792
 2278SOL    HW2 6848   2.570   4.007   1.814
 2279SOL     OW 6849   3.213   4.314   1.433
 2279SOL    HW1 6850   3.241   4.271   1.518
 2279SOL    HW2 6851   3.238   4.410   1.434
 2280SOL     OW 6852   2.784   4.227   0.899
 2280SOL    HW1 6853   2.759   4.218   0.803
 2280SOL    HW2 6854   2.832   4.145   0.930
 2281SOL     OW 6855   2.401   3.788   0.512
 2281SOL    HW1 6856   2.320   3.789   0.570
 2281SOL    HW2 6857   2.404   3.871   0.457
 2282SOL     OW 6858   2.797   3.960   0.480
 2282SOL    HW1 6859   2.749   4.001   0.402
 2282SOL    HW2 6860   2.896   3.958   0.461
 2283SOL     OW 6861   2.938   4.407   1.464
 2283SOL    HW1 6862   2.858   4.346   1.467
 2283SOL    HW2 6863   3.019   4.354   1.440
 2284SOL     OW 6864   2.894   4.273   0.016
 2284SOL    HW1 6865   2.853   4.355  -0.023
 2284SOL    HW2 6866   2.958   4.299   0.089
 2285SOL     OW 6867   1.940   4.280   1.386
 2285SOL    HW1 6868   2.032   4.279   1.345
 2285SOL    HW2 6869   1.934   4.354   1.453
 2286SOL     OW 6870   2.423   3.946   1.147
 2286SOL    HW1 6871   2.461   3.862   1.184
 2286SOL    HW2 6872   2.335   3.965   1.191
 2287SOL     OW 6873   2.728   4.178   0.642
 2287SOL    HW1 6874   2.696   4.250   0.580
 2287SOL    HW2 6875   2.752   4.097   0.589
 2288SOL     OW 6876   2.879   3.763   0.753
 2288SOL    HW1 6877   2.807   3.768   0.684
 2288SOL    HW2 6878   2.855   3.694   0.822
 2289SOL     OW 6879   3.328   4.314   0.992
 2289SOL    HW1 6880   3.298   4.219   0.999
 2289SOL    HW2 6881   3.401   4.330   1.058
 2290SOL     OW 6882   3.252   4.299   0.078
 2290SOL    HW1 6883   3.198   4.278   0.159
 2290SOL    HW2 6884   3.343   4.258   0.087
 2291SOL     OW 6885   2.389   3.980   0.328
 2291SOL    HW1 6886   2.416   3.921   0.253
 2291SOL    HW2 6887   2.389   4.075   0.297
 2292SOL     OW 6888   2.777   3.813   1.402
 2292SOL    HW1 6889   2.802   3.793   1.307
 2292SOL    HW2 6890   2.849   3.869   1.444
 2293SOL     OW 6891   2.272   4.537   1.251
 2293SOL    HW1 6892   2.358   4.549   1.301
 2293SOL    HW2 6893   2.230   4.450   1.278
 2294SOL     OW 6894   3.136   4.110   1.262
 2294SOL    HW1 6895   3.157   4.184   1.326
 2294SOL    HW2 6896   3.047   4.127   1.219
 2295SOL     OW 6897   2.428   4.261   0.865
 2295SOL    HW1 6898   2.440   4.327   0.791
 2295SOL    HW2 6899   2.474   4.295   0.948
 2296SOL     OW 6900   3.444   4.363   0.472
 2296SOL    HW1 6901   3.413   4.424   0.545
 2296SOL    HW2 6902   3.494   4.415   0.403
 2297SOL     OW 6903   2.875   3.829   1.770
 2297SOL    HW1 6904   2.881   3.914   1.718
 2297SOL    HW2 6905   2.907   3.753   1.713
 2298SOL     OW 6906   2.366   3.774   1.740
 2298SOL    HW1 6907   2.324   3.717   1.670
 2298SOL    HW2 6908   2.300   3.843   1.772
 2299SOL     OW 6909   3.071   4.249   0.275
 2299SOL    HW1 6910   3.084   4.165   0.329
 2299SOL    HW2 6911   3.042   4.323   0.335
 2300SOL     OW 6912   2.169   3.937   1.231
 2300SOL    HW1 6913   2.146   3.974   1.321
 2300SOL    HW2 6914   2.139   3.842   1.225
 2301SOL     OW 6915   2.594   4.358   1.064
 2301SOL    HW1 6916   2.653   4.332   0.988
 2301SOL    HW2 6917   2.566   4.454   1.053
 2302SOL     OW 6918   3.590   4.659   1.854
 2302SOL    HW1 6919   3.544   4.652   1.765
 2302SOL    HW2 6920   3.528   4.703   1.920
 2303SOL     OW 6921   2.169   3.787   0.618
 2303SOL    HW1 6922   2.158   3.881   0.651
 2303SOL    HW2 6923   2.164   3.724   0.695
 2304SOL     OW 6924   3.484   4.091   0.374
 2304SOL    HW1 6925   3.486   4.015   0.438
 2304SOL    HW2 6926   3.436   4.168   0.414
 2305SOL     OW 6927   3.402   3.998   0.125
 2305SOL    HW1 6928   3.341   3.923   0.148
 2305SOL    HW2 6929   3.424   4.050   0.208
 2306SOL     OW 6930   2.181   4.534   0.949
 2306SOL    HW1 6931   2.274   4.570   0.954
 2306SOL    HW2 6932   2.175   4.449   1.001
 2307SOL     OW 6933   2.201   4.233   1.006
 2307SOL    HW1 6934   2.149   4.150   0.989
 2307SOL    HW2 6935   2.278   4.238   0.942
 2308SOL     OW 6936   3.000   4.104   1.678
 2308SOL    HW1 6937   2.955   4.167   1.742
 2308SOL    HW2 6938   3.093   4.135   1.661
 2309SOL     OW 6939   3.022   3.931   1.477
 2309SOL    HW1 6940   3.022   3.995   1.554
 2309SOL    HW2 6941   3.050   3.979   1.394
 2310SOL     OW 6942   1.902   4.268   1.114
 2310SOL    HW1 6943   1.987   4.235   1.073
 2310SOL    HW2 6944   1.915   4.283   1.212
 2311SOL     OW 6945   2.051   4.244   1.722
 2311SOL    HW1 6946   2.110   4.204   1.652
 2311SOL    HW2 6947   1.993   4.315   1.681
 2312SOL     OW 6948   2.677   4.296   0.325
 2312SOL    HW1 6949   2.684   4.207   0.279
 2312SOL    HW2 6950   2.583   4.330   0.317
 2313SOL     OW 6951   3.519   4.328   1.206
 2313SOL    HW1 6952   3.481   4.259   1.268
 2313SOL    HW2 6953   3.601   4.292   1.162
 2314SOL     OW 6954   2.533   4.188   1.269
 2314SOL    HW1 6955   2.499   4.099   1.239
 2314SOL    HW2 6956   2.559   4.242   1.189
 2315SOL     OW 6957   2.335   4.224   0.191
 2315SOL    HW1 6958   2.396   4.304   0.195
 2315SOL    HW2 6959   2.240   4.255   0.198
 2316SOL     OW 6960   2.765   3.810   0.133
 2316SOL    HW1 6961   2.816   3.811   0.047
 2316SOL    HW2 6962   2.821   3.768   0.204
 2317SOL     OW 6963   3.588   3.859   0.523
 2317SOL    HW1 6964   3.661   3.842   0.456
 2317SOL    HW2 6965   3.557   3.772   0.561
 2318SOL     OW 6966   3.142   4.651   0.672
 2318SOL    HW1 6967   3.202   4.570   0.674
 2318SOL    HW2 6968   3.182   4.720   0.612
 2319SOL     OW 6969   3.703   3.899   0.963
 2319SOL    HW1 6970   3.742   3.814   0.927
 2319SOL    HW2 6971   3.605   3.901   0.944
 2320SOL     OW 6972   2.125   4.050   0.720
 2320SOL    HW1 6973   2.046   4.101   0.686
 2320SOL    HW2 6974   2.116   4.035   0.818
 2321SOL     OW 6975   2.901   4.822   0.696
 2321SOL    HW1 6976   2.831   4.775   0.750
 2321SOL    HW2 6977   2.960   4.754   0.653
 2322SOL     OW 6978   2.876   3.960   0.971
 2322SOL    HW1 6979   2.868   3.924   0.878
 2322SOL    HW2 6980   2.874   3.884   1.036
 2323SOL     OW 6981   3.571   4.109   1.381
 2323SOL    HW1 6982   3.644   4.178   1.385
 2323SOL    HW2 6983   3.599   4.034   1.322
 2324SOL     OW 6984   2.534   3.927   1.489
 2324SOL    HW1 6985   2.624   3.911   1.449
 2324SOL    HW2 6986   2.542   3.932   1.588
 2325SOL     OW 6987   1.937   4.069   0.033
 2325SOL    HW1 6988   1.845   4.041   0.004
 2325SOL    HW2 6989   1.968   4.146  -0.023
 2326SOL     OW 6990   2.578   4.289   1.708
 2326SOL    HW1 6991   2.597   4.354   1.782
 2326SOL    HW2 6992   2.638   4.209   1.717
 2327SOL     OW 6993   3.087   4.049   0.449
 2327SOL    HW1 6994   3.152   3.975   0.438
 2327SOL    HW2 6995   3.107   4.099   0.533
 2328SOL     OW 6996   3.639   4.066   1.642
 2328SOL    HW1 6997   3.622   4.097   1.548
 2328SOL    HW2 6998   3.555   4.029   1.680
 2329SOL     OW 6999   2.945   4.708   0.087
 2329SOL    HW1 7000   2.922   4.761   0.005
 2329SOL    HW2 7001   3.026   4.652   0.068
 2330SOL     OW 7002   3.686   3.916   1.227
 2330SOL    HW1 7003   3.682   3.826   1.271
 2330SOL    HW2 7004   3.689   3.905   1.128
 2331SOL     OW 7005   2.290   4.148   0.520
 2331SOL    HW1 7006   2.320   4.076   0.458
 2331SOL    HW2 7007   2.251   4.108   0.603
 2332SOL     OW 7008   2.179   4.271   1.280
 2332SOL    HW1 7009   2.217   4.212   1.352
 2332SOL    HW2 7010   2.219   4.245   1.192
 2333SOL     OW 7011   3.286   3.938   1.112
 2333SOL    HW1 7012   3.338   3.873   1.167
 2333SOL    HW2 7013   3.237   4.001   1.173
 2334SOL     OW 7014   2.863   3.758   1.154
 2334SOL    HW1 7015   2.800   3.686   1.123
 2334SOL    HW2 7016   2.956   3.722   1.154
 2335SOL     OW 7017   3.214   3.776   0.168
 2335SOL    HW1 7018   3.249   3.735   0.084
 2335SOL    HW2 7019   3.124   3.738   0.188
 2336SOL     OW 7020   3.162   4.177   0.691
 2336SOL    HW1 7021   3.103   4.257   0.695
 2336SOL    HW2 7022   3.177   4.142   0.784
 2337SOL     OW 7023   3.455   3.945   0.882
 2337SOL    HW1 7024   3.371   3.944   0.936
 2337SOL    HW2 7025   3.457   4.028   0.826
 2338SOL     OW 7026   2.092   4.352   1.975
 2338SOL    HW1 7027   1.999   4.350   2.012
 2338SOL    HW2 7028   2.093   4.313   1.883
 2339SOL     OW 7029   2.087   3.999   2.858
 2339SOL    HW1 7030   2.122   3.982   2.950
 2339SOL    HW2 7031   1.999   3.954   2.846
 2340SOL     OW 7032   1.881   4.092   2.509
 2340SOL    HW1 7033   1.799   4.135   2.548
 2340SOL    HW2 7034   1.853   4.019   2.446
 2341SOL     OW 7035   3.617   4.331   2.093
 2341SOL    HW1 7036   3.605   4.318   1.994
 2341SOL    HW2 7037   3.587   4.250   2.142
 2342SOL     OW 7038   2.712   4.522   3.685
 2342SOL    HW1 7039   2.708   4.598   3.750
 2342SOL    HW2 7040   2.734   4.558   3.594
 2343SOL     OW 7041   2.547   4.736   2.527
 2343SOL    HW1 7042   2.616   4.720   2.597
 2343SOL    HW2 7043   2.474   4.793   2.565
 2344SOL     OW 7044   2.300   4.116   3.361
 2344SOL    HW1 7045   2.382   4.060   3.370
 2344SOL    HW2 7046   2.219   4.058   3.365
 2345SOL     OW 7047   3.465   4.171   2.599
 2345SOL    HW1 7048   3.391   4.217   2.549
 2345SOL    HW2 7049   3.516   4.239   2.652
 2346SOL     OW 7050   3.456   3.838   3.342
 2346SOL    HW1 7051   3.438   3.905   3.270
 2346SOL    HW2 7052   3.453   3.884   3.431
 2347SOL     OW 7053   1.984   4.367   2.425
 2347SOL    HW1 7054   1.939   4.279   2.442
 2347SOL    HW2 7055   1.983   4.421   2.509
 2348SOL     OW 7056   1.975   4.461   3.459
 2348SOL    HW1 7057   2.063   4.448   3.504
 2348SOL    HW2 7058   1.962   4.558   3.437
 2349SOL     OW 7059   2.671   3.728   2.364
 2349SOL    HW1 7060   2.711   3.819   2.355
 2349SOL    HW2 7061   2.571   3.736   2.370
 2350SOL     OW 7062   2.179   3.975   3.663
 2350SOL    HW1 7063   2.250   4.046   3.669
 2350SOL    HW2 7064   2.091   4.014   3.691
 2351SOL     OW 7065   3.143   4.069   2.806
 2351SOL    HW1 7066   3.057   4.019   2.793
 2351SOL    HW2 7067   3.205   4.015   2.862
 2352SOL     OW 7068   2.669   4.329   3.327
 2352SOL    HW1 7069   2.622   4.326   3.416
 2352SOL    HW2 7070   2.618   4.274   3.261
 2353SOL     OW 7071   3.256   4.193   3.536
 2353SOL    HW1 7072   3.236   4.236   3.624
 2353SOL    HW2 7073   3.334   4.131   3.545
 2354SOL     OW 7074   2.853   4.134   3.104
 2354SOL    HW1 7075   2.776   4.168   3.158
 2354SOL    HW2 7076   2.819   4.083   3.025
 2355SOL     OW 7077   2.903   4.425   2.291
 2355SOL    HW1 7078   2.929   4.421   2.387
 2355SOL    HW2 7079   2.818   4.374   2.277
 2356SOL     OW 7080   2.727   4.072   2.057
 2356SOL    HW1 7081   2.786   4.135   2.008
 2356SOL    HW2 7082   2.746   3.978   2.028
 2357SOL     OW 7083   3.581   4.309   3.693
 2357SOL    HW1 7084   3.555   4.398   3.657
 2357SOL    HW2 7085   3.579   4.241   3.620
 2358SOL     OW 7086   2.412   3.920   2.747
 2358SOL    HW1 7087   2.407   3.915   2.847
 2358SOL    HW2 7088   2.414   4.016   2.718
 2359SOL     OW 7089   3.320   4.459   2.590
 2359SOL    HW1 7090   3.315   4.394   2.665
 2359SOL    HW2 7091   3.400   4.518   2.603
 2360SOL     OW 7092   2.064   4.009   3.360
 2360SOL    HW1 7093   1.984   4.069   3.347
 2360SOL    HW2 7094   2.054   3.960   3.446
 2361SOL     OW 7095   3.262   3.831   2.288
 2361SOL    HW1 7096   3.238   3.794   2.198
 2361SOL    HW2 7097   3.361   3.847   2.292
 2362SOL     OW 7098   2.244   4.424   2.342
 2362SOL    HW1 7099   2.289   4.334   2.339
 2362SOL    HW2 7100   2.150   4.413   2.375
 2363SOL     OW 7101   3.409   3.946   3.591
 2363SOL    HW1 7102   3.404   3.983   3.683
 2363SOL    HW2 7103   3.337   3.877   3.579
 2364SOL     OW 7104   2.476   3.846   1.979
 2364SOL    HW1 7105   2.574   3.824   1.986
 2364SOL    HW2 7106   2.445   3.829   1.886
 2365SOL     OW 7107   2.643   3.988   3.611
 2365SOL    HW1 7108   2.710   3.927   3.654
 2365SOL    HW2 7109   2.570   4.007   3.676
 2366SOL     OW 7110   3.213   4.314   3.295
 2366SOL    HW1 7111   3.241   4.271   3.380
 2366SOL    HW2 7112   3.238   4.410   3.296
 2367SOL     OW 7113   2.784   4.227   2.761
 2367SOL    HW1 7114   2.759   4.218   2.665
 2367SOL    HW2 7115   2.832   4.145   2.792
 2368SOL     OW 7116   2.401   3.788   2.374
 2368SOL    HW1 7117   2.320   3.789   2.432
 2368SOL    HW2 7118   2.404   3.871   2.319
 2369SOL     OW 7119   2.159   3.759   2.033
 2369SOL    HW1 7120   2.208   3.843   2.012
 2369SOL    HW2 7121   2.221   3.694   2.078
 2370SOL     OW 7122   2.797   3.960   2.342
 2370SOL    HW1 7123   2.749   4.001   2.264
 2370SOL    HW2 7124   2.896   3.958   2.323
 2371SOL     OW 7125   2.938   4.407   3.326
 2371SOL    HW1 7126   2.858   4.346   3.329
 2371SOL    HW2 7127   3.019   4.354   3.302
 2372SOL     OW 7128   2.894   4.273   1.878
 2372SOL    HW1 7129   2.853   4.355   1.839
 2372SOL    HW2 7130   2.958   4.299   1.951
 2373SOL     OW 7131   1.940   4.280   3.248
 2373SOL    HW1 7132   2.032   4.279   3.207
 2373SOL    HW2 7133   1.934   4.354   3.315
 2374SOL     OW 7134   2.423   3.946   3.009
 2374SOL    HW1 7135   2.461   3.862   3.046
 2374SOL    HW2 7136   2.335   3.965   3.053
 2375SOL     OW 7137   2.728   4.178   2.504
 2375SOL    HW1 7138   2.696   4.250   2.442
 2375SOL    HW2 7139   2.752   4.097   2.451
 2376SOL     OW 7140   2.879   3.763   2.615
 2376SOL    HW1 7141   2.807   3.768   2.546
 2376SOL    HW2 7142   2.855   3.694   2.684
 2377SOL     OW 7143   3.328   4.314   2.854
 2377SOL    HW1 7144   3.298   4.219   2.861
 2377SOL    HW2 7145   3.401   4.330   2.920
 2378SOL     OW 7146   3.252   4.299   1.940
 2378SOL    HW1 7147   3.198   4.278   2.021
 2378SOL    HW2 7148   3.343   4.258   1.949
 2379SOL     OW 7149   2.389   3.980   2.190
 2379SOL    HW1 7150   2.416   3.921   2.115
 2379SOL    HW2 7151   2.389   4.075   2.159
 2380SOL     OW 7152   2.777   3.813   3.264
 2380SOL    HW1 7153   2.802   3.793   3.169
 2380SOL    HW2 7154   2.849   3.869   3.306
 2381SOL     OW 7155   2.272   4.537   3.113
 2381SOL    HW1 7156   2.358   4.549   3.163
 2381SOL    HW2 7157   2.230   4.450   3.140
 2382SOL     OW 7158   3.136   4.110   3.124
 2382SOL    HW1 7159   3.157   4.184   3.188
 2382SOL    HW2 7160   3.047   4.127   3.081
 2383SOL     OW 7161   2.428   4.261   2.727
 2383SOL    HW1 7162   2.440   4.327   2.653
 2383SOL    HW2 7163   2.474   4.295   2.810
 2384SOL     OW 7164   3.444   4.363   2.334
 2384SOL    HW1 7165   3.413   4.424   2.407
 2384SOL    HW2 7166   3.494   4.415   2.265
 2385SOL     OW 7167   2.875   3.829   3.632
 2385SOL    HW1 7168   2.881   3.914   3.580
 2385SOL    HW2 7169   2.907   3.753   3.575
 2386SOL     OW 7170   2.366   3.774   3.602
 2386SOL    HW1 7171   2.324   3.717   3.532
 2386SOL    HW2 7172   2.300   3.843   3.634
 2387SOL     OW 7173   3.071   4.249   2.137
 2387SOL    HW1 7174   3.084   4.165   2.191
 2387SOL    HW2 7175   3.042   4.323   2.197
 2388SOL     OW 7176   2.169   3.937   3.093
 2388SOL    HW1 7177   2.146   3.974   3.183
 2388SOL    HW2 7178   2.139   3.842   3.087
 2389SOL     OW 7179   2.594   4.358   2.926
 2389SOL    HW1 7180   2.653   4.332   2.850
 2389SOL    HW2 7181   2.566   4.454   2.915
 2390SOL     OW 7182   3.590   4.659   3.716
 2390SOL    HW1 7183   3.544   4.652   3.627
 2390SOL    HW2 7184   3.528   4.703   3.782
 2391SOL     OW 7185   2.169   3.787   2.480
 2391SOL    HW1 7186   2.158   3.881   2.513
 2391SOL    HW2 7187   2.164   3.724   2.557
 2392SOL     OW 7188   3.484   4.091   2.236
 2392SOL    HW1 7189   3.486   4.015   2.300
 2392SOL    HW2 7190   3.436   4.168   2.276
 2393SOL     OW 7191   3.402   3.998   1.987
 2393SOL    HW1 7192   3.341   3.923   2.010
 2393SOL    HW2 7193   3.424   4.050   2.070
 2394SOL     OW 7194   2.181   4.534   2.811
 2394SOL    HW1 7195   2.274   4.570   2.816
 2394SOL    HW2 7196   2.175   4.449   2.863
 2395SOL     OW 7197   2.201   4.233   2.868
 2395SOL    HW1 7198   2.149   4.150   2.851
 2395SOL    HW2 7199   2.278   4.238   2.804
 2396SOL     OW 7200   3.000   4.104   3.540
 2396SOL    HW1 7201   2.955   4.167   3.604
 2396SOL    HW2 7202   3.093   4.135   3.523
 2397SOL     OW 7203   3.022   3.931   3.339
 2397SOL    HW1 7204   3.022   3.995   3.416
 2397SOL    HW2 7205   3.050   3.979   3.256
 2398SOL     OW 7206   1.902   4.268   2.976
 2398SOL    HW1 7207   1.987   4.235   2.935
 2398SOL    HW2 7208   1.915   4.283   3.074
 2399SOL     OW 7209   2.051   4.244   3.584
 2399SOL    HW1 7210   2.110   4.204   3.514
 2399SOL    HW2 7211   1.993   4.315   3.543
 2400SOL     OW 7212   2.677   4.296   2.187
 2400SOL    HW1 7213   2.684   4.207   2.141
 2400SOL    HW2 7214   2.583   4.330   2.179
 2401SOL     OW 7215   3.519   4.328   3.068
 2401SOL    HW1 7216   3.481   4.259   3.130
 2401SOL    HW2 7217   3.601   4.292   3.024
 2402SOL     OW 7218   2.533   4.188   3.131
 2402SOL    HW1 7219   2.499   4.099   3.101
 2402SOL    HW2 7220   2.559   4.242   3.051
 2403SOL     OW 7221   2.335   4.224   2.053
 2403SOL    HW1 7222   2.396   4.304   2.057
 2403SOL    HW2 7223   2.240   4.255   2.060
 2404SOL     OW 7224   3.588   3.859   2.385
 2404SOL    HW1 7225   3.661   3.842   2.318
 2404SOL    HW2 7226   3.557   3.772   2.423
 2405SOL     OW 7227   3.142   4.651   2.534
 2405SOL    HW1 7228   3.202   4.570   2.536
 2405SOL    HW2 7229   3.182   4.720   2.474
 2406SOL     OW 7230   3.703   3.899   2.825
 2406SOL    HW1 7231   3.742   3.814   2.789
 2406SOL    HW2 7232   3.605   3.901   2.806
 2407SOL     OW 7233   2.125   4.050   2.582
 2407SOL    HW1 7234   2.046   4.101   2.548
 2407SOL    HW2 7235   2.116   4.035   2.680
 2408SOL     OW 7236   2.778   4.634   2.153
 2408SOL    HW1 7237   2.841   4.672   2.085
 2408SOL    HW2 7238   2.818   4.551   2.192
 2409SOL     OW 7239   2.901   4.822   2.558
 2409SOL    HW1 7240   2.831   4.775   2.612
 2409SOL    HW2 7241   2.960   4.754   2.515
 2410SOL     OW 7242   2.876   3.960   2.833
 2410SOL    HW1 7243   2.868   3.924   2.740
 2410SOL    HW2 7244   2.874   3.884   2.898
 2411SOL     OW 7245   3.571   4.109   3.243
 2411SOL    HW1 7246   3.644   4.178   3.247
 2411SOL    HW2 7247   3.599   4.034   3.184
 2412SOL     OW 7248   2.534   3.927   3.351
 2412SOL    HW1 7249   2.624   3.911   3.311
 2412SOL    HW2 7250   2.542   3.932   3.450
 2413SOL     OW 7251   1.937   4.069   1.895
 2413SOL    HW1 7252   1.845   4.041   1.866
 2413SOL    HW2 7253   1.968   4.146   1.839
 2414SOL     OW 7254   1.934   3.890   2.180
 2414SOL    HW1 7255   1.917   3.973   2.126
 2414SOL    HW2 7256   2.024   3.853   2.158
 2415SOL     OW 7257   2.578   4.289   3.570
 2415SOL    HW1 7258   2.597   4.354   3.644
 2415SOL    HW2 7259   2.638   4.209   3.579
 2416SOL     OW 7260   3.087   4.049   2.311
 2416SOL    HW1 7261   3.152   3.975   2.300
 2416SOL    HW2 7262   3.107   4.099   2.395
 2417SOL     OW 7263   3.639   4.066   3.504
 2417SOL    HW1 7264   3.622   4.097   3.410
 2417SOL    HW2 7265   3.555   4.029   3.542
 2418SOL     OW 7266   2.945   4.708   1.949
 2418SOL    HW1 7267   2.922   4.761   1.867
 2418SOL    HW2 7268   3.026   4.652   1.930
 2419SOL     OW 7269   3.686   3.916   3.089
 2419SOL    HW1 7270   3.682   3.826   3.133
 2419SOL    HW2 7271   3.689   3.905   2.990
 2420SOL     OW 7272   2.290   4.148   2.382
 2420SOL    HW1 7273   2.320   4.076   2.320
 2420SOL    HW2 7274   2.251   4.108   2.465
 2421SOL     OW 7275   2.179   4.271   3.142
 2421SOL    HW1 7276   2.217   4.212   3.214
 2421SOL    HW2 7277   2.219   4.245   3.054
 2422SOL     OW 7278   3.286   3.938   2.974
 2422SOL    HW1 7279   3.338   3.873   3.029
 2422SOL    HW2 7280   3.237   4.001   3.035
 2423SOL     OW 7281   2.863   3.758   3.016
 2423SOL    HW1 7282   2.800   3.686   2.985
 2423SOL    HW2 7283   2.956   3.722   3.016
 2424SOL     OW 7284   3.214   3.776   2.030
 2424SOL    HW1 7285   3.249   3.735   1.946
 2424SOL    HW2 7286   3.124   3.738   2.050
 2425SOL     OW 7287   3.162   4.177   2.553
 2425SOL    HW1 7288   3.103   4.257   2.557
 2425SOL    HW2 7289   3.177   4.142   2.646
 2426SOL     OW 7290   3.455   3.945   2.744
 2426SOL    HW1 7291   3.371   3.944   2.798
 2426SOL    HW2 7292   3.457   4.028   2.688
 2427SOL     OW 7293   2.092   4.352   3.837
 2427SOL    HW1 7294   1.999   4.350   3.874
 2427SOL    HW2 7295   2.093   4.313   3.745
 2428SOL     OW 7296   2.087   3.999   4.720
 2428SOL    HW1 7297   2.122   3.982   4.812
 2428SOL    HW2 7298   1.999   3.954   4.708
 2429SOL     OW 7299   3.617   4.331   3.955
 2429SOL    HW1 7300   3.605   4.318   3.856
 2429SOL    HW2 7301   3.587   4.250   4.004
 2430SOL     OW 7302   2.547   4.736   4.389
 2430SOL    HW1 7303   2.616   4.720   4.459
 2430SOL    HW2 7304   2.474   4.793   4.427
 2431SOL     OW 7305   3.465   4.171   4.461
 2431SOL    HW1 7306   3.391   4.217   4.411
 2431SOL    HW2 7307   3.516   4.239   4.514
 2432SOL     OW 7308   1.984   4.367   4.287
 2432SOL    HW1 7309   1.939   4.279   4.304
 2432SOL    HW2 7310   1.983   4.421   4.371
 2433SOL     OW 7311   2.671   3.728   4.226
 2433SOL    HW1 7312   2.711   3.819   4.217
 2433SOL    HW2 7313   2.571   3.736   4.232
 2434SOL     OW 7314   3.143   4.069   4.668
 2434SOL    HW1 7315   3.057   4.019   4.655
 2434SOL    HW2 7316   3.205   4.015   4.724
 2435SOL     OW 7317   2.903   4.425   4.153
 2435SOL    HW1 7318   2.929   4.421   4.249
 2435SOL    HW2 7319   2.818   4.374   4.139
 2436SOL     OW 7320   2.727   4.072   3.919
 2436SOL    HW1 7321   2.786   4.135   3.870
 2436SOL    HW2 7322   2.746   3.978   3.890
 2437SOL     OW 7323   3.262   3.831   4.150
 2437SOL    HW1 7324   3.238   3.794   4.060
 2437SOL    HW2 7325   3.361   3.847   4.154
 2438SOL     OW 7326   2.244   4.424   4.204
 2438SOL    HW1 7327   2.289   4.334   4.201
 2438SOL    HW2 7328   2.150   4.413   4.237
 2439SOL     OW 7329   2.476   3.846   3.841
 2439SOL    HW1 7330   2.574   3.824   3.848
 2439SOL    HW2 7331   2.445   3.829   3.748
 2440SOL     OW 7332   2.401   3.788   4.236
 2440SOL    HW1 7333   2.320   3.789   4.294
 2440SOL    HW2 7334   2.404   3.871   4.181
 2441SOL     OW 7335   2.159   3.759   3.895
 2441SOL    HW1 7336   2.208   3.843   3.874
 2441SOL    HW2 7337   2.221   3.694   3.940
 2442SOL     OW 7338   2.797   3.960   4.204
 2442SOL    HW1 7339   2.749   4.001   4.126
 2442SOL    HW2 7340   2.896   3.958   4.185
 2443SOL     OW 7341   2.894   4.273   3.740
 2443SOL    HW1 7342   2.853   4.355   3.701
 2443SOL    HW2 7343   2.958   4.299   3.813
 2444SOL     OW 7344   2.728   4.178   4.366
 2444SOL    HW1 7345   2.696   4.250   4.304
 2444SOL    HW2 7346   2.752   4.097   4.313
 2445SOL     OW 7347   3.252   4.299   3.802
 2445SOL    HW1 7348   3.198   4.278   3.883
 2445SOL    HW2 7349   3.343   4.258   3.811
 2446SOL     OW 7350   2.389   3.980   4.052
 2446SOL    HW1 7351   2.416   3.921   3.977
 2446SOL    HW2 7352   2.389   4.075   4.021
 2447SOL     OW 7353   3.444   4.363   4.196
 2447SOL    HW1 7354   3.413   4.424   4.269
 2447SOL    HW2 7355   3.494   4.415   4.127
 2448SOL     OW 7356   3.071   4.249   3.999
 2448SOL    HW1 7357   3.084   4.165   4.053
 2448SOL    HW2 7358   3.042   4.323   4.059
 2449SOL     OW 7359   2.169   3.787   4.342
 2449SOL    HW1 7360   2.158   3.881   4.375
 2449SOL    HW2 7361   2.164   3.724   4.419
 2450SOL     OW 7362   3.484   4.091   4.098
 2450SOL    HW1 7363   3.486   4.015   4.162
 2450SOL    HW2 7364   3.436   4.168   4.138
 2451SOL     OW 7365   3.402   3.998   3.849
 2451SOL    HW1 7366   3.341   3.923   3.872
 2451SOL    HW2 7367   3.424   4.050   3.932
 2452SOL     OW 7368   2.677   4.296   4.049
 2452SOL    HW1 7369   2.684   4.207   4.003
 2452SOL    HW2 7370   2.583   4.330   4.041
 2453SOL     OW 7371   2.335   4.224   3.915
 2453SOL    HW1 7372   2.396   4.304   3.919
 2453SOL    HW2 7373   2.240   4.255   3.922
 2454SOL     OW 7374   3.588   3.859   4.247
 2454SOL    HW1 7375   3.661   3.842   4.180
 2454SOL    HW2 7376   3.557   3.772   4.285
 2455SOL     OW 7377   3.142   4.651   4.396
 2455SOL    HW1 7378   3.202   4.570   4.398
 2455SOL    HW2 7379   3.182   4.720   4.336
 2456SOL     OW 7380   3.703   3.899   4.687
 2456SOL    HW1 7381   3.742   3.814   4.651
 2456SOL    HW2 7382   3.605   3.901   4.668
 2457SOL     OW 7383   2.778   4.634   4.015
 2457SOL    HW1 7384   2.841   4.672   3.947
 2457SOL    HW2 7385   2.818   4.551   4.054
 2458SOL     OW 7386   1.937   4.069   3.757
 2458SOL    HW1 7387   1.845   4.041   3.728
 2458SOL    HW2 7388   1.968   4.146   3.701
 2459SOL     OW 7389   1.934   3.890   4.042
 2459SOL    HW1 7390   1.917   3.973   3.988
 2459SOL    HW2 7391   2.024   3.853   4.020
 2460SOL     OW 7392   3.087   4.049   4.173
 2460SOL    HW1 7393   3.152   3.975   4.162
 2460SOL    HW2 7394   3.107   4.099   4.257
 2461SOL     OW 7395   2.945   4.708   3.811
 2461SOL    HW1 7396   2.922   4.761   3.729
 2461SOL    HW2 7397   3.026   4.652   3.792
 2462SOL     OW 7398   2.290   4.148   4.244
 2462SOL    HW1 7399   2.320   4.076   4.182
 2462SOL    HW2 7400   2.251   4.108   4.327
 2463SOL     OW 7401   3.214   3.776   3.892
 2463SOL    HW1 7402   3.249   3.735   3.808
 2463SOL    HW2 7403   3.124   3.738   3.912
 2464SOL     OW 7404   3.162   4.177   4.415
 2464SOL    HW1 7405   3.103   4.257   4.419
 2464SOL    HW2 7406   3.177   4.142   4.508
 2465SOL     OW 7407   3.954   0.628   0.113
 2465SOL    HW1 7408   3.861   0.626   0.150
 2465SOL    HW2 7409   3.955   0.589   0.021
 2466SOL     OW 7410   3.949   0.275   0.996
 2466SOL    HW1 7411   3.984   0.258   1.088
 2466SOL    HW2 7412   3.861   0.230   0.984
 2467SOL     OW 7413   3.743   0.368   0.647
 2467SOL    HW1 7414   3.661   0.411   0.686
 2467SOL    HW2 7415   3.715   0.295   0.584
 2468SOL     OW 7416   4.293   1.275   1.165
 2468SOL    HW1 7417   4.200   1.268   1.128
 2468SOL    HW2 7418   4.304   1.364   1.209
 2469SOL     OW 7419   4.574   0.798   1.823
 2469SOL    HW1 7420   4.570   0.874   1.888
 2469SOL    HW2 7421   4.596   0.834   1.732
 2470SOL     OW 7422   4.409   1.012   0.665
 2470SOL    HW1 7423   4.478   0.996   0.735
 2470SOL    HW2 7424   4.336   1.069   0.703
 2471SOL     OW 7425   4.410   1.161   1.803
 2471SOL    HW1 7426   4.470   1.240   1.817
 2471SOL    HW2 7427   4.324   1.192   1.762
 2472SOL     OW 7428   4.059   1.435   1.061
 2472SOL    HW1 7429   3.981   1.404   1.008
 2472SOL    HW2 7430   4.117   1.493   1.004
 2473SOL     OW 7431   4.162   0.392   1.499
 2473SOL    HW1 7432   4.244   0.336   1.508
 2473SOL    HW2 7433   4.081   0.334   1.503
 2474SOL     OW 7434   3.955   1.713   0.483
 2474SOL    HW1 7435   3.989   1.790   0.537
 2474SOL    HW2 7436   3.999   1.713   0.393
 2475SOL     OW 7437   3.954   1.434   0.538
 2475SOL    HW1 7438   3.928   1.530   0.538
 2475SOL    HW2 7439   3.883   1.380   0.583
 2476SOL     OW 7440   3.964   1.091   0.886
 2476SOL    HW1 7441   3.978   1.007   0.938
 2476SOL    HW2 7442   3.909   1.155   0.941
 2477SOL     OW 7443   4.344   1.786   1.439
 2477SOL    HW1 7444   4.252   1.769   1.474
 2477SOL    HW2 7445   4.372   1.878   1.465
 2478SOL     OW 7446   4.330   0.964   0.123
 2478SOL    HW1 7447   4.337   1.048   0.069
 2478SOL    HW2 7448   4.376   0.977   0.211
 2479SOL     OW 7449   3.846   0.643   0.563
 2479SOL    HW1 7450   3.801   0.555   0.580
 2479SOL    HW2 7451   3.845   0.697   0.647
 2480SOL     OW 7452   3.751   1.596   0.117
 2480SOL    HW1 7453   3.732   1.500   0.138
 2480SOL    HW2 7454   3.718   1.654   0.192
 2481SOL     OW 7455   3.837   0.737   1.597
 2481SOL    HW1 7456   3.925   0.724   1.642
 2481SOL    HW2 7457   3.824   0.834   1.575
 2482SOL     OW 7458   4.337   1.365   0.726
 2482SOL    HW1 7459   4.288   1.278   0.735
 2482SOL    HW2 7460   4.314   1.408   0.639
 2483SOL     OW 7461   4.533   0.004   0.502
 2483SOL    HW1 7462   4.573   0.095   0.493
 2483SOL    HW2 7463   4.433   0.012   0.508
 2484SOL     OW 7464   3.921   0.976   1.264
 2484SOL    HW1 7465   4.010   0.931   1.250
 2484SOL    HW2 7466   3.848   0.911   1.245
 2485SOL     OW 7467   4.041   0.251   1.801
 2485SOL    HW1 7468   4.112   0.322   1.807
 2485SOL    HW2 7469   3.953   0.290   1.829
 2486SOL     OW 7470   4.322   0.729   0.270
 2486SOL    HW1 7471   4.346   0.798   0.202
 2486SOL    HW2 7472   4.244   0.762   0.324
 2487SOL     OW 7473   3.800   0.811   0.789
 2487SOL    HW1 7474   3.899   0.799   0.798
 2487SOL    HW2 7475   3.776   0.906   0.810
 2488SOL     OW 7476   3.854   1.821   1.571
 2488SOL    HW1 7477   3.844   1.806   1.670
 2488SOL    HW2 7478   3.768   1.857   1.535
 2489SOL     OW 7479   4.274   0.196   0.885
 2489SOL    HW1 7480   4.269   0.191   0.985
 2489SOL    HW2 7481   4.276   0.292   0.856
 2490SOL     OW 7482   4.075   1.801   0.853
 2490SOL    HW1 7483   4.125   1.715   0.859
 2490SOL    HW2 7484   4.140   1.878   0.850
 2491SOL     OW 7485   4.045   0.943   0.242
 2491SOL    HW1 7486   4.127   0.982   0.200
 2491SOL    HW2 7487   4.018   0.861   0.193
 2492SOL     OW 7488   4.185   1.266   1.727
 2492SOL    HW1 7489   4.135   1.267   1.641
 2492SOL    HW2 7490   4.122   1.248   1.803
 2493SOL     OW 7491   3.926   0.285   1.498
 2493SOL    HW1 7492   3.846   0.345   1.485
 2493SOL    HW2 7493   3.916   0.236   1.584
 2494SOL     OW 7494   4.188   1.743   0.323
 2494SOL    HW1 7495   4.221   1.782   0.409
 2494SOL    HW2 7496   4.264   1.736   0.258
 2495SOL     OW 7497   3.973   1.785   1.241
 2495SOL    HW1 7498   4.030   1.720   1.291
 2495SOL    HW2 7499   3.957   1.752   1.148
 2496SOL     OW 7500   4.106   0.700   0.480
 2496SOL    HW1 7501   4.151   0.610   0.477
 2496SOL    HW2 7502   4.012   0.689   0.513
 2497SOL     OW 7503   4.338   0.122   0.117
 2497SOL    HW1 7504   4.436   0.100   0.124
 2497SOL    HW2 7505   4.307   0.105   0.024
 2498SOL     OW 7506   4.527   1.402   0.924
 2498SOL    HW1 7507   4.617   1.416   0.882
 2498SOL    HW2 7508   4.456   1.404   0.853
 2499SOL     OW 7509   4.263   0.064   0.512
 2499SOL    HW1 7510   4.182   0.065   0.570
 2499SOL    HW2 7511   4.266   0.147   0.457
 2500SOL     OW 7512   4.021   0.035   0.171
 2500SOL    HW1 7513   4.070   0.119   0.150
 2500SOL    HW2 7514   4.083  -0.030   0.216
 2501SOL     OW 7515   4.800   0.683   1.464
 2501SOL    HW1 7516   4.720   0.622   1.467
 2501SOL    HW2 7517   4.881   0.630   1.440
 2502SOL     OW 7518   4.183   1.152   0.741
 2502SOL    HW1 7519   4.112   1.125   0.806
 2502SOL    HW2 7520   4.157   1.124   0.648
 2503SOL     OW 7521   3.802   0.556   1.386
 2503SOL    HW1 7522   3.894   0.555   1.345
 2503SOL    HW2 7523   3.796   0.630   1.453
 2504SOL     OW 7524   4.285   0.222   1.147
 2504SOL    HW1 7525   4.323   0.138   1.184
 2504SOL    HW2 7526   4.197   0.241   1.191
 2505SOL     OW 7527   4.212   1.385   0.174
 2505SOL    HW1 7528   4.125   1.370   0.221
 2505SOL    HW2 7529   4.195   1.411   0.079
 2506SOL     OW 7530   4.251   0.256   0.328
 2506SOL    HW1 7531   4.278   0.197   0.253
 2506SOL    HW2 7532   4.251   0.351   0.297
 2507SOL     OW 7533   4.134   0.813   1.251
 2507SOL    HW1 7534   4.220   0.825   1.301
 2507SOL    HW2 7535   4.092   0.726   1.278
 2508SOL     OW 7536   3.788   1.564   1.331
 2508SOL    HW1 7537   3.742   1.646   1.297
 2508SOL    HW2 7538   3.886   1.583   1.340
 2509SOL     OW 7539   4.091   1.100   0.501
 2509SOL    HW1 7540   4.084   1.183   0.445
 2509SOL    HW2 7541   4.095   1.020   0.441
 2510SOL     OW 7542   4.290   0.537   0.865
 2510SOL    HW1 7543   4.302   0.603   0.791
 2510SOL    HW2 7544   4.336   0.571   0.948
 2511SOL     OW 7545   4.078   1.510   1.329
 2511SOL    HW1 7546   4.057   1.466   1.242
 2511SOL    HW2 7547   4.175   1.536   1.332
 2512SOL     OW 7548   4.126   0.751   1.598
 2512SOL    HW1 7549   4.194   0.806   1.551
 2512SOL    HW2 7550   4.166   0.663   1.625
 2513SOL     OW 7551   4.228   0.050   1.740
 2513SOL    HW1 7552   4.186  -0.007   1.670
 2513SOL    HW2 7553   4.162   0.119   1.772
 2514SOL     OW 7554   4.297   0.870   1.029
 2514SOL    HW1 7555   4.341   0.959   1.020
 2514SOL    HW2 7556   4.234   0.870   1.106
 2515SOL     OW 7557   4.031   0.213   1.231
 2515SOL    HW1 7558   4.008   0.250   1.321
 2515SOL    HW2 7559   4.001   0.118   1.225
 2516SOL     OW 7560   3.761   1.310   1.282
 2516SOL    HW1 7561   3.814   1.261   1.350
 2516SOL    HW2 7562   3.783   1.408   1.287
 2517SOL     OW 7563   4.031   0.063   0.618
 2517SOL    HW1 7564   4.020   0.157   0.651
 2517SOL    HW2 7565   4.026   0.000   0.695
 2518SOL     OW 7566   4.074   0.898   1.804
 2518SOL    HW1 7567   4.150   0.942   1.852
 2518SOL    HW2 7568   4.109   0.851   1.722
 2519SOL     OW 7569   4.043   0.810   0.949
 2519SOL    HW1 7570   4.136   0.846   0.954
 2519SOL    HW2 7571   4.037   0.725   1.001
 2520SOL     OW 7572   4.063   0.509   1.006
 2520SOL    HW1 7573   4.011   0.426   0.989
 2520SOL    HW2 7574   4.140   0.514   0.942
 2521SOL     OW 7575   3.732   1.326   0.200
 2521SOL    HW1 7576   3.639   1.347   0.169
 2521SOL    HW2 7577   3.742   1.227   0.213
 2522SOL     OW 7578   3.812   1.801   0.927
 2522SOL    HW1 7579   3.770   1.715   0.900
 2522SOL    HW2 7580   3.906   1.804   0.893
 2523SOL     OW 7581   4.228   1.568   0.910
 2523SOL    HW1 7582   4.294   1.642   0.919
 2523SOL    HW2 7583   4.272   1.489   0.868
 2524SOL     OW 7584   3.764   0.544   1.114
 2524SOL    HW1 7585   3.849   0.511   1.073
 2524SOL    HW2 7586   3.777   0.559   1.212
 2525SOL     OW 7587   3.913   0.520   1.722
 2525SOL    HW1 7588   3.972   0.480   1.652
 2525SOL    HW2 7589   3.855   0.591   1.681
 2526SOL     OW 7590   4.539   0.572   0.325
 2526SOL    HW1 7591   4.546   0.483   0.279
 2526SOL    HW2 7592   4.445   0.606   0.317
 2527SOL     OW 7593   3.976   1.564   1.744
 2527SOL    HW1 7594   3.946   1.621   1.820
 2527SOL    HW2 7595   3.969   1.467   1.770
 2528SOL     OW 7596   4.197   0.500   0.191
 2528SOL    HW1 7597   4.258   0.580   0.195
 2528SOL    HW2 7598   4.102   0.531   0.198
 2529SOL     OW 7599   3.883   1.137   1.466
 2529SOL    HW1 7600   3.905   1.076   1.542
 2529SOL    HW2 7601   3.893   1.088   1.380
 2530SOL     OW 7602   3.807   1.258   1.022
 2530SOL    HW1 7603   3.802   1.257   1.122
 2530SOL    HW2 7604   3.724   1.217   0.984
 2531SOL     OW 7605   4.412   1.662   1.716
 2531SOL    HW1 7606   4.356   1.743   1.725
 2531SOL    HW2 7607   4.464   1.666   1.630
 2532SOL     OW 7608   3.854   1.794   1.851
 2532SOL    HW1 7609   3.813   1.720   1.904
 2532SOL    HW2 7610   3.918   1.845   1.909
 2533SOL     OW 7611   3.987   0.326   0.720
 2533SOL    HW1 7612   3.908   0.377   0.686
 2533SOL    HW2 7613   3.978   0.311   0.818
 2534SOL     OW 7614   4.096   1.288   1.490
 2534SOL    HW1 7615   4.083   1.381   1.456
 2534SOL    HW2 7616   4.012   1.236   1.477
 2535SOL     OW 7617   4.314   1.487   0.491
 2535SOL    HW1 7618   4.356   1.429   0.421
 2535SOL    HW2 7619   4.270   1.566   0.447
 2536SOL     OW 7620   3.979   1.348   0.290
 2536SOL    HW1 7621   3.883   1.349   0.263
 2536SOL    HW2 7622   3.991   1.401   0.374
 2537SOL     OW 7623   3.829   1.013   1.726
 2537SOL    HW1 7624   3.752   0.980   1.780
 2537SOL    HW2 7625   3.914   0.983   1.768
 2538SOL     OW 7626   4.396   0.203   1.489
 2538SOL    HW1 7627   4.486   0.187   1.449
 2538SOL    HW2 7628   4.404   0.208   1.588
 2539SOL     OW 7629   3.799   0.345   0.033
 2539SOL    HW1 7630   3.707   0.317   0.004
 2539SOL    HW2 7631   3.830   0.422  -0.023
 2540SOL     OW 7632   4.337   0.842   1.431
 2540SOL    HW1 7633   4.393   0.923   1.414
 2540SOL    HW2 7634   4.396   0.762   1.434
 2541SOL     OW 7635   4.440   0.565   1.708
 2541SOL    HW1 7636   4.459   0.630   1.782
 2541SOL    HW2 7637   4.500   0.485   1.717
 2542SOL     OW 7638   4.114   1.741   1.560
 2542SOL    HW1 7639   4.023   1.782   1.558
 2542SOL    HW2 7640   4.107   1.647   1.592
 2543SOL     OW 7641   4.318   0.745   0.652
 2543SOL    HW1 7642   4.368   0.830   0.633
 2543SOL    HW2 7643   4.230   0.747   0.604
 2544SOL     OW 7644   3.945   1.314   1.844
 2544SOL    HW1 7645   3.880   1.241   1.823
 2544SOL    HW2 7646   3.949   1.328   1.942
 2545SOL     OW 7647   3.803   1.240   0.653
 2545SOL    HW1 7648   3.802   1.193   0.741
 2545SOL    HW2 7649   3.885   1.212   0.602
 2546SOL     OW 7650   4.396   1.391   1.624
 2546SOL    HW1 7651   4.318   1.341   1.662
 2546SOL    HW2 7652   4.393   1.486   1.655
 2547SOL     OW 7653   4.152   0.424   0.520
 2547SOL    HW1 7654   4.182   0.352   0.458
 2547SOL    HW2 7655   4.113   0.384   0.603
 2548SOL     OW 7656   4.041   0.547   1.280
 2548SOL    HW1 7657   4.079   0.488   1.352
 2548SOL    HW2 7658   4.081   0.521   1.192
 2549SOL     OW 7659   4.536   1.586   0.687
 2549SOL    HW1 7660   4.568   1.596   0.593
 2549SOL    HW2 7661   4.457   1.524   0.689
 2550SOL     OW 7662   3.763   1.077   0.300
 2550SOL    HW1 7663   3.862   1.066   0.291
 2550SOL    HW2 7664   3.723   0.991   0.332
 2551SOL     OW 7665   3.954   0.628   1.975
 2551SOL    HW1 7666   3.861   0.626   2.012
 2551SOL    HW2 7667   3.955   0.589   1.883
 2552SOL     OW 7668   3.949   0.275   2.858
 2552SOL    HW1 7669   3.984   0.258   2.950
 2552SOL    HW2 7670   3.861   0.230   2.846
 2553SOL     OW 7671   3.743   0.368   2.509
 2553SOL    HW1 7672   3.661   0.411   2.548
 2553SOL    HW2 7673   3.715   0.295   2.446
 2554SOL     OW 7674   4.293   1.275   3.027
 2554SOL    HW1 7675   4.200   1.268   2.990
 2554SOL    HW2 7676   4.304   1.364   3.071
 2555SOL     OW 7677   4.574   0.798   3.685
 2555SOL    HW1 7678   4.570   0.874   3.750
 2555SOL    HW2 7679   4.596   0.834   3.594
 2556SOL     OW 7680   4.409   1.012   2.527
 2556SOL    HW1 7681   4.478   0.996   2.597
 2556SOL    HW2 7682   4.336   1.069   2.565
 2557SOL     OW 7683   4.410   1.161   3.665
 2557SOL    HW1 7684   4.470   1.240   3.679
 2557SOL    HW2 7685   4.324   1.192   3.624
 2558SOL     OW 7686   4.059   1.435   2.923
 2558SOL    HW1 7687   3.981   1.404   2.870
 2558SOL    HW2 7688   4.117   1.493   2.866
 2559SOL     OW 7689   4.162   0.392   3.361
 2559SOL    HW1 7690   4.244   0.336   3.370
 2559SOL    HW2 7691   4.081   0.334   3.365
 2560SOL     OW 7692   3.955   1.713   2.345
 2560SOL    HW1 7693   3.989   1.790   2.399
 2560SOL    HW2 7694   3.999   1.713   2.255
 2561SOL     OW 7695   3.954   1.434   2.400
 2561SOL    HW1 7696   3.928   1.530   2.400
 2561SOL    HW2 7697   3.883   1.380   2.445
 2562SOL     OW 7698   3.964   1.091   2.748
 2562SOL    HW1 7699   3.978   1.007   2.800
 2562SOL    HW2 7700   3.909   1.155   2.803
 2563SOL     OW 7701   4.344   1.786   3.301
 2563SOL    HW1 7702   4.252   1.769   3.336
 2563SOL    HW2 7703   4.372   1.878   3.327
 2564SOL     OW 7704   4.330   0.964   1.985
 2564SOL    HW1 7705   4.337   1.048   1.931
 2564SOL    HW2 7706   4.376   0.977   2.073
 2565SOL     OW 7707   3.846   0.643   2.425
 2565SOL    HW1 7708   3.801   0.555   2.442
 2565SOL    HW2 7709   3.845   0.697   2.509
 2566SOL     OW 7710   3.751   1.596   1.979
 2566SOL    HW1 7711   3.732   1.500   2.000
 2566SOL    HW2 7712   3.718   1.654   2.054
 2567SOL     OW 7713   3.837   0.737   3.459
 2567SOL    HW1 7714   3.925   0.724   3.504
 2567SOL    HW2 7715   3.824   0.834   3.437
 2568SOL     OW 7716   4.337   1.365   2.588
 2568SOL    HW1 7717   4.288   1.278   2.597
 2568SOL    HW2 7718   4.314   1.408   2.501
 2569SOL     OW 7719   4.533   0.004   2.364
 2569SOL    HW1 7720   4.573   0.095   2.355
 2569SOL    HW2 7721   4.433   0.012   2.370
 2570SOL     OW 7722   3.921   0.976   3.126
 2570SOL    HW1 7723   4.010   0.931   3.112
 2570SOL    HW2 7724   3.848   0.911   3.107
 2571SOL     OW 7725   4.041   0.251   3.663
 2571SOL    HW1 7726   4.112   0.322   3.669
 2571SOL    HW2 7727   3.953   0.290   3.691
 2572SOL     OW 7728   4.322   0.729   2.132
 2572SOL    HW1 7729   4.346   0.798   2.064
 2572SOL    HW2 7730   4.244   0.762   2.186
 2573SOL     OW 7731   3.800   0.811   2.651
 2573SOL    HW1 7732   3.899   0.799   2.660
 2573SOL    HW2 7733   3.776   0.906   2.672
 2574SOL     OW 7734   3.854   1.821   3.433
 2574SOL    HW1 7735   3.844   1.806   3.532
 2574SOL    HW2 7736   3.768   1.857   3.397
 2575SOL     OW 7737   4.274   0.196   2.747
 2575SOL    HW1 7738   4.269   0.191   2.847
 2575SOL    HW2 7739   4.276   0.292   2.718
 2576SOL     OW 7740   4.075   1.801   2.715
 2576SOL    HW1 7741   4.125   1.715   2.721
 2576SOL    HW2 7742   4.140   1.878   2.712
 2577SOL     OW 7743   4.045   0.943   2.104
 2577SOL    HW1 7744   4.127   0.982   2.062
 2577SOL    HW2 7745   4.018   0.861   2.055
 2578SOL     OW 7746   4.185   1.266   3.589
 2578SOL    HW1 7747   4.135   1.267   3.503
 2578SOL    HW2 7748   4.122   1.248   3.665
 2579SOL     OW 7749   3.926   0.285   3.360
 2579SOL    HW1 7750   3.846   0.345   3.347
 2579SOL    HW2 7751   3.916   0.236   3.446
 2580SOL     OW 7752   4.188   1.743   2.185
 2580SOL    HW1 7753   4.221   1.782   2.271
 2580SOL    HW2 7754   4.264   1.736   2.120
 2581SOL     OW 7755   3.973   1.785   3.103
 2581SOL    HW1 7756   4.030   1.720   3.153
 2581SOL    HW2 7757   3.957   1.752   3.010
 2582SOL     OW 7758   4.106   0.700   2.342
 2582SOL    HW1 7759   4.151   0.610   2.339
 2582SOL    HW2 7760   4.012   0.689   2.375
 2583SOL     OW 7761   4.338   0.122   1.979
 2583SOL    HW1 7762   4.436   0.100   1.986
 2583SOL    HW2 7763   4.307   0.105   1.886
 2584SOL     OW 7764   4.527   1.402   2.786
 2584SOL    HW1 7765   4.617   1.416   2.744
 2584SOL    HW2 7766   4.456   1.404   2.715
 2585SOL     OW 7767   4.263   0.064   2.374
 2585SOL    HW1 7768   4.182   0.065   2.432
 2585SOL    HW2 7769   4.266   0.147   2.319
 2586SOL     OW 7770   4.021   0.035   2.033
 2586SOL    HW1 7771   4.070   0.119   2.012
 2586SOL    HW2 7772   4.083  -0.030   2.078
 2587SOL     OW 7773   4.800   0.683   3.326
 2587SOL    HW1 7774   4.720   0.622   3.329
 2587SOL    HW2 7775   4.881   0.630   3.302
 2588SOL     OW 7776   4.183   1.152   2.603
 2588SOL    HW1 7777   4.112   1.125   2.668
 2588SOL    HW2 7778   4.157   1.124   2.510
 2589SOL     OW 7779   3.802   0.556   3.248
 2589SOL    HW1 7780   3.894   0.555   3.207
 2589SOL    HW2 7781   3.796   0.630   3.315
 2590SOL     OW 7782   4.285   0.222   3.009
 2590SOL    HW1 7783   4.323   0.138   3.046
 2590SOL    HW2 7784   4.197   0.241   3.053
 2591SOL     OW 7785   4.212   1.385   2.036
 2591SOL    HW1 7786   4.125   1.370   2.083
 2591SOL    HW2 7787   4.195   1.411   1.941
 2592SOL     OW 7788   4.251   0.256   2.190
 2592SOL    HW1 7789   4.278   0.197   2.115
 2592SOL    HW2 7790   4.251   0.351   2.159
 2593SOL     OW 7791   4.134   0.813   3.113
 2593SOL    HW1 7792   4.220   0.825   3.163
 2593SOL    HW2 7793   4.092   0.726   3.140
 2594SOL     OW 7794   3.788   1.564   3.193
 2594SOL    HW1 7795   3.742   1.646   3.159
 2594SOL    HW2 7796   3.886   1.583   3.202
 2595SOL     OW 7797   4.091   1.100   2.363
 2595SOL    HW1 7798   4.084   1.183   2.307
 2595SOL    HW2 7799   4.095   1.020   2.303
 2596SOL     OW 7800   4.290   0.537   2.727
 2596SOL    HW1 7801   4.302   0.603   2.653
 2596SOL    HW2 7802   4.336   0.571   2.810
 2597SOL     OW 7803   4.078   1.510   3.191
 2597SOL    HW1 7804   4.057   1.466   3.104
 2597SOL    HW2 7805   4.175   1.536   3.194
 2598SOL     OW 7806   4.126   0.751   3.460
 2598SOL    HW1 7807   4.194   0.806   3.413
 2598SOL    HW2 7808   4.166   0.663   3.487
 2599SOL     OW 7809   4.228   0.050   3.602
 2599SOL    HW1 7810   4.186  -0.007   3.532
 2599SOL    HW2 7811   4.162   0.119   3.634
 2600SOL     OW 7812   4.297   0.870   2.891
 2600SOL    HW1 7813   4.341   0.959   2.882
 2600SOL    HW2 7814   4.234   0.870   2.968
 2601SOL     OW 7815   4.031   0.213   3.093
 2601SOL    HW1 7816   4.008   0.250   3.183
 2601SOL    HW2 7817   4.001   0.118   3.087
 2602SOL     OW 7818   3.761   1.310   3.144
 2602SOL    HW1 7819   3.814   1.261   3.212
 2602SOL    HW2 7820   3.783   1.408   3.149
 2603SOL     OW 7821   4.031   0.063   2.480
 2603SOL    HW1 7822   4.020   0.157   2.513
 2603SOL    HW2 7823   4.026   0.000   2.557
 2604SOL     OW 7824   4.074   0.898   3.666
 2604SOL    HW1 7825   4.150   0.942   3.714
 2604SOL    HW2 7826   4.109   0.851   3.584
 2605SOL     OW 7827   4.043   0.810   2.811
 2605SOL    HW1 7828   4.136   0.846   2.816
 2605SOL    HW2 7829   4.037   0.725   2.863
 2606SOL     OW 7830   4.063   0.509   2.868
 2606SOL    HW1 7831   4.011   0.426   2.851
 2606SOL    HW2 7832   4.140   0.514   2.804
 2607SOL     OW 7833   3.732   1.326   2.062
 2607SOL    HW1 7834   3.639   1.347   2.031
 2607SOL    HW2 7835   3.742   1.227   2.075
 2608SOL     OW 7836   3.812   1.801   2.789
 2608SOL    HW1 7837   3.770   1.715   2.762
 2608SOL    HW2 7838   3.906   1.804   2.755
 2609SOL     OW 7839   4.228   1.568   2.772
 2609SOL    HW1 7840   4.294   1.642   2.781
 2609SOL    HW2 7841   4.272   1.489   2.730
 2610SOL     OW 7842   3.764   0.544   2.976
 2610SOL    HW1 7843   3.849   0.511   2.935
 2610SOL    HW2 7844   3.777   0.559   3.074
 2611SOL     OW 7845   3.913   0.520   3.584
 2611SOL    HW1 7846   3.972   0.480   3.514
 2611SOL    HW2 7847   3.855   0.591   3.543
 2612SOL     OW 7848   4.539   0.572   2.187
 2612SOL    HW1 7849   4.546   0.483   2.141
 2612SOL    HW2 7850   4.445   0.606   2.179
 2613SOL     OW 7851   3.976   1.564   3.606
 2613SOL    HW1 7852   3.946   1.621   3.682
 2613SOL    HW2 7853   3.969   1.467   3.632
 2614SOL     OW 7854   4.197   0.500   2.053
 2614SOL    HW1 7855   4.258   0.580   2.057
 2614SOL    HW2 7856   4.102   0.531   2.060
 2615SOL     OW 7857   3.883   1.137   3.328
 2615SOL    HW1 7858   3.905   1.076   3.404
 2615SOL    HW2 7859   3.893   1.088   3.242
 2616SOL     OW 7860   3.807   1.258   2.884
 2616SOL    HW1 7861   3.802   1.257   2.984
 2616SOL    HW2 7862   3.724   1.217   2.846
 2617SOL     OW 7863   4.412   1.662   3.578
 2617SOL    HW1 7864   4.356   1.743   3.587
 2617SOL    HW2 7865   4.464   1.666   3.492
 2618SOL     OW 7866   3.854   1.794   3.713
 2618SOL    HW1 7867   3.813   1.720   3.766
 2618SOL    HW2 7868   3.918   1.845   3.771
 2619SOL     OW 7869   3.987   0.326   2.582
 2619SOL    HW1 7870   3.908   0.377   2.548
 2619SOL    HW2 7871   3.978   0.311   2.680
 2620SOL     OW 7872   4.096   1.288   3.352
 2620SOL    HW1 7873   4.083   1.381   3.318
 2620SOL    HW2 7874   4.012   1.236   3.339
 2621SOL     OW 7875   4.314   1.487   2.353
 2621SOL    HW1 7876   4.356   1.429   2.283
 2621SOL    HW2 7877   4.270   1.566   2.309
 2622SOL     OW 7878   3.979   1.348   2.152
 2622SOL    HW1 7879   3.883   1.349   2.125
 2622SOL    HW2 7880   3.991   1.401   2.236
 2623SOL     OW 7881   3.829   1.013   3.588
 2623SOL    HW1 7882   3.752   0.980   3.642
 2623SOL    HW2 7883   3.914   0.983   3.630
 2624SOL     OW 7884   4.396   0.203   3.351
 2624SOL    HW1 7885   4.486   0.187   3.311
 2624SOL    HW2 7886   4.404   0.208   3.450
 2625SOL     OW 7887   3.799   0.345   1.895
 2625SOL    HW1 7888   3.707   0.317   1.866
 2625SOL    HW2 7889   3.830   0.422   1.839
 2626SOL     OW 7890   3.796   0.166   2.180
 2626SOL    HW1 7891   3.779   0.249   2.126
 2626SOL    HW2 7892   3.886   0.129   2.158
 2627SOL     OW 7893   4.337   0.842   3.293
 2627SOL    HW1 7894   4.393   0.923   3.276
 2627SOL    HW2 7895   4.396   0.762   3.296
 2628SOL     OW 7896   4.440   0.565   3.570
 2628SOL    HW1 7897   4.459   0.630   3.644
 2628SOL    HW2 7898   4.500   0.485   3.579
 2629SOL     OW 7899   4.114   1.741   3.422
 2629SOL    HW1 7900   4.023   1.782   3.420
 2629SOL    HW2 7901   4.107   1.647   3.454
 2630SOL     OW 7902   4.318   0.745   2.514
 2630SOL    HW1 7903   4.368   0.830   2.495
 2630SOL    HW2 7904   4.230   0.747   2.466
 2631SOL     OW 7905   3.945   1.314   3.706
 2631SOL    HW1 7906   3.880   1.241   3.685
 2631SOL    HW2 7907   3.949   1.328   3.804
 2632SOL     OW 7908   3.803   1.240   2.515
 2632SOL    HW1 7909   3.802   1.193   2.603
 2632SOL    HW2 7910   3.885   1.212   2.464
 2633SOL     OW 7911   4.396   1.391   3.486
 2633SOL    HW1 7912   4.318   1.341   3.524
 2633SOL    HW2 7913   4.393   1.486   3.517
 2634SOL     OW 7914   4.152   0.424   2.382
 2634SOL    HW1 7915   4.182   0.352   2.320
 2634SOL    HW2 7916   4.113   0.384   2.465
 2635SOL     OW 7917   4.041   0.547   3.142
 2635SOL    HW1 7918   4.079   0.488   3.214
 2635SOL    HW2 7919   4.081   0.521   3.054
 2636SOL     OW 7920   4.536   1.586   2.549
 2636SOL    HW1 7921   4.568   1.596   2.455
 2636SOL    HW2 7922   4.457   1.524   2.551
 2637SOL     OW 7923   3.763   1.077   2.162
 2637SOL    HW1 7924   3.862   1.066   2.153
 2637SOL    HW2 7925   3.723   0.991   2.194
 2638SOL     OW 7926   3.954   0.628   3.837
 2638SOL    HW1 7927   3.861   0.626   3.874
 2638SOL    HW2 7928   3.955   0.589   3.745
 2639SOL     OW 7929   3.949   0.275   4.720
 2639SOL    HW1 7930   3.984   0.258   4.812
 2639SOL    HW2 7931   3.861   0.230   4.708
 2640SOL     OW 7932   4.409   1.012   4.389
 2640SOL    HW1 7933   4.478   0.996   4.459
 2640SOL    HW2 7934   4.336   1.069   4.427
 2641SOL     OW 7935   3.955   1.713   4.207
 2641SOL    HW1 7936   3.989   1.790   4.261
 2641SOL    HW2 7937   3.999   1.713   4.117
 2642SOL     OW 7938   3.954   1.434   4.262
 2642SOL    HW1 7939   3.928   1.530   4.262
 2642SOL    HW2 7940   3.883   1.380   4.307
 2643SOL     OW 7941   4.330   0.964   3.847
 2643SOL    HW1 7942   4.337   1.048   3.793
 2643SOL    HW2 7943   4.376   0.977   3.935
 2644SOL     OW 7944   3.846   0.643   4.287
 2644SOL    HW1 7945   3.801   0.555   4.304
 2644SOL    HW2 7946   3.845   0.697   4.371
 2645SOL     OW 7947   3.751   1.596   3.841
 2645SOL    HW1 7948   3.732   1.500   3.862
 2645SOL    HW2 7949   3.718   1.654   3.916
 2646SOL     OW 7950   4.337   1.365   4.450
 2646SOL    HW1 7951   4.288   1.278   4.459
 2646SOL    HW2 7952   4.314   1.408   4.363
 2647SOL     OW 7953   4.533   0.004   4.226
 2647SOL    HW1 7954   4.573   0.095   4.217
 2647SOL    HW2 7955   4.433   0.012   4.232
 2648SOL     OW 7956   4.322   0.729   3.994
 2648SOL    HW1 7957   4.346   0.798   3.926
 2648SOL    HW2 7958   4.244   0.762   4.048
 2649SOL     OW 7959   3.800   0.811   4.513
 2649SOL    HW1 7960   3.899   0.799   4.522
 2649SOL    HW2 7961   3.776   0.906   4.534
 2650SOL     OW 7962   4.075   1.801   4.577
 2650SOL    HW1 7963   4.125   1.715   4.583
 2650SOL    HW2 7964   4.140   1.878   4.574
 2651SOL     OW 7965   4.045   0.943   3.966
 2651SOL    HW1 7966   4.127   0.982   3.924
 2651SOL    HW2 7967   4.018   0.861   3.917
 2652SOL     OW 7968   4.188   1.743   4.047
 2652SOL    HW1 7969   4.221   1.782   4.133
 2652SOL    HW2 7970   4.264   1.736   3.982
 2653SOL     OW 7971   4.106   0.700   4.204
 2653SOL    HW1 7972   4.151   0.610   4.201
 2653SOL    HW2 7973   4.012   0.689   4.237
 2654SOL     OW 7974   4.338   0.122   3.841
 2654SOL    HW1 7975   4.436   0.100   3.848
 2654SOL    HW2 7976   4.307   0.105   3.748
 2655SOL     OW 7977   4.263   0.064   4.236
 2655SOL    HW1 7978   4.182   0.065   4.294
 2655SOL    HW2 7979   4.266   0.147   4.181
 2656SOL     OW 7980   4.021   0.035   3.895
 2656SOL    HW1 7981   4.070   0.119   3.874
 2656SOL    HW2 7982   4.083  -0.030   3.940
 2657SOL     OW 7983   4.183   1.152   4.465
 2657SOL    HW1 7984   4.112   1.125   4.530
 2657SOL    HW2 7985   4.157   1.124   4.372
 2658SOL     OW 7986   4.212   1.385   3.898
 2658SOL    HW1 7987   4.125   1.370   3.945
 2658SOL    HW2 7988   4.195   1.411   3.803
 2659SOL     OW 7989   4.251   0.256   4.052
 2659SOL    HW1 7990   4.278   0.197   3.977
 2659SOL    HW2 7991   4.251   0.351   4.021
 2660SOL     OW 7992   4.091   1.100   4.225
 2660SOL    HW1 7993   4.084   1.183   4.169
 2660SOL    HW2 7994   4.095   1.020   4.165
 2661SOL     OW 7995   4.031   0.063   4.342
 2661SOL    HW1 7996   4.020   0.157   4.375
 2661SOL    HW2 7997   4.026   0.000   4.419
 2662SOL     OW 7998   3.732   1.326   3.924
 2662SOL    HW1 7999   3.639   1.347   3.893
 2662SOL    HW2 8000   3.742   1.227   3.937
 2663SOL     OW 8001   4.539   0.572   4.049
 2663SOL    HW1 8002   4.546   0.483   4.003
 2663SOL    HW2 8003   4.445   0.606   4.041
 2664SOL     OW 8004   4.197   0.500   3.915
 2664SOL    HW1 8005   4.258   0.580   3.919
 2664SOL    HW2 8006   4.102   0.531   3.922
 2665SOL     OW 8007   4.763   1.098   4.420
 2665SOL    HW1 8008   4.693   1.051   4.474
 2665SOL    HW2 8009   4.822   1.030   4.377
 2666SOL     OW 8010   4.314   1.487   4.215
 2666SOL    HW1 8011   4.356   1.429   4.145
 2666SOL    HW2 8012   4.270   1.566   4.171
 2667SOL     OW 8013   3.979   1.348   4.014
 2667SOL    HW1 8014   3.883   1.349   3.987
 2667SOL    HW2 8015   3.991   1.401   4.098
 2668SOL     OW 8016   3.799   0.345   3.757
 2668SOL    HW1 8017   3.707   0.317   3.728
 2668SOL    HW2 8018   3.830   0.422   3.701
 2669SOL     OW 8019   3.796   0.166   4.042
 2669SOL    HW1 8020   3.779   0.249   3.988
 2669SOL    HW2 8021   3.886   0.129   4.020
 2670SOL     OW 8022   4.318   0.745   4.376
 2670SOL    HW1 8023   4.368   0.830   4.357
 2670SOL    HW2 8024   4.230   0.747   4.328
 2671SOL     OW 8025   4.385   1.790   4.677
 2671SOL    HW1 8026   4.339   1.878   4.664
 2671SOL    HW2 8027   4.484   1.802   4.670
 2672SOL     OW 8028   3.803   1.240   4.377
 2672SOL    HW1 8029   3.802   1.193   4.465
 2672SOL    HW2 8030   3.885   1.212   4.326
 2673SOL     OW 8031   4.152   0.424   4.244
 2673SOL    HW1 8032   4.182   0.352   4.182
 2673SOL    HW2 8033   4.113   0.384   4.327
 2674SOL     OW 8034   4.536   1.586   4.411
 2674SOL    HW1 8035   4.568   1.596   4.317
 2674SOL    HW2 8036   4.457   1.524   4.413
 2675SOL     OW 8037   3.763   1.077   4.024
 2675SOL    HW1 8038   3.862   1.066   4.015
 2675SOL    HW2 8039   3.723   0.991   4.056
 2676SOL     OW 8040   3.954   2.490   0.113
 2676SOL    HW1 8041   3.861   2.488   0.150
 2676SOL    HW2 8042   3.955   2.451   0.021
 2677SOL     OW 8043   3.949   2.137   0.996
 2677SOL    HW1 8044   3.984   2.120   1.088
 2677SOL    HW2 8045   3.861   2.092   0.984
 2678SOL     OW 8046   3.743   2.230   0.647
 2678SOL    HW1 8047   3.661   2.273   0.686
 2678SOL    HW2 8048   3.715   2.157   0.584
 2679SOL     OW 8049   4.293   3.137   1.165
 2679SOL    HW1 8050   4.200   3.130   1.128
 2679SOL    HW2 8051   4.304   3.226   1.209
 2680SOL     OW 8052   4.574   2.660   1.823
 2680SOL    HW1 8053   4.570   2.736   1.888
 2680SOL    HW2 8054   4.596   2.696   1.732
 2681SOL     OW 8055   4.409   2.874   0.665
 2681SOL    HW1 8056   4.478   2.858   0.735
 2681SOL    HW2 8057   4.336   2.931   0.703
 2682SOL     OW 8058   4.410   3.023   1.803
 2682SOL    HW1 8059   4.470   3.102   1.817
 2682SOL    HW2 8060   4.324   3.054   1.762
 2683SOL     OW 8061   4.059   3.297   1.061
 2683SOL    HW1 8062   3.981   3.266   1.008
 2683SOL    HW2 8063   4.117   3.355   1.004
 2684SOL     OW 8064   4.162   2.254   1.499
 2684SOL    HW1 8065   4.244   2.198   1.508
 2684SOL    HW2 8066   4.081   2.196   1.503
 2685SOL     OW 8067   3.955   3.575   0.483
 2685SOL    HW1 8068   3.989   3.652   0.537
 2685SOL    HW2 8069   3.999   3.575   0.393
 2686SOL     OW 8070   3.954   3.296   0.538
 2686SOL    HW1 8071   3.928   3.392   0.538
 2686SOL    HW2 8072   3.883   3.242   0.583
 2687SOL     OW 8073   3.964   2.953   0.886
 2687SOL    HW1 8074   3.978   2.869   0.938
 2687SOL    HW2 8075   3.909   3.017   0.941
 2688SOL     OW 8076   4.344   3.648   1.439
 2688SOL    HW1 8077   4.252   3.631   1.474
 2688SOL    HW2 8078   4.372   3.740   1.465
 2689SOL     OW 8079   4.330   2.826   0.123
 2689SOL    HW1 8080   4.337   2.910   0.069
 2689SOL    HW2 8081   4.376   2.839   0.211
 2690SOL     OW 8082   3.846   2.505   0.563
 2690SOL    HW1 8083   3.801   2.417   0.580
 2690SOL    HW2 8084   3.845   2.559   0.647
 2691SOL     OW 8085   3.751   3.458   0.117
 2691SOL    HW1 8086   3.732   3.362   0.138
 2691SOL    HW2 8087   3.718   3.516   0.192
 2692SOL     OW 8088   3.837   2.599   1.597
 2692SOL    HW1 8089   3.925   2.586   1.642
 2692SOL    HW2 8090   3.824   2.696   1.575
 2693SOL     OW 8091   4.337   3.227   0.726
 2693SOL    HW1 8092   4.288   3.140   0.735
 2693SOL    HW2 8093   4.314   3.270   0.639
 2694SOL     OW 8094   4.533   1.866   0.502
 2694SOL    HW1 8095   4.573   1.957   0.493
 2694SOL    HW2 8096   4.433   1.874   0.508
 2695SOL     OW 8097   3.921   2.838   1.264
 2695SOL    HW1 8098   4.010   2.793   1.250
 2695SOL    HW2 8099   3.848   2.773   1.245
 2696SOL     OW 8100   4.041   2.113   1.801
 2696SOL    HW1 8101   4.112   2.184   1.807
 2696SOL    HW2 8102   3.953   2.152   1.829
 2697SOL     OW 8103   4.322   2.591   0.270
 2697SOL    HW1 8104   4.346   2.660   0.202
 2697SOL    HW2 8105   4.244   2.624   0.324
 2698SOL     OW 8106   3.800   2.673   0.789
 2698SOL    HW1 8107   3.899   2.661   0.798
 2698SOL    HW2 8108   3.776   2.768   0.810
 2699SOL     OW 8109   3.854   3.683   1.571
 2699SOL    HW1 8110   3.844   3.668   1.670
 2699SOL    HW2 8111   3.768   3.719   1.535
 2700SOL     OW 8112   4.274   2.058   0.885
 2700SOL    HW1 8113   4.269   2.053   0.985
 2700SOL    HW2 8114   4.276   2.154   0.856
 2701SOL     OW 8115   4.075   3.663   0.853
 2701SOL    HW1 8116   4.125   3.577   0.859
 2701SOL    HW2 8117   4.140   3.740   0.850
 2702SOL     OW 8118   4.045   2.805   0.242
 2702SOL    HW1 8119   4.127   2.844   0.200
 2702SOL    HW2 8120   4.018   2.723   0.193
 2703SOL     OW 8121   4.185   3.128   1.727
 2703SOL    HW1 8122   4.135   3.129   1.641
 2703SOL    HW2 8123   4.122   3.110   1.803
 2704SOL     OW 8124   3.926   2.147   1.498
 2704SOL    HW1 8125   3.846   2.207   1.485
 2704SOL    HW2 8126   3.916   2.098   1.584
 2705SOL     OW 8127   4.188   3.605   0.323
 2705SOL    HW1 8128   4.221   3.644   0.409
 2705SOL    HW2 8129   4.264   3.598   0.258
 2706SOL     OW 8130   3.973   3.647   1.241
 2706SOL    HW1 8131   4.030   3.582   1.291
 2706SOL    HW2 8132   3.957   3.614   1.148
 2707SOL     OW 8133   4.106   2.562   0.480
 2707SOL    HW1 8134   4.151   2.472   0.477
 2707SOL    HW2 8135   4.012   2.551   0.513
 2708SOL     OW 8136   4.527   3.264   0.924
 2708SOL    HW1 8137   4.617   3.278   0.882
 2708SOL    HW2 8138   4.456   3.266   0.853
 2709SOL     OW 8139   4.263   1.926   0.512
 2709SOL    HW1 8140   4.182   1.927   0.570
 2709SOL    HW2 8141   4.266   2.009   0.457
 2710SOL     OW 8142   4.800   2.545   1.464
 2710SOL    HW1 8143   4.720   2.484   1.467
 2710SOL    HW2 8144   4.881   2.492   1.440
 2711SOL     OW 8145   4.183   3.014   0.741
 2711SOL    HW1 8146   4.112   2.987   0.806
 2711SOL    HW2 8147   4.157   2.986   0.648
 2712SOL     OW 8148   3.802   2.418   1.386
 2712SOL    HW1 8149   3.894   2.417   1.345
 2712SOL    HW2 8150   3.796   2.492   1.453
 2713SOL     OW 8151   4.285   2.084   1.147
 2713SOL    HW1 8152   4.323   2.000   1.184
 2713SOL    HW2 8153   4.197   2.103   1.191
 2714SOL     OW 8154   4.212   3.247   0.174
 2714SOL    HW1 8155   4.125   3.232   0.221
 2714SOL    HW2 8156   4.195   3.273   0.079
 2715SOL     OW 8157   4.251   2.118   0.328
 2715SOL    HW1 8158   4.278   2.059   0.253
 2715SOL    HW2 8159   4.251   2.213   0.297
 2716SOL     OW 8160   4.134   2.675   1.251
 2716SOL    HW1 8161   4.220   2.687   1.301
 2716SOL    HW2 8162   4.092   2.588   1.278
 2717SOL     OW 8163   3.788   3.426   1.331
 2717SOL    HW1 8164   3.742   3.508   1.297
 2717SOL    HW2 8165   3.886   3.445   1.340
 2718SOL     OW 8166   4.091   2.962   0.501
 2718SOL    HW1 8167   4.084   3.045   0.445
 2718SOL    HW2 8168   4.095   2.882   0.441
 2719SOL     OW 8169   4.290   2.399   0.865
 2719SOL    HW1 8170   4.302   2.465   0.791
 2719SOL    HW2 8171   4.336   2.433   0.948
 2720SOL     OW 8172   4.078   3.372   1.329
 2720SOL    HW1 8173   4.057   3.328   1.242
 2720SOL    HW2 8174   4.175   3.398   1.332
 2721SOL     OW 8175   4.126   2.613   1.598
 2721SOL    HW1 8176   4.194   2.668   1.551
 2721SOL    HW2 8177   4.166   2.525   1.625
 2722SOL     OW 8178   4.228   1.912   1.740
 2722SOL    HW1 8179   4.186   1.855   1.670
 2722SOL    HW2 8180   4.162   1.981   1.772
 2723SOL     OW 8181   4.297   2.732   1.029
 2723SOL    HW1 8182   4.341   2.821   1.020
 2723SOL    HW2 8183   4.234   2.732   1.106
 2724SOL     OW 8184   4.031   2.075   1.231
 2724SOL    HW1 8185   4.008   2.112   1.321
 2724SOL    HW2 8186   4.001   1.980   1.225
 2725SOL     OW 8187   3.761   3.172   1.282
 2725SOL    HW1 8188   3.814   3.123   1.350
 2725SOL    HW2 8189   3.783   3.270   1.287
 2726SOL     OW 8190   4.031   1.925   0.618
 2726SOL    HW1 8191   4.020   2.019   0.651
 2726SOL    HW2 8192   4.026   1.862   0.695
 2727SOL     OW 8193   4.074   2.760   1.804
 2727SOL    HW1 8194   4.150   2.804   1.852
 2727SOL    HW2 8195   4.109   2.713   1.722
 2728SOL     OW 8196   4.043   2.672   0.949
 2728SOL    HW1 8197   4.136   2.708   0.954
 2728SOL    HW2 8198   4.037   2.587   1.001
 2729SOL     OW 8199   4.063   2.371   1.006
 2729SOL    HW1 8200   4.011   2.288   0.989
 2729SOL    HW2 8201   4.140   2.376   0.942
 2730SOL     OW 8202   3.732   3.188   0.200
 2730SOL    HW1 8203   3.639   3.209   0.169
 2730SOL    HW2 8204   3.742   3.089   0.213
 2731SOL     OW 8205   3.812   3.663   0.927
 2731SOL    HW1 8206   3.770   3.577   0.900
 2731SOL    HW2 8207   3.906   3.666   0.893
 2732SOL     OW 8208   4.228   3.430   0.910
 2732SOL    HW1 8209   4.294   3.504   0.919
 2732SOL    HW2 8210   4.272   3.351   0.868
 2733SOL     OW 8211   3.764   2.406   1.114
 2733SOL    HW1 8212   3.849   2.373   1.073
 2733SOL    HW2 8213   3.777   2.421   1.212
 2734SOL     OW 8214   3.913   2.382   1.722
 2734SOL    HW1 8215   3.972   2.342   1.652
 2734SOL    HW2 8216   3.855   2.453   1.681
 2735SOL     OW 8217   4.539   2.434   0.325
 2735SOL    HW1 8218   4.546   2.345   0.279
 2735SOL    HW2 8219   4.445   2.468   0.317
 2736SOL     OW 8220   3.976   3.426   1.744
 2736SOL    HW1 8221   3.946   3.483   1.820
 2736SOL    HW2 8222   3.969   3.329   1.770
 2737SOL     OW 8223   4.197   2.362   0.191
 2737SOL    HW1 8224   4.258   2.442   0.195
 2737SOL    HW2 8225   4.102   2.393   0.198
 2738SOL     OW 8226   3.883   2.999   1.466
 2738SOL    HW1 8227   3.905   2.938   1.542
 2738SOL    HW2 8228   3.893   2.950   1.380
 2739SOL     OW 8229   3.807   3.120   1.022
 2739SOL    HW1 8230   3.802   3.119   1.122
 2739SOL    HW2 8231   3.724   3.079   0.984
 2740SOL     OW 8232   4.412   3.524   1.716
 2740SOL    HW1 8233   4.356   3.605   1.725
 2740SOL    HW2 8234   4.464   3.528   1.630
 2741SOL     OW 8235   3.854   3.656   1.851
 2741SOL    HW1 8236   3.813   3.582   1.904
 2741SOL    HW2 8237   3.918   3.707   1.909
 2742SOL     OW 8238   3.987   2.188   0.720
 2742SOL    HW1 8239   3.908   2.239   0.686
 2742SOL    HW2 8240   3.978   2.173   0.818
 2743SOL     OW 8241   4.096   3.150   1.490
 2743SOL    HW1 8242   4.083   3.243   1.456
 2743SOL    HW2 8243   4.012   3.098   1.477
 2744SOL     OW 8244   4.314   3.349   0.491
 2744SOL    HW1 8245   4.356   3.291   0.421
 2744SOL    HW2 8246   4.270   3.428   0.447
 2745SOL     OW 8247   3.979   3.210   0.290
 2745SOL    HW1 8248   3.883   3.211   0.263
 2745SOL    HW2 8249   3.991   3.263   0.374
 2746SOL     OW 8250   3.829   2.875   1.726
 2746SOL    HW1 8251   3.752   2.842   1.780
 2746SOL    HW2 8252   3.914   2.845   1.768
 2747SOL     OW 8253   4.396   2.065   1.489
 2747SOL    HW1 8254   4.486   2.049   1.449
 2747SOL    HW2 8255   4.404   2.070   1.588
 2748SOL     OW 8256   3.799   2.207   0.033
 2748SOL    HW1 8257   3.707   2.179   0.004
 2748SOL    HW2 8258   3.830   2.284  -0.023
 2749SOL     OW 8259   4.337   2.704   1.431
 2749SOL    HW1 8260   4.393   2.785   1.414
 2749SOL    HW2 8261   4.396   2.624   1.434
 2750SOL     OW 8262   4.440   2.427   1.708
 2750SOL    HW1 8263   4.459   2.492   1.782
 2750SOL    HW2 8264   4.500   2.347   1.717
 2751SOL     OW 8265   4.114   3.603   1.560
 2751SOL    HW1 8266   4.023   3.644   1.558
 2751SOL    HW2 8267   4.107   3.509   1.592
 2752SOL     OW 8268   4.318   2.607   0.652
 2752SOL    HW1 8269   4.368   2.692   0.633
 2752SOL    HW2 8270   4.230   2.609   0.604
 2753SOL     OW 8271   3.945   3.176   1.844
 2753SOL    HW1 8272   3.880   3.103   1.823
 2753SOL    HW2 8273   3.949   3.190   1.942
 2754SOL     OW 8274   3.803   3.102   0.653
 2754SOL    HW1 8275   3.802   3.055   0.741
 2754SOL    HW2 8276   3.885   3.074   0.602
 2755SOL     OW 8277   4.396   3.253   1.624
 2755SOL    HW1 8278   4.318   3.203   1.662
 2755SOL    HW2 8279   4.393   3.348   1.655
 2756SOL     OW 8280   4.152   2.286   0.520
 2756SOL    HW1 8281   4.182   2.214   0.458
 2756SOL    HW2 8282   4.113   2.246   0.603
 2757SOL     OW 8283   4.041   2.409   1.280
 2757SOL    HW1 8284   4.079   2.350   1.352
 2757SOL    HW2 8285   4.081   2.383   1.192
 2758SOL     OW 8286   4.536   3.448   0.687
 2758SOL    HW1 8287   4.568   3.458   0.593
 2758SOL    HW2 8288   4.457   3.386   0.689
 2759SOL     OW 8289   3.763   2.939   0.300
 2759SOL    HW1 8290   3.862   2.928   0.291
 2759SOL    HW2 8291   3.723   2.853   0.332
 2760SOL     OW 8292   3.954   2.490   1.975
 2760SOL    HW1 8293   3.861   2.488   2.012
 2760SOL    HW2 8294   3.955   2.451   1.883
 2761SOL     OW 8295   3.949   2.137   2.858
 2761SOL    HW1 8296   3.984   2.120   2.950
 2761SOL    HW2 8297   3.861   2.092   2.846
 2762SOL     OW 8298   3.743   2.230   2.509
 2762SOL    HW1 8299   3.661   2.273   2.548
 2762SOL    HW2 8300   3.715   2.157   2.446
 2763SOL     OW 8301   4.293   3.137   3.027
 2763SOL    HW1 8302   4.200   3.130   2.990
 2763SOL    HW2 8303   4.304   3.226   3.071
 2764SOL     OW 8304   4.574   2.660   3.685
 2764SOL    HW1 8305   4.570   2.736   3.750
 2764SOL    HW2 8306   4.596   2.696   3.594
 2765SOL     OW 8307   4.409   2.874   2.527
 2765SOL    HW1 8308   4.478   2.858   2.597
 2765SOL    HW2 8309   4.336   2.931   2.565
 2766SOL     OW 8310   4.410   3.023   3.665
 2766SOL    HW1 8311   4.470   3.102   3.679
 2766SOL    HW2 8312   4.324   3.054   3.624
 2767SOL     OW 8313   4.059   3.297   2.923
 2767SOL    HW1 8314   3.981   3.266   2.870
 2767SOL    HW2 8315   4.117   3.355   2.866
 2768SOL     OW 8316   4.162   2.254   3.361
 2768SOL    HW1 8317   4.244   2.198   3.370
 2768SOL    HW2 8318   4.081   2.196   3.365
 2769SOL     OW 8319   3.955   3.575   2.345
 2769SOL    HW1 8320   3.989   3.652   2.399
 2769SOL    HW2 8321   3.999   3.575   2.255
 2770SOL     OW 8322   3.954   3.296   2.400
 2770SOL    HW1 8323   3.928   3.392   2.400
 2770SOL    HW2 8324   3.883   3.242   2.445
 2771SOL     OW 8325   3.964   2.953   2.748
 2771SOL    HW1 8326   3.978   2.869   2.800
 2771SOL    HW2 8327   3.909   3.017   2.803
 2772SOL     OW 8328   4.344   3.648   3.301
 2772SOL    HW1 8329   4.252   3.631   3.336
 2772SOL    HW2 8330   4.372   3.740   3.327
 2773SOL     OW 8331   4.330   2.826   1.985
 2773SOL    HW1 8332   4.337   2.910   1.931
 2773SOL    HW2 8333   4.376   2.839   2.073
 2774SOL     OW 8334   3.846   2.505   2.425
 2774SOL    HW1 8335   3.801   2.417   2.442
 2774SOL    HW2 8336   3.845   2.559   2.509
 2775SOL     OW 8337   3.751   3.458   1.979
 2775SOL    HW1 8338   3.732   3.362   2.000
 2775SOL    HW2 8339   3.718   3.516   2.054
 2776SOL     OW 8340   3.837   2.599   3.459
 2776SOL    HW1 8341   3.925   2.586   3.504
 2776SOL    HW2 8342   3.824   2.696   3.437
 2777SOL     OW 8343   4.337   3.227   2.588
 2777SOL    HW1 8344   4.288   3.140   2.597
 2777SOL    HW2 8345   4.314   3.270   2.501
 2778SOL     OW 8346   4.533   1.866   2.364
 2778SOL    HW1 8347   4.573   1.957   2.355
 2778SOL    HW2 8348   4.433   1.874   2.370
 2779SOL     OW 8349   3.921   2.838   3.126
 2779SOL    HW1 8350   4.010   2.793   3.112
 2779SOL    HW2 8351   3.848   2.773   3.107
 2780SOL     OW 8352   4.041   2.113   3.663
 2780SOL    HW1 8353   4.112   2.184   3.669
 2780SOL    HW2 8354   3.953   2.152   3.691
 2781SOL     OW 8355   4.322   2.591   2.132
 2781SOL    HW1 8356   4.346   2.660   2.064
 2781SOL    HW2 8357   4.244   2.624   2.186
 2782SOL     OW 8358   3.800   2.673   2.651
 2782SOL    HW1 8359   3.899   2.661   2.660
 2782SOL    HW2 8360   3.776   2.768   2.672
 2783SOL     OW 8361   3.854   3.683   3.433
 2783SOL    HW1 8362   3.844   3.668   3.532
 2783SOL    HW2 8363   3.768   3.719   3.397
 2784SOL     OW 8364   4.274   2.058   2.747
 2784SOL    HW1 8365   4.269   2.053   2.847
 2784SOL    HW2 8366   4.276   2.154   2.718
 2785SOL     OW 8367   4.075   3.663   2.715
 2785SOL    HW1 8368   4.125   3.577   2.721
 2785SOL    HW2 8369   4.140   3.740   2.712
 2786SOL     OW 8370   4.045   2.805   2.104
 2786SOL    HW1 8371   4.127   2.844   2.062
 2786SOL    HW2 8372   4.018   2.723   2.055
 2787SOL     OW 8373   4.185   3.128   3.589
 2787SOL    HW1 8374   4.135   3.129   3.503
 2787SOL    HW2 8375   4.122   3.110   3.665
 2788SOL     OW 8376   3.926   2.147   3.360
 2788SOL    HW1 8377   3.846   2.207   3.347
 2788SOL    HW2 8378   3.916   2.098   3.446
 2789SOL     OW 8379   4.188   3.605   2.185
 2789SOL    HW1 8380   4.221   3.644   2.271
 2789SOL    HW2 8381   4.264   3.598   2.120
 2790SOL     OW 8382   3.973   3.647   3.103
 2790SOL    HW1 8383   4.030   3.582   3.153
 2790SOL    HW2 8384   3.957   3.614   3.010
 2791SOL     OW 8385   4.106   2.562   2.342
 2791SOL    HW1 8386   4.151   2.472   2.339
 2791SOL    HW2 8387   4.012   2.551   2.375
 2792SOL     OW 8388   4.338   1.984   1.979
 2792SOL    HW1 8389   4.436   1.962   1.986
 2792SOL    HW2 8390   4.307   1.967   1.886
 2793SOL     OW 8391   4.527   3.264   2.786
 2793SOL    HW1 8392   4.617   3.278   2.744
 2793SOL    HW2 8393   4.456   3.266   2.715
 2794SOL     OW 8394   4.263   1.926   2.374
 2794SOL    HW1 8395   4.182   1.927   2.432
 2794SOL    HW2 8396   4.266   2.009   2.319
 2795SOL     OW 8397   4.021   1.897   2.033
 2795SOL    HW1 8398   4.070   1.981   2.012
 2795SOL    HW2 8399   4.083   1.832   2.078
 2796SOL     OW 8400   4.800   2.545   3.326
 2796SOL    HW1 8401   4.720   2.484   3.329
 2796SOL    HW2 8402   4.881   2.492   3.302
 2797SOL     OW 8403   4.183   3.014   2.603
 2797SOL    HW1 8404   4.112   2.987   2.668
 2797SOL    HW2 8405   4.157   2.986   2.510
 2798SOL     OW 8406   3.802   2.418   3.248
 2798SOL    HW1 8407   3.894   2.417   3.207
 2798SOL    HW2 8408   3.796   2.492   3.315
 2799SOL     OW 8409   4.285   2.084   3.009
 2799SOL    HW1 8410   4.323   2.000   3.046
 2799SOL    HW2 8411   4.197   2.103   3.053
 2800SOL     OW 8412   4.212   3.247   2.036
 2800SOL    HW1 8413   4.125   3.232   2.083
 2800SOL    HW2 8414   4.195   3.273   1.941
 2801SOL     OW 8415   4.251   2.118   2.190
 2801SOL    HW1 8416   4.278   2.059   2.115
 2801SOL    HW2 8417   4.251   2.213   2.159
 2802SOL     OW 8418   4.134   2.675   3.113
 2802SOL    HW1 8419   4.220   2.687   3.163
 2802SOL    HW2 8420   4.092   2.588   3.140
 2803SOL     OW 8421   3.788   3.426   3.193
 2803SOL    HW1 8422   3.742   3.508   3.159
 2803SOL    HW2 8423   3.886   3.445   3.202
 2804SOL     OW 8424   4.091   2.962   2.363
 2804SOL    HW1 8425   4.084   3.045   2.307
 2804SOL    HW2 8426   4.095   2.882   2.303
 2805SOL     OW 8427   4.290   2.399   2.727
 2805SOL    HW1 8428   4.302   2.465   2.653
 2805SOL    HW2 8429   4.336   2.433   2.810
 2806SOL     OW 8430   4.078   3.372   3.191
 2806SOL    HW1 8431   4.057   3.328   3.104
 2806SOL    HW2 8432   4.175   3.398   3.194
 2807SOL     OW 8433   4.126   2.613   3.460
 2807SOL    HW1 8434   4.194   2.668   3.413
 2807SOL    HW2 8435   4.166   2.525   3.487
 2808SOL     OW 8436   4.228   1.912   3.602
 2808SOL    HW1 8437   4.186   1.855   3.532
 2808SOL    HW2 8438   4.162   1.981   3.634
 2809SOL     OW 8439   4.297   2.732   2.891
 2809SOL    HW1 8440   4.341   2.821   2.882
 2809SOL    HW2 8441   4.234   2.732   2.968
 2810SOL     OW 8442   4.031   2.075   3.093
 2810SOL    HW1 8443   4.008   2.112   3.183
 2810SOL    HW2 8444   4.001   1.980   3.087
 2811SOL     OW 8445   3.761   3.172   3.144
 2811SOL    HW1 8446   3.814   3.123   3.212
 2811SOL    HW2 8447   3.783   3.270   3.149
 2812SOL     OW 8448   4.031   1.925   2.480
 2812SOL    HW1 8449   4.020   2.019   2.513
 2812SOL    HW2 8450   4.026   1.862   2.557
 2813SOL     OW 8451   4.074   2.760   3.666
 2813SOL    HW1 8452   4.150   2.804   3.714
 2813SOL    HW2 8453   4.109   2.713   3.584
 2814SOL     OW 8454   4.043   2.672   2.811
 2814SOL    HW1 8455   4.136   2.708   2.816
 2814SOL    HW2 8456   4.037   2.587   2.863
 2815SOL     OW 8457   4.063   2.371   2.868
 2815SOL    HW1 8458   4.011   2.288   2.851
 2815SOL    HW2 8459   4.140   2.376   2.804
 2816SOL     OW 8460   3.732   3.188   2.062
 2816SOL    HW1 8461   3.639   3.209   2.031
 2816SOL    HW2 8462   3.742   3.089   2.075
 2817SOL     OW 8463   3.812   3.663   2.789
 2817SOL    HW1 8464   3.770   3.577   2.762
 2817SOL    HW2 8465   3.906   3.666   2.755
 2818SOL     OW 8466   4.228   3.430   2.772
 2818SOL    HW1 8467   4.294   3.504   2.781
 2818SOL    HW2 8468   4.272   3.351   2.730
 2819SOL     OW 8469   3.764   2.406   2.976
 2819SOL    HW1 8470   3.849   2.373   2.935
 2819SOL    HW2 8471   3.777   2.421   3.074
 2820SOL     OW 8472   3.913   2.382   3.584
 2820SOL    HW1 8473   3.972   2.342   3.514
 2820SOL    HW2 8474   3.855   2.453   3.543
 2821SOL     OW 8475   4.539   2.434   2.187
 2821SOL    HW1 8476   4.546   2.345   2.141
 2821SOL    HW2 8477   4.445   2.468   2.179
 2822SOL     OW 8478   3.976   3.426   3.606
 2822SOL    HW1 8479   3.946   3.483   3.682
 2822SOL    HW2 8480   3.969   3.329   3.632
 2823SOL     OW 8481   4.197   2.362   2.053
 2823SOL    HW1 8482   4.258   2.442   2.057
 2823SOL    HW2 8483   4.102   2.393   2.060
 2824SOL     OW 8484   3.883   2.999   3.328
 2824SOL    HW1 8485   3.905   2.938   3.404
 2824SOL    HW2 8486   3.893   2.950   3.242
 2825SOL     OW 8487   3.807   3.120   2.884
 2825SOL    HW1 8488   3.802   3.119   2.984
 2825SOL    HW2 8489   3.724   3.079   2.846
 2826SOL     OW 8490   4.412   3.524   3.578
 2826SOL    HW1 8491   4.356   3.605   3.587
 2826SOL    HW2 8492   4.464   3.528   3.492
 2827SOL     OW 8493   3.854   3.656   3.713
 2827SOL    HW1 8494   3.813   3.582   3.766
 2827SOL    HW2 8495   3.918   3.707   3.771
 2828SOL     OW 8496   3.987   2.188   2.582
 2828SOL    HW1 8497   3.908   2.239   2.548
 2828SOL    HW2 8498   3.978   2.173   2.680
 2829SOL     OW 8499   4.096   3.150   3.352
 2829SOL    HW1 8500   4.083   3.243   3.318
 2829SOL    HW2 8501   4.012   3.098   3.339
 2830SOL     OW 8502   4.314   3.349   2.353
 2830SOL    HW1 8503   4.356   3.291   2.283
 2830SOL    HW2 8504   4.270   3.428   2.309
 2831SOL     OW 8505   3.979   3.210   2.152
 2831SOL    HW1 8506   3.883   3.211   2.125
 2831SOL    HW2 8507   3.991   3.263   2.236
 2832SOL     OW 8508   3.829   2.875   3.588
 2832SOL    HW1 8509   3.752   2.842   3.642
 2832SOL    HW2 8510   3.914   2.845   3.630
 2833SOL     OW 8511   4.396   2.065   3.351
 2833SOL    HW1 8512   4.486   2.049   3.311
 2833SOL    HW2 8513   4.404   2.070   3.450
 2834SOL     OW 8514   3.799   2.207   1.895
 2834SOL    HW1 8515   3.707   2.179   1.866
 2834SOL    HW2 8516   3.830   2.284   1.839
 2835SOL     OW 8517   3.796   2.028   2.180
 2835SOL    HW1 8518   3.779   2.111   2.126
 2835SOL    HW2 8519   3.886   1.991   2.158
 2836SOL     OW 8520   4.337   2.704   3.293
 2836SOL    HW1 8521   4.393   2.785   3.276
 2836SOL    HW2 8522   4.396   2.624   3.296
 2837SOL     OW 8523   4.440   2.427   3.570
 2837SOL    HW1 8524   4.459   2.492   3.644
 2837SOL    HW2 8525   4.500   2.347   3.579
 2838SOL     OW 8526   4.114   3.603   3.422
 2838SOL    HW1 8527   4.023   3.644   3.420
 2838SOL    HW2 8528   4.107   3.509   3.454
 2839SOL     OW 8529   4.318   2.607   2.514
 2839SOL    HW1 8530   4.368   2.692   2.495
 2839SOL    HW2 8531   4.230   2.609   2.466
 2840SOL     OW 8532   3.945   3.176   3.706
 2840SOL    HW1 8533   3.880   3.103   3.685
 2840SOL    HW2 8534   3.949   3.190   3.804
 2841SOL     OW 8535   3.803   3.102   2.515
 2841SOL    HW1 8536   3.802   3.055   2.603
 2841SOL    HW2 8537   3.885   3.074   2.464
 2842SOL     OW 8538   4.396   3.253   3.486
 2842SOL    HW1 8539   4.318   3.203   3.524
 2842SOL    HW2 8540   4.393   3.348   3.517
 2843SOL     OW 8541   4.152   2.286   2.382
 2843SOL    HW1 8542   4.182   2.214   2.320
 2843SOL    HW2 8543   4.113   2.246   2.465
 2844SOL     OW 8544   4.041   2.409   3.142
 2844SOL    HW1 8545   4.079   2.350   3.214
 2844SOL    HW2 8546   4.081   2.383   3.054
 2845SOL     OW 8547   4.536   3.448   2.549
 2845SOL    HW1 8548   4.568   3.458   2.455
 2845SOL    HW2 8549   4.457   3.386   2.551
 2846SOL     OW 8550   3.763   2.939   2.162
 2846SOL    HW1 8551   3.862   2.928   2.153
 2846SOL    HW2 8552   3.723   2.853   2.194
 2847SOL     OW 8553   3.954   2.490   3.837
 2847SOL    HW1 8554   3.861   2.488   3.874
 2847SOL    HW2 8555   3.955   2.451   3.745
 2848SOL     OW 8556   3.949   2.137   4.720
 2848SOL    HW1 8557   3.984   2.120   4.812
 2848SOL    HW2 8558   3.861   2.092   4.708
 2849SOL     OW 8559   4.409   2.874   4.389
 2849SOL    HW1 8560   4.478   2.858   4.459
 2849SOL    HW2 8561   4.336   2.931   4.427
 2850SOL     OW 8562   3.955   3.575   4.207
 2850SOL    HW1 8563   3.989   3.652   4.261
 2850SOL    HW2 8564   3.999   3.575   4.117
 2851SOL     OW 8565   3.954   3.296   4.262
 2851SOL    HW1 8566   3.928   3.392   4.262
 2851SOL    HW2 8567   3.883   3.242   4.307
 2852SOL     OW 8568   4.330   2.826   3.847
 2852SOL    HW1 8569   4.337   2.910   3.793
 2852SOL    HW2 8570   4.376   2.839   3.935
 2853SOL     OW 8571   3.846   2.505   4.287
 2853SOL    HW1 8572   3.801   2.417   4.304
 2853SOL    HW2 8573   3.845   2.559   4.371
 2854SOL     OW 8574   3.751   3.458   3.841
 2854SOL    HW1 8575   3.732   3.362   3.862
 2854SOL    HW2 8576   3.718   3.516   3.916
 2855SOL     OW 8577   4.337   3.227   4.450
 2855SOL    HW1 8578   4.288   3.140   4.459
 2855SOL    HW2 8579   4.314   3.270   4.363
 2856SOL     OW 8580   4.533   1.866   4.226
 2856SOL    HW1 8581   4.573   1.957   4.217
 2856SOL    HW2 8582   4.433   1.874   4.232
 2857SOL     OW 8583   4.322   2.591   3.994
 2857SOL    HW1 8584   4.346   2.660   3.926
 2857SOL    HW2 8585   4.244   2.624   4.048
 2858SOL     OW 8586   3.800   2.673   4.513
 2858SOL    HW1 8587   3.899   2.661   4.522
 2858SOL    HW2 8588   3.776   2.768   4.534
 2859SOL     OW 8589   4.075   3.663   4.577
 2859SOL    HW1 8590   4.125   3.577   4.583
 2859SOL    HW2 8591   4.140   3.740   4.574
 2860SOL     OW 8592   4.045   2.805   3.966
 2860SOL    HW1 8593   4.127   2.844   3.924
 2860SOL    HW2 8594   4.018   2.723   3.917
 2861SOL     OW 8595   4.188   3.605   4.047
 2861SOL    HW1 8596   4.221   3.644   4.133
 2861SOL    HW2 8597   4.264   3.598   3.982
 2862SOL     OW 8598   4.106   2.562   4.204
 2862SOL    HW1 8599   4.151   2.472   4.201
 2862SOL    HW2 8600   4.012   2.551   4.237
 2863SOL     OW 8601   4.338   1.984   3.841
 2863SOL    HW1 8602   4.436   1.962   3.848
 2863SOL    HW2 8603   4.307   1.967   3.748
 2864SOL     OW 8604   4.263   1.926   4.236
 2864SOL    HW1 8605   4.182   1.927   4.294
 2864SOL    HW2 8606   4.266   2.009   4.181
 2865SOL     OW 8607   4.021   1.897   3.895
 2865SOL    HW1 8608   4.070   1.981   3.874
 2865SOL    HW2 8609   4.083   1.832   3.940
 2866SOL     OW 8610   4.183   3.014   4.465
 2866SOL    HW1 8611   4.112   2.987   4.530
 2866SOL    HW2 8612   4.157   2.986   4.372
 2867SOL     OW 8613   4.212   3.247   3.898
 2867SOL    HW1 8614   4.125   3.232   3.945
 2867SOL    HW2 8615   4.195   3.273   3.803
 2868SOL     OW 8616   4.251   2.118   4.052
 2868SOL    HW1 8617   4.278   2.059   3.977
 2868SOL    HW2 8618   4.251   2.213   4.021
 2869SOL     OW 8619   4.091   2.962   4.225
 2869SOL    HW1 8620   4.084   3.045   4.169
 2869SOL    HW2 8621   4.095   2.882   4.165
 2870SOL     OW 8622   4.031   1.925   4.342
 2870SOL    HW1 8623   4.020   2.019   4.375
 2870SOL    HW2 8624   4.026   1.862   4.419
 2871SOL     OW 8625   3.732   3.188   3.924
 2871SOL    HW1 8626   3.639   3.209   3.893
 2871SOL    HW2 8627   3.742   3.089   3.937
 2872SOL     OW 8628   4.539   2.434   4.049
 2872SOL    HW1 8629   4.546   2.345   4.003
 2872SOL    HW2 8630   4.445   2.468   4.041
 2873SOL     OW 8631   4.197   2.362   3.915
 2873SOL    HW1 8632   4.258   2.442   3.919
 2873SOL    HW2 8633   4.102   2.393   3.922
 2874SOL     OW 8634   4.763   2.960   4.420
 2874SOL    HW1 8635   4.693   2.913   4.474
 2874SOL    HW2 8636   4.822   2.892   4.377
 2875SOL     OW 8637   4.314   3.349   4.215
 2875SOL    HW1 8638   4.356   3.291   4.145
 2875SOL    HW2 8639   4.270   3.428   4.171
 2876SOL     OW 8640   3.979   3.210   4.014
 2876SOL    HW1 8641   3.883   3.211   3.987
 2876SOL    HW2 8642   3.991   3.263   4.098
 2877SOL     OW 8643   3.799   2.207   3.757
 2877SOL    HW1 8644   3.707   2.179   3.728
 2877SOL    HW2 8645   3.830   2.284   3.701
 2878SOL     OW 8646   3.796   2.028   4.042
 2878SOL    HW1 8647   3.779   2.111   3.988
 2878SOL    HW2 8648   3.886   1.991   4.020
 2879SOL     OW 8649   4.318   2.607   4.376
 2879SOL    HW1 8650   4.368   2.692   4.357
 2879SOL    HW2 8651   4.230   2.609   4.328
 2880SOL     OW 8652   4.385   3.652   4.677
 2880SOL    HW1 8653   4.339   3.740   4.664
 2880SOL    HW2 8654   4.484   3.664   4.670
 2881SOL     OW 8655   3.803   3.102   4.377
 2881SOL    HW1 8656   3.802   3.055   4.465
 2881SOL    HW2 8657   3.885   3.074   4.326
 2882SOL     OW 8658   4.152   2.286   4.244
 2882SOL    HW1 8659   4.182   2.214   4.182
 2882SOL    HW2 8660   4.113   2.246   4.327
 2883SOL     OW 8661   4.536   3.448   4.411
 2883SOL    HW1 8662   4.568   3.458   4.317
 2883SOL    HW2 8663   4.457   3.386   4.413
 2884SOL     OW 8664   3.763   2.939   4.024
 2884SOL    HW1 8665   3.862   2.928   4.015
 2884SOL    HW2 8666   3.723   2.853   4.056
 2885SOL     OW 8667   3.954   4.352   0.113
 2885SOL    HW1 8668   3.861   4.350   0.150
 2885SOL    HW2 8669   3.955   4.313   0.021
 2886SOL     OW 8670   3.949   3.999   0.996
 2886SOL    HW1 8671   3.984   3.982   1.088
 2886SOL    HW2 8672   3.861   3.954   0.984
 2887SOL     OW 8673   3.743   4.092   0.647
 2887SOL    HW1 8674   3.661   4.135   0.686
 2887SOL    HW2 8675   3.715   4.019   0.584
 2888SOL     OW 8676   4.574   4.522   1.823
 2888SOL    HW1 8677   4.570   4.598   1.888
 2888SOL    HW2 8678   4.596   4.558   1.732
 2889SOL     OW 8679   4.162   4.116   1.499
 2889SOL    HW1 8680   4.244   4.060   1.508
 2889SOL    HW2 8681   4.081   4.058   1.503
 2890SOL     OW 8682   3.846   4.367   0.563
 2890SOL    HW1 8683   3.801   4.279   0.580
 2890SOL    HW2 8684   3.845   4.421   0.647
 2891SOL     OW 8685   3.837   4.461   1.597
 2891SOL    HW1 8686   3.925   4.448   1.642
 2891SOL    HW2 8687   3.824   4.558   1.575
 2892SOL     OW 8688   4.533   3.728   0.502
 2892SOL    HW1 8689   4.573   3.819   0.493
 2892SOL    HW2 8690   4.433   3.736   0.508
 2893SOL     OW 8691   4.041   3.975   1.801
 2893SOL    HW1 8692   4.112   4.046   1.807
 2893SOL    HW2 8693   3.953   4.014   1.829
 2894SOL     OW 8694   4.274   3.920   0.885
 2894SOL    HW1 8695   4.269   3.915   0.985
 2894SOL    HW2 8696   4.276   4.016   0.856
 2895SOL     OW 8697   3.926   4.009   1.498
 2895SOL    HW1 8698   3.846   4.069   1.485
 2895SOL    HW2 8699   3.916   3.960   1.584
 2896SOL     OW 8700   4.106   4.424   0.480
 2896SOL    HW1 8701   4.151   4.334   0.477
 2896SOL    HW2 8702   4.012   4.413   0.513
 2897SOL     OW 8703   4.263   3.788   0.512
 2897SOL    HW1 8704   4.182   3.789   0.570
 2897SOL    HW2 8705   4.266   3.871   0.457
 2898SOL     OW 8706   4.800   4.407   1.464
 2898SOL    HW1 8707   4.720   4.346   1.467
 2898SOL    HW2 8708   4.881   4.354   1.440
 2899SOL     OW 8709   3.802   4.280   1.386
 2899SOL    HW1 8710   3.894   4.279   1.345
 2899SOL    HW2 8711   3.796   4.354   1.453
 2900SOL     OW 8712   4.285   3.946   1.147
 2900SOL    HW1 8713   4.323   3.862   1.184
 2900SOL    HW2 8714   4.197   3.965   1.191
 2901SOL     OW 8715   4.251   3.980   0.328
 2901SOL    HW1 8716   4.278   3.921   0.253
 2901SOL    HW2 8717   4.251   4.075   0.297
 2902SOL     OW 8718   4.134   4.537   1.251
 2902SOL    HW1 8719   4.220   4.549   1.301
 2902SOL    HW2 8720   4.092   4.450   1.278
 2903SOL     OW 8721   4.290   4.261   0.865
 2903SOL    HW1 8722   4.302   4.327   0.791
 2903SOL    HW2 8723   4.336   4.295   0.948
 2904SOL     OW 8724   4.228   3.774   1.740
 2904SOL    HW1 8725   4.186   3.717   1.670
 2904SOL    HW2 8726   4.162   3.843   1.772
 2905SOL     OW 8727   4.031   3.937   1.231
 2905SOL    HW1 8728   4.008   3.974   1.321
 2905SOL    HW2 8729   4.001   3.842   1.225
 2906SOL     OW 8730   4.031   3.787   0.618
 2906SOL    HW1 8731   4.020   3.881   0.651
 2906SOL    HW2 8732   4.026   3.724   0.695
 2907SOL     OW 8733   4.043   4.534   0.949
 2907SOL    HW1 8734   4.136   4.570   0.954
 2907SOL    HW2 8735   4.037   4.449   1.001
 2908SOL     OW 8736   4.063   4.233   1.006
 2908SOL    HW1 8737   4.011   4.150   0.989
 2908SOL    HW2 8738   4.140   4.238   0.942
 2909SOL     OW 8739   3.764   4.268   1.114
 2909SOL    HW1 8740   3.849   4.235   1.073
 2909SOL    HW2 8741   3.777   4.283   1.212
 2910SOL     OW 8742   3.913   4.244   1.722
 2910SOL    HW1 8743   3.972   4.204   1.652
 2910SOL    HW2 8744   3.855   4.315   1.681
 2911SOL     OW 8745   4.539   4.296   0.325
 2911SOL    HW1 8746   4.546   4.207   0.279
 2911SOL    HW2 8747   4.445   4.330   0.317
 2912SOL     OW 8748   4.197   4.224   0.191
 2912SOL    HW1 8749   4.258   4.304   0.195
 2912SOL    HW2 8750   4.102   4.255   0.198
 2913SOL     OW 8751   3.987   4.050   0.720
 2913SOL    HW1 8752   3.908   4.101   0.686
 2913SOL    HW2 8753   3.978   4.035   0.818
 2914SOL     OW 8754   4.396   3.927   1.489
 2914SOL    HW1 8755   4.486   3.911   1.449
 2914SOL    HW2 8756   4.404   3.932   1.588
 2915SOL     OW 8757   3.799   4.069   0.033
 2915SOL    HW1 8758   3.707   4.041   0.004
 2915SOL    HW2 8759   3.830   4.146  -0.023
 2916SOL     OW 8760   4.440   4.289   1.708
 2916SOL    HW1 8761   4.459   4.354   1.782
 2916SOL    HW2 8762   4.500   4.209   1.717
 2917SOL     OW 8763   4.152   4.148   0.520
 2917SOL    HW1 8764   4.182   4.076   0.458
 2917SOL    HW2 8765   4.113   4.108   0.603
 2918SOL     OW 8766   4.041   4.271   1.280
 2918SOL    HW1 8767   4.079   4.212   1.352
 2918SOL    HW2 8768   4.081   4.245   1.192
 2919SOL     OW 8769   3.954   4.352   1.975
 2919SOL    HW1 8770   3.861   4.350   2.012
 2919SOL    HW2 8771   3.955   4.313   1.883
 2920SOL     OW 8772   3.949   3.999   2.858
 2920SOL    HW1 8773   3.984   3.982   2.950
 2920SOL    HW2 8774   3.861   3.954   2.846
 2921SOL     OW 8775   3.743   4.092   2.509
 2921SOL    HW1 8776   3.661   4.135   2.548
 2921SOL    HW2 8777   3.715   4.019   2.446
 2922SOL     OW 8778   4.574   4.522   3.685
 2922SOL    HW1 8779   4.570   4.598   3.750
 2922SOL    HW2 8780   4.596   4.558   3.594
 2923SOL     OW 8781   4.162   4.116   3.361
 2923SOL    HW1 8782   4.244   4.060   3.370
 2923SOL    HW2 8783   4.081   4.058   3.365
 2924SOL     OW 8784   3.846   4.367   2.425
 2924SOL    HW1 8785   3.801   4.279   2.442
 2924SOL    HW2 8786   3.845   4.421   2.509
 2925SOL     OW 8787   3.837   4.461   3.459
 2925SOL    HW1 8788   3.925   4.448   3.504
 2925SOL    HW2 8789   3.824   4.558   3.437
 2926SOL     OW 8790   4.533   3.728   2.364
 2926SOL    HW1 8791   4.573   3.819   2.355
 2926SOL    HW2 8792   4.433   3.736   2.370
 2927SOL     OW 8793   4.041   3.975   3.663
 2927SOL    HW1 8794   4.112   4.046   3.669
 2927SOL    HW2 8795   3.953   4.014   3.691
 2928SOL     OW 8796   4.274   3.920   2.747
 2928SOL    HW1 8797   4.269   3.915   2.847
 2928SOL    HW2 8798   4.276   4.016   2.718
 2929SOL     OW 8799   3.926   4.009   3.360
 2929SOL    HW1 8800   3.846   4.069   3.347
 2929SOL    HW2 8801   3.916   3.960   3.446
 2930SOL     OW 8802   4.106   4.424   2.342
 2930SOL    HW1 8803   4.151   4.334   2.339
 2930SOL    HW2 8804   4.012   4.413   2.375
 2931SOL     OW 8805   4.338   3.846   1.979
 2931SOL    HW1 8806   4.436   3.824   1.986
 2931SOL    HW2 8807   4.307   3.829   1.886
 2932SOL     OW 8808   4.263   3.788   2.374
 2932SOL    HW1 8809   4.182   3.789   2.432
 2932SOL    HW2 8810   4.266   3.871   2.319
 2933SOL     OW 8811   4.021   3.759   2.033
 2933SOL    HW1 8812   4.070   3.843   2.012
 2933SOL    HW2 8813   4.083   3.694   2.078
 2934SOL     OW 8814   4.800   4.407   3.326
 2934SOL    HW1 8815   4.720   4.346   3.329
 2934SOL    HW2 8816   4.881   4.354   3.302
 2935SOL     OW 8817   3.802   4.280   3.248
 2935SOL    HW1 8818   3.894   4.279   3.207
 2935SOL    HW2 8819   3.796   4.354   3.315
 2936SOL     OW 8820   4.285   3.946   3.009
 2936SOL    HW1 8821   4.323   3.862   3.046
 2936SOL    HW2 8822   4.197   3.965   3.053
 2937SOL     OW 8823   4.251   3.980   2.190
 2937SOL    HW1 8824   4.278   3.921   2.115
 2937SOL    HW2 8825   4.251   4.075   2.159
 2938SOL     OW 8826   4.134   4.537   3.113
 2938SOL    HW1 8827   4.220   4.549   3.163
 2938SOL    HW2 8828   4.092   4.450   3.140
 2939SOL     OW 8829   4.290   4.261   2.727
 2939SOL    HW1 8830   4.302   4.327   2.653
 2939SOL    HW2 8831   4.336   4.295   2.810
 2940SOL     OW 8832   4.228   3.774   3.602
 2940SOL    HW1 8833   4.186   3.717   3.532
 2940SOL    HW2 8834   4.162   3.843   3.634
 2941SOL     OW 8835   4.031   3.937   3.093
 2941SOL    HW1 8836   4.008   3.974   3.183
 2941SOL    HW2 8837   4.001   3.842   3.087
 2942SOL     OW 8838   4.031   3.787   2.480
 2942SOL    HW1 8839   4.020   3.881   2.513
 2942SOL    HW2 8840   4.026   3.724   2.557
 2943SOL     OW 8841   4.043   4.534   2.811
 2943SOL    HW1 8842   4.136   4.570   2.816
 2943SOL    HW2 8843   4.037   4.449   2.863
 2944SOL     OW 8844   4.063   4.233   2.868
 2944SOL    HW1 8845   4.011   4.150   2.851
 2944SOL    HW2 8846   4.140   4.238   2.804
 2945SOL     OW 8847   3.764   4.268   2.976
 2945SOL    HW1 8848   3.849   4.235   2.935
 2945SOL    HW2 8849   3.777   4.283   3.074
 2946SOL     OW 8850   3.913   4.244   3.584
 2946SOL    HW1 8851   3.972   4.204   3.514
 2946SOL    HW2 8852   3.855   4.315   3.543
 2947SOL     OW 8853   4.539   4.296   2.187
 2947SOL    HW1 8854   4.546   4.207   2.141
 2947SOL    HW2 8855   4.445   4.330   2.179
 2948SOL     OW 8856   4.197   4.224   2.053
 2948SOL    HW1 8857   4.258   4.304   2.057
 2948SOL    HW2 8858   4.102   4.255   2.060
 2949SOL     OW 8859   3.987   4.050   2.582
 2949SOL    HW1 8860   3.908   4.101   2.548
 2949SOL    HW2 8861   3.978   4.035   2.680
 2950SOL     OW 8862   4.396   3.927   3.351
 2950SOL    HW1 8863   4.486   3.911   3.311
 2950SOL    HW2 8864   4.404   3.932   3.450
 2951SOL     OW 8865   3.799   4.069   1.895
 2951SOL    HW1 8866   3.707   4.041   1.866
 2951SOL    HW2 8867   3.830   4.146   1.839
 2952SOL     OW 8868   3.796   3.890   2.180
 2952SOL    HW1 8869   3.779   3.973   2.126
 2952SOL    HW2 8870   3.886   3.853   2.158
 2953SOL     OW 8871   4.440   4.289   3.570
 2953SOL    HW1 8872   4.459   4.354   3.644
 2953SOL    HW2 8873   4.500   4.209   3.579
 2954SOL     OW 8874   4.152   4.148   2.382
 2954SOL    HW1 8875   4.182   4.076   2.320
 2954SOL    HW2 8876   4.113   4.108   2.465
 2955SOL     OW 8877   4.041   4.271   3.142
 2955SOL    HW1 8878   4.079   4.212   3.214
 2955SOL    HW2 8879   4.081   4.245   3.054
 2956SOL     OW 8880   3.954   4.352   3.837
 2956SOL    HW1 8881   3.861   4.350   3.874
 2956SOL    HW2 8882   3.955   4.313   3.745
 2957SOL     OW 8883   3.949   3.999   4.720
 2957SOL    HW1 8884   3.984   3.982   4.812
 2957SOL    HW2 8885   3.861   3.954   4.708
 2958SOL     OW 8886   3.846   4.367   4.287
 2958SOL    HW1 8887   3.801   4.279   4.304
 2958SOL    HW2 8888   3.845   4.421   4.371
 2959SOL     OW 8889   4.533   3.728   4.226
 2959SOL    HW1 8890   4.573   3.819   4.217
 2959SOL    HW2 8891   4.433   3.736   4.232
 2960SOL     OW 8892   4.106   4.424   4.204
 2960SOL    HW1 8893   4.151   4.334   4.201
 2960SOL    HW2 8894   4.012   4.413   4.237
 2961SOL     OW 8895   4.338   3.846   3.841
 2961SOL    HW1 8896   4.436   3.824   3.848
 2961SOL    HW2 8897   4.307   3.829   3.748
 2962SOL     OW 8898   4.263   3.788   4.236
 2962SOL    HW1 8899   4.182   3.789   4.294
 2962SOL    HW2 8900   4.266   3.871   4.181
 2963SOL     OW 8901   4.021   3.759   3.895
 2963SOL    HW1 8902   4.070   3.843   3.874
 2963SOL    HW2 8903   4.083   3.694   3.940
 2964SOL     OW 8904   4.251   3.980   4.052
 2964SOL    HW1 8905   4.278   3.921   3.977
 2964SOL    HW2 8906   4.251   4.075   4.021
 2965SOL     OW 8907   4.031   3.787   4.342
 2965SOL    HW1 8908   4.020   3.881   4.375
 2965SOL    HW2 8909   4.026   3.724   4.419
 2966SOL     OW 8910   4.539   4.296   4.049
 2966SOL    HW1 8911   4.546   4.207   4.003
 2966SOL    HW2 8912   4.445   4.330   4.041
 2967SOL     OW 8913   4.197   4.224   3.915
 2967SOL    HW1 8914   4.258   4.304   3.919
 2967SOL    HW2 8915   4.102   4.255   3.922
 2968SOL     OW 8916   3.799   4.069   3.757
 2968SOL    HW1 8917   3.707   4.041   3.728
 2968SOL    HW2 8918   3.830   4.146   3.701
 2969SOL     OW 8919   3.796   3.890   4.042
 2969SOL    HW1 8920   3.779   3.973   3.988
 2969SOL    HW2 8921   3.886   3.853   4.020
 2970SOL     OW 8922   4.152   4.148   4.244
 2970SOL    HW1 8923   4.182   4.076   4.182
 2970SOL    HW2 8924   4.113   4.108   4.327
   4.50555   4.50555   4.50555
