mobley_3682850_GMX.gro created by acpype (v: 2023.10.27) on Wed May 20 23:42:56 2026
 2417
    1MOL     C1    1   2.169   2.229   2.376
    1MOL     C2    2   2.217   2.369   2.346
    1MOL     C3    3   2.156   2.135   2.259
    1MOL     C4    4   2.343   2.364   2.261
    1MOL     C5    5   2.283   2.135   2.175
    1MOL     C6    6   2.325   2.277   2.136
    1MOL     O1    7   2.131   2.197   2.489
    1MOL     H1    8   2.137   2.422   2.294
    1MOL     H2    9   2.238   2.421   2.440
    1MOL     H3   10   2.136   2.034   2.296
    1MOL     H4   11   2.069   2.167   2.199
    1MOL     H5   12   2.371   2.466   2.230
    1MOL     H6   13   2.426   2.325   2.320
    1MOL     H7   14   2.364   2.088   2.232
    1MOL     H8   15   2.268   2.075   2.085
    1MOL     H9   16   2.249   2.322   2.071
    1MOL    H10   17   2.418   2.274   2.080
   14SOL     OW   18   1.460   1.505   1.339
   14SOL    HW1   19   1.484   1.599   1.365
   14SOL    HW2   20   1.444   1.451   1.421
   18SOL     OW   21   1.127   1.341   1.690
   18SOL    HW1   22   1.174   1.341   1.778
   18SOL    HW2   23   1.079   1.254   1.679
   31SOL     OW   24   1.293   1.228   1.423
   31SOL    HW1   25   1.330   1.155   1.365
   31SOL    HW2   26   1.345   1.233   1.508
   35SOL     OW   27   1.187   1.792   1.616
   35SOL    HW1   28   1.211   1.852   1.540
   35SOL    HW2   29   1.194   1.697   1.586
   37SOL     OW   30   1.466   1.417   0.953
   37SOL    HW1   31   1.407   1.423   1.033
   37SOL    HW2   32   1.451   1.329   0.907
   56SOL     OW   33   1.227   1.550   1.506
   56SOL    HW1   34   1.233   1.473   1.570
   56SOL    HW2   35   1.175   1.524   1.426
   95SOL     OW   36   1.754   1.223   1.588
   95SOL    HW1   37   1.845   1.184   1.575
   95SOL    HW2   38   1.762   1.319   1.612
   96SOL     OW   39   1.064   1.347   1.340
   96SOL    HW1   40   0.984   1.324   1.395
   96SOL    HW2   41   1.147   1.321   1.389
   97SOL     OW   42   1.592   1.629   1.625
   97SOL    HW1   43   1.619   1.663   1.535
   97SOL    HW2   44   1.671   1.591   1.671
   99SOL     OW   45   1.638   1.099   1.079
   99SOL    HW1   46   1.643   1.180   1.138
   99SOL    HW2   47   1.552   1.101   1.028
  101SOL     OW   48   0.980   1.116   1.719
  101SOL    HW1   49   0.881   1.122   1.729
  101SOL    HW2   50   1.003   1.036   1.663
  109SOL     OW   51   1.272   1.445   1.142
  109SOL    HW1   52   1.319   1.458   1.229
  109SOL    HW2   53   1.206   1.371   1.151
  113SOL     OW   54   1.587   0.779   1.670
  113SOL    HW1   55   1.495   0.817   1.665
  113SOL    HW2   56   1.647   0.826   1.605
  122SOL     OW   57   1.728   0.935   1.854
  122SOL    HW1   58   1.682   0.928   1.765
  122SOL    HW2   59   1.666   0.979   1.920
  126SOL     OW   60   0.980   1.573   1.700
  126SOL    HW1   61   0.960   1.617   1.612
  126SOL    HW2   62   1.019   1.482   1.684
  127SOL     OW   63   1.859   1.518   1.605
  127SOL    HW1   64   1.873   1.545   1.510
  127SOL    HW2   65   1.942   1.540   1.658
  142SOL     OW   66   1.369   0.950   1.660
  142SOL    HW1   67   1.408   1.039   1.680
  142SOL    HW2   68   1.379   0.930   1.563
  147SOL     OW   69   0.930   1.678   1.465
  147SOL    HW1   70   0.906   1.660   1.370
  147SOL    HW2   71   0.960   1.772   1.475
  152SOL     OW   72   1.759   1.747   1.154
  152SOL    HW1   73   1.820   1.777   1.081
  152SOL    HW2   74   1.721   1.658   1.132
  153SOL     OW   75   1.252   1.731   1.128
  153SOL    HW1   76   1.336   1.736   1.074
  153SOL    HW2   77   1.229   1.635   1.146
  155SOL     OW   78   0.688   1.662   1.716
  155SOL    HW1   79   0.632   1.743   1.725
  155SOL    HW2   80   0.740   1.666   1.630
  163SOL     OW   81   1.650   1.720   1.394
  163SOL    HW1   82   1.703   1.730   1.310
  163SOL    HW2   83   1.623   1.810   1.428
  171SOL     OW   84   1.614   1.292   1.289
  171SOL    HW1   85   1.674   1.295   1.369
  171SOL    HW2   86   1.539   1.356   1.302
  184SOL     OW   87   1.493   1.767   0.959
  184SOL    HW1   88   1.526   1.831   0.890
  184SOL    HW2   89   1.559   1.761   1.034
  186SOL     OW   90   1.450   1.220   1.633
  186SOL    HW1   91   1.441   1.210   1.732
  186SOL    HW2   92   1.546   1.213   1.607
  188SOL     OW   93   1.674   0.883   1.254
  188SOL    HW1   94   1.647   0.794   1.217
  188SOL    HW2   95   1.675   0.951   1.181
  192SOL     OW   96   1.730   0.934   1.517
  192SOL    HW1   97   1.768   1.025   1.532
  192SOL    HW2   98   1.722   0.917   1.418
  197SOL     OW   99   1.861   1.569   0.851
  197SOL    HW1  100   1.790   1.557   0.781
  197SOL    HW2  101   1.862   1.490   0.911
  203SOL     OW  102   1.705   1.487   1.104
  203SOL    HW1  103   1.612   1.462   1.077
  203SOL    HW2  104   1.731   1.437   1.186
  219SOL     OW  105   1.555   1.511   2.565
  219SOL    HW1  106   1.498   1.495   2.646
  219SOL    HW2  107   1.496   1.521   2.485
  221SOL     OW  108   1.755   0.607   2.093
  221SOL    HW1  109   1.743   0.594   1.994
  221SOL    HW2  110   1.725   0.526   2.142
  227SOL     OW  111   1.460   1.505   3.201
  227SOL    HW1  112   1.484   1.599   3.227
  227SOL    HW2  113   1.444   1.451   3.283
  238SOL     OW  114   1.842   1.767   2.221
  238SOL    HW1  115   1.896   1.738   2.301
  238SOL    HW2  116   1.872   1.857   2.192
  240SOL     OW  117   1.689   0.922   2.474
  240SOL    HW1  118   1.784   0.893   2.482
  240SOL    HW2  119   1.681   0.987   2.399
  241SOL     OW  120   1.641   1.108   2.294
  241SOL    HW1  121   1.727   1.110   2.242
  241SOL    HW2  122   1.655   1.155   2.382
  244SOL     OW  123   1.293   1.228   3.285
  244SOL    HW1  124   1.330   1.155   3.227
  244SOL    HW2  125   1.345   1.233   3.370
  247SOL     OW  126   1.525   0.999   2.052
  247SOL    HW1  127   1.462   0.923   2.065
  247SOL    HW2  128   1.573   1.017   2.138
  248SOL     OW  129   1.187   1.792   3.478
  248SOL    HW1  130   1.211   1.852   3.402
  248SOL    HW2  131   1.194   1.697   3.448
  250SOL     OW  132   1.466   1.417   2.815
  250SOL    HW1  133   1.407   1.423   2.895
  250SOL    HW2  134   1.451   1.329   2.769
  251SOL     OW  135   1.667   1.714   2.434
  251SOL    HW1  136   1.626   1.691   2.346
  251SOL    HW2  137   1.649   1.640   2.499
  254SOL     OW  138   1.576   1.662   2.169
  254SOL    HW1  139   1.665   1.708   2.172
  254SOL    HW2  140   1.555   1.638   2.074
  264SOL     OW  141   1.362   1.144   2.407
  264SOL    HW1  142   1.445   1.115   2.359
  264SOL    HW2  143   1.313   1.211   2.351
  266SOL     OW  144   1.008   1.456   2.339
  266SOL    HW1  145   0.962   1.528   2.287
  266SOL    HW2  146   1.004   1.476   2.437
  268SOL     OW  147   1.795   1.066   2.735
  268SOL    HW1  148   1.733   1.051   2.659
  268SOL    HW2  149   1.743   1.077   2.820
  269SOL     OW  150   1.227   1.550   3.368
  269SOL    HW1  151   1.233   1.473   3.432
  269SOL    HW2  152   1.175   1.524   3.288
  271SOL     OW  153   1.458   0.735   2.590
  271SOL    HW1  154   1.453   0.670   2.665
  271SOL    HW2  155   1.538   0.794   2.603
  273SOL     OW  156   1.111   1.776   2.099
  273SOL    HW1  157   1.051   1.714   2.149
  273SOL    HW2  158   1.142   1.732   2.014
  275SOL     OW  159   1.632   1.377   1.943
  275SOL    HW1  160   1.600   1.471   1.933
  275SOL    HW2  161   1.556   1.314   1.931
  279SOL     OW  162   0.940   1.698   2.766
  279SOL    HW1  163   1.020   1.641   2.787
  279SOL    HW2  164   0.891   1.658   2.689
  284SOL     OW  165   0.888   1.514   3.057
  284SOL    HW1  166   0.865   1.489   2.963
  284SOL    HW2  167   0.949   1.445   3.096
  286SOL     OW  168   0.803   1.402   2.786
  286SOL    HW1  169   0.893   1.416   2.744
  286SOL    HW2  170   0.732   1.404   2.715
  289SOL     OW  171   1.434   1.188   1.903
  289SOL    HW1  172   1.466   1.112   1.960
  289SOL    HW2  173   1.342   1.215   1.933
  293SOL     OW  174   1.227   1.570   2.655
  293SOL    HW1  175   1.248   1.644   2.590
  293SOL    HW2  176   1.295   1.570   2.728
  295SOL     OW  177   1.271   1.797   2.453
  295SOL    HW1  178   1.315   1.861   2.389
  295SOL    HW2  179   1.221   1.849   2.523
  301SOL     OW  180   1.429   1.173   2.729
  301SOL    HW1  181   1.374   1.089   2.722
  301SOL    HW2  182   1.455   1.202   2.637
  303SOL     OW  183   1.857   0.833   2.239
  303SOL    HW1  184   1.899   0.769   2.303
  303SOL    HW2  185   1.819   0.782   2.161
  305SOL     OW  186   1.664   1.280   2.519
  305SOL    HW1  187   1.763   1.288   2.533
  305SOL    HW2  188   1.619   1.364   2.550
  308SOL     OW  189   1.754   1.223   3.450
  308SOL    HW1  190   1.845   1.184   3.437
  308SOL    HW2  191   1.762   1.319   3.474
  309SOL     OW  192   1.064   1.347   3.202
  309SOL    HW1  193   0.984   1.324   3.257
  309SOL    HW2  194   1.147   1.321   3.251
  310SOL     OW  195   1.592   1.629   3.487
  310SOL    HW1  196   1.619   1.663   3.397
  310SOL    HW2  197   1.671   1.591   3.533
  311SOL     OW  198   1.111   1.195   2.962
  311SOL    HW1  199   1.071   1.239   3.043
  311SOL    HW2  200   1.070   1.232   2.879
  312SOL     OW  201   1.638   1.099   2.941
  312SOL    HW1  202   1.643   1.180   3.000
  312SOL    HW2  203   1.552   1.101   2.890
  321SOL     OW  204   1.252   1.348   2.250
  321SOL    HW1  205   1.302   1.425   2.290
  321SOL    HW2  206   1.157   1.350   2.282
  322SOL     OW  207   1.272   1.445   3.004
  322SOL    HW1  208   1.319   1.458   3.091
  322SOL    HW2  209   1.206   1.371   3.013
  323SOL     OW  210   1.582   0.639   2.334
  323SOL    HW1  211   1.551   0.700   2.407
  323SOL    HW2  212   1.632   0.691   2.265
  330SOL     OW  213   1.360   0.862   2.907
  330SOL    HW1  214   1.285   0.862   2.841
  330SOL    HW2  215   1.397   0.770   2.916
  340SOL     OW  216   1.859   1.518   3.467
  340SOL    HW1  217   1.873   1.545   3.372
  340SOL    HW2  218   1.942   1.540   3.520
  343SOL     OW  219   1.303   0.838   1.904
  343SOL    HW1  220   1.337   0.745   1.919
  343SOL    HW2  221   1.321   0.865   1.809
  344SOL     OW  222   1.068   1.333   2.711
  344SOL    HW1  223   1.075   1.249   2.656
  344SOL    HW2  224   1.130   1.402   2.675
  360SOL     OW  225   0.930   1.678   3.327
  360SOL    HW1  226   0.906   1.660   3.232
  360SOL    HW2  227   0.960   1.772   3.337
  363SOL     OW  228   1.347   1.059   3.096
  363SOL    HW1  229   1.371   0.996   3.022
  363SOL    HW2  230   1.257   1.099   3.078
  364SOL     OW  231   1.302   0.855   2.171
  364SOL    HW1  232   1.216   0.824   2.213
  364SOL    HW2  233   1.298   0.841   2.072
  365SOL     OW  234   1.759   1.747   3.016
  365SOL    HW1  235   1.820   1.777   2.943
  365SOL    HW2  236   1.721   1.658   2.994
  366SOL     OW  237   1.252   1.731   2.990
  366SOL    HW1  238   1.336   1.736   2.936
  366SOL    HW2  239   1.229   1.635   3.008
  370SOL     OW  240   1.388   1.573   2.339
  370SOL    HW1  241   1.455   1.585   2.265
  370SOL    HW2  242   1.348   1.662   2.362
  372SOL     OW  243   1.280   0.927   2.534
  372SOL    HW1  244   1.340   0.846   2.536
  372SOL    HW2  245   1.320   0.996   2.474
  374SOL     OW  246   0.672   1.616   2.016
  374SOL    HW1  247   0.681   1.626   1.917
  374SOL    HW2  248   0.632   1.527   2.037
  375SOL     OW  249   1.650   1.720   3.256
  375SOL    HW1  250   1.703   1.730   3.172
  375SOL    HW2  251   1.623   1.810   3.290
  378SOL     OW  252   1.194   1.612   1.893
  378SOL    HW1  253   1.200   1.519   1.930
  378SOL    HW2  254   1.135   1.612   1.813
  381SOL     OW  255   1.504   1.607   1.906
  381SOL    HW1  256   1.412   1.644   1.913
  381SOL    HW2  257   1.542   1.627   1.816
  383SOL     OW  258   1.614   1.292   3.151
  383SOL    HW1  259   1.674   1.295   3.231
  383SOL    HW2  260   1.539   1.356   3.164
  384SOL     OW  261   1.039   1.098   2.558
  384SOL    HW1  262   0.969   1.051   2.612
  384SOL    HW2  263   1.098   1.030   2.515
  394SOL     OW  264   1.183   1.335   1.981
  394SOL    HW1  265   1.084   1.324   1.983
  394SOL    HW2  266   1.217   1.350   2.074
  396SOL     OW  267   1.493   1.767   2.821
  396SOL    HW1  268   1.526   1.831   2.752
  396SOL    HW2  269   1.559   1.761   2.896
  400SOL     OW  270   1.674   0.883   3.116
  400SOL    HW1  271   1.647   0.794   3.079
  400SOL    HW2  272   1.675   0.951   3.043
  405SOL     OW  273   0.859   1.374   1.878
  405SOL    HW1  274   0.813   1.389   1.966
  405SOL    HW2  275   0.903   1.459   1.848
  406SOL     OW  276   0.661   1.790   2.815
  406SOL    HW1  277   0.615   1.878   2.802
  406SOL    HW2  278   0.760   1.802   2.808
  408SOL     OW  279   1.083   0.984   1.949
  408SOL    HW1  280   1.060   1.037   1.867
  408SOL    HW2  281   1.164   0.928   1.930
  409SOL     OW  282   1.861   1.569   2.713
  409SOL    HW1  283   1.790   1.557   2.643
  409SOL    HW2  284   1.862   1.490   2.773
  415SOL     OW  285   1.705   1.487   2.966
  415SOL    HW1  286   1.612   1.462   2.939
  415SOL    HW2  287   1.731   1.437   3.048
  417SOL     OW  288   0.812   1.586   2.549
  417SOL    HW1  289   0.844   1.596   2.455
  417SOL    HW2  290   0.733   1.524   2.551
  420SOL     OW  291   0.770   1.330   2.163
  420SOL    HW1  292   0.724   1.243   2.180
  420SOL    HW2  293   0.861   1.327   2.204
  426SOL     OW  294   0.875   1.646   2.199
  426SOL    HW1  295   0.798   1.611   2.145
  426SOL    HW2  296   0.843   1.717   2.261
  521SOL     OW  297   0.850   2.660   1.823
  521SOL    HW1  298   0.846   2.736   1.888
  521SOL    HW2  299   0.872   2.696   1.732
  525SOL     OW  300   1.460   3.367   1.339
  525SOL    HW1  301   1.484   3.461   1.365
  525SOL    HW2  302   1.444   3.313   1.421
  527SOL     OW  303   1.603   2.309   0.737
  527SOL    HW1  304   1.529   2.355   0.687
  527SOL    HW2  305   1.654   2.377   0.790
  529SOL     OW  306   1.127   3.203   1.690
  529SOL    HW1  307   1.174   3.203   1.778
  529SOL    HW2  308   1.079   3.116   1.679
  534SOL     OW  309   1.594   1.976   1.480
  534SOL    HW1  310   1.576   2.043   1.408
  534SOL    HW2  311   1.591   2.022   1.569
  542SOL     OW  312   1.293   3.090   1.423
  542SOL    HW1  313   1.330   3.017   1.365
  542SOL    HW2  314   1.345   3.095   1.508
  551SOL     OW  315   1.281   2.207   0.944
  551SOL    HW1  316   1.195   2.157   0.931
  551SOL    HW2  317   1.343   2.153   1.000
  553SOL     OW  318   0.807   2.467   1.465
  553SOL    HW1  319   0.760   2.464   1.554
  553SOL    HW2  320   0.756   2.412   1.399
  554SOL     OW  321   1.394   2.331   1.674
  554SOL    HW1  322   1.374   2.374   1.762
  554SOL    HW2  323   1.472   2.269   1.683
  555SOL     OW  324   0.973   2.752   1.572
  555SOL    HW1  325   1.019   2.668   1.543
  555SOL    HW2  326   0.917   2.786   1.497
  556SOL     OW  327   0.991   2.272   1.242
  556SOL    HW1  328   0.914   2.306   1.296
  556SOL    HW2  329   0.957   2.221   1.163
  561SOL     OW  330   1.719   2.447   1.831
  561SOL    HW1  331   1.693   2.536   1.795
  561SOL    HW2  332   1.717   2.379   1.758
  566SOL     OW  333   1.795   2.928   0.873
  566SOL    HW1  334   1.733   2.913   0.797
  566SOL    HW2  335   1.743   2.939   0.958
  567SOL     OW  336   1.227   3.412   1.506
  567SOL    HW1  337   1.233   3.335   1.570
  567SOL    HW2  338   1.175   3.386   1.426
  569SOL     OW  339   1.458   2.597   0.728
  569SOL    HW1  340   1.453   2.532   0.803
  569SOL    HW2  341   1.538   2.656   0.741
  579SOL     OW  342   1.547   2.084   1.729
  579SOL    HW1  343   1.542   2.121   1.821
  579SOL    HW2  344   1.475   2.015   1.717
  580SOL     OW  345   0.781   2.126   1.749
  580SOL    HW1  346   0.848   2.065   1.792
  580SOL    HW2  347   0.708   2.145   1.814
  582SOL     OW  348   1.351   2.452   1.433
  582SOL    HW1  349   1.379   2.409   1.518
  582SOL    HW2  350   1.376   2.548   1.434
  588SOL     OW  351   1.076   2.545   1.464
  588SOL    HW1  352   0.996   2.484   1.467
  588SOL    HW2  353   1.157   2.492   1.440
  597SOL     OW  354   1.429   3.035   0.867
  597SOL    HW1  355   1.374   2.951   0.860
  597SOL    HW2  356   1.455   3.064   0.775
  598SOL     OW  357   1.466   2.452   0.992
  598SOL    HW1  358   1.436   2.357   0.999
  598SOL    HW2  359   1.539   2.468   1.058
  604SOL     OW  360   1.754   3.085   1.588
  604SOL    HW1  361   1.845   3.046   1.575
  604SOL    HW2  362   1.762   3.181   1.612
  605SOL     OW  363   1.064   3.209   1.340
  605SOL    HW1  364   0.984   3.186   1.395
  605SOL    HW2  365   1.147   3.183   1.389
  606SOL     OW  366   1.592   3.491   1.625
  606SOL    HW1  367   1.619   3.525   1.535
  606SOL    HW2  368   1.671   3.453   1.671
  608SOL     OW  369   1.638   2.961   1.079
  608SOL    HW1  370   1.643   3.042   1.138
  608SOL    HW2  371   1.552   2.963   1.028
  609SOL     OW  372   0.915   1.951   1.402
  609SOL    HW1  373   0.940   1.931   1.307
  609SOL    HW2  374   0.987   2.007   1.444
  610SOL     OW  375   0.980   2.978   1.719
  610SOL    HW1  376   0.881   2.984   1.729
  610SOL    HW2  377   1.003   2.898   1.663
  613SOL     OW  378   1.274   2.248   1.262
  613SOL    HW1  379   1.295   2.322   1.326
  613SOL    HW2  380   1.185   2.265   1.219
  622SOL     OW  381   1.587   2.641   1.670
  622SOL    HW1  382   1.495   2.679   1.665
  622SOL    HW2  383   1.647   2.688   1.605
  623SOL     OW  384   1.013   1.967   1.770
  623SOL    HW1  385   1.019   2.052   1.718
  623SOL    HW2  386   1.045   1.891   1.713
  626SOL     OW  387   1.360   2.724   1.045
  626SOL    HW1  388   1.285   2.724   0.979
  626SOL    HW2  389   1.397   2.632   1.054
  631SOL     OW  390   1.728   2.797   1.854
  631SOL    HW1  391   1.682   2.790   1.765
  631SOL    HW2  392   1.666   2.841   1.920
  636SOL     OW  393   1.859   3.380   1.605
  636SOL    HW1  394   1.873   3.407   1.510
  636SOL    HW2  395   1.942   3.402   1.658
  643SOL     OW  396   1.138   2.242   1.678
  643SOL    HW1  397   1.093   2.305   1.742
  643SOL    HW2  398   1.231   2.273   1.661
  644SOL     OW  399   1.160   2.069   1.477
  644SOL    HW1  400   1.160   2.133   1.554
  644SOL    HW2  401   1.188   2.117   1.394
  648SOL     OW  402   1.002   2.658   1.238
  648SOL    HW1  403   1.043   2.626   1.324
  648SOL    HW2  404   0.906   2.631   1.235
  651SOL     OW  405   1.369   2.812   1.660
  651SOL    HW1  406   1.408   2.901   1.680
  651SOL    HW2  407   1.379   2.792   1.563
  653SOL     OW  408   1.657   2.466   1.206
  653SOL    HW1  409   1.619   2.397   1.268
  653SOL    HW2  410   1.739   2.430   1.162
  659SOL     OW  411   1.347   2.921   1.234
  659SOL    HW1  412   1.371   2.858   1.160
  659SOL    HW2  413   1.257   2.961   1.216
  672SOL     OW  414   1.650   3.582   1.394
  672SOL    HW1  415   1.703   3.592   1.310
  672SOL    HW2  416   1.623   3.672   1.428
  673SOL     OW  417   1.841   2.037   0.963
  673SOL    HW1  418   1.880   1.952   0.927
  673SOL    HW2  419   1.743   2.039   0.944
  676SOL     OW  420   0.822   2.864   1.372
  676SOL    HW1  421   0.862   2.863   1.280
  676SOL    HW2  422   0.832   2.956   1.412
  680SOL     OW  423   1.614   3.154   1.289
  680SOL    HW1  424   1.674   3.157   1.369
  680SOL    HW2  425   1.539   3.218   1.302
  682SOL     OW  426   1.014   2.098   0.971
  682SOL    HW1  427   1.006   2.062   0.878
  682SOL    HW2  428   1.012   2.022   1.036
  684SOL     OW  429   1.709   2.247   1.381
  684SOL    HW1  430   1.782   2.316   1.385
  684SOL    HW2  431   1.737   2.172   1.322
  687SOL     OW  432   0.672   2.065   1.489
  687SOL    HW1  433   0.762   2.049   1.449
  687SOL    HW2  434   0.680   2.070   1.588
  689SOL     OW  435   1.440   2.718   1.398
  689SOL    HW1  436   1.383   2.770   1.335
  689SOL    HW2  437   1.536   2.730   1.374
  694SOL     OW  438   0.716   2.427   1.708
  694SOL    HW1  439   0.735   2.492   1.782
  694SOL    HW2  440   0.776   2.347   1.717
  695SOL     OW  441   1.450   3.082   1.633
  695SOL    HW1  442   1.441   3.072   1.732
  695SOL    HW2  443   1.546   3.075   1.607
  697SOL     OW  444   1.674   2.745   1.254
  697SOL    HW1  445   1.647   2.656   1.217
  697SOL    HW2  446   1.675   2.813   1.181
  700SOL     OW  447   1.777   2.204   1.642
  700SOL    HW1  448   1.760   2.235   1.548
  700SOL    HW2  449   1.693   2.167   1.680
  701SOL     OW  450   1.730   2.796   1.517
  701SOL    HW1  451   1.768   2.887   1.532
  701SOL    HW2  452   1.722   2.779   1.418
  710SOL     OW  453   1.824   2.054   1.227
  710SOL    HW1  454   1.820   1.964   1.271
  710SOL    HW2  455   1.827   2.043   1.128
  712SOL     OW  456   1.705   3.349   1.104
  712SOL    HW1  457   1.612   3.324   1.077
  712SOL    HW2  458   1.731   3.299   1.186
  715SOL     OW  459   1.424   2.076   1.112
  715SOL    HW1  460   1.476   2.011   1.167
  715SOL    HW2  461   1.375   2.139   1.173
  716SOL     OW  462   1.001   1.896   1.154
  716SOL    HW1  463   0.938   1.824   1.123
  716SOL    HW2  464   1.094   1.860   1.154
  721SOL     OW  465   1.593   2.083   0.882
  721SOL    HW1  466   1.509   2.082   0.936
  721SOL    HW2  467   1.595   2.166   0.826
  728SOL     OW  468   1.555   3.373   2.565
  728SOL    HW1  469   1.498   3.357   2.646
  728SOL    HW2  470   1.496   3.383   2.485
  729SOL     OW  471   1.135   2.565   2.579
  729SOL    HW1  472   1.192   2.643   2.554
  729SOL    HW2  473   1.075   2.591   2.655
  730SOL     OW  474   1.755   2.469   2.093
  730SOL    HW1  475   1.743   2.456   1.994
  730SOL    HW2  476   1.725   2.388   2.142
  731SOL     OW  477   0.768   3.006   2.885
  731SOL    HW1  478   0.690   3.023   2.945
  731SOL    HW2  479   0.802   3.093   2.849
  733SOL     OW  480   0.685   2.874   2.527
  733SOL    HW1  481   0.754   2.858   2.597
  733SOL    HW2  482   0.612   2.931   2.565
  736SOL     OW  483   1.460   3.367   3.201
  736SOL    HW1  484   1.484   3.461   3.227
  736SOL    HW2  485   1.444   3.313   3.283
  738SOL     OW  486   1.603   2.309   2.599
  738SOL    HW1  487   1.529   2.355   2.549
  738SOL    HW2  488   1.654   2.377   2.652
  744SOL     OW  489   0.606   2.826   1.985
  744SOL    HW1  490   0.613   2.910   1.931
  744SOL    HW2  491   0.652   2.839   2.073
  745SOL     OW  492   1.594   1.976   3.342
  745SOL    HW1  493   1.576   2.043   3.270
  745SOL    HW2  494   1.591   2.022   3.431
  747SOL     OW  495   1.842   3.629   2.221
  747SOL    HW1  496   1.896   3.600   2.301
  747SOL    HW2  497   1.872   3.719   2.192
  749SOL     OW  498   1.689   2.784   2.474
  749SOL    HW1  499   1.784   2.755   2.482
  749SOL    HW2  500   1.681   2.849   2.399
  750SOL     OW  501   1.641   2.970   2.294
  750SOL    HW1  502   1.727   2.972   2.242
  750SOL    HW2  503   1.655   3.017   2.382
  753SOL     OW  504   1.293   3.090   3.285
  753SOL    HW1  505   1.330   3.017   3.227
  753SOL    HW2  506   1.345   3.095   3.370
  754SOL     OW  507   0.809   1.866   2.364
  754SOL    HW1  508   0.849   1.957   2.355
  754SOL    HW2  509   0.709   1.874   2.370
  756SOL     OW  510   1.525   2.861   2.052
  756SOL    HW1  511   1.462   2.785   2.065
  756SOL    HW2  512   1.573   2.879   2.138
  759SOL     OW  513   1.466   3.279   2.815
  759SOL    HW1  514   1.407   3.285   2.895
  759SOL    HW2  515   1.451   3.191   2.769
  760SOL     OW  516   1.667   3.576   2.434
  760SOL    HW1  517   1.626   3.553   2.346
  760SOL    HW2  518   1.649   3.502   2.499
  761SOL     OW  519   0.598   2.591   2.132
  761SOL    HW1  520   0.622   2.660   2.064
  761SOL    HW2  521   0.520   2.624   2.186
  762SOL     OW  522   1.281   2.207   2.806
  762SOL    HW1  523   1.195   2.157   2.793
  762SOL    HW2  524   1.343   2.153   2.862
  763SOL     OW  525   1.576   3.524   2.169
  763SOL    HW1  526   1.665   3.570   2.172
  763SOL    HW2  527   1.555   3.500   2.074
  765SOL     OW  528   1.394   2.331   3.536
  765SOL    HW1  529   1.374   2.374   3.624
  765SOL    HW2  530   1.472   2.269   3.545
  767SOL     OW  531   0.991   2.272   3.104
  767SOL    HW1  532   0.914   2.306   3.158
  767SOL    HW2  533   0.957   2.221   3.025
  768SOL     OW  534   1.041   2.563   2.291
  768SOL    HW1  535   1.067   2.559   2.387
  768SOL    HW2  536   0.956   2.512   2.277
  771SOL     OW  537   0.865   2.210   2.057
  771SOL    HW1  538   0.924   2.273   2.008
  771SOL    HW2  539   0.884   2.116   2.028
  772SOL     OW  540   1.719   2.447   3.693
  772SOL    HW1  541   1.693   2.536   3.657
  772SOL    HW2  542   1.717   2.379   3.620
  773SOL     OW  543   1.362   3.006   2.407
  773SOL    HW1  544   1.445   2.977   2.359
  773SOL    HW2  545   1.313   3.073   2.351
  774SOL     OW  546   0.550   2.058   2.747
  774SOL    HW1  547   0.545   2.053   2.847
  774SOL    HW2  548   0.552   2.154   2.718
  775SOL     OW  549   1.008   3.318   2.339
  775SOL    HW1  550   0.962   3.390   2.287
  775SOL    HW2  551   1.004   3.338   2.437
  777SOL     OW  552   1.795   2.928   2.735
  777SOL    HW1  553   1.733   2.913   2.659
  777SOL    HW2  554   1.743   2.939   2.820
  780SOL     OW  555   1.458   2.597   2.590
  780SOL    HW1  556   1.453   2.532   2.665
  780SOL    HW2  557   1.538   2.656   2.603
  784SOL     OW  558   1.632   3.239   1.943
  784SOL    HW1  559   1.600   3.333   1.933
  784SOL    HW2  560   1.556   3.176   1.931
  786SOL     OW  561   1.400   1.969   2.288
  786SOL    HW1  562   1.376   1.932   2.198
  786SOL    HW2  563   1.499   1.985   2.292
  790SOL     OW  564   1.547   2.084   3.591
  790SOL    HW1  565   1.542   2.121   3.683
  790SOL    HW2  566   1.475   2.015   3.579
  791SOL     OW  567   0.614   1.984   1.979
  791SOL    HW1  568   0.712   1.962   1.986
  791SOL    HW2  569   0.583   1.967   1.886
  794SOL     OW  570   1.351   2.452   3.295
  794SOL    HW1  571   1.379   2.409   3.380
  794SOL    HW2  572   1.376   2.548   3.296
  796SOL     OW  573   0.922   2.365   2.761
  796SOL    HW1  574   0.897   2.356   2.665
  796SOL    HW2  575   0.970   2.283   2.792
  797SOL     OW  576   0.539   1.926   2.374
  797SOL    HW1  577   0.458   1.927   2.432
  797SOL    HW2  578   0.542   2.009   2.319
  798SOL     OW  579   1.434   3.050   1.903
  798SOL    HW1  580   1.466   2.974   1.960
  798SOL    HW2  581   1.342   3.077   1.933
  800SOL     OW  582   0.935   2.098   2.342
  800SOL    HW1  583   0.887   2.139   2.264
  800SOL    HW2  584   1.034   2.096   2.323
  801SOL     OW  585   1.076   2.545   3.326
  801SOL    HW1  586   0.996   2.484   3.329
  801SOL    HW2  587   1.157   2.492   3.302
  802SOL     OW  588   1.227   3.432   2.655
  802SOL    HW1  589   1.248   3.506   2.590
  802SOL    HW2  590   1.295   3.432   2.728
  804SOL     OW  591   1.271   3.659   2.453
  804SOL    HW1  592   1.315   3.723   2.389
  804SOL    HW2  593   1.221   3.711   2.523
  805SOL     OW  594   1.032   2.411   1.878
  805SOL    HW1  595   0.991   2.493   1.839
  805SOL    HW2  596   1.096   2.437   1.951
  808SOL     OW  597   0.866   2.316   2.504
  808SOL    HW1  598   0.834   2.388   2.442
  808SOL    HW2  599   0.890   2.235   2.451
  809SOL     OW  600   1.017   1.901   2.615
  809SOL    HW1  601   0.945   1.906   2.546
  809SOL    HW2  602   0.993   1.832   2.684
  810SOL     OW  603   1.429   3.035   2.729
  810SOL    HW1  604   1.374   2.951   2.722
  810SOL    HW2  605   1.455   3.064   2.637
  811SOL     OW  606   1.466   2.452   2.854
  811SOL    HW1  607   1.436   2.357   2.861
  811SOL    HW2  608   1.539   2.468   2.920
  812SOL     OW  609   1.857   2.695   2.239
  812SOL    HW1  610   1.899   2.631   2.303
  812SOL    HW2  611   1.819   2.644   2.161
  814SOL     OW  612   1.664   3.142   2.519
  814SOL    HW1  613   1.763   3.150   2.533
  814SOL    HW2  614   1.619   3.226   2.550
  815SOL     OW  615   1.390   2.437   1.940
  815SOL    HW1  616   1.336   2.416   2.021
  815SOL    HW2  617   1.481   2.396   1.949
  816SOL     OW  618   0.527   2.118   2.190
  816SOL    HW1  619   0.554   2.059   2.115
  816SOL    HW2  620   0.527   2.213   2.159
  817SOL     OW  621   1.754   3.085   3.450
  817SOL    HW1  622   1.845   3.046   3.437
  817SOL    HW2  623   1.762   3.181   3.474
  818SOL     OW  624   1.064   3.209   3.202
  818SOL    HW1  625   0.984   3.186   3.257
  818SOL    HW2  626   1.147   3.183   3.251
  820SOL     OW  627   1.111   3.057   2.962
  820SOL    HW1  628   1.071   3.101   3.043
  820SOL    HW2  629   1.070   3.094   2.879
  821SOL     OW  630   1.638   2.961   2.941
  821SOL    HW1  631   1.643   3.042   3.000
  821SOL    HW2  632   1.552   2.963   2.890
  822SOL     OW  633   0.915   1.951   3.264
  822SOL    HW1  634   0.940   1.931   3.169
  822SOL    HW2  635   0.987   2.007   3.306
  824SOL     OW  636   0.705   2.912   2.230
  824SOL    HW1  637   0.691   2.919   2.329
  824SOL    HW2  638   0.789   2.861   2.212
  826SOL     OW  639   1.274   2.248   3.124
  826SOL    HW1  640   1.295   2.322   3.188
  826SOL    HW2  641   1.185   2.265   3.081
  829SOL     OW  642   0.566   2.399   2.727
  829SOL    HW1  643   0.578   2.465   2.653
  829SOL    HW2  644   0.612   2.433   2.810
  830SOL     OW  645   1.252   3.210   2.250
  830SOL    HW1  646   1.302   3.287   2.290
  830SOL    HW2  647   1.157   3.212   2.282
  831SOL     OW  648   1.272   3.307   3.004
  831SOL    HW1  649   1.319   3.320   3.091
  831SOL    HW2  650   1.206   3.233   3.013
  832SOL     OW  651   1.582   2.501   2.334
  832SOL    HW1  652   1.551   2.562   2.407
  832SOL    HW2  653   1.632   2.553   2.265
  835SOL     OW  654   1.587   2.641   3.532
  835SOL    HW1  655   1.495   2.679   3.527
  835SOL    HW2  656   1.647   2.688   3.467
  839SOL     OW  657   1.360   2.724   2.907
  839SOL    HW1  658   1.285   2.724   2.841
  839SOL    HW2  659   1.397   2.632   2.916
  840SOL     OW  660   1.209   2.387   2.137
  840SOL    HW1  661   1.222   2.303   2.191
  840SOL    HW2  662   1.180   2.461   2.197
  843SOL     OW  663   0.732   2.496   2.926
  843SOL    HW1  664   0.791   2.470   2.850
  843SOL    HW2  665   0.704   2.592   2.915
  844SOL     OW  666   1.728   2.797   3.716
  844SOL    HW1  667   1.682   2.790   3.627
  844SOL    HW2  668   1.666   2.841   3.782
  846SOL     OW  669   1.622   2.229   2.236
  846SOL    HW1  670   1.624   2.153   2.300
  846SOL    HW2  671   1.574   2.306   2.276
  847SOL     OW  672   1.023   2.628   2.828
  847SOL    HW1  673   1.038   2.649   2.924
  847SOL    HW2  674   0.993   2.533   2.819
  849SOL     OW  675   1.859   3.380   3.467
  849SOL    HW1  676   1.873   3.407   3.372
  849SOL    HW2  677   1.942   3.402   3.520
  851SOL     OW  678   1.540   2.136   1.987
  851SOL    HW1  679   1.479   2.061   2.010
  851SOL    HW2  680   1.562   2.188   2.070
  852SOL     OW  681   1.303   2.700   1.904
  852SOL    HW1  682   1.337   2.607   1.919
  852SOL    HW2  683   1.321   2.727   1.809
  853SOL     OW  684   1.068   3.195   2.711
  853SOL    HW1  685   1.075   3.111   2.656
  853SOL    HW2  686   1.130   3.264   2.675
  856SOL     OW  687   1.138   2.242   3.540
  856SOL    HW1  688   1.093   2.305   3.604
  856SOL    HW2  689   1.231   2.273   3.523
  857SOL     OW  690   1.160   2.069   3.339
  857SOL    HW1  691   1.160   2.133   3.416
  857SOL    HW2  692   1.188   2.117   3.256
  861SOL     OW  693   1.002   2.658   3.100
  861SOL    HW1  694   1.043   2.626   3.186
  861SOL    HW2  695   0.906   2.631   3.097
  864SOL     OW  696   1.369   2.812   3.522
  864SOL    HW1  697   1.408   2.901   3.542
  864SOL    HW2  698   1.379   2.792   3.425
  865SOL     OW  699   0.815   2.434   2.187
  865SOL    HW1  700   0.822   2.345   2.141
  865SOL    HW2  701   0.721   2.468   2.179
  866SOL     OW  702   1.657   2.466   3.068
  866SOL    HW1  703   1.619   2.397   3.130
  866SOL    HW2  704   1.739   2.430   3.024
  870SOL     OW  705   0.473   2.362   2.053
  870SOL    HW1  706   0.534   2.442   2.057
  870SOL    HW2  707   0.378   2.393   2.060
  872SOL     OW  708   1.347   2.921   3.096
  872SOL    HW1  709   1.371   2.858   3.022
  872SOL    HW2  710   1.257   2.961   3.078
  873SOL     OW  711   1.302   2.717   2.171
  873SOL    HW1  712   1.216   2.686   2.213
  873SOL    HW2  713   1.298   2.703   2.072
  874SOL     OW  714   1.759   3.609   3.016
  874SOL    HW1  715   1.820   3.639   2.943
  874SOL    HW2  716   1.721   3.520   2.994
  878SOL     OW  717   1.726   1.997   2.385
  878SOL    HW1  718   1.799   1.980   2.318
  878SOL    HW2  719   1.695   1.910   2.423
  879SOL     OW  720   1.388   3.435   2.339
  879SOL    HW1  721   1.455   3.447   2.265
  879SOL    HW2  722   1.348   3.524   2.362
  881SOL     OW  723   1.280   2.789   2.534
  881SOL    HW1  724   1.340   2.708   2.536
  881SOL    HW2  725   1.320   2.858   2.474
  884SOL     OW  726   1.650   3.582   3.256
  884SOL    HW1  727   1.703   3.592   3.172
  884SOL    HW2  728   1.623   3.672   3.290
  885SOL     OW  729   1.841   2.037   2.825
  885SOL    HW1  730   1.880   1.952   2.789
  885SOL    HW2  731   1.743   2.039   2.806
  887SOL     OW  732   1.194   3.474   1.893
  887SOL    HW1  733   1.200   3.381   1.930
  887SOL    HW2  734   1.135   3.474   1.813
  889SOL     OW  735   0.916   2.772   2.153
  889SOL    HW1  736   0.979   2.810   2.085
  889SOL    HW2  737   0.956   2.689   2.192
  890SOL     OW  738   1.504   3.469   1.906
  890SOL    HW1  739   1.412   3.506   1.913
  890SOL    HW2  740   1.542   3.489   1.816
  892SOL     OW  741   1.614   3.154   3.151
  892SOL    HW1  742   1.674   3.157   3.231
  892SOL    HW2  743   1.539   3.218   3.164
  893SOL     OW  744   1.039   2.960   2.558
  893SOL    HW1  745   0.969   2.913   2.612
  893SOL    HW2  746   1.098   2.892   2.515
  894SOL     OW  747   1.014   2.098   2.833
  894SOL    HW1  748   1.006   2.062   2.740
  894SOL    HW2  749   1.012   2.022   2.898
  896SOL     OW  750   1.709   2.247   3.243
  896SOL    HW1  751   1.782   2.316   3.247
  896SOL    HW2  752   1.737   2.172   3.184
  901SOL     OW  753   1.440   2.718   3.260
  901SOL    HW1  754   1.383   2.770   3.197
  901SOL    HW2  755   1.536   2.730   3.236
  903SOL     OW  756   1.183   3.197   1.981
  903SOL    HW1  757   1.084   3.186   1.983
  903SOL    HW2  758   1.217   3.212   2.074
  905SOL     OW  759   1.493   3.629   2.821
  905SOL    HW1  760   1.526   3.693   2.752
  905SOL    HW2  761   1.559   3.623   2.896
  907SOL     OW  762   1.450   3.082   3.495
  907SOL    HW1  763   1.441   3.072   3.594
  907SOL    HW2  764   1.546   3.075   3.469
  909SOL     OW  765   1.674   2.745   3.116
  909SOL    HW1  766   1.647   2.656   3.079
  909SOL    HW2  767   1.675   2.813   3.043
  910SOL     OW  768   1.225   2.187   2.311
  910SOL    HW1  769   1.290   2.113   2.300
  910SOL    HW2  770   1.245   2.237   2.395
  911SOL     OW  771   0.594   2.607   2.514
  911SOL    HW1  772   0.644   2.692   2.495
  911SOL    HW2  773   0.506   2.609   2.466
  912SOL     OW  774   1.777   2.204   3.504
  912SOL    HW1  775   1.760   2.235   3.410
  912SOL    HW2  776   1.693   2.167   3.542
  913SOL     OW  777   1.730   2.796   3.379
  913SOL    HW1  778   1.768   2.887   3.394
  913SOL    HW2  779   1.722   2.779   3.280
  914SOL     OW  780   0.859   3.236   1.878
  914SOL    HW1  781   0.813   3.251   1.966
  914SOL    HW2  782   0.903   3.321   1.848
  916SOL     OW  783   0.859   2.818   2.723
  916SOL    HW1  784   0.913   2.749   2.771
  916SOL    HW2  785   0.827   2.887   2.789
  917SOL     OW  786   1.083   2.846   1.949
  917SOL    HW1  787   1.060   2.899   1.867
  917SOL    HW2  788   1.164   2.790   1.930
  918SOL     OW  789   1.861   3.431   2.713
  918SOL    HW1  790   1.790   3.419   2.643
  918SOL    HW2  791   1.862   3.352   2.773
  922SOL     OW  792   1.824   2.054   3.089
  922SOL    HW1  793   1.820   1.964   3.133
  922SOL    HW2  794   1.827   2.043   2.990
  924SOL     OW  795   1.705   3.349   2.966
  924SOL    HW1  796   1.612   3.324   2.939
  924SOL    HW2  797   1.731   3.299   3.048
  927SOL     OW  798   1.424   2.076   2.974
  927SOL    HW1  799   1.476   2.011   3.029
  927SOL    HW2  800   1.375   2.139   3.035
  928SOL     OW  801   1.001   1.896   3.016
  928SOL    HW1  802   0.938   1.824   2.985
  928SOL    HW2  803   1.094   1.860   3.016
  929SOL     OW  804   0.770   3.192   2.163
  929SOL    HW1  805   0.724   3.105   2.180
  929SOL    HW2  806   0.861   3.189   2.204
  931SOL     OW  807   1.352   1.914   2.030
  931SOL    HW1  808   1.387   1.873   1.946
  931SOL    HW2  809   1.262   1.876   2.050
  932SOL     OW  810   1.300   2.315   2.553
  932SOL    HW1  811   1.241   2.395   2.557
  932SOL    HW2  812   1.315   2.280   2.646
  933SOL     OW  813   1.593   2.083   2.744
  933SOL    HW1  814   1.509   2.082   2.798
  933SOL    HW2  815   1.595   2.166   2.688
  937SOL     OW  816   1.755   2.469   3.955
  937SOL    HW1  817   1.743   2.456   3.856
  937SOL    HW2  818   1.725   2.388   4.004
  981SOL     OW  819   1.390   2.437   3.802
  981SOL    HW1  820   1.336   2.416   3.883
  981SOL    HW2  821   1.481   2.396   3.811
  991SOL     OW  822   1.540   2.136   3.849
  991SOL    HW1  823   1.479   2.061   3.872
  991SOL    HW2  824   1.562   2.188   3.932
 1134SOL     OW  825   1.400   3.831   2.288
 1134SOL    HW1  826   1.376   3.794   2.198
 1134SOL    HW2  827   1.499   3.847   2.292
 1177SOL     OW  828   1.726   3.859   2.385
 1177SOL    HW1  829   1.799   3.842   2.318
 1177SOL    HW2  830   1.695   3.772   2.423
 1179SOL     OW  831   1.841   3.899   2.825
 1179SOL    HW1  832   1.880   3.814   2.789
 1179SOL    HW2  833   1.743   3.901   2.806
 1197SOL     OW  834   1.352   3.776   2.030
 1197SOL    HW1  835   1.387   3.735   1.946
 1197SOL    HW2  836   1.262   3.738   2.050
 1242SOL     OW  837   2.431   1.275   1.165
 1242SOL    HW1  838   2.338   1.268   1.128
 1242SOL    HW2  839   2.442   1.364   1.209
 1246SOL     OW  840   2.630   1.144   1.023
 1246SOL    HW1  841   2.552   1.161   1.083
 1246SOL    HW2  842   2.664   1.231   0.987
 1247SOL     OW  843   2.712   0.798   1.823
 1247SOL    HW1  844   2.708   0.874   1.888
 1247SOL    HW2  845   2.734   0.834   1.732
 1249SOL     OW  846   2.548   1.161   1.803
 1249SOL    HW1  847   2.608   1.240   1.817
 1249SOL    HW2  848   2.462   1.192   1.762
 1250SOL     OW  849   2.197   1.435   1.061
 1250SOL    HW1  850   2.119   1.404   1.008
 1250SOL    HW2  851   2.255   1.493   1.004
 1251SOL     OW  852   3.322   1.505   1.339
 1251SOL    HW1  853   3.346   1.599   1.365
 1251SOL    HW2  854   3.306   1.451   1.421
 1255SOL     OW  855   2.989   1.341   1.690
 1255SOL    HW1  856   3.036   1.341   1.778
 1255SOL    HW2  857   2.941   1.254   1.679
 1257SOL     OW  858   2.102   1.091   0.886
 1257SOL    HW1  859   2.116   1.007   0.938
 1257SOL    HW2  860   2.047   1.155   0.941
 1258SOL     OW  861   2.482   1.786   1.439
 1258SOL    HW1  862   2.390   1.769   1.474
 1258SOL    HW2  863   2.510   1.878   1.465
 1266SOL     OW  864   1.975   0.737   1.597
 1266SOL    HW1  865   2.063   0.724   1.642
 1266SOL    HW2  866   1.962   0.834   1.575
 1267SOL     OW  867   2.475   1.365   0.726
 1267SOL    HW1  868   2.426   1.278   0.735
 1267SOL    HW2  869   2.452   1.408   0.639
 1268SOL     OW  870   3.155   1.228   1.423
 1268SOL    HW1  871   3.192   1.155   1.365
 1268SOL    HW2  872   3.207   1.233   1.508
 1270SOL     OW  873   2.059   0.976   1.264
 1270SOL    HW1  874   2.148   0.931   1.250
 1270SOL    HW2  875   1.986   0.911   1.245
 1272SOL     OW  876   3.049   1.792   1.616
 1272SOL    HW1  877   3.073   1.852   1.540
 1272SOL    HW2  878   3.056   1.697   1.586
 1281SOL     OW  879   2.835   0.890   1.572
 1281SOL    HW1  880   2.881   0.806   1.543
 1281SOL    HW2  881   2.779   0.924   1.497
 1285SOL     OW  882   1.992   1.821   1.571
 1285SOL    HW1  883   1.982   1.806   1.670
 1285SOL    HW2  884   1.906   1.857   1.535
 1291SOL     OW  885   2.213   1.801   0.853
 1291SOL    HW1  886   2.263   1.715   0.859
 1291SOL    HW2  887   2.278   1.878   0.850
 1293SOL     OW  888   3.089   1.550   1.506
 1293SOL    HW1  889   3.095   1.473   1.570
 1293SOL    HW2  890   3.037   1.524   1.426
 1296SOL     OW  891   2.323   1.266   1.727
 1296SOL    HW1  892   2.273   1.267   1.641
 1296SOL    HW2  893   2.260   1.248   1.803
 1302SOL     OW  894   2.111   1.785   1.241
 1302SOL    HW1  895   2.168   1.720   1.291
 1302SOL    HW2  896   2.095   1.752   1.148
 1303SOL     OW  897   2.802   1.698   0.904
 1303SOL    HW1  898   2.882   1.641   0.925
 1303SOL    HW2  899   2.753   1.658   0.827
 1308SOL     OW  900   2.750   1.514   1.195
 1308SOL    HW1  901   2.727   1.489   1.101
 1308SOL    HW2  902   2.811   1.445   1.234
 1310SOL     OW  903   2.665   1.402   0.924
 1310SOL    HW1  904   2.755   1.416   0.882
 1310SOL    HW2  905   2.594   1.404   0.853
 1333SOL     OW  906   2.926   1.347   1.340
 1333SOL    HW1  907   2.846   1.324   1.395
 1333SOL    HW2  908   3.009   1.321   1.389
 1334SOL     OW  909   3.454   1.629   1.625
 1334SOL    HW1  910   3.481   1.663   1.535
 1334SOL    HW2  911   3.533   1.591   1.671
 1335SOL     OW  912   2.973   1.195   1.100
 1335SOL    HW1  913   2.933   1.239   1.181
 1335SOL    HW2  914   2.932   1.232   1.017
 1338SOL     OW  915   2.842   1.116   1.719
 1338SOL    HW1  916   2.743   1.122   1.729
 1338SOL    HW2  917   2.865   1.036   1.663
 1340SOL     OW  918   2.272   0.813   1.251
 1340SOL    HW1  919   2.358   0.825   1.301
 1340SOL    HW2  920   2.230   0.726   1.278
 1342SOL     OW  921   1.926   1.564   1.331
 1342SOL    HW1  922   1.880   1.646   1.297
 1342SOL    HW2  923   2.024   1.583   1.340
 1346SOL     OW  924   3.134   1.445   1.142
 1346SOL    HW1  925   3.181   1.458   1.229
 1346SOL    HW2  926   3.068   1.371   1.151
 1348SOL     OW  927   2.216   1.510   1.329
 1348SOL    HW1  928   2.195   1.466   1.242
 1348SOL    HW2  929   2.313   1.536   1.332
 1349SOL     OW  930   2.264   0.751   1.598
 1349SOL    HW1  931   2.332   0.806   1.551
 1349SOL    HW2  932   2.304   0.663   1.625
 1357SOL     OW  933   1.899   1.310   1.282
 1357SOL    HW1  934   1.952   1.261   1.350
 1357SOL    HW2  935   1.921   1.408   1.287
 1363SOL     OW  936   2.842   1.573   1.700
 1363SOL    HW1  937   2.822   1.617   1.612
 1363SOL    HW2  938   2.881   1.482   1.684
 1364SOL     OW  939   3.721   1.518   1.605
 1364SOL    HW1  940   3.735   1.545   1.510
 1364SOL    HW2  941   3.804   1.540   1.658
 1365SOL     OW  942   2.212   0.898   1.804
 1365SOL    HW1  943   2.288   0.942   1.852
 1365SOL    HW2  944   2.247   0.851   1.722
 1374SOL     OW  945   1.950   1.801   0.927
 1374SOL    HW1  946   1.908   1.715   0.900
 1374SOL    HW2  947   2.044   1.804   0.893
 1375SOL     OW  948   2.366   1.568   0.910
 1375SOL    HW1  949   2.432   1.642   0.919
 1375SOL    HW2  950   2.410   1.489   0.868
 1379SOL     OW  951   3.231   0.950   1.660
 1379SOL    HW1  952   3.270   1.039   1.680
 1379SOL    HW2  953   3.241   0.930   1.563
 1382SOL     OW  954   2.114   1.564   1.744
 1382SOL    HW1  955   2.084   1.621   1.820
 1382SOL    HW2  956   2.107   1.467   1.770
 1384SOL     OW  957   2.792   1.678   1.465
 1384SOL    HW1  958   2.768   1.660   1.370
 1384SOL    HW2  959   2.822   1.772   1.475
 1386SOL     OW  960   2.021   1.137   1.466
 1386SOL    HW1  961   2.043   1.076   1.542
 1386SOL    HW2  962   2.031   1.088   1.380
 1390SOL     OW  963   3.114   1.731   1.128
 1390SOL    HW1  964   3.198   1.736   1.074
 1390SOL    HW2  965   3.091   1.635   1.146
 1391SOL     OW  966   1.945   1.258   1.022
 1391SOL    HW1  967   1.940   1.257   1.122
 1391SOL    HW2  968   1.862   1.217   0.984
 1392SOL     OW  969   2.550   1.662   1.716
 1392SOL    HW1  970   2.494   1.743   1.725
 1392SOL    HW2  971   2.602   1.666   1.630
 1396SOL     OW  972   1.992   1.794   1.851
 1396SOL    HW1  973   1.951   1.720   1.904
 1396SOL    HW2  974   2.056   1.845   1.909
 1398SOL     OW  975   2.692   1.273   1.422
 1398SOL    HW1  976   2.687   1.306   1.517
 1398SOL    HW2  977   2.606   1.292   1.376
 1400SOL     OW  978   3.512   1.720   1.394
 1400SOL    HW1  979   3.565   1.730   1.310
 1400SOL    HW2  980   3.485   1.810   1.428
 1404SOL     OW  981   2.684   1.002   1.372
 1404SOL    HW1  982   2.724   1.001   1.280
 1404SOL    HW2  983   2.694   1.094   1.412
 1407SOL     OW  984   2.234   1.288   1.490
 1407SOL    HW1  985   2.221   1.381   1.456
 1407SOL    HW2  986   2.150   1.236   1.477
 1414SOL     OW  987   1.967   1.013   1.726
 1414SOL    HW1  988   1.890   0.980   1.780
 1414SOL    HW2  989   2.052   0.983   1.768
 1419SOL     OW  990   2.475   0.842   1.431
 1419SOL    HW1  991   2.531   0.923   1.414
 1419SOL    HW2  992   2.534   0.762   1.434
 1420SOL     OW  993   3.355   1.767   0.959
 1420SOL    HW1  994   3.388   1.831   0.890
 1420SOL    HW2  995   3.421   1.761   1.034
 1422SOL     OW  996   3.312   1.220   1.633
 1422SOL    HW1  997   3.303   1.210   1.732
 1422SOL    HW2  998   3.408   1.213   1.607
 1423SOL     OW  999   2.252   1.741   1.560
 1423SOL    HW1 1000   2.161   1.782   1.558
 1423SOL    HW2 1001   2.245   1.647   1.592
 1430SOL     OW 1002   2.523   1.790   0.953
 1430SOL    HW1 1003   2.477   1.878   0.940
 1430SOL    HW2 1004   2.622   1.802   0.946
 1434SOL     OW 1005   2.083   1.314   1.844
 1434SOL    HW1 1006   2.018   1.241   1.823
 1434SOL    HW2 1007   2.087   1.328   1.942
 1436SOL     OW 1008   2.534   1.391   1.624
 1436SOL    HW1 1009   2.456   1.341   1.662
 1436SOL    HW2 1010   2.531   1.486   1.655
 1441SOL     OW 1011   2.674   1.586   0.687
 1441SOL    HW1 1012   2.706   1.596   0.593
 1441SOL    HW2 1013   2.595   1.524   0.689
 1445SOL     OW 1014   2.480   1.567   1.284
 1445SOL    HW1 1015   2.475   1.649   1.341
 1445SOL    HW2 1016   2.569   1.564   1.239
 1451SOL     OW 1017   2.092   0.628   1.975
 1451SOL    HW1 1018   1.999   0.626   2.012
 1451SOL    HW2 1019   2.093   0.589   1.883
 1454SOL     OW 1020   2.431   1.275   3.027
 1454SOL    HW1 1021   2.338   1.268   2.990
 1454SOL    HW2 1022   2.442   1.364   3.071
 1455SOL     OW 1023   3.417   1.511   2.565
 1455SOL    HW1 1024   3.360   1.495   2.646
 1455SOL    HW2 1025   3.358   1.521   2.485
 1456SOL     OW 1026   2.997   0.703   2.579
 1456SOL    HW1 1027   3.054   0.781   2.554
 1456SOL    HW2 1028   2.937   0.729   2.655
 1458SOL     OW 1029   2.630   1.144   2.885
 1458SOL    HW1 1030   2.552   1.161   2.945
 1458SOL    HW2 1031   2.664   1.231   2.849
 1460SOL     OW 1032   2.547   1.012   2.527
 1460SOL    HW1 1033   2.616   0.996   2.597
 1460SOL    HW2 1034   2.474   1.069   2.565
 1462SOL     OW 1035   2.197   1.435   2.923
 1462SOL    HW1 1036   2.119   1.404   2.870
 1462SOL    HW2 1037   2.255   1.493   2.866
 1463SOL     OW 1038   3.322   1.505   3.201
 1463SOL    HW1 1039   3.346   1.599   3.227
 1463SOL    HW2 1040   3.306   1.451   3.283
 1466SOL     OW 1041   2.093   1.713   2.345
 1466SOL    HW1 1042   2.127   1.790   2.399
 1466SOL    HW2 1043   2.137   1.713   2.255
 1467SOL     OW 1044   2.989   1.341   3.552
 1467SOL    HW1 1045   3.036   1.341   3.640
 1467SOL    HW2 1046   2.941   1.254   3.541
 1468SOL     OW 1047   2.092   1.434   2.400
 1468SOL    HW1 1048   2.066   1.530   2.400
 1468SOL    HW2 1049   2.021   1.380   2.445
 1469SOL     OW 1050   2.102   1.091   2.748
 1469SOL    HW1 1051   2.116   1.007   2.800
 1469SOL    HW2 1052   2.047   1.155   2.803
 1470SOL     OW 1053   2.482   1.786   3.301
 1470SOL    HW1 1054   2.390   1.769   3.336
 1470SOL    HW2 1055   2.510   1.878   3.327
 1471SOL     OW 1056   2.468   0.964   1.985
 1471SOL    HW1 1057   2.475   1.048   1.931
 1471SOL    HW2 1058   2.514   0.977   2.073
 1473SOL     OW 1059   1.984   0.643   2.425
 1473SOL    HW1 1060   1.939   0.555   2.442
 1473SOL    HW2 1061   1.983   0.697   2.509
 1474SOL     OW 1062   3.704   1.767   2.221
 1474SOL    HW1 1063   3.758   1.738   2.301
 1474SOL    HW2 1064   3.734   1.857   2.192
 1475SOL     OW 1065   1.889   1.596   1.979
 1475SOL    HW1 1066   1.870   1.500   2.000
 1475SOL    HW2 1067   1.856   1.654   2.054
 1477SOL     OW 1068   3.503   1.108   2.294
 1477SOL    HW1 1069   3.589   1.110   2.242
 1477SOL    HW2 1070   3.517   1.155   2.382
 1479SOL     OW 1071   2.475   1.365   2.588
 1479SOL    HW1 1072   2.426   1.278   2.597
 1479SOL    HW2 1073   2.452   1.408   2.501
 1480SOL     OW 1074   3.155   1.228   3.285
 1480SOL    HW1 1075   3.192   1.155   3.227
 1480SOL    HW2 1076   3.207   1.233   3.370
 1482SOL     OW 1077   2.059   0.976   3.126
 1482SOL    HW1 1078   2.148   0.931   3.112
 1482SOL    HW2 1079   1.986   0.911   3.107
 1483SOL     OW 1080   3.387   0.999   2.052
 1483SOL    HW1 1081   3.324   0.923   2.065
 1483SOL    HW2 1082   3.435   1.017   2.138
 1484SOL     OW 1083   3.049   1.792   3.478
 1484SOL    HW1 1084   3.073   1.852   3.402
 1484SOL    HW2 1085   3.056   1.697   3.448
 1486SOL     OW 1086   3.328   1.417   2.815
 1486SOL    HW1 1087   3.269   1.423   2.895
 1486SOL    HW2 1088   3.313   1.329   2.769
 1487SOL     OW 1089   3.529   1.714   2.434
 1487SOL    HW1 1090   3.488   1.691   2.346
 1487SOL    HW2 1091   3.511   1.640   2.499
 1488SOL     OW 1092   2.460   0.729   2.132
 1488SOL    HW1 1093   2.484   0.798   2.064
 1488SOL    HW2 1094   2.382   0.762   2.186
 1490SOL     OW 1095   3.438   1.662   2.169
 1490SOL    HW1 1096   3.527   1.708   2.172
 1490SOL    HW2 1097   3.417   1.638   2.074
 1495SOL     OW 1098   2.903   0.701   2.291
 1495SOL    HW1 1099   2.929   0.697   2.387
 1495SOL    HW2 1100   2.818   0.650   2.277
 1496SOL     OW 1101   1.938   0.811   2.651
 1496SOL    HW1 1102   2.037   0.799   2.660
 1496SOL    HW2 1103   1.914   0.906   2.672
 1497SOL     OW 1104   1.992   1.821   3.433
 1497SOL    HW1 1105   1.982   1.806   3.532
 1497SOL    HW2 1106   1.906   1.857   3.397
 1500SOL     OW 1107   3.224   1.144   2.407
 1500SOL    HW1 1108   3.307   1.115   2.359
 1500SOL    HW2 1109   3.175   1.211   2.351
 1502SOL     OW 1110   2.870   1.456   2.339
 1502SOL    HW1 1111   2.824   1.528   2.287
 1502SOL    HW2 1112   2.866   1.476   2.437
 1503SOL     OW 1113   2.213   1.801   2.715
 1503SOL    HW1 1114   2.263   1.715   2.721
 1503SOL    HW2 1115   2.278   1.878   2.712
 1505SOL     OW 1116   3.089   1.550   3.368
 1505SOL    HW1 1117   3.095   1.473   3.432
 1505SOL    HW2 1118   3.037   1.524   3.288
 1506SOL     OW 1119   2.183   0.943   2.104
 1506SOL    HW1 1120   2.265   0.982   2.062
 1506SOL    HW2 1121   2.156   0.861   2.055
 1508SOL     OW 1122   2.323   1.266   3.589
 1508SOL    HW1 1123   2.273   1.267   3.503
 1508SOL    HW2 1124   2.260   1.248   3.665
 1509SOL     OW 1125   2.973   1.776   2.099
 1509SOL    HW1 1126   2.913   1.714   2.149
 1509SOL    HW2 1127   3.004   1.732   2.014
 1511SOL     OW 1128   3.494   1.377   1.943
 1511SOL    HW1 1129   3.462   1.471   1.933
 1511SOL    HW2 1130   3.418   1.314   1.931
 1512SOL     OW 1131   2.326   1.743   2.185
 1512SOL    HW1 1132   2.359   1.782   2.271
 1512SOL    HW2 1133   2.402   1.736   2.120
 1514SOL     OW 1134   2.111   1.785   3.103
 1514SOL    HW1 1135   2.168   1.720   3.153
 1514SOL    HW2 1136   2.095   1.752   3.010
 1515SOL     OW 1137   2.802   1.698   2.766
 1515SOL    HW1 1138   2.882   1.641   2.787
 1515SOL    HW2 1139   2.753   1.658   2.689
 1516SOL     OW 1140   2.244   0.700   2.342
 1516SOL    HW1 1141   2.289   0.610   2.339
 1516SOL    HW2 1142   2.150   0.689   2.375
 1520SOL     OW 1143   2.750   1.514   3.057
 1520SOL    HW1 1144   2.727   1.489   2.963
 1520SOL    HW2 1145   2.811   1.445   3.096
 1522SOL     OW 1146   2.665   1.402   2.786
 1522SOL    HW1 1147   2.755   1.416   2.744
 1522SOL    HW2 1148   2.594   1.404   2.715
 1525SOL     OW 1149   3.296   1.188   1.903
 1525SOL    HW1 1150   3.328   1.112   1.960
 1525SOL    HW2 1151   3.204   1.215   1.933
 1529SOL     OW 1152   3.089   1.570   2.655
 1529SOL    HW1 1153   3.110   1.644   2.590
 1529SOL    HW2 1154   3.157   1.570   2.728
 1530SOL     OW 1155   2.321   1.152   2.603
 1530SOL    HW1 1156   2.250   1.125   2.668
 1530SOL    HW2 1157   2.295   1.124   2.510
 1531SOL     OW 1158   3.133   1.797   2.453
 1531SOL    HW1 1159   3.177   1.861   2.389
 1531SOL    HW2 1160   3.083   1.849   2.523
 1537SOL     OW 1161   3.291   1.173   2.729
 1537SOL    HW1 1162   3.236   1.089   2.722
 1537SOL    HW2 1163   3.317   1.202   2.637
 1540SOL     OW 1164   2.350   1.385   2.036
 1540SOL    HW1 1165   2.263   1.370   2.083
 1540SOL    HW2 1166   2.333   1.411   1.941
 1541SOL     OW 1167   3.526   1.280   2.519
 1541SOL    HW1 1168   3.625   1.288   2.533
 1541SOL    HW2 1169   3.481   1.364   2.550
 1545SOL     OW 1170   2.926   1.347   3.202
 1545SOL    HW1 1171   2.846   1.324   3.257
 1545SOL    HW2 1172   3.009   1.321   3.251
 1547SOL     OW 1173   2.973   1.195   2.962
 1547SOL    HW1 1174   2.933   1.239   3.043
 1547SOL    HW2 1175   2.932   1.232   2.879
 1551SOL     OW 1176   2.567   1.050   2.230
 1551SOL    HW1 1177   2.553   1.057   2.329
 1551SOL    HW2 1178   2.651   0.999   2.212
 1552SOL     OW 1179   2.272   0.813   3.113
 1552SOL    HW1 1180   2.358   0.825   3.163
 1552SOL    HW2 1181   2.230   0.726   3.140
 1554SOL     OW 1182   1.926   1.564   3.193
 1554SOL    HW1 1183   1.880   1.646   3.159
 1554SOL    HW2 1184   2.024   1.583   3.202
 1555SOL     OW 1185   2.229   1.100   2.363
 1555SOL    HW1 1186   2.222   1.183   2.307
 1555SOL    HW2 1187   2.233   1.020   2.303
 1556SOL     OW 1188   2.428   0.537   2.727
 1556SOL    HW1 1189   2.440   0.603   2.653
 1556SOL    HW2 1190   2.474   0.571   2.810
 1557SOL     OW 1191   3.114   1.348   2.250
 1557SOL    HW1 1192   3.164   1.425   2.290
 1557SOL    HW2 1193   3.019   1.350   2.282
 1558SOL     OW 1194   3.134   1.445   3.004
 1558SOL    HW1 1195   3.181   1.458   3.091
 1558SOL    HW2 1196   3.068   1.371   3.013
 1560SOL     OW 1197   2.216   1.510   3.191
 1560SOL    HW1 1198   2.195   1.466   3.104
 1560SOL    HW2 1199   2.313   1.536   3.194
 1565SOL     OW 1200   2.435   0.870   2.891
 1565SOL    HW1 1201   2.479   0.959   2.882
 1565SOL    HW2 1202   2.372   0.870   2.968
 1569SOL     OW 1203   1.899   1.310   3.144
 1569SOL    HW1 1204   1.952   1.261   3.212
 1569SOL    HW2 1205   1.921   1.408   3.149
 1570SOL     OW 1206   2.594   0.634   2.926
 1570SOL    HW1 1207   2.653   0.608   2.850
 1570SOL    HW2 1208   2.566   0.730   2.915
 1574SOL     OW 1209   2.885   0.766   2.828
 1574SOL    HW1 1210   2.900   0.787   2.924
 1574SOL    HW2 1211   2.855   0.671   2.819
 1575SOL     OW 1212   2.842   1.573   3.562
 1575SOL    HW1 1213   2.822   1.617   3.474
 1575SOL    HW2 1214   2.881   1.482   3.546
 1579SOL     OW 1215   3.165   0.838   1.904
 1579SOL    HW1 1216   3.199   0.745   1.919
 1579SOL    HW2 1217   3.183   0.865   1.809
 1580SOL     OW 1218   2.930   1.333   2.711
 1580SOL    HW1 1219   2.937   1.249   2.656
 1580SOL    HW2 1220   2.992   1.402   2.675
 1581SOL     OW 1221   2.181   0.810   2.811
 1581SOL    HW1 1222   2.274   0.846   2.816
 1581SOL    HW2 1223   2.175   0.725   2.863
 1585SOL     OW 1224   1.870   1.326   2.062
 1585SOL    HW1 1225   1.777   1.347   2.031
 1585SOL    HW2 1226   1.880   1.227   2.075
 1586SOL     OW 1227   1.950   1.801   2.789
 1586SOL    HW1 1228   1.908   1.715   2.762
 1586SOL    HW2 1229   2.044   1.804   2.755
 1587SOL     OW 1230   2.366   1.568   2.772
 1587SOL    HW1 1231   2.432   1.642   2.781
 1587SOL    HW2 1232   2.410   1.489   2.730
 1588SOL     OW 1233   2.864   0.796   3.100
 1588SOL    HW1 1234   2.905   0.764   3.186
 1588SOL    HW2 1235   2.768   0.769   3.097
 1592SOL     OW 1236   2.677   0.572   2.187
 1592SOL    HW1 1237   2.684   0.483   2.141
 1592SOL    HW2 1238   2.583   0.606   2.179
 1594SOL     OW 1239   2.114   1.564   3.606
 1594SOL    HW1 1240   2.084   1.621   3.682
 1594SOL    HW2 1241   2.107   1.467   3.632
 1596SOL     OW 1242   2.792   1.678   3.327
 1596SOL    HW1 1243   2.768   1.660   3.232
 1596SOL    HW2 1244   2.822   1.772   3.337
 1597SOL     OW 1245   2.335   0.500   2.053
 1597SOL    HW1 1246   2.396   0.580   2.057
 1597SOL    HW2 1247   2.240   0.531   2.060
 1598SOL     OW 1248   2.021   1.137   3.328
 1598SOL    HW1 1249   2.043   1.076   3.404
 1598SOL    HW2 1250   2.031   1.088   3.242
 1599SOL     OW 1251   3.209   1.059   3.096
 1599SOL    HW1 1252   3.233   0.996   3.022
 1599SOL    HW2 1253   3.119   1.099   3.078
 1600SOL     OW 1254   3.164   0.855   2.171
 1600SOL    HW1 1255   3.078   0.824   2.213
 1600SOL    HW2 1256   3.160   0.841   2.072
 1601SOL     OW 1257   3.621   1.747   3.016
 1601SOL    HW1 1258   3.682   1.777   2.943
 1601SOL    HW2 1259   3.583   1.658   2.994
 1602SOL     OW 1260   3.114   1.731   2.990
 1602SOL    HW1 1261   3.198   1.736   2.936
 1602SOL    HW2 1262   3.091   1.635   3.008
 1603SOL     OW 1263   1.945   1.258   2.884
 1603SOL    HW1 1264   1.940   1.257   2.984
 1603SOL    HW2 1265   1.862   1.217   2.846
 1604SOL     OW 1266   2.550   1.662   3.578
 1604SOL    HW1 1267   2.494   1.743   3.587
 1604SOL    HW2 1268   2.602   1.666   3.492
 1606SOL     OW 1269   3.250   1.573   2.339
 1606SOL    HW1 1270   3.317   1.585   2.265
 1606SOL    HW2 1271   3.210   1.662   2.362
 1607SOL     OW 1272   1.992   1.794   3.713
 1607SOL    HW1 1273   1.951   1.720   3.766
 1607SOL    HW2 1274   2.056   1.845   3.771
 1608SOL     OW 1275   3.142   0.927   2.534
 1608SOL    HW1 1276   3.202   0.846   2.536
 1608SOL    HW2 1277   3.182   0.996   2.474
 1609SOL     OW 1278   2.692   1.273   3.284
 1609SOL    HW1 1279   2.687   1.306   3.379
 1609SOL    HW2 1280   2.606   1.292   3.238
 1610SOL     OW 1281   2.534   1.616   2.016
 1610SOL    HW1 1282   2.543   1.626   1.917
 1610SOL    HW2 1283   2.494   1.527   2.037
 1611SOL     OW 1284   3.512   1.720   3.256
 1611SOL    HW1 1285   3.565   1.730   3.172
 1611SOL    HW2 1286   3.485   1.810   3.290
 1614SOL     OW 1287   3.056   1.612   1.893
 1614SOL    HW1 1288   3.062   1.519   1.930
 1614SOL    HW2 1289   2.997   1.612   1.813
 1615SOL     OW 1290   2.684   1.002   3.234
 1615SOL    HW1 1291   2.724   1.001   3.142
 1615SOL    HW2 1292   2.694   1.094   3.274
 1616SOL     OW 1293   2.778   0.910   2.153
 1616SOL    HW1 1294   2.841   0.948   2.085
 1616SOL    HW2 1295   2.818   0.827   2.192
 1617SOL     OW 1296   3.366   1.607   1.906
 1617SOL    HW1 1297   3.274   1.644   1.913
 1617SOL    HW2 1298   3.404   1.627   1.816
 1618SOL     OW 1299   2.234   1.288   3.352
 1618SOL    HW1 1300   2.221   1.381   3.318
 1618SOL    HW2 1301   2.150   1.236   3.339
 1619SOL     OW 1302   3.476   1.292   3.151
 1619SOL    HW1 1303   3.536   1.295   3.231
 1619SOL    HW2 1304   3.401   1.356   3.164
 1620SOL     OW 1305   2.901   1.098   2.558
 1620SOL    HW1 1306   2.831   1.051   2.612
 1620SOL    HW2 1307   2.960   1.030   2.515
 1622SOL     OW 1308   2.452   1.487   2.353
 1622SOL    HW1 1309   2.494   1.429   2.283
 1622SOL    HW2 1310   2.408   1.566   2.309
 1624SOL     OW 1311   2.117   1.348   2.152
 1624SOL    HW1 1312   2.021   1.349   2.125
 1624SOL    HW2 1313   2.129   1.401   2.236
 1630SOL     OW 1314   3.045   1.335   1.981
 1630SOL    HW1 1315   2.946   1.324   1.983
 1630SOL    HW2 1316   3.079   1.350   2.074
 1631SOL     OW 1317   2.475   0.842   3.293
 1631SOL    HW1 1318   2.531   0.923   3.276
 1631SOL    HW2 1319   2.534   0.762   3.296
 1632SOL     OW 1320   3.355   1.767   2.821
 1632SOL    HW1 1321   3.388   1.831   2.752
 1632SOL    HW2 1322   3.421   1.761   2.896
 1635SOL     OW 1323   2.252   1.741   3.422
 1635SOL    HW1 1324   2.161   1.782   3.420
 1635SOL    HW2 1325   2.245   1.647   3.454
 1638SOL     OW 1326   2.456   0.745   2.514
 1638SOL    HW1 1327   2.506   0.830   2.495
 1638SOL    HW2 1328   2.368   0.747   2.466
 1641SOL     OW 1329   2.721   1.374   1.878
 1641SOL    HW1 1330   2.675   1.389   1.966
 1641SOL    HW2 1331   2.765   1.459   1.848
 1642SOL     OW 1332   2.523   1.790   2.815
 1642SOL    HW1 1333   2.477   1.878   2.802
 1642SOL    HW2 1334   2.622   1.802   2.808
 1643SOL     OW 1335   2.721   0.956   2.723
 1643SOL    HW1 1336   2.775   0.887   2.771
 1643SOL    HW2 1337   2.689   1.025   2.789
 1644SOL     OW 1338   2.945   0.984   1.949
 1644SOL    HW1 1339   2.922   1.037   1.867
 1644SOL    HW2 1340   3.026   0.928   1.930
 1645SOL     OW 1341   3.723   1.569   2.713
 1645SOL    HW1 1342   3.652   1.557   2.643
 1645SOL    HW2 1343   3.724   1.490   2.773
 1646SOL     OW 1344   2.083   1.314   3.706
 1646SOL    HW1 1345   2.018   1.241   3.685
 1646SOL    HW2 1346   2.087   1.328   3.804
 1647SOL     OW 1347   1.941   1.240   2.515
 1647SOL    HW1 1348   1.940   1.193   2.603
 1647SOL    HW2 1349   2.023   1.212   2.464
 1648SOL     OW 1350   2.534   1.391   3.486
 1648SOL    HW1 1351   2.456   1.341   3.524
 1648SOL    HW2 1352   2.531   1.486   3.517
 1651SOL     OW 1353   3.567   1.487   2.966
 1651SOL    HW1 1354   3.474   1.462   2.939
 1651SOL    HW2 1355   3.593   1.437   3.048
 1653SOL     OW 1356   2.674   1.586   2.549
 1653SOL    HW1 1357   2.706   1.596   2.455
 1653SOL    HW2 1358   2.595   1.524   2.551
 1656SOL     OW 1359   2.632   1.330   2.163
 1656SOL    HW1 1360   2.586   1.243   2.180
 1656SOL    HW2 1361   2.723   1.327   2.204
 1657SOL     OW 1362   2.480   1.567   3.146
 1657SOL    HW1 1363   2.475   1.649   3.203
 1657SOL    HW2 1364   2.569   1.564   3.101
 1661SOL     OW 1365   1.901   1.077   2.162
 1661SOL    HW1 1366   2.000   1.066   2.153
 1661SOL    HW2 1367   1.861   0.991   2.194
 1662SOL     OW 1368   2.737   1.646   2.199
 1662SOL    HW1 1369   2.660   1.611   2.145
 1662SOL    HW2 1370   2.705   1.717   2.261
 1673SOL     OW 1371   1.889   1.596   3.841
 1673SOL    HW1 1372   1.870   1.500   3.862
 1673SOL    HW2 1373   1.856   1.654   3.916
 1727SOL     OW 1374   2.534   1.616   3.878
 1727SOL    HW1 1375   2.543   1.626   3.779
 1727SOL    HW2 1376   2.494   1.527   3.899
 1739SOL     OW 1377   2.721   1.374   3.740
 1739SOL    HW1 1378   2.675   1.389   3.828
 1739SOL    HW2 1379   2.765   1.459   3.710
 1751SOL     OW 1380   2.087   2.137   0.996
 1751SOL    HW1 1381   2.122   2.120   1.088
 1751SOL    HW2 1382   1.999   2.092   0.984
 1752SOL     OW 1383   1.881   2.230   0.647
 1752SOL    HW1 1384   1.799   2.273   0.686
 1752SOL    HW2 1385   1.853   2.157   0.584
 1753SOL     OW 1386   2.431   3.137   1.165
 1753SOL    HW1 1387   2.338   3.130   1.128
 1753SOL    HW2 1388   2.442   3.226   1.209
 1755SOL     OW 1389   2.997   2.565   0.717
 1755SOL    HW1 1390   3.054   2.643   0.692
 1755SOL    HW2 1391   2.937   2.591   0.793
 1757SOL     OW 1392   2.630   3.006   1.023
 1757SOL    HW1 1393   2.552   3.023   1.083
 1757SOL    HW2 1394   2.664   3.093   0.987
 1758SOL     OW 1395   2.712   2.660   1.823
 1758SOL    HW1 1396   2.708   2.736   1.888
 1758SOL    HW2 1397   2.734   2.696   1.732
 1759SOL     OW 1398   2.547   2.874   0.665
 1759SOL    HW1 1399   2.616   2.858   0.735
 1759SOL    HW2 1400   2.474   2.931   0.703
 1760SOL     OW 1401   2.548   3.023   1.803
 1760SOL    HW1 1402   2.608   3.102   1.817
 1760SOL    HW2 1403   2.462   3.054   1.762
 1761SOL     OW 1404   2.197   3.297   1.061
 1761SOL    HW1 1405   2.119   3.266   1.008
 1761SOL    HW2 1406   2.255   3.355   1.004
 1762SOL     OW 1407   3.322   3.367   1.339
 1762SOL    HW1 1408   3.346   3.461   1.365
 1762SOL    HW2 1409   3.306   3.313   1.421
 1763SOL     OW 1410   2.300   2.254   1.499
 1763SOL    HW1 1411   2.382   2.198   1.508
 1763SOL    HW2 1412   2.219   2.196   1.503
 1766SOL     OW 1413   2.989   3.203   1.690
 1766SOL    HW1 1414   3.036   3.203   1.778
 1766SOL    HW2 1415   2.941   3.116   1.679
 1768SOL     OW 1416   2.102   2.953   0.886
 1768SOL    HW1 1417   2.116   2.869   0.938
 1768SOL    HW2 1418   2.047   3.017   0.941
 1769SOL     OW 1419   2.482   3.648   1.439
 1769SOL    HW1 1420   2.390   3.631   1.474
 1769SOL    HW2 1421   2.510   3.740   1.465
 1771SOL     OW 1422   3.456   1.976   1.480
 1771SOL    HW1 1423   3.438   2.043   1.408
 1771SOL    HW2 1424   3.453   2.022   1.569
 1772SOL     OW 1425   1.984   2.505   0.563
 1772SOL    HW1 1426   1.939   2.417   0.580
 1772SOL    HW2 1427   1.983   2.559   0.647
 1777SOL     OW 1428   1.975   2.599   1.597
 1777SOL    HW1 1429   2.063   2.586   1.642
 1777SOL    HW2 1430   1.962   2.696   1.575
 1779SOL     OW 1431   3.155   3.090   1.423
 1779SOL    HW1 1432   3.192   3.017   1.365
 1779SOL    HW2 1433   3.207   3.095   1.508
 1781SOL     OW 1434   2.059   2.838   1.264
 1781SOL    HW1 1435   2.148   2.793   1.250
 1781SOL    HW2 1436   1.986   2.773   1.245
 1783SOL     OW 1437   3.049   3.654   1.616
 1783SOL    HW1 1438   3.073   3.714   1.540
 1783SOL    HW2 1439   3.056   3.559   1.586
 1784SOL     OW 1440   2.179   2.113   1.801
 1784SOL    HW1 1441   2.250   2.184   1.807
 1784SOL    HW2 1442   2.091   2.152   1.829
 1788SOL     OW 1443   3.143   2.207   0.944
 1788SOL    HW1 1444   3.057   2.157   0.931
 1788SOL    HW2 1445   3.205   2.153   1.000
 1790SOL     OW 1446   2.669   2.467   1.465
 1790SOL    HW1 1447   2.622   2.464   1.554
 1790SOL    HW2 1448   2.618   2.412   1.399
 1791SOL     OW 1449   3.256   2.331   1.674
 1791SOL    HW1 1450   3.236   2.374   1.762
 1791SOL    HW2 1451   3.334   2.269   1.683
 1792SOL     OW 1452   2.835   2.752   1.572
 1792SOL    HW1 1453   2.881   2.668   1.543
 1792SOL    HW2 1454   2.779   2.786   1.497
 1793SOL     OW 1455   2.853   2.272   1.242
 1793SOL    HW1 1456   2.776   2.306   1.296
 1793SOL    HW2 1457   2.819   2.221   1.163
 1795SOL     OW 1458   1.938   2.673   0.789
 1795SOL    HW1 1459   2.037   2.661   0.798
 1795SOL    HW2 1460   1.914   2.768   0.810
 1796SOL     OW 1461   1.992   3.683   1.571
 1796SOL    HW1 1462   1.982   3.668   1.670
 1796SOL    HW2 1463   1.906   3.719   1.535
 1798SOL     OW 1464   3.581   2.447   1.831
 1798SOL    HW1 1465   3.555   2.536   1.795
 1798SOL    HW2 1466   3.579   2.379   1.758
 1800SOL     OW 1467   2.412   2.058   0.885
 1800SOL    HW1 1468   2.407   2.053   0.985
 1800SOL    HW2 1469   2.414   2.154   0.856
 1804SOL     OW 1470   3.089   3.412   1.506
 1804SOL    HW1 1471   3.095   3.335   1.570
 1804SOL    HW2 1472   3.037   3.386   1.426
 1807SOL     OW 1473   2.323   3.128   1.727
 1807SOL    HW1 1474   2.273   3.129   1.641
 1807SOL    HW2 1475   2.260   3.110   1.803
 1809SOL     OW 1476   2.064   2.147   1.498
 1809SOL    HW1 1477   1.984   2.207   1.485
 1809SOL    HW2 1478   2.054   2.098   1.584
 1813SOL     OW 1479   2.111   3.647   1.241
 1813SOL    HW1 1480   2.168   3.582   1.291
 1813SOL    HW2 1481   2.095   3.614   1.148
 1815SOL     OW 1482   2.244   2.562   0.480
 1815SOL    HW1 1483   2.289   2.472   0.477
 1815SOL    HW2 1484   2.150   2.551   0.513
 1816SOL     OW 1485   3.409   2.084   1.729
 1816SOL    HW1 1486   3.404   2.121   1.821
 1816SOL    HW2 1487   3.337   2.015   1.717
 1817SOL     OW 1488   2.643   2.126   1.749
 1817SOL    HW1 1489   2.710   2.065   1.792
 1817SOL    HW2 1490   2.570   2.145   1.814
 1818SOL     OW 1491   2.750   3.376   1.195
 1818SOL    HW1 1492   2.727   3.351   1.101
 1818SOL    HW2 1493   2.811   3.307   1.234
 1819SOL     OW 1494   3.213   2.452   1.433
 1819SOL    HW1 1495   3.241   2.409   1.518
 1819SOL    HW2 1496   3.238   2.548   1.434
 1820SOL     OW 1497   2.665   3.264   0.924
 1820SOL    HW1 1498   2.755   3.278   0.882
 1820SOL    HW2 1499   2.594   3.266   0.853
 1821SOL     OW 1500   2.784   2.365   0.899
 1821SOL    HW1 1501   2.759   2.356   0.803
 1821SOL    HW2 1502   2.832   2.283   0.930
 1822SOL     OW 1503   2.401   1.926   0.512
 1822SOL    HW1 1504   2.320   1.927   0.570
 1822SOL    HW2 1505   2.404   2.009   0.457
 1825SOL     OW 1506   2.938   2.545   1.464
 1825SOL    HW1 1507   2.858   2.484   1.467
 1825SOL    HW2 1508   3.019   2.492   1.440
 1827SOL     OW 1509   2.321   3.014   0.741
 1827SOL    HW1 1510   2.250   2.987   0.806
 1827SOL    HW2 1511   2.295   2.986   0.648
 1830SOL     OW 1512   1.940   2.418   1.386
 1830SOL    HW1 1513   2.032   2.417   1.345
 1830SOL    HW2 1514   1.934   2.492   1.453
 1831SOL     OW 1515   2.423   2.084   1.147
 1831SOL    HW1 1516   2.461   2.000   1.184
 1831SOL    HW2 1517   2.335   2.103   1.191
 1832SOL     OW 1518   2.728   2.316   0.642
 1832SOL    HW1 1519   2.696   2.388   0.580
 1832SOL    HW2 1520   2.752   2.235   0.589
 1833SOL     OW 1521   2.879   1.901   0.753
 1833SOL    HW1 1522   2.807   1.906   0.684
 1833SOL    HW2 1523   2.855   1.832   0.822
 1835SOL     OW 1524   3.328   2.452   0.992
 1835SOL    HW1 1525   3.298   2.357   0.999
 1835SOL    HW2 1526   3.401   2.468   1.058
 1841SOL     OW 1527   3.616   3.085   1.588
 1841SOL    HW1 1528   3.707   3.046   1.575
 1841SOL    HW2 1529   3.624   3.181   1.612
 1842SOL     OW 1530   2.926   3.209   1.340
 1842SOL    HW1 1531   2.846   3.186   1.395
 1842SOL    HW2 1532   3.009   3.183   1.389
 1844SOL     OW 1533   2.973   3.057   1.100
 1844SOL    HW1 1534   2.933   3.101   1.181
 1844SOL    HW2 1535   2.932   3.094   1.017
 1846SOL     OW 1536   2.777   1.951   1.402
 1846SOL    HW1 1537   2.802   1.931   1.307
 1846SOL    HW2 1538   2.849   2.007   1.444
 1847SOL     OW 1539   2.842   2.978   1.719
 1847SOL    HW1 1540   2.743   2.984   1.729
 1847SOL    HW2 1541   2.865   2.898   1.663
 1849SOL     OW 1542   2.272   2.675   1.251
 1849SOL    HW1 1543   2.358   2.687   1.301
 1849SOL    HW2 1544   2.230   2.588   1.278
 1850SOL     OW 1545   3.136   2.248   1.262
 1850SOL    HW1 1546   3.157   2.322   1.326
 1850SOL    HW2 1547   3.047   2.265   1.219
 1851SOL     OW 1548   1.926   3.426   1.331
 1851SOL    HW1 1549   1.880   3.508   1.297
 1851SOL    HW2 1550   2.024   3.445   1.340
 1853SOL     OW 1551   2.428   2.399   0.865
 1853SOL    HW1 1552   2.440   2.465   0.791
 1853SOL    HW2 1553   2.474   2.433   0.948
 1855SOL     OW 1554   3.134   3.307   1.142
 1855SOL    HW1 1555   3.181   3.320   1.229
 1855SOL    HW2 1556   3.068   3.233   1.151
 1857SOL     OW 1557   2.216   3.372   1.329
 1857SOL    HW1 1558   2.195   3.328   1.242
 1857SOL    HW2 1559   2.313   3.398   1.332
 1858SOL     OW 1560   2.264   2.613   1.598
 1858SOL    HW1 1561   2.332   2.668   1.551
 1858SOL    HW2 1562   2.304   2.525   1.625
 1859SOL     OW 1563   3.449   2.641   1.670
 1859SOL    HW1 1564   3.357   2.679   1.665
 1859SOL    HW2 1565   3.509   2.688   1.605
 1860SOL     OW 1566   2.875   1.967   1.770
 1860SOL    HW1 1567   2.881   2.052   1.718
 1860SOL    HW2 1568   2.907   1.891   1.713
 1861SOL     OW 1569   2.366   1.912   1.740
 1861SOL    HW1 1570   2.324   1.855   1.670
 1861SOL    HW2 1571   2.300   1.981   1.772
 1862SOL     OW 1572   2.435   2.732   1.029
 1862SOL    HW1 1573   2.479   2.821   1.020
 1862SOL    HW2 1574   2.372   2.732   1.106
 1863SOL     OW 1575   3.222   2.724   1.045
 1863SOL    HW1 1576   3.147   2.724   0.979
 1863SOL    HW2 1577   3.259   2.632   1.054
 1865SOL     OW 1578   2.169   2.075   1.231
 1865SOL    HW1 1579   2.146   2.112   1.321
 1865SOL    HW2 1580   2.139   1.980   1.225
 1866SOL     OW 1581   1.899   3.172   1.282
 1866SOL    HW1 1582   1.952   3.123   1.350
 1866SOL    HW2 1583   1.921   3.270   1.287
 1867SOL     OW 1584   2.594   2.496   1.064
 1867SOL    HW1 1585   2.653   2.470   0.988
 1867SOL    HW2 1586   2.566   2.592   1.053
 1868SOL     OW 1587   3.590   2.797   1.854
 1868SOL    HW1 1588   3.544   2.790   1.765
 1868SOL    HW2 1589   3.528   2.841   1.920
 1869SOL     OW 1590   2.169   1.925   0.618
 1869SOL    HW1 1591   2.158   2.019   0.651
 1869SOL    HW2 1592   2.164   1.862   0.695
 1871SOL     OW 1593   2.885   2.628   0.966
 1871SOL    HW1 1594   2.900   2.649   1.062
 1871SOL    HW2 1595   2.855   2.533   0.957
 1872SOL     OW 1596   2.842   3.435   1.700
 1872SOL    HW1 1597   2.822   3.479   1.612
 1872SOL    HW2 1598   2.881   3.344   1.684
 1874SOL     OW 1599   2.212   2.760   1.804
 1874SOL    HW1 1600   2.288   2.804   1.852
 1874SOL    HW2 1601   2.247   2.713   1.722
 1878SOL     OW 1602   2.181   2.672   0.949
 1878SOL    HW1 1603   2.274   2.708   0.954
 1878SOL    HW2 1604   2.175   2.587   1.001
 1879SOL     OW 1605   2.201   2.371   1.006
 1879SOL    HW1 1606   2.149   2.288   0.989
 1879SOL    HW2 1607   2.278   2.376   0.942
 1880SOL     OW 1608   3.000   2.242   1.678
 1880SOL    HW1 1609   2.955   2.305   1.742
 1880SOL    HW2 1610   3.093   2.273   1.661
 1881SOL     OW 1611   3.022   2.069   1.477
 1881SOL    HW1 1612   3.022   2.133   1.554
 1881SOL    HW2 1613   3.050   2.117   1.394
 1884SOL     OW 1614   2.366   3.430   0.910
 1884SOL    HW1 1615   2.432   3.504   0.919
 1884SOL    HW2 1616   2.410   3.351   0.868
 1885SOL     OW 1617   2.864   2.658   1.238
 1885SOL    HW1 1618   2.905   2.626   1.324
 1885SOL    HW2 1619   2.768   2.631   1.235
 1886SOL     OW 1620   1.902   2.406   1.114
 1886SOL    HW1 1621   1.987   2.373   1.073
 1886SOL    HW2 1622   1.915   2.421   1.212
 1887SOL     OW 1623   2.051   2.382   1.722
 1887SOL    HW1 1624   2.110   2.342   1.652
 1887SOL    HW2 1625   1.993   2.453   1.681
 1888SOL     OW 1626   3.231   2.812   1.660
 1888SOL    HW1 1627   3.270   2.901   1.680
 1888SOL    HW2 1628   3.241   2.792   1.563
 1890SOL     OW 1629   3.519   2.466   1.206
 1890SOL    HW1 1630   3.481   2.397   1.268
 1890SOL    HW2 1631   3.601   2.430   1.162
 1891SOL     OW 1632   2.114   3.426   1.744
 1891SOL    HW1 1633   2.084   3.483   1.820
 1891SOL    HW2 1634   2.107   3.329   1.770
 1892SOL     OW 1635   2.533   2.326   1.269
 1892SOL    HW1 1636   2.499   2.237   1.239
 1892SOL    HW2 1637   2.559   2.380   1.189
 1893SOL     OW 1638   2.792   3.540   1.465
 1893SOL    HW1 1639   2.768   3.522   1.370
 1893SOL    HW2 1640   2.822   3.634   1.475
 1895SOL     OW 1641   2.021   2.999   1.466
 1895SOL    HW1 1642   2.043   2.938   1.542
 1895SOL    HW2 1643   2.031   2.950   1.380
 1896SOL     OW 1644   3.209   2.921   1.234
 1896SOL    HW1 1645   3.233   2.858   1.160
 1896SOL    HW2 1646   3.119   2.961   1.216
 1900SOL     OW 1647   1.945   3.120   1.022
 1900SOL    HW1 1648   1.940   3.119   1.122
 1900SOL    HW2 1649   1.862   3.079   0.984
 1901SOL     OW 1650   2.550   3.524   1.716
 1901SOL    HW1 1651   2.494   3.605   1.725
 1901SOL    HW2 1652   2.602   3.528   1.630
 1905SOL     OW 1653   1.992   3.656   1.851
 1905SOL    HW1 1654   1.951   3.582   1.904
 1905SOL    HW2 1655   2.056   3.707   1.909
 1907SOL     OW 1656   2.692   3.135   1.422
 1907SOL    HW1 1657   2.687   3.168   1.517
 1907SOL    HW2 1658   2.606   3.154   1.376
 1911SOL     OW 1659   2.125   2.188   0.720
 1911SOL    HW1 1660   2.046   2.239   0.686
 1911SOL    HW2 1661   2.116   2.173   0.818
 1913SOL     OW 1662   2.684   2.864   1.372
 1913SOL    HW1 1663   2.724   2.863   1.280
 1913SOL    HW2 1664   2.694   2.956   1.412
 1916SOL     OW 1665   2.234   3.150   1.490
 1916SOL    HW1 1666   2.221   3.243   1.456
 1916SOL    HW2 1667   2.150   3.098   1.477
 1917SOL     OW 1668   3.476   3.154   1.289
 1917SOL    HW1 1669   3.536   3.157   1.369
 1917SOL    HW2 1670   3.401   3.218   1.302
 1919SOL     OW 1671   2.876   2.098   0.971
 1919SOL    HW1 1672   2.868   2.062   0.878
 1919SOL    HW2 1673   2.874   2.022   1.036
 1921SOL     OW 1674   3.571   2.247   1.381
 1921SOL    HW1 1675   3.644   2.316   1.385
 1921SOL    HW2 1676   3.599   2.172   1.322
 1923SOL     OW 1677   1.967   2.875   1.726
 1923SOL    HW1 1678   1.890   2.842   1.780
 1923SOL    HW2 1679   2.052   2.845   1.768
 1924SOL     OW 1680   2.534   2.065   1.489
 1924SOL    HW1 1681   2.624   2.049   1.449
 1924SOL    HW2 1682   2.542   2.070   1.588
 1926SOL     OW 1683   3.302   2.718   1.398
 1926SOL    HW1 1684   3.245   2.770   1.335
 1926SOL    HW2 1685   3.398   2.730   1.374
 1928SOL     OW 1686   2.475   2.704   1.431
 1928SOL    HW1 1687   2.531   2.785   1.414
 1928SOL    HW2 1688   2.534   2.624   1.434
 1930SOL     OW 1689   2.578   2.427   1.708
 1930SOL    HW1 1690   2.597   2.492   1.782
 1930SOL    HW2 1691   2.638   2.347   1.717
 1931SOL     OW 1692   3.312   3.082   1.633
 1931SOL    HW1 1693   3.303   3.072   1.732
 1931SOL    HW2 1694   3.408   3.075   1.607
 1932SOL     OW 1695   2.252   3.603   1.560
 1932SOL    HW1 1696   2.161   3.644   1.558
 1932SOL    HW2 1697   2.245   3.509   1.592
 1933SOL     OW 1698   3.536   2.745   1.254
 1933SOL    HW1 1699   3.509   2.656   1.217
 1933SOL    HW2 1700   3.537   2.813   1.181
 1935SOL     OW 1701   2.456   2.607   0.652
 1935SOL    HW1 1702   2.506   2.692   0.633
 1935SOL    HW2 1703   2.368   2.609   0.604
 1936SOL     OW 1704   3.639   2.204   1.642
 1936SOL    HW1 1705   3.622   2.235   1.548
 1936SOL    HW2 1706   3.555   2.167   1.680
 1937SOL     OW 1707   3.592   2.796   1.517
 1937SOL    HW1 1708   3.630   2.887   1.532
 1937SOL    HW2 1709   3.584   2.779   1.418
 1940SOL     OW 1710   2.721   2.818   0.861
 1940SOL    HW1 1711   2.775   2.749   0.909
 1940SOL    HW2 1712   2.689   2.887   0.927
 1943SOL     OW 1713   2.083   3.176   1.844
 1943SOL    HW1 1714   2.018   3.103   1.823
 1943SOL    HW2 1715   2.087   3.190   1.942
 1945SOL     OW 1716   2.534   3.253   1.624
 1945SOL    HW1 1717   2.456   3.203   1.662
 1945SOL    HW2 1718   2.531   3.348   1.655
 1946SOL     OW 1719   3.686   2.054   1.227
 1946SOL    HW1 1720   3.682   1.964   1.271
 1946SOL    HW2 1721   3.689   2.043   1.128
 1947SOL     OW 1722   2.290   2.286   0.520
 1947SOL    HW1 1723   2.320   2.214   0.458
 1947SOL    HW2 1724   2.251   2.246   0.603
 1949SOL     OW 1725   2.179   2.409   1.280
 1949SOL    HW1 1726   2.217   2.350   1.352
 1949SOL    HW2 1727   2.219   2.383   1.192
 1951SOL     OW 1728   3.286   2.076   1.112
 1951SOL    HW1 1729   3.338   2.011   1.167
 1951SOL    HW2 1730   3.237   2.139   1.173
 1952SOL     OW 1731   2.863   1.896   1.154
 1952SOL    HW1 1732   2.800   1.824   1.123
 1952SOL    HW2 1733   2.956   1.860   1.154
 1954SOL     OW 1734   2.480   3.429   1.284
 1954SOL    HW1 1735   2.475   3.511   1.341
 1954SOL    HW2 1736   2.569   3.426   1.239
 1960SOL     OW 1737   2.092   2.490   1.975
 1960SOL    HW1 1738   1.999   2.488   2.012
 1960SOL    HW2 1739   2.093   2.451   1.883
 1961SOL     OW 1740   2.087   2.137   2.858
 1961SOL    HW1 1741   2.122   2.120   2.950
 1961SOL    HW2 1742   1.999   2.092   2.846
 1962SOL     OW 1743   1.881   2.230   2.509
 1962SOL    HW1 1744   1.799   2.273   2.548
 1962SOL    HW2 1745   1.853   2.157   2.446
 1963SOL     OW 1746   2.431   3.137   3.027
 1963SOL    HW1 1747   2.338   3.130   2.990
 1963SOL    HW2 1748   2.442   3.226   3.071
 1964SOL     OW 1749   3.417   3.373   2.565
 1964SOL    HW1 1750   3.360   3.357   2.646
 1964SOL    HW2 1751   3.358   3.383   2.485
 1965SOL     OW 1752   2.997   2.565   2.579
 1965SOL    HW1 1753   3.054   2.643   2.554
 1965SOL    HW2 1754   2.937   2.591   2.655
 1966SOL     OW 1755   3.617   2.469   2.093
 1966SOL    HW1 1756   3.605   2.456   1.994
 1966SOL    HW2 1757   3.587   2.388   2.142
 1967SOL     OW 1758   2.630   3.006   2.885
 1967SOL    HW1 1759   2.552   3.023   2.945
 1967SOL    HW2 1760   2.664   3.093   2.849
 1968SOL     OW 1761   2.712   2.660   3.685
 1968SOL    HW1 1762   2.708   2.736   3.750
 1968SOL    HW2 1763   2.734   2.696   3.594
 1969SOL     OW 1764   2.547   2.874   2.527
 1969SOL    HW1 1765   2.616   2.858   2.597
 1969SOL    HW2 1766   2.474   2.931   2.565
 1970SOL     OW 1767   2.548   3.023   3.665
 1970SOL    HW1 1768   2.608   3.102   3.679
 1970SOL    HW2 1769   2.462   3.054   3.624
 1971SOL     OW 1770   2.197   3.297   2.923
 1971SOL    HW1 1771   2.119   3.266   2.870
 1971SOL    HW2 1772   2.255   3.355   2.866
 1973SOL     OW 1773   2.300   2.254   3.361
 1973SOL    HW1 1774   2.382   2.198   3.370
 1973SOL    HW2 1775   2.219   2.196   3.365
 1974SOL     OW 1776   3.465   2.309   2.599
 1974SOL    HW1 1777   3.391   2.355   2.549
 1974SOL    HW2 1778   3.516   2.377   2.652
 1975SOL     OW 1779   2.093   3.575   2.345
 1975SOL    HW1 1780   2.127   3.652   2.399
 1975SOL    HW2 1781   2.137   3.575   2.255
 1976SOL     OW 1782   2.989   3.203   3.552
 1976SOL    HW1 1783   3.036   3.203   3.640
 1976SOL    HW2 1784   2.941   3.116   3.541
 1977SOL     OW 1785   2.092   3.296   2.400
 1977SOL    HW1 1786   2.066   3.392   2.400
 1977SOL    HW2 1787   2.021   3.242   2.445
 1978SOL     OW 1788   2.102   2.953   2.748
 1978SOL    HW1 1789   2.116   2.869   2.800
 1978SOL    HW2 1790   2.047   3.017   2.803
 1979SOL     OW 1791   2.482   3.648   3.301
 1979SOL    HW1 1792   2.390   3.631   3.336
 1979SOL    HW2 1793   2.510   3.740   3.327
 1980SOL     OW 1794   2.468   2.826   1.985
 1980SOL    HW1 1795   2.475   2.910   1.931
 1980SOL    HW2 1796   2.514   2.839   2.073
 1981SOL     OW 1797   3.456   1.976   3.342
 1981SOL    HW1 1798   3.438   2.043   3.270
 1981SOL    HW2 1799   3.453   2.022   3.431
 1982SOL     OW 1800   1.984   2.505   2.425
 1982SOL    HW1 1801   1.939   2.417   2.442
 1982SOL    HW2 1802   1.983   2.559   2.509
 1984SOL     OW 1803   1.889   3.458   1.979
 1984SOL    HW1 1804   1.870   3.362   2.000
 1984SOL    HW2 1805   1.856   3.516   2.054
 1985SOL     OW 1806   3.551   2.784   2.474
 1985SOL    HW1 1807   3.646   2.755   2.482
 1985SOL    HW2 1808   3.543   2.849   2.399
 1986SOL     OW 1809   3.503   2.970   2.294
 1986SOL    HW1 1810   3.589   2.972   2.242
 1986SOL    HW2 1811   3.517   3.017   2.382
 1987SOL     OW 1812   1.975   2.599   3.459
 1987SOL    HW1 1813   2.063   2.586   3.504
 1987SOL    HW2 1814   1.962   2.696   3.437
 1988SOL     OW 1815   2.475   3.227   2.588
 1988SOL    HW1 1816   2.426   3.140   2.597
 1988SOL    HW2 1817   2.452   3.270   2.501
 1989SOL     OW 1818   3.155   3.090   3.285
 1989SOL    HW1 1819   3.192   3.017   3.227
 1989SOL    HW2 1820   3.207   3.095   3.370
 1990SOL     OW 1821   2.671   1.866   2.364
 1990SOL    HW1 1822   2.711   1.957   2.355
 1990SOL    HW2 1823   2.571   1.874   2.370
 1991SOL     OW 1824   2.059   2.838   3.126
 1991SOL    HW1 1825   2.148   2.793   3.112
 1991SOL    HW2 1826   1.986   2.773   3.107
 1992SOL     OW 1827   3.387   2.861   2.052
 1992SOL    HW1 1828   3.324   2.785   2.065
 1992SOL    HW2 1829   3.435   2.879   2.138
 1994SOL     OW 1830   2.179   2.113   3.663
 1994SOL    HW1 1831   2.250   2.184   3.669
 1994SOL    HW2 1832   2.091   2.152   3.691
 1995SOL     OW 1833   3.328   3.279   2.815
 1995SOL    HW1 1834   3.269   3.285   2.895
 1995SOL    HW2 1835   3.313   3.191   2.769
 1997SOL     OW 1836   2.460   2.591   2.132
 1997SOL    HW1 1837   2.484   2.660   2.064
 1997SOL    HW2 1838   2.382   2.624   2.186
 1998SOL     OW 1839   3.143   2.207   2.806
 1998SOL    HW1 1840   3.057   2.157   2.793
 1998SOL    HW2 1841   3.205   2.153   2.862
 1999SOL     OW 1842   3.438   3.524   2.169
 1999SOL    HW1 1843   3.527   3.570   2.172
 1999SOL    HW2 1844   3.417   3.500   2.074
 2000SOL     OW 1845   2.669   2.467   3.327
 2000SOL    HW1 1846   2.622   2.464   3.416
 2000SOL    HW2 1847   2.618   2.412   3.261
 2001SOL     OW 1848   3.256   2.331   3.536
 2001SOL    HW1 1849   3.236   2.374   3.624
 2001SOL    HW2 1850   3.334   2.269   3.545
 2002SOL     OW 1851   2.835   2.752   3.434
 2002SOL    HW1 1852   2.881   2.668   3.405
 2002SOL    HW2 1853   2.779   2.786   3.359
 2003SOL     OW 1854   2.853   2.272   3.104
 2003SOL    HW1 1855   2.776   2.306   3.158
 2003SOL    HW2 1856   2.819   2.221   3.025
 2004SOL     OW 1857   2.903   2.563   2.291
 2004SOL    HW1 1858   2.929   2.559   2.387
 2004SOL    HW2 1859   2.818   2.512   2.277
 2005SOL     OW 1860   1.938   2.673   2.651
 2005SOL    HW1 1861   2.037   2.661   2.660
 2005SOL    HW2 1862   1.914   2.768   2.672
 2007SOL     OW 1863   2.727   2.210   2.057
 2007SOL    HW1 1864   2.786   2.273   2.008
 2007SOL    HW2 1865   2.746   2.116   2.028
 2009SOL     OW 1866   3.224   3.006   2.407
 2009SOL    HW1 1867   3.307   2.977   2.359
 2009SOL    HW2 1868   3.175   3.073   2.351
 2010SOL     OW 1869   2.412   2.058   2.747
 2010SOL    HW1 1870   2.407   2.053   2.847
 2010SOL    HW2 1871   2.414   2.154   2.718
 2011SOL     OW 1872   2.870   3.318   2.339
 2011SOL    HW1 1873   2.824   3.390   2.287
 2011SOL    HW2 1874   2.866   3.338   2.437
 2012SOL     OW 1875   2.213   3.663   2.715
 2012SOL    HW1 1876   2.263   3.577   2.721
 2012SOL    HW2 1877   2.278   3.740   2.712
 2013SOL     OW 1878   3.657   2.928   2.735
 2013SOL    HW1 1879   3.595   2.913   2.659
 2013SOL    HW2 1880   3.605   2.939   2.820
 2015SOL     OW 1881   2.183   2.805   2.104
 2015SOL    HW1 1882   2.265   2.844   2.062
 2015SOL    HW2 1883   2.156   2.723   2.055
 2016SOL     OW 1884   3.320   2.597   2.590
 2016SOL    HW1 1885   3.315   2.532   2.665
 2016SOL    HW2 1886   3.400   2.656   2.603
 2017SOL     OW 1887   2.323   3.128   3.589
 2017SOL    HW1 1888   2.273   3.129   3.503
 2017SOL    HW2 1889   2.260   3.110   3.665
 2018SOL     OW 1890   2.973   3.638   2.099
 2018SOL    HW1 1891   2.913   3.576   2.149
 2018SOL    HW2 1892   3.004   3.594   2.014
 2019SOL     OW 1893   2.064   2.147   3.360
 2019SOL    HW1 1894   1.984   2.207   3.347
 2019SOL    HW2 1895   2.054   2.098   3.446
 2020SOL     OW 1896   3.494   3.239   1.943
 2020SOL    HW1 1897   3.462   3.333   1.933
 2020SOL    HW2 1898   3.418   3.176   1.931
 2021SOL     OW 1899   2.326   3.605   2.185
 2021SOL    HW1 1900   2.359   3.644   2.271
 2021SOL    HW2 1901   2.402   3.598   2.120
 2022SOL     OW 1902   3.262   1.969   2.288
 2022SOL    HW1 1903   3.238   1.932   2.198
 2022SOL    HW2 1904   3.361   1.985   2.292
 2023SOL     OW 1905   2.111   3.647   3.103
 2023SOL    HW1 1906   2.168   3.582   3.153
 2023SOL    HW2 1907   2.095   3.614   3.010
 2024SOL     OW 1908   2.802   3.560   2.766
 2024SOL    HW1 1909   2.882   3.503   2.787
 2024SOL    HW2 1910   2.753   3.520   2.689
 2025SOL     OW 1911   3.409   2.084   3.591
 2025SOL    HW1 1912   3.404   2.121   3.683
 2025SOL    HW2 1913   3.337   2.015   3.579
 2026SOL     OW 1914   2.476   1.984   1.979
 2026SOL    HW1 1915   2.574   1.962   1.986
 2026SOL    HW2 1916   2.445   1.967   1.886
 2027SOL     OW 1917   2.643   2.126   3.611
 2027SOL    HW1 1918   2.710   2.065   3.654
 2027SOL    HW2 1919   2.570   2.145   3.676
 2028SOL     OW 1920   2.750   3.376   3.057
 2028SOL    HW1 1921   2.727   3.351   2.963
 2028SOL    HW2 1922   2.811   3.307   3.096
 2029SOL     OW 1923   3.213   2.452   3.295
 2029SOL    HW1 1924   3.241   2.409   3.380
 2029SOL    HW2 1925   3.238   2.548   3.296
 2030SOL     OW 1926   2.665   3.264   2.786
 2030SOL    HW1 1927   2.755   3.278   2.744
 2030SOL    HW2 1928   2.594   3.266   2.715
 2031SOL     OW 1929   2.784   2.365   2.761
 2031SOL    HW1 1930   2.759   2.356   2.665
 2031SOL    HW2 1931   2.832   2.283   2.792
 2032SOL     OW 1932   3.296   3.050   1.903
 2032SOL    HW1 1933   3.328   2.974   1.960
 2032SOL    HW2 1934   3.204   3.077   1.933
 2033SOL     OW 1935   2.797   2.098   2.342
 2033SOL    HW1 1936   2.749   2.139   2.264
 2033SOL    HW2 1937   2.896   2.096   2.323
 2034SOL     OW 1938   2.938   2.545   3.326
 2034SOL    HW1 1939   2.858   2.484   3.329
 2034SOL    HW2 1940   3.019   2.492   3.302
 2035SOL     OW 1941   3.089   3.432   2.655
 2035SOL    HW1 1942   3.110   3.506   2.590
 2035SOL    HW2 1943   3.157   3.432   2.728
 2036SOL     OW 1944   2.321   3.014   2.603
 2036SOL    HW1 1945   2.250   2.987   2.668
 2036SOL    HW2 1946   2.295   2.986   2.510
 2037SOL     OW 1947   3.133   3.659   2.453
 2037SOL    HW1 1948   3.177   3.723   2.389
 2037SOL    HW2 1949   3.083   3.711   2.523
 2038SOL     OW 1950   2.894   2.411   1.878
 2038SOL    HW1 1951   2.853   2.493   1.839
 2038SOL    HW2 1952   2.958   2.437   1.951
 2039SOL     OW 1953   1.940   2.418   3.248
 2039SOL    HW1 1954   2.032   2.417   3.207
 2039SOL    HW2 1955   1.934   2.492   3.315
 2040SOL     OW 1956   2.423   2.084   3.009
 2040SOL    HW1 1957   2.461   2.000   3.046
 2040SOL    HW2 1958   2.335   2.103   3.053
 2041SOL     OW 1959   2.728   2.316   2.504
 2041SOL    HW1 1960   2.696   2.388   2.442
 2041SOL    HW2 1961   2.752   2.235   2.451
 2042SOL     OW 1962   2.879   1.901   2.615
 2042SOL    HW1 1963   2.807   1.906   2.546
 2042SOL    HW2 1964   2.855   1.832   2.684
 2043SOL     OW 1965   3.291   3.035   2.729
 2043SOL    HW1 1966   3.236   2.951   2.722
 2043SOL    HW2 1967   3.317   3.064   2.637
 2044SOL     OW 1968   3.328   2.452   2.854
 2044SOL    HW1 1969   3.298   2.357   2.861
 2044SOL    HW2 1970   3.401   2.468   2.920
 2045SOL     OW 1971   3.719   2.695   2.239
 2045SOL    HW1 1972   3.761   2.631   2.303
 2045SOL    HW2 1973   3.681   2.644   2.161
 2046SOL     OW 1974   2.350   3.247   2.036
 2046SOL    HW1 1975   2.263   3.232   2.083
 2046SOL    HW2 1976   2.333   3.273   1.941
 2047SOL     OW 1977   3.526   3.142   2.519
 2047SOL    HW1 1978   3.625   3.150   2.533
 2047SOL    HW2 1979   3.481   3.226   2.550
 2048SOL     OW 1980   3.252   2.437   1.940
 2048SOL    HW1 1981   3.198   2.416   2.021
 2048SOL    HW2 1982   3.343   2.396   1.949
 2050SOL     OW 1983   2.926   3.209   3.202
 2050SOL    HW1 1984   2.846   3.186   3.257
 2050SOL    HW2 1985   3.009   3.183   3.251
 2052SOL     OW 1986   2.973   3.057   2.962
 2052SOL    HW1 1987   2.933   3.101   3.043
 2052SOL    HW2 1988   2.932   3.094   2.879
 2053SOL     OW 1989   3.500   2.961   2.941
 2053SOL    HW1 1990   3.505   3.042   3.000
 2053SOL    HW2 1991   3.414   2.963   2.890
 2054SOL     OW 1992   2.777   1.951   3.264
 2054SOL    HW1 1993   2.802   1.931   3.169
 2054SOL    HW2 1994   2.849   2.007   3.306
 2055SOL     OW 1995   2.842   2.978   3.581
 2055SOL    HW1 1996   2.743   2.984   3.591
 2055SOL    HW2 1997   2.865   2.898   3.525
 2056SOL     OW 1998   2.567   2.912   2.230
 2056SOL    HW1 1999   2.553   2.919   2.329
 2056SOL    HW2 2000   2.651   2.861   2.212
 2057SOL     OW 2001   2.272   2.675   3.113
 2057SOL    HW1 2002   2.358   2.687   3.163
 2057SOL    HW2 2003   2.230   2.588   3.140
 2058SOL     OW 2004   3.136   2.248   3.124
 2058SOL    HW1 2005   3.157   2.322   3.188
 2058SOL    HW2 2006   3.047   2.265   3.081
 2059SOL     OW 2007   1.926   3.426   3.193
 2059SOL    HW1 2008   1.880   3.508   3.159
 2059SOL    HW2 2009   2.024   3.445   3.202
 2060SOL     OW 2010   2.229   2.962   2.363
 2060SOL    HW1 2011   2.222   3.045   2.307
 2060SOL    HW2 2012   2.233   2.882   2.303
 2061SOL     OW 2013   2.428   2.399   2.727
 2061SOL    HW1 2014   2.440   2.465   2.653
 2061SOL    HW2 2015   2.474   2.433   2.810
 2062SOL     OW 2016   3.114   3.210   2.250
 2062SOL    HW1 2017   3.164   3.287   2.290
 2062SOL    HW2 2018   3.019   3.212   2.282
 2063SOL     OW 2019   3.134   3.307   3.004
 2063SOL    HW1 2020   3.181   3.320   3.091
 2063SOL    HW2 2021   3.068   3.233   3.013
 2064SOL     OW 2022   3.444   2.501   2.334
 2064SOL    HW1 2023   3.413   2.562   2.407
 2064SOL    HW2 2024   3.494   2.553   2.265
 2065SOL     OW 2025   2.216   3.372   3.191
 2065SOL    HW1 2026   2.195   3.328   3.104
 2065SOL    HW2 2027   2.313   3.398   3.194
 2066SOL     OW 2028   2.264   2.613   3.460
 2066SOL    HW1 2029   2.332   2.668   3.413
 2066SOL    HW2 2030   2.304   2.525   3.487
 2067SOL     OW 2031   3.449   2.641   3.532
 2067SOL    HW1 2032   3.357   2.679   3.527
 2067SOL    HW2 2033   3.509   2.688   3.467
 2068SOL     OW 2034   2.875   1.967   3.632
 2068SOL    HW1 2035   2.881   2.052   3.580
 2068SOL    HW2 2036   2.907   1.891   3.575
 2069SOL     OW 2037   2.366   1.912   3.602
 2069SOL    HW1 2038   2.324   1.855   3.532
 2069SOL    HW2 2039   2.300   1.981   3.634
 2070SOL     OW 2040   2.435   2.732   2.891
 2070SOL    HW1 2041   2.479   2.821   2.882
 2070SOL    HW2 2042   2.372   2.732   2.968
 2071SOL     OW 2043   3.222   2.724   2.907
 2071SOL    HW1 2044   3.147   2.724   2.841
 2071SOL    HW2 2045   3.259   2.632   2.916
 2072SOL     OW 2046   3.071   2.387   2.137
 2072SOL    HW1 2047   3.084   2.303   2.191
 2072SOL    HW2 2048   3.042   2.461   2.197
 2073SOL     OW 2049   2.169   2.075   3.093
 2073SOL    HW1 2050   2.146   2.112   3.183
 2073SOL    HW2 2051   2.139   1.980   3.087
 2074SOL     OW 2052   1.899   3.172   3.144
 2074SOL    HW1 2053   1.952   3.123   3.212
 2074SOL    HW2 2054   1.921   3.270   3.149
 2075SOL     OW 2055   2.594   2.496   2.926
 2075SOL    HW1 2056   2.653   2.470   2.850
 2075SOL    HW2 2057   2.566   2.592   2.915
 2077SOL     OW 2058   2.169   1.925   2.480
 2077SOL    HW1 2059   2.158   2.019   2.513
 2077SOL    HW2 2060   2.164   1.862   2.557
 2078SOL     OW 2061   3.484   2.229   2.236
 2078SOL    HW1 2062   3.486   2.153   2.300
 2078SOL    HW2 2063   3.436   2.306   2.276
 2079SOL     OW 2064   2.885   2.628   2.828
 2079SOL    HW1 2065   2.900   2.649   2.924
 2079SOL    HW2 2066   2.855   2.533   2.819
 2082SOL     OW 2067   2.212   2.760   3.666
 2082SOL    HW1 2068   2.288   2.804   3.714
 2082SOL    HW2 2069   2.247   2.713   3.584
 2083SOL     OW 2070   3.402   2.136   1.987
 2083SOL    HW1 2071   3.341   2.061   2.010
 2083SOL    HW2 2072   3.424   2.188   2.070
 2084SOL     OW 2073   3.165   2.700   1.904
 2084SOL    HW1 2074   3.199   2.607   1.919
 2084SOL    HW2 2075   3.183   2.727   1.809
 2085SOL     OW 2076   2.930   3.195   2.711
 2085SOL    HW1 2077   2.937   3.111   2.656
 2085SOL    HW2 2078   2.992   3.264   2.675
 2086SOL     OW 2079   2.181   2.672   2.811
 2086SOL    HW1 2080   2.274   2.708   2.816
 2086SOL    HW2 2081   2.175   2.587   2.863
 2087SOL     OW 2082   2.201   2.371   2.868
 2087SOL    HW1 2083   2.149   2.288   2.851
 2087SOL    HW2 2084   2.278   2.376   2.804
 2088SOL     OW 2085   3.000   2.242   3.540
 2088SOL    HW1 2086   2.955   2.305   3.604
 2088SOL    HW2 2087   3.093   2.273   3.523
 2089SOL     OW 2088   3.022   2.069   3.339
 2089SOL    HW1 2089   3.022   2.133   3.416
 2089SOL    HW2 2090   3.050   2.117   3.256
 2090SOL     OW 2091   1.870   3.188   2.062
 2090SOL    HW1 2092   1.777   3.209   2.031
 2090SOL    HW2 2093   1.880   3.089   2.075
 2091SOL     OW 2094   1.950   3.663   2.789
 2091SOL    HW1 2095   1.908   3.577   2.762
 2091SOL    HW2 2096   2.044   3.666   2.755
 2092SOL     OW 2097   2.366   3.430   2.772
 2092SOL    HW1 2098   2.432   3.504   2.781
 2092SOL    HW2 2099   2.410   3.351   2.730
 2093SOL     OW 2100   2.864   2.658   3.100
 2093SOL    HW1 2101   2.905   2.626   3.186
 2093SOL    HW2 2102   2.768   2.631   3.097
 2094SOL     OW 2103   1.902   2.406   2.976
 2094SOL    HW1 2104   1.987   2.373   2.935
 2094SOL    HW2 2105   1.915   2.421   3.074
 2095SOL     OW 2106   2.051   2.382   3.584
 2095SOL    HW1 2107   2.110   2.342   3.514
 2095SOL    HW2 2108   1.993   2.453   3.543
 2096SOL     OW 2109   3.231   2.812   3.522
 2096SOL    HW1 2110   3.270   2.901   3.542
 2096SOL    HW2 2111   3.241   2.792   3.425
 2097SOL     OW 2112   2.677   2.434   2.187
 2097SOL    HW1 2113   2.684   2.345   2.141
 2097SOL    HW2 2114   2.583   2.468   2.179
 2098SOL     OW 2115   3.519   2.466   3.068
 2098SOL    HW1 2116   3.481   2.397   3.130
 2098SOL    HW2 2117   3.601   2.430   3.024
 2099SOL     OW 2118   2.114   3.426   3.606
 2099SOL    HW1 2119   2.084   3.483   3.682
 2099SOL    HW2 2120   2.107   3.329   3.632
 2100SOL     OW 2121   2.533   2.326   3.131
 2100SOL    HW1 2122   2.499   2.237   3.101
 2100SOL    HW2 2123   2.559   2.380   3.051
 2101SOL     OW 2124   2.792   3.540   3.327
 2101SOL    HW1 2125   2.768   3.522   3.232
 2101SOL    HW2 2126   2.822   3.634   3.337
 2102SOL     OW 2127   2.021   2.999   3.328
 2102SOL    HW1 2128   2.043   2.938   3.404
 2102SOL    HW2 2129   2.031   2.950   3.242
 2103SOL     OW 2130   3.209   2.921   3.096
 2103SOL    HW1 2131   3.233   2.858   3.022
 2103SOL    HW2 2132   3.119   2.961   3.078
 2104SOL     OW 2133   3.164   2.717   2.171
 2104SOL    HW1 2134   3.078   2.686   2.213
 2104SOL    HW2 2135   3.160   2.703   2.072
 2106SOL     OW 2136   3.114   3.593   2.990
 2106SOL    HW1 2137   3.198   3.598   2.936
 2106SOL    HW2 2138   3.091   3.497   3.008
 2107SOL     OW 2139   1.945   3.120   2.884
 2107SOL    HW1 2140   1.940   3.119   2.984
 2107SOL    HW2 2141   1.862   3.079   2.846
 2109SOL     OW 2142   3.588   1.997   2.385
 2109SOL    HW1 2143   3.661   1.980   2.318
 2109SOL    HW2 2144   3.557   1.910   2.423
 2110SOL     OW 2145   3.250   3.435   2.339
 2110SOL    HW1 2146   3.317   3.447   2.265
 2110SOL    HW2 2147   3.210   3.524   2.362
 2112SOL     OW 2148   3.142   2.789   2.534
 2112SOL    HW1 2149   3.202   2.708   2.536
 2112SOL    HW2 2150   3.182   2.858   2.474
 2113SOL     OW 2151   2.692   3.135   3.284
 2113SOL    HW1 2152   2.687   3.168   3.379
 2113SOL    HW2 2153   2.606   3.154   3.238
 2114SOL     OW 2154   2.534   3.478   2.016
 2114SOL    HW1 2155   2.543   3.488   1.917
 2114SOL    HW2 2156   2.494   3.389   2.037
 2116SOL     OW 2157   3.703   2.037   2.825
 2116SOL    HW1 2158   3.742   1.952   2.789
 2116SOL    HW2 2159   3.605   2.039   2.806
 2117SOL     OW 2160   3.056   3.474   1.893
 2117SOL    HW1 2161   3.062   3.381   1.930
 2117SOL    HW2 2162   2.997   3.474   1.813
 2118SOL     OW 2163   2.684   2.864   3.234
 2118SOL    HW1 2164   2.724   2.863   3.142
 2118SOL    HW2 2165   2.694   2.956   3.274
 2119SOL     OW 2166   2.778   2.772   2.153
 2119SOL    HW1 2167   2.841   2.810   2.085
 2119SOL    HW2 2168   2.818   2.689   2.192
 2120SOL     OW 2169   3.366   3.469   1.906
 2120SOL    HW1 2170   3.274   3.506   1.913
 2120SOL    HW2 2171   3.404   3.489   1.816
 2121SOL     OW 2172   2.234   3.150   3.352
 2121SOL    HW1 2173   2.221   3.243   3.318
 2121SOL    HW2 2174   2.150   3.098   3.339
 2122SOL     OW 2175   3.476   3.154   3.151
 2122SOL    HW1 2176   3.536   3.157   3.231
 2122SOL    HW2 2177   3.401   3.218   3.164
 2123SOL     OW 2178   2.901   2.960   2.558
 2123SOL    HW1 2179   2.831   2.913   2.612
 2123SOL    HW2 2180   2.960   2.892   2.515
 2124SOL     OW 2181   2.876   2.098   2.833
 2124SOL    HW1 2182   2.868   2.062   2.740
 2124SOL    HW2 2183   2.874   2.022   2.898
 2125SOL     OW 2184   2.452   3.349   2.353
 2125SOL    HW1 2185   2.494   3.291   2.283
 2125SOL    HW2 2186   2.408   3.428   2.309
 2126SOL     OW 2187   3.571   2.247   3.243
 2126SOL    HW1 2188   3.644   2.316   3.247
 2126SOL    HW2 2189   3.599   2.172   3.184
 2127SOL     OW 2190   2.117   3.210   2.152
 2127SOL    HW1 2191   2.021   3.211   2.125
 2127SOL    HW2 2192   2.129   3.263   2.236
 2128SOL     OW 2193   1.967   2.875   3.588
 2128SOL    HW1 2194   1.890   2.842   3.642
 2128SOL    HW2 2195   2.052   2.845   3.630
 2129SOL     OW 2196   2.534   2.065   3.351
 2129SOL    HW1 2197   2.624   2.049   3.311
 2129SOL    HW2 2198   2.542   2.070   3.450
 2130SOL     OW 2199   1.937   2.207   1.895
 2130SOL    HW1 2200   1.845   2.179   1.866
 2130SOL    HW2 2201   1.968   2.284   1.839
 2131SOL     OW 2202   3.302   2.718   3.260
 2131SOL    HW1 2203   3.245   2.770   3.197
 2131SOL    HW2 2204   3.398   2.730   3.236
 2132SOL     OW 2205   1.934   2.028   2.180
 2132SOL    HW1 2206   1.917   2.111   2.126
 2132SOL    HW2 2207   2.024   1.991   2.158
 2133SOL     OW 2208   3.045   3.197   1.981
 2133SOL    HW1 2209   2.946   3.186   1.983
 2133SOL    HW2 2210   3.079   3.212   2.074
 2134SOL     OW 2211   2.475   2.704   3.293
 2134SOL    HW1 2212   2.531   2.785   3.276
 2134SOL    HW2 2213   2.534   2.624   3.296
 2136SOL     OW 2214   2.578   2.427   3.570
 2136SOL    HW1 2215   2.597   2.492   3.644
 2136SOL    HW2 2216   2.638   2.347   3.579
 2138SOL     OW 2217   2.252   3.603   3.422
 2138SOL    HW1 2218   2.161   3.644   3.420
 2138SOL    HW2 2219   2.245   3.509   3.454
 2139SOL     OW 2220   3.536   2.745   3.116
 2139SOL    HW1 2221   3.509   2.656   3.079
 2139SOL    HW2 2222   3.537   2.813   3.043
 2140SOL     OW 2223   3.087   2.187   2.311
 2140SOL    HW1 2224   3.152   2.113   2.300
 2140SOL    HW2 2225   3.107   2.237   2.395
 2141SOL     OW 2226   2.456   2.607   2.514
 2141SOL    HW1 2227   2.506   2.692   2.495
 2141SOL    HW2 2228   2.368   2.609   2.466
 2144SOL     OW 2229   2.721   3.236   1.878
 2144SOL    HW1 2230   2.675   3.251   1.966
 2144SOL    HW2 2231   2.765   3.321   1.848
 2145SOL     OW 2232   2.523   3.652   2.815
 2145SOL    HW1 2233   2.477   3.740   2.802
 2145SOL    HW2 2234   2.622   3.664   2.808
 2146SOL     OW 2235   2.721   2.818   2.723
 2146SOL    HW1 2236   2.775   2.749   2.771
 2146SOL    HW2 2237   2.689   2.887   2.789
 2147SOL     OW 2238   2.945   2.846   1.949
 2147SOL    HW1 2239   2.922   2.899   1.867
 2147SOL    HW2 2240   3.026   2.790   1.930
 2149SOL     OW 2241   2.083   3.176   3.706
 2149SOL    HW1 2242   2.018   3.103   3.685
 2149SOL    HW2 2243   2.087   3.190   3.804
 2150SOL     OW 2244   1.941   3.102   2.515
 2150SOL    HW1 2245   1.940   3.055   2.603
 2150SOL    HW2 2246   2.023   3.074   2.464
 2151SOL     OW 2247   2.534   3.253   3.486
 2151SOL    HW1 2248   2.456   3.203   3.524
 2151SOL    HW2 2249   2.531   3.348   3.517
 2152SOL     OW 2250   3.686   2.054   3.089
 2152SOL    HW1 2251   3.682   1.964   3.133
 2152SOL    HW2 2252   3.689   2.043   2.990
 2154SOL     OW 2253   2.179   2.409   3.142
 2154SOL    HW1 2254   2.217   2.350   3.214
 2154SOL    HW2 2255   2.219   2.383   3.054
 2155SOL     OW 2256   2.674   3.448   2.549
 2155SOL    HW1 2257   2.706   3.458   2.455
 2155SOL    HW2 2258   2.595   3.386   2.551
 2156SOL     OW 2259   3.286   2.076   2.974
 2156SOL    HW1 2260   3.338   2.011   3.029
 2156SOL    HW2 2261   3.237   2.139   3.035
 2157SOL     OW 2262   2.863   1.896   3.016
 2157SOL    HW1 2263   2.800   1.824   2.985
 2157SOL    HW2 2264   2.956   1.860   3.016
 2158SOL     OW 2265   2.632   3.192   2.163
 2158SOL    HW1 2266   2.586   3.105   2.180
 2158SOL    HW2 2267   2.723   3.189   2.204
 2159SOL     OW 2268   2.480   3.429   3.146
 2159SOL    HW1 2269   2.475   3.511   3.203
 2159SOL    HW2 2270   2.569   3.426   3.101
 2160SOL     OW 2271   3.214   1.914   2.030
 2160SOL    HW1 2272   3.249   1.873   1.946
 2160SOL    HW2 2273   3.124   1.876   2.050
 2161SOL     OW 2274   3.162   2.315   2.553
 2161SOL    HW1 2275   3.103   2.395   2.557
 2161SOL    HW2 2276   3.177   2.280   2.646
 2162SOL     OW 2277   3.455   2.083   2.744
 2162SOL    HW1 2278   3.371   2.082   2.798
 2162SOL    HW2 2279   3.457   2.166   2.688
 2163SOL     OW 2280   1.901   2.939   2.162
 2163SOL    HW1 2281   2.000   2.928   2.153
 2163SOL    HW2 2282   1.861   2.853   2.194
 2164SOL     OW 2283   2.737   3.508   2.199
 2164SOL    HW1 2284   2.660   3.473   2.145
 2164SOL    HW2 2285   2.705   3.579   2.261
 2165SOL     OW 2286   2.092   2.490   3.837
 2165SOL    HW1 2287   1.999   2.488   3.874
 2165SOL    HW2 2288   2.093   2.451   3.745
 2172SOL     OW 2289   2.468   2.826   3.847
 2172SOL    HW1 2290   2.475   2.910   3.793
 2172SOL    HW2 2291   2.514   2.839   3.935
 2182SOL     OW 2292   2.460   2.591   3.994
 2182SOL    HW1 2293   2.484   2.660   3.926
 2182SOL    HW2 2294   2.382   2.624   4.048
 2187SOL     OW 2295   2.727   2.210   3.919
 2187SOL    HW1 2296   2.786   2.273   3.870
 2187SOL    HW2 2297   2.746   2.116   3.890
 2199SOL     OW 2298   2.476   1.984   3.841
 2199SOL    HW1 2299   2.574   1.962   3.848
 2199SOL    HW2 2300   2.445   1.967   3.748
 2202SOL     OW 2301   2.159   1.897   3.895
 2202SOL    HW1 2302   2.208   1.981   3.874
 2202SOL    HW2 2303   2.221   1.832   3.940
 2206SOL     OW 2304   2.894   2.411   3.740
 2206SOL    HW1 2305   2.853   2.493   3.701
 2206SOL    HW2 2306   2.958   2.437   3.813
 2225SOL     OW 2307   2.335   2.362   3.915
 2225SOL    HW1 2308   2.396   2.442   3.919
 2225SOL    HW2 2309   2.240   2.393   3.922
 2236SOL     OW 2310   1.937   2.207   3.757
 2236SOL    HW1 2311   1.845   2.179   3.728
 2236SOL    HW2 2312   1.968   2.284   3.701
 2264SOL     OW 2313   2.179   3.975   1.801
 2264SOL    HW1 2314   2.250   4.046   1.807
 2264SOL    HW2 2315   2.091   4.014   1.829
 2297SOL     OW 2316   2.875   3.829   1.770
 2297SOL    HW1 2317   2.881   3.914   1.718
 2297SOL    HW2 2318   2.907   3.753   1.713
 2298SOL     OW 2319   2.366   3.774   1.740
 2298SOL    HW1 2320   2.324   3.717   1.670
 2298SOL    HW2 2321   2.300   3.843   1.772
 2349SOL     OW 2322   2.671   3.728   2.364
 2349SOL    HW1 2323   2.711   3.819   2.355
 2349SOL    HW2 2324   2.571   3.736   2.370
 2358SOL     OW 2325   2.412   3.920   2.747
 2358SOL    HW1 2326   2.407   3.915   2.847
 2358SOL    HW2 2327   2.414   4.016   2.718
 2364SOL     OW 2328   2.476   3.846   1.979
 2364SOL    HW1 2329   2.574   3.824   1.986
 2364SOL    HW2 2330   2.445   3.829   1.886
 2368SOL     OW 2331   2.401   3.788   2.374
 2368SOL    HW1 2332   2.320   3.789   2.432
 2368SOL    HW2 2333   2.404   3.871   2.319
 2369SOL     OW 2334   2.159   3.759   2.033
 2369SOL    HW1 2335   2.208   3.843   2.012
 2369SOL    HW2 2336   2.221   3.694   2.078
 2370SOL     OW 2337   2.797   3.960   2.342
 2370SOL    HW1 2338   2.749   4.001   2.264
 2370SOL    HW2 2339   2.896   3.958   2.323
 2376SOL     OW 2340   2.879   3.763   2.615
 2376SOL    HW1 2341   2.807   3.768   2.546
 2376SOL    HW2 2342   2.855   3.694   2.684
 2379SOL     OW 2343   2.389   3.980   2.190
 2379SOL    HW1 2344   2.416   3.921   2.115
 2379SOL    HW2 2345   2.389   4.075   2.159
 2391SOL     OW 2346   2.169   3.787   2.480
 2391SOL    HW1 2347   2.158   3.881   2.513
 2391SOL    HW2 2348   2.164   3.724   2.557
 2414SOL     OW 2349   1.934   3.890   2.180
 2414SOL    HW1 2350   1.917   3.973   2.126
 2414SOL    HW2 2351   2.024   3.853   2.158
 2423SOL     OW 2352   2.863   3.758   3.016
 2423SOL    HW1 2353   2.800   3.686   2.985
 2423SOL    HW2 2354   2.956   3.722   3.016
 2488SOL     OW 2355   3.854   1.821   1.571
 2488SOL    HW1 2356   3.844   1.806   1.670
 2488SOL    HW2 2357   3.768   1.857   1.535
 2532SOL     OW 2358   3.854   1.794   1.851
 2532SOL    HW1 2359   3.813   1.720   1.904
 2532SOL    HW2 2360   3.918   1.845   1.909
 2560SOL     OW 2361   3.955   1.713   2.345
 2560SOL    HW1 2362   3.989   1.790   2.399
 2560SOL    HW2 2363   3.999   1.713   2.255
 2566SOL     OW 2364   3.751   1.596   1.979
 2566SOL    HW1 2365   3.732   1.500   2.000
 2566SOL    HW2 2366   3.718   1.654   2.054
 2607SOL     OW 2367   3.732   1.326   2.062
 2607SOL    HW1 2368   3.639   1.347   2.031
 2607SOL    HW2 2369   3.742   1.227   2.075
 2608SOL     OW 2370   3.812   1.801   2.789
 2608SOL    HW1 2371   3.770   1.715   2.762
 2608SOL    HW2 2372   3.906   1.804   2.755
 2692SOL     OW 2373   3.837   2.599   1.597
 2692SOL    HW1 2374   3.925   2.586   1.642
 2692SOL    HW2 2375   3.824   2.696   1.575
 2712SOL     OW 2376   3.802   2.418   1.386
 2712SOL    HW1 2377   3.894   2.417   1.345
 2712SOL    HW2 2378   3.796   2.492   1.453
 2734SOL     OW 2379   3.913   2.382   1.722
 2734SOL    HW1 2380   3.972   2.342   1.652
 2734SOL    HW2 2381   3.855   2.453   1.681
 2746SOL     OW 2382   3.829   2.875   1.726
 2746SOL    HW1 2383   3.752   2.842   1.780
 2746SOL    HW2 2384   3.914   2.845   1.768
 2760SOL     OW 2385   3.954   2.490   1.975
 2760SOL    HW1 2386   3.861   2.488   2.012
 2760SOL    HW2 2387   3.955   2.451   1.883
 2762SOL     OW 2388   3.743   2.230   2.509
 2762SOL    HW1 2389   3.661   2.273   2.548
 2762SOL    HW2 2390   3.715   2.157   2.446
 2774SOL     OW 2391   3.846   2.505   2.425
 2774SOL    HW1 2392   3.801   2.417   2.442
 2774SOL    HW2 2393   3.845   2.559   2.509
 2782SOL     OW 2394   3.800   2.673   2.651
 2782SOL    HW1 2395   3.899   2.661   2.660
 2782SOL    HW2 2396   3.776   2.768   2.672
 2816SOL     OW 2397   3.732   3.188   2.062
 2816SOL    HW1 2398   3.639   3.209   2.031
 2816SOL    HW2 2399   3.742   3.089   2.075
 2819SOL     OW 2400   3.764   2.406   2.976
 2819SOL    HW1 2401   3.849   2.373   2.935
 2819SOL    HW2 2402   3.777   2.421   3.074
 2828SOL     OW 2403   3.987   2.188   2.582
 2828SOL    HW1 2404   3.908   2.239   2.548
 2828SOL    HW2 2405   3.978   2.173   2.680
 2834SOL     OW 2406   3.799   2.207   1.895
 2834SOL    HW1 2407   3.707   2.179   1.866
 2834SOL    HW2 2408   3.830   2.284   1.839
 2835SOL     OW 2409   3.796   2.028   2.180
 2835SOL    HW1 2410   3.779   2.111   2.126
 2835SOL    HW2 2411   3.886   1.991   2.158
 2841SOL     OW 2412   3.803   3.102   2.515
 2841SOL    HW1 2413   3.802   3.055   2.603
 2841SOL    HW2 2414   3.885   3.074   2.464
 2846SOL     OW 2415   3.763   2.939   2.162
 2846SOL    HW1 2416   3.862   2.928   2.153
 2846SOL    HW2 2417   3.723   2.853   2.194
   4.50555   4.50555   4.50555
