mobley_8057732_GMX.gro created by acpype (v: 2023.10.27) on Wed May 20 23:59:03 2026
   13
    1MOL     C1    1   2.151   2.344   2.208
    1MOL     C2    2   2.258   2.283   2.143
    1MOL     C3    3   2.152   2.356   2.348
    1MOL     C4    4   2.365   2.243   2.356
    1MOL     C5    5   2.365   2.232   2.217
    1MOL     C6    6   2.258   2.305   2.421
    1MOL     O1    7   2.469   2.171   2.154
    1MOL    CL1    8   2.259   2.319   2.593
    1MOL     H1    9   2.068   2.384   2.151
    1MOL     H2   10   2.257   2.274   2.035
    1MOL     H3   11   2.068   2.404   2.397
    1MOL     H4   12   2.449   2.203   2.413
    1MOL     H5   13   2.534   2.143   2.220
   4.56268   4.56268   4.56268
