octafluorocyclobutane
    12
   0.7740000  -0.6330000  -0.4490000   0.7840000  -2.0790000   0.0880000
   0.3770000  -1.2250000  -1.8170000  -0.2080000  -2.4240000  -1.0430000
  -0.1420000   0.1880000   0.1150000   1.9580000   0.0160000  -0.4120000
   1.9780000  -2.7130000   0.0250000   0.3200000  -2.2420000   1.3460000
  -0.5100000  -0.5010000  -2.5350000   1.4070000  -1.5160000  -2.6440000
  -1.5170000  -2.3350000  -0.7230000  -0.0270000  -3.6330000  -1.6240000
