mobley_7860938_GMX.gro created by acpype (v: 2023.10.27) on Wed May 20 23:44:47 2026
13543
    1MOL     C1    1   2.925   2.248   2.727
    1MOL     C2    2   2.238   2.877   2.379
    1MOL     C3    3   2.847   2.375   2.755
    1MOL     C4    4   2.328   2.843   2.497
    1MOL     C5    5   2.752   2.409   2.640
    1MOL     C6    6   2.413   2.718   2.469
    1MOL     C7    7   2.672   2.536   2.670
    1MOL     C8    8   2.505   2.687   2.586
    1MOL     N1    9   2.583   2.567   2.558
    1MOL     H1   10   2.992   2.226   2.811
    1MOL     H2   11   2.857   2.163   2.714
    1MOL     H3   12   2.985   2.258   2.637
    1MOL     H4   13   2.179   2.966   2.401
    1MOL     H5   14   2.298   2.897   2.289
    1MOL     H6   15   2.170   2.795   2.357
    1MOL     H7   16   2.790   2.363   2.848
    1MOL     H8   17   2.917   2.458   2.771
    1MOL     H9   18   2.394   2.928   2.518
    1MOL    H10   19   2.266   2.826   2.585
    1MOL    H11   20   2.810   2.423   2.548
    1MOL    H12   21   2.684   2.325   2.623
    1MOL    H13   22   2.347   2.633   2.449
    1MOL    H14   23   2.472   2.734   2.378
    1MOL    H15   24   2.612   2.522   2.761
    1MOL    H16   25   2.739   2.620   2.687
    1MOL    H17   26   2.573   2.771   2.604
    1MOL    H18   27   2.447   2.671   2.677
    1MOL    H19   28   2.640   2.582   2.474
    2SOL     OW   29   0.230   0.628   0.113
    2SOL    HW1   30   0.137   0.626   0.150
    2SOL    HW2   31   0.231   0.589   0.021
    3SOL     OW   32   0.225   0.275   0.996
    3SOL    HW1   33   0.260   0.258   1.088
    3SOL    HW2   34   0.137   0.230   0.984
    4SOL     OW   35   0.019   0.368   0.647
    4SOL    HW1   36  -0.063   0.411   0.686
    4SOL    HW2   37  -0.009   0.295   0.584
    5SOL     OW   38   0.569   1.275   1.165
    5SOL    HW1   39   0.476   1.268   1.128
    5SOL    HW2   40   0.580   1.364   1.209
    6SOL     OW   41   1.555   1.511   0.703
    6SOL    HW1   42   1.498   1.495   0.784
    6SOL    HW2   43   1.496   1.521   0.623
    7SOL     OW   44   1.135   0.703   0.717
    7SOL    HW1   45   1.192   0.781   0.692
    7SOL    HW2   46   1.075   0.729   0.793
    8SOL     OW   47   1.755   0.607   0.231
    8SOL    HW1   48   1.743   0.594   0.132
    8SOL    HW2   49   1.725   0.526   0.280
    9SOL     OW   50   0.768   1.144   1.023
    9SOL    HW1   51   0.690   1.161   1.083
    9SOL    HW2   52   0.802   1.231   0.987
   10SOL     OW   53   0.850   0.798   1.823
   10SOL    HW1   54   0.846   0.874   1.888
   10SOL    HW2   55   0.872   0.834   1.732
   11SOL     OW   56   0.685   1.012   0.665
   11SOL    HW1   57   0.754   0.996   0.735
   11SOL    HW2   58   0.612   1.069   0.703
   12SOL     OW   59   0.686   1.161   1.803
   12SOL    HW1   60   0.746   1.240   1.817
   12SOL    HW2   61   0.600   1.192   1.762
   13SOL     OW   62   0.335   1.435   1.061
   13SOL    HW1   63   0.257   1.404   1.008
   13SOL    HW2   64   0.393   1.493   1.004
   14SOL     OW   65   1.460   1.505   1.339
   14SOL    HW1   66   1.484   1.599   1.365
   14SOL    HW2   67   1.444   1.451   1.421
   15SOL     OW   68   0.438   0.392   1.499
   15SOL    HW1   69   0.520   0.336   1.508
   15SOL    HW2   70   0.357   0.334   1.503
   16SOL     OW   71   1.603   0.447   0.737
   16SOL    HW1   72   1.529   0.493   0.687
   16SOL    HW2   73   1.654   0.515   0.790
   17SOL     OW   74   0.231   1.713   0.483
   17SOL    HW1   75   0.265   1.790   0.537
   17SOL    HW2   76   0.275   1.713   0.393
   18SOL     OW   77   1.127   1.341   1.690
   18SOL    HW1   78   1.174   1.341   1.778
   18SOL    HW2   79   1.079   1.254   1.679
   19SOL     OW   80   0.230   1.434   0.538
   19SOL    HW1   81   0.204   1.530   0.538
   19SOL    HW2   82   0.159   1.380   0.583
   20SOL     OW   83   0.240   1.091   0.886
   20SOL    HW1   84   0.254   1.007   0.938
   20SOL    HW2   85   0.185   1.155   0.941
   21SOL     OW   86   0.620   1.786   1.439
   21SOL    HW1   87   0.528   1.769   1.474
   21SOL    HW2   88   0.648   1.878   1.465
   22SOL     OW   89   0.606   0.964   0.123
   22SOL    HW1   90   0.613   1.048   0.069
   22SOL    HW2   91   0.652   0.977   0.211
   23SOL     OW   92   1.594   0.114   1.480
   23SOL    HW1   93   1.576   0.181   1.408
   23SOL    HW2   94   1.591   0.160   1.569
   24SOL     OW   95   0.122   0.643   0.563
   24SOL    HW1   96   0.077   0.555   0.580
   24SOL    HW2   97   0.121   0.697   0.647
   25SOL     OW   98   1.842   1.767   0.359
   25SOL    HW1   99   1.896   1.738   0.439
   25SOL    HW2  100   1.872   1.857   0.330
   26SOL     OW  101   0.027   1.596   0.117
   26SOL    HW1  102   0.008   1.500   0.138
   26SOL    HW2  103  -0.006   1.654   0.192
   27SOL     OW  104   1.689   0.922   0.612
   27SOL    HW1  105   1.784   0.893   0.620
   27SOL    HW2  106   1.681   0.987   0.537
   28SOL     OW  107   1.641   1.108   0.432
   28SOL    HW1  108   1.727   1.110   0.380
   28SOL    HW2  109   1.655   1.155   0.520
   29SOL     OW  110   0.113   0.737   1.597
   29SOL    HW1  111   0.201   0.724   1.642
   29SOL    HW2  112   0.100   0.834   1.575
   30SOL     OW  113   0.613   1.365   0.726
   30SOL    HW1  114   0.564   1.278   0.735
   30SOL    HW2  115   0.590   1.408   0.639
   31SOL     OW  116   1.293   1.228   1.423
   31SOL    HW1  117   1.330   1.155   1.365
   31SOL    HW2  118   1.345   1.233   1.508
   32SOL     OW  119   0.809   0.004   0.502
   32SOL    HW1  120   0.849   0.095   0.493
   32SOL    HW2  121   0.709   0.012   0.508
   33SOL     OW  122   0.197   0.976   1.264
   33SOL    HW1  123   0.286   0.931   1.250
   33SOL    HW2  124   0.124   0.911   1.245
   34SOL     OW  125   1.525   0.999   0.190
   34SOL    HW1  126   1.462   0.923   0.203
   34SOL    HW2  127   1.573   1.017   0.276
   35SOL     OW  128   1.187   1.792   1.616
   35SOL    HW1  129   1.211   1.852   1.540
   35SOL    HW2  130   1.194   1.697   1.586
   36SOL     OW  131   0.317   0.251   1.801
   36SOL    HW1  132   0.388   0.322   1.807
   36SOL    HW2  133   0.229   0.290   1.829
   37SOL     OW  134   1.466   1.417   0.953
   37SOL    HW1  135   1.407   1.423   1.033
   37SOL    HW2  136   1.451   1.329   0.907
   38SOL     OW  137   1.667   1.714   0.572
   38SOL    HW1  138   1.626   1.691   0.484
   38SOL    HW2  139   1.649   1.640   0.637
   39SOL     OW  140   0.598   0.729   0.270
   39SOL    HW1  141   0.622   0.798   0.202
   39SOL    HW2  142   0.520   0.762   0.324
   40SOL     OW  143   1.281   0.345   0.944
   40SOL    HW1  144   1.195   0.295   0.931
   40SOL    HW2  145   1.343   0.291   1.000
   41SOL     OW  146   1.576   1.662   0.307
   41SOL    HW1  147   1.665   1.708   0.310
   41SOL    HW2  148   1.555   1.638   0.212
   42SOL     OW  149   0.807   0.605   1.465
   42SOL    HW1  150   0.760   0.602   1.554
   42SOL    HW2  151   0.756   0.550   1.399
   43SOL     OW  152   1.394   0.469   1.674
   43SOL    HW1  153   1.374   0.512   1.762
   43SOL    HW2  154   1.472   0.407   1.683
   44SOL     OW  155   0.973   0.890   1.572
   44SOL    HW1  156   1.019   0.806   1.543
   44SOL    HW2  157   0.917   0.924   1.497
   45SOL     OW  158   0.991   0.410   1.242
   45SOL    HW1  159   0.914   0.444   1.296
   45SOL    HW2  160   0.957   0.359   1.163
   46SOL     OW  161   1.041   0.701   0.429
   46SOL    HW1  162   1.067   0.697   0.525
   46SOL    HW2  163   0.956   0.650   0.415
   47SOL     OW  164   0.076   0.811   0.789
   47SOL    HW1  165   0.175   0.799   0.798
   47SOL    HW2  166   0.052   0.906   0.810
   48SOL     OW  167   0.130   1.821   1.571
   48SOL    HW1  168   0.120   1.806   1.670
   48SOL    HW2  169   0.044   1.857   1.535
   49SOL     OW  170   0.865   0.348   0.195
   49SOL    HW1  171   0.924   0.411   0.146
   49SOL    HW2  172   0.884   0.254   0.166
   50SOL     OW  173   1.719   0.585   1.831
   50SOL    HW1  174   1.693   0.674   1.795
   50SOL    HW2  175   1.717   0.517   1.758
   51SOL     OW  176   1.362   1.144   0.545
   51SOL    HW1  177   1.445   1.115   0.497
   51SOL    HW2  178   1.313   1.211   0.489
   52SOL     OW  179   0.550   0.196   0.885
   52SOL    HW1  180   0.545   0.191   0.985
   52SOL    HW2  181   0.552   0.292   0.856
   53SOL     OW  182   1.008   1.456   0.477
   53SOL    HW1  183   0.962   1.528   0.425
   53SOL    HW2  184   1.004   1.476   0.575
   54SOL     OW  185   0.351   1.801   0.853
   54SOL    HW1  186   0.401   1.715   0.859
   54SOL    HW2  187   0.416   1.878   0.850
   55SOL     OW  188   1.795   1.066   0.873
   55SOL    HW1  189   1.733   1.051   0.797
   55SOL    HW2  190   1.743   1.077   0.958
   56SOL     OW  191   1.227   1.550   1.506
   56SOL    HW1  192   1.233   1.473   1.570
   56SOL    HW2  193   1.175   1.524   1.426
   57SOL     OW  194   0.321   0.943   0.242
   57SOL    HW1  195   0.403   0.982   0.200
   57SOL    HW2  196   0.294   0.861   0.193
   58SOL     OW  197   1.458   0.735   0.728
   58SOL    HW1  198   1.453   0.670   0.803
   58SOL    HW2  199   1.538   0.794   0.741
   59SOL     OW  200   0.461   1.266   1.727
   59SOL    HW1  201   0.411   1.267   1.641
   59SOL    HW2  202   0.398   1.248   1.803
   60SOL     OW  203   1.111   1.776   0.237
   60SOL    HW1  204   1.051   1.714   0.287
   60SOL    HW2  205   1.142   1.732   0.152
   61SOL     OW  206   0.202   0.285   1.498
   61SOL    HW1  207   0.122   0.345   1.485
   61SOL    HW2  208   0.192   0.236   1.584
   62SOL     OW  209   1.632   1.377   0.081
   62SOL    HW1  210   1.600   1.471   0.071
   62SOL    HW2  211   1.556   1.314   0.069
   63SOL     OW  212   0.464   1.743   0.323
   63SOL    HW1  213   0.497   1.782   0.409
   63SOL    HW2  214   0.540   1.736   0.258
   64SOL     OW  215   1.400   0.107   0.426
   64SOL    HW1  216   1.376   0.070   0.336
   64SOL    HW2  217   1.499   0.123   0.430
   65SOL     OW  218   0.249   1.785   1.241
   65SOL    HW1  219   0.306   1.720   1.291
   65SOL    HW2  220   0.233   1.752   1.148
   66SOL     OW  221   0.940   1.698   0.904
   66SOL    HW1  222   1.020   1.641   0.925
   66SOL    HW2  223   0.891   1.658   0.827
   67SOL     OW  224   0.382   0.700   0.480
   67SOL    HW1  225   0.427   0.610   0.477
   67SOL    HW2  226   0.288   0.689   0.513
   68SOL     OW  227   1.547   0.222   1.729
   68SOL    HW1  228   1.542   0.259   1.821
   68SOL    HW2  229   1.475   0.153   1.717
   69SOL     OW  230   0.614   0.122   0.117
   69SOL    HW1  231   0.712   0.100   0.124
   69SOL    HW2  232   0.583   0.105   0.024
   70SOL     OW  233   0.781   0.264   1.749
   70SOL    HW1  234   0.848   0.203   1.792
   70SOL    HW2  235   0.708   0.283   1.814
   71SOL     OW  236   0.888   1.514   1.195
   71SOL    HW1  237   0.865   1.489   1.101
   71SOL    HW2  238   0.949   1.445   1.234
   72SOL     OW  239   1.351   0.590   1.433
   72SOL    HW1  240   1.379   0.547   1.518
   72SOL    HW2  241   1.376   0.686   1.434
   73SOL     OW  242   0.803   1.402   0.924
   73SOL    HW1  243   0.893   1.416   0.882
   73SOL    HW2  244   0.732   1.404   0.853
   74SOL     OW  245   0.922   0.503   0.899
   74SOL    HW1  246   0.897   0.494   0.803
   74SOL    HW2  247   0.970   0.421   0.930
   75SOL     OW  248   0.539   0.064   0.512
   75SOL    HW1  249   0.458   0.065   0.570
   75SOL    HW2  250   0.542   0.147   0.457
   76SOL     OW  251   1.434   1.188   0.041
   76SOL    HW1  252   1.466   1.112   0.098
   76SOL    HW2  253   1.342   1.215   0.071
   77SOL     OW  254   0.297   0.035   0.171
   77SOL    HW1  255   0.346   0.119   0.150
   77SOL    HW2  256   0.359  -0.030   0.216
   78SOL     OW  257   0.935   0.236   0.480
   78SOL    HW1  258   0.887   0.277   0.402
   78SOL    HW2  259   1.034   0.234   0.461
   79SOL     OW  260   1.076   0.683   1.464
   79SOL    HW1  261   0.996   0.622   1.467
   79SOL    HW2  262   1.157   0.630   1.440
   80SOL     OW  263   1.227   1.570   0.793
   80SOL    HW1  264   1.248   1.644   0.728
   80SOL    HW2  265   1.295   1.570   0.866
   81SOL     OW  266   0.459   1.152   0.741
   81SOL    HW1  267   0.388   1.125   0.806
   81SOL    HW2  268   0.433   1.124   0.648
   82SOL     OW  269   1.271   1.797   0.591
   82SOL    HW1  270   1.315   1.861   0.527
   82SOL    HW2  271   1.221   1.849   0.661
   83SOL     OW  272   1.032   0.549   0.016
   83SOL    HW1  273   0.991   0.631  -0.023
   83SOL    HW2  274   1.096   0.575   0.089
   84SOL     OW  275   0.078   0.556   1.386
   84SOL    HW1  276   0.170   0.555   1.345
   84SOL    HW2  277   0.072   0.630   1.453
   85SOL     OW  278   0.561   0.222   1.147
   85SOL    HW1  279   0.599   0.138   1.184
   85SOL    HW2  280   0.473   0.241   1.191
   86SOL     OW  281   0.866   0.454   0.642
   86SOL    HW1  282   0.834   0.526   0.580
   86SOL    HW2  283   0.890   0.373   0.589
   87SOL     OW  284   1.017   0.039   0.753
   87SOL    HW1  285   0.945   0.044   0.684
   87SOL    HW2  286   0.993  -0.030   0.822
   88SOL     OW  287   1.429   1.173   0.867
   88SOL    HW1  288   1.374   1.089   0.860
   88SOL    HW2  289   1.455   1.202   0.775
   89SOL     OW  290   1.466   0.590   0.992
   89SOL    HW1  291   1.436   0.495   0.999
   89SOL    HW2  292   1.539   0.606   1.058
   90SOL     OW  293   1.857   0.833   0.377
   90SOL    HW1  294   1.899   0.769   0.441
   90SOL    HW2  295   1.819   0.782   0.299
   91SOL     OW  296   0.488   1.385   0.174
   91SOL    HW1  297   0.401   1.370   0.221
   91SOL    HW2  298   0.471   1.411   0.079
   92SOL     OW  299   1.664   1.280   0.657
   92SOL    HW1  300   1.763   1.288   0.671
   92SOL    HW2  301   1.619   1.364   0.688
   93SOL     OW  302   1.390   0.575   0.078
   93SOL    HW1  303   1.336   0.554   0.159
   93SOL    HW2  304   1.481   0.534   0.087
   94SOL     OW  305   0.527   0.256   0.328
   94SOL    HW1  306   0.554   0.197   0.253
   94SOL    HW2  307   0.527   0.351   0.297
   95SOL     OW  308   1.754   1.223   1.588
   95SOL    HW1  309   1.845   1.184   1.575
   95SOL    HW2  310   1.762   1.319   1.612
   96SOL     OW  311   1.064   1.347   1.340
   96SOL    HW1  312   0.984   1.324   1.395
   96SOL    HW2  313   1.147   1.321   1.389
   97SOL     OW  314   1.592   1.629   1.625
   97SOL    HW1  315   1.619   1.663   1.535
   97SOL    HW2  316   1.671   1.591   1.671
   98SOL     OW  317   1.111   1.195   1.100
   98SOL    HW1  318   1.071   1.239   1.181
   98SOL    HW2  319   1.070   1.232   1.017
   99SOL     OW  320   1.638   1.099   1.079
   99SOL    HW1  321   1.643   1.180   1.138
   99SOL    HW2  322   1.552   1.101   1.028
  100SOL     OW  323   0.915   0.089   1.402
  100SOL    HW1  324   0.940   0.069   1.307
  100SOL    HW2  325   0.987   0.145   1.444
  101SOL     OW  326   0.980   1.116   1.719
  101SOL    HW1  327   0.881   1.122   1.729
  101SOL    HW2  328   1.003   1.036   1.663
  102SOL     OW  329   0.705   1.050   0.368
  102SOL    HW1  330   0.691   1.057   0.467
  102SOL    HW2  331   0.789   0.999   0.350
  103SOL     OW  332   0.410   0.813   1.251
  103SOL    HW1  333   0.496   0.825   1.301
  103SOL    HW2  334   0.368   0.726   1.278
  104SOL     OW  335   1.274   0.386   1.262
  104SOL    HW1  336   1.295   0.460   1.326
  104SOL    HW2  337   1.185   0.403   1.219
  105SOL     OW  338   0.064   1.564   1.331
  105SOL    HW1  339   0.018   1.646   1.297
  105SOL    HW2  340   0.162   1.583   1.340
  106SOL     OW  341   0.367   1.100   0.501
  106SOL    HW1  342   0.360   1.183   0.445
  106SOL    HW2  343   0.371   1.020   0.441
  107SOL     OW  344   0.566   0.537   0.865
  107SOL    HW1  345   0.578   0.603   0.791
  107SOL    HW2  346   0.612   0.571   0.948
  108SOL     OW  347   1.252   1.348   0.388
  108SOL    HW1  348   1.302   1.425   0.428
  108SOL    HW2  349   1.157   1.350   0.420
  109SOL     OW  350   1.272   1.445   1.142
  109SOL    HW1  351   1.319   1.458   1.229
  109SOL    HW2  352   1.206   1.371   1.151
  110SOL     OW  353   1.582   0.639   0.472
  110SOL    HW1  354   1.551   0.700   0.545
  110SOL    HW2  355   1.632   0.691   0.403
  111SOL     OW  356   0.354   1.510   1.329
  111SOL    HW1  357   0.333   1.466   1.242
  111SOL    HW2  358   0.451   1.536   1.332
  112SOL     OW  359   0.402   0.751   1.598
  112SOL    HW1  360   0.470   0.806   1.551
  112SOL    HW2  361   0.442   0.663   1.625
  113SOL     OW  362   1.587   0.779   1.670
  113SOL    HW1  363   1.495   0.817   1.665
  113SOL    HW2  364   1.647   0.826   1.605
  114SOL     OW  365   1.013   0.105   1.770
  114SOL    HW1  366   1.019   0.190   1.718
  114SOL    HW2  367   1.045   0.029   1.713
  115SOL     OW  368   0.504   0.050   1.740
  115SOL    HW1  369   0.462  -0.007   1.670
  115SOL    HW2  370   0.438   0.119   1.772
  116SOL     OW  371   0.573   0.870   1.029
  116SOL    HW1  372   0.617   0.959   1.020
  116SOL    HW2  373   0.510   0.870   1.106
  117SOL     OW  374   1.360   0.862   1.045
  117SOL    HW1  375   1.285   0.862   0.979
  117SOL    HW2  376   1.397   0.770   1.054
  118SOL     OW  377   1.209   0.525   0.275
  118SOL    HW1  378   1.222   0.441   0.329
  118SOL    HW2  379   1.180   0.599   0.335
  119SOL     OW  380   0.307   0.213   1.231
  119SOL    HW1  381   0.284   0.250   1.321
  119SOL    HW2  382   0.277   0.118   1.225
  120SOL     OW  383   0.037   1.310   1.282
  120SOL    HW1  384   0.090   1.261   1.350
  120SOL    HW2  385   0.059   1.408   1.287
  121SOL     OW  386   0.732   0.634   1.064
  121SOL    HW1  387   0.791   0.608   0.988
  121SOL    HW2  388   0.704   0.730   1.053
  122SOL     OW  389   1.728   0.935   1.854
  122SOL    HW1  390   1.682   0.928   1.765
  122SOL    HW2  391   1.666   0.979   1.920
  123SOL     OW  392   0.307   0.063   0.618
  123SOL    HW1  393   0.296   0.157   0.651
  123SOL    HW2  394   0.302   0.000   0.695
  124SOL     OW  395   1.622   0.367   0.374
  124SOL    HW1  396   1.624   0.291   0.438
  124SOL    HW2  397   1.574   0.444   0.414
  125SOL     OW  398   1.023   0.766   0.966
  125SOL    HW1  399   1.038   0.787   1.062
  125SOL    HW2  400   0.993   0.671   0.957
  126SOL     OW  401   0.980   1.573   1.700
  126SOL    HW1  402   0.960   1.617   1.612
  126SOL    HW2  403   1.019   1.482   1.684
  127SOL     OW  404   1.859   1.518   1.605
  127SOL    HW1  405   1.873   1.545   1.510
  127SOL    HW2  406   1.942   1.540   1.658
  128SOL     OW  407   0.350   0.898   1.804
  128SOL    HW1  408   0.426   0.942   1.852
  128SOL    HW2  409   0.385   0.851   1.722
  129SOL     OW  410   1.540   0.274   0.125
  129SOL    HW1  411   1.479   0.199   0.148
  129SOL    HW2  412   1.562   0.326   0.208
  130SOL     OW  413   1.303   0.838   0.042
  130SOL    HW1  414   1.337   0.745   0.057
  130SOL    HW2  415   1.321   0.865  -0.053
  131SOL     OW  416   1.068   1.333   0.849
  131SOL    HW1  417   1.075   1.249   0.794
  131SOL    HW2  418   1.130   1.402   0.813
  132SOL     OW  419   0.319   0.810   0.949
  132SOL    HW1  420   0.412   0.846   0.954
  132SOL    HW2  421   0.313   0.725   1.001
  133SOL     OW  422   0.339   0.509   1.006
  133SOL    HW1  423   0.287   0.426   0.989
  133SOL    HW2  424   0.416   0.514   0.942
  134SOL     OW  425   1.138   0.380   1.678
  134SOL    HW1  426   1.093   0.443   1.742
  134SOL    HW2  427   1.231   0.411   1.661
  135SOL     OW  428   1.160   0.207   1.477
  135SOL    HW1  429   1.160   0.271   1.554
  135SOL    HW2  430   1.188   0.255   1.394
  136SOL     OW  431   0.008   1.326   0.200
  136SOL    HW1  432  -0.085   1.347   0.169
  136SOL    HW2  433   0.018   1.227   0.213
  137SOL     OW  434   0.088   1.801   0.927
  137SOL    HW1  435   0.046   1.715   0.900
  137SOL    HW2  436   0.182   1.804   0.893
  138SOL     OW  437   0.504   1.568   0.910
  138SOL    HW1  438   0.570   1.642   0.919
  138SOL    HW2  439   0.548   1.489   0.868
  139SOL     OW  440   1.002   0.796   1.238
  139SOL    HW1  441   1.043   0.764   1.324
  139SOL    HW2  442   0.906   0.769   1.235
  140SOL     OW  443   0.040   0.544   1.114
  140SOL    HW1  444   0.125   0.511   1.073
  140SOL    HW2  445   0.053   0.559   1.212
  141SOL     OW  446   0.189   0.520   1.722
  141SOL    HW1  447   0.248   0.480   1.652
  141SOL    HW2  448   0.131   0.591   1.681
  142SOL     OW  449   1.369   0.950   1.660
  142SOL    HW1  450   1.408   1.039   1.680
  142SOL    HW2  451   1.379   0.930   1.563
  143SOL     OW  452   0.815   0.572   0.325
  143SOL    HW1  453   0.822   0.483   0.279
  143SOL    HW2  454   0.721   0.606   0.317
  144SOL     OW  455   1.657   0.604   1.206
  144SOL    HW1  456   1.619   0.535   1.268
  144SOL    HW2  457   1.739   0.568   1.162
  145SOL     OW  458   0.252   1.564   1.744
  145SOL    HW1  459   0.222   1.621   1.820
  145SOL    HW2  460   0.245   1.467   1.770
  146SOL     OW  461   0.671   0.464   1.269
  146SOL    HW1  462   0.637   0.375   1.239
  146SOL    HW2  463   0.697   0.518   1.189
  147SOL     OW  464   0.930   1.678   1.465
  147SOL    HW1  465   0.906   1.660   1.370
  147SOL    HW2  466   0.960   1.772   1.475
  148SOL     OW  467   0.473   0.500   0.191
  148SOL    HW1  468   0.534   0.580   0.195
  148SOL    HW2  469   0.378   0.531   0.198
  149SOL     OW  470   0.159   1.137   1.466
  149SOL    HW1  471   0.181   1.076   1.542
  149SOL    HW2  472   0.169   1.088   1.380
  150SOL     OW  473   1.347   1.059   1.234
  150SOL    HW1  474   1.371   0.996   1.160
  150SOL    HW2  475   1.257   1.099   1.216
  151SOL     OW  476   1.302   0.855   0.309
  151SOL    HW1  477   1.216   0.824   0.351
  151SOL    HW2  478   1.298   0.841   0.210
  152SOL     OW  479   1.759   1.747   1.154
  152SOL    HW1  480   1.820   1.777   1.081
  152SOL    HW2  481   1.721   1.658   1.132
  153SOL     OW  482   1.252   1.731   1.128
  153SOL    HW1  483   1.336   1.736   1.074
  153SOL    HW2  484   1.229   1.635   1.146
  154SOL     OW  485   0.083   1.258   1.022
  154SOL    HW1  486   0.078   1.257   1.122
  154SOL    HW2  487   0.000   1.217   0.984
  155SOL     OW  488   0.688   1.662   1.716
  155SOL    HW1  489   0.632   1.743   1.725
  155SOL    HW2  490   0.740   1.666   1.630
  156SOL     OW  491   0.903   0.086   0.133
  156SOL    HW1  492   0.954   0.087   0.047
  156SOL    HW2  493   0.959   0.044   0.204
  157SOL     OW  494   1.726   0.135   0.523
  157SOL    HW1  495   1.799   0.118   0.456
  157SOL    HW2  496   1.695   0.048   0.561
  158SOL     OW  497   1.388   1.573   0.477
  158SOL    HW1  498   1.455   1.585   0.403
  158SOL    HW2  499   1.348   1.662   0.500
  159SOL     OW  500   0.130   1.794   1.851
  159SOL    HW1  501   0.089   1.720   1.904
  159SOL    HW2  502   0.194   1.845   1.909
  160SOL     OW  503   1.280   0.927   0.672
  160SOL    HW1  504   1.340   0.846   0.674
  160SOL    HW2  505   1.320   0.996   0.612
  161SOL     OW  506   0.830   1.273   1.422
  161SOL    HW1  507   0.825   1.306   1.517
  161SOL    HW2  508   0.744   1.292   1.376
  162SOL     OW  509   0.672   1.616   0.154
  162SOL    HW1  510   0.681   1.626   0.055
  162SOL    HW2  511   0.632   1.527   0.175
  163SOL     OW  512   1.650   1.720   1.394
  163SOL    HW1  513   1.703   1.730   1.310
  163SOL    HW2  514   1.623   1.810   1.428
  164SOL     OW  515   1.841   0.175   0.963
  164SOL    HW1  516   1.880   0.090   0.927
  164SOL    HW2  517   1.743   0.177   0.944
  165SOL     OW  518   0.263   0.326   0.720
  165SOL    HW1  519   0.184   0.377   0.686
  165SOL    HW2  520   0.254   0.311   0.818
  166SOL     OW  521   1.194   1.612   0.031
  166SOL    HW1  522   1.200   1.519   0.068
  166SOL    HW2  523   1.135   1.612  -0.049
  167SOL     OW  524   0.822   1.002   1.372
  167SOL    HW1  525   0.862   1.001   1.280
  167SOL    HW2  526   0.832   1.094   1.412
  168SOL     OW  527   0.916   0.910   0.291
  168SOL    HW1  528   0.979   0.948   0.223
  168SOL    HW2  529   0.956   0.827   0.330
  169SOL     OW  530   1.504   1.607   0.044
  169SOL    HW1  531   1.412   1.644   0.051
  169SOL    HW2  532   1.542   1.627  -0.046
  170SOL     OW  533   0.372   1.288   1.490
  170SOL    HW1  534   0.359   1.381   1.456
  170SOL    HW2  535   0.288   1.236   1.477
  171SOL     OW  536   1.614   1.292   1.289
  171SOL    HW1  537   1.674   1.295   1.369
  171SOL    HW2  538   1.539   1.356   1.302
  172SOL     OW  539   1.039   1.098   0.696
  172SOL    HW1  540   0.969   1.051   0.750
  172SOL    HW2  541   1.098   1.030   0.653
  173SOL     OW  542   1.014   0.236   0.971
  173SOL    HW1  543   1.006   0.200   0.878
  173SOL    HW2  544   1.012   0.160   1.036
  174SOL     OW  545   0.590   1.487   0.491
  174SOL    HW1  546   0.632   1.429   0.421
  174SOL    HW2  547   0.546   1.566   0.447
  175SOL     OW  548   1.709   0.385   1.381
  175SOL    HW1  549   1.782   0.454   1.385
  175SOL    HW2  550   1.737   0.310   1.322
  176SOL     OW  551   0.255   1.348   0.290
  176SOL    HW1  552   0.159   1.349   0.263
  176SOL    HW2  553   0.267   1.401   0.374
  177SOL     OW  554   0.105   1.013   1.726
  177SOL    HW1  555   0.028   0.980   1.780
  177SOL    HW2  556   0.190   0.983   1.768
  178SOL     OW  557   0.672   0.203   1.489
  178SOL    HW1  558   0.762   0.187   1.449
  178SOL    HW2  559   0.680   0.208   1.588
  179SOL     OW  560   0.075   0.345   0.033
  179SOL    HW1  561  -0.017   0.317   0.004
  179SOL    HW2  562   0.106   0.422  -0.023
  180SOL     OW  563   1.440   0.856   1.398
  180SOL    HW1  564   1.383   0.908   1.335
  180SOL    HW2  565   1.536   0.868   1.374
  181SOL     OW  566   0.072   0.166   0.318
  181SOL    HW1  567   0.055   0.249   0.264
  181SOL    HW2  568   0.162   0.129   0.296
  182SOL     OW  569   1.183   1.335   0.119
  182SOL    HW1  570   1.084   1.324   0.121
  182SOL    HW2  571   1.217   1.350   0.212
  183SOL     OW  572   0.613   0.842   1.431
  183SOL    HW1  573   0.669   0.923   1.414
  183SOL    HW2  574   0.672   0.762   1.434
  184SOL     OW  575   1.493   1.767   0.959
  184SOL    HW1  576   1.526   1.831   0.890
  184SOL    HW2  577   1.559   1.761   1.034
  185SOL     OW  578   0.716   0.565   1.708
  185SOL    HW1  579   0.735   0.630   1.782
  185SOL    HW2  580   0.776   0.485   1.717
  186SOL     OW  581   1.450   1.220   1.633
  186SOL    HW1  582   1.441   1.210   1.732
  186SOL    HW2  583   1.546   1.213   1.607
  187SOL     OW  584   0.390   1.741   1.560
  187SOL    HW1  585   0.299   1.782   1.558
  187SOL    HW2  586   0.383   1.647   1.592
  188SOL     OW  587   1.674   0.883   1.254
  188SOL    HW1  588   1.647   0.794   1.217
  188SOL    HW2  589   1.675   0.951   1.181
  189SOL     OW  590   1.225   0.325   0.449
  189SOL    HW1  591   1.290   0.251   0.438
  189SOL    HW2  592   1.245   0.375   0.533
  190SOL     OW  593   0.594   0.745   0.652
  190SOL    HW1  594   0.644   0.830   0.633
  190SOL    HW2  595   0.506   0.747   0.604
  191SOL     OW  596   1.777   0.342   1.642
  191SOL    HW1  597   1.760   0.373   1.548
  191SOL    HW2  598   1.693   0.305   1.680
  192SOL     OW  599   1.730   0.934   1.517
  192SOL    HW1  600   1.768   1.025   1.532
  192SOL    HW2  601   1.722   0.917   1.418
  193SOL     OW  602   0.859   1.374   0.016
  193SOL    HW1  603   0.813   1.389   0.104
  193SOL    HW2  604   0.903   1.459  -0.014
  194SOL     OW  605   0.661   1.790   0.953
  194SOL    HW1  606   0.615   1.878   0.940
  194SOL    HW2  607   0.760   1.802   0.946
  195SOL     OW  608   0.859   0.956   0.861
  195SOL    HW1  609   0.913   0.887   0.909
  195SOL    HW2  610   0.827   1.025   0.927
  196SOL     OW  611   1.083   0.984   0.087
  196SOL    HW1  612   1.060   1.037   0.005
  196SOL    HW2  613   1.164   0.928   0.068
  197SOL     OW  614   1.861   1.569   0.851
  197SOL    HW1  615   1.790   1.557   0.781
  197SOL    HW2  616   1.862   1.490   0.911
  198SOL     OW  617   0.221   1.314   1.844
  198SOL    HW1  618   0.156   1.241   1.823
  198SOL    HW2  619   0.225   1.328   1.942
  199SOL     OW  620   0.079   1.240   0.653
  199SOL    HW1  621   0.078   1.193   0.741
  199SOL    HW2  622   0.161   1.212   0.602
  200SOL     OW  623   0.672   1.391   1.624
  200SOL    HW1  624   0.594   1.341   1.662
  200SOL    HW2  625   0.669   1.486   1.655
  201SOL     OW  626   1.824   0.192   1.227
  201SOL    HW1  627   1.820   0.102   1.271
  201SOL    HW2  628   1.827   0.181   1.128
  202SOL     OW  629   0.428   0.424   0.520
  202SOL    HW1  630   0.458   0.352   0.458
  202SOL    HW2  631   0.389   0.384   0.603
  203SOL     OW  632   1.705   1.487   1.104
  203SOL    HW1  633   1.612   1.462   1.077
  203SOL    HW2  634   1.731   1.437   1.186
  204SOL     OW  635   0.317   0.547   1.280
  204SOL    HW1  636   0.355   0.488   1.352
  204SOL    HW2  637   0.357   0.521   1.192
  205SOL     OW  638   0.812   1.586   0.687
  205SOL    HW1  639   0.844   1.596   0.593
  205SOL    HW2  640   0.733   1.524   0.689
  206SOL     OW  641   1.424   0.214   1.112
  206SOL    HW1  642   1.476   0.149   1.167
  206SOL    HW2  643   1.375   0.277   1.173
  207SOL     OW  644   1.001   0.034   1.154
  207SOL    HW1  645   0.938  -0.038   1.123
  207SOL    HW2  646   1.094  -0.002   1.154
  208SOL     OW  647   0.770   1.330   0.301
  208SOL    HW1  648   0.724   1.243   0.318
  208SOL    HW2  649   0.861   1.327   0.342
  209SOL     OW  650   0.618   1.567   1.284
  209SOL    HW1  651   0.613   1.649   1.341
  209SOL    HW2  652   0.707   1.564   1.239
  210SOL     OW  653   1.352   0.052   0.168
  210SOL    HW1  654   1.387   0.011   0.084
  210SOL    HW2  655   1.262   0.014   0.188
  211SOL     OW  656   1.300   0.453   0.691
  211SOL    HW1  657   1.241   0.533   0.695
  211SOL    HW2  658   1.315   0.418   0.784
  212SOL     OW  659   1.593   0.221   0.882
  212SOL    HW1  660   1.509   0.220   0.936
  212SOL    HW2  661   1.595   0.304   0.826
  213SOL     OW  662   0.039   1.077   0.300
  213SOL    HW1  663   0.138   1.066   0.291
  213SOL    HW2  664  -0.001   0.991   0.332
  214SOL     OW  665   0.875   1.646   0.337
  214SOL    HW1  666   0.798   1.611   0.283
  214SOL    HW2  667   0.843   1.717   0.399
  215SOL     OW  668   0.230   0.628   1.975
  215SOL    HW1  669   0.137   0.626   2.012
  215SOL    HW2  670   0.231   0.589   1.883
  216SOL     OW  671   0.225   0.275   2.858
  216SOL    HW1  672   0.260   0.258   2.950
  216SOL    HW2  673   0.137   0.230   2.846
  217SOL     OW  674   0.019   0.368   2.509
  217SOL    HW1  675  -0.063   0.411   2.548
  217SOL    HW2  676  -0.009   0.295   2.446
  218SOL     OW  677   0.569   1.275   3.027
  218SOL    HW1  678   0.476   1.268   2.990
  218SOL    HW2  679   0.580   1.364   3.071
  219SOL     OW  680   1.555   1.511   2.565
  219SOL    HW1  681   1.498   1.495   2.646
  219SOL    HW2  682   1.496   1.521   2.485
  220SOL     OW  683   1.135   0.703   2.579
  220SOL    HW1  684   1.192   0.781   2.554
  220SOL    HW2  685   1.075   0.729   2.655
  221SOL     OW  686   1.755   0.607   2.093
  221SOL    HW1  687   1.743   0.594   1.994
  221SOL    HW2  688   1.725   0.526   2.142
  222SOL     OW  689   0.768   1.144   2.885
  222SOL    HW1  690   0.690   1.161   2.945
  222SOL    HW2  691   0.802   1.231   2.849
  223SOL     OW  692   0.850   0.798   3.685
  223SOL    HW1  693   0.846   0.874   3.750
  223SOL    HW2  694   0.872   0.834   3.594
  224SOL     OW  695   0.685   1.012   2.527
  224SOL    HW1  696   0.754   0.996   2.597
  224SOL    HW2  697   0.612   1.069   2.565
  225SOL     OW  698   0.686   1.161   3.665
  225SOL    HW1  699   0.746   1.240   3.679
  225SOL    HW2  700   0.600   1.192   3.624
  226SOL     OW  701   0.335   1.435   2.923
  226SOL    HW1  702   0.257   1.404   2.870
  226SOL    HW2  703   0.393   1.493   2.866
  227SOL     OW  704   1.460   1.505   3.201
  227SOL    HW1  705   1.484   1.599   3.227
  227SOL    HW2  706   1.444   1.451   3.283
  228SOL     OW  707   0.438   0.392   3.361
  228SOL    HW1  708   0.520   0.336   3.370
  228SOL    HW2  709   0.357   0.334   3.365
  229SOL     OW  710   1.603   0.447   2.599
  229SOL    HW1  711   1.529   0.493   2.549
  229SOL    HW2  712   1.654   0.515   2.652
  230SOL     OW  713   0.231   1.713   2.345
  230SOL    HW1  714   0.265   1.790   2.399
  230SOL    HW2  715   0.275   1.713   2.255
  231SOL     OW  716   1.127   1.341   3.552
  231SOL    HW1  717   1.174   1.341   3.640
  231SOL    HW2  718   1.079   1.254   3.541
  232SOL     OW  719   0.230   1.434   2.400
  232SOL    HW1  720   0.204   1.530   2.400
  232SOL    HW2  721   0.159   1.380   2.445
  233SOL     OW  722   0.240   1.091   2.748
  233SOL    HW1  723   0.254   1.007   2.800
  233SOL    HW2  724   0.185   1.155   2.803
  234SOL     OW  725   0.620   1.786   3.301
  234SOL    HW1  726   0.528   1.769   3.336
  234SOL    HW2  727   0.648   1.878   3.327
  235SOL     OW  728   0.606   0.964   1.985
  235SOL    HW1  729   0.613   1.048   1.931
  235SOL    HW2  730   0.652   0.977   2.073
  236SOL     OW  731   1.594   0.114   3.342
  236SOL    HW1  732   1.576   0.181   3.270
  236SOL    HW2  733   1.591   0.160   3.431
  237SOL     OW  734   0.122   0.643   2.425
  237SOL    HW1  735   0.077   0.555   2.442
  237SOL    HW2  736   0.121   0.697   2.509
  238SOL     OW  737   1.842   1.767   2.221
  238SOL    HW1  738   1.896   1.738   2.301
  238SOL    HW2  739   1.872   1.857   2.192
  239SOL     OW  740   0.027   1.596   1.979
  239SOL    HW1  741   0.008   1.500   2.000
  239SOL    HW2  742  -0.006   1.654   2.054
  240SOL     OW  743   1.689   0.922   2.474
  240SOL    HW1  744   1.784   0.893   2.482
  240SOL    HW2  745   1.681   0.987   2.399
  241SOL     OW  746   1.641   1.108   2.294
  241SOL    HW1  747   1.727   1.110   2.242
  241SOL    HW2  748   1.655   1.155   2.382
  242SOL     OW  749   0.113   0.737   3.459
  242SOL    HW1  750   0.201   0.724   3.504
  242SOL    HW2  751   0.100   0.834   3.437
  243SOL     OW  752   0.613   1.365   2.588
  243SOL    HW1  753   0.564   1.278   2.597
  243SOL    HW2  754   0.590   1.408   2.501
  244SOL     OW  755   1.293   1.228   3.285
  244SOL    HW1  756   1.330   1.155   3.227
  244SOL    HW2  757   1.345   1.233   3.370
  245SOL     OW  758   0.809   0.004   2.364
  245SOL    HW1  759   0.849   0.095   2.355
  245SOL    HW2  760   0.709   0.012   2.370
  246SOL     OW  761   0.197   0.976   3.126
  246SOL    HW1  762   0.286   0.931   3.112
  246SOL    HW2  763   0.124   0.911   3.107
  247SOL     OW  764   1.525   0.999   2.052
  247SOL    HW1  765   1.462   0.923   2.065
  247SOL    HW2  766   1.573   1.017   2.138
  248SOL     OW  767   1.187   1.792   3.478
  248SOL    HW1  768   1.211   1.852   3.402
  248SOL    HW2  769   1.194   1.697   3.448
  249SOL     OW  770   0.317   0.251   3.663
  249SOL    HW1  771   0.388   0.322   3.669
  249SOL    HW2  772   0.229   0.290   3.691
  250SOL     OW  773   1.466   1.417   2.815
  250SOL    HW1  774   1.407   1.423   2.895
  250SOL    HW2  775   1.451   1.329   2.769
  251SOL     OW  776   1.667   1.714   2.434
  251SOL    HW1  777   1.626   1.691   2.346
  251SOL    HW2  778   1.649   1.640   2.499
  252SOL     OW  779   0.598   0.729   2.132
  252SOL    HW1  780   0.622   0.798   2.064
  252SOL    HW2  781   0.520   0.762   2.186
  253SOL     OW  782   1.281   0.345   2.806
  253SOL    HW1  783   1.195   0.295   2.793
  253SOL    HW2  784   1.343   0.291   2.862
  254SOL     OW  785   1.576   1.662   2.169
  254SOL    HW1  786   1.665   1.708   2.172
  254SOL    HW2  787   1.555   1.638   2.074
  255SOL     OW  788   0.807   0.605   3.327
  255SOL    HW1  789   0.760   0.602   3.416
  255SOL    HW2  790   0.756   0.550   3.261
  256SOL     OW  791   1.394   0.469   3.536
  256SOL    HW1  792   1.374   0.512   3.624
  256SOL    HW2  793   1.472   0.407   3.545
  257SOL     OW  794   0.973   0.890   3.434
  257SOL    HW1  795   1.019   0.806   3.405
  257SOL    HW2  796   0.917   0.924   3.359
  258SOL     OW  797   0.991   0.410   3.104
  258SOL    HW1  798   0.914   0.444   3.158
  258SOL    HW2  799   0.957   0.359   3.025
  259SOL     OW  800   1.041   0.701   2.291
  259SOL    HW1  801   1.067   0.697   2.387
  259SOL    HW2  802   0.956   0.650   2.277
  260SOL     OW  803   0.076   0.811   2.651
  260SOL    HW1  804   0.175   0.799   2.660
  260SOL    HW2  805   0.052   0.906   2.672
  261SOL     OW  806   0.130   1.821   3.433
  261SOL    HW1  807   0.120   1.806   3.532
  261SOL    HW2  808   0.044   1.857   3.397
  262SOL     OW  809   0.865   0.348   2.057
  262SOL    HW1  810   0.924   0.411   2.008
  262SOL    HW2  811   0.884   0.254   2.028
  263SOL     OW  812   1.719   0.585   3.693
  263SOL    HW1  813   1.693   0.674   3.657
  263SOL    HW2  814   1.717   0.517   3.620
  264SOL     OW  815   1.362   1.144   2.407
  264SOL    HW1  816   1.445   1.115   2.359
  264SOL    HW2  817   1.313   1.211   2.351
  265SOL     OW  818   0.550   0.196   2.747
  265SOL    HW1  819   0.545   0.191   2.847
  265SOL    HW2  820   0.552   0.292   2.718
  266SOL     OW  821   1.008   1.456   2.339
  266SOL    HW1  822   0.962   1.528   2.287
  266SOL    HW2  823   1.004   1.476   2.437
  267SOL     OW  824   0.351   1.801   2.715
  267SOL    HW1  825   0.401   1.715   2.721
  267SOL    HW2  826   0.416   1.878   2.712
  268SOL     OW  827   1.795   1.066   2.735
  268SOL    HW1  828   1.733   1.051   2.659
  268SOL    HW2  829   1.743   1.077   2.820
  269SOL     OW  830   1.227   1.550   3.368
  269SOL    HW1  831   1.233   1.473   3.432
  269SOL    HW2  832   1.175   1.524   3.288
  270SOL     OW  833   0.321   0.943   2.104
  270SOL    HW1  834   0.403   0.982   2.062
  270SOL    HW2  835   0.294   0.861   2.055
  271SOL     OW  836   1.458   0.735   2.590
  271SOL    HW1  837   1.453   0.670   2.665
  271SOL    HW2  838   1.538   0.794   2.603
  272SOL     OW  839   0.461   1.266   3.589
  272SOL    HW1  840   0.411   1.267   3.503
  272SOL    HW2  841   0.398   1.248   3.665
  273SOL     OW  842   1.111   1.776   2.099
  273SOL    HW1  843   1.051   1.714   2.149
  273SOL    HW2  844   1.142   1.732   2.014
  274SOL     OW  845   0.202   0.285   3.360
  274SOL    HW1  846   0.122   0.345   3.347
  274SOL    HW2  847   0.192   0.236   3.446
  275SOL     OW  848   1.632   1.377   1.943
  275SOL    HW1  849   1.600   1.471   1.933
  275SOL    HW2  850   1.556   1.314   1.931
  276SOL     OW  851   0.464   1.743   2.185
  276SOL    HW1  852   0.497   1.782   2.271
  276SOL    HW2  853   0.540   1.736   2.120
  277SOL     OW  854   1.400   0.107   2.288
  277SOL    HW1  855   1.376   0.070   2.198
  277SOL    HW2  856   1.499   0.123   2.292
  278SOL     OW  857   0.249   1.785   3.103
  278SOL    HW1  858   0.306   1.720   3.153
  278SOL    HW2  859   0.233   1.752   3.010
  279SOL     OW  860   0.940   1.698   2.766
  279SOL    HW1  861   1.020   1.641   2.787
  279SOL    HW2  862   0.891   1.658   2.689
  280SOL     OW  863   0.382   0.700   2.342
  280SOL    HW1  864   0.427   0.610   2.339
  280SOL    HW2  865   0.288   0.689   2.375
  281SOL     OW  866   1.547   0.222   3.591
  281SOL    HW1  867   1.542   0.259   3.683
  281SOL    HW2  868   1.475   0.153   3.579
  282SOL     OW  869   0.614   0.122   1.979
  282SOL    HW1  870   0.712   0.100   1.986
  282SOL    HW2  871   0.583   0.105   1.886
  283SOL     OW  872   0.781   0.264   3.611
  283SOL    HW1  873   0.848   0.203   3.654
  283SOL    HW2  874   0.708   0.283   3.676
  284SOL     OW  875   0.888   1.514   3.057
  284SOL    HW1  876   0.865   1.489   2.963
  284SOL    HW2  877   0.949   1.445   3.096
  285SOL     OW  878   1.351   0.590   3.295
  285SOL    HW1  879   1.379   0.547   3.380
  285SOL    HW2  880   1.376   0.686   3.296
  286SOL     OW  881   0.803   1.402   2.786
  286SOL    HW1  882   0.893   1.416   2.744
  286SOL    HW2  883   0.732   1.404   2.715
  287SOL     OW  884   0.922   0.503   2.761
  287SOL    HW1  885   0.897   0.494   2.665
  287SOL    HW2  886   0.970   0.421   2.792
  288SOL     OW  887   0.539   0.064   2.374
  288SOL    HW1  888   0.458   0.065   2.432
  288SOL    HW2  889   0.542   0.147   2.319
  289SOL     OW  890   1.434   1.188   1.903
  289SOL    HW1  891   1.466   1.112   1.960
  289SOL    HW2  892   1.342   1.215   1.933
  290SOL     OW  893   0.297   0.035   2.033
  290SOL    HW1  894   0.346   0.119   2.012
  290SOL    HW2  895   0.359  -0.030   2.078
  291SOL     OW  896   0.935   0.236   2.342
  291SOL    HW1  897   0.887   0.277   2.264
  291SOL    HW2  898   1.034   0.234   2.323
  292SOL     OW  899   1.076   0.683   3.326
  292SOL    HW1  900   0.996   0.622   3.329
  292SOL    HW2  901   1.157   0.630   3.302
  293SOL     OW  902   1.227   1.570   2.655
  293SOL    HW1  903   1.248   1.644   2.590
  293SOL    HW2  904   1.295   1.570   2.728
  294SOL     OW  905   0.459   1.152   2.603
  294SOL    HW1  906   0.388   1.125   2.668
  294SOL    HW2  907   0.433   1.124   2.510
  295SOL     OW  908   1.271   1.797   2.453
  295SOL    HW1  909   1.315   1.861   2.389
  295SOL    HW2  910   1.221   1.849   2.523
  296SOL     OW  911   1.032   0.549   1.878
  296SOL    HW1  912   0.991   0.631   1.839
  296SOL    HW2  913   1.096   0.575   1.951
  297SOL     OW  914   0.078   0.556   3.248
  297SOL    HW1  915   0.170   0.555   3.207
  297SOL    HW2  916   0.072   0.630   3.315
  298SOL     OW  917   0.561   0.222   3.009
  298SOL    HW1  918   0.599   0.138   3.046
  298SOL    HW2  919   0.473   0.241   3.053
  299SOL     OW  920   0.866   0.454   2.504
  299SOL    HW1  921   0.834   0.526   2.442
  299SOL    HW2  922   0.890   0.373   2.451
  300SOL     OW  923   1.017   0.039   2.615
  300SOL    HW1  924   0.945   0.044   2.546
  300SOL    HW2  925   0.993  -0.030   2.684
  301SOL     OW  926   1.429   1.173   2.729
  301SOL    HW1  927   1.374   1.089   2.722
  301SOL    HW2  928   1.455   1.202   2.637
  302SOL     OW  929   1.466   0.590   2.854
  302SOL    HW1  930   1.436   0.495   2.861
  302SOL    HW2  931   1.539   0.606   2.920
  303SOL     OW  932   1.857   0.833   2.239
  303SOL    HW1  933   1.899   0.769   2.303
  303SOL    HW2  934   1.819   0.782   2.161
  304SOL     OW  935   0.488   1.385   2.036
  304SOL    HW1  936   0.401   1.370   2.083
  304SOL    HW2  937   0.471   1.411   1.941
  305SOL     OW  938   1.664   1.280   2.519
  305SOL    HW1  939   1.763   1.288   2.533
  305SOL    HW2  940   1.619   1.364   2.550
  306SOL     OW  941   1.390   0.575   1.940
  306SOL    HW1  942   1.336   0.554   2.021
  306SOL    HW2  943   1.481   0.534   1.949
  307SOL     OW  944   0.527   0.256   2.190
  307SOL    HW1  945   0.554   0.197   2.115
  307SOL    HW2  946   0.527   0.351   2.159
  308SOL     OW  947   1.754   1.223   3.450
  308SOL    HW1  948   1.845   1.184   3.437
  308SOL    HW2  949   1.762   1.319   3.474
  309SOL     OW  950   1.064   1.347   3.202
  309SOL    HW1  951   0.984   1.324   3.257
  309SOL    HW2  952   1.147   1.321   3.251
  310SOL     OW  953   1.592   1.629   3.487
  310SOL    HW1  954   1.619   1.663   3.397
  310SOL    HW2  955   1.671   1.591   3.533
  311SOL     OW  956   1.111   1.195   2.962
  311SOL    HW1  957   1.071   1.239   3.043
  311SOL    HW2  958   1.070   1.232   2.879
  312SOL     OW  959   1.638   1.099   2.941
  312SOL    HW1  960   1.643   1.180   3.000
  312SOL    HW2  961   1.552   1.101   2.890
  313SOL     OW  962   0.915   0.089   3.264
  313SOL    HW1  963   0.940   0.069   3.169
  313SOL    HW2  964   0.987   0.145   3.306
  314SOL     OW  965   0.980   1.116   3.581
  314SOL    HW1  966   0.881   1.122   3.591
  314SOL    HW2  967   1.003   1.036   3.525
  315SOL     OW  968   0.705   1.050   2.230
  315SOL    HW1  969   0.691   1.057   2.329
  315SOL    HW2  970   0.789   0.999   2.212
  316SOL     OW  971   0.410   0.813   3.113
  316SOL    HW1  972   0.496   0.825   3.163
  316SOL    HW2  973   0.368   0.726   3.140
  317SOL     OW  974   1.274   0.386   3.124
  317SOL    HW1  975   1.295   0.460   3.188
  317SOL    HW2  976   1.185   0.403   3.081
  318SOL     OW  977   0.064   1.564   3.193
  318SOL    HW1  978   0.018   1.646   3.159
  318SOL    HW2  979   0.162   1.583   3.202
  319SOL     OW  980   0.367   1.100   2.363
  319SOL    HW1  981   0.360   1.183   2.307
  319SOL    HW2  982   0.371   1.020   2.303
  320SOL     OW  983   0.566   0.537   2.727
  320SOL    HW1  984   0.578   0.603   2.653
  320SOL    HW2  985   0.612   0.571   2.810
  321SOL     OW  986   1.252   1.348   2.250
  321SOL    HW1  987   1.302   1.425   2.290
  321SOL    HW2  988   1.157   1.350   2.282
  322SOL     OW  989   1.272   1.445   3.004
  322SOL    HW1  990   1.319   1.458   3.091
  322SOL    HW2  991   1.206   1.371   3.013
  323SOL     OW  992   1.582   0.639   2.334
  323SOL    HW1  993   1.551   0.700   2.407
  323SOL    HW2  994   1.632   0.691   2.265
  324SOL     OW  995   0.354   1.510   3.191
  324SOL    HW1  996   0.333   1.466   3.104
  324SOL    HW2  997   0.451   1.536   3.194
  325SOL     OW  998   0.402   0.751   3.460
  325SOL    HW1  999   0.470   0.806   3.413
  325SOL    HW2 1000   0.442   0.663   3.487
  326SOL     OW 1001   1.587   0.779   3.532
  326SOL    HW1 1002   1.495   0.817   3.527
  326SOL    HW2 1003   1.647   0.826   3.467
  327SOL     OW 1004   1.013   0.105   3.632
  327SOL    HW1 1005   1.019   0.190   3.580
  327SOL    HW2 1006   1.045   0.029   3.575
  328SOL     OW 1007   0.504   0.050   3.602
  328SOL    HW1 1008   0.462  -0.007   3.532
  328SOL    HW2 1009   0.438   0.119   3.634
  329SOL     OW 1010   0.573   0.870   2.891
  329SOL    HW1 1011   0.617   0.959   2.882
  329SOL    HW2 1012   0.510   0.870   2.968
  330SOL     OW 1013   1.360   0.862   2.907
  330SOL    HW1 1014   1.285   0.862   2.841
  330SOL    HW2 1015   1.397   0.770   2.916
  331SOL     OW 1016   1.209   0.525   2.137
  331SOL    HW1 1017   1.222   0.441   2.191
  331SOL    HW2 1018   1.180   0.599   2.197
  332SOL     OW 1019   0.307   0.213   3.093
  332SOL    HW1 1020   0.284   0.250   3.183
  332SOL    HW2 1021   0.277   0.118   3.087
  333SOL     OW 1022   0.037   1.310   3.144
  333SOL    HW1 1023   0.090   1.261   3.212
  333SOL    HW2 1024   0.059   1.408   3.149
  334SOL     OW 1025   0.732   0.634   2.926
  334SOL    HW1 1026   0.791   0.608   2.850
  334SOL    HW2 1027   0.704   0.730   2.915
  335SOL     OW 1028   1.728   0.935   3.716
  335SOL    HW1 1029   1.682   0.928   3.627
  335SOL    HW2 1030   1.666   0.979   3.782
  336SOL     OW 1031   0.307   0.063   2.480
  336SOL    HW1 1032   0.296   0.157   2.513
  336SOL    HW2 1033   0.302   0.000   2.557
  337SOL     OW 1034   1.622   0.367   2.236
  337SOL    HW1 1035   1.624   0.291   2.300
  337SOL    HW2 1036   1.574   0.444   2.276
  338SOL     OW 1037   1.023   0.766   2.828
  338SOL    HW1 1038   1.038   0.787   2.924
  338SOL    HW2 1039   0.993   0.671   2.819
  339SOL     OW 1040   0.980   1.573   3.562
  339SOL    HW1 1041   0.960   1.617   3.474
  339SOL    HW2 1042   1.019   1.482   3.546
  340SOL     OW 1043   1.859   1.518   3.467
  340SOL    HW1 1044   1.873   1.545   3.372
  340SOL    HW2 1045   1.942   1.540   3.520
  341SOL     OW 1046   0.350   0.898   3.666
  341SOL    HW1 1047   0.426   0.942   3.714
  341SOL    HW2 1048   0.385   0.851   3.584
  342SOL     OW 1049   1.540   0.274   1.987
  342SOL    HW1 1050   1.479   0.199   2.010
  342SOL    HW2 1051   1.562   0.326   2.070
  343SOL     OW 1052   1.303   0.838   1.904
  343SOL    HW1 1053   1.337   0.745   1.919
  343SOL    HW2 1054   1.321   0.865   1.809
  344SOL     OW 1055   1.068   1.333   2.711
  344SOL    HW1 1056   1.075   1.249   2.656
  344SOL    HW2 1057   1.130   1.402   2.675
  345SOL     OW 1058   0.319   0.810   2.811
  345SOL    HW1 1059   0.412   0.846   2.816
  345SOL    HW2 1060   0.313   0.725   2.863
  346SOL     OW 1061   0.339   0.509   2.868
  346SOL    HW1 1062   0.287   0.426   2.851
  346SOL    HW2 1063   0.416   0.514   2.804
  347SOL     OW 1064   1.138   0.380   3.540
  347SOL    HW1 1065   1.093   0.443   3.604
  347SOL    HW2 1066   1.231   0.411   3.523
  348SOL     OW 1067   1.160   0.207   3.339
  348SOL    HW1 1068   1.160   0.271   3.416
  348SOL    HW2 1069   1.188   0.255   3.256
  349SOL     OW 1070   0.008   1.326   2.062
  349SOL    HW1 1071  -0.085   1.347   2.031
  349SOL    HW2 1072   0.018   1.227   2.075
  350SOL     OW 1073   0.088   1.801   2.789
  350SOL    HW1 1074   0.046   1.715   2.762
  350SOL    HW2 1075   0.182   1.804   2.755
  351SOL     OW 1076   0.504   1.568   2.772
  351SOL    HW1 1077   0.570   1.642   2.781
  351SOL    HW2 1078   0.548   1.489   2.730
  352SOL     OW 1079   1.002   0.796   3.100
  352SOL    HW1 1080   1.043   0.764   3.186
  352SOL    HW2 1081   0.906   0.769   3.097
  353SOL     OW 1082   0.040   0.544   2.976
  353SOL    HW1 1083   0.125   0.511   2.935
  353SOL    HW2 1084   0.053   0.559   3.074
  354SOL     OW 1085   0.189   0.520   3.584
  354SOL    HW1 1086   0.248   0.480   3.514
  354SOL    HW2 1087   0.131   0.591   3.543
  355SOL     OW 1088   1.369   0.950   3.522
  355SOL    HW1 1089   1.408   1.039   3.542
  355SOL    HW2 1090   1.379   0.930   3.425
  356SOL     OW 1091   0.815   0.572   2.187
  356SOL    HW1 1092   0.822   0.483   2.141
  356SOL    HW2 1093   0.721   0.606   2.179
  357SOL     OW 1094   1.657   0.604   3.068
  357SOL    HW1 1095   1.619   0.535   3.130
  357SOL    HW2 1096   1.739   0.568   3.024
  358SOL     OW 1097   0.252   1.564   3.606
  358SOL    HW1 1098   0.222   1.621   3.682
  358SOL    HW2 1099   0.245   1.467   3.632
  359SOL     OW 1100   0.671   0.464   3.131
  359SOL    HW1 1101   0.637   0.375   3.101
  359SOL    HW2 1102   0.697   0.518   3.051
  360SOL     OW 1103   0.930   1.678   3.327
  360SOL    HW1 1104   0.906   1.660   3.232
  360SOL    HW2 1105   0.960   1.772   3.337
  361SOL     OW 1106   0.473   0.500   2.053
  361SOL    HW1 1107   0.534   0.580   2.057
  361SOL    HW2 1108   0.378   0.531   2.060
  362SOL     OW 1109   0.159   1.137   3.328
  362SOL    HW1 1110   0.181   1.076   3.404
  362SOL    HW2 1111   0.169   1.088   3.242
  363SOL     OW 1112   1.347   1.059   3.096
  363SOL    HW1 1113   1.371   0.996   3.022
  363SOL    HW2 1114   1.257   1.099   3.078
  364SOL     OW 1115   1.302   0.855   2.171
  364SOL    HW1 1116   1.216   0.824   2.213
  364SOL    HW2 1117   1.298   0.841   2.072
  365SOL     OW 1118   1.759   1.747   3.016
  365SOL    HW1 1119   1.820   1.777   2.943
  365SOL    HW2 1120   1.721   1.658   2.994
  366SOL     OW 1121   1.252   1.731   2.990
  366SOL    HW1 1122   1.336   1.736   2.936
  366SOL    HW2 1123   1.229   1.635   3.008
  367SOL     OW 1124   0.083   1.258   2.884
  367SOL    HW1 1125   0.078   1.257   2.984
  367SOL    HW2 1126   0.000   1.217   2.846
  368SOL     OW 1127   0.688   1.662   3.578
  368SOL    HW1 1128   0.632   1.743   3.587
  368SOL    HW2 1129   0.740   1.666   3.492
  369SOL     OW 1130   1.726   0.135   2.385
  369SOL    HW1 1131   1.799   0.118   2.318
  369SOL    HW2 1132   1.695   0.048   2.423
  370SOL     OW 1133   1.388   1.573   2.339
  370SOL    HW1 1134   1.455   1.585   2.265
  370SOL    HW2 1135   1.348   1.662   2.362
  371SOL     OW 1136   0.130   1.794   3.713
  371SOL    HW1 1137   0.089   1.720   3.766
  371SOL    HW2 1138   0.194   1.845   3.771
  372SOL     OW 1139   1.280   0.927   2.534
  372SOL    HW1 1140   1.340   0.846   2.536
  372SOL    HW2 1141   1.320   0.996   2.474
  373SOL     OW 1142   0.830   1.273   3.284
  373SOL    HW1 1143   0.825   1.306   3.379
  373SOL    HW2 1144   0.744   1.292   3.238
  374SOL     OW 1145   0.672   1.616   2.016
  374SOL    HW1 1146   0.681   1.626   1.917
  374SOL    HW2 1147   0.632   1.527   2.037
  375SOL     OW 1148   1.650   1.720   3.256
  375SOL    HW1 1149   1.703   1.730   3.172
  375SOL    HW2 1150   1.623   1.810   3.290
  376SOL     OW 1151   1.841   0.175   2.825
  376SOL    HW1 1152   1.880   0.090   2.789
  376SOL    HW2 1153   1.743   0.177   2.806
  377SOL     OW 1154   0.263   0.326   2.582
  377SOL    HW1 1155   0.184   0.377   2.548
  377SOL    HW2 1156   0.254   0.311   2.680
  378SOL     OW 1157   1.194   1.612   1.893
  378SOL    HW1 1158   1.200   1.519   1.930
  378SOL    HW2 1159   1.135   1.612   1.813
  379SOL     OW 1160   0.822   1.002   3.234
  379SOL    HW1 1161   0.862   1.001   3.142
  379SOL    HW2 1162   0.832   1.094   3.274
  380SOL     OW 1163   0.916   0.910   2.153
  380SOL    HW1 1164   0.979   0.948   2.085
  380SOL    HW2 1165   0.956   0.827   2.192
  381SOL     OW 1166   1.504   1.607   1.906
  381SOL    HW1 1167   1.412   1.644   1.913
  381SOL    HW2 1168   1.542   1.627   1.816
  382SOL     OW 1169   0.372   1.288   3.352
  382SOL    HW1 1170   0.359   1.381   3.318
  382SOL    HW2 1171   0.288   1.236   3.339
  383SOL     OW 1172   1.614   1.292   3.151
  383SOL    HW1 1173   1.674   1.295   3.231
  383SOL    HW2 1174   1.539   1.356   3.164
  384SOL     OW 1175   1.039   1.098   2.558
  384SOL    HW1 1176   0.969   1.051   2.612
  384SOL    HW2 1177   1.098   1.030   2.515
  385SOL     OW 1178   1.014   0.236   2.833
  385SOL    HW1 1179   1.006   0.200   2.740
  385SOL    HW2 1180   1.012   0.160   2.898
  386SOL     OW 1181   0.590   1.487   2.353
  386SOL    HW1 1182   0.632   1.429   2.283
  386SOL    HW2 1183   0.546   1.566   2.309
  387SOL     OW 1184   1.709   0.385   3.243
  387SOL    HW1 1185   1.782   0.454   3.247
  387SOL    HW2 1186   1.737   0.310   3.184
  388SOL     OW 1187   0.255   1.348   2.152
  388SOL    HW1 1188   0.159   1.349   2.125
  388SOL    HW2 1189   0.267   1.401   2.236
  389SOL     OW 1190   0.105   1.013   3.588
  389SOL    HW1 1191   0.028   0.980   3.642
  389SOL    HW2 1192   0.190   0.983   3.630
  390SOL     OW 1193   0.672   0.203   3.351
  390SOL    HW1 1194   0.762   0.187   3.311
  390SOL    HW2 1195   0.680   0.208   3.450
  391SOL     OW 1196   0.075   0.345   1.895
  391SOL    HW1 1197  -0.017   0.317   1.866
  391SOL    HW2 1198   0.106   0.422   1.839
  392SOL     OW 1199   1.440   0.856   3.260
  392SOL    HW1 1200   1.383   0.908   3.197
  392SOL    HW2 1201   1.536   0.868   3.236
  393SOL     OW 1202   0.072   0.166   2.180
  393SOL    HW1 1203   0.055   0.249   2.126
  393SOL    HW2 1204   0.162   0.129   2.158
  394SOL     OW 1205   1.183   1.335   1.981
  394SOL    HW1 1206   1.084   1.324   1.983
  394SOL    HW2 1207   1.217   1.350   2.074
  395SOL     OW 1208   0.613   0.842   3.293
  395SOL    HW1 1209   0.669   0.923   3.276
  395SOL    HW2 1210   0.672   0.762   3.296
  396SOL     OW 1211   1.493   1.767   2.821
  396SOL    HW1 1212   1.526   1.831   2.752
  396SOL    HW2 1213   1.559   1.761   2.896
  397SOL     OW 1214   0.716   0.565   3.570
  397SOL    HW1 1215   0.735   0.630   3.644
  397SOL    HW2 1216   0.776   0.485   3.579
  398SOL     OW 1217   1.450   1.220   3.495
  398SOL    HW1 1218   1.441   1.210   3.594
  398SOL    HW2 1219   1.546   1.213   3.469
  399SOL     OW 1220   0.390   1.741   3.422
  399SOL    HW1 1221   0.299   1.782   3.420
  399SOL    HW2 1222   0.383   1.647   3.454
  400SOL     OW 1223   1.674   0.883   3.116
  400SOL    HW1 1224   1.647   0.794   3.079
  400SOL    HW2 1225   1.675   0.951   3.043
  401SOL     OW 1226   1.225   0.325   2.311
  401SOL    HW1 1227   1.290   0.251   2.300
  401SOL    HW2 1228   1.245   0.375   2.395
  402SOL     OW 1229   0.594   0.745   2.514
  402SOL    HW1 1230   0.644   0.830   2.495
  402SOL    HW2 1231   0.506   0.747   2.466
  403SOL     OW 1232   1.777   0.342   3.504
  403SOL    HW1 1233   1.760   0.373   3.410
  403SOL    HW2 1234   1.693   0.305   3.542
  404SOL     OW 1235   1.730   0.934   3.379
  404SOL    HW1 1236   1.768   1.025   3.394
  404SOL    HW2 1237   1.722   0.917   3.280
  405SOL     OW 1238   0.859   1.374   1.878
  405SOL    HW1 1239   0.813   1.389   1.966
  405SOL    HW2 1240   0.903   1.459   1.848
  406SOL     OW 1241   0.661   1.790   2.815
  406SOL    HW1 1242   0.615   1.878   2.802
  406SOL    HW2 1243   0.760   1.802   2.808
  407SOL     OW 1244   0.859   0.956   2.723
  407SOL    HW1 1245   0.913   0.887   2.771
  407SOL    HW2 1246   0.827   1.025   2.789
  408SOL     OW 1247   1.083   0.984   1.949
  408SOL    HW1 1248   1.060   1.037   1.867
  408SOL    HW2 1249   1.164   0.928   1.930
  409SOL     OW 1250   1.861   1.569   2.713
  409SOL    HW1 1251   1.790   1.557   2.643
  409SOL    HW2 1252   1.862   1.490   2.773
  410SOL     OW 1253   0.221   1.314   3.706
  410SOL    HW1 1254   0.156   1.241   3.685
  410SOL    HW2 1255   0.225   1.328   3.804
  411SOL     OW 1256   0.079   1.240   2.515
  411SOL    HW1 1257   0.078   1.193   2.603
  411SOL    HW2 1258   0.161   1.212   2.464
  412SOL     OW 1259   0.672   1.391   3.486
  412SOL    HW1 1260   0.594   1.341   3.524
  412SOL    HW2 1261   0.669   1.486   3.517
  413SOL     OW 1262   1.824   0.192   3.089
  413SOL    HW1 1263   1.820   0.102   3.133
  413SOL    HW2 1264   1.827   0.181   2.990
  414SOL     OW 1265   0.428   0.424   2.382
  414SOL    HW1 1266   0.458   0.352   2.320
  414SOL    HW2 1267   0.389   0.384   2.465
  415SOL     OW 1268   1.705   1.487   2.966
  415SOL    HW1 1269   1.612   1.462   2.939
  415SOL    HW2 1270   1.731   1.437   3.048
  416SOL     OW 1271   0.317   0.547   3.142
  416SOL    HW1 1272   0.355   0.488   3.214
  416SOL    HW2 1273   0.357   0.521   3.054
  417SOL     OW 1274   0.812   1.586   2.549
  417SOL    HW1 1275   0.844   1.596   2.455
  417SOL    HW2 1276   0.733   1.524   2.551
  418SOL     OW 1277   1.424   0.214   2.974
  418SOL    HW1 1278   1.476   0.149   3.029
  418SOL    HW2 1279   1.375   0.277   3.035
  419SOL     OW 1280   1.001   0.034   3.016
  419SOL    HW1 1281   0.938  -0.038   2.985
  419SOL    HW2 1282   1.094  -0.002   3.016
  420SOL     OW 1283   0.770   1.330   2.163
  420SOL    HW1 1284   0.724   1.243   2.180
  420SOL    HW2 1285   0.861   1.327   2.204
  421SOL     OW 1286   0.618   1.567   3.146
  421SOL    HW1 1287   0.613   1.649   3.203
  421SOL    HW2 1288   0.707   1.564   3.101
  422SOL     OW 1289   1.352   0.052   2.030
  422SOL    HW1 1290   1.387   0.011   1.946
  422SOL    HW2 1291   1.262   0.014   2.050
  423SOL     OW 1292   1.300   0.453   2.553
  423SOL    HW1 1293   1.241   0.533   2.557
  423SOL    HW2 1294   1.315   0.418   2.646
  424SOL     OW 1295   1.593   0.221   2.744
  424SOL    HW1 1296   1.509   0.220   2.798
  424SOL    HW2 1297   1.595   0.304   2.688
  425SOL     OW 1298   0.039   1.077   2.162
  425SOL    HW1 1299   0.138   1.066   2.153
  425SOL    HW2 1300  -0.001   0.991   2.194
  426SOL     OW 1301   0.875   1.646   2.199
  426SOL    HW1 1302   0.798   1.611   2.145
  426SOL    HW2 1303   0.843   1.717   2.261
  427SOL     OW 1304   0.230   0.628   3.837
  427SOL    HW1 1305   0.137   0.626   3.874
  427SOL    HW2 1306   0.231   0.589   3.745
  428SOL     OW 1307   0.225   0.275   4.720
  428SOL    HW1 1308   0.260   0.258   4.812
  428SOL    HW2 1309   0.137   0.230   4.708
  429SOL     OW 1310   0.019   0.368   4.371
  429SOL    HW1 1311  -0.063   0.411   4.410
  429SOL    HW2 1312  -0.009   0.295   4.308
  430SOL     OW 1313   0.569   1.275   4.889
  430SOL    HW1 1314   0.476   1.268   4.852
  430SOL    HW2 1315   0.580   1.364   4.933
  431SOL     OW 1316   1.555   1.511   4.427
  431SOL    HW1 1317   1.498   1.495   4.508
  431SOL    HW2 1318   1.496   1.521   4.347
  432SOL     OW 1319   1.135   0.703   4.441
  432SOL    HW1 1320   1.192   0.781   4.416
  432SOL    HW2 1321   1.075   0.729   4.517
  433SOL     OW 1322   1.755   0.607   3.955
  433SOL    HW1 1323   1.743   0.594   3.856
  433SOL    HW2 1324   1.725   0.526   4.004
  434SOL     OW 1325   0.768   1.144   4.747
  434SOL    HW1 1326   0.690   1.161   4.807
  434SOL    HW2 1327   0.802   1.231   4.711
  435SOL     OW 1328   0.685   1.012   4.389
  435SOL    HW1 1329   0.754   0.996   4.459
  435SOL    HW2 1330   0.612   1.069   4.427
  436SOL     OW 1331   0.335   1.435   4.785
  436SOL    HW1 1332   0.257   1.404   4.732
  436SOL    HW2 1333   0.393   1.493   4.728
  437SOL     OW 1334   0.438   0.392   5.223
  437SOL    HW1 1335   0.520   0.336   5.232
  437SOL    HW2 1336   0.357   0.334   5.227
  438SOL     OW 1337   1.603   0.447   4.461
  438SOL    HW1 1338   1.529   0.493   4.411
  438SOL    HW2 1339   1.654   0.515   4.514
  439SOL     OW 1340   0.231   1.713   4.207
  439SOL    HW1 1341   0.265   1.790   4.261
  439SOL    HW2 1342   0.275   1.713   4.117
  440SOL     OW 1343   0.230   1.434   4.262
  440SOL    HW1 1344   0.204   1.530   4.262
  440SOL    HW2 1345   0.159   1.380   4.307
  441SOL     OW 1346   0.240   1.091   4.610
  441SOL    HW1 1347   0.254   1.007   4.662
  441SOL    HW2 1348   0.185   1.155   4.665
  442SOL     OW 1349   0.620   1.786   5.163
  442SOL    HW1 1350   0.528   1.769   5.198
  442SOL    HW2 1351   0.648   1.878   5.189
  443SOL     OW 1352   0.606   0.964   3.847
  443SOL    HW1 1353   0.613   1.048   3.793
  443SOL    HW2 1354   0.652   0.977   3.935
  444SOL     OW 1355   0.122   0.643   4.287
  444SOL    HW1 1356   0.077   0.555   4.304
  444SOL    HW2 1357   0.121   0.697   4.371
  445SOL     OW 1358   1.842   1.767   4.083
  445SOL    HW1 1359   1.896   1.738   4.163
  445SOL    HW2 1360   1.872   1.857   4.054
  446SOL     OW 1361   0.027   1.596   3.841
  446SOL    HW1 1362   0.008   1.500   3.862
  446SOL    HW2 1363  -0.006   1.654   3.916
  447SOL     OW 1364   1.689   0.922   4.336
  447SOL    HW1 1365   1.784   0.893   4.344
  447SOL    HW2 1366   1.681   0.987   4.261
  448SOL     OW 1367   1.641   1.108   4.156
  448SOL    HW1 1368   1.727   1.110   4.104
  448SOL    HW2 1369   1.655   1.155   4.244
  449SOL     OW 1370   0.613   1.365   4.450
  449SOL    HW1 1371   0.564   1.278   4.459
  449SOL    HW2 1372   0.590   1.408   4.363
  450SOL     OW 1373   0.809   0.004   4.226
  450SOL    HW1 1374   0.849   0.095   4.217
  450SOL    HW2 1375   0.709   0.012   4.232
  451SOL     OW 1376   0.197   0.976   4.988
  451SOL    HW1 1377   0.286   0.931   4.974
  451SOL    HW2 1378   0.124   0.911   4.969
  452SOL     OW 1379   1.525   0.999   3.914
  452SOL    HW1 1380   1.462   0.923   3.927
  452SOL    HW2 1381   1.573   1.017   4.000
  453SOL     OW 1382   1.466   1.417   4.677
  453SOL    HW1 1383   1.407   1.423   4.757
  453SOL    HW2 1384   1.451   1.329   4.631
  454SOL     OW 1385   1.667   1.714   4.296
  454SOL    HW1 1386   1.626   1.691   4.208
  454SOL    HW2 1387   1.649   1.640   4.361
  455SOL     OW 1388   0.598   0.729   3.994
  455SOL    HW1 1389   0.622   0.798   3.926
  455SOL    HW2 1390   0.520   0.762   4.048
  456SOL     OW 1391   1.281   0.345   4.668
  456SOL    HW1 1392   1.195   0.295   4.655
  456SOL    HW2 1393   1.343   0.291   4.724
  457SOL     OW 1394   1.576   1.662   4.031
  457SOL    HW1 1395   1.665   1.708   4.034
  457SOL    HW2 1396   1.555   1.638   3.936
  458SOL     OW 1397   0.807   0.605   5.189
  458SOL    HW1 1398   0.760   0.602   5.278
  458SOL    HW2 1399   0.756   0.550   5.123
  459SOL     OW 1400   0.991   0.410   4.966
  459SOL    HW1 1401   0.914   0.444   5.020
  459SOL    HW2 1402   0.957   0.359   4.887
  460SOL     OW 1403   1.041   0.701   4.153
  460SOL    HW1 1404   1.067   0.697   4.249
  460SOL    HW2 1405   0.956   0.650   4.139
  461SOL     OW 1406   0.076   0.811   4.513
  461SOL    HW1 1407   0.175   0.799   4.522
  461SOL    HW2 1408   0.052   0.906   4.534
  462SOL     OW 1409   0.130   1.821   5.295
  462SOL    HW1 1410   0.120   1.806   5.394
  462SOL    HW2 1411   0.044   1.857   5.259
  463SOL     OW 1412   0.865   0.348   3.919
  463SOL    HW1 1413   0.924   0.411   3.870
  463SOL    HW2 1414   0.884   0.254   3.890
  464SOL     OW 1415   1.362   1.144   4.269
  464SOL    HW1 1416   1.445   1.115   4.221
  464SOL    HW2 1417   1.313   1.211   4.213
  465SOL     OW 1418   0.550   0.196   4.609
  465SOL    HW1 1419   0.545   0.191   4.709
  465SOL    HW2 1420   0.552   0.292   4.580
  466SOL     OW 1421   1.008   1.456   4.201
  466SOL    HW1 1422   0.962   1.528   4.149
  466SOL    HW2 1423   1.004   1.476   4.299
  467SOL     OW 1424   0.351   1.801   4.577
  467SOL    HW1 1425   0.401   1.715   4.583
  467SOL    HW2 1426   0.416   1.878   4.574
  468SOL     OW 1427   1.795   1.066   4.597
  468SOL    HW1 1428   1.733   1.051   4.521
  468SOL    HW2 1429   1.743   1.077   4.682
  469SOL     OW 1430   0.321   0.943   3.966
  469SOL    HW1 1431   0.403   0.982   3.924
  469SOL    HW2 1432   0.294   0.861   3.917
  470SOL     OW 1433   1.458   0.735   4.452
  470SOL    HW1 1434   1.453   0.670   4.527
  470SOL    HW2 1435   1.538   0.794   4.465
  471SOL     OW 1436   1.111   1.776   3.961
  471SOL    HW1 1437   1.051   1.714   4.011
  471SOL    HW2 1438   1.142   1.732   3.876
  472SOL     OW 1439   1.632   1.377   3.805
  472SOL    HW1 1440   1.600   1.471   3.795
  472SOL    HW2 1441   1.556   1.314   3.793
  473SOL     OW 1442   0.464   1.743   4.047
  473SOL    HW1 1443   0.497   1.782   4.133
  473SOL    HW2 1444   0.540   1.736   3.982
  474SOL     OW 1445   1.400   0.107   4.150
  474SOL    HW1 1446   1.376   0.070   4.060
  474SOL    HW2 1447   1.499   0.123   4.154
  475SOL     OW 1448   0.249   1.785   4.965
  475SOL    HW1 1449   0.306   1.720   5.015
  475SOL    HW2 1450   0.233   1.752   4.872
  476SOL     OW 1451   0.940   1.698   4.628
  476SOL    HW1 1452   1.020   1.641   4.649
  476SOL    HW2 1453   0.891   1.658   4.551
  477SOL     OW 1454   0.382   0.700   4.204
  477SOL    HW1 1455   0.427   0.610   4.201
  477SOL    HW2 1456   0.288   0.689   4.237
  478SOL     OW 1457   0.614   0.122   3.841
  478SOL    HW1 1458   0.712   0.100   3.848
  478SOL    HW2 1459   0.583   0.105   3.748
  479SOL     OW 1460   0.888   1.514   4.919
  479SOL    HW1 1461   0.865   1.489   4.825
  479SOL    HW2 1462   0.949   1.445   4.958
  480SOL     OW 1463   0.803   1.402   4.648
  480SOL    HW1 1464   0.893   1.416   4.606
  480SOL    HW2 1465   0.732   1.404   4.577
  481SOL     OW 1466   0.922   0.503   4.623
  481SOL    HW1 1467   0.897   0.494   4.527
  481SOL    HW2 1468   0.970   0.421   4.654
  482SOL     OW 1469   0.539   0.064   4.236
  482SOL    HW1 1470   0.458   0.065   4.294
  482SOL    HW2 1471   0.542   0.147   4.181
  483SOL     OW 1472   1.434   1.188   3.765
  483SOL    HW1 1473   1.466   1.112   3.822
  483SOL    HW2 1474   1.342   1.215   3.795
  484SOL     OW 1475   0.297   0.035   3.895
  484SOL    HW1 1476   0.346   0.119   3.874
  484SOL    HW2 1477   0.359  -0.030   3.940
  485SOL     OW 1478   0.935   0.236   4.204
  485SOL    HW1 1479   0.887   0.277   4.126
  485SOL    HW2 1480   1.034   0.234   4.185
  486SOL     OW 1481   1.227   1.570   4.517
  486SOL    HW1 1482   1.248   1.644   4.452
  486SOL    HW2 1483   1.295   1.570   4.590
  487SOL     OW 1484   0.459   1.152   4.465
  487SOL    HW1 1485   0.388   1.125   4.530
  487SOL    HW2 1486   0.433   1.124   4.372
  488SOL     OW 1487   1.271   1.797   4.315
  488SOL    HW1 1488   1.315   1.861   4.251
  488SOL    HW2 1489   1.221   1.849   4.385
  489SOL     OW 1490   1.032   0.549   3.740
  489SOL    HW1 1491   0.991   0.631   3.701
  489SOL    HW2 1492   1.096   0.575   3.813
  490SOL     OW 1493   0.561   0.222   4.871
  490SOL    HW1 1494   0.599   0.138   4.908
  490SOL    HW2 1495   0.473   0.241   4.915
  491SOL     OW 1496   0.866   0.454   4.366
  491SOL    HW1 1497   0.834   0.526   4.304
  491SOL    HW2 1498   0.890   0.373   4.313
  492SOL     OW 1499   1.017   0.039   4.477
  492SOL    HW1 1500   0.945   0.044   4.408
  492SOL    HW2 1501   0.993  -0.030   4.546
  493SOL     OW 1502   1.429   1.173   4.591
  493SOL    HW1 1503   1.374   1.089   4.584
  493SOL    HW2 1504   1.455   1.202   4.499
  494SOL     OW 1505   1.466   0.590   4.716
  494SOL    HW1 1506   1.436   0.495   4.723
  494SOL    HW2 1507   1.539   0.606   4.782
  495SOL     OW 1508   1.857   0.833   4.101
  495SOL    HW1 1509   1.899   0.769   4.165
  495SOL    HW2 1510   1.819   0.782   4.023
  496SOL     OW 1511   0.488   1.385   3.898
  496SOL    HW1 1512   0.401   1.370   3.945
  496SOL    HW2 1513   0.471   1.411   3.803
  497SOL     OW 1514   1.664   1.280   4.381
  497SOL    HW1 1515   1.763   1.288   4.395
  497SOL    HW2 1516   1.619   1.364   4.412
  498SOL     OW 1517   1.390   0.575   3.802
  498SOL    HW1 1518   1.336   0.554   3.883
  498SOL    HW2 1519   1.481   0.534   3.811
  499SOL     OW 1520   0.527   0.256   4.052
  499SOL    HW1 1521   0.554   0.197   3.977
  499SOL    HW2 1522   0.527   0.351   4.021
  500SOL     OW 1523   1.754   1.223   5.312
  500SOL    HW1 1524   1.845   1.184   5.299
  500SOL    HW2 1525   1.762   1.319   5.336
  501SOL     OW 1526   1.111   1.195   4.824
  501SOL    HW1 1527   1.071   1.239   4.905
  501SOL    HW2 1528   1.070   1.232   4.741
  502SOL     OW 1529   1.638   1.099   4.803
  502SOL    HW1 1530   1.643   1.180   4.862
  502SOL    HW2 1531   1.552   1.101   4.752
  503SOL     OW 1532   0.705   1.050   4.092
  503SOL    HW1 1533   0.691   1.057   4.191
  503SOL    HW2 1534   0.789   0.999   4.074
  504SOL     OW 1535   0.410   0.813   4.975
  504SOL    HW1 1536   0.496   0.825   5.025
  504SOL    HW2 1537   0.368   0.726   5.002
  505SOL     OW 1538   1.274   0.386   4.986
  505SOL    HW1 1539   1.295   0.460   5.050
  505SOL    HW2 1540   1.185   0.403   4.943
  506SOL     OW 1541   0.064   1.564   5.055
  506SOL    HW1 1542   0.018   1.646   5.021
  506SOL    HW2 1543   0.162   1.583   5.064
  507SOL     OW 1544   0.367   1.100   4.225
  507SOL    HW1 1545   0.360   1.183   4.169
  507SOL    HW2 1546   0.371   1.020   4.165
  508SOL     OW 1547   0.566   0.537   4.589
  508SOL    HW1 1548   0.578   0.603   4.515
  508SOL    HW2 1549   0.612   0.571   4.672
  509SOL     OW 1550   1.252   1.348   4.112
  509SOL    HW1 1551   1.302   1.425   4.152
  509SOL    HW2 1552   1.157   1.350   4.144
  510SOL     OW 1553   1.272   1.445   4.866
  510SOL    HW1 1554   1.319   1.458   4.953
  510SOL    HW2 1555   1.206   1.371   4.875
  511SOL     OW 1556   1.582   0.639   4.196
  511SOL    HW1 1557   1.551   0.700   4.269
  511SOL    HW2 1558   1.632   0.691   4.127
  512SOL     OW 1559   0.354   1.510   5.053
  512SOL    HW1 1560   0.333   1.466   4.966
  512SOL    HW2 1561   0.451   1.536   5.056
  513SOL     OW 1562   0.573   0.870   4.753
  513SOL    HW1 1563   0.617   0.959   4.744
  513SOL    HW2 1564   0.510   0.870   4.830
  514SOL     OW 1565   1.360   0.862   4.769
  514SOL    HW1 1566   1.285   0.862   4.703
  514SOL    HW2 1567   1.397   0.770   4.778
  515SOL     OW 1568   1.209   0.525   3.999
  515SOL    HW1 1569   1.222   0.441   4.053
  515SOL    HW2 1570   1.180   0.599   4.059
  516SOL     OW 1571   0.307   0.213   4.955
  516SOL    HW1 1572   0.284   0.250   5.045
  516SOL    HW2 1573   0.277   0.118   4.949
  517SOL     OW 1574   0.037   1.310   5.006
  517SOL    HW1 1575   0.090   1.261   5.074
  517SOL    HW2 1576   0.059   1.408   5.011
  518SOL     OW 1577   0.732   0.634   4.788
  518SOL    HW1 1578   0.791   0.608   4.712
  518SOL    HW2 1579   0.704   0.730   4.777
  519SOL     OW 1580   0.307   0.063   4.342
  519SOL    HW1 1581   0.296   0.157   4.375
  519SOL    HW2 1582   0.302   0.000   4.419
  520SOL     OW 1583   1.622   0.367   4.098
  520SOL    HW1 1584   1.624   0.291   4.162
  520SOL    HW2 1585   1.574   0.444   4.138
  521SOL     OW 1586   1.023   0.766   4.690
  521SOL    HW1 1587   1.038   0.787   4.786
  521SOL    HW2 1588   0.993   0.671   4.681
  522SOL     OW 1589   1.540   0.274   3.849
  522SOL    HW1 1590   1.479   0.199   3.872
  522SOL    HW2 1591   1.562   0.326   3.932
  523SOL     OW 1592   1.303   0.838   3.766
  523SOL    HW1 1593   1.337   0.745   3.781
  523SOL    HW2 1594   1.321   0.865   3.671
  524SOL     OW 1595   1.068   1.333   4.573
  524SOL    HW1 1596   1.075   1.249   4.518
  524SOL    HW2 1597   1.130   1.402   4.537
  525SOL     OW 1598   0.319   0.810   4.673
  525SOL    HW1 1599   0.412   0.846   4.678
  525SOL    HW2 1600   0.313   0.725   4.725
  526SOL     OW 1601   0.339   0.509   4.730
  526SOL    HW1 1602   0.287   0.426   4.713
  526SOL    HW2 1603   0.416   0.514   4.666
  527SOL     OW 1604   1.160   0.207   5.201
  527SOL    HW1 1605   1.160   0.271   5.278
  527SOL    HW2 1606   1.188   0.255   5.118
  528SOL     OW 1607   0.008   1.326   3.924
  528SOL    HW1 1608  -0.085   1.347   3.893
  528SOL    HW2 1609   0.018   1.227   3.937
  529SOL     OW 1610   0.088   1.801   4.651
  529SOL    HW1 1611   0.046   1.715   4.624
  529SOL    HW2 1612   0.182   1.804   4.617
  530SOL     OW 1613   0.504   1.568   4.634
  530SOL    HW1 1614   0.570   1.642   4.643
  530SOL    HW2 1615   0.548   1.489   4.592
  531SOL     OW 1616   1.002   0.796   4.962
  531SOL    HW1 1617   1.043   0.764   5.048
  531SOL    HW2 1618   0.906   0.769   4.959
  532SOL     OW 1619   0.040   0.544   4.838
  532SOL    HW1 1620   0.125   0.511   4.797
  532SOL    HW2 1621   0.053   0.559   4.936
  533SOL     OW 1622   0.815   0.572   4.049
  533SOL    HW1 1623   0.822   0.483   4.003
  533SOL    HW2 1624   0.721   0.606   4.041
  534SOL     OW 1625   1.657   0.604   4.930
  534SOL    HW1 1626   1.619   0.535   4.992
  534SOL    HW2 1627   1.739   0.568   4.886
  535SOL     OW 1628   0.671   0.464   4.993
  535SOL    HW1 1629   0.637   0.375   4.963
  535SOL    HW2 1630   0.697   0.518   4.913
  536SOL     OW 1631   0.930   1.678   5.189
  536SOL    HW1 1632   0.906   1.660   5.094
  536SOL    HW2 1633   0.960   1.772   5.199
  537SOL     OW 1634   0.473   0.500   3.915
  537SOL    HW1 1635   0.534   0.580   3.919
  537SOL    HW2 1636   0.378   0.531   3.922
  538SOL     OW 1637   0.159   1.137   5.190
  538SOL    HW1 1638   0.181   1.076   5.266
  538SOL    HW2 1639   0.169   1.088   5.104
  539SOL     OW 1640   1.347   1.059   4.958
  539SOL    HW1 1641   1.371   0.996   4.884
  539SOL    HW2 1642   1.257   1.099   4.940
  540SOL     OW 1643   1.302   0.855   4.033
  540SOL    HW1 1644   1.216   0.824   4.075
  540SOL    HW2 1645   1.298   0.841   3.934
  541SOL     OW 1646   1.759   1.747   4.878
  541SOL    HW1 1647   1.820   1.777   4.805
  541SOL    HW2 1648   1.721   1.658   4.856
  542SOL     OW 1649   1.252   1.731   4.852
  542SOL    HW1 1650   1.336   1.736   4.798
  542SOL    HW2 1651   1.229   1.635   4.870
  543SOL     OW 1652   0.083   1.258   4.746
  543SOL    HW1 1653   0.078   1.257   4.846
  543SOL    HW2 1654   0.000   1.217   4.708
  544SOL     OW 1655   1.726   0.135   4.247
  544SOL    HW1 1656   1.799   0.118   4.180
  544SOL    HW2 1657   1.695   0.048   4.285
  545SOL     OW 1658   1.388   1.573   4.201
  545SOL    HW1 1659   1.455   1.585   4.127
  545SOL    HW2 1660   1.348   1.662   4.224
  546SOL     OW 1661   1.280   0.927   4.396
  546SOL    HW1 1662   1.340   0.846   4.398
  546SOL    HW2 1663   1.320   0.996   4.336
  547SOL     OW 1664   0.672   1.616   3.878
  547SOL    HW1 1665   0.681   1.626   3.779
  547SOL    HW2 1666   0.632   1.527   3.899
  548SOL     OW 1667   1.841   0.175   4.687
  548SOL    HW1 1668   1.880   0.090   4.651
  548SOL    HW2 1669   1.743   0.177   4.668
  549SOL     OW 1670   0.263   0.326   4.444
  549SOL    HW1 1671   0.184   0.377   4.410
  549SOL    HW2 1672   0.254   0.311   4.542
  550SOL     OW 1673   1.194   1.612   3.755
  550SOL    HW1 1674   1.200   1.519   3.792
  550SOL    HW2 1675   1.135   1.612   3.675
  551SOL     OW 1676   0.822   1.002   5.096
  551SOL    HW1 1677   0.862   1.001   5.004
  551SOL    HW2 1678   0.832   1.094   5.136
  552SOL     OW 1679   0.916   0.910   4.015
  552SOL    HW1 1680   0.979   0.948   3.947
  552SOL    HW2 1681   0.956   0.827   4.054
  553SOL     OW 1682   1.504   1.607   3.768
  553SOL    HW1 1683   1.412   1.644   3.775
  553SOL    HW2 1684   1.542   1.627   3.678
  554SOL     OW 1685   1.614   1.292   5.013
  554SOL    HW1 1686   1.674   1.295   5.093
  554SOL    HW2 1687   1.539   1.356   5.026
  555SOL     OW 1688   1.039   1.098   4.420
  555SOL    HW1 1689   0.969   1.051   4.474
  555SOL    HW2 1690   1.098   1.030   4.377
  556SOL     OW 1691   1.014   0.236   4.695
  556SOL    HW1 1692   1.006   0.200   4.602
  556SOL    HW2 1693   1.012   0.160   4.760
  557SOL     OW 1694   0.590   1.487   4.215
  557SOL    HW1 1695   0.632   1.429   4.145
  557SOL    HW2 1696   0.546   1.566   4.171
  558SOL     OW 1697   1.709   0.385   5.105
  558SOL    HW1 1698   1.782   0.454   5.109
  558SOL    HW2 1699   1.737   0.310   5.046
  559SOL     OW 1700   0.255   1.348   4.014
  559SOL    HW1 1701   0.159   1.349   3.987
  559SOL    HW2 1702   0.267   1.401   4.098
  560SOL     OW 1703   0.075   0.345   3.757
  560SOL    HW1 1704  -0.017   0.317   3.728
  560SOL    HW2 1705   0.106   0.422   3.701
  561SOL     OW 1706   0.072   0.166   4.042
  561SOL    HW1 1707   0.055   0.249   3.988
  561SOL    HW2 1708   0.162   0.129   4.020
  562SOL     OW 1709   1.183   1.335   3.843
  562SOL    HW1 1710   1.084   1.324   3.845
  562SOL    HW2 1711   1.217   1.350   3.936
  563SOL     OW 1712   0.613   0.842   5.155
  563SOL    HW1 1713   0.669   0.923   5.138
  563SOL    HW2 1714   0.672   0.762   5.158
  564SOL     OW 1715   1.493   1.767   4.683
  564SOL    HW1 1716   1.526   1.831   4.614
  564SOL    HW2 1717   1.559   1.761   4.758
  565SOL     OW 1718   0.390   1.741   5.284
  565SOL    HW1 1719   0.299   1.782   5.282
  565SOL    HW2 1720   0.383   1.647   5.316
  566SOL     OW 1721   1.674   0.883   4.978
  566SOL    HW1 1722   1.647   0.794   4.941
  566SOL    HW2 1723   1.675   0.951   4.905
  567SOL     OW 1724   1.225   0.325   4.173
  567SOL    HW1 1725   1.290   0.251   4.162
  567SOL    HW2 1726   1.245   0.375   4.257
  568SOL     OW 1727   0.594   0.745   4.376
  568SOL    HW1 1728   0.644   0.830   4.357
  568SOL    HW2 1729   0.506   0.747   4.328
  569SOL     OW 1730   1.730   0.934   5.241
  569SOL    HW1 1731   1.768   1.025   5.256
  569SOL    HW2 1732   1.722   0.917   5.142
  570SOL     OW 1733   0.859   1.374   3.740
  570SOL    HW1 1734   0.813   1.389   3.828
  570SOL    HW2 1735   0.903   1.459   3.710
  571SOL     OW 1736   0.661   1.790   4.677
  571SOL    HW1 1737   0.615   1.878   4.664
  571SOL    HW2 1738   0.760   1.802   4.670
  572SOL     OW 1739   0.859   0.956   4.585
  572SOL    HW1 1740   0.913   0.887   4.633
  572SOL    HW2 1741   0.827   1.025   4.651
  573SOL     OW 1742   1.083   0.984   3.811
  573SOL    HW1 1743   1.060   1.037   3.729
  573SOL    HW2 1744   1.164   0.928   3.792
  574SOL     OW 1745   1.861   1.569   4.575
  574SOL    HW1 1746   1.790   1.557   4.505
  574SOL    HW2 1747   1.862   1.490   4.635
  575SOL     OW 1748   0.079   1.240   4.377
  575SOL    HW1 1749   0.078   1.193   4.465
  575SOL    HW2 1750   0.161   1.212   4.326
  576SOL     OW 1751   1.824   0.192   4.951
  576SOL    HW1 1752   1.820   0.102   4.995
  576SOL    HW2 1753   1.827   0.181   4.852
  577SOL     OW 1754   0.428   0.424   4.244
  577SOL    HW1 1755   0.458   0.352   4.182
  577SOL    HW2 1756   0.389   0.384   4.327
  578SOL     OW 1757   1.705   1.487   4.828
  578SOL    HW1 1758   1.612   1.462   4.801
  578SOL    HW2 1759   1.731   1.437   4.910
  579SOL     OW 1760   0.317   0.547   5.004
  579SOL    HW1 1761   0.355   0.488   5.076
  579SOL    HW2 1762   0.357   0.521   4.916
  580SOL     OW 1763   0.812   1.586   4.411
  580SOL    HW1 1764   0.844   1.596   4.317
  580SOL    HW2 1765   0.733   1.524   4.413
  581SOL     OW 1766   1.424   0.214   4.836
  581SOL    HW1 1767   1.476   0.149   4.891
  581SOL    HW2 1768   1.375   0.277   4.897
  582SOL     OW 1769   1.001   0.034   4.878
  582SOL    HW1 1770   0.938  -0.038   4.847
  582SOL    HW2 1771   1.094  -0.002   4.878
  583SOL     OW 1772   0.770   1.330   4.025
  583SOL    HW1 1773   0.724   1.243   4.042
  583SOL    HW2 1774   0.861   1.327   4.066
  584SOL     OW 1775   0.618   1.567   5.008
  584SOL    HW1 1776   0.613   1.649   5.065
  584SOL    HW2 1777   0.707   1.564   4.963
  585SOL     OW 1778   1.352   0.052   3.892
  585SOL    HW1 1779   1.387   0.011   3.808
  585SOL    HW2 1780   1.262   0.014   3.912
  586SOL     OW 1781   1.300   0.453   4.415
  586SOL    HW1 1782   1.241   0.533   4.419
  586SOL    HW2 1783   1.315   0.418   4.508
  587SOL     OW 1784   1.593   0.221   4.606
  587SOL    HW1 1785   1.509   0.220   4.660
  587SOL    HW2 1786   1.595   0.304   4.550
  588SOL     OW 1787   0.039   1.077   4.024
  588SOL    HW1 1788   0.138   1.066   4.015
  588SOL    HW2 1789  -0.001   0.991   4.056
  589SOL     OW 1790   0.875   1.646   4.061
  589SOL    HW1 1791   0.798   1.611   4.007
  589SOL    HW2 1792   0.843   1.717   4.123
  590SOL     OW 1793   0.230   2.490   0.113
  590SOL    HW1 1794   0.137   2.488   0.150
  590SOL    HW2 1795   0.231   2.451   0.021
  591SOL     OW 1796   0.225   2.137   0.996
  591SOL    HW1 1797   0.260   2.120   1.088
  591SOL    HW2 1798   0.137   2.092   0.984
  592SOL     OW 1799   0.019   2.230   0.647
  592SOL    HW1 1800  -0.063   2.273   0.686
  592SOL    HW2 1801  -0.009   2.157   0.584
  593SOL     OW 1802   0.569   3.137   1.165
  593SOL    HW1 1803   0.476   3.130   1.128
  593SOL    HW2 1804   0.580   3.226   1.209
  594SOL     OW 1805   1.555   3.373   0.703
  594SOL    HW1 1806   1.498   3.357   0.784
  594SOL    HW2 1807   1.496   3.383   0.623
  595SOL     OW 1808   1.135   2.565   0.717
  595SOL    HW1 1809   1.192   2.643   0.692
  595SOL    HW2 1810   1.075   2.591   0.793
  596SOL     OW 1811   1.755   2.469   0.231
  596SOL    HW1 1812   1.743   2.456   0.132
  596SOL    HW2 1813   1.725   2.388   0.280
  597SOL     OW 1814   0.768   3.006   1.023
  597SOL    HW1 1815   0.690   3.023   1.083
  597SOL    HW2 1816   0.802   3.093   0.987
  598SOL     OW 1817   0.850   2.660   1.823
  598SOL    HW1 1818   0.846   2.736   1.888
  598SOL    HW2 1819   0.872   2.696   1.732
  599SOL     OW 1820   0.685   2.874   0.665
  599SOL    HW1 1821   0.754   2.858   0.735
  599SOL    HW2 1822   0.612   2.931   0.703
  600SOL     OW 1823   0.686   3.023   1.803
  600SOL    HW1 1824   0.746   3.102   1.817
  600SOL    HW2 1825   0.600   3.054   1.762
  601SOL     OW 1826   0.335   3.297   1.061
  601SOL    HW1 1827   0.257   3.266   1.008
  601SOL    HW2 1828   0.393   3.355   1.004
  602SOL     OW 1829   1.460   3.367   1.339
  602SOL    HW1 1830   1.484   3.461   1.365
  602SOL    HW2 1831   1.444   3.313   1.421
  603SOL     OW 1832   0.438   2.254   1.499
  603SOL    HW1 1833   0.520   2.198   1.508
  603SOL    HW2 1834   0.357   2.196   1.503
  604SOL     OW 1835   1.603   2.309   0.737
  604SOL    HW1 1836   1.529   2.355   0.687
  604SOL    HW2 1837   1.654   2.377   0.790
  605SOL     OW 1838   0.231   3.575   0.483
  605SOL    HW1 1839   0.265   3.652   0.537
  605SOL    HW2 1840   0.275   3.575   0.393
  606SOL     OW 1841   1.127   3.203   1.690
  606SOL    HW1 1842   1.174   3.203   1.778
  606SOL    HW2 1843   1.079   3.116   1.679
  607SOL     OW 1844   0.230   3.296   0.538
  607SOL    HW1 1845   0.204   3.392   0.538
  607SOL    HW2 1846   0.159   3.242   0.583
  608SOL     OW 1847   0.240   2.953   0.886
  608SOL    HW1 1848   0.254   2.869   0.938
  608SOL    HW2 1849   0.185   3.017   0.941
  609SOL     OW 1850   0.620   3.648   1.439
  609SOL    HW1 1851   0.528   3.631   1.474
  609SOL    HW2 1852   0.648   3.740   1.465
  610SOL     OW 1853   0.606   2.826   0.123
  610SOL    HW1 1854   0.613   2.910   0.069
  610SOL    HW2 1855   0.652   2.839   0.211
  611SOL     OW 1856   1.594   1.976   1.480
  611SOL    HW1 1857   1.576   2.043   1.408
  611SOL    HW2 1858   1.591   2.022   1.569
  612SOL     OW 1859   0.122   2.505   0.563
  612SOL    HW1 1860   0.077   2.417   0.580
  612SOL    HW2 1861   0.121   2.559   0.647
  613SOL     OW 1862   1.842   3.629   0.359
  613SOL    HW1 1863   1.896   3.600   0.439
  613SOL    HW2 1864   1.872   3.719   0.330
  614SOL     OW 1865   0.027   3.458   0.117
  614SOL    HW1 1866   0.008   3.362   0.138
  614SOL    HW2 1867  -0.006   3.516   0.192
  615SOL     OW 1868   1.689   2.784   0.612
  615SOL    HW1 1869   1.784   2.755   0.620
  615SOL    HW2 1870   1.681   2.849   0.537
  616SOL     OW 1871   1.641   2.970   0.432
  616SOL    HW1 1872   1.727   2.972   0.380
  616SOL    HW2 1873   1.655   3.017   0.520
  617SOL     OW 1874   0.113   2.599   1.597
  617SOL    HW1 1875   0.201   2.586   1.642
  617SOL    HW2 1876   0.100   2.696   1.575
  618SOL     OW 1877   0.613   3.227   0.726
  618SOL    HW1 1878   0.564   3.140   0.735
  618SOL    HW2 1879   0.590   3.270   0.639
  619SOL     OW 1880   1.293   3.090   1.423
  619SOL    HW1 1881   1.330   3.017   1.365
  619SOL    HW2 1882   1.345   3.095   1.508
  620SOL     OW 1883   0.809   1.866   0.502
  620SOL    HW1 1884   0.849   1.957   0.493
  620SOL    HW2 1885   0.709   1.874   0.508
  621SOL     OW 1886   0.197   2.838   1.264
  621SOL    HW1 1887   0.286   2.793   1.250
  621SOL    HW2 1888   0.124   2.773   1.245
  622SOL     OW 1889   1.525   2.861   0.190
  622SOL    HW1 1890   1.462   2.785   0.203
  622SOL    HW2 1891   1.573   2.879   0.276
  623SOL     OW 1892   1.187   3.654   1.616
  623SOL    HW1 1893   1.211   3.714   1.540
  623SOL    HW2 1894   1.194   3.559   1.586
  624SOL     OW 1895   0.317   2.113   1.801
  624SOL    HW1 1896   0.388   2.184   1.807
  624SOL    HW2 1897   0.229   2.152   1.829
  625SOL     OW 1898   1.466   3.279   0.953
  625SOL    HW1 1899   1.407   3.285   1.033
  625SOL    HW2 1900   1.451   3.191   0.907
  626SOL     OW 1901   1.667   3.576   0.572
  626SOL    HW1 1902   1.626   3.553   0.484
  626SOL    HW2 1903   1.649   3.502   0.637
  627SOL     OW 1904   0.598   2.591   0.270
  627SOL    HW1 1905   0.622   2.660   0.202
  627SOL    HW2 1906   0.520   2.624   0.324
  628SOL     OW 1907   1.281   2.207   0.944
  628SOL    HW1 1908   1.195   2.157   0.931
  628SOL    HW2 1909   1.343   2.153   1.000
  629SOL     OW 1910   1.576   3.524   0.307
  629SOL    HW1 1911   1.665   3.570   0.310
  629SOL    HW2 1912   1.555   3.500   0.212
  630SOL     OW 1913   0.807   2.467   1.465
  630SOL    HW1 1914   0.760   2.464   1.554
  630SOL    HW2 1915   0.756   2.412   1.399
  631SOL     OW 1916   1.394   2.331   1.674
  631SOL    HW1 1917   1.374   2.374   1.762
  631SOL    HW2 1918   1.472   2.269   1.683
  632SOL     OW 1919   0.973   2.752   1.572
  632SOL    HW1 1920   1.019   2.668   1.543
  632SOL    HW2 1921   0.917   2.786   1.497
  633SOL     OW 1922   0.991   2.272   1.242
  633SOL    HW1 1923   0.914   2.306   1.296
  633SOL    HW2 1924   0.957   2.221   1.163
  634SOL     OW 1925   1.041   2.563   0.429
  634SOL    HW1 1926   1.067   2.559   0.525
  634SOL    HW2 1927   0.956   2.512   0.415
  635SOL     OW 1928   0.076   2.673   0.789
  635SOL    HW1 1929   0.175   2.661   0.798
  635SOL    HW2 1930   0.052   2.768   0.810
  636SOL     OW 1931   0.130   3.683   1.571
  636SOL    HW1 1932   0.120   3.668   1.670
  636SOL    HW2 1933   0.044   3.719   1.535
  637SOL     OW 1934   0.865   2.210   0.195
  637SOL    HW1 1935   0.924   2.273   0.146
  637SOL    HW2 1936   0.884   2.116   0.166
  638SOL     OW 1937   1.719   2.447   1.831
  638SOL    HW1 1938   1.693   2.536   1.795
  638SOL    HW2 1939   1.717   2.379   1.758
  639SOL     OW 1940   1.362   3.006   0.545
  639SOL    HW1 1941   1.445   2.977   0.497
  639SOL    HW2 1942   1.313   3.073   0.489
  640SOL     OW 1943   0.550   2.058   0.885
  640SOL    HW1 1944   0.545   2.053   0.985
  640SOL    HW2 1945   0.552   2.154   0.856
  641SOL     OW 1946   1.008   3.318   0.477
  641SOL    HW1 1947   0.962   3.390   0.425
  641SOL    HW2 1948   1.004   3.338   0.575
  642SOL     OW 1949   0.351   3.663   0.853
  642SOL    HW1 1950   0.401   3.577   0.859
  642SOL    HW2 1951   0.416   3.740   0.850
  643SOL     OW 1952   1.795   2.928   0.873
  643SOL    HW1 1953   1.733   2.913   0.797
  643SOL    HW2 1954   1.743   2.939   0.958
  644SOL     OW 1955   1.227   3.412   1.506
  644SOL    HW1 1956   1.233   3.335   1.570
  644SOL    HW2 1957   1.175   3.386   1.426
  645SOL     OW 1958   0.321   2.805   0.242
  645SOL    HW1 1959   0.403   2.844   0.200
  645SOL    HW2 1960   0.294   2.723   0.193
  646SOL     OW 1961   1.458   2.597   0.728
  646SOL    HW1 1962   1.453   2.532   0.803
  646SOL    HW2 1963   1.538   2.656   0.741
  647SOL     OW 1964   0.461   3.128   1.727
  647SOL    HW1 1965   0.411   3.129   1.641
  647SOL    HW2 1966   0.398   3.110   1.803
  648SOL     OW 1967   1.111   3.638   0.237
  648SOL    HW1 1968   1.051   3.576   0.287
  648SOL    HW2 1969   1.142   3.594   0.152
  649SOL     OW 1970   0.202   2.147   1.498
  649SOL    HW1 1971   0.122   2.207   1.485
  649SOL    HW2 1972   0.192   2.098   1.584
  650SOL     OW 1973   1.632   3.239   0.081
  650SOL    HW1 1974   1.600   3.333   0.071
  650SOL    HW2 1975   1.556   3.176   0.069
  651SOL     OW 1976   0.464   3.605   0.323
  651SOL    HW1 1977   0.497   3.644   0.409
  651SOL    HW2 1978   0.540   3.598   0.258
  652SOL     OW 1979   1.400   1.969   0.426
  652SOL    HW1 1980   1.376   1.932   0.336
  652SOL    HW2 1981   1.499   1.985   0.430
  653SOL     OW 1982   0.249   3.647   1.241
  653SOL    HW1 1983   0.306   3.582   1.291
  653SOL    HW2 1984   0.233   3.614   1.148
  654SOL     OW 1985   0.940   3.560   0.904
  654SOL    HW1 1986   1.020   3.503   0.925
  654SOL    HW2 1987   0.891   3.520   0.827
  655SOL     OW 1988   0.382   2.562   0.480
  655SOL    HW1 1989   0.427   2.472   0.477
  655SOL    HW2 1990   0.288   2.551   0.513
  656SOL     OW 1991   1.547   2.084   1.729
  656SOL    HW1 1992   1.542   2.121   1.821
  656SOL    HW2 1993   1.475   2.015   1.717
  657SOL     OW 1994   0.781   2.126   1.749
  657SOL    HW1 1995   0.848   2.065   1.792
  657SOL    HW2 1996   0.708   2.145   1.814
  658SOL     OW 1997   0.888   3.376   1.195
  658SOL    HW1 1998   0.865   3.351   1.101
  658SOL    HW2 1999   0.949   3.307   1.234
  659SOL     OW 2000   1.351   2.452   1.433
  659SOL    HW1 2001   1.379   2.409   1.518
  659SOL    HW2 2002   1.376   2.548   1.434
  660SOL     OW 2003   0.803   3.264   0.924
  660SOL    HW1 2004   0.893   3.278   0.882
  660SOL    HW2 2005   0.732   3.266   0.853
  661SOL     OW 2006   0.922   2.365   0.899
  661SOL    HW1 2007   0.897   2.356   0.803
  661SOL    HW2 2008   0.970   2.283   0.930
  662SOL     OW 2009   0.539   1.926   0.512
  662SOL    HW1 2010   0.458   1.927   0.570
  662SOL    HW2 2011   0.542   2.009   0.457
  663SOL     OW 2012   1.434   3.050   0.041
  663SOL    HW1 2013   1.466   2.974   0.098
  663SOL    HW2 2014   1.342   3.077   0.071
  664SOL     OW 2015   0.935   2.098   0.480
  664SOL    HW1 2016   0.887   2.139   0.402
  664SOL    HW2 2017   1.034   2.096   0.461
  665SOL     OW 2018   1.076   2.545   1.464
  665SOL    HW1 2019   0.996   2.484   1.467
  665SOL    HW2 2020   1.157   2.492   1.440
  666SOL     OW 2021   1.227   3.432   0.793
  666SOL    HW1 2022   1.248   3.506   0.728
  666SOL    HW2 2023   1.295   3.432   0.866
  667SOL     OW 2024   0.459   3.014   0.741
  667SOL    HW1 2025   0.388   2.987   0.806
  667SOL    HW2 2026   0.433   2.986   0.648
  668SOL     OW 2027   1.271   3.659   0.591
  668SOL    HW1 2028   1.315   3.723   0.527
  668SOL    HW2 2029   1.221   3.711   0.661
  669SOL     OW 2030   1.032   2.411   0.016
  669SOL    HW1 2031   0.991   2.493  -0.023
  669SOL    HW2 2032   1.096   2.437   0.089
  670SOL     OW 2033   0.078   2.418   1.386
  670SOL    HW1 2034   0.170   2.417   1.345
  670SOL    HW2 2035   0.072   2.492   1.453
  671SOL     OW 2036   0.561   2.084   1.147
  671SOL    HW1 2037   0.599   2.000   1.184
  671SOL    HW2 2038   0.473   2.103   1.191
  672SOL     OW 2039   0.866   2.316   0.642
  672SOL    HW1 2040   0.834   2.388   0.580
  672SOL    HW2 2041   0.890   2.235   0.589
  673SOL     OW 2042   1.017   1.901   0.753
  673SOL    HW1 2043   0.945   1.906   0.684
  673SOL    HW2 2044   0.993   1.832   0.822
  674SOL     OW 2045   1.429   3.035   0.867
  674SOL    HW1 2046   1.374   2.951   0.860
  674SOL    HW2 2047   1.455   3.064   0.775
  675SOL     OW 2048   1.466   2.452   0.992
  675SOL    HW1 2049   1.436   2.357   0.999
  675SOL    HW2 2050   1.539   2.468   1.058
  676SOL     OW 2051   1.857   2.695   0.377
  676SOL    HW1 2052   1.899   2.631   0.441
  676SOL    HW2 2053   1.819   2.644   0.299
  677SOL     OW 2054   0.488   3.247   0.174
  677SOL    HW1 2055   0.401   3.232   0.221
  677SOL    HW2 2056   0.471   3.273   0.079
  678SOL     OW 2057   1.664   3.142   0.657
  678SOL    HW1 2058   1.763   3.150   0.671
  678SOL    HW2 2059   1.619   3.226   0.688
  679SOL     OW 2060   1.390   2.437   0.078
  679SOL    HW1 2061   1.336   2.416   0.159
  679SOL    HW2 2062   1.481   2.396   0.087
  680SOL     OW 2063   0.527   2.118   0.328
  680SOL    HW1 2064   0.554   2.059   0.253
  680SOL    HW2 2065   0.527   2.213   0.297
  681SOL     OW 2066   1.754   3.085   1.588
  681SOL    HW1 2067   1.845   3.046   1.575
  681SOL    HW2 2068   1.762   3.181   1.612
  682SOL     OW 2069   1.064   3.209   1.340
  682SOL    HW1 2070   0.984   3.186   1.395
  682SOL    HW2 2071   1.147   3.183   1.389
  683SOL     OW 2072   1.592   3.491   1.625
  683SOL    HW1 2073   1.619   3.525   1.535
  683SOL    HW2 2074   1.671   3.453   1.671
  684SOL     OW 2075   1.111   3.057   1.100
  684SOL    HW1 2076   1.071   3.101   1.181
  684SOL    HW2 2077   1.070   3.094   1.017
  685SOL     OW 2078   1.638   2.961   1.079
  685SOL    HW1 2079   1.643   3.042   1.138
  685SOL    HW2 2080   1.552   2.963   1.028
  686SOL     OW 2081   0.915   1.951   1.402
  686SOL    HW1 2082   0.940   1.931   1.307
  686SOL    HW2 2083   0.987   2.007   1.444
  687SOL     OW 2084   0.980   2.978   1.719
  687SOL    HW1 2085   0.881   2.984   1.729
  687SOL    HW2 2086   1.003   2.898   1.663
  688SOL     OW 2087   0.705   2.912   0.368
  688SOL    HW1 2088   0.691   2.919   0.467
  688SOL    HW2 2089   0.789   2.861   0.350
  689SOL     OW 2090   0.410   2.675   1.251
  689SOL    HW1 2091   0.496   2.687   1.301
  689SOL    HW2 2092   0.368   2.588   1.278
  690SOL     OW 2093   1.274   2.248   1.262
  690SOL    HW1 2094   1.295   2.322   1.326
  690SOL    HW2 2095   1.185   2.265   1.219
  691SOL     OW 2096   0.064   3.426   1.331
  691SOL    HW1 2097   0.018   3.508   1.297
  691SOL    HW2 2098   0.162   3.445   1.340
  692SOL     OW 2099   0.367   2.962   0.501
  692SOL    HW1 2100   0.360   3.045   0.445
  692SOL    HW2 2101   0.371   2.882   0.441
  693SOL     OW 2102   0.566   2.399   0.865
  693SOL    HW1 2103   0.578   2.465   0.791
  693SOL    HW2 2104   0.612   2.433   0.948
  694SOL     OW 2105   1.252   3.210   0.388
  694SOL    HW1 2106   1.302   3.287   0.428
  694SOL    HW2 2107   1.157   3.212   0.420
  695SOL     OW 2108   1.272   3.307   1.142
  695SOL    HW1 2109   1.319   3.320   1.229
  695SOL    HW2 2110   1.206   3.233   1.151
  696SOL     OW 2111   1.582   2.501   0.472
  696SOL    HW1 2112   1.551   2.562   0.545
  696SOL    HW2 2113   1.632   2.553   0.403
  697SOL     OW 2114   0.354   3.372   1.329
  697SOL    HW1 2115   0.333   3.328   1.242
  697SOL    HW2 2116   0.451   3.398   1.332
  698SOL     OW 2117   0.402   2.613   1.598
  698SOL    HW1 2118   0.470   2.668   1.551
  698SOL    HW2 2119   0.442   2.525   1.625
  699SOL     OW 2120   1.587   2.641   1.670
  699SOL    HW1 2121   1.495   2.679   1.665
  699SOL    HW2 2122   1.647   2.688   1.605
  700SOL     OW 2123   1.013   1.967   1.770
  700SOL    HW1 2124   1.019   2.052   1.718
  700SOL    HW2 2125   1.045   1.891   1.713
  701SOL     OW 2126   0.504   1.912   1.740
  701SOL    HW1 2127   0.462   1.855   1.670
  701SOL    HW2 2128   0.438   1.981   1.772
  702SOL     OW 2129   0.573   2.732   1.029
  702SOL    HW1 2130   0.617   2.821   1.020
  702SOL    HW2 2131   0.510   2.732   1.106
  703SOL     OW 2132   1.360   2.724   1.045
  703SOL    HW1 2133   1.285   2.724   0.979
  703SOL    HW2 2134   1.397   2.632   1.054
  704SOL     OW 2135   1.209   2.387   0.275
  704SOL    HW1 2136   1.222   2.303   0.329
  704SOL    HW2 2137   1.180   2.461   0.335
  705SOL     OW 2138   0.307   2.075   1.231
  705SOL    HW1 2139   0.284   2.112   1.321
  705SOL    HW2 2140   0.277   1.980   1.225
  706SOL     OW 2141   0.037   3.172   1.282
  706SOL    HW1 2142   0.090   3.123   1.350
  706SOL    HW2 2143   0.059   3.270   1.287
  707SOL     OW 2144   0.732   2.496   1.064
  707SOL    HW1 2145   0.791   2.470   0.988
  707SOL    HW2 2146   0.704   2.592   1.053
  708SOL     OW 2147   1.728   2.797   1.854
  708SOL    HW1 2148   1.682   2.790   1.765
  708SOL    HW2 2149   1.666   2.841   1.920
  709SOL     OW 2150   0.307   1.925   0.618
  709SOL    HW1 2151   0.296   2.019   0.651
  709SOL    HW2 2152   0.302   1.862   0.695
  710SOL     OW 2153   1.622   2.229   0.374
  710SOL    HW1 2154   1.624   2.153   0.438
  710SOL    HW2 2155   1.574   2.306   0.414
  711SOL     OW 2156   1.023   2.628   0.966
  711SOL    HW1 2157   1.038   2.649   1.062
  711SOL    HW2 2158   0.993   2.533   0.957
  712SOL     OW 2159   0.980   3.435   1.700
  712SOL    HW1 2160   0.960   3.479   1.612
  712SOL    HW2 2161   1.019   3.344   1.684
  713SOL     OW 2162   1.859   3.380   1.605
  713SOL    HW1 2163   1.873   3.407   1.510
  713SOL    HW2 2164   1.942   3.402   1.658
  714SOL     OW 2165   0.350   2.760   1.804
  714SOL    HW1 2166   0.426   2.804   1.852
  714SOL    HW2 2167   0.385   2.713   1.722
  715SOL     OW 2168   1.540   2.136   0.125
  715SOL    HW1 2169   1.479   2.061   0.148
  715SOL    HW2 2170   1.562   2.188   0.208
  716SOL     OW 2171   1.303   2.700   0.042
  716SOL    HW1 2172   1.337   2.607   0.057
  716SOL    HW2 2173   1.321   2.727  -0.053
  717SOL     OW 2174   1.068   3.195   0.849
  717SOL    HW1 2175   1.075   3.111   0.794
  717SOL    HW2 2176   1.130   3.264   0.813
  718SOL     OW 2177   0.319   2.672   0.949
  718SOL    HW1 2178   0.412   2.708   0.954
  718SOL    HW2 2179   0.313   2.587   1.001
  719SOL     OW 2180   0.339   2.371   1.006
  719SOL    HW1 2181   0.287   2.288   0.989
  719SOL    HW2 2182   0.416   2.376   0.942
  720SOL     OW 2183   1.138   2.242   1.678
  720SOL    HW1 2184   1.093   2.305   1.742
  720SOL    HW2 2185   1.231   2.273   1.661
  721SOL     OW 2186   1.160   2.069   1.477
  721SOL    HW1 2187   1.160   2.133   1.554
  721SOL    HW2 2188   1.188   2.117   1.394
  722SOL     OW 2189   0.008   3.188   0.200
  722SOL    HW1 2190  -0.085   3.209   0.169
  722SOL    HW2 2191   0.018   3.089   0.213
  723SOL     OW 2192   0.088   3.663   0.927
  723SOL    HW1 2193   0.046   3.577   0.900
  723SOL    HW2 2194   0.182   3.666   0.893
  724SOL     OW 2195   0.504   3.430   0.910
  724SOL    HW1 2196   0.570   3.504   0.919
  724SOL    HW2 2197   0.548   3.351   0.868
  725SOL     OW 2198   1.002   2.658   1.238
  725SOL    HW1 2199   1.043   2.626   1.324
  725SOL    HW2 2200   0.906   2.631   1.235
  726SOL     OW 2201   0.040   2.406   1.114
  726SOL    HW1 2202   0.125   2.373   1.073
  726SOL    HW2 2203   0.053   2.421   1.212
  727SOL     OW 2204   0.189   2.382   1.722
  727SOL    HW1 2205   0.248   2.342   1.652
  727SOL    HW2 2206   0.131   2.453   1.681
  728SOL     OW 2207   1.369   2.812   1.660
  728SOL    HW1 2208   1.408   2.901   1.680
  728SOL    HW2 2209   1.379   2.792   1.563
  729SOL     OW 2210   0.815   2.434   0.325
  729SOL    HW1 2211   0.822   2.345   0.279
  729SOL    HW2 2212   0.721   2.468   0.317
  730SOL     OW 2213   1.657   2.466   1.206
  730SOL    HW1 2214   1.619   2.397   1.268
  730SOL    HW2 2215   1.739   2.430   1.162
  731SOL     OW 2216   0.252   3.426   1.744
  731SOL    HW1 2217   0.222   3.483   1.820
  731SOL    HW2 2218   0.245   3.329   1.770
  732SOL     OW 2219   0.671   2.326   1.269
  732SOL    HW1 2220   0.637   2.237   1.239
  732SOL    HW2 2221   0.697   2.380   1.189
  733SOL     OW 2222   0.930   3.540   1.465
  733SOL    HW1 2223   0.906   3.522   1.370
  733SOL    HW2 2224   0.960   3.634   1.475
  734SOL     OW 2225   0.473   2.362   0.191
  734SOL    HW1 2226   0.534   2.442   0.195
  734SOL    HW2 2227   0.378   2.393   0.198
  735SOL     OW 2228   0.159   2.999   1.466
  735SOL    HW1 2229   0.181   2.938   1.542
  735SOL    HW2 2230   0.169   2.950   1.380
  736SOL     OW 2231   1.347   2.921   1.234
  736SOL    HW1 2232   1.371   2.858   1.160
  736SOL    HW2 2233   1.257   2.961   1.216
  737SOL     OW 2234   1.302   2.717   0.309
  737SOL    HW1 2235   1.216   2.686   0.351
  737SOL    HW2 2236   1.298   2.703   0.210
  738SOL     OW 2237   1.759   3.609   1.154
  738SOL    HW1 2238   1.820   3.639   1.081
  738SOL    HW2 2239   1.721   3.520   1.132
  739SOL     OW 2240   1.252   3.593   1.128
  739SOL    HW1 2241   1.336   3.598   1.074
  739SOL    HW2 2242   1.229   3.497   1.146
  740SOL     OW 2243   0.083   3.120   1.022
  740SOL    HW1 2244   0.078   3.119   1.122
  740SOL    HW2 2245   0.000   3.079   0.984
  741SOL     OW 2246   0.688   3.524   1.716
  741SOL    HW1 2247   0.632   3.605   1.725
  741SOL    HW2 2248   0.740   3.528   1.630
  742SOL     OW 2249   0.903   1.948   0.133
  742SOL    HW1 2250   0.954   1.949   0.047
  742SOL    HW2 2251   0.959   1.906   0.204
  743SOL     OW 2252   1.726   1.997   0.523
  743SOL    HW1 2253   1.799   1.980   0.456
  743SOL    HW2 2254   1.695   1.910   0.561
  744SOL     OW 2255   1.388   3.435   0.477
  744SOL    HW1 2256   1.455   3.447   0.403
  744SOL    HW2 2257   1.348   3.524   0.500
  745SOL     OW 2258   0.130   3.656   1.851
  745SOL    HW1 2259   0.089   3.582   1.904
  745SOL    HW2 2260   0.194   3.707   1.909
  746SOL     OW 2261   1.280   2.789   0.672
  746SOL    HW1 2262   1.340   2.708   0.674
  746SOL    HW2 2263   1.320   2.858   0.612
  747SOL     OW 2264   0.830   3.135   1.422
  747SOL    HW1 2265   0.825   3.168   1.517
  747SOL    HW2 2266   0.744   3.154   1.376
  748SOL     OW 2267   0.672   3.478   0.154
  748SOL    HW1 2268   0.681   3.488   0.055
  748SOL    HW2 2269   0.632   3.389   0.175
  749SOL     OW 2270   1.650   3.582   1.394
  749SOL    HW1 2271   1.703   3.592   1.310
  749SOL    HW2 2272   1.623   3.672   1.428
  750SOL     OW 2273   1.841   2.037   0.963
  750SOL    HW1 2274   1.880   1.952   0.927
  750SOL    HW2 2275   1.743   2.039   0.944
  751SOL     OW 2276   0.263   2.188   0.720
  751SOL    HW1 2277   0.184   2.239   0.686
  751SOL    HW2 2278   0.254   2.173   0.818
  752SOL     OW 2279   1.194   3.474   0.031
  752SOL    HW1 2280   1.200   3.381   0.068
  752SOL    HW2 2281   1.135   3.474  -0.049
  753SOL     OW 2282   0.822   2.864   1.372
  753SOL    HW1 2283   0.862   2.863   1.280
  753SOL    HW2 2284   0.832   2.956   1.412
  754SOL     OW 2285   0.916   2.772   0.291
  754SOL    HW1 2286   0.979   2.810   0.223
  754SOL    HW2 2287   0.956   2.689   0.330
  755SOL     OW 2288   1.504   3.469   0.044
  755SOL    HW1 2289   1.412   3.506   0.051
  755SOL    HW2 2290   1.542   3.489  -0.046
  756SOL     OW 2291   0.372   3.150   1.490
  756SOL    HW1 2292   0.359   3.243   1.456
  756SOL    HW2 2293   0.288   3.098   1.477
  757SOL     OW 2294   1.614   3.154   1.289
  757SOL    HW1 2295   1.674   3.157   1.369
  757SOL    HW2 2296   1.539   3.218   1.302
  758SOL     OW 2297   1.039   2.960   0.696
  758SOL    HW1 2298   0.969   2.913   0.750
  758SOL    HW2 2299   1.098   2.892   0.653
  759SOL     OW 2300   1.014   2.098   0.971
  759SOL    HW1 2301   1.006   2.062   0.878
  759SOL    HW2 2302   1.012   2.022   1.036
  760SOL     OW 2303   0.590   3.349   0.491
  760SOL    HW1 2304   0.632   3.291   0.421
  760SOL    HW2 2305   0.546   3.428   0.447
  761SOL     OW 2306   1.709   2.247   1.381
  761SOL    HW1 2307   1.782   2.316   1.385
  761SOL    HW2 2308   1.737   2.172   1.322
  762SOL     OW 2309   0.255   3.210   0.290
  762SOL    HW1 2310   0.159   3.211   0.263
  762SOL    HW2 2311   0.267   3.263   0.374
  763SOL     OW 2312   0.105   2.875   1.726
  763SOL    HW1 2313   0.028   2.842   1.780
  763SOL    HW2 2314   0.190   2.845   1.768
  764SOL     OW 2315   0.672   2.065   1.489
  764SOL    HW1 2316   0.762   2.049   1.449
  764SOL    HW2 2317   0.680   2.070   1.588
  765SOL     OW 2318   0.075   2.207   0.033
  765SOL    HW1 2319  -0.017   2.179   0.004
  765SOL    HW2 2320   0.106   2.284  -0.023
  766SOL     OW 2321   1.440   2.718   1.398
  766SOL    HW1 2322   1.383   2.770   1.335
  766SOL    HW2 2323   1.536   2.730   1.374
  767SOL     OW 2324   0.072   2.028   0.318
  767SOL    HW1 2325   0.055   2.111   0.264
  767SOL    HW2 2326   0.162   1.991   0.296
  768SOL     OW 2327   1.183   3.197   0.119
  768SOL    HW1 2328   1.084   3.186   0.121
  768SOL    HW2 2329   1.217   3.212   0.212
  769SOL     OW 2330   0.613   2.704   1.431
  769SOL    HW1 2331   0.669   2.785   1.414
  769SOL    HW2 2332   0.672   2.624   1.434
  770SOL     OW 2333   1.493   3.629   0.959
  770SOL    HW1 2334   1.526   3.693   0.890
  770SOL    HW2 2335   1.559   3.623   1.034
  771SOL     OW 2336   0.716   2.427   1.708
  771SOL    HW1 2337   0.735   2.492   1.782
  771SOL    HW2 2338   0.776   2.347   1.717
  772SOL     OW 2339   1.450   3.082   1.633
  772SOL    HW1 2340   1.441   3.072   1.732
  772SOL    HW2 2341   1.546   3.075   1.607
  773SOL     OW 2342   0.390   3.603   1.560
  773SOL    HW1 2343   0.299   3.644   1.558
  773SOL    HW2 2344   0.383   3.509   1.592
  774SOL     OW 2345   1.674   2.745   1.254
  774SOL    HW1 2346   1.647   2.656   1.217
  774SOL    HW2 2347   1.675   2.813   1.181
  775SOL     OW 2348   1.225   2.187   0.449
  775SOL    HW1 2349   1.290   2.113   0.438
  775SOL    HW2 2350   1.245   2.237   0.533
  776SOL     OW 2351   0.594   2.607   0.652
  776SOL    HW1 2352   0.644   2.692   0.633
  776SOL    HW2 2353   0.506   2.609   0.604
  777SOL     OW 2354   1.777   2.204   1.642
  777SOL    HW1 2355   1.760   2.235   1.548
  777SOL    HW2 2356   1.693   2.167   1.680
  778SOL     OW 2357   1.730   2.796   1.517
  778SOL    HW1 2358   1.768   2.887   1.532
  778SOL    HW2 2359   1.722   2.779   1.418
  779SOL     OW 2360   0.859   3.236   0.016
  779SOL    HW1 2361   0.813   3.251   0.104
  779SOL    HW2 2362   0.903   3.321  -0.014
  780SOL     OW 2363   0.661   3.652   0.953
  780SOL    HW1 2364   0.615   3.740   0.940
  780SOL    HW2 2365   0.760   3.664   0.946
  781SOL     OW 2366   0.859   2.818   0.861
  781SOL    HW1 2367   0.913   2.749   0.909
  781SOL    HW2 2368   0.827   2.887   0.927
  782SOL     OW 2369   1.083   2.846   0.087
  782SOL    HW1 2370   1.060   2.899   0.005
  782SOL    HW2 2371   1.164   2.790   0.068
  783SOL     OW 2372   1.861   3.431   0.851
  783SOL    HW1 2373   1.790   3.419   0.781
  783SOL    HW2 2374   1.862   3.352   0.911
  784SOL     OW 2375   0.221   3.176   1.844
  784SOL    HW1 2376   0.156   3.103   1.823
  784SOL    HW2 2377   0.225   3.190   1.942
  785SOL     OW 2378   0.079   3.102   0.653
  785SOL    HW1 2379   0.078   3.055   0.741
  785SOL    HW2 2380   0.161   3.074   0.602
  786SOL     OW 2381   0.672   3.253   1.624
  786SOL    HW1 2382   0.594   3.203   1.662
  786SOL    HW2 2383   0.669   3.348   1.655
  787SOL     OW 2384   1.824   2.054   1.227
  787SOL    HW1 2385   1.820   1.964   1.271
  787SOL    HW2 2386   1.827   2.043   1.128
  788SOL     OW 2387   0.428   2.286   0.520
  788SOL    HW1 2388   0.458   2.214   0.458
  788SOL    HW2 2389   0.389   2.246   0.603
  789SOL     OW 2390   1.705   3.349   1.104
  789SOL    HW1 2391   1.612   3.324   1.077
  789SOL    HW2 2392   1.731   3.299   1.186
  790SOL     OW 2393   0.317   2.409   1.280
  790SOL    HW1 2394   0.355   2.350   1.352
  790SOL    HW2 2395   0.357   2.383   1.192
  791SOL     OW 2396   0.812   3.448   0.687
  791SOL    HW1 2397   0.844   3.458   0.593
  791SOL    HW2 2398   0.733   3.386   0.689
  792SOL     OW 2399   1.424   2.076   1.112
  792SOL    HW1 2400   1.476   2.011   1.167
  792SOL    HW2 2401   1.375   2.139   1.173
  793SOL     OW 2402   1.001   1.896   1.154
  793SOL    HW1 2403   0.938   1.824   1.123
  793SOL    HW2 2404   1.094   1.860   1.154
  794SOL     OW 2405   0.770   3.192   0.301
  794SOL    HW1 2406   0.724   3.105   0.318
  794SOL    HW2 2407   0.861   3.189   0.342
  795SOL     OW 2408   0.618   3.429   1.284
  795SOL    HW1 2409   0.613   3.511   1.341
  795SOL    HW2 2410   0.707   3.426   1.239
  796SOL     OW 2411   1.352   1.914   0.168
  796SOL    HW1 2412   1.387   1.873   0.084
  796SOL    HW2 2413   1.262   1.876   0.188
  797SOL     OW 2414   1.300   2.315   0.691
  797SOL    HW1 2415   1.241   2.395   0.695
  797SOL    HW2 2416   1.315   2.280   0.784
  798SOL     OW 2417   1.593   2.083   0.882
  798SOL    HW1 2418   1.509   2.082   0.936
  798SOL    HW2 2419   1.595   2.166   0.826
  799SOL     OW 2420   0.039   2.939   0.300
  799SOL    HW1 2421   0.138   2.928   0.291
  799SOL    HW2 2422  -0.001   2.853   0.332
  800SOL     OW 2423   0.875   3.508   0.337
  800SOL    HW1 2424   0.798   3.473   0.283
  800SOL    HW2 2425   0.843   3.579   0.399
  801SOL     OW 2426   0.230   2.490   1.975
  801SOL    HW1 2427   0.137   2.488   2.012
  801SOL    HW2 2428   0.231   2.451   1.883
  802SOL     OW 2429   0.225   2.137   2.858
  802SOL    HW1 2430   0.260   2.120   2.950
  802SOL    HW2 2431   0.137   2.092   2.846
  803SOL     OW 2432   0.019   2.230   2.509
  803SOL    HW1 2433  -0.063   2.273   2.548
  803SOL    HW2 2434  -0.009   2.157   2.446
  804SOL     OW 2435   0.569   3.137   3.027
  804SOL    HW1 2436   0.476   3.130   2.990
  804SOL    HW2 2437   0.580   3.226   3.071
  805SOL     OW 2438   1.555   3.373   2.565
  805SOL    HW1 2439   1.498   3.357   2.646
  805SOL    HW2 2440   1.496   3.383   2.485
  806SOL     OW 2441   1.135   2.565   2.579
  806SOL    HW1 2442   1.192   2.643   2.554
  806SOL    HW2 2443   1.075   2.591   2.655
  807SOL     OW 2444   1.755   2.469   2.093
  807SOL    HW1 2445   1.743   2.456   1.994
  807SOL    HW2 2446   1.725   2.388   2.142
  808SOL     OW 2447   0.768   3.006   2.885
  808SOL    HW1 2448   0.690   3.023   2.945
  808SOL    HW2 2449   0.802   3.093   2.849
  809SOL     OW 2450   0.850   2.660   3.685
  809SOL    HW1 2451   0.846   2.736   3.750
  809SOL    HW2 2452   0.872   2.696   3.594
  810SOL     OW 2453   0.685   2.874   2.527
  810SOL    HW1 2454   0.754   2.858   2.597
  810SOL    HW2 2455   0.612   2.931   2.565
  811SOL     OW 2456   0.686   3.023   3.665
  811SOL    HW1 2457   0.746   3.102   3.679
  811SOL    HW2 2458   0.600   3.054   3.624
  812SOL     OW 2459   0.335   3.297   2.923
  812SOL    HW1 2460   0.257   3.266   2.870
  812SOL    HW2 2461   0.393   3.355   2.866
  813SOL     OW 2462   1.460   3.367   3.201
  813SOL    HW1 2463   1.484   3.461   3.227
  813SOL    HW2 2464   1.444   3.313   3.283
  814SOL     OW 2465   0.438   2.254   3.361
  814SOL    HW1 2466   0.520   2.198   3.370
  814SOL    HW2 2467   0.357   2.196   3.365
  815SOL     OW 2468   1.603   2.309   2.599
  815SOL    HW1 2469   1.529   2.355   2.549
  815SOL    HW2 2470   1.654   2.377   2.652
  816SOL     OW 2471   0.231   3.575   2.345
  816SOL    HW1 2472   0.265   3.652   2.399
  816SOL    HW2 2473   0.275   3.575   2.255
  817SOL     OW 2474   1.127   3.203   3.552
  817SOL    HW1 2475   1.174   3.203   3.640
  817SOL    HW2 2476   1.079   3.116   3.541
  818SOL     OW 2477   0.230   3.296   2.400
  818SOL    HW1 2478   0.204   3.392   2.400
  818SOL    HW2 2479   0.159   3.242   2.445
  819SOL     OW 2480   0.240   2.953   2.748
  819SOL    HW1 2481   0.254   2.869   2.800
  819SOL    HW2 2482   0.185   3.017   2.803
  820SOL     OW 2483   0.620   3.648   3.301
  820SOL    HW1 2484   0.528   3.631   3.336
  820SOL    HW2 2485   0.648   3.740   3.327
  821SOL     OW 2486   0.606   2.826   1.985
  821SOL    HW1 2487   0.613   2.910   1.931
  821SOL    HW2 2488   0.652   2.839   2.073
  822SOL     OW 2489   1.594   1.976   3.342
  822SOL    HW1 2490   1.576   2.043   3.270
  822SOL    HW2 2491   1.591   2.022   3.431
  823SOL     OW 2492   0.122   2.505   2.425
  823SOL    HW1 2493   0.077   2.417   2.442
  823SOL    HW2 2494   0.121   2.559   2.509
  824SOL     OW 2495   1.842   3.629   2.221
  824SOL    HW1 2496   1.896   3.600   2.301
  824SOL    HW2 2497   1.872   3.719   2.192
  825SOL     OW 2498   0.027   3.458   1.979
  825SOL    HW1 2499   0.008   3.362   2.000
  825SOL    HW2 2500  -0.006   3.516   2.054
  826SOL     OW 2501   1.689   2.784   2.474
  826SOL    HW1 2502   1.784   2.755   2.482
  826SOL    HW2 2503   1.681   2.849   2.399
  827SOL     OW 2504   1.641   2.970   2.294
  827SOL    HW1 2505   1.727   2.972   2.242
  827SOL    HW2 2506   1.655   3.017   2.382
  828SOL     OW 2507   0.113   2.599   3.459
  828SOL    HW1 2508   0.201   2.586   3.504
  828SOL    HW2 2509   0.100   2.696   3.437
  829SOL     OW 2510   0.613   3.227   2.588
  829SOL    HW1 2511   0.564   3.140   2.597
  829SOL    HW2 2512   0.590   3.270   2.501
  830SOL     OW 2513   1.293   3.090   3.285
  830SOL    HW1 2514   1.330   3.017   3.227
  830SOL    HW2 2515   1.345   3.095   3.370
  831SOL     OW 2516   0.809   1.866   2.364
  831SOL    HW1 2517   0.849   1.957   2.355
  831SOL    HW2 2518   0.709   1.874   2.370
  832SOL     OW 2519   0.197   2.838   3.126
  832SOL    HW1 2520   0.286   2.793   3.112
  832SOL    HW2 2521   0.124   2.773   3.107
  833SOL     OW 2522   1.525   2.861   2.052
  833SOL    HW1 2523   1.462   2.785   2.065
  833SOL    HW2 2524   1.573   2.879   2.138
  834SOL     OW 2525   1.187   3.654   3.478
  834SOL    HW1 2526   1.211   3.714   3.402
  834SOL    HW2 2527   1.194   3.559   3.448
  835SOL     OW 2528   0.317   2.113   3.663
  835SOL    HW1 2529   0.388   2.184   3.669
  835SOL    HW2 2530   0.229   2.152   3.691
  836SOL     OW 2531   1.466   3.279   2.815
  836SOL    HW1 2532   1.407   3.285   2.895
  836SOL    HW2 2533   1.451   3.191   2.769
  837SOL     OW 2534   1.667   3.576   2.434
  837SOL    HW1 2535   1.626   3.553   2.346
  837SOL    HW2 2536   1.649   3.502   2.499
  838SOL     OW 2537   0.598   2.591   2.132
  838SOL    HW1 2538   0.622   2.660   2.064
  838SOL    HW2 2539   0.520   2.624   2.186
  839SOL     OW 2540   1.281   2.207   2.806
  839SOL    HW1 2541   1.195   2.157   2.793
  839SOL    HW2 2542   1.343   2.153   2.862
  840SOL     OW 2543   1.576   3.524   2.169
  840SOL    HW1 2544   1.665   3.570   2.172
  840SOL    HW2 2545   1.555   3.500   2.074
  841SOL     OW 2546   0.807   2.467   3.327
  841SOL    HW1 2547   0.760   2.464   3.416
  841SOL    HW2 2548   0.756   2.412   3.261
  842SOL     OW 2549   1.394   2.331   3.536
  842SOL    HW1 2550   1.374   2.374   3.624
  842SOL    HW2 2551   1.472   2.269   3.545
  843SOL     OW 2552   0.973   2.752   3.434
  843SOL    HW1 2553   1.019   2.668   3.405
  843SOL    HW2 2554   0.917   2.786   3.359
  844SOL     OW 2555   0.991   2.272   3.104
  844SOL    HW1 2556   0.914   2.306   3.158
  844SOL    HW2 2557   0.957   2.221   3.025
  845SOL     OW 2558   1.041   2.563   2.291
  845SOL    HW1 2559   1.067   2.559   2.387
  845SOL    HW2 2560   0.956   2.512   2.277
  846SOL     OW 2561   0.076   2.673   2.651
  846SOL    HW1 2562   0.175   2.661   2.660
  846SOL    HW2 2563   0.052   2.768   2.672
  847SOL     OW 2564   0.130   3.683   3.433
  847SOL    HW1 2565   0.120   3.668   3.532
  847SOL    HW2 2566   0.044   3.719   3.397
  848SOL     OW 2567   0.865   2.210   2.057
  848SOL    HW1 2568   0.924   2.273   2.008
  848SOL    HW2 2569   0.884   2.116   2.028
  849SOL     OW 2570   1.719   2.447   3.693
  849SOL    HW1 2571   1.693   2.536   3.657
  849SOL    HW2 2572   1.717   2.379   3.620
  850SOL     OW 2573   1.362   3.006   2.407
  850SOL    HW1 2574   1.445   2.977   2.359
  850SOL    HW2 2575   1.313   3.073   2.351
  851SOL     OW 2576   0.550   2.058   2.747
  851SOL    HW1 2577   0.545   2.053   2.847
  851SOL    HW2 2578   0.552   2.154   2.718
  852SOL     OW 2579   1.008   3.318   2.339
  852SOL    HW1 2580   0.962   3.390   2.287
  852SOL    HW2 2581   1.004   3.338   2.437
  853SOL     OW 2582   0.351   3.663   2.715
  853SOL    HW1 2583   0.401   3.577   2.721
  853SOL    HW2 2584   0.416   3.740   2.712
  854SOL     OW 2585   1.795   2.928   2.735
  854SOL    HW1 2586   1.733   2.913   2.659
  854SOL    HW2 2587   1.743   2.939   2.820
  855SOL     OW 2588   1.227   3.412   3.368
  855SOL    HW1 2589   1.233   3.335   3.432
  855SOL    HW2 2590   1.175   3.386   3.288
  856SOL     OW 2591   0.321   2.805   2.104
  856SOL    HW1 2592   0.403   2.844   2.062
  856SOL    HW2 2593   0.294   2.723   2.055
  857SOL     OW 2594   1.458   2.597   2.590
  857SOL    HW1 2595   1.453   2.532   2.665
  857SOL    HW2 2596   1.538   2.656   2.603
  858SOL     OW 2597   0.461   3.128   3.589
  858SOL    HW1 2598   0.411   3.129   3.503
  858SOL    HW2 2599   0.398   3.110   3.665
  859SOL     OW 2600   1.111   3.638   2.099
  859SOL    HW1 2601   1.051   3.576   2.149
  859SOL    HW2 2602   1.142   3.594   2.014
  860SOL     OW 2603   0.202   2.147   3.360
  860SOL    HW1 2604   0.122   2.207   3.347
  860SOL    HW2 2605   0.192   2.098   3.446
  861SOL     OW 2606   1.632   3.239   1.943
  861SOL    HW1 2607   1.600   3.333   1.933
  861SOL    HW2 2608   1.556   3.176   1.931
  862SOL     OW 2609   0.464   3.605   2.185
  862SOL    HW1 2610   0.497   3.644   2.271
  862SOL    HW2 2611   0.540   3.598   2.120
  863SOL     OW 2612   1.400   1.969   2.288
  863SOL    HW1 2613   1.376   1.932   2.198
  863SOL    HW2 2614   1.499   1.985   2.292
  864SOL     OW 2615   0.249   3.647   3.103
  864SOL    HW1 2616   0.306   3.582   3.153
  864SOL    HW2 2617   0.233   3.614   3.010
  865SOL     OW 2618   0.940   3.560   2.766
  865SOL    HW1 2619   1.020   3.503   2.787
  865SOL    HW2 2620   0.891   3.520   2.689
  866SOL     OW 2621   0.382   2.562   2.342
  866SOL    HW1 2622   0.427   2.472   2.339
  866SOL    HW2 2623   0.288   2.551   2.375
  867SOL     OW 2624   1.547   2.084   3.591
  867SOL    HW1 2625   1.542   2.121   3.683
  867SOL    HW2 2626   1.475   2.015   3.579
  868SOL     OW 2627   0.614   1.984   1.979
  868SOL    HW1 2628   0.712   1.962   1.986
  868SOL    HW2 2629   0.583   1.967   1.886
  869SOL     OW 2630   0.781   2.126   3.611
  869SOL    HW1 2631   0.848   2.065   3.654
  869SOL    HW2 2632   0.708   2.145   3.676
  870SOL     OW 2633   0.888   3.376   3.057
  870SOL    HW1 2634   0.865   3.351   2.963
  870SOL    HW2 2635   0.949   3.307   3.096
  871SOL     OW 2636   1.351   2.452   3.295
  871SOL    HW1 2637   1.379   2.409   3.380
  871SOL    HW2 2638   1.376   2.548   3.296
  872SOL     OW 2639   0.803   3.264   2.786
  872SOL    HW1 2640   0.893   3.278   2.744
  872SOL    HW2 2641   0.732   3.266   2.715
  873SOL     OW 2642   0.922   2.365   2.761
  873SOL    HW1 2643   0.897   2.356   2.665
  873SOL    HW2 2644   0.970   2.283   2.792
  874SOL     OW 2645   0.539   1.926   2.374
  874SOL    HW1 2646   0.458   1.927   2.432
  874SOL    HW2 2647   0.542   2.009   2.319
  875SOL     OW 2648   1.434   3.050   1.903
  875SOL    HW1 2649   1.466   2.974   1.960
  875SOL    HW2 2650   1.342   3.077   1.933
  876SOL     OW 2651   0.297   1.897   2.033
  876SOL    HW1 2652   0.346   1.981   2.012
  876SOL    HW2 2653   0.359   1.832   2.078
  877SOL     OW 2654   0.935   2.098   2.342
  877SOL    HW1 2655   0.887   2.139   2.264
  877SOL    HW2 2656   1.034   2.096   2.323
  878SOL     OW 2657   1.076   2.545   3.326
  878SOL    HW1 2658   0.996   2.484   3.329
  878SOL    HW2 2659   1.157   2.492   3.302
  879SOL     OW 2660   1.227   3.432   2.655
  879SOL    HW1 2661   1.248   3.506   2.590
  879SOL    HW2 2662   1.295   3.432   2.728
  880SOL     OW 2663   0.459   3.014   2.603
  880SOL    HW1 2664   0.388   2.987   2.668
  880SOL    HW2 2665   0.433   2.986   2.510
  881SOL     OW 2666   1.271   3.659   2.453
  881SOL    HW1 2667   1.315   3.723   2.389
  881SOL    HW2 2668   1.221   3.711   2.523
  882SOL     OW 2669   1.032   2.411   1.878
  882SOL    HW1 2670   0.991   2.493   1.839
  882SOL    HW2 2671   1.096   2.437   1.951
  883SOL     OW 2672   0.078   2.418   3.248
  883SOL    HW1 2673   0.170   2.417   3.207
  883SOL    HW2 2674   0.072   2.492   3.315
  884SOL     OW 2675   0.561   2.084   3.009
  884SOL    HW1 2676   0.599   2.000   3.046
  884SOL    HW2 2677   0.473   2.103   3.053
  885SOL     OW 2678   0.866   2.316   2.504
  885SOL    HW1 2679   0.834   2.388   2.442
  885SOL    HW2 2680   0.890   2.235   2.451
  886SOL     OW 2681   1.017   1.901   2.615
  886SOL    HW1 2682   0.945   1.906   2.546
  886SOL    HW2 2683   0.993   1.832   2.684
  887SOL     OW 2684   1.429   3.035   2.729
  887SOL    HW1 2685   1.374   2.951   2.722
  887SOL    HW2 2686   1.455   3.064   2.637
  888SOL     OW 2687   1.466   2.452   2.854
  888SOL    HW1 2688   1.436   2.357   2.861
  888SOL    HW2 2689   1.539   2.468   2.920
  889SOL     OW 2690   1.857   2.695   2.239
  889SOL    HW1 2691   1.899   2.631   2.303
  889SOL    HW2 2692   1.819   2.644   2.161
  890SOL     OW 2693   0.488   3.247   2.036
  890SOL    HW1 2694   0.401   3.232   2.083
  890SOL    HW2 2695   0.471   3.273   1.941
  891SOL     OW 2696   1.664   3.142   2.519
  891SOL    HW1 2697   1.763   3.150   2.533
  891SOL    HW2 2698   1.619   3.226   2.550
  892SOL     OW 2699   1.390   2.437   1.940
  892SOL    HW1 2700   1.336   2.416   2.021
  892SOL    HW2 2701   1.481   2.396   1.949
  893SOL     OW 2702   0.527   2.118   2.190
  893SOL    HW1 2703   0.554   2.059   2.115
  893SOL    HW2 2704   0.527   2.213   2.159
  894SOL     OW 2705   1.754   3.085   3.450
  894SOL    HW1 2706   1.845   3.046   3.437
  894SOL    HW2 2707   1.762   3.181   3.474
  895SOL     OW 2708   1.064   3.209   3.202
  895SOL    HW1 2709   0.984   3.186   3.257
  895SOL    HW2 2710   1.147   3.183   3.251
  896SOL     OW 2711   1.592   3.491   3.487
  896SOL    HW1 2712   1.619   3.525   3.397
  896SOL    HW2 2713   1.671   3.453   3.533
  897SOL     OW 2714   1.111   3.057   2.962
  897SOL    HW1 2715   1.071   3.101   3.043
  897SOL    HW2 2716   1.070   3.094   2.879
  898SOL     OW 2717   1.638   2.961   2.941
  898SOL    HW1 2718   1.643   3.042   3.000
  898SOL    HW2 2719   1.552   2.963   2.890
  899SOL     OW 2720   0.915   1.951   3.264
  899SOL    HW1 2721   0.940   1.931   3.169
  899SOL    HW2 2722   0.987   2.007   3.306
  900SOL     OW 2723   0.980   2.978   3.581
  900SOL    HW1 2724   0.881   2.984   3.591
  900SOL    HW2 2725   1.003   2.898   3.525
  901SOL     OW 2726   0.705   2.912   2.230
  901SOL    HW1 2727   0.691   2.919   2.329
  901SOL    HW2 2728   0.789   2.861   2.212
  902SOL     OW 2729   0.410   2.675   3.113
  902SOL    HW1 2730   0.496   2.687   3.163
  902SOL    HW2 2731   0.368   2.588   3.140
  903SOL     OW 2732   1.274   2.248   3.124
  903SOL    HW1 2733   1.295   2.322   3.188
  903SOL    HW2 2734   1.185   2.265   3.081
  904SOL     OW 2735   0.064   3.426   3.193
  904SOL    HW1 2736   0.018   3.508   3.159
  904SOL    HW2 2737   0.162   3.445   3.202
  905SOL     OW 2738   0.367   2.962   2.363
  905SOL    HW1 2739   0.360   3.045   2.307
  905SOL    HW2 2740   0.371   2.882   2.303
  906SOL     OW 2741   0.566   2.399   2.727
  906SOL    HW1 2742   0.578   2.465   2.653
  906SOL    HW2 2743   0.612   2.433   2.810
  907SOL     OW 2744   1.252   3.210   2.250
  907SOL    HW1 2745   1.302   3.287   2.290
  907SOL    HW2 2746   1.157   3.212   2.282
  908SOL     OW 2747   1.272   3.307   3.004
  908SOL    HW1 2748   1.319   3.320   3.091
  908SOL    HW2 2749   1.206   3.233   3.013
  909SOL     OW 2750   1.582   2.501   2.334
  909SOL    HW1 2751   1.551   2.562   2.407
  909SOL    HW2 2752   1.632   2.553   2.265
  910SOL     OW 2753   0.354   3.372   3.191
  910SOL    HW1 2754   0.333   3.328   3.104
  910SOL    HW2 2755   0.451   3.398   3.194
  911SOL     OW 2756   0.402   2.613   3.460
  911SOL    HW1 2757   0.470   2.668   3.413
  911SOL    HW2 2758   0.442   2.525   3.487
  912SOL     OW 2759   1.587   2.641   3.532
  912SOL    HW1 2760   1.495   2.679   3.527
  912SOL    HW2 2761   1.647   2.688   3.467
  913SOL     OW 2762   1.013   1.967   3.632
  913SOL    HW1 2763   1.019   2.052   3.580
  913SOL    HW2 2764   1.045   1.891   3.575
  914SOL     OW 2765   0.504   1.912   3.602
  914SOL    HW1 2766   0.462   1.855   3.532
  914SOL    HW2 2767   0.438   1.981   3.634
  915SOL     OW 2768   0.573   2.732   2.891
  915SOL    HW1 2769   0.617   2.821   2.882
  915SOL    HW2 2770   0.510   2.732   2.968
  916SOL     OW 2771   1.360   2.724   2.907
  916SOL    HW1 2772   1.285   2.724   2.841
  916SOL    HW2 2773   1.397   2.632   2.916
  917SOL     OW 2774   1.209   2.387   2.137
  917SOL    HW1 2775   1.222   2.303   2.191
  917SOL    HW2 2776   1.180   2.461   2.197
  918SOL     OW 2777   0.307   2.075   3.093
  918SOL    HW1 2778   0.284   2.112   3.183
  918SOL    HW2 2779   0.277   1.980   3.087
  919SOL     OW 2780   0.037   3.172   3.144
  919SOL    HW1 2781   0.090   3.123   3.212
  919SOL    HW2 2782   0.059   3.270   3.149
  920SOL     OW 2783   0.732   2.496   2.926
  920SOL    HW1 2784   0.791   2.470   2.850
  920SOL    HW2 2785   0.704   2.592   2.915
  921SOL     OW 2786   1.728   2.797   3.716
  921SOL    HW1 2787   1.682   2.790   3.627
  921SOL    HW2 2788   1.666   2.841   3.782
  922SOL     OW 2789   0.307   1.925   2.480
  922SOL    HW1 2790   0.296   2.019   2.513
  922SOL    HW2 2791   0.302   1.862   2.557
  923SOL     OW 2792   1.622   2.229   2.236
  923SOL    HW1 2793   1.624   2.153   2.300
  923SOL    HW2 2794   1.574   2.306   2.276
  924SOL     OW 2795   1.023   2.628   2.828
  924SOL    HW1 2796   1.038   2.649   2.924
  924SOL    HW2 2797   0.993   2.533   2.819
  925SOL     OW 2798   0.980   3.435   3.562
  925SOL    HW1 2799   0.960   3.479   3.474
  925SOL    HW2 2800   1.019   3.344   3.546
  926SOL     OW 2801   1.859   3.380   3.467
  926SOL    HW1 2802   1.873   3.407   3.372
  926SOL    HW2 2803   1.942   3.402   3.520
  927SOL     OW 2804   0.350   2.760   3.666
  927SOL    HW1 2805   0.426   2.804   3.714
  927SOL    HW2 2806   0.385   2.713   3.584
  928SOL     OW 2807   1.540   2.136   1.987
  928SOL    HW1 2808   1.479   2.061   2.010
  928SOL    HW2 2809   1.562   2.188   2.070
  929SOL     OW 2810   1.303   2.700   1.904
  929SOL    HW1 2811   1.337   2.607   1.919
  929SOL    HW2 2812   1.321   2.727   1.809
  930SOL     OW 2813   1.068   3.195   2.711
  930SOL    HW1 2814   1.075   3.111   2.656
  930SOL    HW2 2815   1.130   3.264   2.675
  931SOL     OW 2816   0.319   2.672   2.811
  931SOL    HW1 2817   0.412   2.708   2.816
  931SOL    HW2 2818   0.313   2.587   2.863
  932SOL     OW 2819   0.339   2.371   2.868
  932SOL    HW1 2820   0.287   2.288   2.851
  932SOL    HW2 2821   0.416   2.376   2.804
  933SOL     OW 2822   1.138   2.242   3.540
  933SOL    HW1 2823   1.093   2.305   3.604
  933SOL    HW2 2824   1.231   2.273   3.523
  934SOL     OW 2825   1.160   2.069   3.339
  934SOL    HW1 2826   1.160   2.133   3.416
  934SOL    HW2 2827   1.188   2.117   3.256
  935SOL     OW 2828   0.008   3.188   2.062
  935SOL    HW1 2829  -0.085   3.209   2.031
  935SOL    HW2 2830   0.018   3.089   2.075
  936SOL     OW 2831   0.088   3.663   2.789
  936SOL    HW1 2832   0.046   3.577   2.762
  936SOL    HW2 2833   0.182   3.666   2.755
  937SOL     OW 2834   0.504   3.430   2.772
  937SOL    HW1 2835   0.570   3.504   2.781
  937SOL    HW2 2836   0.548   3.351   2.730
  938SOL     OW 2837   1.002   2.658   3.100
  938SOL    HW1 2838   1.043   2.626   3.186
  938SOL    HW2 2839   0.906   2.631   3.097
  939SOL     OW 2840   0.040   2.406   2.976
  939SOL    HW1 2841   0.125   2.373   2.935
  939SOL    HW2 2842   0.053   2.421   3.074
  940SOL     OW 2843   0.189   2.382   3.584
  940SOL    HW1 2844   0.248   2.342   3.514
  940SOL    HW2 2845   0.131   2.453   3.543
  941SOL     OW 2846   1.369   2.812   3.522
  941SOL    HW1 2847   1.408   2.901   3.542
  941SOL    HW2 2848   1.379   2.792   3.425
  942SOL     OW 2849   0.815   2.434   2.187
  942SOL    HW1 2850   0.822   2.345   2.141
  942SOL    HW2 2851   0.721   2.468   2.179
  943SOL     OW 2852   1.657   2.466   3.068
  943SOL    HW1 2853   1.619   2.397   3.130
  943SOL    HW2 2854   1.739   2.430   3.024
  944SOL     OW 2855   0.252   3.426   3.606
  944SOL    HW1 2856   0.222   3.483   3.682
  944SOL    HW2 2857   0.245   3.329   3.632
  945SOL     OW 2858   0.671   2.326   3.131
  945SOL    HW1 2859   0.637   2.237   3.101
  945SOL    HW2 2860   0.697   2.380   3.051
  946SOL     OW 2861   0.930   3.540   3.327
  946SOL    HW1 2862   0.906   3.522   3.232
  946SOL    HW2 2863   0.960   3.634   3.337
  947SOL     OW 2864   0.473   2.362   2.053
  947SOL    HW1 2865   0.534   2.442   2.057
  947SOL    HW2 2866   0.378   2.393   2.060
  948SOL     OW 2867   0.159   2.999   3.328
  948SOL    HW1 2868   0.181   2.938   3.404
  948SOL    HW2 2869   0.169   2.950   3.242
  949SOL     OW 2870   1.347   2.921   3.096
  949SOL    HW1 2871   1.371   2.858   3.022
  949SOL    HW2 2872   1.257   2.961   3.078
  950SOL     OW 2873   1.302   2.717   2.171
  950SOL    HW1 2874   1.216   2.686   2.213
  950SOL    HW2 2875   1.298   2.703   2.072
  951SOL     OW 2876   1.759   3.609   3.016
  951SOL    HW1 2877   1.820   3.639   2.943
  951SOL    HW2 2878   1.721   3.520   2.994
  952SOL     OW 2879   1.252   3.593   2.990
  952SOL    HW1 2880   1.336   3.598   2.936
  952SOL    HW2 2881   1.229   3.497   3.008
  953SOL     OW 2882   0.083   3.120   2.884
  953SOL    HW1 2883   0.078   3.119   2.984
  953SOL    HW2 2884   0.000   3.079   2.846
  954SOL     OW 2885   0.688   3.524   3.578
  954SOL    HW1 2886   0.632   3.605   3.587
  954SOL    HW2 2887   0.740   3.528   3.492
  955SOL     OW 2888   1.726   1.997   2.385
  955SOL    HW1 2889   1.799   1.980   2.318
  955SOL    HW2 2890   1.695   1.910   2.423
  956SOL     OW 2891   1.388   3.435   2.339
  956SOL    HW1 2892   1.455   3.447   2.265
  956SOL    HW2 2893   1.348   3.524   2.362
  957SOL     OW 2894   0.130   3.656   3.713
  957SOL    HW1 2895   0.089   3.582   3.766
  957SOL    HW2 2896   0.194   3.707   3.771
  958SOL     OW 2897   1.280   2.789   2.534
  958SOL    HW1 2898   1.340   2.708   2.536
  958SOL    HW2 2899   1.320   2.858   2.474
  959SOL     OW 2900   0.830   3.135   3.284
  959SOL    HW1 2901   0.825   3.168   3.379
  959SOL    HW2 2902   0.744   3.154   3.238
  960SOL     OW 2903   0.672   3.478   2.016
  960SOL    HW1 2904   0.681   3.488   1.917
  960SOL    HW2 2905   0.632   3.389   2.037
  961SOL     OW 2906   1.650   3.582   3.256
  961SOL    HW1 2907   1.703   3.592   3.172
  961SOL    HW2 2908   1.623   3.672   3.290
  962SOL     OW 2909   1.841   2.037   2.825
  962SOL    HW1 2910   1.880   1.952   2.789
  962SOL    HW2 2911   1.743   2.039   2.806
  963SOL     OW 2912   0.263   2.188   2.582
  963SOL    HW1 2913   0.184   2.239   2.548
  963SOL    HW2 2914   0.254   2.173   2.680
  964SOL     OW 2915   1.194   3.474   1.893
  964SOL    HW1 2916   1.200   3.381   1.930
  964SOL    HW2 2917   1.135   3.474   1.813
  965SOL     OW 2918   0.822   2.864   3.234
  965SOL    HW1 2919   0.862   2.863   3.142
  965SOL    HW2 2920   0.832   2.956   3.274
  966SOL     OW 2921   0.916   2.772   2.153
  966SOL    HW1 2922   0.979   2.810   2.085
  966SOL    HW2 2923   0.956   2.689   2.192
  967SOL     OW 2924   1.504   3.469   1.906
  967SOL    HW1 2925   1.412   3.506   1.913
  967SOL    HW2 2926   1.542   3.489   1.816
  968SOL     OW 2927   0.372   3.150   3.352
  968SOL    HW1 2928   0.359   3.243   3.318
  968SOL    HW2 2929   0.288   3.098   3.339
  969SOL     OW 2930   1.614   3.154   3.151
  969SOL    HW1 2931   1.674   3.157   3.231
  969SOL    HW2 2932   1.539   3.218   3.164
  970SOL     OW 2933   1.039   2.960   2.558
  970SOL    HW1 2934   0.969   2.913   2.612
  970SOL    HW2 2935   1.098   2.892   2.515
  971SOL     OW 2936   1.014   2.098   2.833
  971SOL    HW1 2937   1.006   2.062   2.740
  971SOL    HW2 2938   1.012   2.022   2.898
  972SOL     OW 2939   0.590   3.349   2.353
  972SOL    HW1 2940   0.632   3.291   2.283
  972SOL    HW2 2941   0.546   3.428   2.309
  973SOL     OW 2942   1.709   2.247   3.243
  973SOL    HW1 2943   1.782   2.316   3.247
  973SOL    HW2 2944   1.737   2.172   3.184
  974SOL     OW 2945   0.255   3.210   2.152
  974SOL    HW1 2946   0.159   3.211   2.125
  974SOL    HW2 2947   0.267   3.263   2.236
  975SOL     OW 2948   0.105   2.875   3.588
  975SOL    HW1 2949   0.028   2.842   3.642
  975SOL    HW2 2950   0.190   2.845   3.630
  976SOL     OW 2951   0.672   2.065   3.351
  976SOL    HW1 2952   0.762   2.049   3.311
  976SOL    HW2 2953   0.680   2.070   3.450
  977SOL     OW 2954   0.075   2.207   1.895
  977SOL    HW1 2955  -0.017   2.179   1.866
  977SOL    HW2 2956   0.106   2.284   1.839
  978SOL     OW 2957   1.440   2.718   3.260
  978SOL    HW1 2958   1.383   2.770   3.197
  978SOL    HW2 2959   1.536   2.730   3.236
  979SOL     OW 2960   0.072   2.028   2.180
  979SOL    HW1 2961   0.055   2.111   2.126
  979SOL    HW2 2962   0.162   1.991   2.158
  980SOL     OW 2963   1.183   3.197   1.981
  980SOL    HW1 2964   1.084   3.186   1.983
  980SOL    HW2 2965   1.217   3.212   2.074
  981SOL     OW 2966   0.613   2.704   3.293
  981SOL    HW1 2967   0.669   2.785   3.276
  981SOL    HW2 2968   0.672   2.624   3.296
  982SOL     OW 2969   1.493   3.629   2.821
  982SOL    HW1 2970   1.526   3.693   2.752
  982SOL    HW2 2971   1.559   3.623   2.896
  983SOL     OW 2972   0.716   2.427   3.570
  983SOL    HW1 2973   0.735   2.492   3.644
  983SOL    HW2 2974   0.776   2.347   3.579
  984SOL     OW 2975   1.450   3.082   3.495
  984SOL    HW1 2976   1.441   3.072   3.594
  984SOL    HW2 2977   1.546   3.075   3.469
  985SOL     OW 2978   0.390   3.603   3.422
  985SOL    HW1 2979   0.299   3.644   3.420
  985SOL    HW2 2980   0.383   3.509   3.454
  986SOL     OW 2981   1.674   2.745   3.116
  986SOL    HW1 2982   1.647   2.656   3.079
  986SOL    HW2 2983   1.675   2.813   3.043
  987SOL     OW 2984   1.225   2.187   2.311
  987SOL    HW1 2985   1.290   2.113   2.300
  987SOL    HW2 2986   1.245   2.237   2.395
  988SOL     OW 2987   0.594   2.607   2.514
  988SOL    HW1 2988   0.644   2.692   2.495
  988SOL    HW2 2989   0.506   2.609   2.466
  989SOL     OW 2990   1.777   2.204   3.504
  989SOL    HW1 2991   1.760   2.235   3.410
  989SOL    HW2 2992   1.693   2.167   3.542
  990SOL     OW 2993   1.730   2.796   3.379
  990SOL    HW1 2994   1.768   2.887   3.394
  990SOL    HW2 2995   1.722   2.779   3.280
  991SOL     OW 2996   0.859   3.236   1.878
  991SOL    HW1 2997   0.813   3.251   1.966
  991SOL    HW2 2998   0.903   3.321   1.848
  992SOL     OW 2999   0.661   3.652   2.815
  992SOL    HW1 3000   0.615   3.740   2.802
  992SOL    HW2 3001   0.760   3.664   2.808
  993SOL     OW 3002   0.859   2.818   2.723
  993SOL    HW1 3003   0.913   2.749   2.771
  993SOL    HW2 3004   0.827   2.887   2.789
  994SOL     OW 3005   1.083   2.846   1.949
  994SOL    HW1 3006   1.060   2.899   1.867
  994SOL    HW2 3007   1.164   2.790   1.930
  995SOL     OW 3008   1.861   3.431   2.713
  995SOL    HW1 3009   1.790   3.419   2.643
  995SOL    HW2 3010   1.862   3.352   2.773
  996SOL     OW 3011   0.221   3.176   3.706
  996SOL    HW1 3012   0.156   3.103   3.685
  996SOL    HW2 3013   0.225   3.190   3.804
  997SOL     OW 3014   0.079   3.102   2.515
  997SOL    HW1 3015   0.078   3.055   2.603
  997SOL    HW2 3016   0.161   3.074   2.464
  998SOL     OW 3017   0.672   3.253   3.486
  998SOL    HW1 3018   0.594   3.203   3.524
  998SOL    HW2 3019   0.669   3.348   3.517
  999SOL     OW 3020   1.824   2.054   3.089
  999SOL    HW1 3021   1.820   1.964   3.133
  999SOL    HW2 3022   1.827   2.043   2.990
 1000SOL     OW 3023   0.428   2.286   2.382
 1000SOL    HW1 3024   0.458   2.214   2.320
 1000SOL    HW2 3025   0.389   2.246   2.465
 1001SOL     OW 3026   1.705   3.349   2.966
 1001SOL    HW1 3027   1.612   3.324   2.939
 1001SOL    HW2 3028   1.731   3.299   3.048
 1002SOL     OW 3029   0.317   2.409   3.142
 1002SOL    HW1 3030   0.355   2.350   3.214
 1002SOL    HW2 3031   0.357   2.383   3.054
 1003SOL     OW 3032   0.812   3.448   2.549
 1003SOL    HW1 3033   0.844   3.458   2.455
 1003SOL    HW2 3034   0.733   3.386   2.551
 1004SOL     OW 3035   1.424   2.076   2.974
 1004SOL    HW1 3036   1.476   2.011   3.029
 1004SOL    HW2 3037   1.375   2.139   3.035
 1005SOL     OW 3038   1.001   1.896   3.016
 1005SOL    HW1 3039   0.938   1.824   2.985
 1005SOL    HW2 3040   1.094   1.860   3.016
 1006SOL     OW 3041   0.770   3.192   2.163
 1006SOL    HW1 3042   0.724   3.105   2.180
 1006SOL    HW2 3043   0.861   3.189   2.204
 1007SOL     OW 3044   0.618   3.429   3.146
 1007SOL    HW1 3045   0.613   3.511   3.203
 1007SOL    HW2 3046   0.707   3.426   3.101
 1008SOL     OW 3047   1.352   1.914   2.030
 1008SOL    HW1 3048   1.387   1.873   1.946
 1008SOL    HW2 3049   1.262   1.876   2.050
 1009SOL     OW 3050   1.300   2.315   2.553
 1009SOL    HW1 3051   1.241   2.395   2.557
 1009SOL    HW2 3052   1.315   2.280   2.646
 1010SOL     OW 3053   1.593   2.083   2.744
 1010SOL    HW1 3054   1.509   2.082   2.798
 1010SOL    HW2 3055   1.595   2.166   2.688
 1011SOL     OW 3056   0.039   2.939   2.162
 1011SOL    HW1 3057   0.138   2.928   2.153
 1011SOL    HW2 3058  -0.001   2.853   2.194
 1012SOL     OW 3059   0.875   3.508   2.199
 1012SOL    HW1 3060   0.798   3.473   2.145
 1012SOL    HW2 3061   0.843   3.579   2.261
 1013SOL     OW 3062   0.230   2.490   3.837
 1013SOL    HW1 3063   0.137   2.488   3.874
 1013SOL    HW2 3064   0.231   2.451   3.745
 1014SOL     OW 3065   0.225   2.137   4.720
 1014SOL    HW1 3066   0.260   2.120   4.812
 1014SOL    HW2 3067   0.137   2.092   4.708
 1015SOL     OW 3068   0.019   2.230   4.371
 1015SOL    HW1 3069  -0.063   2.273   4.410
 1015SOL    HW2 3070  -0.009   2.157   4.308
 1016SOL     OW 3071   0.569   3.137   4.889
 1016SOL    HW1 3072   0.476   3.130   4.852
 1016SOL    HW2 3073   0.580   3.226   4.933
 1017SOL     OW 3074   1.555   3.373   4.427
 1017SOL    HW1 3075   1.498   3.357   4.508
 1017SOL    HW2 3076   1.496   3.383   4.347
 1018SOL     OW 3077   1.135   2.565   4.441
 1018SOL    HW1 3078   1.192   2.643   4.416
 1018SOL    HW2 3079   1.075   2.591   4.517
 1019SOL     OW 3080   1.755   2.469   3.955
 1019SOL    HW1 3081   1.743   2.456   3.856
 1019SOL    HW2 3082   1.725   2.388   4.004
 1020SOL     OW 3083   0.768   3.006   4.747
 1020SOL    HW1 3084   0.690   3.023   4.807
 1020SOL    HW2 3085   0.802   3.093   4.711
 1021SOL     OW 3086   0.685   2.874   4.389
 1021SOL    HW1 3087   0.754   2.858   4.459
 1021SOL    HW2 3088   0.612   2.931   4.427
 1022SOL     OW 3089   0.335   3.297   4.785
 1022SOL    HW1 3090   0.257   3.266   4.732
 1022SOL    HW2 3091   0.393   3.355   4.728
 1023SOL     OW 3092   0.438   2.254   5.223
 1023SOL    HW1 3093   0.520   2.198   5.232
 1023SOL    HW2 3094   0.357   2.196   5.227
 1024SOL     OW 3095   1.603   2.309   4.461
 1024SOL    HW1 3096   1.529   2.355   4.411
 1024SOL    HW2 3097   1.654   2.377   4.514
 1025SOL     OW 3098   0.231   3.575   4.207
 1025SOL    HW1 3099   0.265   3.652   4.261
 1025SOL    HW2 3100   0.275   3.575   4.117
 1026SOL     OW 3101   0.230   3.296   4.262
 1026SOL    HW1 3102   0.204   3.392   4.262
 1026SOL    HW2 3103   0.159   3.242   4.307
 1027SOL     OW 3104   0.240   2.953   4.610
 1027SOL    HW1 3105   0.254   2.869   4.662
 1027SOL    HW2 3106   0.185   3.017   4.665
 1028SOL     OW 3107   0.620   3.648   5.163
 1028SOL    HW1 3108   0.528   3.631   5.198
 1028SOL    HW2 3109   0.648   3.740   5.189
 1029SOL     OW 3110   0.606   2.826   3.847
 1029SOL    HW1 3111   0.613   2.910   3.793
 1029SOL    HW2 3112   0.652   2.839   3.935
 1030SOL     OW 3113   0.122   2.505   4.287
 1030SOL    HW1 3114   0.077   2.417   4.304
 1030SOL    HW2 3115   0.121   2.559   4.371
 1031SOL     OW 3116   1.842   3.629   4.083
 1031SOL    HW1 3117   1.896   3.600   4.163
 1031SOL    HW2 3118   1.872   3.719   4.054
 1032SOL     OW 3119   0.027   3.458   3.841
 1032SOL    HW1 3120   0.008   3.362   3.862
 1032SOL    HW2 3121  -0.006   3.516   3.916
 1033SOL     OW 3122   1.689   2.784   4.336
 1033SOL    HW1 3123   1.784   2.755   4.344
 1033SOL    HW2 3124   1.681   2.849   4.261
 1034SOL     OW 3125   1.641   2.970   4.156
 1034SOL    HW1 3126   1.727   2.972   4.104
 1034SOL    HW2 3127   1.655   3.017   4.244
 1035SOL     OW 3128   0.613   3.227   4.450
 1035SOL    HW1 3129   0.564   3.140   4.459
 1035SOL    HW2 3130   0.590   3.270   4.363
 1036SOL     OW 3131   0.809   1.866   4.226
 1036SOL    HW1 3132   0.849   1.957   4.217
 1036SOL    HW2 3133   0.709   1.874   4.232
 1037SOL     OW 3134   0.197   2.838   4.988
 1037SOL    HW1 3135   0.286   2.793   4.974
 1037SOL    HW2 3136   0.124   2.773   4.969
 1038SOL     OW 3137   1.525   2.861   3.914
 1038SOL    HW1 3138   1.462   2.785   3.927
 1038SOL    HW2 3139   1.573   2.879   4.000
 1039SOL     OW 3140   1.466   3.279   4.677
 1039SOL    HW1 3141   1.407   3.285   4.757
 1039SOL    HW2 3142   1.451   3.191   4.631
 1040SOL     OW 3143   1.667   3.576   4.296
 1040SOL    HW1 3144   1.626   3.553   4.208
 1040SOL    HW2 3145   1.649   3.502   4.361
 1041SOL     OW 3146   0.598   2.591   3.994
 1041SOL    HW1 3147   0.622   2.660   3.926
 1041SOL    HW2 3148   0.520   2.624   4.048
 1042SOL     OW 3149   1.281   2.207   4.668
 1042SOL    HW1 3150   1.195   2.157   4.655
 1042SOL    HW2 3151   1.343   2.153   4.724
 1043SOL     OW 3152   1.576   3.524   4.031
 1043SOL    HW1 3153   1.665   3.570   4.034
 1043SOL    HW2 3154   1.555   3.500   3.936
 1044SOL     OW 3155   0.807   2.467   5.189
 1044SOL    HW1 3156   0.760   2.464   5.278
 1044SOL    HW2 3157   0.756   2.412   5.123
 1045SOL     OW 3158   0.991   2.272   4.966
 1045SOL    HW1 3159   0.914   2.306   5.020
 1045SOL    HW2 3160   0.957   2.221   4.887
 1046SOL     OW 3161   1.041   2.563   4.153
 1046SOL    HW1 3162   1.067   2.559   4.249
 1046SOL    HW2 3163   0.956   2.512   4.139
 1047SOL     OW 3164   0.076   2.673   4.513
 1047SOL    HW1 3165   0.175   2.661   4.522
 1047SOL    HW2 3166   0.052   2.768   4.534
 1048SOL     OW 3167   0.130   3.683   5.295
 1048SOL    HW1 3168   0.120   3.668   5.394
 1048SOL    HW2 3169   0.044   3.719   5.259
 1049SOL     OW 3170   0.865   2.210   3.919
 1049SOL    HW1 3171   0.924   2.273   3.870
 1049SOL    HW2 3172   0.884   2.116   3.890
 1050SOL     OW 3173   1.362   3.006   4.269
 1050SOL    HW1 3174   1.445   2.977   4.221
 1050SOL    HW2 3175   1.313   3.073   4.213
 1051SOL     OW 3176   0.550   2.058   4.609
 1051SOL    HW1 3177   0.545   2.053   4.709
 1051SOL    HW2 3178   0.552   2.154   4.580
 1052SOL     OW 3179   1.008   3.318   4.201
 1052SOL    HW1 3180   0.962   3.390   4.149
 1052SOL    HW2 3181   1.004   3.338   4.299
 1053SOL     OW 3182   0.351   3.663   4.577
 1053SOL    HW1 3183   0.401   3.577   4.583
 1053SOL    HW2 3184   0.416   3.740   4.574
 1054SOL     OW 3185   1.795   2.928   4.597
 1054SOL    HW1 3186   1.733   2.913   4.521
 1054SOL    HW2 3187   1.743   2.939   4.682
 1055SOL     OW 3188   0.321   2.805   3.966
 1055SOL    HW1 3189   0.403   2.844   3.924
 1055SOL    HW2 3190   0.294   2.723   3.917
 1056SOL     OW 3191   1.458   2.597   4.452
 1056SOL    HW1 3192   1.453   2.532   4.527
 1056SOL    HW2 3193   1.538   2.656   4.465
 1057SOL     OW 3194   1.111   3.638   3.961
 1057SOL    HW1 3195   1.051   3.576   4.011
 1057SOL    HW2 3196   1.142   3.594   3.876
 1058SOL     OW 3197   1.632   3.239   3.805
 1058SOL    HW1 3198   1.600   3.333   3.795
 1058SOL    HW2 3199   1.556   3.176   3.793
 1059SOL     OW 3200   0.464   3.605   4.047
 1059SOL    HW1 3201   0.497   3.644   4.133
 1059SOL    HW2 3202   0.540   3.598   3.982
 1060SOL     OW 3203   1.400   1.969   4.150
 1060SOL    HW1 3204   1.376   1.932   4.060
 1060SOL    HW2 3205   1.499   1.985   4.154
 1061SOL     OW 3206   0.249   3.647   4.965
 1061SOL    HW1 3207   0.306   3.582   5.015
 1061SOL    HW2 3208   0.233   3.614   4.872
 1062SOL     OW 3209   0.940   3.560   4.628
 1062SOL    HW1 3210   1.020   3.503   4.649
 1062SOL    HW2 3211   0.891   3.520   4.551
 1063SOL     OW 3212   0.382   2.562   4.204
 1063SOL    HW1 3213   0.427   2.472   4.201
 1063SOL    HW2 3214   0.288   2.551   4.237
 1064SOL     OW 3215   0.614   1.984   3.841
 1064SOL    HW1 3216   0.712   1.962   3.848
 1064SOL    HW2 3217   0.583   1.967   3.748
 1065SOL     OW 3218   0.888   3.376   4.919
 1065SOL    HW1 3219   0.865   3.351   4.825
 1065SOL    HW2 3220   0.949   3.307   4.958
 1066SOL     OW 3221   0.803   3.264   4.648
 1066SOL    HW1 3222   0.893   3.278   4.606
 1066SOL    HW2 3223   0.732   3.266   4.577
 1067SOL     OW 3224   0.922   2.365   4.623
 1067SOL    HW1 3225   0.897   2.356   4.527
 1067SOL    HW2 3226   0.970   2.283   4.654
 1068SOL     OW 3227   0.539   1.926   4.236
 1068SOL    HW1 3228   0.458   1.927   4.294
 1068SOL    HW2 3229   0.542   2.009   4.181
 1069SOL     OW 3230   1.434   3.050   3.765
 1069SOL    HW1 3231   1.466   2.974   3.822
 1069SOL    HW2 3232   1.342   3.077   3.795
 1070SOL     OW 3233   0.297   1.897   3.895
 1070SOL    HW1 3234   0.346   1.981   3.874
 1070SOL    HW2 3235   0.359   1.832   3.940
 1071SOL     OW 3236   0.935   2.098   4.204
 1071SOL    HW1 3237   0.887   2.139   4.126
 1071SOL    HW2 3238   1.034   2.096   4.185
 1072SOL     OW 3239   1.227   3.432   4.517
 1072SOL    HW1 3240   1.248   3.506   4.452
 1072SOL    HW2 3241   1.295   3.432   4.590
 1073SOL     OW 3242   0.459   3.014   4.465
 1073SOL    HW1 3243   0.388   2.987   4.530
 1073SOL    HW2 3244   0.433   2.986   4.372
 1074SOL     OW 3245   1.271   3.659   4.315
 1074SOL    HW1 3246   1.315   3.723   4.251
 1074SOL    HW2 3247   1.221   3.711   4.385
 1075SOL     OW 3248   1.032   2.411   3.740
 1075SOL    HW1 3249   0.991   2.493   3.701
 1075SOL    HW2 3250   1.096   2.437   3.813
 1076SOL     OW 3251   0.561   2.084   4.871
 1076SOL    HW1 3252   0.599   2.000   4.908
 1076SOL    HW2 3253   0.473   2.103   4.915
 1077SOL     OW 3254   0.866   2.316   4.366
 1077SOL    HW1 3255   0.834   2.388   4.304
 1077SOL    HW2 3256   0.890   2.235   4.313
 1078SOL     OW 3257   1.017   1.901   4.477
 1078SOL    HW1 3258   0.945   1.906   4.408
 1078SOL    HW2 3259   0.993   1.832   4.546
 1079SOL     OW 3260   1.429   3.035   4.591
 1079SOL    HW1 3261   1.374   2.951   4.584
 1079SOL    HW2 3262   1.455   3.064   4.499
 1080SOL     OW 3263   1.466   2.452   4.716
 1080SOL    HW1 3264   1.436   2.357   4.723
 1080SOL    HW2 3265   1.539   2.468   4.782
 1081SOL     OW 3266   1.857   2.695   4.101
 1081SOL    HW1 3267   1.899   2.631   4.165
 1081SOL    HW2 3268   1.819   2.644   4.023
 1082SOL     OW 3269   0.488   3.247   3.898
 1082SOL    HW1 3270   0.401   3.232   3.945
 1082SOL    HW2 3271   0.471   3.273   3.803
 1083SOL     OW 3272   1.664   3.142   4.381
 1083SOL    HW1 3273   1.763   3.150   4.395
 1083SOL    HW2 3274   1.619   3.226   4.412
 1084SOL     OW 3275   1.390   2.437   3.802
 1084SOL    HW1 3276   1.336   2.416   3.883
 1084SOL    HW2 3277   1.481   2.396   3.811
 1085SOL     OW 3278   0.527   2.118   4.052
 1085SOL    HW1 3279   0.554   2.059   3.977
 1085SOL    HW2 3280   0.527   2.213   4.021
 1086SOL     OW 3281   1.754   3.085   5.312
 1086SOL    HW1 3282   1.845   3.046   5.299
 1086SOL    HW2 3283   1.762   3.181   5.336
 1087SOL     OW 3284   1.111   3.057   4.824
 1087SOL    HW1 3285   1.071   3.101   4.905
 1087SOL    HW2 3286   1.070   3.094   4.741
 1088SOL     OW 3287   1.638   2.961   4.803
 1088SOL    HW1 3288   1.643   3.042   4.862
 1088SOL    HW2 3289   1.552   2.963   4.752
 1089SOL     OW 3290   0.705   2.912   4.092
 1089SOL    HW1 3291   0.691   2.919   4.191
 1089SOL    HW2 3292   0.789   2.861   4.074
 1090SOL     OW 3293   0.410   2.675   4.975
 1090SOL    HW1 3294   0.496   2.687   5.025
 1090SOL    HW2 3295   0.368   2.588   5.002
 1091SOL     OW 3296   1.274   2.248   4.986
 1091SOL    HW1 3297   1.295   2.322   5.050
 1091SOL    HW2 3298   1.185   2.265   4.943
 1092SOL     OW 3299   0.064   3.426   5.055
 1092SOL    HW1 3300   0.018   3.508   5.021
 1092SOL    HW2 3301   0.162   3.445   5.064
 1093SOL     OW 3302   0.367   2.962   4.225
 1093SOL    HW1 3303   0.360   3.045   4.169
 1093SOL    HW2 3304   0.371   2.882   4.165
 1094SOL     OW 3305   0.566   2.399   4.589
 1094SOL    HW1 3306   0.578   2.465   4.515
 1094SOL    HW2 3307   0.612   2.433   4.672
 1095SOL     OW 3308   1.252   3.210   4.112
 1095SOL    HW1 3309   1.302   3.287   4.152
 1095SOL    HW2 3310   1.157   3.212   4.144
 1096SOL     OW 3311   1.272   3.307   4.866
 1096SOL    HW1 3312   1.319   3.320   4.953
 1096SOL    HW2 3313   1.206   3.233   4.875
 1097SOL     OW 3314   1.582   2.501   4.196
 1097SOL    HW1 3315   1.551   2.562   4.269
 1097SOL    HW2 3316   1.632   2.553   4.127
 1098SOL     OW 3317   0.354   3.372   5.053
 1098SOL    HW1 3318   0.333   3.328   4.966
 1098SOL    HW2 3319   0.451   3.398   5.056
 1099SOL     OW 3320   0.573   2.732   4.753
 1099SOL    HW1 3321   0.617   2.821   4.744
 1099SOL    HW2 3322   0.510   2.732   4.830
 1100SOL     OW 3323   1.360   2.724   4.769
 1100SOL    HW1 3324   1.285   2.724   4.703
 1100SOL    HW2 3325   1.397   2.632   4.778
 1101SOL     OW 3326   1.209   2.387   3.999
 1101SOL    HW1 3327   1.222   2.303   4.053
 1101SOL    HW2 3328   1.180   2.461   4.059
 1102SOL     OW 3329   0.307   2.075   4.955
 1102SOL    HW1 3330   0.284   2.112   5.045
 1102SOL    HW2 3331   0.277   1.980   4.949
 1103SOL     OW 3332   0.037   3.172   5.006
 1103SOL    HW1 3333   0.090   3.123   5.074
 1103SOL    HW2 3334   0.059   3.270   5.011
 1104SOL     OW 3335   0.732   2.496   4.788
 1104SOL    HW1 3336   0.791   2.470   4.712
 1104SOL    HW2 3337   0.704   2.592   4.777
 1105SOL     OW 3338   0.307   1.925   4.342
 1105SOL    HW1 3339   0.296   2.019   4.375
 1105SOL    HW2 3340   0.302   1.862   4.419
 1106SOL     OW 3341   1.622   2.229   4.098
 1106SOL    HW1 3342   1.624   2.153   4.162
 1106SOL    HW2 3343   1.574   2.306   4.138
 1107SOL     OW 3344   1.023   2.628   4.690
 1107SOL    HW1 3345   1.038   2.649   4.786
 1107SOL    HW2 3346   0.993   2.533   4.681
 1108SOL     OW 3347   1.540   2.136   3.849
 1108SOL    HW1 3348   1.479   2.061   3.872
 1108SOL    HW2 3349   1.562   2.188   3.932
 1109SOL     OW 3350   1.303   2.700   3.766
 1109SOL    HW1 3351   1.337   2.607   3.781
 1109SOL    HW2 3352   1.321   2.727   3.671
 1110SOL     OW 3353   1.068   3.195   4.573
 1110SOL    HW1 3354   1.075   3.111   4.518
 1110SOL    HW2 3355   1.130   3.264   4.537
 1111SOL     OW 3356   0.319   2.672   4.673
 1111SOL    HW1 3357   0.412   2.708   4.678
 1111SOL    HW2 3358   0.313   2.587   4.725
 1112SOL     OW 3359   0.339   2.371   4.730
 1112SOL    HW1 3360   0.287   2.288   4.713
 1112SOL    HW2 3361   0.416   2.376   4.666
 1113SOL     OW 3362   1.160   2.069   5.201
 1113SOL    HW1 3363   1.160   2.133   5.278
 1113SOL    HW2 3364   1.188   2.117   5.118
 1114SOL     OW 3365   0.008   3.188   3.924
 1114SOL    HW1 3366  -0.085   3.209   3.893
 1114SOL    HW2 3367   0.018   3.089   3.937
 1115SOL     OW 3368   0.088   3.663   4.651
 1115SOL    HW1 3369   0.046   3.577   4.624
 1115SOL    HW2 3370   0.182   3.666   4.617
 1116SOL     OW 3371   0.504   3.430   4.634
 1116SOL    HW1 3372   0.570   3.504   4.643
 1116SOL    HW2 3373   0.548   3.351   4.592
 1117SOL     OW 3374   1.002   2.658   4.962
 1117SOL    HW1 3375   1.043   2.626   5.048
 1117SOL    HW2 3376   0.906   2.631   4.959
 1118SOL     OW 3377   0.040   2.406   4.838
 1118SOL    HW1 3378   0.125   2.373   4.797
 1118SOL    HW2 3379   0.053   2.421   4.936
 1119SOL     OW 3380   0.815   2.434   4.049
 1119SOL    HW1 3381   0.822   2.345   4.003
 1119SOL    HW2 3382   0.721   2.468   4.041
 1120SOL     OW 3383   1.657   2.466   4.930
 1120SOL    HW1 3384   1.619   2.397   4.992
 1120SOL    HW2 3385   1.739   2.430   4.886
 1121SOL     OW 3386   0.671   2.326   4.993
 1121SOL    HW1 3387   0.637   2.237   4.963
 1121SOL    HW2 3388   0.697   2.380   4.913
 1122SOL     OW 3389   0.930   3.540   5.189
 1122SOL    HW1 3390   0.906   3.522   5.094
 1122SOL    HW2 3391   0.960   3.634   5.199
 1123SOL     OW 3392   0.473   2.362   3.915
 1123SOL    HW1 3393   0.534   2.442   3.919
 1123SOL    HW2 3394   0.378   2.393   3.922
 1124SOL     OW 3395   0.159   2.999   5.190
 1124SOL    HW1 3396   0.181   2.938   5.266
 1124SOL    HW2 3397   0.169   2.950   5.104
 1125SOL     OW 3398   1.347   2.921   4.958
 1125SOL    HW1 3399   1.371   2.858   4.884
 1125SOL    HW2 3400   1.257   2.961   4.940
 1126SOL     OW 3401   1.302   2.717   4.033
 1126SOL    HW1 3402   1.216   2.686   4.075
 1126SOL    HW2 3403   1.298   2.703   3.934
 1127SOL     OW 3404   1.759   3.609   4.878
 1127SOL    HW1 3405   1.820   3.639   4.805
 1127SOL    HW2 3406   1.721   3.520   4.856
 1128SOL     OW 3407   1.252   3.593   4.852
 1128SOL    HW1 3408   1.336   3.598   4.798
 1128SOL    HW2 3409   1.229   3.497   4.870
 1129SOL     OW 3410   0.083   3.120   4.746
 1129SOL    HW1 3411   0.078   3.119   4.846
 1129SOL    HW2 3412   0.000   3.079   4.708
 1130SOL     OW 3413   1.726   1.997   4.247
 1130SOL    HW1 3414   1.799   1.980   4.180
 1130SOL    HW2 3415   1.695   1.910   4.285
 1131SOL     OW 3416   1.388   3.435   4.201
 1131SOL    HW1 3417   1.455   3.447   4.127
 1131SOL    HW2 3418   1.348   3.524   4.224
 1132SOL     OW 3419   1.280   2.789   4.396
 1132SOL    HW1 3420   1.340   2.708   4.398
 1132SOL    HW2 3421   1.320   2.858   4.336
 1133SOL     OW 3422   0.672   3.478   3.878
 1133SOL    HW1 3423   0.681   3.488   3.779
 1133SOL    HW2 3424   0.632   3.389   3.899
 1134SOL     OW 3425   1.841   2.037   4.687
 1134SOL    HW1 3426   1.880   1.952   4.651
 1134SOL    HW2 3427   1.743   2.039   4.668
 1135SOL     OW 3428   0.263   2.188   4.444
 1135SOL    HW1 3429   0.184   2.239   4.410
 1135SOL    HW2 3430   0.254   2.173   4.542
 1136SOL     OW 3431   1.194   3.474   3.755
 1136SOL    HW1 3432   1.200   3.381   3.792
 1136SOL    HW2 3433   1.135   3.474   3.675
 1137SOL     OW 3434   0.822   2.864   5.096
 1137SOL    HW1 3435   0.862   2.863   5.004
 1137SOL    HW2 3436   0.832   2.956   5.136
 1138SOL     OW 3437   0.916   2.772   4.015
 1138SOL    HW1 3438   0.979   2.810   3.947
 1138SOL    HW2 3439   0.956   2.689   4.054
 1139SOL     OW 3440   1.504   3.469   3.768
 1139SOL    HW1 3441   1.412   3.506   3.775
 1139SOL    HW2 3442   1.542   3.489   3.678
 1140SOL     OW 3443   1.614   3.154   5.013
 1140SOL    HW1 3444   1.674   3.157   5.093
 1140SOL    HW2 3445   1.539   3.218   5.026
 1141SOL     OW 3446   1.039   2.960   4.420
 1141SOL    HW1 3447   0.969   2.913   4.474
 1141SOL    HW2 3448   1.098   2.892   4.377
 1142SOL     OW 3449   1.014   2.098   4.695
 1142SOL    HW1 3450   1.006   2.062   4.602
 1142SOL    HW2 3451   1.012   2.022   4.760
 1143SOL     OW 3452   0.590   3.349   4.215
 1143SOL    HW1 3453   0.632   3.291   4.145
 1143SOL    HW2 3454   0.546   3.428   4.171
 1144SOL     OW 3455   1.709   2.247   5.105
 1144SOL    HW1 3456   1.782   2.316   5.109
 1144SOL    HW2 3457   1.737   2.172   5.046
 1145SOL     OW 3458   0.255   3.210   4.014
 1145SOL    HW1 3459   0.159   3.211   3.987
 1145SOL    HW2 3460   0.267   3.263   4.098
 1146SOL     OW 3461   0.672   2.065   5.213
 1146SOL    HW1 3462   0.762   2.049   5.173
 1146SOL    HW2 3463   0.680   2.070   5.312
 1147SOL     OW 3464   0.075   2.207   3.757
 1147SOL    HW1 3465  -0.017   2.179   3.728
 1147SOL    HW2 3466   0.106   2.284   3.701
 1148SOL     OW 3467   0.072   2.028   4.042
 1148SOL    HW1 3468   0.055   2.111   3.988
 1148SOL    HW2 3469   0.162   1.991   4.020
 1149SOL     OW 3470   1.183   3.197   3.843
 1149SOL    HW1 3471   1.084   3.186   3.845
 1149SOL    HW2 3472   1.217   3.212   3.936
 1150SOL     OW 3473   0.613   2.704   5.155
 1150SOL    HW1 3474   0.669   2.785   5.138
 1150SOL    HW2 3475   0.672   2.624   5.158
 1151SOL     OW 3476   1.493   3.629   4.683
 1151SOL    HW1 3477   1.526   3.693   4.614
 1151SOL    HW2 3478   1.559   3.623   4.758
 1152SOL     OW 3479   0.390   3.603   5.284
 1152SOL    HW1 3480   0.299   3.644   5.282
 1152SOL    HW2 3481   0.383   3.509   5.316
 1153SOL     OW 3482   1.674   2.745   4.978
 1153SOL    HW1 3483   1.647   2.656   4.941
 1153SOL    HW2 3484   1.675   2.813   4.905
 1154SOL     OW 3485   1.225   2.187   4.173
 1154SOL    HW1 3486   1.290   2.113   4.162
 1154SOL    HW2 3487   1.245   2.237   4.257
 1155SOL     OW 3488   0.594   2.607   4.376
 1155SOL    HW1 3489   0.644   2.692   4.357
 1155SOL    HW2 3490   0.506   2.609   4.328
 1156SOL     OW 3491   1.730   2.796   5.241
 1156SOL    HW1 3492   1.768   2.887   5.256
 1156SOL    HW2 3493   1.722   2.779   5.142
 1157SOL     OW 3494   0.859   3.236   3.740
 1157SOL    HW1 3495   0.813   3.251   3.828
 1157SOL    HW2 3496   0.903   3.321   3.710
 1158SOL     OW 3497   0.661   3.652   4.677
 1158SOL    HW1 3498   0.615   3.740   4.664
 1158SOL    HW2 3499   0.760   3.664   4.670
 1159SOL     OW 3500   0.859   2.818   4.585
 1159SOL    HW1 3501   0.913   2.749   4.633
 1159SOL    HW2 3502   0.827   2.887   4.651
 1160SOL     OW 3503   1.083   2.846   3.811
 1160SOL    HW1 3504   1.060   2.899   3.729
 1160SOL    HW2 3505   1.164   2.790   3.792
 1161SOL     OW 3506   1.861   3.431   4.575
 1161SOL    HW1 3507   1.790   3.419   4.505
 1161SOL    HW2 3508   1.862   3.352   4.635
 1162SOL     OW 3509   0.079   3.102   4.377
 1162SOL    HW1 3510   0.078   3.055   4.465
 1162SOL    HW2 3511   0.161   3.074   4.326
 1163SOL     OW 3512   1.824   2.054   4.951
 1163SOL    HW1 3513   1.820   1.964   4.995
 1163SOL    HW2 3514   1.827   2.043   4.852
 1164SOL     OW 3515   0.428   2.286   4.244
 1164SOL    HW1 3516   0.458   2.214   4.182
 1164SOL    HW2 3517   0.389   2.246   4.327
 1165SOL     OW 3518   1.705   3.349   4.828
 1165SOL    HW1 3519   1.612   3.324   4.801
 1165SOL    HW2 3520   1.731   3.299   4.910
 1166SOL     OW 3521   0.317   2.409   5.004
 1166SOL    HW1 3522   0.355   2.350   5.076
 1166SOL    HW2 3523   0.357   2.383   4.916
 1167SOL     OW 3524   0.812   3.448   4.411
 1167SOL    HW1 3525   0.844   3.458   4.317
 1167SOL    HW2 3526   0.733   3.386   4.413
 1168SOL     OW 3527   1.424   2.076   4.836
 1168SOL    HW1 3528   1.476   2.011   4.891
 1168SOL    HW2 3529   1.375   2.139   4.897
 1169SOL     OW 3530   1.001   1.896   4.878
 1169SOL    HW1 3531   0.938   1.824   4.847
 1169SOL    HW2 3532   1.094   1.860   4.878
 1170SOL     OW 3533   0.770   3.192   4.025
 1170SOL    HW1 3534   0.724   3.105   4.042
 1170SOL    HW2 3535   0.861   3.189   4.066
 1171SOL     OW 3536   0.618   3.429   5.008
 1171SOL    HW1 3537   0.613   3.511   5.065
 1171SOL    HW2 3538   0.707   3.426   4.963
 1172SOL     OW 3539   1.352   1.914   3.892
 1172SOL    HW1 3540   1.387   1.873   3.808
 1172SOL    HW2 3541   1.262   1.876   3.912
 1173SOL     OW 3542   1.300   2.315   4.415
 1173SOL    HW1 3543   1.241   2.395   4.419
 1173SOL    HW2 3544   1.315   2.280   4.508
 1174SOL     OW 3545   1.593   2.083   4.606
 1174SOL    HW1 3546   1.509   2.082   4.660
 1174SOL    HW2 3547   1.595   2.166   4.550
 1175SOL     OW 3548   0.039   2.939   4.024
 1175SOL    HW1 3549   0.138   2.928   4.015
 1175SOL    HW2 3550  -0.001   2.853   4.056
 1176SOL     OW 3551   0.875   3.508   4.061
 1176SOL    HW1 3552   0.798   3.473   4.007
 1176SOL    HW2 3553   0.843   3.579   4.123
 1177SOL     OW 3554   0.230   4.352   0.113
 1177SOL    HW1 3555   0.137   4.350   0.150
 1177SOL    HW2 3556   0.231   4.313   0.021
 1178SOL     OW 3557   0.225   3.999   0.996
 1178SOL    HW1 3558   0.260   3.982   1.088
 1178SOL    HW2 3559   0.137   3.954   0.984
 1179SOL     OW 3560   0.019   4.092   0.647
 1179SOL    HW1 3561  -0.063   4.135   0.686
 1179SOL    HW2 3562  -0.009   4.019   0.584
 1180SOL     OW 3563   0.569   4.999   1.165
 1180SOL    HW1 3564   0.476   4.992   1.128
 1180SOL    HW2 3565   0.580   5.088   1.209
 1181SOL     OW 3566   1.555   5.235   0.703
 1181SOL    HW1 3567   1.498   5.219   0.784
 1181SOL    HW2 3568   1.496   5.245   0.623
 1182SOL     OW 3569   1.135   4.427   0.717
 1182SOL    HW1 3570   1.192   4.505   0.692
 1182SOL    HW2 3571   1.075   4.453   0.793
 1183SOL     OW 3572   1.755   4.331   0.231
 1183SOL    HW1 3573   1.743   4.318   0.132
 1183SOL    HW2 3574   1.725   4.250   0.280
 1184SOL     OW 3575   0.768   4.868   1.023
 1184SOL    HW1 3576   0.690   4.885   1.083
 1184SOL    HW2 3577   0.802   4.955   0.987
 1185SOL     OW 3578   0.850   4.522   1.823
 1185SOL    HW1 3579   0.846   4.598   1.888
 1185SOL    HW2 3580   0.872   4.558   1.732
 1186SOL     OW 3581   0.685   4.736   0.665
 1186SOL    HW1 3582   0.754   4.720   0.735
 1186SOL    HW2 3583   0.612   4.793   0.703
 1187SOL     OW 3584   0.686   4.885   1.803
 1187SOL    HW1 3585   0.746   4.964   1.817
 1187SOL    HW2 3586   0.600   4.916   1.762
 1188SOL     OW 3587   0.335   5.159   1.061
 1188SOL    HW1 3588   0.257   5.128   1.008
 1188SOL    HW2 3589   0.393   5.217   1.004
 1189SOL     OW 3590   0.438   4.116   1.499
 1189SOL    HW1 3591   0.520   4.060   1.508
 1189SOL    HW2 3592   0.357   4.058   1.503
 1190SOL     OW 3593   1.603   4.171   0.737
 1190SOL    HW1 3594   1.529   4.217   0.687
 1190SOL    HW2 3595   1.654   4.239   0.790
 1191SOL     OW 3596   1.127   5.065   1.690
 1191SOL    HW1 3597   1.174   5.065   1.778
 1191SOL    HW2 3598   1.079   4.978   1.679
 1192SOL     OW 3599   0.240   4.815   0.886
 1192SOL    HW1 3600   0.254   4.731   0.938
 1192SOL    HW2 3601   0.185   4.879   0.941
 1193SOL     OW 3602   0.606   4.688   0.123
 1193SOL    HW1 3603   0.613   4.772   0.069
 1193SOL    HW2 3604   0.652   4.701   0.211
 1194SOL     OW 3605   1.594   3.838   1.480
 1194SOL    HW1 3606   1.576   3.905   1.408
 1194SOL    HW2 3607   1.591   3.884   1.569
 1195SOL     OW 3608   0.122   4.367   0.563
 1195SOL    HW1 3609   0.077   4.279   0.580
 1195SOL    HW2 3610   0.121   4.421   0.647
 1196SOL     OW 3611   1.689   4.646   0.612
 1196SOL    HW1 3612   1.784   4.617   0.620
 1196SOL    HW2 3613   1.681   4.711   0.537
 1197SOL     OW 3614   1.641   4.832   0.432
 1197SOL    HW1 3615   1.727   4.834   0.380
 1197SOL    HW2 3616   1.655   4.879   0.520
 1198SOL     OW 3617   0.113   4.461   1.597
 1198SOL    HW1 3618   0.201   4.448   1.642
 1198SOL    HW2 3619   0.100   4.558   1.575
 1199SOL     OW 3620   0.613   5.089   0.726
 1199SOL    HW1 3621   0.564   5.002   0.735
 1199SOL    HW2 3622   0.590   5.132   0.639
 1200SOL     OW 3623   1.293   4.952   1.423
 1200SOL    HW1 3624   1.330   4.879   1.365
 1200SOL    HW2 3625   1.345   4.957   1.508
 1201SOL     OW 3626   0.809   3.728   0.502
 1201SOL    HW1 3627   0.849   3.819   0.493
 1201SOL    HW2 3628   0.709   3.736   0.508
 1202SOL     OW 3629   0.197   4.700   1.264
 1202SOL    HW1 3630   0.286   4.655   1.250
 1202SOL    HW2 3631   0.124   4.635   1.245
 1203SOL     OW 3632   1.525   4.723   0.190
 1203SOL    HW1 3633   1.462   4.647   0.203
 1203SOL    HW2 3634   1.573   4.741   0.276
 1204SOL     OW 3635   0.317   3.975   1.801
 1204SOL    HW1 3636   0.388   4.046   1.807
 1204SOL    HW2 3637   0.229   4.014   1.829
 1205SOL     OW 3638   1.466   5.141   0.953
 1205SOL    HW1 3639   1.407   5.147   1.033
 1205SOL    HW2 3640   1.451   5.053   0.907
 1206SOL     OW 3641   0.598   4.453   0.270
 1206SOL    HW1 3642   0.622   4.522   0.202
 1206SOL    HW2 3643   0.520   4.486   0.324
 1207SOL     OW 3644   1.281   4.069   0.944
 1207SOL    HW1 3645   1.195   4.019   0.931
 1207SOL    HW2 3646   1.343   4.015   1.000
 1208SOL     OW 3647   0.807   4.329   1.465
 1208SOL    HW1 3648   0.760   4.326   1.554
 1208SOL    HW2 3649   0.756   4.274   1.399
 1209SOL     OW 3650   1.394   4.193   1.674
 1209SOL    HW1 3651   1.374   4.236   1.762
 1209SOL    HW2 3652   1.472   4.131   1.683
 1210SOL     OW 3653   0.973   4.614   1.572
 1210SOL    HW1 3654   1.019   4.530   1.543
 1210SOL    HW2 3655   0.917   4.648   1.497
 1211SOL     OW 3656   0.991   4.134   1.242
 1211SOL    HW1 3657   0.914   4.168   1.296
 1211SOL    HW2 3658   0.957   4.083   1.163
 1212SOL     OW 3659   1.041   4.425   0.429
 1212SOL    HW1 3660   1.067   4.421   0.525
 1212SOL    HW2 3661   0.956   4.374   0.415
 1213SOL     OW 3662   0.076   4.535   0.789
 1213SOL    HW1 3663   0.175   4.523   0.798
 1213SOL    HW2 3664   0.052   4.630   0.810
 1214SOL     OW 3665   0.865   4.072   0.195
 1214SOL    HW1 3666   0.924   4.135   0.146
 1214SOL    HW2 3667   0.884   3.978   0.166
 1215SOL     OW 3668   1.719   4.309   1.831
 1215SOL    HW1 3669   1.693   4.398   1.795
 1215SOL    HW2 3670   1.717   4.241   1.758
 1216SOL     OW 3671   1.362   4.868   0.545
 1216SOL    HW1 3672   1.445   4.839   0.497
 1216SOL    HW2 3673   1.313   4.935   0.489
 1217SOL     OW 3674   0.550   3.920   0.885
 1217SOL    HW1 3675   0.545   3.915   0.985
 1217SOL    HW2 3676   0.552   4.016   0.856
 1218SOL     OW 3677   1.795   4.790   0.873
 1218SOL    HW1 3678   1.733   4.775   0.797
 1218SOL    HW2 3679   1.743   4.801   0.958
 1219SOL     OW 3680   0.321   4.667   0.242
 1219SOL    HW1 3681   0.403   4.706   0.200
 1219SOL    HW2 3682   0.294   4.585   0.193
 1220SOL     OW 3683   1.458   4.459   0.728
 1220SOL    HW1 3684   1.453   4.394   0.803
 1220SOL    HW2 3685   1.538   4.518   0.741
 1221SOL     OW 3686   0.461   4.990   1.727
 1221SOL    HW1 3687   0.411   4.991   1.641
 1221SOL    HW2 3688   0.398   4.972   1.803
 1222SOL     OW 3689   0.202   4.009   1.498
 1222SOL    HW1 3690   0.122   4.069   1.485
 1222SOL    HW2 3691   0.192   3.960   1.584
 1223SOL     OW 3692   1.632   5.101   0.081
 1223SOL    HW1 3693   1.600   5.195   0.071
 1223SOL    HW2 3694   1.556   5.038   0.069
 1224SOL     OW 3695   1.400   3.831   0.426
 1224SOL    HW1 3696   1.376   3.794   0.336
 1224SOL    HW2 3697   1.499   3.847   0.430
 1225SOL     OW 3698   0.382   4.424   0.480
 1225SOL    HW1 3699   0.427   4.334   0.477
 1225SOL    HW2 3700   0.288   4.413   0.513
 1226SOL     OW 3701   1.547   3.946   1.729
 1226SOL    HW1 3702   1.542   3.983   1.821
 1226SOL    HW2 3703   1.475   3.877   1.717
 1227SOL     OW 3704   0.781   3.988   1.749
 1227SOL    HW1 3705   0.848   3.927   1.792
 1227SOL    HW2 3706   0.708   4.007   1.814
 1228SOL     OW 3707   1.351   4.314   1.433
 1228SOL    HW1 3708   1.379   4.271   1.518
 1228SOL    HW2 3709   1.376   4.410   1.434
 1229SOL     OW 3710   0.922   4.227   0.899
 1229SOL    HW1 3711   0.897   4.218   0.803
 1229SOL    HW2 3712   0.970   4.145   0.930
 1230SOL     OW 3713   0.539   3.788   0.512
 1230SOL    HW1 3714   0.458   3.789   0.570
 1230SOL    HW2 3715   0.542   3.871   0.457
 1231SOL     OW 3716   1.434   4.912   0.041
 1231SOL    HW1 3717   1.466   4.836   0.098
 1231SOL    HW2 3718   1.342   4.939   0.071
 1232SOL     OW 3719   0.935   3.960   0.480
 1232SOL    HW1 3720   0.887   4.001   0.402
 1232SOL    HW2 3721   1.034   3.958   0.461
 1233SOL     OW 3722   1.076   4.407   1.464
 1233SOL    HW1 3723   0.996   4.346   1.467
 1233SOL    HW2 3724   1.157   4.354   1.440
 1234SOL     OW 3725   1.227   5.294   0.793
 1234SOL    HW1 3726   1.248   5.368   0.728
 1234SOL    HW2 3727   1.295   5.294   0.866
 1235SOL     OW 3728   0.459   4.876   0.741
 1235SOL    HW1 3729   0.388   4.849   0.806
 1235SOL    HW2 3730   0.433   4.848   0.648
 1236SOL     OW 3731   1.032   4.273   0.016
 1236SOL    HW1 3732   0.991   4.355  -0.023
 1236SOL    HW2 3733   1.096   4.299   0.089
 1237SOL     OW 3734   0.078   4.280   1.386
 1237SOL    HW1 3735   0.170   4.279   1.345
 1237SOL    HW2 3736   0.072   4.354   1.453
 1238SOL     OW 3737   0.561   3.946   1.147
 1238SOL    HW1 3738   0.599   3.862   1.184
 1238SOL    HW2 3739   0.473   3.965   1.191
 1239SOL     OW 3740   0.866   4.178   0.642
 1239SOL    HW1 3741   0.834   4.250   0.580
 1239SOL    HW2 3742   0.890   4.097   0.589
 1240SOL     OW 3743   1.017   3.763   0.753
 1240SOL    HW1 3744   0.945   3.768   0.684
 1240SOL    HW2 3745   0.993   3.694   0.822
 1241SOL     OW 3746   1.429   4.897   0.867
 1241SOL    HW1 3747   1.374   4.813   0.860
 1241SOL    HW2 3748   1.455   4.926   0.775
 1242SOL     OW 3749   1.466   4.314   0.992
 1242SOL    HW1 3750   1.436   4.219   0.999
 1242SOL    HW2 3751   1.539   4.330   1.058
 1243SOL     OW 3752   1.857   4.557   0.377
 1243SOL    HW1 3753   1.899   4.493   0.441
 1243SOL    HW2 3754   1.819   4.506   0.299
 1244SOL     OW 3755   1.664   5.004   0.657
 1244SOL    HW1 3756   1.763   5.012   0.671
 1244SOL    HW2 3757   1.619   5.088   0.688
 1245SOL     OW 3758   1.390   4.299   0.078
 1245SOL    HW1 3759   1.336   4.278   0.159
 1245SOL    HW2 3760   1.481   4.258   0.087
 1246SOL     OW 3761   0.527   3.980   0.328
 1246SOL    HW1 3762   0.554   3.921   0.253
 1246SOL    HW2 3763   0.527   4.075   0.297
 1247SOL     OW 3764   1.754   4.947   1.588
 1247SOL    HW1 3765   1.845   4.908   1.575
 1247SOL    HW2 3766   1.762   5.043   1.612
 1248SOL     OW 3767   1.064   5.071   1.340
 1248SOL    HW1 3768   0.984   5.048   1.395
 1248SOL    HW2 3769   1.147   5.045   1.389
 1249SOL     OW 3770   1.111   4.919   1.100
 1249SOL    HW1 3771   1.071   4.963   1.181
 1249SOL    HW2 3772   1.070   4.956   1.017
 1250SOL     OW 3773   1.638   4.823   1.079
 1250SOL    HW1 3774   1.643   4.904   1.138
 1250SOL    HW2 3775   1.552   4.825   1.028
 1251SOL     OW 3776   0.915   3.813   1.402
 1251SOL    HW1 3777   0.940   3.793   1.307
 1251SOL    HW2 3778   0.987   3.869   1.444
 1252SOL     OW 3779   0.980   4.840   1.719
 1252SOL    HW1 3780   0.881   4.846   1.729
 1252SOL    HW2 3781   1.003   4.760   1.663
 1253SOL     OW 3782   0.705   4.774   0.368
 1253SOL    HW1 3783   0.691   4.781   0.467
 1253SOL    HW2 3784   0.789   4.723   0.350
 1254SOL     OW 3785   0.410   4.537   1.251
 1254SOL    HW1 3786   0.496   4.549   1.301
 1254SOL    HW2 3787   0.368   4.450   1.278
 1255SOL     OW 3788   1.274   4.110   1.262
 1255SOL    HW1 3789   1.295   4.184   1.326
 1255SOL    HW2 3790   1.185   4.127   1.219
 1256SOL     OW 3791   0.064   5.288   1.331
 1256SOL    HW1 3792   0.018   5.370   1.297
 1256SOL    HW2 3793   0.162   5.307   1.340
 1257SOL     OW 3794   0.367   4.824   0.501
 1257SOL    HW1 3795   0.360   4.907   0.445
 1257SOL    HW2 3796   0.371   4.744   0.441
 1258SOL     OW 3797   0.566   4.261   0.865
 1258SOL    HW1 3798   0.578   4.327   0.791
 1258SOL    HW2 3799   0.612   4.295   0.948
 1259SOL     OW 3800   1.252   5.072   0.388
 1259SOL    HW1 3801   1.302   5.149   0.428
 1259SOL    HW2 3802   1.157   5.074   0.420
 1260SOL     OW 3803   1.582   4.363   0.472
 1260SOL    HW1 3804   1.551   4.424   0.545
 1260SOL    HW2 3805   1.632   4.415   0.403
 1261SOL     OW 3806   0.402   4.475   1.598
 1261SOL    HW1 3807   0.470   4.530   1.551
 1261SOL    HW2 3808   0.442   4.387   1.625
 1262SOL     OW 3809   1.587   4.503   1.670
 1262SOL    HW1 3810   1.495   4.541   1.665
 1262SOL    HW2 3811   1.647   4.550   1.605
 1263SOL     OW 3812   1.013   3.829   1.770
 1263SOL    HW1 3813   1.019   3.914   1.718
 1263SOL    HW2 3814   1.045   3.753   1.713
 1264SOL     OW 3815   0.504   3.774   1.740
 1264SOL    HW1 3816   0.462   3.717   1.670
 1264SOL    HW2 3817   0.438   3.843   1.772
 1265SOL     OW 3818   0.573   4.594   1.029
 1265SOL    HW1 3819   0.617   4.683   1.020
 1265SOL    HW2 3820   0.510   4.594   1.106
 1266SOL     OW 3821   1.360   4.586   1.045
 1266SOL    HW1 3822   1.285   4.586   0.979
 1266SOL    HW2 3823   1.397   4.494   1.054
 1267SOL     OW 3824   1.209   4.249   0.275
 1267SOL    HW1 3825   1.222   4.165   0.329
 1267SOL    HW2 3826   1.180   4.323   0.335
 1268SOL     OW 3827   0.307   3.937   1.231
 1268SOL    HW1 3828   0.284   3.974   1.321
 1268SOL    HW2 3829   0.277   3.842   1.225
 1269SOL     OW 3830   0.037   5.034   1.282
 1269SOL    HW1 3831   0.090   4.985   1.350
 1269SOL    HW2 3832   0.059   5.132   1.287
 1270SOL     OW 3833   0.732   4.358   1.064
 1270SOL    HW1 3834   0.791   4.332   0.988
 1270SOL    HW2 3835   0.704   4.454   1.053
 1271SOL     OW 3836   1.728   4.659   1.854
 1271SOL    HW1 3837   1.682   4.652   1.765
 1271SOL    HW2 3838   1.666   4.703   1.920
 1272SOL     OW 3839   0.307   3.787   0.618
 1272SOL    HW1 3840   0.296   3.881   0.651
 1272SOL    HW2 3841   0.302   3.724   0.695
 1273SOL     OW 3842   1.622   4.091   0.374
 1273SOL    HW1 3843   1.624   4.015   0.438
 1273SOL    HW2 3844   1.574   4.168   0.414
 1274SOL     OW 3845   1.023   4.490   0.966
 1274SOL    HW1 3846   1.038   4.511   1.062
 1274SOL    HW2 3847   0.993   4.395   0.957
 1275SOL     OW 3848   1.859   5.242   1.605
 1275SOL    HW1 3849   1.873   5.269   1.510
 1275SOL    HW2 3850   1.942   5.264   1.658
 1276SOL     OW 3851   0.350   4.622   1.804
 1276SOL    HW1 3852   0.426   4.666   1.852
 1276SOL    HW2 3853   0.385   4.575   1.722
 1277SOL     OW 3854   1.540   3.998   0.125
 1277SOL    HW1 3855   1.479   3.923   0.148
 1277SOL    HW2 3856   1.562   4.050   0.208
 1278SOL     OW 3857   1.303   4.562   0.042
 1278SOL    HW1 3858   1.337   4.469   0.057
 1278SOL    HW2 3859   1.321   4.589  -0.053
 1279SOL     OW 3860   0.319   4.534   0.949
 1279SOL    HW1 3861   0.412   4.570   0.954
 1279SOL    HW2 3862   0.313   4.449   1.001
 1280SOL     OW 3863   0.339   4.233   1.006
 1280SOL    HW1 3864   0.287   4.150   0.989
 1280SOL    HW2 3865   0.416   4.238   0.942
 1281SOL     OW 3866   1.138   4.104   1.678
 1281SOL    HW1 3867   1.093   4.167   1.742
 1281SOL    HW2 3868   1.231   4.135   1.661
 1282SOL     OW 3869   1.160   3.931   1.477
 1282SOL    HW1 3870   1.160   3.995   1.554
 1282SOL    HW2 3871   1.188   3.979   1.394
 1283SOL     OW 3872   0.008   5.050   0.200
 1283SOL    HW1 3873  -0.085   5.071   0.169
 1283SOL    HW2 3874   0.018   4.951   0.213
 1284SOL     OW 3875   1.002   4.520   1.238
 1284SOL    HW1 3876   1.043   4.488   1.324
 1284SOL    HW2 3877   0.906   4.493   1.235
 1285SOL     OW 3878   0.040   4.268   1.114
 1285SOL    HW1 3879   0.125   4.235   1.073
 1285SOL    HW2 3880   0.053   4.283   1.212
 1286SOL     OW 3881   0.189   4.244   1.722
 1286SOL    HW1 3882   0.248   4.204   1.652
 1286SOL    HW2 3883   0.131   4.315   1.681
 1287SOL     OW 3884   1.369   4.674   1.660
 1287SOL    HW1 3885   1.408   4.763   1.680
 1287SOL    HW2 3886   1.379   4.654   1.563
 1288SOL     OW 3887   0.815   4.296   0.325
 1288SOL    HW1 3888   0.822   4.207   0.279
 1288SOL    HW2 3889   0.721   4.330   0.317
 1289SOL     OW 3890   1.657   4.328   1.206
 1289SOL    HW1 3891   1.619   4.259   1.268
 1289SOL    HW2 3892   1.739   4.292   1.162
 1290SOL     OW 3893   0.671   4.188   1.269
 1290SOL    HW1 3894   0.637   4.099   1.239
 1290SOL    HW2 3895   0.697   4.242   1.189
 1291SOL     OW 3896   0.473   4.224   0.191
 1291SOL    HW1 3897   0.534   4.304   0.195
 1291SOL    HW2 3898   0.378   4.255   0.198
 1292SOL     OW 3899   0.159   4.861   1.466
 1292SOL    HW1 3900   0.181   4.800   1.542
 1292SOL    HW2 3901   0.169   4.812   1.380
 1293SOL     OW 3902   1.347   4.783   1.234
 1293SOL    HW1 3903   1.371   4.720   1.160
 1293SOL    HW2 3904   1.257   4.823   1.216
 1294SOL     OW 3905   1.302   4.579   0.309
 1294SOL    HW1 3906   1.216   4.548   0.351
 1294SOL    HW2 3907   1.298   4.565   0.210
 1295SOL     OW 3908   0.083   4.982   1.022
 1295SOL    HW1 3909   0.078   4.981   1.122
 1295SOL    HW2 3910   0.000   4.941   0.984
 1296SOL     OW 3911   0.903   3.810   0.133
 1296SOL    HW1 3912   0.954   3.811   0.047
 1296SOL    HW2 3913   0.959   3.768   0.204
 1297SOL     OW 3914   1.726   3.859   0.523
 1297SOL    HW1 3915   1.799   3.842   0.456
 1297SOL    HW2 3916   1.695   3.772   0.561
 1298SOL     OW 3917   1.280   4.651   0.672
 1298SOL    HW1 3918   1.340   4.570   0.674
 1298SOL    HW2 3919   1.320   4.720   0.612
 1299SOL     OW 3920   0.830   4.997   1.422
 1299SOL    HW1 3921   0.825   5.030   1.517
 1299SOL    HW2 3922   0.744   5.016   1.376
 1300SOL     OW 3923   1.841   3.899   0.963
 1300SOL    HW1 3924   1.880   3.814   0.927
 1300SOL    HW2 3925   1.743   3.901   0.944
 1301SOL     OW 3926   0.263   4.050   0.720
 1301SOL    HW1 3927   0.184   4.101   0.686
 1301SOL    HW2 3928   0.254   4.035   0.818
 1302SOL     OW 3929   0.822   4.726   1.372
 1302SOL    HW1 3930   0.862   4.725   1.280
 1302SOL    HW2 3931   0.832   4.818   1.412
 1303SOL     OW 3932   0.916   4.634   0.291
 1303SOL    HW1 3933   0.979   4.672   0.223
 1303SOL    HW2 3934   0.956   4.551   0.330
 1304SOL     OW 3935   0.372   5.012   1.490
 1304SOL    HW1 3936   0.359   5.105   1.456
 1304SOL    HW2 3937   0.288   4.960   1.477
 1305SOL     OW 3938   1.614   5.016   1.289
 1305SOL    HW1 3939   1.674   5.019   1.369
 1305SOL    HW2 3940   1.539   5.080   1.302
 1306SOL     OW 3941   1.039   4.822   0.696
 1306SOL    HW1 3942   0.969   4.775   0.750
 1306SOL    HW2 3943   1.098   4.754   0.653
 1307SOL     OW 3944   1.014   3.960   0.971
 1307SOL    HW1 3945   1.006   3.924   0.878
 1307SOL    HW2 3946   1.012   3.884   1.036
 1308SOL     OW 3947   1.709   4.109   1.381
 1308SOL    HW1 3948   1.782   4.178   1.385
 1308SOL    HW2 3949   1.737   4.034   1.322
 1309SOL     OW 3950   0.105   4.737   1.726
 1309SOL    HW1 3951   0.028   4.704   1.780
 1309SOL    HW2 3952   0.190   4.707   1.768
 1310SOL     OW 3953   0.672   3.927   1.489
 1310SOL    HW1 3954   0.762   3.911   1.449
 1310SOL    HW2 3955   0.680   3.932   1.588
 1311SOL     OW 3956   0.075   4.069   0.033
 1311SOL    HW1 3957  -0.017   4.041   0.004
 1311SOL    HW2 3958   0.106   4.146  -0.023
 1312SOL     OW 3959   1.440   4.580   1.398
 1312SOL    HW1 3960   1.383   4.632   1.335
 1312SOL    HW2 3961   1.536   4.592   1.374
 1313SOL     OW 3962   0.072   3.890   0.318
 1313SOL    HW1 3963   0.055   3.973   0.264
 1313SOL    HW2 3964   0.162   3.853   0.296
 1314SOL     OW 3965   0.613   4.566   1.431
 1314SOL    HW1 3966   0.669   4.647   1.414
 1314SOL    HW2 3967   0.672   4.486   1.434
 1315SOL     OW 3968   0.716   4.289   1.708
 1315SOL    HW1 3969   0.735   4.354   1.782
 1315SOL    HW2 3970   0.776   4.209   1.717
 1316SOL     OW 3971   1.450   4.944   1.633
 1316SOL    HW1 3972   1.441   4.934   1.732
 1316SOL    HW2 3973   1.546   4.937   1.607
 1317SOL     OW 3974   1.674   4.607   1.254
 1317SOL    HW1 3975   1.647   4.518   1.217
 1317SOL    HW2 3976   1.675   4.675   1.181
 1318SOL     OW 3977   1.225   4.049   0.449
 1318SOL    HW1 3978   1.290   3.975   0.438
 1318SOL    HW2 3979   1.245   4.099   0.533
 1319SOL     OW 3980   0.594   4.469   0.652
 1319SOL    HW1 3981   0.644   4.554   0.633
 1319SOL    HW2 3982   0.506   4.471   0.604
 1320SOL     OW 3983   1.777   4.066   1.642
 1320SOL    HW1 3984   1.760   4.097   1.548
 1320SOL    HW2 3985   1.693   4.029   1.680
 1321SOL     OW 3986   1.730   4.658   1.517
 1321SOL    HW1 3987   1.768   4.749   1.532
 1321SOL    HW2 3988   1.722   4.641   1.418
 1322SOL     OW 3989   0.859   4.680   0.861
 1322SOL    HW1 3990   0.913   4.611   0.909
 1322SOL    HW2 3991   0.827   4.749   0.927
 1323SOL     OW 3992   1.083   4.708   0.087
 1323SOL    HW1 3993   1.060   4.761   0.005
 1323SOL    HW2 3994   1.164   4.652   0.068
 1324SOL     OW 3995   0.221   5.038   1.844
 1324SOL    HW1 3996   0.156   4.965   1.823
 1324SOL    HW2 3997   0.225   5.052   1.942
 1325SOL     OW 3998   0.079   4.964   0.653
 1325SOL    HW1 3999   0.078   4.917   0.741
 1325SOL    HW2 4000   0.161   4.936   0.602
 1326SOL     OW 4001   0.672   5.115   1.624
 1326SOL    HW1 4002   0.594   5.065   1.662
 1326SOL    HW2 4003   0.669   5.210   1.655
 1327SOL     OW 4004   1.824   3.916   1.227
 1327SOL    HW1 4005   1.820   3.826   1.271
 1327SOL    HW2 4006   1.827   3.905   1.128
 1328SOL     OW 4007   0.428   4.148   0.520
 1328SOL    HW1 4008   0.458   4.076   0.458
 1328SOL    HW2 4009   0.389   4.108   0.603
 1329SOL     OW 4010   1.705   5.211   1.104
 1329SOL    HW1 4011   1.612   5.186   1.077
 1329SOL    HW2 4012   1.731   5.161   1.186
 1330SOL     OW 4013   0.317   4.271   1.280
 1330SOL    HW1 4014   0.355   4.212   1.352
 1330SOL    HW2 4015   0.357   4.245   1.192
 1331SOL     OW 4016   1.424   3.938   1.112
 1331SOL    HW1 4017   1.476   3.873   1.167
 1331SOL    HW2 4018   1.375   4.001   1.173
 1332SOL     OW 4019   1.001   3.758   1.154
 1332SOL    HW1 4020   0.938   3.686   1.123
 1332SOL    HW2 4021   1.094   3.722   1.154
 1333SOL     OW 4022   0.770   5.054   0.301
 1333SOL    HW1 4023   0.724   4.967   0.318
 1333SOL    HW2 4024   0.861   5.051   0.342
 1334SOL     OW 4025   1.352   3.776   0.168
 1334SOL    HW1 4026   1.387   3.735   0.084
 1334SOL    HW2 4027   1.262   3.738   0.188
 1335SOL     OW 4028   1.300   4.177   0.691
 1335SOL    HW1 4029   1.241   4.257   0.695
 1335SOL    HW2 4030   1.315   4.142   0.784
 1336SOL     OW 4031   1.593   3.945   0.882
 1336SOL    HW1 4032   1.509   3.944   0.936
 1336SOL    HW2 4033   1.595   4.028   0.826
 1337SOL     OW 4034   0.039   4.801   0.300
 1337SOL    HW1 4035   0.138   4.790   0.291
 1337SOL    HW2 4036  -0.001   4.715   0.332
 1338SOL     OW 4037   0.230   4.352   1.975
 1338SOL    HW1 4038   0.137   4.350   2.012
 1338SOL    HW2 4039   0.231   4.313   1.883
 1339SOL     OW 4040   0.225   3.999   2.858
 1339SOL    HW1 4041   0.260   3.982   2.950
 1339SOL    HW2 4042   0.137   3.954   2.846
 1340SOL     OW 4043   0.019   4.092   2.509
 1340SOL    HW1 4044  -0.063   4.135   2.548
 1340SOL    HW2 4045  -0.009   4.019   2.446
 1341SOL     OW 4046   0.569   4.999   3.027
 1341SOL    HW1 4047   0.476   4.992   2.990
 1341SOL    HW2 4048   0.580   5.088   3.071
 1342SOL     OW 4049   1.555   5.235   2.565
 1342SOL    HW1 4050   1.498   5.219   2.646
 1342SOL    HW2 4051   1.496   5.245   2.485
 1343SOL     OW 4052   1.135   4.427   2.579
 1343SOL    HW1 4053   1.192   4.505   2.554
 1343SOL    HW2 4054   1.075   4.453   2.655
 1344SOL     OW 4055   1.755   4.331   2.093
 1344SOL    HW1 4056   1.743   4.318   1.994
 1344SOL    HW2 4057   1.725   4.250   2.142
 1345SOL     OW 4058   0.768   4.868   2.885
 1345SOL    HW1 4059   0.690   4.885   2.945
 1345SOL    HW2 4060   0.802   4.955   2.849
 1346SOL     OW 4061   0.850   4.522   3.685
 1346SOL    HW1 4062   0.846   4.598   3.750
 1346SOL    HW2 4063   0.872   4.558   3.594
 1347SOL     OW 4064   0.685   4.736   2.527
 1347SOL    HW1 4065   0.754   4.720   2.597
 1347SOL    HW2 4066   0.612   4.793   2.565
 1348SOL     OW 4067   0.686   4.885   3.665
 1348SOL    HW1 4068   0.746   4.964   3.679
 1348SOL    HW2 4069   0.600   4.916   3.624
 1349SOL     OW 4070   0.335   5.159   2.923
 1349SOL    HW1 4071   0.257   5.128   2.870
 1349SOL    HW2 4072   0.393   5.217   2.866
 1350SOL     OW 4073   0.438   4.116   3.361
 1350SOL    HW1 4074   0.520   4.060   3.370
 1350SOL    HW2 4075   0.357   4.058   3.365
 1351SOL     OW 4076   1.603   4.171   2.599
 1351SOL    HW1 4077   1.529   4.217   2.549
 1351SOL    HW2 4078   1.654   4.239   2.652
 1352SOL     OW 4079   1.127   5.065   3.552
 1352SOL    HW1 4080   1.174   5.065   3.640
 1352SOL    HW2 4081   1.079   4.978   3.541
 1353SOL     OW 4082   0.240   4.815   2.748
 1353SOL    HW1 4083   0.254   4.731   2.800
 1353SOL    HW2 4084   0.185   4.879   2.803
 1354SOL     OW 4085   0.606   4.688   1.985
 1354SOL    HW1 4086   0.613   4.772   1.931
 1354SOL    HW2 4087   0.652   4.701   2.073
 1355SOL     OW 4088   1.594   3.838   3.342
 1355SOL    HW1 4089   1.576   3.905   3.270
 1355SOL    HW2 4090   1.591   3.884   3.431
 1356SOL     OW 4091   0.122   4.367   2.425
 1356SOL    HW1 4092   0.077   4.279   2.442
 1356SOL    HW2 4093   0.121   4.421   2.509
 1357SOL     OW 4094   1.689   4.646   2.474
 1357SOL    HW1 4095   1.784   4.617   2.482
 1357SOL    HW2 4096   1.681   4.711   2.399
 1358SOL     OW 4097   1.641   4.832   2.294
 1358SOL    HW1 4098   1.727   4.834   2.242
 1358SOL    HW2 4099   1.655   4.879   2.382
 1359SOL     OW 4100   0.113   4.461   3.459
 1359SOL    HW1 4101   0.201   4.448   3.504
 1359SOL    HW2 4102   0.100   4.558   3.437
 1360SOL     OW 4103   0.613   5.089   2.588
 1360SOL    HW1 4104   0.564   5.002   2.597
 1360SOL    HW2 4105   0.590   5.132   2.501
 1361SOL     OW 4106   1.293   4.952   3.285
 1361SOL    HW1 4107   1.330   4.879   3.227
 1361SOL    HW2 4108   1.345   4.957   3.370
 1362SOL     OW 4109   0.809   3.728   2.364
 1362SOL    HW1 4110   0.849   3.819   2.355
 1362SOL    HW2 4111   0.709   3.736   2.370
 1363SOL     OW 4112   0.197   4.700   3.126
 1363SOL    HW1 4113   0.286   4.655   3.112
 1363SOL    HW2 4114   0.124   4.635   3.107
 1364SOL     OW 4115   1.525   4.723   2.052
 1364SOL    HW1 4116   1.462   4.647   2.065
 1364SOL    HW2 4117   1.573   4.741   2.138
 1365SOL     OW 4118   0.317   3.975   3.663
 1365SOL    HW1 4119   0.388   4.046   3.669
 1365SOL    HW2 4120   0.229   4.014   3.691
 1366SOL     OW 4121   1.466   5.141   2.815
 1366SOL    HW1 4122   1.407   5.147   2.895
 1366SOL    HW2 4123   1.451   5.053   2.769
 1367SOL     OW 4124   0.598   4.453   2.132
 1367SOL    HW1 4125   0.622   4.522   2.064
 1367SOL    HW2 4126   0.520   4.486   2.186
 1368SOL     OW 4127   1.281   4.069   2.806
 1368SOL    HW1 4128   1.195   4.019   2.793
 1368SOL    HW2 4129   1.343   4.015   2.862
 1369SOL     OW 4130   0.807   4.329   3.327
 1369SOL    HW1 4131   0.760   4.326   3.416
 1369SOL    HW2 4132   0.756   4.274   3.261
 1370SOL     OW 4133   1.394   4.193   3.536
 1370SOL    HW1 4134   1.374   4.236   3.624
 1370SOL    HW2 4135   1.472   4.131   3.545
 1371SOL     OW 4136   0.973   4.614   3.434
 1371SOL    HW1 4137   1.019   4.530   3.405
 1371SOL    HW2 4138   0.917   4.648   3.359
 1372SOL     OW 4139   0.991   4.134   3.104
 1372SOL    HW1 4140   0.914   4.168   3.158
 1372SOL    HW2 4141   0.957   4.083   3.025
 1373SOL     OW 4142   1.041   4.425   2.291
 1373SOL    HW1 4143   1.067   4.421   2.387
 1373SOL    HW2 4144   0.956   4.374   2.277
 1374SOL     OW 4145   0.076   4.535   2.651
 1374SOL    HW1 4146   0.175   4.523   2.660
 1374SOL    HW2 4147   0.052   4.630   2.672
 1375SOL     OW 4148   0.865   4.072   2.057
 1375SOL    HW1 4149   0.924   4.135   2.008
 1375SOL    HW2 4150   0.884   3.978   2.028
 1376SOL     OW 4151   1.719   4.309   3.693
 1376SOL    HW1 4152   1.693   4.398   3.657
 1376SOL    HW2 4153   1.717   4.241   3.620
 1377SOL     OW 4154   1.362   4.868   2.407
 1377SOL    HW1 4155   1.445   4.839   2.359
 1377SOL    HW2 4156   1.313   4.935   2.351
 1378SOL     OW 4157   0.550   3.920   2.747
 1378SOL    HW1 4158   0.545   3.915   2.847
 1378SOL    HW2 4159   0.552   4.016   2.718
 1379SOL     OW 4160   1.795   4.790   2.735
 1379SOL    HW1 4161   1.733   4.775   2.659
 1379SOL    HW2 4162   1.743   4.801   2.820
 1380SOL     OW 4163   0.321   4.667   2.104
 1380SOL    HW1 4164   0.403   4.706   2.062
 1380SOL    HW2 4165   0.294   4.585   2.055
 1381SOL     OW 4166   1.458   4.459   2.590
 1381SOL    HW1 4167   1.453   4.394   2.665
 1381SOL    HW2 4168   1.538   4.518   2.603
 1382SOL     OW 4169   0.461   4.990   3.589
 1382SOL    HW1 4170   0.411   4.991   3.503
 1382SOL    HW2 4171   0.398   4.972   3.665
 1383SOL     OW 4172   0.202   4.009   3.360
 1383SOL    HW1 4173   0.122   4.069   3.347
 1383SOL    HW2 4174   0.192   3.960   3.446
 1384SOL     OW 4175   1.632   5.101   1.943
 1384SOL    HW1 4176   1.600   5.195   1.933
 1384SOL    HW2 4177   1.556   5.038   1.931
 1385SOL     OW 4178   1.400   3.831   2.288
 1385SOL    HW1 4179   1.376   3.794   2.198
 1385SOL    HW2 4180   1.499   3.847   2.292
 1386SOL     OW 4181   0.382   4.424   2.342
 1386SOL    HW1 4182   0.427   4.334   2.339
 1386SOL    HW2 4183   0.288   4.413   2.375
 1387SOL     OW 4184   1.547   3.946   3.591
 1387SOL    HW1 4185   1.542   3.983   3.683
 1387SOL    HW2 4186   1.475   3.877   3.579
 1388SOL     OW 4187   0.614   3.846   1.979
 1388SOL    HW1 4188   0.712   3.824   1.986
 1388SOL    HW2 4189   0.583   3.829   1.886
 1389SOL     OW 4190   0.781   3.988   3.611
 1389SOL    HW1 4191   0.848   3.927   3.654
 1389SOL    HW2 4192   0.708   4.007   3.676
 1390SOL     OW 4193   1.351   4.314   3.295
 1390SOL    HW1 4194   1.379   4.271   3.380
 1390SOL    HW2 4195   1.376   4.410   3.296
 1391SOL     OW 4196   0.922   4.227   2.761
 1391SOL    HW1 4197   0.897   4.218   2.665
 1391SOL    HW2 4198   0.970   4.145   2.792
 1392SOL     OW 4199   0.539   3.788   2.374
 1392SOL    HW1 4200   0.458   3.789   2.432
 1392SOL    HW2 4201   0.542   3.871   2.319
 1393SOL     OW 4202   1.434   4.912   1.903
 1393SOL    HW1 4203   1.466   4.836   1.960
 1393SOL    HW2 4204   1.342   4.939   1.933
 1394SOL     OW 4205   0.297   3.759   2.033
 1394SOL    HW1 4206   0.346   3.843   2.012
 1394SOL    HW2 4207   0.359   3.694   2.078
 1395SOL     OW 4208   0.935   3.960   2.342
 1395SOL    HW1 4209   0.887   4.001   2.264
 1395SOL    HW2 4210   1.034   3.958   2.323
 1396SOL     OW 4211   1.076   4.407   3.326
 1396SOL    HW1 4212   0.996   4.346   3.329
 1396SOL    HW2 4213   1.157   4.354   3.302
 1397SOL     OW 4214   1.227   5.294   2.655
 1397SOL    HW1 4215   1.248   5.368   2.590
 1397SOL    HW2 4216   1.295   5.294   2.728
 1398SOL     OW 4217   0.459   4.876   2.603
 1398SOL    HW1 4218   0.388   4.849   2.668
 1398SOL    HW2 4219   0.433   4.848   2.510
 1399SOL     OW 4220   1.032   4.273   1.878
 1399SOL    HW1 4221   0.991   4.355   1.839
 1399SOL    HW2 4222   1.096   4.299   1.951
 1400SOL     OW 4223   0.078   4.280   3.248
 1400SOL    HW1 4224   0.170   4.279   3.207
 1400SOL    HW2 4225   0.072   4.354   3.315
 1401SOL     OW 4226   0.561   3.946   3.009
 1401SOL    HW1 4227   0.599   3.862   3.046
 1401SOL    HW2 4228   0.473   3.965   3.053
 1402SOL     OW 4229   0.866   4.178   2.504
 1402SOL    HW1 4230   0.834   4.250   2.442
 1402SOL    HW2 4231   0.890   4.097   2.451
 1403SOL     OW 4232   1.017   3.763   2.615
 1403SOL    HW1 4233   0.945   3.768   2.546
 1403SOL    HW2 4234   0.993   3.694   2.684
 1404SOL     OW 4235   1.429   4.897   2.729
 1404SOL    HW1 4236   1.374   4.813   2.722
 1404SOL    HW2 4237   1.455   4.926   2.637
 1405SOL     OW 4238   1.466   4.314   2.854
 1405SOL    HW1 4239   1.436   4.219   2.861
 1405SOL    HW2 4240   1.539   4.330   2.920
 1406SOL     OW 4241   1.857   4.557   2.239
 1406SOL    HW1 4242   1.899   4.493   2.303
 1406SOL    HW2 4243   1.819   4.506   2.161
 1407SOL     OW 4244   1.664   5.004   2.519
 1407SOL    HW1 4245   1.763   5.012   2.533
 1407SOL    HW2 4246   1.619   5.088   2.550
 1408SOL     OW 4247   1.390   4.299   1.940
 1408SOL    HW1 4248   1.336   4.278   2.021
 1408SOL    HW2 4249   1.481   4.258   1.949
 1409SOL     OW 4250   0.527   3.980   2.190
 1409SOL    HW1 4251   0.554   3.921   2.115
 1409SOL    HW2 4252   0.527   4.075   2.159
 1410SOL     OW 4253   1.754   4.947   3.450
 1410SOL    HW1 4254   1.845   4.908   3.437
 1410SOL    HW2 4255   1.762   5.043   3.474
 1411SOL     OW 4256   1.064   5.071   3.202
 1411SOL    HW1 4257   0.984   5.048   3.257
 1411SOL    HW2 4258   1.147   5.045   3.251
 1412SOL     OW 4259   1.111   4.919   2.962
 1412SOL    HW1 4260   1.071   4.963   3.043
 1412SOL    HW2 4261   1.070   4.956   2.879
 1413SOL     OW 4262   1.638   4.823   2.941
 1413SOL    HW1 4263   1.643   4.904   3.000
 1413SOL    HW2 4264   1.552   4.825   2.890
 1414SOL     OW 4265   0.915   3.813   3.264
 1414SOL    HW1 4266   0.940   3.793   3.169
 1414SOL    HW2 4267   0.987   3.869   3.306
 1415SOL     OW 4268   0.980   4.840   3.581
 1415SOL    HW1 4269   0.881   4.846   3.591
 1415SOL    HW2 4270   1.003   4.760   3.525
 1416SOL     OW 4271   0.705   4.774   2.230
 1416SOL    HW1 4272   0.691   4.781   2.329
 1416SOL    HW2 4273   0.789   4.723   2.212
 1417SOL     OW 4274   0.410   4.537   3.113
 1417SOL    HW1 4275   0.496   4.549   3.163
 1417SOL    HW2 4276   0.368   4.450   3.140
 1418SOL     OW 4277   1.274   4.110   3.124
 1418SOL    HW1 4278   1.295   4.184   3.188
 1418SOL    HW2 4279   1.185   4.127   3.081
 1419SOL     OW 4280   0.064   5.288   3.193
 1419SOL    HW1 4281   0.018   5.370   3.159
 1419SOL    HW2 4282   0.162   5.307   3.202
 1420SOL     OW 4283   0.367   4.824   2.363
 1420SOL    HW1 4284   0.360   4.907   2.307
 1420SOL    HW2 4285   0.371   4.744   2.303
 1421SOL     OW 4286   0.566   4.261   2.727
 1421SOL    HW1 4287   0.578   4.327   2.653
 1421SOL    HW2 4288   0.612   4.295   2.810
 1422SOL     OW 4289   1.252   5.072   2.250
 1422SOL    HW1 4290   1.302   5.149   2.290
 1422SOL    HW2 4291   1.157   5.074   2.282
 1423SOL     OW 4292   1.582   4.363   2.334
 1423SOL    HW1 4293   1.551   4.424   2.407
 1423SOL    HW2 4294   1.632   4.415   2.265
 1424SOL     OW 4295   0.402   4.475   3.460
 1424SOL    HW1 4296   0.470   4.530   3.413
 1424SOL    HW2 4297   0.442   4.387   3.487
 1425SOL     OW 4298   1.587   4.503   3.532
 1425SOL    HW1 4299   1.495   4.541   3.527
 1425SOL    HW2 4300   1.647   4.550   3.467
 1426SOL     OW 4301   1.013   3.829   3.632
 1426SOL    HW1 4302   1.019   3.914   3.580
 1426SOL    HW2 4303   1.045   3.753   3.575
 1427SOL     OW 4304   0.504   3.774   3.602
 1427SOL    HW1 4305   0.462   3.717   3.532
 1427SOL    HW2 4306   0.438   3.843   3.634
 1428SOL     OW 4307   0.573   4.594   2.891
 1428SOL    HW1 4308   0.617   4.683   2.882
 1428SOL    HW2 4309   0.510   4.594   2.968
 1429SOL     OW 4310   1.360   4.586   2.907
 1429SOL    HW1 4311   1.285   4.586   2.841
 1429SOL    HW2 4312   1.397   4.494   2.916
 1430SOL     OW 4313   1.209   4.249   2.137
 1430SOL    HW1 4314   1.222   4.165   2.191
 1430SOL    HW2 4315   1.180   4.323   2.197
 1431SOL     OW 4316   0.307   3.937   3.093
 1431SOL    HW1 4317   0.284   3.974   3.183
 1431SOL    HW2 4318   0.277   3.842   3.087
 1432SOL     OW 4319   0.037   5.034   3.144
 1432SOL    HW1 4320   0.090   4.985   3.212
 1432SOL    HW2 4321   0.059   5.132   3.149
 1433SOL     OW 4322   0.732   4.358   2.926
 1433SOL    HW1 4323   0.791   4.332   2.850
 1433SOL    HW2 4324   0.704   4.454   2.915
 1434SOL     OW 4325   1.728   4.659   3.716
 1434SOL    HW1 4326   1.682   4.652   3.627
 1434SOL    HW2 4327   1.666   4.703   3.782
 1435SOL     OW 4328   0.307   3.787   2.480
 1435SOL    HW1 4329   0.296   3.881   2.513
 1435SOL    HW2 4330   0.302   3.724   2.557
 1436SOL     OW 4331   1.622   4.091   2.236
 1436SOL    HW1 4332   1.624   4.015   2.300
 1436SOL    HW2 4333   1.574   4.168   2.276
 1437SOL     OW 4334   1.023   4.490   2.828
 1437SOL    HW1 4335   1.038   4.511   2.924
 1437SOL    HW2 4336   0.993   4.395   2.819
 1438SOL     OW 4337   1.859   5.242   3.467
 1438SOL    HW1 4338   1.873   5.269   3.372
 1438SOL    HW2 4339   1.942   5.264   3.520
 1439SOL     OW 4340   0.350   4.622   3.666
 1439SOL    HW1 4341   0.426   4.666   3.714
 1439SOL    HW2 4342   0.385   4.575   3.584
 1440SOL     OW 4343   1.540   3.998   1.987
 1440SOL    HW1 4344   1.479   3.923   2.010
 1440SOL    HW2 4345   1.562   4.050   2.070
 1441SOL     OW 4346   1.303   4.562   1.904
 1441SOL    HW1 4347   1.337   4.469   1.919
 1441SOL    HW2 4348   1.321   4.589   1.809
 1442SOL     OW 4349   0.319   4.534   2.811
 1442SOL    HW1 4350   0.412   4.570   2.816
 1442SOL    HW2 4351   0.313   4.449   2.863
 1443SOL     OW 4352   0.339   4.233   2.868
 1443SOL    HW1 4353   0.287   4.150   2.851
 1443SOL    HW2 4354   0.416   4.238   2.804
 1444SOL     OW 4355   1.138   4.104   3.540
 1444SOL    HW1 4356   1.093   4.167   3.604
 1444SOL    HW2 4357   1.231   4.135   3.523
 1445SOL     OW 4358   1.160   3.931   3.339
 1445SOL    HW1 4359   1.160   3.995   3.416
 1445SOL    HW2 4360   1.188   3.979   3.256
 1446SOL     OW 4361   0.008   5.050   2.062
 1446SOL    HW1 4362  -0.085   5.071   2.031
 1446SOL    HW2 4363   0.018   4.951   2.075
 1447SOL     OW 4364   1.002   4.520   3.100
 1447SOL    HW1 4365   1.043   4.488   3.186
 1447SOL    HW2 4366   0.906   4.493   3.097
 1448SOL     OW 4367   0.040   4.268   2.976
 1448SOL    HW1 4368   0.125   4.235   2.935
 1448SOL    HW2 4369   0.053   4.283   3.074
 1449SOL     OW 4370   0.189   4.244   3.584
 1449SOL    HW1 4371   0.248   4.204   3.514
 1449SOL    HW2 4372   0.131   4.315   3.543
 1450SOL     OW 4373   1.369   4.674   3.522
 1450SOL    HW1 4374   1.408   4.763   3.542
 1450SOL    HW2 4375   1.379   4.654   3.425
 1451SOL     OW 4376   0.815   4.296   2.187
 1451SOL    HW1 4377   0.822   4.207   2.141
 1451SOL    HW2 4378   0.721   4.330   2.179
 1452SOL     OW 4379   1.657   4.328   3.068
 1452SOL    HW1 4380   1.619   4.259   3.130
 1452SOL    HW2 4381   1.739   4.292   3.024
 1453SOL     OW 4382   0.671   4.188   3.131
 1453SOL    HW1 4383   0.637   4.099   3.101
 1453SOL    HW2 4384   0.697   4.242   3.051
 1454SOL     OW 4385   0.473   4.224   2.053
 1454SOL    HW1 4386   0.534   4.304   2.057
 1454SOL    HW2 4387   0.378   4.255   2.060
 1455SOL     OW 4388   0.159   4.861   3.328
 1455SOL    HW1 4389   0.181   4.800   3.404
 1455SOL    HW2 4390   0.169   4.812   3.242
 1456SOL     OW 4391   1.347   4.783   3.096
 1456SOL    HW1 4392   1.371   4.720   3.022
 1456SOL    HW2 4393   1.257   4.823   3.078
 1457SOL     OW 4394   1.302   4.579   2.171
 1457SOL    HW1 4395   1.216   4.548   2.213
 1457SOL    HW2 4396   1.298   4.565   2.072
 1458SOL     OW 4397   0.083   4.982   2.884
 1458SOL    HW1 4398   0.078   4.981   2.984
 1458SOL    HW2 4399   0.000   4.941   2.846
 1459SOL     OW 4400   1.726   3.859   2.385
 1459SOL    HW1 4401   1.799   3.842   2.318
 1459SOL    HW2 4402   1.695   3.772   2.423
 1460SOL     OW 4403   1.280   4.651   2.534
 1460SOL    HW1 4404   1.340   4.570   2.536
 1460SOL    HW2 4405   1.320   4.720   2.474
 1461SOL     OW 4406   0.830   4.997   3.284
 1461SOL    HW1 4407   0.825   5.030   3.379
 1461SOL    HW2 4408   0.744   5.016   3.238
 1462SOL     OW 4409   1.841   3.899   2.825
 1462SOL    HW1 4410   1.880   3.814   2.789
 1462SOL    HW2 4411   1.743   3.901   2.806
 1463SOL     OW 4412   0.263   4.050   2.582
 1463SOL    HW1 4413   0.184   4.101   2.548
 1463SOL    HW2 4414   0.254   4.035   2.680
 1464SOL     OW 4415   0.822   4.726   3.234
 1464SOL    HW1 4416   0.862   4.725   3.142
 1464SOL    HW2 4417   0.832   4.818   3.274
 1465SOL     OW 4418   0.916   4.634   2.153
 1465SOL    HW1 4419   0.979   4.672   2.085
 1465SOL    HW2 4420   0.956   4.551   2.192
 1466SOL     OW 4421   0.372   5.012   3.352
 1466SOL    HW1 4422   0.359   5.105   3.318
 1466SOL    HW2 4423   0.288   4.960   3.339
 1467SOL     OW 4424   1.614   5.016   3.151
 1467SOL    HW1 4425   1.674   5.019   3.231
 1467SOL    HW2 4426   1.539   5.080   3.164
 1468SOL     OW 4427   1.039   4.822   2.558
 1468SOL    HW1 4428   0.969   4.775   2.612
 1468SOL    HW2 4429   1.098   4.754   2.515
 1469SOL     OW 4430   1.014   3.960   2.833
 1469SOL    HW1 4431   1.006   3.924   2.740
 1469SOL    HW2 4432   1.012   3.884   2.898
 1470SOL     OW 4433   1.709   4.109   3.243
 1470SOL    HW1 4434   1.782   4.178   3.247
 1470SOL    HW2 4435   1.737   4.034   3.184
 1471SOL     OW 4436   0.105   4.737   3.588
 1471SOL    HW1 4437   0.028   4.704   3.642
 1471SOL    HW2 4438   0.190   4.707   3.630
 1472SOL     OW 4439   0.672   3.927   3.351
 1472SOL    HW1 4440   0.762   3.911   3.311
 1472SOL    HW2 4441   0.680   3.932   3.450
 1473SOL     OW 4442   0.075   4.069   1.895
 1473SOL    HW1 4443  -0.017   4.041   1.866
 1473SOL    HW2 4444   0.106   4.146   1.839
 1474SOL     OW 4445   1.440   4.580   3.260
 1474SOL    HW1 4446   1.383   4.632   3.197
 1474SOL    HW2 4447   1.536   4.592   3.236
 1475SOL     OW 4448   0.072   3.890   2.180
 1475SOL    HW1 4449   0.055   3.973   2.126
 1475SOL    HW2 4450   0.162   3.853   2.158
 1476SOL     OW 4451   0.613   4.566   3.293
 1476SOL    HW1 4452   0.669   4.647   3.276
 1476SOL    HW2 4453   0.672   4.486   3.296
 1477SOL     OW 4454   0.716   4.289   3.570
 1477SOL    HW1 4455   0.735   4.354   3.644
 1477SOL    HW2 4456   0.776   4.209   3.579
 1478SOL     OW 4457   1.450   4.944   3.495
 1478SOL    HW1 4458   1.441   4.934   3.594
 1478SOL    HW2 4459   1.546   4.937   3.469
 1479SOL     OW 4460   1.674   4.607   3.116
 1479SOL    HW1 4461   1.647   4.518   3.079
 1479SOL    HW2 4462   1.675   4.675   3.043
 1480SOL     OW 4463   1.225   4.049   2.311
 1480SOL    HW1 4464   1.290   3.975   2.300
 1480SOL    HW2 4465   1.245   4.099   2.395
 1481SOL     OW 4466   0.594   4.469   2.514
 1481SOL    HW1 4467   0.644   4.554   2.495
 1481SOL    HW2 4468   0.506   4.471   2.466
 1482SOL     OW 4469   1.777   4.066   3.504
 1482SOL    HW1 4470   1.760   4.097   3.410
 1482SOL    HW2 4471   1.693   4.029   3.542
 1483SOL     OW 4472   1.730   4.658   3.379
 1483SOL    HW1 4473   1.768   4.749   3.394
 1483SOL    HW2 4474   1.722   4.641   3.280
 1484SOL     OW 4475   0.859   5.098   1.878
 1484SOL    HW1 4476   0.813   5.113   1.966
 1484SOL    HW2 4477   0.903   5.183   1.848
 1485SOL     OW 4478   0.859   4.680   2.723
 1485SOL    HW1 4479   0.913   4.611   2.771
 1485SOL    HW2 4480   0.827   4.749   2.789
 1486SOL     OW 4481   1.083   4.708   1.949
 1486SOL    HW1 4482   1.060   4.761   1.867
 1486SOL    HW2 4483   1.164   4.652   1.930
 1487SOL     OW 4484   0.221   5.038   3.706
 1487SOL    HW1 4485   0.156   4.965   3.685
 1487SOL    HW2 4486   0.225   5.052   3.804
 1488SOL     OW 4487   0.079   4.964   2.515
 1488SOL    HW1 4488   0.078   4.917   2.603
 1488SOL    HW2 4489   0.161   4.936   2.464
 1489SOL     OW 4490   0.672   5.115   3.486
 1489SOL    HW1 4491   0.594   5.065   3.524
 1489SOL    HW2 4492   0.669   5.210   3.517
 1490SOL     OW 4493   1.824   3.916   3.089
 1490SOL    HW1 4494   1.820   3.826   3.133
 1490SOL    HW2 4495   1.827   3.905   2.990
 1491SOL     OW 4496   0.428   4.148   2.382
 1491SOL    HW1 4497   0.458   4.076   2.320
 1491SOL    HW2 4498   0.389   4.108   2.465
 1492SOL     OW 4499   1.705   5.211   2.966
 1492SOL    HW1 4500   1.612   5.186   2.939
 1492SOL    HW2 4501   1.731   5.161   3.048
 1493SOL     OW 4502   0.317   4.271   3.142
 1493SOL    HW1 4503   0.355   4.212   3.214
 1493SOL    HW2 4504   0.357   4.245   3.054
 1494SOL     OW 4505   1.424   3.938   2.974
 1494SOL    HW1 4506   1.476   3.873   3.029
 1494SOL    HW2 4507   1.375   4.001   3.035
 1495SOL     OW 4508   1.001   3.758   3.016
 1495SOL    HW1 4509   0.938   3.686   2.985
 1495SOL    HW2 4510   1.094   3.722   3.016
 1496SOL     OW 4511   0.770   5.054   2.163
 1496SOL    HW1 4512   0.724   4.967   2.180
 1496SOL    HW2 4513   0.861   5.051   2.204
 1497SOL     OW 4514   1.352   3.776   2.030
 1497SOL    HW1 4515   1.387   3.735   1.946
 1497SOL    HW2 4516   1.262   3.738   2.050
 1498SOL     OW 4517   1.300   4.177   2.553
 1498SOL    HW1 4518   1.241   4.257   2.557
 1498SOL    HW2 4519   1.315   4.142   2.646
 1499SOL     OW 4520   1.593   3.945   2.744
 1499SOL    HW1 4521   1.509   3.944   2.798
 1499SOL    HW2 4522   1.595   4.028   2.688
 1500SOL     OW 4523   0.039   4.801   2.162
 1500SOL    HW1 4524   0.138   4.790   2.153
 1500SOL    HW2 4525  -0.001   4.715   2.194
 1501SOL     OW 4526   0.230   4.352   3.837
 1501SOL    HW1 4527   0.137   4.350   3.874
 1501SOL    HW2 4528   0.231   4.313   3.745
 1502SOL     OW 4529   0.225   3.999   4.720
 1502SOL    HW1 4530   0.260   3.982   4.812
 1502SOL    HW2 4531   0.137   3.954   4.708
 1503SOL     OW 4532   0.019   4.092   4.371
 1503SOL    HW1 4533  -0.063   4.135   4.410
 1503SOL    HW2 4534  -0.009   4.019   4.308
 1504SOL     OW 4535   0.569   4.999   4.889
 1504SOL    HW1 4536   0.476   4.992   4.852
 1504SOL    HW2 4537   0.580   5.088   4.933
 1505SOL     OW 4538   1.555   5.235   4.427
 1505SOL    HW1 4539   1.498   5.219   4.508
 1505SOL    HW2 4540   1.496   5.245   4.347
 1506SOL     OW 4541   1.135   4.427   4.441
 1506SOL    HW1 4542   1.192   4.505   4.416
 1506SOL    HW2 4543   1.075   4.453   4.517
 1507SOL     OW 4544   1.755   4.331   3.955
 1507SOL    HW1 4545   1.743   4.318   3.856
 1507SOL    HW2 4546   1.725   4.250   4.004
 1508SOL     OW 4547   0.768   4.868   4.747
 1508SOL    HW1 4548   0.690   4.885   4.807
 1508SOL    HW2 4549   0.802   4.955   4.711
 1509SOL     OW 4550   0.685   4.736   4.389
 1509SOL    HW1 4551   0.754   4.720   4.459
 1509SOL    HW2 4552   0.612   4.793   4.427
 1510SOL     OW 4553   0.335   5.159   4.785
 1510SOL    HW1 4554   0.257   5.128   4.732
 1510SOL    HW2 4555   0.393   5.217   4.728
 1511SOL     OW 4556   0.438   4.116   5.223
 1511SOL    HW1 4557   0.520   4.060   5.232
 1511SOL    HW2 4558   0.357   4.058   5.227
 1512SOL     OW 4559   1.603   4.171   4.461
 1512SOL    HW1 4560   1.529   4.217   4.411
 1512SOL    HW2 4561   1.654   4.239   4.514
 1513SOL     OW 4562   0.240   4.815   4.610
 1513SOL    HW1 4563   0.254   4.731   4.662
 1513SOL    HW2 4564   0.185   4.879   4.665
 1514SOL     OW 4565   0.606   4.688   3.847
 1514SOL    HW1 4566   0.613   4.772   3.793
 1514SOL    HW2 4567   0.652   4.701   3.935
 1515SOL     OW 4568   0.122   4.367   4.287
 1515SOL    HW1 4569   0.077   4.279   4.304
 1515SOL    HW2 4570   0.121   4.421   4.371
 1516SOL     OW 4571   1.689   4.646   4.336
 1516SOL    HW1 4572   1.784   4.617   4.344
 1516SOL    HW2 4573   1.681   4.711   4.261
 1517SOL     OW 4574   1.641   4.832   4.156
 1517SOL    HW1 4575   1.727   4.834   4.104
 1517SOL    HW2 4576   1.655   4.879   4.244
 1518SOL     OW 4577   0.613   5.089   4.450
 1518SOL    HW1 4578   0.564   5.002   4.459
 1518SOL    HW2 4579   0.590   5.132   4.363
 1519SOL     OW 4580   0.809   3.728   4.226
 1519SOL    HW1 4581   0.849   3.819   4.217
 1519SOL    HW2 4582   0.709   3.736   4.232
 1520SOL     OW 4583   0.197   4.700   4.988
 1520SOL    HW1 4584   0.286   4.655   4.974
 1520SOL    HW2 4585   0.124   4.635   4.969
 1521SOL     OW 4586   1.525   4.723   3.914
 1521SOL    HW1 4587   1.462   4.647   3.927
 1521SOL    HW2 4588   1.573   4.741   4.000
 1522SOL     OW 4589   1.466   5.141   4.677
 1522SOL    HW1 4590   1.407   5.147   4.757
 1522SOL    HW2 4591   1.451   5.053   4.631
 1523SOL     OW 4592   0.598   4.453   3.994
 1523SOL    HW1 4593   0.622   4.522   3.926
 1523SOL    HW2 4594   0.520   4.486   4.048
 1524SOL     OW 4595   1.281   4.069   4.668
 1524SOL    HW1 4596   1.195   4.019   4.655
 1524SOL    HW2 4597   1.343   4.015   4.724
 1525SOL     OW 4598   0.807   4.329   5.189
 1525SOL    HW1 4599   0.760   4.326   5.278
 1525SOL    HW2 4600   0.756   4.274   5.123
 1526SOL     OW 4601   0.991   4.134   4.966
 1526SOL    HW1 4602   0.914   4.168   5.020
 1526SOL    HW2 4603   0.957   4.083   4.887
 1527SOL     OW 4604   1.041   4.425   4.153
 1527SOL    HW1 4605   1.067   4.421   4.249
 1527SOL    HW2 4606   0.956   4.374   4.139
 1528SOL     OW 4607   0.076   4.535   4.513
 1528SOL    HW1 4608   0.175   4.523   4.522
 1528SOL    HW2 4609   0.052   4.630   4.534
 1529SOL     OW 4610   0.865   4.072   3.919
 1529SOL    HW1 4611   0.924   4.135   3.870
 1529SOL    HW2 4612   0.884   3.978   3.890
 1530SOL     OW 4613   1.362   4.868   4.269
 1530SOL    HW1 4614   1.445   4.839   4.221
 1530SOL    HW2 4615   1.313   4.935   4.213
 1531SOL     OW 4616   0.550   3.920   4.609
 1531SOL    HW1 4617   0.545   3.915   4.709
 1531SOL    HW2 4618   0.552   4.016   4.580
 1532SOL     OW 4619   1.795   4.790   4.597
 1532SOL    HW1 4620   1.733   4.775   4.521
 1532SOL    HW2 4621   1.743   4.801   4.682
 1533SOL     OW 4622   0.321   4.667   3.966
 1533SOL    HW1 4623   0.403   4.706   3.924
 1533SOL    HW2 4624   0.294   4.585   3.917
 1534SOL     OW 4625   1.458   4.459   4.452
 1534SOL    HW1 4626   1.453   4.394   4.527
 1534SOL    HW2 4627   1.538   4.518   4.465
 1535SOL     OW 4628   1.632   5.101   3.805
 1535SOL    HW1 4629   1.600   5.195   3.795
 1535SOL    HW2 4630   1.556   5.038   3.793
 1536SOL     OW 4631   1.400   3.831   4.150
 1536SOL    HW1 4632   1.376   3.794   4.060
 1536SOL    HW2 4633   1.499   3.847   4.154
 1537SOL     OW 4634   0.382   4.424   4.204
 1537SOL    HW1 4635   0.427   4.334   4.201
 1537SOL    HW2 4636   0.288   4.413   4.237
 1538SOL     OW 4637   0.614   3.846   3.841
 1538SOL    HW1 4638   0.712   3.824   3.848
 1538SOL    HW2 4639   0.583   3.829   3.748
 1539SOL     OW 4640   0.922   4.227   4.623
 1539SOL    HW1 4641   0.897   4.218   4.527
 1539SOL    HW2 4642   0.970   4.145   4.654
 1540SOL     OW 4643   0.539   3.788   4.236
 1540SOL    HW1 4644   0.458   3.789   4.294
 1540SOL    HW2 4645   0.542   3.871   4.181
 1541SOL     OW 4646   1.434   4.912   3.765
 1541SOL    HW1 4647   1.466   4.836   3.822
 1541SOL    HW2 4648   1.342   4.939   3.795
 1542SOL     OW 4649   0.297   3.759   3.895
 1542SOL    HW1 4650   0.346   3.843   3.874
 1542SOL    HW2 4651   0.359   3.694   3.940
 1543SOL     OW 4652   0.935   3.960   4.204
 1543SOL    HW1 4653   0.887   4.001   4.126
 1543SOL    HW2 4654   1.034   3.958   4.185
 1544SOL     OW 4655   1.227   5.294   4.517
 1544SOL    HW1 4656   1.248   5.368   4.452
 1544SOL    HW2 4657   1.295   5.294   4.590
 1545SOL     OW 4658   0.459   4.876   4.465
 1545SOL    HW1 4659   0.388   4.849   4.530
 1545SOL    HW2 4660   0.433   4.848   4.372
 1546SOL     OW 4661   1.032   4.273   3.740
 1546SOL    HW1 4662   0.991   4.355   3.701
 1546SOL    HW2 4663   1.096   4.299   3.813
 1547SOL     OW 4664   0.561   3.946   4.871
 1547SOL    HW1 4665   0.599   3.862   4.908
 1547SOL    HW2 4666   0.473   3.965   4.915
 1548SOL     OW 4667   0.866   4.178   4.366
 1548SOL    HW1 4668   0.834   4.250   4.304
 1548SOL    HW2 4669   0.890   4.097   4.313
 1549SOL     OW 4670   1.017   3.763   4.477
 1549SOL    HW1 4671   0.945   3.768   4.408
 1549SOL    HW2 4672   0.993   3.694   4.546
 1550SOL     OW 4673   1.429   4.897   4.591
 1550SOL    HW1 4674   1.374   4.813   4.584
 1550SOL    HW2 4675   1.455   4.926   4.499
 1551SOL     OW 4676   1.466   4.314   4.716
 1551SOL    HW1 4677   1.436   4.219   4.723
 1551SOL    HW2 4678   1.539   4.330   4.782
 1552SOL     OW 4679   1.857   4.557   4.101
 1552SOL    HW1 4680   1.899   4.493   4.165
 1552SOL    HW2 4681   1.819   4.506   4.023
 1553SOL     OW 4682   1.664   5.004   4.381
 1553SOL    HW1 4683   1.763   5.012   4.395
 1553SOL    HW2 4684   1.619   5.088   4.412
 1554SOL     OW 4685   1.390   4.299   3.802
 1554SOL    HW1 4686   1.336   4.278   3.883
 1554SOL    HW2 4687   1.481   4.258   3.811
 1555SOL     OW 4688   0.527   3.980   4.052
 1555SOL    HW1 4689   0.554   3.921   3.977
 1555SOL    HW2 4690   0.527   4.075   4.021
 1556SOL     OW 4691   1.754   4.947   5.312
 1556SOL    HW1 4692   1.845   4.908   5.299
 1556SOL    HW2 4693   1.762   5.043   5.336
 1557SOL     OW 4694   1.064   5.071   5.064
 1557SOL    HW1 4695   0.984   5.048   5.119
 1557SOL    HW2 4696   1.147   5.045   5.113
 1558SOL     OW 4697   1.111   4.919   4.824
 1558SOL    HW1 4698   1.071   4.963   4.905
 1558SOL    HW2 4699   1.070   4.956   4.741
 1559SOL     OW 4700   1.638   4.823   4.803
 1559SOL    HW1 4701   1.643   4.904   4.862
 1559SOL    HW2 4702   1.552   4.825   4.752
 1560SOL     OW 4703   0.705   4.774   4.092
 1560SOL    HW1 4704   0.691   4.781   4.191
 1560SOL    HW2 4705   0.789   4.723   4.074
 1561SOL     OW 4706   0.410   4.537   4.975
 1561SOL    HW1 4707   0.496   4.549   5.025
 1561SOL    HW2 4708   0.368   4.450   5.002
 1562SOL     OW 4709   1.274   4.110   4.986
 1562SOL    HW1 4710   1.295   4.184   5.050
 1562SOL    HW2 4711   1.185   4.127   4.943
 1563SOL     OW 4712   0.064   5.288   5.055
 1563SOL    HW1 4713   0.018   5.370   5.021
 1563SOL    HW2 4714   0.162   5.307   5.064
 1564SOL     OW 4715   0.367   4.824   4.225
 1564SOL    HW1 4716   0.360   4.907   4.169
 1564SOL    HW2 4717   0.371   4.744   4.165
 1565SOL     OW 4718   0.566   4.261   4.589
 1565SOL    HW1 4719   0.578   4.327   4.515
 1565SOL    HW2 4720   0.612   4.295   4.672
 1566SOL     OW 4721   1.252   5.072   4.112
 1566SOL    HW1 4722   1.302   5.149   4.152
 1566SOL    HW2 4723   1.157   5.074   4.144
 1567SOL     OW 4724   1.582   4.363   4.196
 1567SOL    HW1 4725   1.551   4.424   4.269
 1567SOL    HW2 4726   1.632   4.415   4.127
 1568SOL     OW 4727   0.573   4.594   4.753
 1568SOL    HW1 4728   0.617   4.683   4.744
 1568SOL    HW2 4729   0.510   4.594   4.830
 1569SOL     OW 4730   1.360   4.586   4.769
 1569SOL    HW1 4731   1.285   4.586   4.703
 1569SOL    HW2 4732   1.397   4.494   4.778
 1570SOL     OW 4733   1.209   4.249   3.999
 1570SOL    HW1 4734   1.222   4.165   4.053
 1570SOL    HW2 4735   1.180   4.323   4.059
 1571SOL     OW 4736   0.307   3.937   4.955
 1571SOL    HW1 4737   0.284   3.974   5.045
 1571SOL    HW2 4738   0.277   3.842   4.949
 1572SOL     OW 4739   0.037   5.034   5.006
 1572SOL    HW1 4740   0.090   4.985   5.074
 1572SOL    HW2 4741   0.059   5.132   5.011
 1573SOL     OW 4742   0.732   4.358   4.788
 1573SOL    HW1 4743   0.791   4.332   4.712
 1573SOL    HW2 4744   0.704   4.454   4.777
 1574SOL     OW 4745   0.307   3.787   4.342
 1574SOL    HW1 4746   0.296   3.881   4.375
 1574SOL    HW2 4747   0.302   3.724   4.419
 1575SOL     OW 4748   1.622   4.091   4.098
 1575SOL    HW1 4749   1.624   4.015   4.162
 1575SOL    HW2 4750   1.574   4.168   4.138
 1576SOL     OW 4751   1.023   4.490   4.690
 1576SOL    HW1 4752   1.038   4.511   4.786
 1576SOL    HW2 4753   0.993   4.395   4.681
 1577SOL     OW 4754   1.540   3.998   3.849
 1577SOL    HW1 4755   1.479   3.923   3.872
 1577SOL    HW2 4756   1.562   4.050   3.932
 1578SOL     OW 4757   1.303   4.562   3.766
 1578SOL    HW1 4758   1.337   4.469   3.781
 1578SOL    HW2 4759   1.321   4.589   3.671
 1579SOL     OW 4760   0.319   4.534   4.673
 1579SOL    HW1 4761   0.412   4.570   4.678
 1579SOL    HW2 4762   0.313   4.449   4.725
 1580SOL     OW 4763   0.339   4.233   4.730
 1580SOL    HW1 4764   0.287   4.150   4.713
 1580SOL    HW2 4765   0.416   4.238   4.666
 1581SOL     OW 4766   1.160   3.931   5.201
 1581SOL    HW1 4767   1.160   3.995   5.278
 1581SOL    HW2 4768   1.188   3.979   5.118
 1582SOL     OW 4769   0.008   5.050   3.924
 1582SOL    HW1 4770  -0.085   5.071   3.893
 1582SOL    HW2 4771   0.018   4.951   3.937
 1583SOL     OW 4772   1.002   4.520   4.962
 1583SOL    HW1 4773   1.043   4.488   5.048
 1583SOL    HW2 4774   0.906   4.493   4.959
 1584SOL     OW 4775   0.040   4.268   4.838
 1584SOL    HW1 4776   0.125   4.235   4.797
 1584SOL    HW2 4777   0.053   4.283   4.936
 1585SOL     OW 4778   0.815   4.296   4.049
 1585SOL    HW1 4779   0.822   4.207   4.003
 1585SOL    HW2 4780   0.721   4.330   4.041
 1586SOL     OW 4781   1.657   4.328   4.930
 1586SOL    HW1 4782   1.619   4.259   4.992
 1586SOL    HW2 4783   1.739   4.292   4.886
 1587SOL     OW 4784   0.671   4.188   4.993
 1587SOL    HW1 4785   0.637   4.099   4.963
 1587SOL    HW2 4786   0.697   4.242   4.913
 1588SOL     OW 4787   0.473   4.224   3.915
 1588SOL    HW1 4788   0.534   4.304   3.919
 1588SOL    HW2 4789   0.378   4.255   3.922
 1589SOL     OW 4790   0.159   4.861   5.190
 1589SOL    HW1 4791   0.181   4.800   5.266
 1589SOL    HW2 4792   0.169   4.812   5.104
 1590SOL     OW 4793   1.347   4.783   4.958
 1590SOL    HW1 4794   1.371   4.720   4.884
 1590SOL    HW2 4795   1.257   4.823   4.940
 1591SOL     OW 4796   1.302   4.579   4.033
 1591SOL    HW1 4797   1.216   4.548   4.075
 1591SOL    HW2 4798   1.298   4.565   3.934
 1592SOL     OW 4799   0.083   4.982   4.746
 1592SOL    HW1 4800   0.078   4.981   4.846
 1592SOL    HW2 4801   0.000   4.941   4.708
 1593SOL     OW 4802   1.726   3.859   4.247
 1593SOL    HW1 4803   1.799   3.842   4.180
 1593SOL    HW2 4804   1.695   3.772   4.285
 1594SOL     OW 4805   1.280   4.651   4.396
 1594SOL    HW1 4806   1.340   4.570   4.398
 1594SOL    HW2 4807   1.320   4.720   4.336
 1595SOL     OW 4808   0.830   4.997   5.146
 1595SOL    HW1 4809   0.825   5.030   5.241
 1595SOL    HW2 4810   0.744   5.016   5.100
 1596SOL     OW 4811   1.841   3.899   4.687
 1596SOL    HW1 4812   1.880   3.814   4.651
 1596SOL    HW2 4813   1.743   3.901   4.668
 1597SOL     OW 4814   0.263   4.050   4.444
 1597SOL    HW1 4815   0.184   4.101   4.410
 1597SOL    HW2 4816   0.254   4.035   4.542
 1598SOL     OW 4817   0.822   4.726   5.096
 1598SOL    HW1 4818   0.862   4.725   5.004
 1598SOL    HW2 4819   0.832   4.818   5.136
 1599SOL     OW 4820   0.916   4.634   4.015
 1599SOL    HW1 4821   0.979   4.672   3.947
 1599SOL    HW2 4822   0.956   4.551   4.054
 1600SOL     OW 4823   0.372   5.012   5.214
 1600SOL    HW1 4824   0.359   5.105   5.180
 1600SOL    HW2 4825   0.288   4.960   5.201
 1601SOL     OW 4826   1.614   5.016   5.013
 1601SOL    HW1 4827   1.674   5.019   5.093
 1601SOL    HW2 4828   1.539   5.080   5.026
 1602SOL     OW 4829   1.039   4.822   4.420
 1602SOL    HW1 4830   0.969   4.775   4.474
 1602SOL    HW2 4831   1.098   4.754   4.377
 1603SOL     OW 4832   1.014   3.960   4.695
 1603SOL    HW1 4833   1.006   3.924   4.602
 1603SOL    HW2 4834   1.012   3.884   4.760
 1604SOL     OW 4835   1.709   4.109   5.105
 1604SOL    HW1 4836   1.782   4.178   5.109
 1604SOL    HW2 4837   1.737   4.034   5.046
 1605SOL     OW 4838   0.672   3.927   5.213
 1605SOL    HW1 4839   0.762   3.911   5.173
 1605SOL    HW2 4840   0.680   3.932   5.312
 1606SOL     OW 4841   0.075   4.069   3.757
 1606SOL    HW1 4842  -0.017   4.041   3.728
 1606SOL    HW2 4843   0.106   4.146   3.701
 1607SOL     OW 4844   0.072   3.890   4.042
 1607SOL    HW1 4845   0.055   3.973   3.988
 1607SOL    HW2 4846   0.162   3.853   4.020
 1608SOL     OW 4847   0.613   4.566   5.155
 1608SOL    HW1 4848   0.669   4.647   5.138
 1608SOL    HW2 4849   0.672   4.486   5.158
 1609SOL     OW 4850   1.674   4.607   4.978
 1609SOL    HW1 4851   1.647   4.518   4.941
 1609SOL    HW2 4852   1.675   4.675   4.905
 1610SOL     OW 4853   1.225   4.049   4.173
 1610SOL    HW1 4854   1.290   3.975   4.162
 1610SOL    HW2 4855   1.245   4.099   4.257
 1611SOL     OW 4856   0.594   4.469   4.376
 1611SOL    HW1 4857   0.644   4.554   4.357
 1611SOL    HW2 4858   0.506   4.471   4.328
 1612SOL     OW 4859   1.730   4.658   5.241
 1612SOL    HW1 4860   1.768   4.749   5.256
 1612SOL    HW2 4861   1.722   4.641   5.142
 1613SOL     OW 4862   0.859   5.098   3.740
 1613SOL    HW1 4863   0.813   5.113   3.828
 1613SOL    HW2 4864   0.903   5.183   3.710
 1614SOL     OW 4865   0.859   4.680   4.585
 1614SOL    HW1 4866   0.913   4.611   4.633
 1614SOL    HW2 4867   0.827   4.749   4.651
 1615SOL     OW 4868   1.083   4.708   3.811
 1615SOL    HW1 4869   1.060   4.761   3.729
 1615SOL    HW2 4870   1.164   4.652   3.792
 1616SOL     OW 4871   0.079   4.964   4.377
 1616SOL    HW1 4872   0.078   4.917   4.465
 1616SOL    HW2 4873   0.161   4.936   4.326
 1617SOL     OW 4874   1.824   3.916   4.951
 1617SOL    HW1 4875   1.820   3.826   4.995
 1617SOL    HW2 4876   1.827   3.905   4.852
 1618SOL     OW 4877   0.428   4.148   4.244
 1618SOL    HW1 4878   0.458   4.076   4.182
 1618SOL    HW2 4879   0.389   4.108   4.327
 1619SOL     OW 4880   1.705   5.211   4.828
 1619SOL    HW1 4881   1.612   5.186   4.801
 1619SOL    HW2 4882   1.731   5.161   4.910
 1620SOL     OW 4883   0.317   4.271   5.004
 1620SOL    HW1 4884   0.355   4.212   5.076
 1620SOL    HW2 4885   0.357   4.245   4.916
 1621SOL     OW 4886   1.424   3.938   4.836
 1621SOL    HW1 4887   1.476   3.873   4.891
 1621SOL    HW2 4888   1.375   4.001   4.897
 1622SOL     OW 4889   1.001   3.758   4.878
 1622SOL    HW1 4890   0.938   3.686   4.847
 1622SOL    HW2 4891   1.094   3.722   4.878
 1623SOL     OW 4892   0.770   5.054   4.025
 1623SOL    HW1 4893   0.724   4.967   4.042
 1623SOL    HW2 4894   0.861   5.051   4.066
 1624SOL     OW 4895   1.352   3.776   3.892
 1624SOL    HW1 4896   1.387   3.735   3.808
 1624SOL    HW2 4897   1.262   3.738   3.912
 1625SOL     OW 4898   1.300   4.177   4.415
 1625SOL    HW1 4899   1.241   4.257   4.419
 1625SOL    HW2 4900   1.315   4.142   4.508
 1626SOL     OW 4901   1.593   3.945   4.606
 1626SOL    HW1 4902   1.509   3.944   4.660
 1626SOL    HW2 4903   1.595   4.028   4.550
 1627SOL     OW 4904   0.039   4.801   4.024
 1627SOL    HW1 4905   0.138   4.790   4.015
 1627SOL    HW2 4906  -0.001   4.715   4.056
 1628SOL     OW 4907   2.092   0.628   0.113
 1628SOL    HW1 4908   1.999   0.626   0.150
 1628SOL    HW2 4909   2.093   0.589   0.021
 1629SOL     OW 4910   2.087   0.275   0.996
 1629SOL    HW1 4911   2.122   0.258   1.088
 1629SOL    HW2 4912   1.999   0.230   0.984
 1630SOL     OW 4913   1.881   0.368   0.647
 1630SOL    HW1 4914   1.799   0.411   0.686
 1630SOL    HW2 4915   1.853   0.295   0.584
 1631SOL     OW 4916   2.431   1.275   1.165
 1631SOL    HW1 4917   2.338   1.268   1.128
 1631SOL    HW2 4918   2.442   1.364   1.209
 1632SOL     OW 4919   3.417   1.511   0.703
 1632SOL    HW1 4920   3.360   1.495   0.784
 1632SOL    HW2 4921   3.358   1.521   0.623
 1633SOL     OW 4922   2.997   0.703   0.717
 1633SOL    HW1 4923   3.054   0.781   0.692
 1633SOL    HW2 4924   2.937   0.729   0.793
 1634SOL     OW 4925   3.617   0.607   0.231
 1634SOL    HW1 4926   3.605   0.594   0.132
 1634SOL    HW2 4927   3.587   0.526   0.280
 1635SOL     OW 4928   2.630   1.144   1.023
 1635SOL    HW1 4929   2.552   1.161   1.083
 1635SOL    HW2 4930   2.664   1.231   0.987
 1636SOL     OW 4931   2.712   0.798   1.823
 1636SOL    HW1 4932   2.708   0.874   1.888
 1636SOL    HW2 4933   2.734   0.834   1.732
 1637SOL     OW 4934   2.547   1.012   0.665
 1637SOL    HW1 4935   2.616   0.996   0.735
 1637SOL    HW2 4936   2.474   1.069   0.703
 1638SOL     OW 4937   2.548   1.161   1.803
 1638SOL    HW1 4938   2.608   1.240   1.817
 1638SOL    HW2 4939   2.462   1.192   1.762
 1639SOL     OW 4940   2.197   1.435   1.061
 1639SOL    HW1 4941   2.119   1.404   1.008
 1639SOL    HW2 4942   2.255   1.493   1.004
 1640SOL     OW 4943   3.322   1.505   1.339
 1640SOL    HW1 4944   3.346   1.599   1.365
 1640SOL    HW2 4945   3.306   1.451   1.421
 1641SOL     OW 4946   2.300   0.392   1.499
 1641SOL    HW1 4947   2.382   0.336   1.508
 1641SOL    HW2 4948   2.219   0.334   1.503
 1642SOL     OW 4949   3.465   0.447   0.737
 1642SOL    HW1 4950   3.391   0.493   0.687
 1642SOL    HW2 4951   3.516   0.515   0.790
 1643SOL     OW 4952   2.093   1.713   0.483
 1643SOL    HW1 4953   2.127   1.790   0.537
 1643SOL    HW2 4954   2.137   1.713   0.393
 1644SOL     OW 4955   2.989   1.341   1.690
 1644SOL    HW1 4956   3.036   1.341   1.778
 1644SOL    HW2 4957   2.941   1.254   1.679
 1645SOL     OW 4958   2.092   1.434   0.538
 1645SOL    HW1 4959   2.066   1.530   0.538
 1645SOL    HW2 4960   2.021   1.380   0.583
 1646SOL     OW 4961   2.102   1.091   0.886
 1646SOL    HW1 4962   2.116   1.007   0.938
 1646SOL    HW2 4963   2.047   1.155   0.941
 1647SOL     OW 4964   2.482   1.786   1.439
 1647SOL    HW1 4965   2.390   1.769   1.474
 1647SOL    HW2 4966   2.510   1.878   1.465
 1648SOL     OW 4967   2.468   0.964   0.123
 1648SOL    HW1 4968   2.475   1.048   0.069
 1648SOL    HW2 4969   2.514   0.977   0.211
 1649SOL     OW 4970   3.456   0.114   1.480
 1649SOL    HW1 4971   3.438   0.181   1.408
 1649SOL    HW2 4972   3.453   0.160   1.569
 1650SOL     OW 4973   1.984   0.643   0.563
 1650SOL    HW1 4974   1.939   0.555   0.580
 1650SOL    HW2 4975   1.983   0.697   0.647
 1651SOL     OW 4976   3.704   1.767   0.359
 1651SOL    HW1 4977   3.758   1.738   0.439
 1651SOL    HW2 4978   3.734   1.857   0.330
 1652SOL     OW 4979   1.889   1.596   0.117
 1652SOL    HW1 4980   1.870   1.500   0.138
 1652SOL    HW2 4981   1.856   1.654   0.192
 1653SOL     OW 4982   3.551   0.922   0.612
 1653SOL    HW1 4983   3.646   0.893   0.620
 1653SOL    HW2 4984   3.543   0.987   0.537
 1654SOL     OW 4985   3.503   1.108   0.432
 1654SOL    HW1 4986   3.589   1.110   0.380
 1654SOL    HW2 4987   3.517   1.155   0.520
 1655SOL     OW 4988   1.975   0.737   1.597
 1655SOL    HW1 4989   2.063   0.724   1.642
 1655SOL    HW2 4990   1.962   0.834   1.575
 1656SOL     OW 4991   2.475   1.365   0.726
 1656SOL    HW1 4992   2.426   1.278   0.735
 1656SOL    HW2 4993   2.452   1.408   0.639
 1657SOL     OW 4994   3.155   1.228   1.423
 1657SOL    HW1 4995   3.192   1.155   1.365
 1657SOL    HW2 4996   3.207   1.233   1.508
 1658SOL     OW 4997   2.671   0.004   0.502
 1658SOL    HW1 4998   2.711   0.095   0.493
 1658SOL    HW2 4999   2.571   0.012   0.508
 1659SOL     OW 5000   2.059   0.976   1.264
 1659SOL    HW1 5001   2.148   0.931   1.250
 1659SOL    HW2 5002   1.986   0.911   1.245
 1660SOL     OW 5003   3.387   0.999   0.190
 1660SOL    HW1 5004   3.324   0.923   0.203
 1660SOL    HW2 5005   3.435   1.017   0.276
 1661SOL     OW 5006   3.049   1.792   1.616
 1661SOL    HW1 5007   3.073   1.852   1.540
 1661SOL    HW2 5008   3.056   1.697   1.586
 1662SOL     OW 5009   2.179   0.251   1.801
 1662SOL    HW1 5010   2.250   0.322   1.807
 1662SOL    HW2 5011   2.091   0.290   1.829
 1663SOL     OW 5012   3.328   1.417   0.953
 1663SOL    HW1 5013   3.269   1.423   1.033
 1663SOL    HW2 5014   3.313   1.329   0.907
 1664SOL     OW 5015   3.529   1.714   0.572
 1664SOL    HW1 5016   3.488   1.691   0.484
 1664SOL    HW2 5017   3.511   1.640   0.637
 1665SOL     OW 5018   2.460   0.729   0.270
 1665SOL    HW1 5019   2.484   0.798   0.202
 1665SOL    HW2 5020   2.382   0.762   0.324
 1666SOL     OW 5021   3.143   0.345   0.944
 1666SOL    HW1 5022   3.057   0.295   0.931
 1666SOL    HW2 5023   3.205   0.291   1.000
 1667SOL     OW 5024   3.438   1.662   0.307
 1667SOL    HW1 5025   3.527   1.708   0.310
 1667SOL    HW2 5026   3.417   1.638   0.212
 1668SOL     OW 5027   2.669   0.605   1.465
 1668SOL    HW1 5028   2.622   0.602   1.554
 1668SOL    HW2 5029   2.618   0.550   1.399
 1669SOL     OW 5030   3.256   0.469   1.674
 1669SOL    HW1 5031   3.236   0.512   1.762
 1669SOL    HW2 5032   3.334   0.407   1.683
 1670SOL     OW 5033   2.835   0.890   1.572
 1670SOL    HW1 5034   2.881   0.806   1.543
 1670SOL    HW2 5035   2.779   0.924   1.497
 1671SOL     OW 5036   2.853   0.410   1.242
 1671SOL    HW1 5037   2.776   0.444   1.296
 1671SOL    HW2 5038   2.819   0.359   1.163
 1672SOL     OW 5039   2.903   0.701   0.429
 1672SOL    HW1 5040   2.929   0.697   0.525
 1672SOL    HW2 5041   2.818   0.650   0.415
 1673SOL     OW 5042   1.938   0.811   0.789
 1673SOL    HW1 5043   2.037   0.799   0.798
 1673SOL    HW2 5044   1.914   0.906   0.810
 1674SOL     OW 5045   1.992   1.821   1.571
 1674SOL    HW1 5046   1.982   1.806   1.670
 1674SOL    HW2 5047   1.906   1.857   1.535
 1675SOL     OW 5048   2.727   0.348   0.195
 1675SOL    HW1 5049   2.786   0.411   0.146
 1675SOL    HW2 5050   2.746   0.254   0.166
 1676SOL     OW 5051   3.581   0.585   1.831
 1676SOL    HW1 5052   3.555   0.674   1.795
 1676SOL    HW2 5053   3.579   0.517   1.758
 1677SOL     OW 5054   3.224   1.144   0.545
 1677SOL    HW1 5055   3.307   1.115   0.497
 1677SOL    HW2 5056   3.175   1.211   0.489
 1678SOL     OW 5057   2.412   0.196   0.885
 1678SOL    HW1 5058   2.407   0.191   0.985
 1678SOL    HW2 5059   2.414   0.292   0.856
 1679SOL     OW 5060   2.870   1.456   0.477
 1679SOL    HW1 5061   2.824   1.528   0.425
 1679SOL    HW2 5062   2.866   1.476   0.575
 1680SOL     OW 5063   2.213   1.801   0.853
 1680SOL    HW1 5064   2.263   1.715   0.859
 1680SOL    HW2 5065   2.278   1.878   0.850
 1681SOL     OW 5066   3.657   1.066   0.873
 1681SOL    HW1 5067   3.595   1.051   0.797
 1681SOL    HW2 5068   3.605   1.077   0.958
 1682SOL     OW 5069   3.089   1.550   1.506
 1682SOL    HW1 5070   3.095   1.473   1.570
 1682SOL    HW2 5071   3.037   1.524   1.426
 1683SOL     OW 5072   2.183   0.943   0.242
 1683SOL    HW1 5073   2.265   0.982   0.200
 1683SOL    HW2 5074   2.156   0.861   0.193
 1684SOL     OW 5075   3.320   0.735   0.728
 1684SOL    HW1 5076   3.315   0.670   0.803
 1684SOL    HW2 5077   3.400   0.794   0.741
 1685SOL     OW 5078   2.323   1.266   1.727
 1685SOL    HW1 5079   2.273   1.267   1.641
 1685SOL    HW2 5080   2.260   1.248   1.803
 1686SOL     OW 5081   2.973   1.776   0.237
 1686SOL    HW1 5082   2.913   1.714   0.287
 1686SOL    HW2 5083   3.004   1.732   0.152
 1687SOL     OW 5084   2.064   0.285   1.498
 1687SOL    HW1 5085   1.984   0.345   1.485
 1687SOL    HW2 5086   2.054   0.236   1.584
 1688SOL     OW 5087   3.494   1.377   0.081
 1688SOL    HW1 5088   3.462   1.471   0.071
 1688SOL    HW2 5089   3.418   1.314   0.069
 1689SOL     OW 5090   2.326   1.743   0.323
 1689SOL    HW1 5091   2.359   1.782   0.409
 1689SOL    HW2 5092   2.402   1.736   0.258
 1690SOL     OW 5093   3.262   0.107   0.426
 1690SOL    HW1 5094   3.238   0.070   0.336
 1690SOL    HW2 5095   3.361   0.123   0.430
 1691SOL     OW 5096   2.111   1.785   1.241
 1691SOL    HW1 5097   2.168   1.720   1.291
 1691SOL    HW2 5098   2.095   1.752   1.148
 1692SOL     OW 5099   2.802   1.698   0.904
 1692SOL    HW1 5100   2.882   1.641   0.925
 1692SOL    HW2 5101   2.753   1.658   0.827
 1693SOL     OW 5102   2.244   0.700   0.480
 1693SOL    HW1 5103   2.289   0.610   0.477
 1693SOL    HW2 5104   2.150   0.689   0.513
 1694SOL     OW 5105   3.409   0.222   1.729
 1694SOL    HW1 5106   3.404   0.259   1.821
 1694SOL    HW2 5107   3.337   0.153   1.717
 1695SOL     OW 5108   2.476   0.122   0.117
 1695SOL    HW1 5109   2.574   0.100   0.124
 1695SOL    HW2 5110   2.445   0.105   0.024
 1696SOL     OW 5111   2.643   0.264   1.749
 1696SOL    HW1 5112   2.710   0.203   1.792
 1696SOL    HW2 5113   2.570   0.283   1.814
 1697SOL     OW 5114   2.750   1.514   1.195
 1697SOL    HW1 5115   2.727   1.489   1.101
 1697SOL    HW2 5116   2.811   1.445   1.234
 1698SOL     OW 5117   3.213   0.590   1.433
 1698SOL    HW1 5118   3.241   0.547   1.518
 1698SOL    HW2 5119   3.238   0.686   1.434
 1699SOL     OW 5120   2.665   1.402   0.924
 1699SOL    HW1 5121   2.755   1.416   0.882
 1699SOL    HW2 5122   2.594   1.404   0.853
 1700SOL     OW 5123   2.784   0.503   0.899
 1700SOL    HW1 5124   2.759   0.494   0.803
 1700SOL    HW2 5125   2.832   0.421   0.930
 1701SOL     OW 5126   2.401   0.064   0.512
 1701SOL    HW1 5127   2.320   0.065   0.570
 1701SOL    HW2 5128   2.404   0.147   0.457
 1702SOL     OW 5129   3.296   1.188   0.041
 1702SOL    HW1 5130   3.328   1.112   0.098
 1702SOL    HW2 5131   3.204   1.215   0.071
 1703SOL     OW 5132   2.159   0.035   0.171
 1703SOL    HW1 5133   2.208   0.119   0.150
 1703SOL    HW2 5134   2.221  -0.030   0.216
 1704SOL     OW 5135   2.797   0.236   0.480
 1704SOL    HW1 5136   2.749   0.277   0.402
 1704SOL    HW2 5137   2.896   0.234   0.461
 1705SOL     OW 5138   2.938   0.683   1.464
 1705SOL    HW1 5139   2.858   0.622   1.467
 1705SOL    HW2 5140   3.019   0.630   1.440
 1706SOL     OW 5141   3.089   1.570   0.793
 1706SOL    HW1 5142   3.110   1.644   0.728
 1706SOL    HW2 5143   3.157   1.570   0.866
 1707SOL     OW 5144   2.321   1.152   0.741
 1707SOL    HW1 5145   2.250   1.125   0.806
 1707SOL    HW2 5146   2.295   1.124   0.648
 1708SOL     OW 5147   3.133   1.797   0.591
 1708SOL    HW1 5148   3.177   1.861   0.527
 1708SOL    HW2 5149   3.083   1.849   0.661
 1709SOL     OW 5150   2.894   0.549   0.016
 1709SOL    HW1 5151   2.853   0.631  -0.023
 1709SOL    HW2 5152   2.958   0.575   0.089
 1710SOL     OW 5153   1.940   0.556   1.386
 1710SOL    HW1 5154   2.032   0.555   1.345
 1710SOL    HW2 5155   1.934   0.630   1.453
 1711SOL     OW 5156   2.423   0.222   1.147
 1711SOL    HW1 5157   2.461   0.138   1.184
 1711SOL    HW2 5158   2.335   0.241   1.191
 1712SOL     OW 5159   2.728   0.454   0.642
 1712SOL    HW1 5160   2.696   0.526   0.580
 1712SOL    HW2 5161   2.752   0.373   0.589
 1713SOL     OW 5162   2.879   0.039   0.753
 1713SOL    HW1 5163   2.807   0.044   0.684
 1713SOL    HW2 5164   2.855  -0.030   0.822
 1714SOL     OW 5165   3.291   1.173   0.867
 1714SOL    HW1 5166   3.236   1.089   0.860
 1714SOL    HW2 5167   3.317   1.202   0.775
 1715SOL     OW 5168   3.328   0.590   0.992
 1715SOL    HW1 5169   3.298   0.495   0.999
 1715SOL    HW2 5170   3.401   0.606   1.058
 1716SOL     OW 5171   3.719   0.833   0.377
 1716SOL    HW1 5172   3.761   0.769   0.441
 1716SOL    HW2 5173   3.681   0.782   0.299
 1717SOL     OW 5174   2.350   1.385   0.174
 1717SOL    HW1 5175   2.263   1.370   0.221
 1717SOL    HW2 5176   2.333   1.411   0.079
 1718SOL     OW 5177   3.526   1.280   0.657
 1718SOL    HW1 5178   3.625   1.288   0.671
 1718SOL    HW2 5179   3.481   1.364   0.688
 1719SOL     OW 5180   3.252   0.575   0.078
 1719SOL    HW1 5181   3.198   0.554   0.159
 1719SOL    HW2 5182   3.343   0.534   0.087
 1720SOL     OW 5183   2.389   0.256   0.328
 1720SOL    HW1 5184   2.416   0.197   0.253
 1720SOL    HW2 5185   2.389   0.351   0.297
 1721SOL     OW 5186   3.616   1.223   1.588
 1721SOL    HW1 5187   3.707   1.184   1.575
 1721SOL    HW2 5188   3.624   1.319   1.612
 1722SOL     OW 5189   2.926   1.347   1.340
 1722SOL    HW1 5190   2.846   1.324   1.395
 1722SOL    HW2 5191   3.009   1.321   1.389
 1723SOL     OW 5192   3.454   1.629   1.625
 1723SOL    HW1 5193   3.481   1.663   1.535
 1723SOL    HW2 5194   3.533   1.591   1.671
 1724SOL     OW 5195   2.973   1.195   1.100
 1724SOL    HW1 5196   2.933   1.239   1.181
 1724SOL    HW2 5197   2.932   1.232   1.017
 1725SOL     OW 5198   3.500   1.099   1.079
 1725SOL    HW1 5199   3.505   1.180   1.138
 1725SOL    HW2 5200   3.414   1.101   1.028
 1726SOL     OW 5201   2.777   0.089   1.402
 1726SOL    HW1 5202   2.802   0.069   1.307
 1726SOL    HW2 5203   2.849   0.145   1.444
 1727SOL     OW 5204   2.842   1.116   1.719
 1727SOL    HW1 5205   2.743   1.122   1.729
 1727SOL    HW2 5206   2.865   1.036   1.663
 1728SOL     OW 5207   2.567   1.050   0.368
 1728SOL    HW1 5208   2.553   1.057   0.467
 1728SOL    HW2 5209   2.651   0.999   0.350
 1729SOL     OW 5210   2.272   0.813   1.251
 1729SOL    HW1 5211   2.358   0.825   1.301
 1729SOL    HW2 5212   2.230   0.726   1.278
 1730SOL     OW 5213   3.136   0.386   1.262
 1730SOL    HW1 5214   3.157   0.460   1.326
 1730SOL    HW2 5215   3.047   0.403   1.219
 1731SOL     OW 5216   1.926   1.564   1.331
 1731SOL    HW1 5217   1.880   1.646   1.297
 1731SOL    HW2 5218   2.024   1.583   1.340
 1732SOL     OW 5219   2.229   1.100   0.501
 1732SOL    HW1 5220   2.222   1.183   0.445
 1732SOL    HW2 5221   2.233   1.020   0.441
 1733SOL     OW 5222   2.428   0.537   0.865
 1733SOL    HW1 5223   2.440   0.603   0.791
 1733SOL    HW2 5224   2.474   0.571   0.948
 1734SOL     OW 5225   3.114   1.348   0.388
 1734SOL    HW1 5226   3.164   1.425   0.428
 1734SOL    HW2 5227   3.019   1.350   0.420
 1735SOL     OW 5228   3.134   1.445   1.142
 1735SOL    HW1 5229   3.181   1.458   1.229
 1735SOL    HW2 5230   3.068   1.371   1.151
 1736SOL     OW 5231   3.444   0.639   0.472
 1736SOL    HW1 5232   3.413   0.700   0.545
 1736SOL    HW2 5233   3.494   0.691   0.403
 1737SOL     OW 5234   2.216   1.510   1.329
 1737SOL    HW1 5235   2.195   1.466   1.242
 1737SOL    HW2 5236   2.313   1.536   1.332
 1738SOL     OW 5237   2.264   0.751   1.598
 1738SOL    HW1 5238   2.332   0.806   1.551
 1738SOL    HW2 5239   2.304   0.663   1.625
 1739SOL     OW 5240   3.449   0.779   1.670
 1739SOL    HW1 5241   3.357   0.817   1.665
 1739SOL    HW2 5242   3.509   0.826   1.605
 1740SOL     OW 5243   2.875   0.105   1.770
 1740SOL    HW1 5244   2.881   0.190   1.718
 1740SOL    HW2 5245   2.907   0.029   1.713
 1741SOL     OW 5246   2.366   0.050   1.740
 1741SOL    HW1 5247   2.324  -0.007   1.670
 1741SOL    HW2 5248   2.300   0.119   1.772
 1742SOL     OW 5249   2.435   0.870   1.029
 1742SOL    HW1 5250   2.479   0.959   1.020
 1742SOL    HW2 5251   2.372   0.870   1.106
 1743SOL     OW 5252   3.222   0.862   1.045
 1743SOL    HW1 5253   3.147   0.862   0.979
 1743SOL    HW2 5254   3.259   0.770   1.054
 1744SOL     OW 5255   3.071   0.525   0.275
 1744SOL    HW1 5256   3.084   0.441   0.329
 1744SOL    HW2 5257   3.042   0.599   0.335
 1745SOL     OW 5258   2.169   0.213   1.231
 1745SOL    HW1 5259   2.146   0.250   1.321
 1745SOL    HW2 5260   2.139   0.118   1.225
 1746SOL     OW 5261   1.899   1.310   1.282
 1746SOL    HW1 5262   1.952   1.261   1.350
 1746SOL    HW2 5263   1.921   1.408   1.287
 1747SOL     OW 5264   2.594   0.634   1.064
 1747SOL    HW1 5265   2.653   0.608   0.988
 1747SOL    HW2 5266   2.566   0.730   1.053
 1748SOL     OW 5267   3.590   0.935   1.854
 1748SOL    HW1 5268   3.544   0.928   1.765
 1748SOL    HW2 5269   3.528   0.979   1.920
 1749SOL     OW 5270   2.169   0.063   0.618
 1749SOL    HW1 5271   2.158   0.157   0.651
 1749SOL    HW2 5272   2.164   0.000   0.695
 1750SOL     OW 5273   3.484   0.367   0.374
 1750SOL    HW1 5274   3.486   0.291   0.438
 1750SOL    HW2 5275   3.436   0.444   0.414
 1751SOL     OW 5276   2.885   0.766   0.966
 1751SOL    HW1 5277   2.900   0.787   1.062
 1751SOL    HW2 5278   2.855   0.671   0.957
 1752SOL     OW 5279   2.842   1.573   1.700
 1752SOL    HW1 5280   2.822   1.617   1.612
 1752SOL    HW2 5281   2.881   1.482   1.684
 1753SOL     OW 5282   3.721   1.518   1.605
 1753SOL    HW1 5283   3.735   1.545   1.510
 1753SOL    HW2 5284   3.804   1.540   1.658
 1754SOL     OW 5285   2.212   0.898   1.804
 1754SOL    HW1 5286   2.288   0.942   1.852
 1754SOL    HW2 5287   2.247   0.851   1.722
 1755SOL     OW 5288   3.402   0.274   0.125
 1755SOL    HW1 5289   3.341   0.199   0.148
 1755SOL    HW2 5290   3.424   0.326   0.208
 1756SOL     OW 5291   3.165   0.838   0.042
 1756SOL    HW1 5292   3.199   0.745   0.057
 1756SOL    HW2 5293   3.183   0.865  -0.053
 1757SOL     OW 5294   2.930   1.333   0.849
 1757SOL    HW1 5295   2.937   1.249   0.794
 1757SOL    HW2 5296   2.992   1.402   0.813
 1758SOL     OW 5297   2.181   0.810   0.949
 1758SOL    HW1 5298   2.274   0.846   0.954
 1758SOL    HW2 5299   2.175   0.725   1.001
 1759SOL     OW 5300   2.201   0.509   1.006
 1759SOL    HW1 5301   2.149   0.426   0.989
 1759SOL    HW2 5302   2.278   0.514   0.942
 1760SOL     OW 5303   3.000   0.380   1.678
 1760SOL    HW1 5304   2.955   0.443   1.742
 1760SOL    HW2 5305   3.093   0.411   1.661
 1761SOL     OW 5306   3.022   0.207   1.477
 1761SOL    HW1 5307   3.022   0.271   1.554
 1761SOL    HW2 5308   3.050   0.255   1.394
 1762SOL     OW 5309   1.950   1.801   0.927
 1762SOL    HW1 5310   1.908   1.715   0.900
 1762SOL    HW2 5311   2.044   1.804   0.893
 1763SOL     OW 5312   2.366   1.568   0.910
 1763SOL    HW1 5313   2.432   1.642   0.919
 1763SOL    HW2 5314   2.410   1.489   0.868
 1764SOL     OW 5315   2.864   0.796   1.238
 1764SOL    HW1 5316   2.905   0.764   1.324
 1764SOL    HW2 5317   2.768   0.769   1.235
 1765SOL     OW 5318   1.902   0.544   1.114
 1765SOL    HW1 5319   1.987   0.511   1.073
 1765SOL    HW2 5320   1.915   0.559   1.212
 1766SOL     OW 5321   2.051   0.520   1.722
 1766SOL    HW1 5322   2.110   0.480   1.652
 1766SOL    HW2 5323   1.993   0.591   1.681
 1767SOL     OW 5324   3.231   0.950   1.660
 1767SOL    HW1 5325   3.270   1.039   1.680
 1767SOL    HW2 5326   3.241   0.930   1.563
 1768SOL     OW 5327   2.677   0.572   0.325
 1768SOL    HW1 5328   2.684   0.483   0.279
 1768SOL    HW2 5329   2.583   0.606   0.317
 1769SOL     OW 5330   3.519   0.604   1.206
 1769SOL    HW1 5331   3.481   0.535   1.268
 1769SOL    HW2 5332   3.601   0.568   1.162
 1770SOL     OW 5333   2.114   1.564   1.744
 1770SOL    HW1 5334   2.084   1.621   1.820
 1770SOL    HW2 5335   2.107   1.467   1.770
 1771SOL     OW 5336   2.533   0.464   1.269
 1771SOL    HW1 5337   2.499   0.375   1.239
 1771SOL    HW2 5338   2.559   0.518   1.189
 1772SOL     OW 5339   2.792   1.678   1.465
 1772SOL    HW1 5340   2.768   1.660   1.370
 1772SOL    HW2 5341   2.822   1.772   1.475
 1773SOL     OW 5342   2.335   0.500   0.191
 1773SOL    HW1 5343   2.396   0.580   0.195
 1773SOL    HW2 5344   2.240   0.531   0.198
 1774SOL     OW 5345   2.021   1.137   1.466
 1774SOL    HW1 5346   2.043   1.076   1.542
 1774SOL    HW2 5347   2.031   1.088   1.380
 1775SOL     OW 5348   3.209   1.059   1.234
 1775SOL    HW1 5349   3.233   0.996   1.160
 1775SOL    HW2 5350   3.119   1.099   1.216
 1776SOL     OW 5351   3.164   0.855   0.309
 1776SOL    HW1 5352   3.078   0.824   0.351
 1776SOL    HW2 5353   3.160   0.841   0.210
 1777SOL     OW 5354   3.621   1.747   1.154
 1777SOL    HW1 5355   3.682   1.777   1.081
 1777SOL    HW2 5356   3.583   1.658   1.132
 1778SOL     OW 5357   3.114   1.731   1.128
 1778SOL    HW1 5358   3.198   1.736   1.074
 1778SOL    HW2 5359   3.091   1.635   1.146
 1779SOL     OW 5360   1.945   1.258   1.022
 1779SOL    HW1 5361   1.940   1.257   1.122
 1779SOL    HW2 5362   1.862   1.217   0.984
 1780SOL     OW 5363   2.550   1.662   1.716
 1780SOL    HW1 5364   2.494   1.743   1.725
 1780SOL    HW2 5365   2.602   1.666   1.630
 1781SOL     OW 5366   2.765   0.086   0.133
 1781SOL    HW1 5367   2.816   0.087   0.047
 1781SOL    HW2 5368   2.821   0.044   0.204
 1782SOL     OW 5369   3.588   0.135   0.523
 1782SOL    HW1 5370   3.661   0.118   0.456
 1782SOL    HW2 5371   3.557   0.048   0.561
 1783SOL     OW 5372   3.250   1.573   0.477
 1783SOL    HW1 5373   3.317   1.585   0.403
 1783SOL    HW2 5374   3.210   1.662   0.500
 1784SOL     OW 5375   1.992   1.794   1.851
 1784SOL    HW1 5376   1.951   1.720   1.904
 1784SOL    HW2 5377   2.056   1.845   1.909
 1785SOL     OW 5378   3.142   0.927   0.672
 1785SOL    HW1 5379   3.202   0.846   0.674
 1785SOL    HW2 5380   3.182   0.996   0.612
 1786SOL     OW 5381   2.692   1.273   1.422
 1786SOL    HW1 5382   2.687   1.306   1.517
 1786SOL    HW2 5383   2.606   1.292   1.376
 1787SOL     OW 5384   2.534   1.616   0.154
 1787SOL    HW1 5385   2.543   1.626   0.055
 1787SOL    HW2 5386   2.494   1.527   0.175
 1788SOL     OW 5387   3.512   1.720   1.394
 1788SOL    HW1 5388   3.565   1.730   1.310
 1788SOL    HW2 5389   3.485   1.810   1.428
 1789SOL     OW 5390   3.703   0.175   0.963
 1789SOL    HW1 5391   3.742   0.090   0.927
 1789SOL    HW2 5392   3.605   0.177   0.944
 1790SOL     OW 5393   2.125   0.326   0.720
 1790SOL    HW1 5394   2.046   0.377   0.686
 1790SOL    HW2 5395   2.116   0.311   0.818
 1791SOL     OW 5396   3.056   1.612   0.031
 1791SOL    HW1 5397   3.062   1.519   0.068
 1791SOL    HW2 5398   2.997   1.612  -0.049
 1792SOL     OW 5399   2.684   1.002   1.372
 1792SOL    HW1 5400   2.724   1.001   1.280
 1792SOL    HW2 5401   2.694   1.094   1.412
 1793SOL     OW 5402   2.778   0.910   0.291
 1793SOL    HW1 5403   2.841   0.948   0.223
 1793SOL    HW2 5404   2.818   0.827   0.330
 1794SOL     OW 5405   3.366   1.607   0.044
 1794SOL    HW1 5406   3.274   1.644   0.051
 1794SOL    HW2 5407   3.404   1.627  -0.046
 1795SOL     OW 5408   2.234   1.288   1.490
 1795SOL    HW1 5409   2.221   1.381   1.456
 1795SOL    HW2 5410   2.150   1.236   1.477
 1796SOL     OW 5411   3.476   1.292   1.289
 1796SOL    HW1 5412   3.536   1.295   1.369
 1796SOL    HW2 5413   3.401   1.356   1.302
 1797SOL     OW 5414   2.901   1.098   0.696
 1797SOL    HW1 5415   2.831   1.051   0.750
 1797SOL    HW2 5416   2.960   1.030   0.653
 1798SOL     OW 5417   2.876   0.236   0.971
 1798SOL    HW1 5418   2.868   0.200   0.878
 1798SOL    HW2 5419   2.874   0.160   1.036
 1799SOL     OW 5420   2.452   1.487   0.491
 1799SOL    HW1 5421   2.494   1.429   0.421
 1799SOL    HW2 5422   2.408   1.566   0.447
 1800SOL     OW 5423   3.571   0.385   1.381
 1800SOL    HW1 5424   3.644   0.454   1.385
 1800SOL    HW2 5425   3.599   0.310   1.322
 1801SOL     OW 5426   2.117   1.348   0.290
 1801SOL    HW1 5427   2.021   1.349   0.263
 1801SOL    HW2 5428   2.129   1.401   0.374
 1802SOL     OW 5429   1.967   1.013   1.726
 1802SOL    HW1 5430   1.890   0.980   1.780
 1802SOL    HW2 5431   2.052   0.983   1.768
 1803SOL     OW 5432   2.534   0.203   1.489
 1803SOL    HW1 5433   2.624   0.187   1.449
 1803SOL    HW2 5434   2.542   0.208   1.588
 1804SOL     OW 5435   1.937   0.345   0.033
 1804SOL    HW1 5436   1.845   0.317   0.004
 1804SOL    HW2 5437   1.968   0.422  -0.023
 1805SOL     OW 5438   3.302   0.856   1.398
 1805SOL    HW1 5439   3.245   0.908   1.335
 1805SOL    HW2 5440   3.398   0.868   1.374
 1806SOL     OW 5441   1.934   0.166   0.318
 1806SOL    HW1 5442   1.917   0.249   0.264
 1806SOL    HW2 5443   2.024   0.129   0.296
 1807SOL     OW 5444   3.045   1.335   0.119
 1807SOL    HW1 5445   2.946   1.324   0.121
 1807SOL    HW2 5446   3.079   1.350   0.212
 1808SOL     OW 5447   2.475   0.842   1.431
 1808SOL    HW1 5448   2.531   0.923   1.414
 1808SOL    HW2 5449   2.534   0.762   1.434
 1809SOL     OW 5450   3.355   1.767   0.959
 1809SOL    HW1 5451   3.388   1.831   0.890
 1809SOL    HW2 5452   3.421   1.761   1.034
 1810SOL     OW 5453   2.578   0.565   1.708
 1810SOL    HW1 5454   2.597   0.630   1.782
 1810SOL    HW2 5455   2.638   0.485   1.717
 1811SOL     OW 5456   3.312   1.220   1.633
 1811SOL    HW1 5457   3.303   1.210   1.732
 1811SOL    HW2 5458   3.408   1.213   1.607
 1812SOL     OW 5459   2.252   1.741   1.560
 1812SOL    HW1 5460   2.161   1.782   1.558
 1812SOL    HW2 5461   2.245   1.647   1.592
 1813SOL     OW 5462   3.536   0.883   1.254
 1813SOL    HW1 5463   3.509   0.794   1.217
 1813SOL    HW2 5464   3.537   0.951   1.181
 1814SOL     OW 5465   3.087   0.325   0.449
 1814SOL    HW1 5466   3.152   0.251   0.438
 1814SOL    HW2 5467   3.107   0.375   0.533
 1815SOL     OW 5468   2.456   0.745   0.652
 1815SOL    HW1 5469   2.506   0.830   0.633
 1815SOL    HW2 5470   2.368   0.747   0.604
 1816SOL     OW 5471   3.639   0.342   1.642
 1816SOL    HW1 5472   3.622   0.373   1.548
 1816SOL    HW2 5473   3.555   0.305   1.680
 1817SOL     OW 5474   3.592   0.934   1.517
 1817SOL    HW1 5475   3.630   1.025   1.532
 1817SOL    HW2 5476   3.584   0.917   1.418
 1818SOL     OW 5477   2.721   1.374   0.016
 1818SOL    HW1 5478   2.675   1.389   0.104
 1818SOL    HW2 5479   2.765   1.459  -0.014
 1819SOL     OW 5480   2.523   1.790   0.953
 1819SOL    HW1 5481   2.477   1.878   0.940
 1819SOL    HW2 5482   2.622   1.802   0.946
 1820SOL     OW 5483   2.721   0.956   0.861
 1820SOL    HW1 5484   2.775   0.887   0.909
 1820SOL    HW2 5485   2.689   1.025   0.927
 1821SOL     OW 5486   2.945   0.984   0.087
 1821SOL    HW1 5487   2.922   1.037   0.005
 1821SOL    HW2 5488   3.026   0.928   0.068
 1822SOL     OW 5489   3.723   1.569   0.851
 1822SOL    HW1 5490   3.652   1.557   0.781
 1822SOL    HW2 5491   3.724   1.490   0.911
 1823SOL     OW 5492   2.083   1.314   1.844
 1823SOL    HW1 5493   2.018   1.241   1.823
 1823SOL    HW2 5494   2.087   1.328   1.942
 1824SOL     OW 5495   1.941   1.240   0.653
 1824SOL    HW1 5496   1.940   1.193   0.741
 1824SOL    HW2 5497   2.023   1.212   0.602
 1825SOL     OW 5498   2.534   1.391   1.624
 1825SOL    HW1 5499   2.456   1.341   1.662
 1825SOL    HW2 5500   2.531   1.486   1.655
 1826SOL     OW 5501   3.686   0.192   1.227
 1826SOL    HW1 5502   3.682   0.102   1.271
 1826SOL    HW2 5503   3.689   0.181   1.128
 1827SOL     OW 5504   2.290   0.424   0.520
 1827SOL    HW1 5505   2.320   0.352   0.458
 1827SOL    HW2 5506   2.251   0.384   0.603
 1828SOL     OW 5507   3.567   1.487   1.104
 1828SOL    HW1 5508   3.474   1.462   1.077
 1828SOL    HW2 5509   3.593   1.437   1.186
 1829SOL     OW 5510   2.179   0.547   1.280
 1829SOL    HW1 5511   2.217   0.488   1.352
 1829SOL    HW2 5512   2.219   0.521   1.192
 1830SOL     OW 5513   2.674   1.586   0.687
 1830SOL    HW1 5514   2.706   1.596   0.593
 1830SOL    HW2 5515   2.595   1.524   0.689
 1831SOL     OW 5516   3.286   0.214   1.112
 1831SOL    HW1 5517   3.338   0.149   1.167
 1831SOL    HW2 5518   3.237   0.277   1.173
 1832SOL     OW 5519   2.863   0.034   1.154
 1832SOL    HW1 5520   2.800  -0.038   1.123
 1832SOL    HW2 5521   2.956  -0.002   1.154
 1833SOL     OW 5522   2.632   1.330   0.301
 1833SOL    HW1 5523   2.586   1.243   0.318
 1833SOL    HW2 5524   2.723   1.327   0.342
 1834SOL     OW 5525   2.480   1.567   1.284
 1834SOL    HW1 5526   2.475   1.649   1.341
 1834SOL    HW2 5527   2.569   1.564   1.239
 1835SOL     OW 5528   3.214   0.052   0.168
 1835SOL    HW1 5529   3.249   0.011   0.084
 1835SOL    HW2 5530   3.124   0.014   0.188
 1836SOL     OW 5531   3.162   0.453   0.691
 1836SOL    HW1 5532   3.103   0.533   0.695
 1836SOL    HW2 5533   3.177   0.418   0.784
 1837SOL     OW 5534   3.455   0.221   0.882
 1837SOL    HW1 5535   3.371   0.220   0.936
 1837SOL    HW2 5536   3.457   0.304   0.826
 1838SOL     OW 5537   1.901   1.077   0.300
 1838SOL    HW1 5538   2.000   1.066   0.291
 1838SOL    HW2 5539   1.861   0.991   0.332
 1839SOL     OW 5540   2.737   1.646   0.337
 1839SOL    HW1 5541   2.660   1.611   0.283
 1839SOL    HW2 5542   2.705   1.717   0.399
 1840SOL     OW 5543   2.092   0.628   1.975
 1840SOL    HW1 5544   1.999   0.626   2.012
 1840SOL    HW2 5545   2.093   0.589   1.883
 1841SOL     OW 5546   2.087   0.275   2.858
 1841SOL    HW1 5547   2.122   0.258   2.950
 1841SOL    HW2 5548   1.999   0.230   2.846
 1842SOL     OW 5549   1.881   0.368   2.509
 1842SOL    HW1 5550   1.799   0.411   2.548
 1842SOL    HW2 5551   1.853   0.295   2.446
 1843SOL     OW 5552   2.431   1.275   3.027
 1843SOL    HW1 5553   2.338   1.268   2.990
 1843SOL    HW2 5554   2.442   1.364   3.071
 1844SOL     OW 5555   3.417   1.511   2.565
 1844SOL    HW1 5556   3.360   1.495   2.646
 1844SOL    HW2 5557   3.358   1.521   2.485
 1845SOL     OW 5558   2.997   0.703   2.579
 1845SOL    HW1 5559   3.054   0.781   2.554
 1845SOL    HW2 5560   2.937   0.729   2.655
 1846SOL     OW 5561   3.617   0.607   2.093
 1846SOL    HW1 5562   3.605   0.594   1.994
 1846SOL    HW2 5563   3.587   0.526   2.142
 1847SOL     OW 5564   2.630   1.144   2.885
 1847SOL    HW1 5565   2.552   1.161   2.945
 1847SOL    HW2 5566   2.664   1.231   2.849
 1848SOL     OW 5567   2.712   0.798   3.685
 1848SOL    HW1 5568   2.708   0.874   3.750
 1848SOL    HW2 5569   2.734   0.834   3.594
 1849SOL     OW 5570   2.547   1.012   2.527
 1849SOL    HW1 5571   2.616   0.996   2.597
 1849SOL    HW2 5572   2.474   1.069   2.565
 1850SOL     OW 5573   2.548   1.161   3.665
 1850SOL    HW1 5574   2.608   1.240   3.679
 1850SOL    HW2 5575   2.462   1.192   3.624
 1851SOL     OW 5576   2.197   1.435   2.923
 1851SOL    HW1 5577   2.119   1.404   2.870
 1851SOL    HW2 5578   2.255   1.493   2.866
 1852SOL     OW 5579   3.322   1.505   3.201
 1852SOL    HW1 5580   3.346   1.599   3.227
 1852SOL    HW2 5581   3.306   1.451   3.283
 1853SOL     OW 5582   2.300   0.392   3.361
 1853SOL    HW1 5583   2.382   0.336   3.370
 1853SOL    HW2 5584   2.219   0.334   3.365
 1854SOL     OW 5585   3.465   0.447   2.599
 1854SOL    HW1 5586   3.391   0.493   2.549
 1854SOL    HW2 5587   3.516   0.515   2.652
 1855SOL     OW 5588   2.093   1.713   2.345
 1855SOL    HW1 5589   2.127   1.790   2.399
 1855SOL    HW2 5590   2.137   1.713   2.255
 1856SOL     OW 5591   2.989   1.341   3.552
 1856SOL    HW1 5592   3.036   1.341   3.640
 1856SOL    HW2 5593   2.941   1.254   3.541
 1857SOL     OW 5594   2.092   1.434   2.400
 1857SOL    HW1 5595   2.066   1.530   2.400
 1857SOL    HW2 5596   2.021   1.380   2.445
 1858SOL     OW 5597   2.102   1.091   2.748
 1858SOL    HW1 5598   2.116   1.007   2.800
 1858SOL    HW2 5599   2.047   1.155   2.803
 1859SOL     OW 5600   2.482   1.786   3.301
 1859SOL    HW1 5601   2.390   1.769   3.336
 1859SOL    HW2 5602   2.510   1.878   3.327
 1860SOL     OW 5603   2.468   0.964   1.985
 1860SOL    HW1 5604   2.475   1.048   1.931
 1860SOL    HW2 5605   2.514   0.977   2.073
 1861SOL     OW 5606   3.456   0.114   3.342
 1861SOL    HW1 5607   3.438   0.181   3.270
 1861SOL    HW2 5608   3.453   0.160   3.431
 1862SOL     OW 5609   1.984   0.643   2.425
 1862SOL    HW1 5610   1.939   0.555   2.442
 1862SOL    HW2 5611   1.983   0.697   2.509
 1863SOL     OW 5612   3.704   1.767   2.221
 1863SOL    HW1 5613   3.758   1.738   2.301
 1863SOL    HW2 5614   3.734   1.857   2.192
 1864SOL     OW 5615   1.889   1.596   1.979
 1864SOL    HW1 5616   1.870   1.500   2.000
 1864SOL    HW2 5617   1.856   1.654   2.054
 1865SOL     OW 5618   3.551   0.922   2.474
 1865SOL    HW1 5619   3.646   0.893   2.482
 1865SOL    HW2 5620   3.543   0.987   2.399
 1866SOL     OW 5621   3.503   1.108   2.294
 1866SOL    HW1 5622   3.589   1.110   2.242
 1866SOL    HW2 5623   3.517   1.155   2.382
 1867SOL     OW 5624   1.975   0.737   3.459
 1867SOL    HW1 5625   2.063   0.724   3.504
 1867SOL    HW2 5626   1.962   0.834   3.437
 1868SOL     OW 5627   2.475   1.365   2.588
 1868SOL    HW1 5628   2.426   1.278   2.597
 1868SOL    HW2 5629   2.452   1.408   2.501
 1869SOL     OW 5630   3.155   1.228   3.285
 1869SOL    HW1 5631   3.192   1.155   3.227
 1869SOL    HW2 5632   3.207   1.233   3.370
 1870SOL     OW 5633   2.671   0.004   2.364
 1870SOL    HW1 5634   2.711   0.095   2.355
 1870SOL    HW2 5635   2.571   0.012   2.370
 1871SOL     OW 5636   2.059   0.976   3.126
 1871SOL    HW1 5637   2.148   0.931   3.112
 1871SOL    HW2 5638   1.986   0.911   3.107
 1872SOL     OW 5639   3.387   0.999   2.052
 1872SOL    HW1 5640   3.324   0.923   2.065
 1872SOL    HW2 5641   3.435   1.017   2.138
 1873SOL     OW 5642   3.049   1.792   3.478
 1873SOL    HW1 5643   3.073   1.852   3.402
 1873SOL    HW2 5644   3.056   1.697   3.448
 1874SOL     OW 5645   2.179   0.251   3.663
 1874SOL    HW1 5646   2.250   0.322   3.669
 1874SOL    HW2 5647   2.091   0.290   3.691
 1875SOL     OW 5648   3.328   1.417   2.815
 1875SOL    HW1 5649   3.269   1.423   2.895
 1875SOL    HW2 5650   3.313   1.329   2.769
 1876SOL     OW 5651   3.529   1.714   2.434
 1876SOL    HW1 5652   3.488   1.691   2.346
 1876SOL    HW2 5653   3.511   1.640   2.499
 1877SOL     OW 5654   2.460   0.729   2.132
 1877SOL    HW1 5655   2.484   0.798   2.064
 1877SOL    HW2 5656   2.382   0.762   2.186
 1878SOL     OW 5657   3.143   0.345   2.806
 1878SOL    HW1 5658   3.057   0.295   2.793
 1878SOL    HW2 5659   3.205   0.291   2.862
 1879SOL     OW 5660   3.438   1.662   2.169
 1879SOL    HW1 5661   3.527   1.708   2.172
 1879SOL    HW2 5662   3.417   1.638   2.074
 1880SOL     OW 5663   2.669   0.605   3.327
 1880SOL    HW1 5664   2.622   0.602   3.416
 1880SOL    HW2 5665   2.618   0.550   3.261
 1881SOL     OW 5666   3.256   0.469   3.536
 1881SOL    HW1 5667   3.236   0.512   3.624
 1881SOL    HW2 5668   3.334   0.407   3.545
 1882SOL     OW 5669   2.835   0.890   3.434
 1882SOL    HW1 5670   2.881   0.806   3.405
 1882SOL    HW2 5671   2.779   0.924   3.359
 1883SOL     OW 5672   2.853   0.410   3.104
 1883SOL    HW1 5673   2.776   0.444   3.158
 1883SOL    HW2 5674   2.819   0.359   3.025
 1884SOL     OW 5675   2.903   0.701   2.291
 1884SOL    HW1 5676   2.929   0.697   2.387
 1884SOL    HW2 5677   2.818   0.650   2.277
 1885SOL     OW 5678   1.938   0.811   2.651
 1885SOL    HW1 5679   2.037   0.799   2.660
 1885SOL    HW2 5680   1.914   0.906   2.672
 1886SOL     OW 5681   1.992   1.821   3.433
 1886SOL    HW1 5682   1.982   1.806   3.532
 1886SOL    HW2 5683   1.906   1.857   3.397
 1887SOL     OW 5684   2.727   0.348   2.057
 1887SOL    HW1 5685   2.786   0.411   2.008
 1887SOL    HW2 5686   2.746   0.254   2.028
 1888SOL     OW 5687   3.581   0.585   3.693
 1888SOL    HW1 5688   3.555   0.674   3.657
 1888SOL    HW2 5689   3.579   0.517   3.620
 1889SOL     OW 5690   3.224   1.144   2.407
 1889SOL    HW1 5691   3.307   1.115   2.359
 1889SOL    HW2 5692   3.175   1.211   2.351
 1890SOL     OW 5693   2.412   0.196   2.747
 1890SOL    HW1 5694   2.407   0.191   2.847
 1890SOL    HW2 5695   2.414   0.292   2.718
 1891SOL     OW 5696   2.870   1.456   2.339
 1891SOL    HW1 5697   2.824   1.528   2.287
 1891SOL    HW2 5698   2.866   1.476   2.437
 1892SOL     OW 5699   2.213   1.801   2.715
 1892SOL    HW1 5700   2.263   1.715   2.721
 1892SOL    HW2 5701   2.278   1.878   2.712
 1893SOL     OW 5702   3.657   1.066   2.735
 1893SOL    HW1 5703   3.595   1.051   2.659
 1893SOL    HW2 5704   3.605   1.077   2.820
 1894SOL     OW 5705   3.089   1.550   3.368
 1894SOL    HW1 5706   3.095   1.473   3.432
 1894SOL    HW2 5707   3.037   1.524   3.288
 1895SOL     OW 5708   2.183   0.943   2.104
 1895SOL    HW1 5709   2.265   0.982   2.062
 1895SOL    HW2 5710   2.156   0.861   2.055
 1896SOL     OW 5711   3.320   0.735   2.590
 1896SOL    HW1 5712   3.315   0.670   2.665
 1896SOL    HW2 5713   3.400   0.794   2.603
 1897SOL     OW 5714   2.323   1.266   3.589
 1897SOL    HW1 5715   2.273   1.267   3.503
 1897SOL    HW2 5716   2.260   1.248   3.665
 1898SOL     OW 5717   2.973   1.776   2.099
 1898SOL    HW1 5718   2.913   1.714   2.149
 1898SOL    HW2 5719   3.004   1.732   2.014
 1899SOL     OW 5720   2.064   0.285   3.360
 1899SOL    HW1 5721   1.984   0.345   3.347
 1899SOL    HW2 5722   2.054   0.236   3.446
 1900SOL     OW 5723   3.494   1.377   1.943
 1900SOL    HW1 5724   3.462   1.471   1.933
 1900SOL    HW2 5725   3.418   1.314   1.931
 1901SOL     OW 5726   2.326   1.743   2.185
 1901SOL    HW1 5727   2.359   1.782   2.271
 1901SOL    HW2 5728   2.402   1.736   2.120
 1902SOL     OW 5729   3.262   0.107   2.288
 1902SOL    HW1 5730   3.238   0.070   2.198
 1902SOL    HW2 5731   3.361   0.123   2.292
 1903SOL     OW 5732   2.111   1.785   3.103
 1903SOL    HW1 5733   2.168   1.720   3.153
 1903SOL    HW2 5734   2.095   1.752   3.010
 1904SOL     OW 5735   2.802   1.698   2.766
 1904SOL    HW1 5736   2.882   1.641   2.787
 1904SOL    HW2 5737   2.753   1.658   2.689
 1905SOL     OW 5738   2.244   0.700   2.342
 1905SOL    HW1 5739   2.289   0.610   2.339
 1905SOL    HW2 5740   2.150   0.689   2.375
 1906SOL     OW 5741   3.409   0.222   3.591
 1906SOL    HW1 5742   3.404   0.259   3.683
 1906SOL    HW2 5743   3.337   0.153   3.579
 1907SOL     OW 5744   2.476   0.122   1.979
 1907SOL    HW1 5745   2.574   0.100   1.986
 1907SOL    HW2 5746   2.445   0.105   1.886
 1908SOL     OW 5747   2.643   0.264   3.611
 1908SOL    HW1 5748   2.710   0.203   3.654
 1908SOL    HW2 5749   2.570   0.283   3.676
 1909SOL     OW 5750   2.750   1.514   3.057
 1909SOL    HW1 5751   2.727   1.489   2.963
 1909SOL    HW2 5752   2.811   1.445   3.096
 1910SOL     OW 5753   3.213   0.590   3.295
 1910SOL    HW1 5754   3.241   0.547   3.380
 1910SOL    HW2 5755   3.238   0.686   3.296
 1911SOL     OW 5756   2.665   1.402   2.786
 1911SOL    HW1 5757   2.755   1.416   2.744
 1911SOL    HW2 5758   2.594   1.404   2.715
 1912SOL     OW 5759   2.784   0.503   2.761
 1912SOL    HW1 5760   2.759   0.494   2.665
 1912SOL    HW2 5761   2.832   0.421   2.792
 1913SOL     OW 5762   2.401   0.064   2.374
 1913SOL    HW1 5763   2.320   0.065   2.432
 1913SOL    HW2 5764   2.404   0.147   2.319
 1914SOL     OW 5765   3.296   1.188   1.903
 1914SOL    HW1 5766   3.328   1.112   1.960
 1914SOL    HW2 5767   3.204   1.215   1.933
 1915SOL     OW 5768   2.159   0.035   2.033
 1915SOL    HW1 5769   2.208   0.119   2.012
 1915SOL    HW2 5770   2.221  -0.030   2.078
 1916SOL     OW 5771   2.797   0.236   2.342
 1916SOL    HW1 5772   2.749   0.277   2.264
 1916SOL    HW2 5773   2.896   0.234   2.323
 1917SOL     OW 5774   2.938   0.683   3.326
 1917SOL    HW1 5775   2.858   0.622   3.329
 1917SOL    HW2 5776   3.019   0.630   3.302
 1918SOL     OW 5777   3.089   1.570   2.655
 1918SOL    HW1 5778   3.110   1.644   2.590
 1918SOL    HW2 5779   3.157   1.570   2.728
 1919SOL     OW 5780   2.321   1.152   2.603
 1919SOL    HW1 5781   2.250   1.125   2.668
 1919SOL    HW2 5782   2.295   1.124   2.510
 1920SOL     OW 5783   3.133   1.797   2.453
 1920SOL    HW1 5784   3.177   1.861   2.389
 1920SOL    HW2 5785   3.083   1.849   2.523
 1921SOL     OW 5786   2.894   0.549   1.878
 1921SOL    HW1 5787   2.853   0.631   1.839
 1921SOL    HW2 5788   2.958   0.575   1.951
 1922SOL     OW 5789   1.940   0.556   3.248
 1922SOL    HW1 5790   2.032   0.555   3.207
 1922SOL    HW2 5791   1.934   0.630   3.315
 1923SOL     OW 5792   2.423   0.222   3.009
 1923SOL    HW1 5793   2.461   0.138   3.046
 1923SOL    HW2 5794   2.335   0.241   3.053
 1924SOL     OW 5795   2.728   0.454   2.504
 1924SOL    HW1 5796   2.696   0.526   2.442
 1924SOL    HW2 5797   2.752   0.373   2.451
 1925SOL     OW 5798   2.879   0.039   2.615
 1925SOL    HW1 5799   2.807   0.044   2.546
 1925SOL    HW2 5800   2.855  -0.030   2.684
 1926SOL     OW 5801   3.291   1.173   2.729
 1926SOL    HW1 5802   3.236   1.089   2.722
 1926SOL    HW2 5803   3.317   1.202   2.637
 1927SOL     OW 5804   3.328   0.590   2.854
 1927SOL    HW1 5805   3.298   0.495   2.861
 1927SOL    HW2 5806   3.401   0.606   2.920
 1928SOL     OW 5807   3.719   0.833   2.239
 1928SOL    HW1 5808   3.761   0.769   2.303
 1928SOL    HW2 5809   3.681   0.782   2.161
 1929SOL     OW 5810   2.350   1.385   2.036
 1929SOL    HW1 5811   2.263   1.370   2.083
 1929SOL    HW2 5812   2.333   1.411   1.941
 1930SOL     OW 5813   3.526   1.280   2.519
 1930SOL    HW1 5814   3.625   1.288   2.533
 1930SOL    HW2 5815   3.481   1.364   2.550
 1931SOL     OW 5816   3.252   0.575   1.940
 1931SOL    HW1 5817   3.198   0.554   2.021
 1931SOL    HW2 5818   3.343   0.534   1.949
 1932SOL     OW 5819   2.389   0.256   2.190
 1932SOL    HW1 5820   2.416   0.197   2.115
 1932SOL    HW2 5821   2.389   0.351   2.159
 1933SOL     OW 5822   3.616   1.223   3.450
 1933SOL    HW1 5823   3.707   1.184   3.437
 1933SOL    HW2 5824   3.624   1.319   3.474
 1934SOL     OW 5825   2.926   1.347   3.202
 1934SOL    HW1 5826   2.846   1.324   3.257
 1934SOL    HW2 5827   3.009   1.321   3.251
 1935SOL     OW 5828   3.454   1.629   3.487
 1935SOL    HW1 5829   3.481   1.663   3.397
 1935SOL    HW2 5830   3.533   1.591   3.533
 1936SOL     OW 5831   2.973   1.195   2.962
 1936SOL    HW1 5832   2.933   1.239   3.043
 1936SOL    HW2 5833   2.932   1.232   2.879
 1937SOL     OW 5834   3.500   1.099   2.941
 1937SOL    HW1 5835   3.505   1.180   3.000
 1937SOL    HW2 5836   3.414   1.101   2.890
 1938SOL     OW 5837   2.777   0.089   3.264
 1938SOL    HW1 5838   2.802   0.069   3.169
 1938SOL    HW2 5839   2.849   0.145   3.306
 1939SOL     OW 5840   2.842   1.116   3.581
 1939SOL    HW1 5841   2.743   1.122   3.591
 1939SOL    HW2 5842   2.865   1.036   3.525
 1940SOL     OW 5843   2.567   1.050   2.230
 1940SOL    HW1 5844   2.553   1.057   2.329
 1940SOL    HW2 5845   2.651   0.999   2.212
 1941SOL     OW 5846   2.272   0.813   3.113
 1941SOL    HW1 5847   2.358   0.825   3.163
 1941SOL    HW2 5848   2.230   0.726   3.140
 1942SOL     OW 5849   3.136   0.386   3.124
 1942SOL    HW1 5850   3.157   0.460   3.188
 1942SOL    HW2 5851   3.047   0.403   3.081
 1943SOL     OW 5852   1.926   1.564   3.193
 1943SOL    HW1 5853   1.880   1.646   3.159
 1943SOL    HW2 5854   2.024   1.583   3.202
 1944SOL     OW 5855   2.229   1.100   2.363
 1944SOL    HW1 5856   2.222   1.183   2.307
 1944SOL    HW2 5857   2.233   1.020   2.303
 1945SOL     OW 5858   2.428   0.537   2.727
 1945SOL    HW1 5859   2.440   0.603   2.653
 1945SOL    HW2 5860   2.474   0.571   2.810
 1946SOL     OW 5861   3.114   1.348   2.250
 1946SOL    HW1 5862   3.164   1.425   2.290
 1946SOL    HW2 5863   3.019   1.350   2.282
 1947SOL     OW 5864   3.134   1.445   3.004
 1947SOL    HW1 5865   3.181   1.458   3.091
 1947SOL    HW2 5866   3.068   1.371   3.013
 1948SOL     OW 5867   3.444   0.639   2.334
 1948SOL    HW1 5868   3.413   0.700   2.407
 1948SOL    HW2 5869   3.494   0.691   2.265
 1949SOL     OW 5870   2.216   1.510   3.191
 1949SOL    HW1 5871   2.195   1.466   3.104
 1949SOL    HW2 5872   2.313   1.536   3.194
 1950SOL     OW 5873   2.264   0.751   3.460
 1950SOL    HW1 5874   2.332   0.806   3.413
 1950SOL    HW2 5875   2.304   0.663   3.487
 1951SOL     OW 5876   3.449   0.779   3.532
 1951SOL    HW1 5877   3.357   0.817   3.527
 1951SOL    HW2 5878   3.509   0.826   3.467
 1952SOL     OW 5879   2.875   0.105   3.632
 1952SOL    HW1 5880   2.881   0.190   3.580
 1952SOL    HW2 5881   2.907   0.029   3.575
 1953SOL     OW 5882   2.366   0.050   3.602
 1953SOL    HW1 5883   2.324  -0.007   3.532
 1953SOL    HW2 5884   2.300   0.119   3.634
 1954SOL     OW 5885   2.435   0.870   2.891
 1954SOL    HW1 5886   2.479   0.959   2.882
 1954SOL    HW2 5887   2.372   0.870   2.968
 1955SOL     OW 5888   3.222   0.862   2.907
 1955SOL    HW1 5889   3.147   0.862   2.841
 1955SOL    HW2 5890   3.259   0.770   2.916
 1956SOL     OW 5891   3.071   0.525   2.137
 1956SOL    HW1 5892   3.084   0.441   2.191
 1956SOL    HW2 5893   3.042   0.599   2.197
 1957SOL     OW 5894   2.169   0.213   3.093
 1957SOL    HW1 5895   2.146   0.250   3.183
 1957SOL    HW2 5896   2.139   0.118   3.087
 1958SOL     OW 5897   1.899   1.310   3.144
 1958SOL    HW1 5898   1.952   1.261   3.212
 1958SOL    HW2 5899   1.921   1.408   3.149
 1959SOL     OW 5900   2.594   0.634   2.926
 1959SOL    HW1 5901   2.653   0.608   2.850
 1959SOL    HW2 5902   2.566   0.730   2.915
 1960SOL     OW 5903   3.590   0.935   3.716
 1960SOL    HW1 5904   3.544   0.928   3.627
 1960SOL    HW2 5905   3.528   0.979   3.782
 1961SOL     OW 5906   2.169   0.063   2.480
 1961SOL    HW1 5907   2.158   0.157   2.513
 1961SOL    HW2 5908   2.164   0.000   2.557
 1962SOL     OW 5909   3.484   0.367   2.236
 1962SOL    HW1 5910   3.486   0.291   2.300
 1962SOL    HW2 5911   3.436   0.444   2.276
 1963SOL     OW 5912   2.885   0.766   2.828
 1963SOL    HW1 5913   2.900   0.787   2.924
 1963SOL    HW2 5914   2.855   0.671   2.819
 1964SOL     OW 5915   2.842   1.573   3.562
 1964SOL    HW1 5916   2.822   1.617   3.474
 1964SOL    HW2 5917   2.881   1.482   3.546
 1965SOL     OW 5918   3.721   1.518   3.467
 1965SOL    HW1 5919   3.735   1.545   3.372
 1965SOL    HW2 5920   3.804   1.540   3.520
 1966SOL     OW 5921   2.212   0.898   3.666
 1966SOL    HW1 5922   2.288   0.942   3.714
 1966SOL    HW2 5923   2.247   0.851   3.584
 1967SOL     OW 5924   3.402   0.274   1.987
 1967SOL    HW1 5925   3.341   0.199   2.010
 1967SOL    HW2 5926   3.424   0.326   2.070
 1968SOL     OW 5927   3.165   0.838   1.904
 1968SOL    HW1 5928   3.199   0.745   1.919
 1968SOL    HW2 5929   3.183   0.865   1.809
 1969SOL     OW 5930   2.930   1.333   2.711
 1969SOL    HW1 5931   2.937   1.249   2.656
 1969SOL    HW2 5932   2.992   1.402   2.675
 1970SOL     OW 5933   2.181   0.810   2.811
 1970SOL    HW1 5934   2.274   0.846   2.816
 1970SOL    HW2 5935   2.175   0.725   2.863
 1971SOL     OW 5936   2.201   0.509   2.868
 1971SOL    HW1 5937   2.149   0.426   2.851
 1971SOL    HW2 5938   2.278   0.514   2.804
 1972SOL     OW 5939   3.000   0.380   3.540
 1972SOL    HW1 5940   2.955   0.443   3.604
 1972SOL    HW2 5941   3.093   0.411   3.523
 1973SOL     OW 5942   3.022   0.207   3.339
 1973SOL    HW1 5943   3.022   0.271   3.416
 1973SOL    HW2 5944   3.050   0.255   3.256
 1974SOL     OW 5945   1.870   1.326   2.062
 1974SOL    HW1 5946   1.777   1.347   2.031
 1974SOL    HW2 5947   1.880   1.227   2.075
 1975SOL     OW 5948   1.950   1.801   2.789
 1975SOL    HW1 5949   1.908   1.715   2.762
 1975SOL    HW2 5950   2.044   1.804   2.755
 1976SOL     OW 5951   2.366   1.568   2.772
 1976SOL    HW1 5952   2.432   1.642   2.781
 1976SOL    HW2 5953   2.410   1.489   2.730
 1977SOL     OW 5954   2.864   0.796   3.100
 1977SOL    HW1 5955   2.905   0.764   3.186
 1977SOL    HW2 5956   2.768   0.769   3.097
 1978SOL     OW 5957   1.902   0.544   2.976
 1978SOL    HW1 5958   1.987   0.511   2.935
 1978SOL    HW2 5959   1.915   0.559   3.074
 1979SOL     OW 5960   2.051   0.520   3.584
 1979SOL    HW1 5961   2.110   0.480   3.514
 1979SOL    HW2 5962   1.993   0.591   3.543
 1980SOL     OW 5963   3.231   0.950   3.522
 1980SOL    HW1 5964   3.270   1.039   3.542
 1980SOL    HW2 5965   3.241   0.930   3.425
 1981SOL     OW 5966   2.677   0.572   2.187
 1981SOL    HW1 5967   2.684   0.483   2.141
 1981SOL    HW2 5968   2.583   0.606   2.179
 1982SOL     OW 5969   3.519   0.604   3.068
 1982SOL    HW1 5970   3.481   0.535   3.130
 1982SOL    HW2 5971   3.601   0.568   3.024
 1983SOL     OW 5972   2.114   1.564   3.606
 1983SOL    HW1 5973   2.084   1.621   3.682
 1983SOL    HW2 5974   2.107   1.467   3.632
 1984SOL     OW 5975   2.533   0.464   3.131
 1984SOL    HW1 5976   2.499   0.375   3.101
 1984SOL    HW2 5977   2.559   0.518   3.051
 1985SOL     OW 5978   2.792   1.678   3.327
 1985SOL    HW1 5979   2.768   1.660   3.232
 1985SOL    HW2 5980   2.822   1.772   3.337
 1986SOL     OW 5981   2.335   0.500   2.053
 1986SOL    HW1 5982   2.396   0.580   2.057
 1986SOL    HW2 5983   2.240   0.531   2.060
 1987SOL     OW 5984   2.021   1.137   3.328
 1987SOL    HW1 5985   2.043   1.076   3.404
 1987SOL    HW2 5986   2.031   1.088   3.242
 1988SOL     OW 5987   3.209   1.059   3.096
 1988SOL    HW1 5988   3.233   0.996   3.022
 1988SOL    HW2 5989   3.119   1.099   3.078
 1989SOL     OW 5990   3.164   0.855   2.171
 1989SOL    HW1 5991   3.078   0.824   2.213
 1989SOL    HW2 5992   3.160   0.841   2.072
 1990SOL     OW 5993   3.621   1.747   3.016
 1990SOL    HW1 5994   3.682   1.777   2.943
 1990SOL    HW2 5995   3.583   1.658   2.994
 1991SOL     OW 5996   3.114   1.731   2.990
 1991SOL    HW1 5997   3.198   1.736   2.936
 1991SOL    HW2 5998   3.091   1.635   3.008
 1992SOL     OW 5999   1.945   1.258   2.884
 1992SOL    HW1 6000   1.940   1.257   2.984
 1992SOL    HW2 6001   1.862   1.217   2.846
 1993SOL     OW 6002   2.550   1.662   3.578
 1993SOL    HW1 6003   2.494   1.743   3.587
 1993SOL    HW2 6004   2.602   1.666   3.492
 1994SOL     OW 6005   3.588   0.135   2.385
 1994SOL    HW1 6006   3.661   0.118   2.318
 1994SOL    HW2 6007   3.557   0.048   2.423
 1995SOL     OW 6008   3.250   1.573   2.339
 1995SOL    HW1 6009   3.317   1.585   2.265
 1995SOL    HW2 6010   3.210   1.662   2.362
 1996SOL     OW 6011   1.992   1.794   3.713
 1996SOL    HW1 6012   1.951   1.720   3.766
 1996SOL    HW2 6013   2.056   1.845   3.771
 1997SOL     OW 6014   3.142   0.927   2.534
 1997SOL    HW1 6015   3.202   0.846   2.536
 1997SOL    HW2 6016   3.182   0.996   2.474
 1998SOL     OW 6017   2.692   1.273   3.284
 1998SOL    HW1 6018   2.687   1.306   3.379
 1998SOL    HW2 6019   2.606   1.292   3.238
 1999SOL     OW 6020   2.534   1.616   2.016
 1999SOL    HW1 6021   2.543   1.626   1.917
 1999SOL    HW2 6022   2.494   1.527   2.037
 2000SOL     OW 6023   3.512   1.720   3.256
 2000SOL    HW1 6024   3.565   1.730   3.172
 2000SOL    HW2 6025   3.485   1.810   3.290
 2001SOL     OW 6026   3.703   0.175   2.825
 2001SOL    HW1 6027   3.742   0.090   2.789
 2001SOL    HW2 6028   3.605   0.177   2.806
 2002SOL     OW 6029   2.125   0.326   2.582
 2002SOL    HW1 6030   2.046   0.377   2.548
 2002SOL    HW2 6031   2.116   0.311   2.680
 2003SOL     OW 6032   3.056   1.612   1.893
 2003SOL    HW1 6033   3.062   1.519   1.930
 2003SOL    HW2 6034   2.997   1.612   1.813
 2004SOL     OW 6035   2.684   1.002   3.234
 2004SOL    HW1 6036   2.724   1.001   3.142
 2004SOL    HW2 6037   2.694   1.094   3.274
 2005SOL     OW 6038   2.778   0.910   2.153
 2005SOL    HW1 6039   2.841   0.948   2.085
 2005SOL    HW2 6040   2.818   0.827   2.192
 2006SOL     OW 6041   3.366   1.607   1.906
 2006SOL    HW1 6042   3.274   1.644   1.913
 2006SOL    HW2 6043   3.404   1.627   1.816
 2007SOL     OW 6044   2.234   1.288   3.352
 2007SOL    HW1 6045   2.221   1.381   3.318
 2007SOL    HW2 6046   2.150   1.236   3.339
 2008SOL     OW 6047   3.476   1.292   3.151
 2008SOL    HW1 6048   3.536   1.295   3.231
 2008SOL    HW2 6049   3.401   1.356   3.164
 2009SOL     OW 6050   2.901   1.098   2.558
 2009SOL    HW1 6051   2.831   1.051   2.612
 2009SOL    HW2 6052   2.960   1.030   2.515
 2010SOL     OW 6053   2.876   0.236   2.833
 2010SOL    HW1 6054   2.868   0.200   2.740
 2010SOL    HW2 6055   2.874   0.160   2.898
 2011SOL     OW 6056   2.452   1.487   2.353
 2011SOL    HW1 6057   2.494   1.429   2.283
 2011SOL    HW2 6058   2.408   1.566   2.309
 2012SOL     OW 6059   3.571   0.385   3.243
 2012SOL    HW1 6060   3.644   0.454   3.247
 2012SOL    HW2 6061   3.599   0.310   3.184
 2013SOL     OW 6062   2.117   1.348   2.152
 2013SOL    HW1 6063   2.021   1.349   2.125
 2013SOL    HW2 6064   2.129   1.401   2.236
 2014SOL     OW 6065   1.967   1.013   3.588
 2014SOL    HW1 6066   1.890   0.980   3.642
 2014SOL    HW2 6067   2.052   0.983   3.630
 2015SOL     OW 6068   2.534   0.203   3.351
 2015SOL    HW1 6069   2.624   0.187   3.311
 2015SOL    HW2 6070   2.542   0.208   3.450
 2016SOL     OW 6071   1.937   0.345   1.895
 2016SOL    HW1 6072   1.845   0.317   1.866
 2016SOL    HW2 6073   1.968   0.422   1.839
 2017SOL     OW 6074   3.302   0.856   3.260
 2017SOL    HW1 6075   3.245   0.908   3.197
 2017SOL    HW2 6076   3.398   0.868   3.236
 2018SOL     OW 6077   1.934   0.166   2.180
 2018SOL    HW1 6078   1.917   0.249   2.126
 2018SOL    HW2 6079   2.024   0.129   2.158
 2019SOL     OW 6080   3.045   1.335   1.981
 2019SOL    HW1 6081   2.946   1.324   1.983
 2019SOL    HW2 6082   3.079   1.350   2.074
 2020SOL     OW 6083   2.475   0.842   3.293
 2020SOL    HW1 6084   2.531   0.923   3.276
 2020SOL    HW2 6085   2.534   0.762   3.296
 2021SOL     OW 6086   3.355   1.767   2.821
 2021SOL    HW1 6087   3.388   1.831   2.752
 2021SOL    HW2 6088   3.421   1.761   2.896
 2022SOL     OW 6089   2.578   0.565   3.570
 2022SOL    HW1 6090   2.597   0.630   3.644
 2022SOL    HW2 6091   2.638   0.485   3.579
 2023SOL     OW 6092   3.312   1.220   3.495
 2023SOL    HW1 6093   3.303   1.210   3.594
 2023SOL    HW2 6094   3.408   1.213   3.469
 2024SOL     OW 6095   2.252   1.741   3.422
 2024SOL    HW1 6096   2.161   1.782   3.420
 2024SOL    HW2 6097   2.245   1.647   3.454
 2025SOL     OW 6098   3.536   0.883   3.116
 2025SOL    HW1 6099   3.509   0.794   3.079
 2025SOL    HW2 6100   3.537   0.951   3.043
 2026SOL     OW 6101   3.087   0.325   2.311
 2026SOL    HW1 6102   3.152   0.251   2.300
 2026SOL    HW2 6103   3.107   0.375   2.395
 2027SOL     OW 6104   2.456   0.745   2.514
 2027SOL    HW1 6105   2.506   0.830   2.495
 2027SOL    HW2 6106   2.368   0.747   2.466
 2028SOL     OW 6107   3.639   0.342   3.504
 2028SOL    HW1 6108   3.622   0.373   3.410
 2028SOL    HW2 6109   3.555   0.305   3.542
 2029SOL     OW 6110   3.592   0.934   3.379
 2029SOL    HW1 6111   3.630   1.025   3.394
 2029SOL    HW2 6112   3.584   0.917   3.280
 2030SOL     OW 6113   2.721   1.374   1.878
 2030SOL    HW1 6114   2.675   1.389   1.966
 2030SOL    HW2 6115   2.765   1.459   1.848
 2031SOL     OW 6116   2.523   1.790   2.815
 2031SOL    HW1 6117   2.477   1.878   2.802
 2031SOL    HW2 6118   2.622   1.802   2.808
 2032SOL     OW 6119   2.721   0.956   2.723
 2032SOL    HW1 6120   2.775   0.887   2.771
 2032SOL    HW2 6121   2.689   1.025   2.789
 2033SOL     OW 6122   2.945   0.984   1.949
 2033SOL    HW1 6123   2.922   1.037   1.867
 2033SOL    HW2 6124   3.026   0.928   1.930
 2034SOL     OW 6125   3.723   1.569   2.713
 2034SOL    HW1 6126   3.652   1.557   2.643
 2034SOL    HW2 6127   3.724   1.490   2.773
 2035SOL     OW 6128   2.083   1.314   3.706
 2035SOL    HW1 6129   2.018   1.241   3.685
 2035SOL    HW2 6130   2.087   1.328   3.804
 2036SOL     OW 6131   1.941   1.240   2.515
 2036SOL    HW1 6132   1.940   1.193   2.603
 2036SOL    HW2 6133   2.023   1.212   2.464
 2037SOL     OW 6134   2.534   1.391   3.486
 2037SOL    HW1 6135   2.456   1.341   3.524
 2037SOL    HW2 6136   2.531   1.486   3.517
 2038SOL     OW 6137   3.686   0.192   3.089
 2038SOL    HW1 6138   3.682   0.102   3.133
 2038SOL    HW2 6139   3.689   0.181   2.990
 2039SOL     OW 6140   2.290   0.424   2.382
 2039SOL    HW1 6141   2.320   0.352   2.320
 2039SOL    HW2 6142   2.251   0.384   2.465
 2040SOL     OW 6143   3.567   1.487   2.966
 2040SOL    HW1 6144   3.474   1.462   2.939
 2040SOL    HW2 6145   3.593   1.437   3.048
 2041SOL     OW 6146   2.179   0.547   3.142
 2041SOL    HW1 6147   2.217   0.488   3.214
 2041SOL    HW2 6148   2.219   0.521   3.054
 2042SOL     OW 6149   2.674   1.586   2.549
 2042SOL    HW1 6150   2.706   1.596   2.455
 2042SOL    HW2 6151   2.595   1.524   2.551
 2043SOL     OW 6152   3.286   0.214   2.974
 2043SOL    HW1 6153   3.338   0.149   3.029
 2043SOL    HW2 6154   3.237   0.277   3.035
 2044SOL     OW 6155   2.863   0.034   3.016
 2044SOL    HW1 6156   2.800  -0.038   2.985
 2044SOL    HW2 6157   2.956  -0.002   3.016
 2045SOL     OW 6158   2.632   1.330   2.163
 2045SOL    HW1 6159   2.586   1.243   2.180
 2045SOL    HW2 6160   2.723   1.327   2.204
 2046SOL     OW 6161   2.480   1.567   3.146
 2046SOL    HW1 6162   2.475   1.649   3.203
 2046SOL    HW2 6163   2.569   1.564   3.101
 2047SOL     OW 6164   3.214   0.052   2.030
 2047SOL    HW1 6165   3.249   0.011   1.946
 2047SOL    HW2 6166   3.124   0.014   2.050
 2048SOL     OW 6167   3.162   0.453   2.553
 2048SOL    HW1 6168   3.103   0.533   2.557
 2048SOL    HW2 6169   3.177   0.418   2.646
 2049SOL     OW 6170   3.455   0.221   2.744
 2049SOL    HW1 6171   3.371   0.220   2.798
 2049SOL    HW2 6172   3.457   0.304   2.688
 2050SOL     OW 6173   1.901   1.077   2.162
 2050SOL    HW1 6174   2.000   1.066   2.153
 2050SOL    HW2 6175   1.861   0.991   2.194
 2051SOL     OW 6176   2.737   1.646   2.199
 2051SOL    HW1 6177   2.660   1.611   2.145
 2051SOL    HW2 6178   2.705   1.717   2.261
 2052SOL     OW 6179   2.092   0.628   3.837
 2052SOL    HW1 6180   1.999   0.626   3.874
 2052SOL    HW2 6181   2.093   0.589   3.745
 2053SOL     OW 6182   2.087   0.275   4.720
 2053SOL    HW1 6183   2.122   0.258   4.812
 2053SOL    HW2 6184   1.999   0.230   4.708
 2054SOL     OW 6185   1.881   0.368   4.371
 2054SOL    HW1 6186   1.799   0.411   4.410
 2054SOL    HW2 6187   1.853   0.295   4.308
 2055SOL     OW 6188   2.431   1.275   4.889
 2055SOL    HW1 6189   2.338   1.268   4.852
 2055SOL    HW2 6190   2.442   1.364   4.933
 2056SOL     OW 6191   3.417   1.511   4.427
 2056SOL    HW1 6192   3.360   1.495   4.508
 2056SOL    HW2 6193   3.358   1.521   4.347
 2057SOL     OW 6194   2.997   0.703   4.441
 2057SOL    HW1 6195   3.054   0.781   4.416
 2057SOL    HW2 6196   2.937   0.729   4.517
 2058SOL     OW 6197   3.617   0.607   3.955
 2058SOL    HW1 6198   3.605   0.594   3.856
 2058SOL    HW2 6199   3.587   0.526   4.004
 2059SOL     OW 6200   2.630   1.144   4.747
 2059SOL    HW1 6201   2.552   1.161   4.807
 2059SOL    HW2 6202   2.664   1.231   4.711
 2060SOL     OW 6203   2.547   1.012   4.389
 2060SOL    HW1 6204   2.616   0.996   4.459
 2060SOL    HW2 6205   2.474   1.069   4.427
 2061SOL     OW 6206   2.197   1.435   4.785
 2061SOL    HW1 6207   2.119   1.404   4.732
 2061SOL    HW2 6208   2.255   1.493   4.728
 2062SOL     OW 6209   2.300   0.392   5.223
 2062SOL    HW1 6210   2.382   0.336   5.232
 2062SOL    HW2 6211   2.219   0.334   5.227
 2063SOL     OW 6212   3.465   0.447   4.461
 2063SOL    HW1 6213   3.391   0.493   4.411
 2063SOL    HW2 6214   3.516   0.515   4.514
 2064SOL     OW 6215   2.093   1.713   4.207
 2064SOL    HW1 6216   2.127   1.790   4.261
 2064SOL    HW2 6217   2.137   1.713   4.117
 2065SOL     OW 6218   2.092   1.434   4.262
 2065SOL    HW1 6219   2.066   1.530   4.262
 2065SOL    HW2 6220   2.021   1.380   4.307
 2066SOL     OW 6221   2.102   1.091   4.610
 2066SOL    HW1 6222   2.116   1.007   4.662
 2066SOL    HW2 6223   2.047   1.155   4.665
 2067SOL     OW 6224   2.482   1.786   5.163
 2067SOL    HW1 6225   2.390   1.769   5.198
 2067SOL    HW2 6226   2.510   1.878   5.189
 2068SOL     OW 6227   2.468   0.964   3.847
 2068SOL    HW1 6228   2.475   1.048   3.793
 2068SOL    HW2 6229   2.514   0.977   3.935
 2069SOL     OW 6230   1.984   0.643   4.287
 2069SOL    HW1 6231   1.939   0.555   4.304
 2069SOL    HW2 6232   1.983   0.697   4.371
 2070SOL     OW 6233   3.704   1.767   4.083
 2070SOL    HW1 6234   3.758   1.738   4.163
 2070SOL    HW2 6235   3.734   1.857   4.054
 2071SOL     OW 6236   1.889   1.596   3.841
 2071SOL    HW1 6237   1.870   1.500   3.862
 2071SOL    HW2 6238   1.856   1.654   3.916
 2072SOL     OW 6239   3.551   0.922   4.336
 2072SOL    HW1 6240   3.646   0.893   4.344
 2072SOL    HW2 6241   3.543   0.987   4.261
 2073SOL     OW 6242   3.503   1.108   4.156
 2073SOL    HW1 6243   3.589   1.110   4.104
 2073SOL    HW2 6244   3.517   1.155   4.244
 2074SOL     OW 6245   2.475   1.365   4.450
 2074SOL    HW1 6246   2.426   1.278   4.459
 2074SOL    HW2 6247   2.452   1.408   4.363
 2075SOL     OW 6248   2.671   0.004   4.226
 2075SOL    HW1 6249   2.711   0.095   4.217
 2075SOL    HW2 6250   2.571   0.012   4.232
 2076SOL     OW 6251   2.059   0.976   4.988
 2076SOL    HW1 6252   2.148   0.931   4.974
 2076SOL    HW2 6253   1.986   0.911   4.969
 2077SOL     OW 6254   3.387   0.999   3.914
 2077SOL    HW1 6255   3.324   0.923   3.927
 2077SOL    HW2 6256   3.435   1.017   4.000
 2078SOL     OW 6257   3.328   1.417   4.677
 2078SOL    HW1 6258   3.269   1.423   4.757
 2078SOL    HW2 6259   3.313   1.329   4.631
 2079SOL     OW 6260   3.529   1.714   4.296
 2079SOL    HW1 6261   3.488   1.691   4.208
 2079SOL    HW2 6262   3.511   1.640   4.361
 2080SOL     OW 6263   2.460   0.729   3.994
 2080SOL    HW1 6264   2.484   0.798   3.926
 2080SOL    HW2 6265   2.382   0.762   4.048
 2081SOL     OW 6266   3.143   0.345   4.668
 2081SOL    HW1 6267   3.057   0.295   4.655
 2081SOL    HW2 6268   3.205   0.291   4.724
 2082SOL     OW 6269   3.438   1.662   4.031
 2082SOL    HW1 6270   3.527   1.708   4.034
 2082SOL    HW2 6271   3.417   1.638   3.936
 2083SOL     OW 6272   2.669   0.605   5.189
 2083SOL    HW1 6273   2.622   0.602   5.278
 2083SOL    HW2 6274   2.618   0.550   5.123
 2084SOL     OW 6275   2.853   0.410   4.966
 2084SOL    HW1 6276   2.776   0.444   5.020
 2084SOL    HW2 6277   2.819   0.359   4.887
 2085SOL     OW 6278   2.903   0.701   4.153
 2085SOL    HW1 6279   2.929   0.697   4.249
 2085SOL    HW2 6280   2.818   0.650   4.139
 2086SOL     OW 6281   1.938   0.811   4.513
 2086SOL    HW1 6282   2.037   0.799   4.522
 2086SOL    HW2 6283   1.914   0.906   4.534
 2087SOL     OW 6284   1.992   1.821   5.295
 2087SOL    HW1 6285   1.982   1.806   5.394
 2087SOL    HW2 6286   1.906   1.857   5.259
 2088SOL     OW 6287   2.727   0.348   3.919
 2088SOL    HW1 6288   2.786   0.411   3.870
 2088SOL    HW2 6289   2.746   0.254   3.890
 2089SOL     OW 6290   3.224   1.144   4.269
 2089SOL    HW1 6291   3.307   1.115   4.221
 2089SOL    HW2 6292   3.175   1.211   4.213
 2090SOL     OW 6293   2.412   0.196   4.609
 2090SOL    HW1 6294   2.407   0.191   4.709
 2090SOL    HW2 6295   2.414   0.292   4.580
 2091SOL     OW 6296   2.870   1.456   4.201
 2091SOL    HW1 6297   2.824   1.528   4.149
 2091SOL    HW2 6298   2.866   1.476   4.299
 2092SOL     OW 6299   2.213   1.801   4.577
 2092SOL    HW1 6300   2.263   1.715   4.583
 2092SOL    HW2 6301   2.278   1.878   4.574
 2093SOL     OW 6302   3.657   1.066   4.597
 2093SOL    HW1 6303   3.595   1.051   4.521
 2093SOL    HW2 6304   3.605   1.077   4.682
 2094SOL     OW 6305   2.183   0.943   3.966
 2094SOL    HW1 6306   2.265   0.982   3.924
 2094SOL    HW2 6307   2.156   0.861   3.917
 2095SOL     OW 6308   3.320   0.735   4.452
 2095SOL    HW1 6309   3.315   0.670   4.527
 2095SOL    HW2 6310   3.400   0.794   4.465
 2096SOL     OW 6311   2.973   1.776   3.961
 2096SOL    HW1 6312   2.913   1.714   4.011
 2096SOL    HW2 6313   3.004   1.732   3.876
 2097SOL     OW 6314   3.494   1.377   3.805
 2097SOL    HW1 6315   3.462   1.471   3.795
 2097SOL    HW2 6316   3.418   1.314   3.793
 2098SOL     OW 6317   2.326   1.743   4.047
 2098SOL    HW1 6318   2.359   1.782   4.133
 2098SOL    HW2 6319   2.402   1.736   3.982
 2099SOL     OW 6320   3.262   0.107   4.150
 2099SOL    HW1 6321   3.238   0.070   4.060
 2099SOL    HW2 6322   3.361   0.123   4.154
 2100SOL     OW 6323   2.111   1.785   4.965
 2100SOL    HW1 6324   2.168   1.720   5.015
 2100SOL    HW2 6325   2.095   1.752   4.872
 2101SOL     OW 6326   2.802   1.698   4.628
 2101SOL    HW1 6327   2.882   1.641   4.649
 2101SOL    HW2 6328   2.753   1.658   4.551
 2102SOL     OW 6329   2.244   0.700   4.204
 2102SOL    HW1 6330   2.289   0.610   4.201
 2102SOL    HW2 6331   2.150   0.689   4.237
 2103SOL     OW 6332   2.476   0.122   3.841
 2103SOL    HW1 6333   2.574   0.100   3.848
 2103SOL    HW2 6334   2.445   0.105   3.748
 2104SOL     OW 6335   2.750   1.514   4.919
 2104SOL    HW1 6336   2.727   1.489   4.825
 2104SOL    HW2 6337   2.811   1.445   4.958
 2105SOL     OW 6338   2.665   1.402   4.648
 2105SOL    HW1 6339   2.755   1.416   4.606
 2105SOL    HW2 6340   2.594   1.404   4.577
 2106SOL     OW 6341   2.784   0.503   4.623
 2106SOL    HW1 6342   2.759   0.494   4.527
 2106SOL    HW2 6343   2.832   0.421   4.654
 2107SOL     OW 6344   2.401   0.064   4.236
 2107SOL    HW1 6345   2.320   0.065   4.294
 2107SOL    HW2 6346   2.404   0.147   4.181
 2108SOL     OW 6347   3.296   1.188   3.765
 2108SOL    HW1 6348   3.328   1.112   3.822
 2108SOL    HW2 6349   3.204   1.215   3.795
 2109SOL     OW 6350   2.159   0.035   3.895
 2109SOL    HW1 6351   2.208   0.119   3.874
 2109SOL    HW2 6352   2.221  -0.030   3.940
 2110SOL     OW 6353   2.797   0.236   4.204
 2110SOL    HW1 6354   2.749   0.277   4.126
 2110SOL    HW2 6355   2.896   0.234   4.185
 2111SOL     OW 6356   3.089   1.570   4.517
 2111SOL    HW1 6357   3.110   1.644   4.452
 2111SOL    HW2 6358   3.157   1.570   4.590
 2112SOL     OW 6359   2.321   1.152   4.465
 2112SOL    HW1 6360   2.250   1.125   4.530
 2112SOL    HW2 6361   2.295   1.124   4.372
 2113SOL     OW 6362   3.133   1.797   4.315
 2113SOL    HW1 6363   3.177   1.861   4.251
 2113SOL    HW2 6364   3.083   1.849   4.385
 2114SOL     OW 6365   2.894   0.549   3.740
 2114SOL    HW1 6366   2.853   0.631   3.701
 2114SOL    HW2 6367   2.958   0.575   3.813
 2115SOL     OW 6368   2.423   0.222   4.871
 2115SOL    HW1 6369   2.461   0.138   4.908
 2115SOL    HW2 6370   2.335   0.241   4.915
 2116SOL     OW 6371   2.728   0.454   4.366
 2116SOL    HW1 6372   2.696   0.526   4.304
 2116SOL    HW2 6373   2.752   0.373   4.313
 2117SOL     OW 6374   2.879   0.039   4.477
 2117SOL    HW1 6375   2.807   0.044   4.408
 2117SOL    HW2 6376   2.855  -0.030   4.546
 2118SOL     OW 6377   3.291   1.173   4.591
 2118SOL    HW1 6378   3.236   1.089   4.584
 2118SOL    HW2 6379   3.317   1.202   4.499
 2119SOL     OW 6380   3.328   0.590   4.716
 2119SOL    HW1 6381   3.298   0.495   4.723
 2119SOL    HW2 6382   3.401   0.606   4.782
 2120SOL     OW 6383   3.719   0.833   4.101
 2120SOL    HW1 6384   3.761   0.769   4.165
 2120SOL    HW2 6385   3.681   0.782   4.023
 2121SOL     OW 6386   2.350   1.385   3.898
 2121SOL    HW1 6387   2.263   1.370   3.945
 2121SOL    HW2 6388   2.333   1.411   3.803
 2122SOL     OW 6389   3.526   1.280   4.381
 2122SOL    HW1 6390   3.625   1.288   4.395
 2122SOL    HW2 6391   3.481   1.364   4.412
 2123SOL     OW 6392   3.252   0.575   3.802
 2123SOL    HW1 6393   3.198   0.554   3.883
 2123SOL    HW2 6394   3.343   0.534   3.811
 2124SOL     OW 6395   2.389   0.256   4.052
 2124SOL    HW1 6396   2.416   0.197   3.977
 2124SOL    HW2 6397   2.389   0.351   4.021
 2125SOL     OW 6398   3.616   1.223   5.312
 2125SOL    HW1 6399   3.707   1.184   5.299
 2125SOL    HW2 6400   3.624   1.319   5.336
 2126SOL     OW 6401   2.973   1.195   4.824
 2126SOL    HW1 6402   2.933   1.239   4.905
 2126SOL    HW2 6403   2.932   1.232   4.741
 2127SOL     OW 6404   3.500   1.099   4.803
 2127SOL    HW1 6405   3.505   1.180   4.862
 2127SOL    HW2 6406   3.414   1.101   4.752
 2128SOL     OW 6407   2.567   1.050   4.092
 2128SOL    HW1 6408   2.553   1.057   4.191
 2128SOL    HW2 6409   2.651   0.999   4.074
 2129SOL     OW 6410   2.272   0.813   4.975
 2129SOL    HW1 6411   2.358   0.825   5.025
 2129SOL    HW2 6412   2.230   0.726   5.002
 2130SOL     OW 6413   3.136   0.386   4.986
 2130SOL    HW1 6414   3.157   0.460   5.050
 2130SOL    HW2 6415   3.047   0.403   4.943
 2131SOL     OW 6416   1.926   1.564   5.055
 2131SOL    HW1 6417   1.880   1.646   5.021
 2131SOL    HW2 6418   2.024   1.583   5.064
 2132SOL     OW 6419   2.229   1.100   4.225
 2132SOL    HW1 6420   2.222   1.183   4.169
 2132SOL    HW2 6421   2.233   1.020   4.165
 2133SOL     OW 6422   2.428   0.537   4.589
 2133SOL    HW1 6423   2.440   0.603   4.515
 2133SOL    HW2 6424   2.474   0.571   4.672
 2134SOL     OW 6425   3.114   1.348   4.112
 2134SOL    HW1 6426   3.164   1.425   4.152
 2134SOL    HW2 6427   3.019   1.350   4.144
 2135SOL     OW 6428   3.134   1.445   4.866
 2135SOL    HW1 6429   3.181   1.458   4.953
 2135SOL    HW2 6430   3.068   1.371   4.875
 2136SOL     OW 6431   3.444   0.639   4.196
 2136SOL    HW1 6432   3.413   0.700   4.269
 2136SOL    HW2 6433   3.494   0.691   4.127
 2137SOL     OW 6434   2.216   1.510   5.053
 2137SOL    HW1 6435   2.195   1.466   4.966
 2137SOL    HW2 6436   2.313   1.536   5.056
 2138SOL     OW 6437   2.435   0.870   4.753
 2138SOL    HW1 6438   2.479   0.959   4.744
 2138SOL    HW2 6439   2.372   0.870   4.830
 2139SOL     OW 6440   3.222   0.862   4.769
 2139SOL    HW1 6441   3.147   0.862   4.703
 2139SOL    HW2 6442   3.259   0.770   4.778
 2140SOL     OW 6443   3.071   0.525   3.999
 2140SOL    HW1 6444   3.084   0.441   4.053
 2140SOL    HW2 6445   3.042   0.599   4.059
 2141SOL     OW 6446   2.169   0.213   4.955
 2141SOL    HW1 6447   2.146   0.250   5.045
 2141SOL    HW2 6448   2.139   0.118   4.949
 2142SOL     OW 6449   1.899   1.310   5.006
 2142SOL    HW1 6450   1.952   1.261   5.074
 2142SOL    HW2 6451   1.921   1.408   5.011
 2143SOL     OW 6452   2.594   0.634   4.788
 2143SOL    HW1 6453   2.653   0.608   4.712
 2143SOL    HW2 6454   2.566   0.730   4.777
 2144SOL     OW 6455   2.169   0.063   4.342
 2144SOL    HW1 6456   2.158   0.157   4.375
 2144SOL    HW2 6457   2.164   0.000   4.419
 2145SOL     OW 6458   3.484   0.367   4.098
 2145SOL    HW1 6459   3.486   0.291   4.162
 2145SOL    HW2 6460   3.436   0.444   4.138
 2146SOL     OW 6461   2.885   0.766   4.690
 2146SOL    HW1 6462   2.900   0.787   4.786
 2146SOL    HW2 6463   2.855   0.671   4.681
 2147SOL     OW 6464   3.402   0.274   3.849
 2147SOL    HW1 6465   3.341   0.199   3.872
 2147SOL    HW2 6466   3.424   0.326   3.932
 2148SOL     OW 6467   3.165   0.838   3.766
 2148SOL    HW1 6468   3.199   0.745   3.781
 2148SOL    HW2 6469   3.183   0.865   3.671
 2149SOL     OW 6470   2.930   1.333   4.573
 2149SOL    HW1 6471   2.937   1.249   4.518
 2149SOL    HW2 6472   2.992   1.402   4.537
 2150SOL     OW 6473   2.181   0.810   4.673
 2150SOL    HW1 6474   2.274   0.846   4.678
 2150SOL    HW2 6475   2.175   0.725   4.725
 2151SOL     OW 6476   2.201   0.509   4.730
 2151SOL    HW1 6477   2.149   0.426   4.713
 2151SOL    HW2 6478   2.278   0.514   4.666
 2152SOL     OW 6479   3.022   0.207   5.201
 2152SOL    HW1 6480   3.022   0.271   5.278
 2152SOL    HW2 6481   3.050   0.255   5.118
 2153SOL     OW 6482   1.870   1.326   3.924
 2153SOL    HW1 6483   1.777   1.347   3.893
 2153SOL    HW2 6484   1.880   1.227   3.937
 2154SOL     OW 6485   1.950   1.801   4.651
 2154SOL    HW1 6486   1.908   1.715   4.624
 2154SOL    HW2 6487   2.044   1.804   4.617
 2155SOL     OW 6488   2.366   1.568   4.634
 2155SOL    HW1 6489   2.432   1.642   4.643
 2155SOL    HW2 6490   2.410   1.489   4.592
 2156SOL     OW 6491   2.864   0.796   4.962
 2156SOL    HW1 6492   2.905   0.764   5.048
 2156SOL    HW2 6493   2.768   0.769   4.959
 2157SOL     OW 6494   1.902   0.544   4.838
 2157SOL    HW1 6495   1.987   0.511   4.797
 2157SOL    HW2 6496   1.915   0.559   4.936
 2158SOL     OW 6497   2.677   0.572   4.049
 2158SOL    HW1 6498   2.684   0.483   4.003
 2158SOL    HW2 6499   2.583   0.606   4.041
 2159SOL     OW 6500   3.519   0.604   4.930
 2159SOL    HW1 6501   3.481   0.535   4.992
 2159SOL    HW2 6502   3.601   0.568   4.886
 2160SOL     OW 6503   2.533   0.464   4.993
 2160SOL    HW1 6504   2.499   0.375   4.963
 2160SOL    HW2 6505   2.559   0.518   4.913
 2161SOL     OW 6506   2.792   1.678   5.189
 2161SOL    HW1 6507   2.768   1.660   5.094
 2161SOL    HW2 6508   2.822   1.772   5.199
 2162SOL     OW 6509   2.335   0.500   3.915
 2162SOL    HW1 6510   2.396   0.580   3.919
 2162SOL    HW2 6511   2.240   0.531   3.922
 2163SOL     OW 6512   2.021   1.137   5.190
 2163SOL    HW1 6513   2.043   1.076   5.266
 2163SOL    HW2 6514   2.031   1.088   5.104
 2164SOL     OW 6515   3.209   1.059   4.958
 2164SOL    HW1 6516   3.233   0.996   4.884
 2164SOL    HW2 6517   3.119   1.099   4.940
 2165SOL     OW 6518   3.164   0.855   4.033
 2165SOL    HW1 6519   3.078   0.824   4.075
 2165SOL    HW2 6520   3.160   0.841   3.934
 2166SOL     OW 6521   3.621   1.747   4.878
 2166SOL    HW1 6522   3.682   1.777   4.805
 2166SOL    HW2 6523   3.583   1.658   4.856
 2167SOL     OW 6524   3.114   1.731   4.852
 2167SOL    HW1 6525   3.198   1.736   4.798
 2167SOL    HW2 6526   3.091   1.635   4.870
 2168SOL     OW 6527   1.945   1.258   4.746
 2168SOL    HW1 6528   1.940   1.257   4.846
 2168SOL    HW2 6529   1.862   1.217   4.708
 2169SOL     OW 6530   3.588   0.135   4.247
 2169SOL    HW1 6531   3.661   0.118   4.180
 2169SOL    HW2 6532   3.557   0.048   4.285
 2170SOL     OW 6533   3.250   1.573   4.201
 2170SOL    HW1 6534   3.317   1.585   4.127
 2170SOL    HW2 6535   3.210   1.662   4.224
 2171SOL     OW 6536   3.142   0.927   4.396
 2171SOL    HW1 6537   3.202   0.846   4.398
 2171SOL    HW2 6538   3.182   0.996   4.336
 2172SOL     OW 6539   2.534   1.616   3.878
 2172SOL    HW1 6540   2.543   1.626   3.779
 2172SOL    HW2 6541   2.494   1.527   3.899
 2173SOL     OW 6542   3.703   0.175   4.687
 2173SOL    HW1 6543   3.742   0.090   4.651
 2173SOL    HW2 6544   3.605   0.177   4.668
 2174SOL     OW 6545   2.125   0.326   4.444
 2174SOL    HW1 6546   2.046   0.377   4.410
 2174SOL    HW2 6547   2.116   0.311   4.542
 2175SOL     OW 6548   3.056   1.612   3.755
 2175SOL    HW1 6549   3.062   1.519   3.792
 2175SOL    HW2 6550   2.997   1.612   3.675
 2176SOL     OW 6551   2.684   1.002   5.096
 2176SOL    HW1 6552   2.724   1.001   5.004
 2176SOL    HW2 6553   2.694   1.094   5.136
 2177SOL     OW 6554   2.778   0.910   4.015
 2177SOL    HW1 6555   2.841   0.948   3.947
 2177SOL    HW2 6556   2.818   0.827   4.054
 2178SOL     OW 6557   3.366   1.607   3.768
 2178SOL    HW1 6558   3.274   1.644   3.775
 2178SOL    HW2 6559   3.404   1.627   3.678
 2179SOL     OW 6560   3.476   1.292   5.013
 2179SOL    HW1 6561   3.536   1.295   5.093
 2179SOL    HW2 6562   3.401   1.356   5.026
 2180SOL     OW 6563   2.901   1.098   4.420
 2180SOL    HW1 6564   2.831   1.051   4.474
 2180SOL    HW2 6565   2.960   1.030   4.377
 2181SOL     OW 6566   2.876   0.236   4.695
 2181SOL    HW1 6567   2.868   0.200   4.602
 2181SOL    HW2 6568   2.874   0.160   4.760
 2182SOL     OW 6569   2.452   1.487   4.215
 2182SOL    HW1 6570   2.494   1.429   4.145
 2182SOL    HW2 6571   2.408   1.566   4.171
 2183SOL     OW 6572   3.571   0.385   5.105
 2183SOL    HW1 6573   3.644   0.454   5.109
 2183SOL    HW2 6574   3.599   0.310   5.046
 2184SOL     OW 6575   2.117   1.348   4.014
 2184SOL    HW1 6576   2.021   1.349   3.987
 2184SOL    HW2 6577   2.129   1.401   4.098
 2185SOL     OW 6578   1.937   0.345   3.757
 2185SOL    HW1 6579   1.845   0.317   3.728
 2185SOL    HW2 6580   1.968   0.422   3.701
 2186SOL     OW 6581   1.934   0.166   4.042
 2186SOL    HW1 6582   1.917   0.249   3.988
 2186SOL    HW2 6583   2.024   0.129   4.020
 2187SOL     OW 6584   3.045   1.335   3.843
 2187SOL    HW1 6585   2.946   1.324   3.845
 2187SOL    HW2 6586   3.079   1.350   3.936
 2188SOL     OW 6587   2.475   0.842   5.155
 2188SOL    HW1 6588   2.531   0.923   5.138
 2188SOL    HW2 6589   2.534   0.762   5.158
 2189SOL     OW 6590   3.355   1.767   4.683
 2189SOL    HW1 6591   3.388   1.831   4.614
 2189SOL    HW2 6592   3.421   1.761   4.758
 2190SOL     OW 6593   2.252   1.741   5.284
 2190SOL    HW1 6594   2.161   1.782   5.282
 2190SOL    HW2 6595   2.245   1.647   5.316
 2191SOL     OW 6596   3.536   0.883   4.978
 2191SOL    HW1 6597   3.509   0.794   4.941
 2191SOL    HW2 6598   3.537   0.951   4.905
 2192SOL     OW 6599   3.087   0.325   4.173
 2192SOL    HW1 6600   3.152   0.251   4.162
 2192SOL    HW2 6601   3.107   0.375   4.257
 2193SOL     OW 6602   2.456   0.745   4.376
 2193SOL    HW1 6603   2.506   0.830   4.357
 2193SOL    HW2 6604   2.368   0.747   4.328
 2194SOL     OW 6605   3.592   0.934   5.241
 2194SOL    HW1 6606   3.630   1.025   5.256
 2194SOL    HW2 6607   3.584   0.917   5.142
 2195SOL     OW 6608   2.721   1.374   3.740
 2195SOL    HW1 6609   2.675   1.389   3.828
 2195SOL    HW2 6610   2.765   1.459   3.710
 2196SOL     OW 6611   2.523   1.790   4.677
 2196SOL    HW1 6612   2.477   1.878   4.664
 2196SOL    HW2 6613   2.622   1.802   4.670
 2197SOL     OW 6614   2.721   0.956   4.585
 2197SOL    HW1 6615   2.775   0.887   4.633
 2197SOL    HW2 6616   2.689   1.025   4.651
 2198SOL     OW 6617   2.945   0.984   3.811
 2198SOL    HW1 6618   2.922   1.037   3.729
 2198SOL    HW2 6619   3.026   0.928   3.792
 2199SOL     OW 6620   3.723   1.569   4.575
 2199SOL    HW1 6621   3.652   1.557   4.505
 2199SOL    HW2 6622   3.724   1.490   4.635
 2200SOL     OW 6623   1.941   1.240   4.377
 2200SOL    HW1 6624   1.940   1.193   4.465
 2200SOL    HW2 6625   2.023   1.212   4.326
 2201SOL     OW 6626   3.686   0.192   4.951
 2201SOL    HW1 6627   3.682   0.102   4.995
 2201SOL    HW2 6628   3.689   0.181   4.852
 2202SOL     OW 6629   2.290   0.424   4.244
 2202SOL    HW1 6630   2.320   0.352   4.182
 2202SOL    HW2 6631   2.251   0.384   4.327
 2203SOL     OW 6632   3.567   1.487   4.828
 2203SOL    HW1 6633   3.474   1.462   4.801
 2203SOL    HW2 6634   3.593   1.437   4.910
 2204SOL     OW 6635   2.179   0.547   5.004
 2204SOL    HW1 6636   2.217   0.488   5.076
 2204SOL    HW2 6637   2.219   0.521   4.916
 2205SOL     OW 6638   2.674   1.586   4.411
 2205SOL    HW1 6639   2.706   1.596   4.317
 2205SOL    HW2 6640   2.595   1.524   4.413
 2206SOL     OW 6641   3.286   0.214   4.836
 2206SOL    HW1 6642   3.338   0.149   4.891
 2206SOL    HW2 6643   3.237   0.277   4.897
 2207SOL     OW 6644   2.863   0.034   4.878
 2207SOL    HW1 6645   2.800  -0.038   4.847
 2207SOL    HW2 6646   2.956  -0.002   4.878
 2208SOL     OW 6647   2.632   1.330   4.025
 2208SOL    HW1 6648   2.586   1.243   4.042
 2208SOL    HW2 6649   2.723   1.327   4.066
 2209SOL     OW 6650   2.480   1.567   5.008
 2209SOL    HW1 6651   2.475   1.649   5.065
 2209SOL    HW2 6652   2.569   1.564   4.963
 2210SOL     OW 6653   3.214   0.052   3.892
 2210SOL    HW1 6654   3.249   0.011   3.808
 2210SOL    HW2 6655   3.124   0.014   3.912
 2211SOL     OW 6656   3.162   0.453   4.415
 2211SOL    HW1 6657   3.103   0.533   4.419
 2211SOL    HW2 6658   3.177   0.418   4.508
 2212SOL     OW 6659   3.455   0.221   4.606
 2212SOL    HW1 6660   3.371   0.220   4.660
 2212SOL    HW2 6661   3.457   0.304   4.550
 2213SOL     OW 6662   1.901   1.077   4.024
 2213SOL    HW1 6663   2.000   1.066   4.015
 2213SOL    HW2 6664   1.861   0.991   4.056
 2214SOL     OW 6665   2.737   1.646   4.061
 2214SOL    HW1 6666   2.660   1.611   4.007
 2214SOL    HW2 6667   2.705   1.717   4.123
 2215SOL     OW 6668   2.092   2.490   0.113
 2215SOL    HW1 6669   1.999   2.488   0.150
 2215SOL    HW2 6670   2.093   2.451   0.021
 2216SOL     OW 6671   2.087   2.137   0.996
 2216SOL    HW1 6672   2.122   2.120   1.088
 2216SOL    HW2 6673   1.999   2.092   0.984
 2217SOL     OW 6674   1.881   2.230   0.647
 2217SOL    HW1 6675   1.799   2.273   0.686
 2217SOL    HW2 6676   1.853   2.157   0.584
 2218SOL     OW 6677   2.431   3.137   1.165
 2218SOL    HW1 6678   2.338   3.130   1.128
 2218SOL    HW2 6679   2.442   3.226   1.209
 2219SOL     OW 6680   3.417   3.373   0.703
 2219SOL    HW1 6681   3.360   3.357   0.784
 2219SOL    HW2 6682   3.358   3.383   0.623
 2220SOL     OW 6683   2.997   2.565   0.717
 2220SOL    HW1 6684   3.054   2.643   0.692
 2220SOL    HW2 6685   2.937   2.591   0.793
 2221SOL     OW 6686   3.617   2.469   0.231
 2221SOL    HW1 6687   3.605   2.456   0.132
 2221SOL    HW2 6688   3.587   2.388   0.280
 2222SOL     OW 6689   2.630   3.006   1.023
 2222SOL    HW1 6690   2.552   3.023   1.083
 2222SOL    HW2 6691   2.664   3.093   0.987
 2223SOL     OW 6692   2.712   2.660   1.823
 2223SOL    HW1 6693   2.708   2.736   1.888
 2223SOL    HW2 6694   2.734   2.696   1.732
 2224SOL     OW 6695   2.547   2.874   0.665
 2224SOL    HW1 6696   2.616   2.858   0.735
 2224SOL    HW2 6697   2.474   2.931   0.703
 2225SOL     OW 6698   2.548   3.023   1.803
 2225SOL    HW1 6699   2.608   3.102   1.817
 2225SOL    HW2 6700   2.462   3.054   1.762
 2226SOL     OW 6701   2.197   3.297   1.061
 2226SOL    HW1 6702   2.119   3.266   1.008
 2226SOL    HW2 6703   2.255   3.355   1.004
 2227SOL     OW 6704   3.322   3.367   1.339
 2227SOL    HW1 6705   3.346   3.461   1.365
 2227SOL    HW2 6706   3.306   3.313   1.421
 2228SOL     OW 6707   2.300   2.254   1.499
 2228SOL    HW1 6708   2.382   2.198   1.508
 2228SOL    HW2 6709   2.219   2.196   1.503
 2229SOL     OW 6710   3.465   2.309   0.737
 2229SOL    HW1 6711   3.391   2.355   0.687
 2229SOL    HW2 6712   3.516   2.377   0.790
 2230SOL     OW 6713   2.093   3.575   0.483
 2230SOL    HW1 6714   2.127   3.652   0.537
 2230SOL    HW2 6715   2.137   3.575   0.393
 2231SOL     OW 6716   2.989   3.203   1.690
 2231SOL    HW1 6717   3.036   3.203   1.778
 2231SOL    HW2 6718   2.941   3.116   1.679
 2232SOL     OW 6719   2.092   3.296   0.538
 2232SOL    HW1 6720   2.066   3.392   0.538
 2232SOL    HW2 6721   2.021   3.242   0.583
 2233SOL     OW 6722   2.102   2.953   0.886
 2233SOL    HW1 6723   2.116   2.869   0.938
 2233SOL    HW2 6724   2.047   3.017   0.941
 2234SOL     OW 6725   2.482   3.648   1.439
 2234SOL    HW1 6726   2.390   3.631   1.474
 2234SOL    HW2 6727   2.510   3.740   1.465
 2235SOL     OW 6728   2.468   2.826   0.123
 2235SOL    HW1 6729   2.475   2.910   0.069
 2235SOL    HW2 6730   2.514   2.839   0.211
 2236SOL     OW 6731   3.456   1.976   1.480
 2236SOL    HW1 6732   3.438   2.043   1.408
 2236SOL    HW2 6733   3.453   2.022   1.569
 2237SOL     OW 6734   1.984   2.505   0.563
 2237SOL    HW1 6735   1.939   2.417   0.580
 2237SOL    HW2 6736   1.983   2.559   0.647
 2238SOL     OW 6737   3.704   3.629   0.359
 2238SOL    HW1 6738   3.758   3.600   0.439
 2238SOL    HW2 6739   3.734   3.719   0.330
 2239SOL     OW 6740   1.889   3.458   0.117
 2239SOL    HW1 6741   1.870   3.362   0.138
 2239SOL    HW2 6742   1.856   3.516   0.192
 2240SOL     OW 6743   3.551   2.784   0.612
 2240SOL    HW1 6744   3.646   2.755   0.620
 2240SOL    HW2 6745   3.543   2.849   0.537
 2241SOL     OW 6746   3.503   2.970   0.432
 2241SOL    HW1 6747   3.589   2.972   0.380
 2241SOL    HW2 6748   3.517   3.017   0.520
 2242SOL     OW 6749   1.975   2.599   1.597
 2242SOL    HW1 6750   2.063   2.586   1.642
 2242SOL    HW2 6751   1.962   2.696   1.575
 2243SOL     OW 6752   2.475   3.227   0.726
 2243SOL    HW1 6753   2.426   3.140   0.735
 2243SOL    HW2 6754   2.452   3.270   0.639
 2244SOL     OW 6755   3.155   3.090   1.423
 2244SOL    HW1 6756   3.192   3.017   1.365
 2244SOL    HW2 6757   3.207   3.095   1.508
 2245SOL     OW 6758   2.671   1.866   0.502
 2245SOL    HW1 6759   2.711   1.957   0.493
 2245SOL    HW2 6760   2.571   1.874   0.508
 2246SOL     OW 6761   2.059   2.838   1.264
 2246SOL    HW1 6762   2.148   2.793   1.250
 2246SOL    HW2 6763   1.986   2.773   1.245
 2247SOL     OW 6764   3.387   2.861   0.190
 2247SOL    HW1 6765   3.324   2.785   0.203
 2247SOL    HW2 6766   3.435   2.879   0.276
 2248SOL     OW 6767   3.049   3.654   1.616
 2248SOL    HW1 6768   3.073   3.714   1.540
 2248SOL    HW2 6769   3.056   3.559   1.586
 2249SOL     OW 6770   2.179   2.113   1.801
 2249SOL    HW1 6771   2.250   2.184   1.807
 2249SOL    HW2 6772   2.091   2.152   1.829
 2250SOL     OW 6773   3.328   3.279   0.953
 2250SOL    HW1 6774   3.269   3.285   1.033
 2250SOL    HW2 6775   3.313   3.191   0.907
 2251SOL     OW 6776   3.529   3.576   0.572
 2251SOL    HW1 6777   3.488   3.553   0.484
 2251SOL    HW2 6778   3.511   3.502   0.637
 2252SOL     OW 6779   2.460   2.591   0.270
 2252SOL    HW1 6780   2.484   2.660   0.202
 2252SOL    HW2 6781   2.382   2.624   0.324
 2253SOL     OW 6782   3.143   2.207   0.944
 2253SOL    HW1 6783   3.057   2.157   0.931
 2253SOL    HW2 6784   3.205   2.153   1.000
 2254SOL     OW 6785   3.438   3.524   0.307
 2254SOL    HW1 6786   3.527   3.570   0.310
 2254SOL    HW2 6787   3.417   3.500   0.212
 2255SOL     OW 6788   2.669   2.467   1.465
 2255SOL    HW1 6789   2.622   2.464   1.554
 2255SOL    HW2 6790   2.618   2.412   1.399
 2256SOL     OW 6791   3.256   2.331   1.674
 2256SOL    HW1 6792   3.236   2.374   1.762
 2256SOL    HW2 6793   3.334   2.269   1.683
 2257SOL     OW 6794   2.835   2.752   1.572
 2257SOL    HW1 6795   2.881   2.668   1.543
 2257SOL    HW2 6796   2.779   2.786   1.497
 2258SOL     OW 6797   2.853   2.272   1.242
 2258SOL    HW1 6798   2.776   2.306   1.296
 2258SOL    HW2 6799   2.819   2.221   1.163
 2259SOL     OW 6800   2.903   2.563   0.429
 2259SOL    HW1 6801   2.929   2.559   0.525
 2259SOL    HW2 6802   2.818   2.512   0.415
 2260SOL     OW 6803   1.938   2.673   0.789
 2260SOL    HW1 6804   2.037   2.661   0.798
 2260SOL    HW2 6805   1.914   2.768   0.810
 2261SOL     OW 6806   1.992   3.683   1.571
 2261SOL    HW1 6807   1.982   3.668   1.670
 2261SOL    HW2 6808   1.906   3.719   1.535
 2262SOL     OW 6809   2.727   2.210   0.195
 2262SOL    HW1 6810   2.786   2.273   0.146
 2262SOL    HW2 6811   2.746   2.116   0.166
 2263SOL     OW 6812   3.581   2.447   1.831
 2263SOL    HW1 6813   3.555   2.536   1.795
 2263SOL    HW2 6814   3.579   2.379   1.758
 2264SOL     OW 6815   3.224   3.006   0.545
 2264SOL    HW1 6816   3.307   2.977   0.497
 2264SOL    HW2 6817   3.175   3.073   0.489
 2265SOL     OW 6818   2.412   2.058   0.885
 2265SOL    HW1 6819   2.407   2.053   0.985
 2265SOL    HW2 6820   2.414   2.154   0.856
 2266SOL     OW 6821   2.870   3.318   0.477
 2266SOL    HW1 6822   2.824   3.390   0.425
 2266SOL    HW2 6823   2.866   3.338   0.575
 2267SOL     OW 6824   2.213   3.663   0.853
 2267SOL    HW1 6825   2.263   3.577   0.859
 2267SOL    HW2 6826   2.278   3.740   0.850
 2268SOL     OW 6827   3.657   2.928   0.873
 2268SOL    HW1 6828   3.595   2.913   0.797
 2268SOL    HW2 6829   3.605   2.939   0.958
 2269SOL     OW 6830   3.089   3.412   1.506
 2269SOL    HW1 6831   3.095   3.335   1.570
 2269SOL    HW2 6832   3.037   3.386   1.426
 2270SOL     OW 6833   2.183   2.805   0.242
 2270SOL    HW1 6834   2.265   2.844   0.200
 2270SOL    HW2 6835   2.156   2.723   0.193
 2271SOL     OW 6836   3.320   2.597   0.728
 2271SOL    HW1 6837   3.315   2.532   0.803
 2271SOL    HW2 6838   3.400   2.656   0.741
 2272SOL     OW 6839   2.323   3.128   1.727
 2272SOL    HW1 6840   2.273   3.129   1.641
 2272SOL    HW2 6841   2.260   3.110   1.803
 2273SOL     OW 6842   2.973   3.638   0.237
 2273SOL    HW1 6843   2.913   3.576   0.287
 2273SOL    HW2 6844   3.004   3.594   0.152
 2274SOL     OW 6845   2.064   2.147   1.498
 2274SOL    HW1 6846   1.984   2.207   1.485
 2274SOL    HW2 6847   2.054   2.098   1.584
 2275SOL     OW 6848   3.494   3.239   0.081
 2275SOL    HW1 6849   3.462   3.333   0.071
 2275SOL    HW2 6850   3.418   3.176   0.069
 2276SOL     OW 6851   2.326   3.605   0.323
 2276SOL    HW1 6852   2.359   3.644   0.409
 2276SOL    HW2 6853   2.402   3.598   0.258
 2277SOL     OW 6854   3.262   1.969   0.426
 2277SOL    HW1 6855   3.238   1.932   0.336
 2277SOL    HW2 6856   3.361   1.985   0.430
 2278SOL     OW 6857   2.111   3.647   1.241
 2278SOL    HW1 6858   2.168   3.582   1.291
 2278SOL    HW2 6859   2.095   3.614   1.148
 2279SOL     OW 6860   2.802   3.560   0.904
 2279SOL    HW1 6861   2.882   3.503   0.925
 2279SOL    HW2 6862   2.753   3.520   0.827
 2280SOL     OW 6863   2.244   2.562   0.480
 2280SOL    HW1 6864   2.289   2.472   0.477
 2280SOL    HW2 6865   2.150   2.551   0.513
 2281SOL     OW 6866   3.409   2.084   1.729
 2281SOL    HW1 6867   3.404   2.121   1.821
 2281SOL    HW2 6868   3.337   2.015   1.717
 2282SOL     OW 6869   2.643   2.126   1.749
 2282SOL    HW1 6870   2.710   2.065   1.792
 2282SOL    HW2 6871   2.570   2.145   1.814
 2283SOL     OW 6872   2.750   3.376   1.195
 2283SOL    HW1 6873   2.727   3.351   1.101
 2283SOL    HW2 6874   2.811   3.307   1.234
 2284SOL     OW 6875   3.213   2.452   1.433
 2284SOL    HW1 6876   3.241   2.409   1.518
 2284SOL    HW2 6877   3.238   2.548   1.434
 2285SOL     OW 6878   2.665   3.264   0.924
 2285SOL    HW1 6879   2.755   3.278   0.882
 2285SOL    HW2 6880   2.594   3.266   0.853
 2286SOL     OW 6881   2.784   2.365   0.899
 2286SOL    HW1 6882   2.759   2.356   0.803
 2286SOL    HW2 6883   2.832   2.283   0.930
 2287SOL     OW 6884   2.401   1.926   0.512
 2287SOL    HW1 6885   2.320   1.927   0.570
 2287SOL    HW2 6886   2.404   2.009   0.457
 2288SOL     OW 6887   3.296   3.050   0.041
 2288SOL    HW1 6888   3.328   2.974   0.098
 2288SOL    HW2 6889   3.204   3.077   0.071
 2289SOL     OW 6890   2.797   2.098   0.480
 2289SOL    HW1 6891   2.749   2.139   0.402
 2289SOL    HW2 6892   2.896   2.096   0.461
 2290SOL     OW 6893   2.938   2.545   1.464
 2290SOL    HW1 6894   2.858   2.484   1.467
 2290SOL    HW2 6895   3.019   2.492   1.440
 2291SOL     OW 6896   3.089   3.432   0.793
 2291SOL    HW1 6897   3.110   3.506   0.728
 2291SOL    HW2 6898   3.157   3.432   0.866
 2292SOL     OW 6899   2.321   3.014   0.741
 2292SOL    HW1 6900   2.250   2.987   0.806
 2292SOL    HW2 6901   2.295   2.986   0.648
 2293SOL     OW 6902   3.133   3.659   0.591
 2293SOL    HW1 6903   3.177   3.723   0.527
 2293SOL    HW2 6904   3.083   3.711   0.661
 2294SOL     OW 6905   2.894   2.411   0.016
 2294SOL    HW1 6906   2.853   2.493  -0.023
 2294SOL    HW2 6907   2.958   2.437   0.089
 2295SOL     OW 6908   1.940   2.418   1.386
 2295SOL    HW1 6909   2.032   2.417   1.345
 2295SOL    HW2 6910   1.934   2.492   1.453
 2296SOL     OW 6911   2.423   2.084   1.147
 2296SOL    HW1 6912   2.461   2.000   1.184
 2296SOL    HW2 6913   2.335   2.103   1.191
 2297SOL     OW 6914   2.728   2.316   0.642
 2297SOL    HW1 6915   2.696   2.388   0.580
 2297SOL    HW2 6916   2.752   2.235   0.589
 2298SOL     OW 6917   2.879   1.901   0.753
 2298SOL    HW1 6918   2.807   1.906   0.684
 2298SOL    HW2 6919   2.855   1.832   0.822
 2299SOL     OW 6920   3.291   3.035   0.867
 2299SOL    HW1 6921   3.236   2.951   0.860
 2299SOL    HW2 6922   3.317   3.064   0.775
 2300SOL     OW 6923   3.328   2.452   0.992
 2300SOL    HW1 6924   3.298   2.357   0.999
 2300SOL    HW2 6925   3.401   2.468   1.058
 2301SOL     OW 6926   3.719   2.695   0.377
 2301SOL    HW1 6927   3.761   2.631   0.441
 2301SOL    HW2 6928   3.681   2.644   0.299
 2302SOL     OW 6929   2.350   3.247   0.174
 2302SOL    HW1 6930   2.263   3.232   0.221
 2302SOL    HW2 6931   2.333   3.273   0.079
 2303SOL     OW 6932   3.526   3.142   0.657
 2303SOL    HW1 6933   3.625   3.150   0.671
 2303SOL    HW2 6934   3.481   3.226   0.688
 2304SOL     OW 6935   3.252   2.437   0.078
 2304SOL    HW1 6936   3.198   2.416   0.159
 2304SOL    HW2 6937   3.343   2.396   0.087
 2305SOL     OW 6938   2.389   2.118   0.328
 2305SOL    HW1 6939   2.416   2.059   0.253
 2305SOL    HW2 6940   2.389   2.213   0.297
 2306SOL     OW 6941   3.616   3.085   1.588
 2306SOL    HW1 6942   3.707   3.046   1.575
 2306SOL    HW2 6943   3.624   3.181   1.612
 2307SOL     OW 6944   2.926   3.209   1.340
 2307SOL    HW1 6945   2.846   3.186   1.395
 2307SOL    HW2 6946   3.009   3.183   1.389
 2308SOL     OW 6947   3.454   3.491   1.625
 2308SOL    HW1 6948   3.481   3.525   1.535
 2308SOL    HW2 6949   3.533   3.453   1.671
 2309SOL     OW 6950   2.973   3.057   1.100
 2309SOL    HW1 6951   2.933   3.101   1.181
 2309SOL    HW2 6952   2.932   3.094   1.017
 2310SOL     OW 6953   3.500   2.961   1.079
 2310SOL    HW1 6954   3.505   3.042   1.138
 2310SOL    HW2 6955   3.414   2.963   1.028
 2311SOL     OW 6956   2.777   1.951   1.402
 2311SOL    HW1 6957   2.802   1.931   1.307
 2311SOL    HW2 6958   2.849   2.007   1.444
 2312SOL     OW 6959   2.842   2.978   1.719
 2312SOL    HW1 6960   2.743   2.984   1.729
 2312SOL    HW2 6961   2.865   2.898   1.663
 2313SOL     OW 6962   2.567   2.912   0.368
 2313SOL    HW1 6963   2.553   2.919   0.467
 2313SOL    HW2 6964   2.651   2.861   0.350
 2314SOL     OW 6965   2.272   2.675   1.251
 2314SOL    HW1 6966   2.358   2.687   1.301
 2314SOL    HW2 6967   2.230   2.588   1.278
 2315SOL     OW 6968   3.136   2.248   1.262
 2315SOL    HW1 6969   3.157   2.322   1.326
 2315SOL    HW2 6970   3.047   2.265   1.219
 2316SOL     OW 6971   1.926   3.426   1.331
 2316SOL    HW1 6972   1.880   3.508   1.297
 2316SOL    HW2 6973   2.024   3.445   1.340
 2317SOL     OW 6974   2.229   2.962   0.501
 2317SOL    HW1 6975   2.222   3.045   0.445
 2317SOL    HW2 6976   2.233   2.882   0.441
 2318SOL     OW 6977   2.428   2.399   0.865
 2318SOL    HW1 6978   2.440   2.465   0.791
 2318SOL    HW2 6979   2.474   2.433   0.948
 2319SOL     OW 6980   3.114   3.210   0.388
 2319SOL    HW1 6981   3.164   3.287   0.428
 2319SOL    HW2 6982   3.019   3.212   0.420
 2320SOL     OW 6983   3.134   3.307   1.142
 2320SOL    HW1 6984   3.181   3.320   1.229
 2320SOL    HW2 6985   3.068   3.233   1.151
 2321SOL     OW 6986   3.444   2.501   0.472
 2321SOL    HW1 6987   3.413   2.562   0.545
 2321SOL    HW2 6988   3.494   2.553   0.403
 2322SOL     OW 6989   2.216   3.372   1.329
 2322SOL    HW1 6990   2.195   3.328   1.242
 2322SOL    HW2 6991   2.313   3.398   1.332
 2323SOL     OW 6992   2.264   2.613   1.598
 2323SOL    HW1 6993   2.332   2.668   1.551
 2323SOL    HW2 6994   2.304   2.525   1.625
 2324SOL     OW 6995   3.449   2.641   1.670
 2324SOL    HW1 6996   3.357   2.679   1.665
 2324SOL    HW2 6997   3.509   2.688   1.605
 2325SOL     OW 6998   2.875   1.967   1.770
 2325SOL    HW1 6999   2.881   2.052   1.718
 2325SOL    HW2 7000   2.907   1.891   1.713
 2326SOL     OW 7001   2.366   1.912   1.740
 2326SOL    HW1 7002   2.324   1.855   1.670
 2326SOL    HW2 7003   2.300   1.981   1.772
 2327SOL     OW 7004   2.435   2.732   1.029
 2327SOL    HW1 7005   2.479   2.821   1.020
 2327SOL    HW2 7006   2.372   2.732   1.106
 2328SOL     OW 7007   3.222   2.724   1.045
 2328SOL    HW1 7008   3.147   2.724   0.979
 2328SOL    HW2 7009   3.259   2.632   1.054
 2329SOL     OW 7010   3.071   2.387   0.275
 2329SOL    HW1 7011   3.084   2.303   0.329
 2329SOL    HW2 7012   3.042   2.461   0.335
 2330SOL     OW 7013   2.169   2.075   1.231
 2330SOL    HW1 7014   2.146   2.112   1.321
 2330SOL    HW2 7015   2.139   1.980   1.225
 2331SOL     OW 7016   1.899   3.172   1.282
 2331SOL    HW1 7017   1.952   3.123   1.350
 2331SOL    HW2 7018   1.921   3.270   1.287
 2332SOL     OW 7019   2.594   2.496   1.064
 2332SOL    HW1 7020   2.653   2.470   0.988
 2332SOL    HW2 7021   2.566   2.592   1.053
 2333SOL     OW 7022   3.590   2.797   1.854
 2333SOL    HW1 7023   3.544   2.790   1.765
 2333SOL    HW2 7024   3.528   2.841   1.920
 2334SOL     OW 7025   2.169   1.925   0.618
 2334SOL    HW1 7026   2.158   2.019   0.651
 2334SOL    HW2 7027   2.164   1.862   0.695
 2335SOL     OW 7028   3.484   2.229   0.374
 2335SOL    HW1 7029   3.486   2.153   0.438
 2335SOL    HW2 7030   3.436   2.306   0.414
 2336SOL     OW 7031   2.885   2.628   0.966
 2336SOL    HW1 7032   2.900   2.649   1.062
 2336SOL    HW2 7033   2.855   2.533   0.957
 2337SOL     OW 7034   2.842   3.435   1.700
 2337SOL    HW1 7035   2.822   3.479   1.612
 2337SOL    HW2 7036   2.881   3.344   1.684
 2338SOL     OW 7037   3.721   3.380   1.605
 2338SOL    HW1 7038   3.735   3.407   1.510
 2338SOL    HW2 7039   3.804   3.402   1.658
 2339SOL     OW 7040   2.212   2.760   1.804
 2339SOL    HW1 7041   2.288   2.804   1.852
 2339SOL    HW2 7042   2.247   2.713   1.722
 2340SOL     OW 7043   3.402   2.136   0.125
 2340SOL    HW1 7044   3.341   2.061   0.148
 2340SOL    HW2 7045   3.424   2.188   0.208
 2341SOL     OW 7046   3.165   2.700   0.042
 2341SOL    HW1 7047   3.199   2.607   0.057
 2341SOL    HW2 7048   3.183   2.727  -0.053
 2342SOL     OW 7049   2.930   3.195   0.849
 2342SOL    HW1 7050   2.937   3.111   0.794
 2342SOL    HW2 7051   2.992   3.264   0.813
 2343SOL     OW 7052   2.181   2.672   0.949
 2343SOL    HW1 7053   2.274   2.708   0.954
 2343SOL    HW2 7054   2.175   2.587   1.001
 2344SOL     OW 7055   2.201   2.371   1.006
 2344SOL    HW1 7056   2.149   2.288   0.989
 2344SOL    HW2 7057   2.278   2.376   0.942
 2345SOL     OW 7058   3.000   2.242   1.678
 2345SOL    HW1 7059   2.955   2.305   1.742
 2345SOL    HW2 7060   3.093   2.273   1.661
 2346SOL     OW 7061   3.022   2.069   1.477
 2346SOL    HW1 7062   3.022   2.133   1.554
 2346SOL    HW2 7063   3.050   2.117   1.394
 2347SOL     OW 7064   1.950   3.663   0.927
 2347SOL    HW1 7065   1.908   3.577   0.900
 2347SOL    HW2 7066   2.044   3.666   0.893
 2348SOL     OW 7067   2.366   3.430   0.910
 2348SOL    HW1 7068   2.432   3.504   0.919
 2348SOL    HW2 7069   2.410   3.351   0.868
 2349SOL     OW 7070   2.864   2.658   1.238
 2349SOL    HW1 7071   2.905   2.626   1.324
 2349SOL    HW2 7072   2.768   2.631   1.235
 2350SOL     OW 7073   1.902   2.406   1.114
 2350SOL    HW1 7074   1.987   2.373   1.073
 2350SOL    HW2 7075   1.915   2.421   1.212
 2351SOL     OW 7076   2.051   2.382   1.722
 2351SOL    HW1 7077   2.110   2.342   1.652
 2351SOL    HW2 7078   1.993   2.453   1.681
 2352SOL     OW 7079   3.231   2.812   1.660
 2352SOL    HW1 7080   3.270   2.901   1.680
 2352SOL    HW2 7081   3.241   2.792   1.563
 2353SOL     OW 7082   2.677   2.434   0.325
 2353SOL    HW1 7083   2.684   2.345   0.279
 2353SOL    HW2 7084   2.583   2.468   0.317
 2354SOL     OW 7085   3.519   2.466   1.206
 2354SOL    HW1 7086   3.481   2.397   1.268
 2354SOL    HW2 7087   3.601   2.430   1.162
 2355SOL     OW 7088   2.114   3.426   1.744
 2355SOL    HW1 7089   2.084   3.483   1.820
 2355SOL    HW2 7090   2.107   3.329   1.770
 2356SOL     OW 7091   2.533   2.326   1.269
 2356SOL    HW1 7092   2.499   2.237   1.239
 2356SOL    HW2 7093   2.559   2.380   1.189
 2357SOL     OW 7094   2.792   3.540   1.465
 2357SOL    HW1 7095   2.768   3.522   1.370
 2357SOL    HW2 7096   2.822   3.634   1.475
 2358SOL     OW 7097   2.335   2.362   0.191
 2358SOL    HW1 7098   2.396   2.442   0.195
 2358SOL    HW2 7099   2.240   2.393   0.198
 2359SOL     OW 7100   2.021   2.999   1.466
 2359SOL    HW1 7101   2.043   2.938   1.542
 2359SOL    HW2 7102   2.031   2.950   1.380
 2360SOL     OW 7103   3.209   2.921   1.234
 2360SOL    HW1 7104   3.233   2.858   1.160
 2360SOL    HW2 7105   3.119   2.961   1.216
 2361SOL     OW 7106   3.164   2.717   0.309
 2361SOL    HW1 7107   3.078   2.686   0.351
 2361SOL    HW2 7108   3.160   2.703   0.210
 2362SOL     OW 7109   3.621   3.609   1.154
 2362SOL    HW1 7110   3.682   3.639   1.081
 2362SOL    HW2 7111   3.583   3.520   1.132
 2363SOL     OW 7112   3.114   3.593   1.128
 2363SOL    HW1 7113   3.198   3.598   1.074
 2363SOL    HW2 7114   3.091   3.497   1.146
 2364SOL     OW 7115   1.945   3.120   1.022
 2364SOL    HW1 7116   1.940   3.119   1.122
 2364SOL    HW2 7117   1.862   3.079   0.984
 2365SOL     OW 7118   2.550   3.524   1.716
 2365SOL    HW1 7119   2.494   3.605   1.725
 2365SOL    HW2 7120   2.602   3.528   1.630
 2366SOL     OW 7121   2.765   1.948   0.133
 2366SOL    HW1 7122   2.816   1.949   0.047
 2366SOL    HW2 7123   2.821   1.906   0.204
 2367SOL     OW 7124   3.588   1.997   0.523
 2367SOL    HW1 7125   3.661   1.980   0.456
 2367SOL    HW2 7126   3.557   1.910   0.561
 2368SOL     OW 7127   3.250   3.435   0.477
 2368SOL    HW1 7128   3.317   3.447   0.403
 2368SOL    HW2 7129   3.210   3.524   0.500
 2369SOL     OW 7130   1.992   3.656   1.851
 2369SOL    HW1 7131   1.951   3.582   1.904
 2369SOL    HW2 7132   2.056   3.707   1.909
 2370SOL     OW 7133   3.142   2.789   0.672
 2370SOL    HW1 7134   3.202   2.708   0.674
 2370SOL    HW2 7135   3.182   2.858   0.612
 2371SOL     OW 7136   2.692   3.135   1.422
 2371SOL    HW1 7137   2.687   3.168   1.517
 2371SOL    HW2 7138   2.606   3.154   1.376
 2372SOL     OW 7139   2.534   3.478   0.154
 2372SOL    HW1 7140   2.543   3.488   0.055
 2372SOL    HW2 7141   2.494   3.389   0.175
 2373SOL     OW 7142   3.512   3.582   1.394
 2373SOL    HW1 7143   3.565   3.592   1.310
 2373SOL    HW2 7144   3.485   3.672   1.428
 2374SOL     OW 7145   3.703   2.037   0.963
 2374SOL    HW1 7146   3.742   1.952   0.927
 2374SOL    HW2 7147   3.605   2.039   0.944
 2375SOL     OW 7148   2.125   2.188   0.720
 2375SOL    HW1 7149   2.046   2.239   0.686
 2375SOL    HW2 7150   2.116   2.173   0.818
 2376SOL     OW 7151   3.056   3.474   0.031
 2376SOL    HW1 7152   3.062   3.381   0.068
 2376SOL    HW2 7153   2.997   3.474  -0.049
 2377SOL     OW 7154   2.684   2.864   1.372
 2377SOL    HW1 7155   2.724   2.863   1.280
 2377SOL    HW2 7156   2.694   2.956   1.412
 2378SOL     OW 7157   2.778   2.772   0.291
 2378SOL    HW1 7158   2.841   2.810   0.223
 2378SOL    HW2 7159   2.818   2.689   0.330
 2379SOL     OW 7160   3.366   3.469   0.044
 2379SOL    HW1 7161   3.274   3.506   0.051
 2379SOL    HW2 7162   3.404   3.489  -0.046
 2380SOL     OW 7163   2.234   3.150   1.490
 2380SOL    HW1 7164   2.221   3.243   1.456
 2380SOL    HW2 7165   2.150   3.098   1.477
 2381SOL     OW 7166   3.476   3.154   1.289
 2381SOL    HW1 7167   3.536   3.157   1.369
 2381SOL    HW2 7168   3.401   3.218   1.302
 2382SOL     OW 7169   2.901   2.960   0.696
 2382SOL    HW1 7170   2.831   2.913   0.750
 2382SOL    HW2 7171   2.960   2.892   0.653
 2383SOL     OW 7172   2.876   2.098   0.971
 2383SOL    HW1 7173   2.868   2.062   0.878
 2383SOL    HW2 7174   2.874   2.022   1.036
 2384SOL     OW 7175   2.452   3.349   0.491
 2384SOL    HW1 7176   2.494   3.291   0.421
 2384SOL    HW2 7177   2.408   3.428   0.447
 2385SOL     OW 7178   3.571   2.247   1.381
 2385SOL    HW1 7179   3.644   2.316   1.385
 2385SOL    HW2 7180   3.599   2.172   1.322
 2386SOL     OW 7181   2.117   3.210   0.290
 2386SOL    HW1 7182   2.021   3.211   0.263
 2386SOL    HW2 7183   2.129   3.263   0.374
 2387SOL     OW 7184   1.967   2.875   1.726
 2387SOL    HW1 7185   1.890   2.842   1.780
 2387SOL    HW2 7186   2.052   2.845   1.768
 2388SOL     OW 7187   2.534   2.065   1.489
 2388SOL    HW1 7188   2.624   2.049   1.449
 2388SOL    HW2 7189   2.542   2.070   1.588
 2389SOL     OW 7190   1.937   2.207   0.033
 2389SOL    HW1 7191   1.845   2.179   0.004
 2389SOL    HW2 7192   1.968   2.284  -0.023
 2390SOL     OW 7193   3.302   2.718   1.398
 2390SOL    HW1 7194   3.245   2.770   1.335
 2390SOL    HW2 7195   3.398   2.730   1.374
 2391SOL     OW 7196   1.934   2.028   0.318
 2391SOL    HW1 7197   1.917   2.111   0.264
 2391SOL    HW2 7198   2.024   1.991   0.296
 2392SOL     OW 7199   3.045   3.197   0.119
 2392SOL    HW1 7200   2.946   3.186   0.121
 2392SOL    HW2 7201   3.079   3.212   0.212
 2393SOL     OW 7202   2.475   2.704   1.431
 2393SOL    HW1 7203   2.531   2.785   1.414
 2393SOL    HW2 7204   2.534   2.624   1.434
 2394SOL     OW 7205   3.355   3.629   0.959
 2394SOL    HW1 7206   3.388   3.693   0.890
 2394SOL    HW2 7207   3.421   3.623   1.034
 2395SOL     OW 7208   2.578   2.427   1.708
 2395SOL    HW1 7209   2.597   2.492   1.782
 2395SOL    HW2 7210   2.638   2.347   1.717
 2396SOL     OW 7211   3.312   3.082   1.633
 2396SOL    HW1 7212   3.303   3.072   1.732
 2396SOL    HW2 7213   3.408   3.075   1.607
 2397SOL     OW 7214   2.252   3.603   1.560
 2397SOL    HW1 7215   2.161   3.644   1.558
 2397SOL    HW2 7216   2.245   3.509   1.592
 2398SOL     OW 7217   3.536   2.745   1.254
 2398SOL    HW1 7218   3.509   2.656   1.217
 2398SOL    HW2 7219   3.537   2.813   1.181
 2399SOL     OW 7220   3.087   2.187   0.449
 2399SOL    HW1 7221   3.152   2.113   0.438
 2399SOL    HW2 7222   3.107   2.237   0.533
 2400SOL     OW 7223   2.456   2.607   0.652
 2400SOL    HW1 7224   2.506   2.692   0.633
 2400SOL    HW2 7225   2.368   2.609   0.604
 2401SOL     OW 7226   3.639   2.204   1.642
 2401SOL    HW1 7227   3.622   2.235   1.548
 2401SOL    HW2 7228   3.555   2.167   1.680
 2402SOL     OW 7229   3.592   2.796   1.517
 2402SOL    HW1 7230   3.630   2.887   1.532
 2402SOL    HW2 7231   3.584   2.779   1.418
 2403SOL     OW 7232   2.721   3.236   0.016
 2403SOL    HW1 7233   2.675   3.251   0.104
 2403SOL    HW2 7234   2.765   3.321  -0.014
 2404SOL     OW 7235   2.523   3.652   0.953
 2404SOL    HW1 7236   2.477   3.740   0.940
 2404SOL    HW2 7237   2.622   3.664   0.946
 2405SOL     OW 7238   2.721   2.818   0.861
 2405SOL    HW1 7239   2.775   2.749   0.909
 2405SOL    HW2 7240   2.689   2.887   0.927
 2406SOL     OW 7241   2.945   2.846   0.087
 2406SOL    HW1 7242   2.922   2.899   0.005
 2406SOL    HW2 7243   3.026   2.790   0.068
 2407SOL     OW 7244   3.723   3.431   0.851
 2407SOL    HW1 7245   3.652   3.419   0.781
 2407SOL    HW2 7246   3.724   3.352   0.911
 2408SOL     OW 7247   2.083   3.176   1.844
 2408SOL    HW1 7248   2.018   3.103   1.823
 2408SOL    HW2 7249   2.087   3.190   1.942
 2409SOL     OW 7250   1.941   3.102   0.653
 2409SOL    HW1 7251   1.940   3.055   0.741
 2409SOL    HW2 7252   2.023   3.074   0.602
 2410SOL     OW 7253   2.534   3.253   1.624
 2410SOL    HW1 7254   2.456   3.203   1.662
 2410SOL    HW2 7255   2.531   3.348   1.655
 2411SOL     OW 7256   3.686   2.054   1.227
 2411SOL    HW1 7257   3.682   1.964   1.271
 2411SOL    HW2 7258   3.689   2.043   1.128
 2412SOL     OW 7259   2.290   2.286   0.520
 2412SOL    HW1 7260   2.320   2.214   0.458
 2412SOL    HW2 7261   2.251   2.246   0.603
 2413SOL     OW 7262   3.567   3.349   1.104
 2413SOL    HW1 7263   3.474   3.324   1.077
 2413SOL    HW2 7264   3.593   3.299   1.186
 2414SOL     OW 7265   2.179   2.409   1.280
 2414SOL    HW1 7266   2.217   2.350   1.352
 2414SOL    HW2 7267   2.219   2.383   1.192
 2415SOL     OW 7268   2.674   3.448   0.687
 2415SOL    HW1 7269   2.706   3.458   0.593
 2415SOL    HW2 7270   2.595   3.386   0.689
 2416SOL     OW 7271   3.286   2.076   1.112
 2416SOL    HW1 7272   3.338   2.011   1.167
 2416SOL    HW2 7273   3.237   2.139   1.173
 2417SOL     OW 7274   2.863   1.896   1.154
 2417SOL    HW1 7275   2.800   1.824   1.123
 2417SOL    HW2 7276   2.956   1.860   1.154
 2418SOL     OW 7277   2.632   3.192   0.301
 2418SOL    HW1 7278   2.586   3.105   0.318
 2418SOL    HW2 7279   2.723   3.189   0.342
 2419SOL     OW 7280   2.480   3.429   1.284
 2419SOL    HW1 7281   2.475   3.511   1.341
 2419SOL    HW2 7282   2.569   3.426   1.239
 2420SOL     OW 7283   3.214   1.914   0.168
 2420SOL    HW1 7284   3.249   1.873   0.084
 2420SOL    HW2 7285   3.124   1.876   0.188
 2421SOL     OW 7286   3.162   2.315   0.691
 2421SOL    HW1 7287   3.103   2.395   0.695
 2421SOL    HW2 7288   3.177   2.280   0.784
 2422SOL     OW 7289   3.455   2.083   0.882
 2422SOL    HW1 7290   3.371   2.082   0.936
 2422SOL    HW2 7291   3.457   2.166   0.826
 2423SOL     OW 7292   1.901   2.939   0.300
 2423SOL    HW1 7293   2.000   2.928   0.291
 2423SOL    HW2 7294   1.861   2.853   0.332
 2424SOL     OW 7295   2.737   3.508   0.337
 2424SOL    HW1 7296   2.660   3.473   0.283
 2424SOL    HW2 7297   2.705   3.579   0.399
 2425SOL     OW 7298   2.092   2.490   1.975
 2425SOL    HW1 7299   1.999   2.488   2.012
 2425SOL    HW2 7300   2.093   2.451   1.883
 2426SOL     OW 7301   2.087   2.137   2.858
 2426SOL    HW1 7302   2.122   2.120   2.950
 2426SOL    HW2 7303   1.999   2.092   2.846
 2427SOL     OW 7304   1.881   2.230   2.509
 2427SOL    HW1 7305   1.799   2.273   2.548
 2427SOL    HW2 7306   1.853   2.157   2.446
 2428SOL     OW 7307   2.431   3.137   3.027
 2428SOL    HW1 7308   2.338   3.130   2.990
 2428SOL    HW2 7309   2.442   3.226   3.071
 2429SOL     OW 7310   3.417   3.373   2.565
 2429SOL    HW1 7311   3.360   3.357   2.646
 2429SOL    HW2 7312   3.358   3.383   2.485
 2430SOL     OW 7313   2.997   2.565   2.579
 2430SOL    HW1 7314   3.054   2.643   2.554
 2430SOL    HW2 7315   2.937   2.591   2.655
 2431SOL     OW 7316   3.617   2.469   2.093
 2431SOL    HW1 7317   3.605   2.456   1.994
 2431SOL    HW2 7318   3.587   2.388   2.142
 2432SOL     OW 7319   2.630   3.006   2.885
 2432SOL    HW1 7320   2.552   3.023   2.945
 2432SOL    HW2 7321   2.664   3.093   2.849
 2433SOL     OW 7322   2.712   2.660   3.685
 2433SOL    HW1 7323   2.708   2.736   3.750
 2433SOL    HW2 7324   2.734   2.696   3.594
 2434SOL     OW 7325   2.548   3.023   3.665
 2434SOL    HW1 7326   2.608   3.102   3.679
 2434SOL    HW2 7327   2.462   3.054   3.624
 2435SOL     OW 7328   2.197   3.297   2.923
 2435SOL    HW1 7329   2.119   3.266   2.870
 2435SOL    HW2 7330   2.255   3.355   2.866
 2436SOL     OW 7331   3.322   3.367   3.201
 2436SOL    HW1 7332   3.346   3.461   3.227
 2436SOL    HW2 7333   3.306   3.313   3.283
 2437SOL     OW 7334   2.300   2.254   3.361
 2437SOL    HW1 7335   2.382   2.198   3.370
 2437SOL    HW2 7336   2.219   2.196   3.365
 2438SOL     OW 7337   3.465   2.309   2.599
 2438SOL    HW1 7338   3.391   2.355   2.549
 2438SOL    HW2 7339   3.516   2.377   2.652
 2439SOL     OW 7340   2.093   3.575   2.345
 2439SOL    HW1 7341   2.127   3.652   2.399
 2439SOL    HW2 7342   2.137   3.575   2.255
 2440SOL     OW 7343   2.989   3.203   3.552
 2440SOL    HW1 7344   3.036   3.203   3.640
 2440SOL    HW2 7345   2.941   3.116   3.541
 2441SOL     OW 7346   2.092   3.296   2.400
 2441SOL    HW1 7347   2.066   3.392   2.400
 2441SOL    HW2 7348   2.021   3.242   2.445
 2442SOL     OW 7349   2.102   2.953   2.748
 2442SOL    HW1 7350   2.116   2.869   2.800
 2442SOL    HW2 7351   2.047   3.017   2.803
 2443SOL     OW 7352   2.482   3.648   3.301
 2443SOL    HW1 7353   2.390   3.631   3.336
 2443SOL    HW2 7354   2.510   3.740   3.327
 2444SOL     OW 7355   2.468   2.826   1.985
 2444SOL    HW1 7356   2.475   2.910   1.931
 2444SOL    HW2 7357   2.514   2.839   2.073
 2445SOL     OW 7358   3.456   1.976   3.342
 2445SOL    HW1 7359   3.438   2.043   3.270
 2445SOL    HW2 7360   3.453   2.022   3.431
 2446SOL     OW 7361   1.984   2.505   2.425
 2446SOL    HW1 7362   1.939   2.417   2.442
 2446SOL    HW2 7363   1.983   2.559   2.509
 2447SOL     OW 7364   3.704   3.629   2.221
 2447SOL    HW1 7365   3.758   3.600   2.301
 2447SOL    HW2 7366   3.734   3.719   2.192
 2448SOL     OW 7367   1.889   3.458   1.979
 2448SOL    HW1 7368   1.870   3.362   2.000
 2448SOL    HW2 7369   1.856   3.516   2.054
 2449SOL     OW 7370   3.551   2.784   2.474
 2449SOL    HW1 7371   3.646   2.755   2.482
 2449SOL    HW2 7372   3.543   2.849   2.399
 2450SOL     OW 7373   3.503   2.970   2.294
 2450SOL    HW1 7374   3.589   2.972   2.242
 2450SOL    HW2 7375   3.517   3.017   2.382
 2451SOL     OW 7376   1.975   2.599   3.459
 2451SOL    HW1 7377   2.063   2.586   3.504
 2451SOL    HW2 7378   1.962   2.696   3.437
 2452SOL     OW 7379   2.475   3.227   2.588
 2452SOL    HW1 7380   2.426   3.140   2.597
 2452SOL    HW2 7381   2.452   3.270   2.501
 2453SOL     OW 7382   3.155   3.090   3.285
 2453SOL    HW1 7383   3.192   3.017   3.227
 2453SOL    HW2 7384   3.207   3.095   3.370
 2454SOL     OW 7385   2.671   1.866   2.364
 2454SOL    HW1 7386   2.711   1.957   2.355
 2454SOL    HW2 7387   2.571   1.874   2.370
 2455SOL     OW 7388   2.059   2.838   3.126
 2455SOL    HW1 7389   2.148   2.793   3.112
 2455SOL    HW2 7390   1.986   2.773   3.107
 2456SOL     OW 7391   3.387   2.861   2.052
 2456SOL    HW1 7392   3.324   2.785   2.065
 2456SOL    HW2 7393   3.435   2.879   2.138
 2457SOL     OW 7394   3.049   3.654   3.478
 2457SOL    HW1 7395   3.073   3.714   3.402
 2457SOL    HW2 7396   3.056   3.559   3.448
 2458SOL     OW 7397   2.179   2.113   3.663
 2458SOL    HW1 7398   2.250   2.184   3.669
 2458SOL    HW2 7399   2.091   2.152   3.691
 2459SOL     OW 7400   3.328   3.279   2.815
 2459SOL    HW1 7401   3.269   3.285   2.895
 2459SOL    HW2 7402   3.313   3.191   2.769
 2460SOL     OW 7403   3.529   3.576   2.434
 2460SOL    HW1 7404   3.488   3.553   2.346
 2460SOL    HW2 7405   3.511   3.502   2.499
 2461SOL     OW 7406   2.460   2.591   2.132
 2461SOL    HW1 7407   2.484   2.660   2.064
 2461SOL    HW2 7408   2.382   2.624   2.186
 2462SOL     OW 7409   3.438   3.524   2.169
 2462SOL    HW1 7410   3.527   3.570   2.172
 2462SOL    HW2 7411   3.417   3.500   2.074
 2463SOL     OW 7412   2.669   2.467   3.327
 2463SOL    HW1 7413   2.622   2.464   3.416
 2463SOL    HW2 7414   2.618   2.412   3.261
 2464SOL     OW 7415   3.256   2.331   3.536
 2464SOL    HW1 7416   3.236   2.374   3.624
 2464SOL    HW2 7417   3.334   2.269   3.545
 2465SOL     OW 7418   2.835   2.752   3.434
 2465SOL    HW1 7419   2.881   2.668   3.405
 2465SOL    HW2 7420   2.779   2.786   3.359
 2466SOL     OW 7421   2.853   2.272   3.104
 2466SOL    HW1 7422   2.776   2.306   3.158
 2466SOL    HW2 7423   2.819   2.221   3.025
 2467SOL     OW 7424   2.903   2.563   2.291
 2467SOL    HW1 7425   2.929   2.559   2.387
 2467SOL    HW2 7426   2.818   2.512   2.277
 2468SOL     OW 7427   1.938   2.673   2.651
 2468SOL    HW1 7428   2.037   2.661   2.660
 2468SOL    HW2 7429   1.914   2.768   2.672
 2469SOL     OW 7430   1.992   3.683   3.433
 2469SOL    HW1 7431   1.982   3.668   3.532
 2469SOL    HW2 7432   1.906   3.719   3.397
 2470SOL     OW 7433   2.727   2.210   2.057
 2470SOL    HW1 7434   2.786   2.273   2.008
 2470SOL    HW2 7435   2.746   2.116   2.028
 2471SOL     OW 7436   3.581   2.447   3.693
 2471SOL    HW1 7437   3.555   2.536   3.657
 2471SOL    HW2 7438   3.579   2.379   3.620
 2472SOL     OW 7439   3.224   3.006   2.407
 2472SOL    HW1 7440   3.307   2.977   2.359
 2472SOL    HW2 7441   3.175   3.073   2.351
 2473SOL     OW 7442   2.412   2.058   2.747
 2473SOL    HW1 7443   2.407   2.053   2.847
 2473SOL    HW2 7444   2.414   2.154   2.718
 2474SOL     OW 7445   2.870   3.318   2.339
 2474SOL    HW1 7446   2.824   3.390   2.287
 2474SOL    HW2 7447   2.866   3.338   2.437
 2475SOL     OW 7448   2.213   3.663   2.715
 2475SOL    HW1 7449   2.263   3.577   2.721
 2475SOL    HW2 7450   2.278   3.740   2.712
 2476SOL     OW 7451   3.657   2.928   2.735
 2476SOL    HW1 7452   3.595   2.913   2.659
 2476SOL    HW2 7453   3.605   2.939   2.820
 2477SOL     OW 7454   3.089   3.412   3.368
 2477SOL    HW1 7455   3.095   3.335   3.432
 2477SOL    HW2 7456   3.037   3.386   3.288
 2478SOL     OW 7457   2.183   2.805   2.104
 2478SOL    HW1 7458   2.265   2.844   2.062
 2478SOL    HW2 7459   2.156   2.723   2.055
 2479SOL     OW 7460   3.320   2.597   2.590
 2479SOL    HW1 7461   3.315   2.532   2.665
 2479SOL    HW2 7462   3.400   2.656   2.603
 2480SOL     OW 7463   2.323   3.128   3.589
 2480SOL    HW1 7464   2.273   3.129   3.503
 2480SOL    HW2 7465   2.260   3.110   3.665
 2481SOL     OW 7466   2.973   3.638   2.099
 2481SOL    HW1 7467   2.913   3.576   2.149
 2481SOL    HW2 7468   3.004   3.594   2.014
 2482SOL     OW 7469   2.064   2.147   3.360
 2482SOL    HW1 7470   1.984   2.207   3.347
 2482SOL    HW2 7471   2.054   2.098   3.446
 2483SOL     OW 7472   3.494   3.239   1.943
 2483SOL    HW1 7473   3.462   3.333   1.933
 2483SOL    HW2 7474   3.418   3.176   1.931
 2484SOL     OW 7475   2.326   3.605   2.185
 2484SOL    HW1 7476   2.359   3.644   2.271
 2484SOL    HW2 7477   2.402   3.598   2.120
 2485SOL     OW 7478   3.262   1.969   2.288
 2485SOL    HW1 7479   3.238   1.932   2.198
 2485SOL    HW2 7480   3.361   1.985   2.292
 2486SOL     OW 7481   2.111   3.647   3.103
 2486SOL    HW1 7482   2.168   3.582   3.153
 2486SOL    HW2 7483   2.095   3.614   3.010
 2487SOL     OW 7484   2.802   3.560   2.766
 2487SOL    HW1 7485   2.882   3.503   2.787
 2487SOL    HW2 7486   2.753   3.520   2.689
 2488SOL     OW 7487   2.244   2.562   2.342
 2488SOL    HW1 7488   2.289   2.472   2.339
 2488SOL    HW2 7489   2.150   2.551   2.375
 2489SOL     OW 7490   3.409   2.084   3.591
 2489SOL    HW1 7491   3.404   2.121   3.683
 2489SOL    HW2 7492   3.337   2.015   3.579
 2490SOL     OW 7493   2.476   1.984   1.979
 2490SOL    HW1 7494   2.574   1.962   1.986
 2490SOL    HW2 7495   2.445   1.967   1.886
 2491SOL     OW 7496   2.643   2.126   3.611
 2491SOL    HW1 7497   2.710   2.065   3.654
 2491SOL    HW2 7498   2.570   2.145   3.676
 2492SOL     OW 7499   2.750   3.376   3.057
 2492SOL    HW1 7500   2.727   3.351   2.963
 2492SOL    HW2 7501   2.811   3.307   3.096
 2493SOL     OW 7502   3.213   2.452   3.295
 2493SOL    HW1 7503   3.241   2.409   3.380
 2493SOL    HW2 7504   3.238   2.548   3.296
 2494SOL     OW 7505   2.665   3.264   2.786
 2494SOL    HW1 7506   2.755   3.278   2.744
 2494SOL    HW2 7507   2.594   3.266   2.715
 2495SOL     OW 7508   2.401   1.926   2.374
 2495SOL    HW1 7509   2.320   1.927   2.432
 2495SOL    HW2 7510   2.404   2.009   2.319
 2496SOL     OW 7511   3.296   3.050   1.903
 2496SOL    HW1 7512   3.328   2.974   1.960
 2496SOL    HW2 7513   3.204   3.077   1.933
 2497SOL     OW 7514   2.159   1.897   2.033
 2497SOL    HW1 7515   2.208   1.981   2.012
 2497SOL    HW2 7516   2.221   1.832   2.078
 2498SOL     OW 7517   2.797   2.098   2.342
 2498SOL    HW1 7518   2.749   2.139   2.264
 2498SOL    HW2 7519   2.896   2.096   2.323
 2499SOL     OW 7520   2.938   2.545   3.326
 2499SOL    HW1 7521   2.858   2.484   3.329
 2499SOL    HW2 7522   3.019   2.492   3.302
 2500SOL     OW 7523   3.089   3.432   2.655
 2500SOL    HW1 7524   3.110   3.506   2.590
 2500SOL    HW2 7525   3.157   3.432   2.728
 2501SOL     OW 7526   3.133   3.659   2.453
 2501SOL    HW1 7527   3.177   3.723   2.389
 2501SOL    HW2 7528   3.083   3.711   2.523
 2502SOL     OW 7529   2.894   2.411   1.878
 2502SOL    HW1 7530   2.853   2.493   1.839
 2502SOL    HW2 7531   2.958   2.437   1.951
 2503SOL     OW 7532   1.940   2.418   3.248
 2503SOL    HW1 7533   2.032   2.417   3.207
 2503SOL    HW2 7534   1.934   2.492   3.315
 2504SOL     OW 7535   2.423   2.084   3.009
 2504SOL    HW1 7536   2.461   2.000   3.046
 2504SOL    HW2 7537   2.335   2.103   3.053
 2505SOL     OW 7538   2.879   1.901   2.615
 2505SOL    HW1 7539   2.807   1.906   2.546
 2505SOL    HW2 7540   2.855   1.832   2.684
 2506SOL     OW 7541   3.291   3.035   2.729
 2506SOL    HW1 7542   3.236   2.951   2.722
 2506SOL    HW2 7543   3.317   3.064   2.637
 2507SOL     OW 7544   3.328   2.452   2.854
 2507SOL    HW1 7545   3.298   2.357   2.861
 2507SOL    HW2 7546   3.401   2.468   2.920
 2508SOL     OW 7547   3.719   2.695   2.239
 2508SOL    HW1 7548   3.761   2.631   2.303
 2508SOL    HW2 7549   3.681   2.644   2.161
 2509SOL     OW 7550   2.350   3.247   2.036
 2509SOL    HW1 7551   2.263   3.232   2.083
 2509SOL    HW2 7552   2.333   3.273   1.941
 2510SOL     OW 7553   3.526   3.142   2.519
 2510SOL    HW1 7554   3.625   3.150   2.533
 2510SOL    HW2 7555   3.481   3.226   2.550
 2511SOL     OW 7556   3.252   2.437   1.940
 2511SOL    HW1 7557   3.198   2.416   2.021
 2511SOL    HW2 7558   3.343   2.396   1.949
 2512SOL     OW 7559   2.389   2.118   2.190
 2512SOL    HW1 7560   2.416   2.059   2.115
 2512SOL    HW2 7561   2.389   2.213   2.159
 2513SOL     OW 7562   3.616   3.085   3.450
 2513SOL    HW1 7563   3.707   3.046   3.437
 2513SOL    HW2 7564   3.624   3.181   3.474
 2514SOL     OW 7565   2.926   3.209   3.202
 2514SOL    HW1 7566   2.846   3.186   3.257
 2514SOL    HW2 7567   3.009   3.183   3.251
 2515SOL     OW 7568   3.454   3.491   3.487
 2515SOL    HW1 7569   3.481   3.525   3.397
 2515SOL    HW2 7570   3.533   3.453   3.533
 2516SOL     OW 7571   2.973   3.057   2.962
 2516SOL    HW1 7572   2.933   3.101   3.043
 2516SOL    HW2 7573   2.932   3.094   2.879
 2517SOL     OW 7574   3.500   2.961   2.941
 2517SOL    HW1 7575   3.505   3.042   3.000
 2517SOL    HW2 7576   3.414   2.963   2.890
 2518SOL     OW 7577   2.777   1.951   3.264
 2518SOL    HW1 7578   2.802   1.931   3.169
 2518SOL    HW2 7579   2.849   2.007   3.306
 2519SOL     OW 7580   2.842   2.978   3.581
 2519SOL    HW1 7581   2.743   2.984   3.591
 2519SOL    HW2 7582   2.865   2.898   3.525
 2520SOL     OW 7583   2.567   2.912   2.230
 2520SOL    HW1 7584   2.553   2.919   2.329
 2520SOL    HW2 7585   2.651   2.861   2.212
 2521SOL     OW 7586   2.272   2.675   3.113
 2521SOL    HW1 7587   2.358   2.687   3.163
 2521SOL    HW2 7588   2.230   2.588   3.140
 2522SOL     OW 7589   3.136   2.248   3.124
 2522SOL    HW1 7590   3.157   2.322   3.188
 2522SOL    HW2 7591   3.047   2.265   3.081
 2523SOL     OW 7592   1.926   3.426   3.193
 2523SOL    HW1 7593   1.880   3.508   3.159
 2523SOL    HW2 7594   2.024   3.445   3.202
 2524SOL     OW 7595   2.428   2.399   2.727
 2524SOL    HW1 7596   2.440   2.465   2.653
 2524SOL    HW2 7597   2.474   2.433   2.810
 2525SOL     OW 7598   3.114   3.210   2.250
 2525SOL    HW1 7599   3.164   3.287   2.290
 2525SOL    HW2 7600   3.019   3.212   2.282
 2526SOL     OW 7601   3.134   3.307   3.004
 2526SOL    HW1 7602   3.181   3.320   3.091
 2526SOL    HW2 7603   3.068   3.233   3.013
 2527SOL     OW 7604   3.444   2.501   2.334
 2527SOL    HW1 7605   3.413   2.562   2.407
 2527SOL    HW2 7606   3.494   2.553   2.265
 2528SOL     OW 7607   2.216   3.372   3.191
 2528SOL    HW1 7608   2.195   3.328   3.104
 2528SOL    HW2 7609   2.313   3.398   3.194
 2529SOL     OW 7610   2.264   2.613   3.460
 2529SOL    HW1 7611   2.332   2.668   3.413
 2529SOL    HW2 7612   2.304   2.525   3.487
 2530SOL     OW 7613   3.449   2.641   3.532
 2530SOL    HW1 7614   3.357   2.679   3.527
 2530SOL    HW2 7615   3.509   2.688   3.467
 2531SOL     OW 7616   2.875   1.967   3.632
 2531SOL    HW1 7617   2.881   2.052   3.580
 2531SOL    HW2 7618   2.907   1.891   3.575
 2532SOL     OW 7619   2.366   1.912   3.602
 2532SOL    HW1 7620   2.324   1.855   3.532
 2532SOL    HW2 7621   2.300   1.981   3.634
 2533SOL     OW 7622   2.435   2.732   2.891
 2533SOL    HW1 7623   2.479   2.821   2.882
 2533SOL    HW2 7624   2.372   2.732   2.968
 2534SOL     OW 7625   3.222   2.724   2.907
 2534SOL    HW1 7626   3.147   2.724   2.841
 2534SOL    HW2 7627   3.259   2.632   2.916
 2535SOL     OW 7628   3.071   2.387   2.137
 2535SOL    HW1 7629   3.084   2.303   2.191
 2535SOL    HW2 7630   3.042   2.461   2.197
 2536SOL     OW 7631   2.169   2.075   3.093
 2536SOL    HW1 7632   2.146   2.112   3.183
 2536SOL    HW2 7633   2.139   1.980   3.087
 2537SOL     OW 7634   1.899   3.172   3.144
 2537SOL    HW1 7635   1.952   3.123   3.212
 2537SOL    HW2 7636   1.921   3.270   3.149
 2538SOL     OW 7637   3.590   2.797   3.716
 2538SOL    HW1 7638   3.544   2.790   3.627
 2538SOL    HW2 7639   3.528   2.841   3.782
 2539SOL     OW 7640   2.169   1.925   2.480
 2539SOL    HW1 7641   2.158   2.019   2.513
 2539SOL    HW2 7642   2.164   1.862   2.557
 2540SOL     OW 7643   3.484   2.229   2.236
 2540SOL    HW1 7644   3.486   2.153   2.300
 2540SOL    HW2 7645   3.436   2.306   2.276
 2541SOL     OW 7646   2.842   3.435   3.562
 2541SOL    HW1 7647   2.822   3.479   3.474
 2541SOL    HW2 7648   2.881   3.344   3.546
 2542SOL     OW 7649   3.721   3.380   3.467
 2542SOL    HW1 7650   3.735   3.407   3.372
 2542SOL    HW2 7651   3.804   3.402   3.520
 2543SOL     OW 7652   2.212   2.760   3.666
 2543SOL    HW1 7653   2.288   2.804   3.714
 2543SOL    HW2 7654   2.247   2.713   3.584
 2544SOL     OW 7655   3.402   2.136   1.987
 2544SOL    HW1 7656   3.341   2.061   2.010
 2544SOL    HW2 7657   3.424   2.188   2.070
 2545SOL     OW 7658   3.165   2.700   1.904
 2545SOL    HW1 7659   3.199   2.607   1.919
 2545SOL    HW2 7660   3.183   2.727   1.809
 2546SOL     OW 7661   2.930   3.195   2.711
 2546SOL    HW1 7662   2.937   3.111   2.656
 2546SOL    HW2 7663   2.992   3.264   2.675
 2547SOL     OW 7664   2.181   2.672   2.811
 2547SOL    HW1 7665   2.274   2.708   2.816
 2547SOL    HW2 7666   2.175   2.587   2.863
 2548SOL     OW 7667   2.201   2.371   2.868
 2548SOL    HW1 7668   2.149   2.288   2.851
 2548SOL    HW2 7669   2.278   2.376   2.804
 2549SOL     OW 7670   3.000   2.242   3.540
 2549SOL    HW1 7671   2.955   2.305   3.604
 2549SOL    HW2 7672   3.093   2.273   3.523
 2550SOL     OW 7673   3.022   2.069   3.339
 2550SOL    HW1 7674   3.022   2.133   3.416
 2550SOL    HW2 7675   3.050   2.117   3.256
 2551SOL     OW 7676   1.870   3.188   2.062
 2551SOL    HW1 7677   1.777   3.209   2.031
 2551SOL    HW2 7678   1.880   3.089   2.075
 2552SOL     OW 7679   1.950   3.663   2.789
 2552SOL    HW1 7680   1.908   3.577   2.762
 2552SOL    HW2 7681   2.044   3.666   2.755
 2553SOL     OW 7682   2.366   3.430   2.772
 2553SOL    HW1 7683   2.432   3.504   2.781
 2553SOL    HW2 7684   2.410   3.351   2.730
 2554SOL     OW 7685   2.864   2.658   3.100
 2554SOL    HW1 7686   2.905   2.626   3.186
 2554SOL    HW2 7687   2.768   2.631   3.097
 2555SOL     OW 7688   1.902   2.406   2.976
 2555SOL    HW1 7689   1.987   2.373   2.935
 2555SOL    HW2 7690   1.915   2.421   3.074
 2556SOL     OW 7691   2.051   2.382   3.584
 2556SOL    HW1 7692   2.110   2.342   3.514
 2556SOL    HW2 7693   1.993   2.453   3.543
 2557SOL     OW 7694   3.231   2.812   3.522
 2557SOL    HW1 7695   3.270   2.901   3.542
 2557SOL    HW2 7696   3.241   2.792   3.425
 2558SOL     OW 7697   2.677   2.434   2.187
 2558SOL    HW1 7698   2.684   2.345   2.141
 2558SOL    HW2 7699   2.583   2.468   2.179
 2559SOL     OW 7700   3.519   2.466   3.068
 2559SOL    HW1 7701   3.481   2.397   3.130
 2559SOL    HW2 7702   3.601   2.430   3.024
 2560SOL     OW 7703   2.114   3.426   3.606
 2560SOL    HW1 7704   2.084   3.483   3.682
 2560SOL    HW2 7705   2.107   3.329   3.632
 2561SOL     OW 7706   2.533   2.326   3.131
 2561SOL    HW1 7707   2.499   2.237   3.101
 2561SOL    HW2 7708   2.559   2.380   3.051
 2562SOL     OW 7709   2.792   3.540   3.327
 2562SOL    HW1 7710   2.768   3.522   3.232
 2562SOL    HW2 7711   2.822   3.634   3.337
 2563SOL     OW 7712   2.335   2.362   2.053
 2563SOL    HW1 7713   2.396   2.442   2.057
 2563SOL    HW2 7714   2.240   2.393   2.060
 2564SOL     OW 7715   2.021   2.999   3.328
 2564SOL    HW1 7716   2.043   2.938   3.404
 2564SOL    HW2 7717   2.031   2.950   3.242
 2565SOL     OW 7718   3.209   2.921   3.096
 2565SOL    HW1 7719   3.233   2.858   3.022
 2565SOL    HW2 7720   3.119   2.961   3.078
 2566SOL     OW 7721   3.164   2.717   2.171
 2566SOL    HW1 7722   3.078   2.686   2.213
 2566SOL    HW2 7723   3.160   2.703   2.072
 2567SOL     OW 7724   3.621   3.609   3.016
 2567SOL    HW1 7725   3.682   3.639   2.943
 2567SOL    HW2 7726   3.583   3.520   2.994
 2568SOL     OW 7727   3.114   3.593   2.990
 2568SOL    HW1 7728   3.198   3.598   2.936
 2568SOL    HW2 7729   3.091   3.497   3.008
 2569SOL     OW 7730   1.945   3.120   2.884
 2569SOL    HW1 7731   1.940   3.119   2.984
 2569SOL    HW2 7732   1.862   3.079   2.846
 2570SOL     OW 7733   2.550   3.524   3.578
 2570SOL    HW1 7734   2.494   3.605   3.587
 2570SOL    HW2 7735   2.602   3.528   3.492
 2571SOL     OW 7736   3.588   1.997   2.385
 2571SOL    HW1 7737   3.661   1.980   2.318
 2571SOL    HW2 7738   3.557   1.910   2.423
 2572SOL     OW 7739   3.250   3.435   2.339
 2572SOL    HW1 7740   3.317   3.447   2.265
 2572SOL    HW2 7741   3.210   3.524   2.362
 2573SOL     OW 7742   1.992   3.656   3.713
 2573SOL    HW1 7743   1.951   3.582   3.766
 2573SOL    HW2 7744   2.056   3.707   3.771
 2574SOL     OW 7745   3.142   2.789   2.534
 2574SOL    HW1 7746   3.202   2.708   2.536
 2574SOL    HW2 7747   3.182   2.858   2.474
 2575SOL     OW 7748   2.692   3.135   3.284
 2575SOL    HW1 7749   2.687   3.168   3.379
 2575SOL    HW2 7750   2.606   3.154   3.238
 2576SOL     OW 7751   2.534   3.478   2.016
 2576SOL    HW1 7752   2.543   3.488   1.917
 2576SOL    HW2 7753   2.494   3.389   2.037
 2577SOL     OW 7754   3.512   3.582   3.256
 2577SOL    HW1 7755   3.565   3.592   3.172
 2577SOL    HW2 7756   3.485   3.672   3.290
 2578SOL     OW 7757   3.703   2.037   2.825
 2578SOL    HW1 7758   3.742   1.952   2.789
 2578SOL    HW2 7759   3.605   2.039   2.806
 2579SOL     OW 7760   2.125   2.188   2.582
 2579SOL    HW1 7761   2.046   2.239   2.548
 2579SOL    HW2 7762   2.116   2.173   2.680
 2580SOL     OW 7763   3.056   3.474   1.893
 2580SOL    HW1 7764   3.062   3.381   1.930
 2580SOL    HW2 7765   2.997   3.474   1.813
 2581SOL     OW 7766   2.684   2.864   3.234
 2581SOL    HW1 7767   2.724   2.863   3.142
 2581SOL    HW2 7768   2.694   2.956   3.274
 2582SOL     OW 7769   2.778   2.772   2.153
 2582SOL    HW1 7770   2.841   2.810   2.085
 2582SOL    HW2 7771   2.818   2.689   2.192
 2583SOL     OW 7772   3.366   3.469   1.906
 2583SOL    HW1 7773   3.274   3.506   1.913
 2583SOL    HW2 7774   3.404   3.489   1.816
 2584SOL     OW 7775   2.234   3.150   3.352
 2584SOL    HW1 7776   2.221   3.243   3.318
 2584SOL    HW2 7777   2.150   3.098   3.339
 2585SOL     OW 7778   3.476   3.154   3.151
 2585SOL    HW1 7779   3.536   3.157   3.231
 2585SOL    HW2 7780   3.401   3.218   3.164
 2586SOL     OW 7781   2.901   2.960   2.558
 2586SOL    HW1 7782   2.831   2.913   2.612
 2586SOL    HW2 7783   2.960   2.892   2.515
 2587SOL     OW 7784   2.452   3.349   2.353
 2587SOL    HW1 7785   2.494   3.291   2.283
 2587SOL    HW2 7786   2.408   3.428   2.309
 2588SOL     OW 7787   3.571   2.247   3.243
 2588SOL    HW1 7788   3.644   2.316   3.247
 2588SOL    HW2 7789   3.599   2.172   3.184
 2589SOL     OW 7790   2.117   3.210   2.152
 2589SOL    HW1 7791   2.021   3.211   2.125
 2589SOL    HW2 7792   2.129   3.263   2.236
 2590SOL     OW 7793   1.967   2.875   3.588
 2590SOL    HW1 7794   1.890   2.842   3.642
 2590SOL    HW2 7795   2.052   2.845   3.630
 2591SOL     OW 7796   2.534   2.065   3.351
 2591SOL    HW1 7797   2.624   2.049   3.311
 2591SOL    HW2 7798   2.542   2.070   3.450
 2592SOL     OW 7799   1.937   2.207   1.895
 2592SOL    HW1 7800   1.845   2.179   1.866
 2592SOL    HW2 7801   1.968   2.284   1.839
 2593SOL     OW 7802   3.302   2.718   3.260
 2593SOL    HW1 7803   3.245   2.770   3.197
 2593SOL    HW2 7804   3.398   2.730   3.236
 2594SOL     OW 7805   1.934   2.028   2.180
 2594SOL    HW1 7806   1.917   2.111   2.126
 2594SOL    HW2 7807   2.024   1.991   2.158
 2595SOL     OW 7808   3.045   3.197   1.981
 2595SOL    HW1 7809   2.946   3.186   1.983
 2595SOL    HW2 7810   3.079   3.212   2.074
 2596SOL     OW 7811   2.475   2.704   3.293
 2596SOL    HW1 7812   2.531   2.785   3.276
 2596SOL    HW2 7813   2.534   2.624   3.296
 2597SOL     OW 7814   3.355   3.629   2.821
 2597SOL    HW1 7815   3.388   3.693   2.752
 2597SOL    HW2 7816   3.421   3.623   2.896
 2598SOL     OW 7817   2.578   2.427   3.570
 2598SOL    HW1 7818   2.597   2.492   3.644
 2598SOL    HW2 7819   2.638   2.347   3.579
 2599SOL     OW 7820   3.312   3.082   3.495
 2599SOL    HW1 7821   3.303   3.072   3.594
 2599SOL    HW2 7822   3.408   3.075   3.469
 2600SOL     OW 7823   2.252   3.603   3.422
 2600SOL    HW1 7824   2.161   3.644   3.420
 2600SOL    HW2 7825   2.245   3.509   3.454
 2601SOL     OW 7826   3.536   2.745   3.116
 2601SOL    HW1 7827   3.509   2.656   3.079
 2601SOL    HW2 7828   3.537   2.813   3.043
 2602SOL     OW 7829   3.087   2.187   2.311
 2602SOL    HW1 7830   3.152   2.113   2.300
 2602SOL    HW2 7831   3.107   2.237   2.395
 2603SOL     OW 7832   3.639   2.204   3.504
 2603SOL    HW1 7833   3.622   2.235   3.410
 2603SOL    HW2 7834   3.555   2.167   3.542
 2604SOL     OW 7835   3.592   2.796   3.379
 2604SOL    HW1 7836   3.630   2.887   3.394
 2604SOL    HW2 7837   3.584   2.779   3.280
 2605SOL     OW 7838   2.721   3.236   1.878
 2605SOL    HW1 7839   2.675   3.251   1.966
 2605SOL    HW2 7840   2.765   3.321   1.848
 2606SOL     OW 7841   2.523   3.652   2.815
 2606SOL    HW1 7842   2.477   3.740   2.802
 2606SOL    HW2 7843   2.622   3.664   2.808
 2607SOL     OW 7844   2.721   2.818   2.723
 2607SOL    HW1 7845   2.775   2.749   2.771
 2607SOL    HW2 7846   2.689   2.887   2.789
 2608SOL     OW 7847   2.945   2.846   1.949
 2608SOL    HW1 7848   2.922   2.899   1.867
 2608SOL    HW2 7849   3.026   2.790   1.930
 2609SOL     OW 7850   3.723   3.431   2.713
 2609SOL    HW1 7851   3.652   3.419   2.643
 2609SOL    HW2 7852   3.724   3.352   2.773
 2610SOL     OW 7853   2.083   3.176   3.706
 2610SOL    HW1 7854   2.018   3.103   3.685
 2610SOL    HW2 7855   2.087   3.190   3.804
 2611SOL     OW 7856   1.941   3.102   2.515
 2611SOL    HW1 7857   1.940   3.055   2.603
 2611SOL    HW2 7858   2.023   3.074   2.464
 2612SOL     OW 7859   2.534   3.253   3.486
 2612SOL    HW1 7860   2.456   3.203   3.524
 2612SOL    HW2 7861   2.531   3.348   3.517
 2613SOL     OW 7862   3.686   2.054   3.089
 2613SOL    HW1 7863   3.682   1.964   3.133
 2613SOL    HW2 7864   3.689   2.043   2.990
 2614SOL     OW 7865   2.290   2.286   2.382
 2614SOL    HW1 7866   2.320   2.214   2.320
 2614SOL    HW2 7867   2.251   2.246   2.465
 2615SOL     OW 7868   3.567   3.349   2.966
 2615SOL    HW1 7869   3.474   3.324   2.939
 2615SOL    HW2 7870   3.593   3.299   3.048
 2616SOL     OW 7871   2.179   2.409   3.142
 2616SOL    HW1 7872   2.217   2.350   3.214
 2616SOL    HW2 7873   2.219   2.383   3.054
 2617SOL     OW 7874   2.674   3.448   2.549
 2617SOL    HW1 7875   2.706   3.458   2.455
 2617SOL    HW2 7876   2.595   3.386   2.551
 2618SOL     OW 7877   3.286   2.076   2.974
 2618SOL    HW1 7878   3.338   2.011   3.029
 2618SOL    HW2 7879   3.237   2.139   3.035
 2619SOL     OW 7880   2.863   1.896   3.016
 2619SOL    HW1 7881   2.800   1.824   2.985
 2619SOL    HW2 7882   2.956   1.860   3.016
 2620SOL     OW 7883   2.632   3.192   2.163
 2620SOL    HW1 7884   2.586   3.105   2.180
 2620SOL    HW2 7885   2.723   3.189   2.204
 2621SOL     OW 7886   2.480   3.429   3.146
 2621SOL    HW1 7887   2.475   3.511   3.203
 2621SOL    HW2 7888   2.569   3.426   3.101
 2622SOL     OW 7889   3.214   1.914   2.030
 2622SOL    HW1 7890   3.249   1.873   1.946
 2622SOL    HW2 7891   3.124   1.876   2.050
 2623SOL     OW 7892   3.162   2.315   2.553
 2623SOL    HW1 7893   3.103   2.395   2.557
 2623SOL    HW2 7894   3.177   2.280   2.646
 2624SOL     OW 7895   3.455   2.083   2.744
 2624SOL    HW1 7896   3.371   2.082   2.798
 2624SOL    HW2 7897   3.457   2.166   2.688
 2625SOL     OW 7898   1.901   2.939   2.162
 2625SOL    HW1 7899   2.000   2.928   2.153
 2625SOL    HW2 7900   1.861   2.853   2.194
 2626SOL     OW 7901   2.737   3.508   2.199
 2626SOL    HW1 7902   2.660   3.473   2.145
 2626SOL    HW2 7903   2.705   3.579   2.261
 2627SOL     OW 7904   2.092   2.490   3.837
 2627SOL    HW1 7905   1.999   2.488   3.874
 2627SOL    HW2 7906   2.093   2.451   3.745
 2628SOL     OW 7907   2.087   2.137   4.720
 2628SOL    HW1 7908   2.122   2.120   4.812
 2628SOL    HW2 7909   1.999   2.092   4.708
 2629SOL     OW 7910   1.881   2.230   4.371
 2629SOL    HW1 7911   1.799   2.273   4.410
 2629SOL    HW2 7912   1.853   2.157   4.308
 2630SOL     OW 7913   2.431   3.137   4.889
 2630SOL    HW1 7914   2.338   3.130   4.852
 2630SOL    HW2 7915   2.442   3.226   4.933
 2631SOL     OW 7916   3.417   3.373   4.427
 2631SOL    HW1 7917   3.360   3.357   4.508
 2631SOL    HW2 7918   3.358   3.383   4.347
 2632SOL     OW 7919   2.997   2.565   4.441
 2632SOL    HW1 7920   3.054   2.643   4.416
 2632SOL    HW2 7921   2.937   2.591   4.517
 2633SOL     OW 7922   3.617   2.469   3.955
 2633SOL    HW1 7923   3.605   2.456   3.856
 2633SOL    HW2 7924   3.587   2.388   4.004
 2634SOL     OW 7925   2.630   3.006   4.747
 2634SOL    HW1 7926   2.552   3.023   4.807
 2634SOL    HW2 7927   2.664   3.093   4.711
 2635SOL     OW 7928   2.547   2.874   4.389
 2635SOL    HW1 7929   2.616   2.858   4.459
 2635SOL    HW2 7930   2.474   2.931   4.427
 2636SOL     OW 7931   2.197   3.297   4.785
 2636SOL    HW1 7932   2.119   3.266   4.732
 2636SOL    HW2 7933   2.255   3.355   4.728
 2637SOL     OW 7934   2.300   2.254   5.223
 2637SOL    HW1 7935   2.382   2.198   5.232
 2637SOL    HW2 7936   2.219   2.196   5.227
 2638SOL     OW 7937   3.465   2.309   4.461
 2638SOL    HW1 7938   3.391   2.355   4.411
 2638SOL    HW2 7939   3.516   2.377   4.514
 2639SOL     OW 7940   2.093   3.575   4.207
 2639SOL    HW1 7941   2.127   3.652   4.261
 2639SOL    HW2 7942   2.137   3.575   4.117
 2640SOL     OW 7943   2.092   3.296   4.262
 2640SOL    HW1 7944   2.066   3.392   4.262
 2640SOL    HW2 7945   2.021   3.242   4.307
 2641SOL     OW 7946   2.102   2.953   4.610
 2641SOL    HW1 7947   2.116   2.869   4.662
 2641SOL    HW2 7948   2.047   3.017   4.665
 2642SOL     OW 7949   2.482   3.648   5.163
 2642SOL    HW1 7950   2.390   3.631   5.198
 2642SOL    HW2 7951   2.510   3.740   5.189
 2643SOL     OW 7952   2.468   2.826   3.847
 2643SOL    HW1 7953   2.475   2.910   3.793
 2643SOL    HW2 7954   2.514   2.839   3.935
 2644SOL     OW 7955   1.984   2.505   4.287
 2644SOL    HW1 7956   1.939   2.417   4.304
 2644SOL    HW2 7957   1.983   2.559   4.371
 2645SOL     OW 7958   3.704   3.629   4.083
 2645SOL    HW1 7959   3.758   3.600   4.163
 2645SOL    HW2 7960   3.734   3.719   4.054
 2646SOL     OW 7961   1.889   3.458   3.841
 2646SOL    HW1 7962   1.870   3.362   3.862
 2646SOL    HW2 7963   1.856   3.516   3.916
 2647SOL     OW 7964   3.551   2.784   4.336
 2647SOL    HW1 7965   3.646   2.755   4.344
 2647SOL    HW2 7966   3.543   2.849   4.261
 2648SOL     OW 7967   3.503   2.970   4.156
 2648SOL    HW1 7968   3.589   2.972   4.104
 2648SOL    HW2 7969   3.517   3.017   4.244
 2649SOL     OW 7970   2.475   3.227   4.450
 2649SOL    HW1 7971   2.426   3.140   4.459
 2649SOL    HW2 7972   2.452   3.270   4.363
 2650SOL     OW 7973   2.671   1.866   4.226
 2650SOL    HW1 7974   2.711   1.957   4.217
 2650SOL    HW2 7975   2.571   1.874   4.232
 2651SOL     OW 7976   2.059   2.838   4.988
 2651SOL    HW1 7977   2.148   2.793   4.974
 2651SOL    HW2 7978   1.986   2.773   4.969
 2652SOL     OW 7979   3.387   2.861   3.914
 2652SOL    HW1 7980   3.324   2.785   3.927
 2652SOL    HW2 7981   3.435   2.879   4.000
 2653SOL     OW 7982   3.328   3.279   4.677
 2653SOL    HW1 7983   3.269   3.285   4.757
 2653SOL    HW2 7984   3.313   3.191   4.631
 2654SOL     OW 7985   3.529   3.576   4.296
 2654SOL    HW1 7986   3.488   3.553   4.208
 2654SOL    HW2 7987   3.511   3.502   4.361
 2655SOL     OW 7988   2.460   2.591   3.994
 2655SOL    HW1 7989   2.484   2.660   3.926
 2655SOL    HW2 7990   2.382   2.624   4.048
 2656SOL     OW 7991   3.143   2.207   4.668
 2656SOL    HW1 7992   3.057   2.157   4.655
 2656SOL    HW2 7993   3.205   2.153   4.724
 2657SOL     OW 7994   3.438   3.524   4.031
 2657SOL    HW1 7995   3.527   3.570   4.034
 2657SOL    HW2 7996   3.417   3.500   3.936
 2658SOL     OW 7997   2.669   2.467   5.189
 2658SOL    HW1 7998   2.622   2.464   5.278
 2658SOL    HW2 7999   2.618   2.412   5.123
 2659SOL     OW 8000   2.853   2.272   4.966
 2659SOL    HW1 8001   2.776   2.306   5.020
 2659SOL    HW2 8002   2.819   2.221   4.887
 2660SOL     OW 8003   2.903   2.563   4.153
 2660SOL    HW1 8004   2.929   2.559   4.249
 2660SOL    HW2 8005   2.818   2.512   4.139
 2661SOL     OW 8006   1.938   2.673   4.513
 2661SOL    HW1 8007   2.037   2.661   4.522
 2661SOL    HW2 8008   1.914   2.768   4.534
 2662SOL     OW 8009   1.992   3.683   5.295
 2662SOL    HW1 8010   1.982   3.668   5.394
 2662SOL    HW2 8011   1.906   3.719   5.259
 2663SOL     OW 8012   2.727   2.210   3.919
 2663SOL    HW1 8013   2.786   2.273   3.870
 2663SOL    HW2 8014   2.746   2.116   3.890
 2664SOL     OW 8015   3.224   3.006   4.269
 2664SOL    HW1 8016   3.307   2.977   4.221
 2664SOL    HW2 8017   3.175   3.073   4.213
 2665SOL     OW 8018   2.412   2.058   4.609
 2665SOL    HW1 8019   2.407   2.053   4.709
 2665SOL    HW2 8020   2.414   2.154   4.580
 2666SOL     OW 8021   2.870   3.318   4.201
 2666SOL    HW1 8022   2.824   3.390   4.149
 2666SOL    HW2 8023   2.866   3.338   4.299
 2667SOL     OW 8024   2.213   3.663   4.577
 2667SOL    HW1 8025   2.263   3.577   4.583
 2667SOL    HW2 8026   2.278   3.740   4.574
 2668SOL     OW 8027   3.657   2.928   4.597
 2668SOL    HW1 8028   3.595   2.913   4.521
 2668SOL    HW2 8029   3.605   2.939   4.682
 2669SOL     OW 8030   2.183   2.805   3.966
 2669SOL    HW1 8031   2.265   2.844   3.924
 2669SOL    HW2 8032   2.156   2.723   3.917
 2670SOL     OW 8033   3.320   2.597   4.452
 2670SOL    HW1 8034   3.315   2.532   4.527
 2670SOL    HW2 8035   3.400   2.656   4.465
 2671SOL     OW 8036   2.973   3.638   3.961
 2671SOL    HW1 8037   2.913   3.576   4.011
 2671SOL    HW2 8038   3.004   3.594   3.876
 2672SOL     OW 8039   3.494   3.239   3.805
 2672SOL    HW1 8040   3.462   3.333   3.795
 2672SOL    HW2 8041   3.418   3.176   3.793
 2673SOL     OW 8042   2.326   3.605   4.047
 2673SOL    HW1 8043   2.359   3.644   4.133
 2673SOL    HW2 8044   2.402   3.598   3.982
 2674SOL     OW 8045   3.262   1.969   4.150
 2674SOL    HW1 8046   3.238   1.932   4.060
 2674SOL    HW2 8047   3.361   1.985   4.154
 2675SOL     OW 8048   2.111   3.647   4.965
 2675SOL    HW1 8049   2.168   3.582   5.015
 2675SOL    HW2 8050   2.095   3.614   4.872
 2676SOL     OW 8051   2.802   3.560   4.628
 2676SOL    HW1 8052   2.882   3.503   4.649
 2676SOL    HW2 8053   2.753   3.520   4.551
 2677SOL     OW 8054   2.244   2.562   4.204
 2677SOL    HW1 8055   2.289   2.472   4.201
 2677SOL    HW2 8056   2.150   2.551   4.237
 2678SOL     OW 8057   2.476   1.984   3.841
 2678SOL    HW1 8058   2.574   1.962   3.848
 2678SOL    HW2 8059   2.445   1.967   3.748
 2679SOL     OW 8060   2.750   3.376   4.919
 2679SOL    HW1 8061   2.727   3.351   4.825
 2679SOL    HW2 8062   2.811   3.307   4.958
 2680SOL     OW 8063   2.665   3.264   4.648
 2680SOL    HW1 8064   2.755   3.278   4.606
 2680SOL    HW2 8065   2.594   3.266   4.577
 2681SOL     OW 8066   2.784   2.365   4.623
 2681SOL    HW1 8067   2.759   2.356   4.527
 2681SOL    HW2 8068   2.832   2.283   4.654
 2682SOL     OW 8069   2.401   1.926   4.236
 2682SOL    HW1 8070   2.320   1.927   4.294
 2682SOL    HW2 8071   2.404   2.009   4.181
 2683SOL     OW 8072   3.296   3.050   3.765
 2683SOL    HW1 8073   3.328   2.974   3.822
 2683SOL    HW2 8074   3.204   3.077   3.795
 2684SOL     OW 8075   2.159   1.897   3.895
 2684SOL    HW1 8076   2.208   1.981   3.874
 2684SOL    HW2 8077   2.221   1.832   3.940
 2685SOL     OW 8078   2.797   2.098   4.204
 2685SOL    HW1 8079   2.749   2.139   4.126
 2685SOL    HW2 8080   2.896   2.096   4.185
 2686SOL     OW 8081   3.089   3.432   4.517
 2686SOL    HW1 8082   3.110   3.506   4.452
 2686SOL    HW2 8083   3.157   3.432   4.590
 2687SOL     OW 8084   2.321   3.014   4.465
 2687SOL    HW1 8085   2.250   2.987   4.530
 2687SOL    HW2 8086   2.295   2.986   4.372
 2688SOL     OW 8087   3.133   3.659   4.315
 2688SOL    HW1 8088   3.177   3.723   4.251
 2688SOL    HW2 8089   3.083   3.711   4.385
 2689SOL     OW 8090   2.894   2.411   3.740
 2689SOL    HW1 8091   2.853   2.493   3.701
 2689SOL    HW2 8092   2.958   2.437   3.813
 2690SOL     OW 8093   2.423   2.084   4.871
 2690SOL    HW1 8094   2.461   2.000   4.908
 2690SOL    HW2 8095   2.335   2.103   4.915
 2691SOL     OW 8096   2.728   2.316   4.366
 2691SOL    HW1 8097   2.696   2.388   4.304
 2691SOL    HW2 8098   2.752   2.235   4.313
 2692SOL     OW 8099   2.879   1.901   4.477
 2692SOL    HW1 8100   2.807   1.906   4.408
 2692SOL    HW2 8101   2.855   1.832   4.546
 2693SOL     OW 8102   3.291   3.035   4.591
 2693SOL    HW1 8103   3.236   2.951   4.584
 2693SOL    HW2 8104   3.317   3.064   4.499
 2694SOL     OW 8105   3.328   2.452   4.716
 2694SOL    HW1 8106   3.298   2.357   4.723
 2694SOL    HW2 8107   3.401   2.468   4.782
 2695SOL     OW 8108   3.719   2.695   4.101
 2695SOL    HW1 8109   3.761   2.631   4.165
 2695SOL    HW2 8110   3.681   2.644   4.023
 2696SOL     OW 8111   2.350   3.247   3.898
 2696SOL    HW1 8112   2.263   3.232   3.945
 2696SOL    HW2 8113   2.333   3.273   3.803
 2697SOL     OW 8114   3.526   3.142   4.381
 2697SOL    HW1 8115   3.625   3.150   4.395
 2697SOL    HW2 8116   3.481   3.226   4.412
 2698SOL     OW 8117   3.252   2.437   3.802
 2698SOL    HW1 8118   3.198   2.416   3.883
 2698SOL    HW2 8119   3.343   2.396   3.811
 2699SOL     OW 8120   2.389   2.118   4.052
 2699SOL    HW1 8121   2.416   2.059   3.977
 2699SOL    HW2 8122   2.389   2.213   4.021
 2700SOL     OW 8123   3.616   3.085   5.312
 2700SOL    HW1 8124   3.707   3.046   5.299
 2700SOL    HW2 8125   3.624   3.181   5.336
 2701SOL     OW 8126   2.973   3.057   4.824
 2701SOL    HW1 8127   2.933   3.101   4.905
 2701SOL    HW2 8128   2.932   3.094   4.741
 2702SOL     OW 8129   3.500   2.961   4.803
 2702SOL    HW1 8130   3.505   3.042   4.862
 2702SOL    HW2 8131   3.414   2.963   4.752
 2703SOL     OW 8132   2.567   2.912   4.092
 2703SOL    HW1 8133   2.553   2.919   4.191
 2703SOL    HW2 8134   2.651   2.861   4.074
 2704SOL     OW 8135   2.272   2.675   4.975
 2704SOL    HW1 8136   2.358   2.687   5.025
 2704SOL    HW2 8137   2.230   2.588   5.002
 2705SOL     OW 8138   3.136   2.248   4.986
 2705SOL    HW1 8139   3.157   2.322   5.050
 2705SOL    HW2 8140   3.047   2.265   4.943
 2706SOL     OW 8141   1.926   3.426   5.055
 2706SOL    HW1 8142   1.880   3.508   5.021
 2706SOL    HW2 8143   2.024   3.445   5.064
 2707SOL     OW 8144   2.229   2.962   4.225
 2707SOL    HW1 8145   2.222   3.045   4.169
 2707SOL    HW2 8146   2.233   2.882   4.165
 2708SOL     OW 8147   2.428   2.399   4.589
 2708SOL    HW1 8148   2.440   2.465   4.515
 2708SOL    HW2 8149   2.474   2.433   4.672
 2709SOL     OW 8150   3.114   3.210   4.112
 2709SOL    HW1 8151   3.164   3.287   4.152
 2709SOL    HW2 8152   3.019   3.212   4.144
 2710SOL     OW 8153   3.134   3.307   4.866
 2710SOL    HW1 8154   3.181   3.320   4.953
 2710SOL    HW2 8155   3.068   3.233   4.875
 2711SOL     OW 8156   3.444   2.501   4.196
 2711SOL    HW1 8157   3.413   2.562   4.269
 2711SOL    HW2 8158   3.494   2.553   4.127
 2712SOL     OW 8159   2.216   3.372   5.053
 2712SOL    HW1 8160   2.195   3.328   4.966
 2712SOL    HW2 8161   2.313   3.398   5.056
 2713SOL     OW 8162   2.435   2.732   4.753
 2713SOL    HW1 8163   2.479   2.821   4.744
 2713SOL    HW2 8164   2.372   2.732   4.830
 2714SOL     OW 8165   3.222   2.724   4.769
 2714SOL    HW1 8166   3.147   2.724   4.703
 2714SOL    HW2 8167   3.259   2.632   4.778
 2715SOL     OW 8168   3.071   2.387   3.999
 2715SOL    HW1 8169   3.084   2.303   4.053
 2715SOL    HW2 8170   3.042   2.461   4.059
 2716SOL     OW 8171   2.169   2.075   4.955
 2716SOL    HW1 8172   2.146   2.112   5.045
 2716SOL    HW2 8173   2.139   1.980   4.949
 2717SOL     OW 8174   1.899   3.172   5.006
 2717SOL    HW1 8175   1.952   3.123   5.074
 2717SOL    HW2 8176   1.921   3.270   5.011
 2718SOL     OW 8177   2.594   2.496   4.788
 2718SOL    HW1 8178   2.653   2.470   4.712
 2718SOL    HW2 8179   2.566   2.592   4.777
 2719SOL     OW 8180   2.169   1.925   4.342
 2719SOL    HW1 8181   2.158   2.019   4.375
 2719SOL    HW2 8182   2.164   1.862   4.419
 2720SOL     OW 8183   3.484   2.229   4.098
 2720SOL    HW1 8184   3.486   2.153   4.162
 2720SOL    HW2 8185   3.436   2.306   4.138
 2721SOL     OW 8186   2.885   2.628   4.690
 2721SOL    HW1 8187   2.900   2.649   4.786
 2721SOL    HW2 8188   2.855   2.533   4.681
 2722SOL     OW 8189   3.402   2.136   3.849
 2722SOL    HW1 8190   3.341   2.061   3.872
 2722SOL    HW2 8191   3.424   2.188   3.932
 2723SOL     OW 8192   3.165   2.700   3.766
 2723SOL    HW1 8193   3.199   2.607   3.781
 2723SOL    HW2 8194   3.183   2.727   3.671
 2724SOL     OW 8195   2.930   3.195   4.573
 2724SOL    HW1 8196   2.937   3.111   4.518
 2724SOL    HW2 8197   2.992   3.264   4.537
 2725SOL     OW 8198   2.181   2.672   4.673
 2725SOL    HW1 8199   2.274   2.708   4.678
 2725SOL    HW2 8200   2.175   2.587   4.725
 2726SOL     OW 8201   2.201   2.371   4.730
 2726SOL    HW1 8202   2.149   2.288   4.713
 2726SOL    HW2 8203   2.278   2.376   4.666
 2727SOL     OW 8204   3.022   2.069   5.201
 2727SOL    HW1 8205   3.022   2.133   5.278
 2727SOL    HW2 8206   3.050   2.117   5.118
 2728SOL     OW 8207   1.870   3.188   3.924
 2728SOL    HW1 8208   1.777   3.209   3.893
 2728SOL    HW2 8209   1.880   3.089   3.937
 2729SOL     OW 8210   1.950   3.663   4.651
 2729SOL    HW1 8211   1.908   3.577   4.624
 2729SOL    HW2 8212   2.044   3.666   4.617
 2730SOL     OW 8213   2.366   3.430   4.634
 2730SOL    HW1 8214   2.432   3.504   4.643
 2730SOL    HW2 8215   2.410   3.351   4.592
 2731SOL     OW 8216   2.864   2.658   4.962
 2731SOL    HW1 8217   2.905   2.626   5.048
 2731SOL    HW2 8218   2.768   2.631   4.959
 2732SOL     OW 8219   1.902   2.406   4.838
 2732SOL    HW1 8220   1.987   2.373   4.797
 2732SOL    HW2 8221   1.915   2.421   4.936
 2733SOL     OW 8222   2.677   2.434   4.049
 2733SOL    HW1 8223   2.684   2.345   4.003
 2733SOL    HW2 8224   2.583   2.468   4.041
 2734SOL     OW 8225   3.519   2.466   4.930
 2734SOL    HW1 8226   3.481   2.397   4.992
 2734SOL    HW2 8227   3.601   2.430   4.886
 2735SOL     OW 8228   2.533   2.326   4.993
 2735SOL    HW1 8229   2.499   2.237   4.963
 2735SOL    HW2 8230   2.559   2.380   4.913
 2736SOL     OW 8231   2.792   3.540   5.189
 2736SOL    HW1 8232   2.768   3.522   5.094
 2736SOL    HW2 8233   2.822   3.634   5.199
 2737SOL     OW 8234   2.335   2.362   3.915
 2737SOL    HW1 8235   2.396   2.442   3.919
 2737SOL    HW2 8236   2.240   2.393   3.922
 2738SOL     OW 8237   2.021   2.999   5.190
 2738SOL    HW1 8238   2.043   2.938   5.266
 2738SOL    HW2 8239   2.031   2.950   5.104
 2739SOL     OW 8240   3.209   2.921   4.958
 2739SOL    HW1 8241   3.233   2.858   4.884
 2739SOL    HW2 8242   3.119   2.961   4.940
 2740SOL     OW 8243   3.164   2.717   4.033
 2740SOL    HW1 8244   3.078   2.686   4.075
 2740SOL    HW2 8245   3.160   2.703   3.934
 2741SOL     OW 8246   3.621   3.609   4.878
 2741SOL    HW1 8247   3.682   3.639   4.805
 2741SOL    HW2 8248   3.583   3.520   4.856
 2742SOL     OW 8249   3.114   3.593   4.852
 2742SOL    HW1 8250   3.198   3.598   4.798
 2742SOL    HW2 8251   3.091   3.497   4.870
 2743SOL     OW 8252   1.945   3.120   4.746
 2743SOL    HW1 8253   1.940   3.119   4.846
 2743SOL    HW2 8254   1.862   3.079   4.708
 2744SOL     OW 8255   3.588   1.997   4.247
 2744SOL    HW1 8256   3.661   1.980   4.180
 2744SOL    HW2 8257   3.557   1.910   4.285
 2745SOL     OW 8258   3.250   3.435   4.201
 2745SOL    HW1 8259   3.317   3.447   4.127
 2745SOL    HW2 8260   3.210   3.524   4.224
 2746SOL     OW 8261   3.142   2.789   4.396
 2746SOL    HW1 8262   3.202   2.708   4.398
 2746SOL    HW2 8263   3.182   2.858   4.336
 2747SOL     OW 8264   2.534   3.478   3.878
 2747SOL    HW1 8265   2.543   3.488   3.779
 2747SOL    HW2 8266   2.494   3.389   3.899
 2748SOL     OW 8267   3.703   2.037   4.687
 2748SOL    HW1 8268   3.742   1.952   4.651
 2748SOL    HW2 8269   3.605   2.039   4.668
 2749SOL     OW 8270   2.125   2.188   4.444
 2749SOL    HW1 8271   2.046   2.239   4.410
 2749SOL    HW2 8272   2.116   2.173   4.542
 2750SOL     OW 8273   3.056   3.474   3.755
 2750SOL    HW1 8274   3.062   3.381   3.792
 2750SOL    HW2 8275   2.997   3.474   3.675
 2751SOL     OW 8276   2.684   2.864   5.096
 2751SOL    HW1 8277   2.724   2.863   5.004
 2751SOL    HW2 8278   2.694   2.956   5.136
 2752SOL     OW 8279   2.778   2.772   4.015
 2752SOL    HW1 8280   2.841   2.810   3.947
 2752SOL    HW2 8281   2.818   2.689   4.054
 2753SOL     OW 8282   3.366   3.469   3.768
 2753SOL    HW1 8283   3.274   3.506   3.775
 2753SOL    HW2 8284   3.404   3.489   3.678
 2754SOL     OW 8285   3.476   3.154   5.013
 2754SOL    HW1 8286   3.536   3.157   5.093
 2754SOL    HW2 8287   3.401   3.218   5.026
 2755SOL     OW 8288   2.901   2.960   4.420
 2755SOL    HW1 8289   2.831   2.913   4.474
 2755SOL    HW2 8290   2.960   2.892   4.377
 2756SOL     OW 8291   2.876   2.098   4.695
 2756SOL    HW1 8292   2.868   2.062   4.602
 2756SOL    HW2 8293   2.874   2.022   4.760
 2757SOL     OW 8294   2.452   3.349   4.215
 2757SOL    HW1 8295   2.494   3.291   4.145
 2757SOL    HW2 8296   2.408   3.428   4.171
 2758SOL     OW 8297   3.571   2.247   5.105
 2758SOL    HW1 8298   3.644   2.316   5.109
 2758SOL    HW2 8299   3.599   2.172   5.046
 2759SOL     OW 8300   2.117   3.210   4.014
 2759SOL    HW1 8301   2.021   3.211   3.987
 2759SOL    HW2 8302   2.129   3.263   4.098
 2760SOL     OW 8303   2.534   2.065   5.213
 2760SOL    HW1 8304   2.624   2.049   5.173
 2760SOL    HW2 8305   2.542   2.070   5.312
 2761SOL     OW 8306   1.937   2.207   3.757
 2761SOL    HW1 8307   1.845   2.179   3.728
 2761SOL    HW2 8308   1.968   2.284   3.701
 2762SOL     OW 8309   1.934   2.028   4.042
 2762SOL    HW1 8310   1.917   2.111   3.988
 2762SOL    HW2 8311   2.024   1.991   4.020
 2763SOL     OW 8312   3.045   3.197   3.843
 2763SOL    HW1 8313   2.946   3.186   3.845
 2763SOL    HW2 8314   3.079   3.212   3.936
 2764SOL     OW 8315   2.475   2.704   5.155
 2764SOL    HW1 8316   2.531   2.785   5.138
 2764SOL    HW2 8317   2.534   2.624   5.158
 2765SOL     OW 8318   3.355   3.629   4.683
 2765SOL    HW1 8319   3.388   3.693   4.614
 2765SOL    HW2 8320   3.421   3.623   4.758
 2766SOL     OW 8321   2.252   3.603   5.284
 2766SOL    HW1 8322   2.161   3.644   5.282
 2766SOL    HW2 8323   2.245   3.509   5.316
 2767SOL     OW 8324   3.536   2.745   4.978
 2767SOL    HW1 8325   3.509   2.656   4.941
 2767SOL    HW2 8326   3.537   2.813   4.905
 2768SOL     OW 8327   3.087   2.187   4.173
 2768SOL    HW1 8328   3.152   2.113   4.162
 2768SOL    HW2 8329   3.107   2.237   4.257
 2769SOL     OW 8330   2.456   2.607   4.376
 2769SOL    HW1 8331   2.506   2.692   4.357
 2769SOL    HW2 8332   2.368   2.609   4.328
 2770SOL     OW 8333   3.592   2.796   5.241
 2770SOL    HW1 8334   3.630   2.887   5.256
 2770SOL    HW2 8335   3.584   2.779   5.142
 2771SOL     OW 8336   2.721   3.236   3.740
 2771SOL    HW1 8337   2.675   3.251   3.828
 2771SOL    HW2 8338   2.765   3.321   3.710
 2772SOL     OW 8339   2.523   3.652   4.677
 2772SOL    HW1 8340   2.477   3.740   4.664
 2772SOL    HW2 8341   2.622   3.664   4.670
 2773SOL     OW 8342   2.721   2.818   4.585
 2773SOL    HW1 8343   2.775   2.749   4.633
 2773SOL    HW2 8344   2.689   2.887   4.651
 2774SOL     OW 8345   2.945   2.846   3.811
 2774SOL    HW1 8346   2.922   2.899   3.729
 2774SOL    HW2 8347   3.026   2.790   3.792
 2775SOL     OW 8348   3.723   3.431   4.575
 2775SOL    HW1 8349   3.652   3.419   4.505
 2775SOL    HW2 8350   3.724   3.352   4.635
 2776SOL     OW 8351   1.941   3.102   4.377
 2776SOL    HW1 8352   1.940   3.055   4.465
 2776SOL    HW2 8353   2.023   3.074   4.326
 2777SOL     OW 8354   3.686   2.054   4.951
 2777SOL    HW1 8355   3.682   1.964   4.995
 2777SOL    HW2 8356   3.689   2.043   4.852
 2778SOL     OW 8357   2.290   2.286   4.244
 2778SOL    HW1 8358   2.320   2.214   4.182
 2778SOL    HW2 8359   2.251   2.246   4.327
 2779SOL     OW 8360   3.567   3.349   4.828
 2779SOL    HW1 8361   3.474   3.324   4.801
 2779SOL    HW2 8362   3.593   3.299   4.910
 2780SOL     OW 8363   2.179   2.409   5.004
 2780SOL    HW1 8364   2.217   2.350   5.076
 2780SOL    HW2 8365   2.219   2.383   4.916
 2781SOL     OW 8366   2.674   3.448   4.411
 2781SOL    HW1 8367   2.706   3.458   4.317
 2781SOL    HW2 8368   2.595   3.386   4.413
 2782SOL     OW 8369   3.286   2.076   4.836
 2782SOL    HW1 8370   3.338   2.011   4.891
 2782SOL    HW2 8371   3.237   2.139   4.897
 2783SOL     OW 8372   2.863   1.896   4.878
 2783SOL    HW1 8373   2.800   1.824   4.847
 2783SOL    HW2 8374   2.956   1.860   4.878
 2784SOL     OW 8375   2.632   3.192   4.025
 2784SOL    HW1 8376   2.586   3.105   4.042
 2784SOL    HW2 8377   2.723   3.189   4.066
 2785SOL     OW 8378   2.480   3.429   5.008
 2785SOL    HW1 8379   2.475   3.511   5.065
 2785SOL    HW2 8380   2.569   3.426   4.963
 2786SOL     OW 8381   3.214   1.914   3.892
 2786SOL    HW1 8382   3.249   1.873   3.808
 2786SOL    HW2 8383   3.124   1.876   3.912
 2787SOL     OW 8384   3.162   2.315   4.415
 2787SOL    HW1 8385   3.103   2.395   4.419
 2787SOL    HW2 8386   3.177   2.280   4.508
 2788SOL     OW 8387   3.455   2.083   4.606
 2788SOL    HW1 8388   3.371   2.082   4.660
 2788SOL    HW2 8389   3.457   2.166   4.550
 2789SOL     OW 8390   1.901   2.939   4.024
 2789SOL    HW1 8391   2.000   2.928   4.015
 2789SOL    HW2 8392   1.861   2.853   4.056
 2790SOL     OW 8393   2.737   3.508   4.061
 2790SOL    HW1 8394   2.660   3.473   4.007
 2790SOL    HW2 8395   2.705   3.579   4.123
 2791SOL     OW 8396   2.092   4.352   0.113
 2791SOL    HW1 8397   1.999   4.350   0.150
 2791SOL    HW2 8398   2.093   4.313   0.021
 2792SOL     OW 8399   2.087   3.999   0.996
 2792SOL    HW1 8400   2.122   3.982   1.088
 2792SOL    HW2 8401   1.999   3.954   0.984
 2793SOL     OW 8402   1.881   4.092   0.647
 2793SOL    HW1 8403   1.799   4.135   0.686
 2793SOL    HW2 8404   1.853   4.019   0.584
 2794SOL     OW 8405   2.431   4.999   1.165
 2794SOL    HW1 8406   2.338   4.992   1.128
 2794SOL    HW2 8407   2.442   5.088   1.209
 2795SOL     OW 8408   3.417   5.235   0.703
 2795SOL    HW1 8409   3.360   5.219   0.784
 2795SOL    HW2 8410   3.358   5.245   0.623
 2796SOL     OW 8411   2.997   4.427   0.717
 2796SOL    HW1 8412   3.054   4.505   0.692
 2796SOL    HW2 8413   2.937   4.453   0.793
 2797SOL     OW 8414   3.617   4.331   0.231
 2797SOL    HW1 8415   3.605   4.318   0.132
 2797SOL    HW2 8416   3.587   4.250   0.280
 2798SOL     OW 8417   2.630   4.868   1.023
 2798SOL    HW1 8418   2.552   4.885   1.083
 2798SOL    HW2 8419   2.664   4.955   0.987
 2799SOL     OW 8420   2.712   4.522   1.823
 2799SOL    HW1 8421   2.708   4.598   1.888
 2799SOL    HW2 8422   2.734   4.558   1.732
 2800SOL     OW 8423   2.547   4.736   0.665
 2800SOL    HW1 8424   2.616   4.720   0.735
 2800SOL    HW2 8425   2.474   4.793   0.703
 2801SOL     OW 8426   2.548   4.885   1.803
 2801SOL    HW1 8427   2.608   4.964   1.817
 2801SOL    HW2 8428   2.462   4.916   1.762
 2802SOL     OW 8429   2.197   5.159   1.061
 2802SOL    HW1 8430   2.119   5.128   1.008
 2802SOL    HW2 8431   2.255   5.217   1.004
 2803SOL     OW 8432   2.300   4.116   1.499
 2803SOL    HW1 8433   2.382   4.060   1.508
 2803SOL    HW2 8434   2.219   4.058   1.503
 2804SOL     OW 8435   3.465   4.171   0.737
 2804SOL    HW1 8436   3.391   4.217   0.687
 2804SOL    HW2 8437   3.516   4.239   0.790
 2805SOL     OW 8438   2.989   5.065   1.690
 2805SOL    HW1 8439   3.036   5.065   1.778
 2805SOL    HW2 8440   2.941   4.978   1.679
 2806SOL     OW 8441   2.102   4.815   0.886
 2806SOL    HW1 8442   2.116   4.731   0.938
 2806SOL    HW2 8443   2.047   4.879   0.941
 2807SOL     OW 8444   2.468   4.688   0.123
 2807SOL    HW1 8445   2.475   4.772   0.069
 2807SOL    HW2 8446   2.514   4.701   0.211
 2808SOL     OW 8447   3.456   3.838   1.480
 2808SOL    HW1 8448   3.438   3.905   1.408
 2808SOL    HW2 8449   3.453   3.884   1.569
 2809SOL     OW 8450   1.984   4.367   0.563
 2809SOL    HW1 8451   1.939   4.279   0.580
 2809SOL    HW2 8452   1.983   4.421   0.647
 2810SOL     OW 8453   3.551   4.646   0.612
 2810SOL    HW1 8454   3.646   4.617   0.620
 2810SOL    HW2 8455   3.543   4.711   0.537
 2811SOL     OW 8456   3.503   4.832   0.432
 2811SOL    HW1 8457   3.589   4.834   0.380
 2811SOL    HW2 8458   3.517   4.879   0.520
 2812SOL     OW 8459   1.975   4.461   1.597
 2812SOL    HW1 8460   2.063   4.448   1.642
 2812SOL    HW2 8461   1.962   4.558   1.575
 2813SOL     OW 8462   2.475   5.089   0.726
 2813SOL    HW1 8463   2.426   5.002   0.735
 2813SOL    HW2 8464   2.452   5.132   0.639
 2814SOL     OW 8465   3.155   4.952   1.423
 2814SOL    HW1 8466   3.192   4.879   1.365
 2814SOL    HW2 8467   3.207   4.957   1.508
 2815SOL     OW 8468   2.671   3.728   0.502
 2815SOL    HW1 8469   2.711   3.819   0.493
 2815SOL    HW2 8470   2.571   3.736   0.508
 2816SOL     OW 8471   2.059   4.700   1.264
 2816SOL    HW1 8472   2.148   4.655   1.250
 2816SOL    HW2 8473   1.986   4.635   1.245
 2817SOL     OW 8474   3.387   4.723   0.190
 2817SOL    HW1 8475   3.324   4.647   0.203
 2817SOL    HW2 8476   3.435   4.741   0.276
 2818SOL     OW 8477   2.179   3.975   1.801
 2818SOL    HW1 8478   2.250   4.046   1.807
 2818SOL    HW2 8479   2.091   4.014   1.829
 2819SOL     OW 8480   3.328   5.141   0.953
 2819SOL    HW1 8481   3.269   5.147   1.033
 2819SOL    HW2 8482   3.313   5.053   0.907
 2820SOL     OW 8483   2.460   4.453   0.270
 2820SOL    HW1 8484   2.484   4.522   0.202
 2820SOL    HW2 8485   2.382   4.486   0.324
 2821SOL     OW 8486   3.143   4.069   0.944
 2821SOL    HW1 8487   3.057   4.019   0.931
 2821SOL    HW2 8488   3.205   4.015   1.000
 2822SOL     OW 8489   2.669   4.329   1.465
 2822SOL    HW1 8490   2.622   4.326   1.554
 2822SOL    HW2 8491   2.618   4.274   1.399
 2823SOL     OW 8492   3.256   4.193   1.674
 2823SOL    HW1 8493   3.236   4.236   1.762
 2823SOL    HW2 8494   3.334   4.131   1.683
 2824SOL     OW 8495   2.835   4.614   1.572
 2824SOL    HW1 8496   2.881   4.530   1.543
 2824SOL    HW2 8497   2.779   4.648   1.497
 2825SOL     OW 8498   2.853   4.134   1.242
 2825SOL    HW1 8499   2.776   4.168   1.296
 2825SOL    HW2 8500   2.819   4.083   1.163
 2826SOL     OW 8501   2.903   4.425   0.429
 2826SOL    HW1 8502   2.929   4.421   0.525
 2826SOL    HW2 8503   2.818   4.374   0.415
 2827SOL     OW 8504   1.938   4.535   0.789
 2827SOL    HW1 8505   2.037   4.523   0.798
 2827SOL    HW2 8506   1.914   4.630   0.810
 2828SOL     OW 8507   2.727   4.072   0.195
 2828SOL    HW1 8508   2.786   4.135   0.146
 2828SOL    HW2 8509   2.746   3.978   0.166
 2829SOL     OW 8510   3.581   4.309   1.831
 2829SOL    HW1 8511   3.555   4.398   1.795
 2829SOL    HW2 8512   3.579   4.241   1.758
 2830SOL     OW 8513   3.224   4.868   0.545
 2830SOL    HW1 8514   3.307   4.839   0.497
 2830SOL    HW2 8515   3.175   4.935   0.489
 2831SOL     OW 8516   2.412   3.920   0.885
 2831SOL    HW1 8517   2.407   3.915   0.985
 2831SOL    HW2 8518   2.414   4.016   0.856
 2832SOL     OW 8519   3.657   4.790   0.873
 2832SOL    HW1 8520   3.595   4.775   0.797
 2832SOL    HW2 8521   3.605   4.801   0.958
 2833SOL     OW 8522   2.183   4.667   0.242
 2833SOL    HW1 8523   2.265   4.706   0.200
 2833SOL    HW2 8524   2.156   4.585   0.193
 2834SOL     OW 8525   3.320   4.459   0.728
 2834SOL    HW1 8526   3.315   4.394   0.803
 2834SOL    HW2 8527   3.400   4.518   0.741
 2835SOL     OW 8528   2.323   4.990   1.727
 2835SOL    HW1 8529   2.273   4.991   1.641
 2835SOL    HW2 8530   2.260   4.972   1.803
 2836SOL     OW 8531   2.064   4.009   1.498
 2836SOL    HW1 8532   1.984   4.069   1.485
 2836SOL    HW2 8533   2.054   3.960   1.584
 2837SOL     OW 8534   3.494   5.101   0.081
 2837SOL    HW1 8535   3.462   5.195   0.071
 2837SOL    HW2 8536   3.418   5.038   0.069
 2838SOL     OW 8537   3.262   3.831   0.426
 2838SOL    HW1 8538   3.238   3.794   0.336
 2838SOL    HW2 8539   3.361   3.847   0.430
 2839SOL     OW 8540   2.244   4.424   0.480
 2839SOL    HW1 8541   2.289   4.334   0.477
 2839SOL    HW2 8542   2.150   4.413   0.513
 2840SOL     OW 8543   3.409   3.946   1.729
 2840SOL    HW1 8544   3.404   3.983   1.821
 2840SOL    HW2 8545   3.337   3.877   1.717
 2841SOL     OW 8546   2.643   3.988   1.749
 2841SOL    HW1 8547   2.710   3.927   1.792
 2841SOL    HW2 8548   2.570   4.007   1.814
 2842SOL     OW 8549   3.213   4.314   1.433
 2842SOL    HW1 8550   3.241   4.271   1.518
 2842SOL    HW2 8551   3.238   4.410   1.434
 2843SOL     OW 8552   2.784   4.227   0.899
 2843SOL    HW1 8553   2.759   4.218   0.803
 2843SOL    HW2 8554   2.832   4.145   0.930
 2844SOL     OW 8555   2.401   3.788   0.512
 2844SOL    HW1 8556   2.320   3.789   0.570
 2844SOL    HW2 8557   2.404   3.871   0.457
 2845SOL     OW 8558   3.296   4.912   0.041
 2845SOL    HW1 8559   3.328   4.836   0.098
 2845SOL    HW2 8560   3.204   4.939   0.071
 2846SOL     OW 8561   2.797   3.960   0.480
 2846SOL    HW1 8562   2.749   4.001   0.402
 2846SOL    HW2 8563   2.896   3.958   0.461
 2847SOL     OW 8564   2.938   4.407   1.464
 2847SOL    HW1 8565   2.858   4.346   1.467
 2847SOL    HW2 8566   3.019   4.354   1.440
 2848SOL     OW 8567   3.089   5.294   0.793
 2848SOL    HW1 8568   3.110   5.368   0.728
 2848SOL    HW2 8569   3.157   5.294   0.866
 2849SOL     OW 8570   2.321   4.876   0.741
 2849SOL    HW1 8571   2.250   4.849   0.806
 2849SOL    HW2 8572   2.295   4.848   0.648
 2850SOL     OW 8573   2.894   4.273   0.016
 2850SOL    HW1 8574   2.853   4.355  -0.023
 2850SOL    HW2 8575   2.958   4.299   0.089
 2851SOL     OW 8576   1.940   4.280   1.386
 2851SOL    HW1 8577   2.032   4.279   1.345
 2851SOL    HW2 8578   1.934   4.354   1.453
 2852SOL     OW 8579   2.423   3.946   1.147
 2852SOL    HW1 8580   2.461   3.862   1.184
 2852SOL    HW2 8581   2.335   3.965   1.191
 2853SOL     OW 8582   2.728   4.178   0.642
 2853SOL    HW1 8583   2.696   4.250   0.580
 2853SOL    HW2 8584   2.752   4.097   0.589
 2854SOL     OW 8585   2.879   3.763   0.753
 2854SOL    HW1 8586   2.807   3.768   0.684
 2854SOL    HW2 8587   2.855   3.694   0.822
 2855SOL     OW 8588   3.291   4.897   0.867
 2855SOL    HW1 8589   3.236   4.813   0.860
 2855SOL    HW2 8590   3.317   4.926   0.775
 2856SOL     OW 8591   3.328   4.314   0.992
 2856SOL    HW1 8592   3.298   4.219   0.999
 2856SOL    HW2 8593   3.401   4.330   1.058
 2857SOL     OW 8594   3.719   4.557   0.377
 2857SOL    HW1 8595   3.761   4.493   0.441
 2857SOL    HW2 8596   3.681   4.506   0.299
 2858SOL     OW 8597   3.526   5.004   0.657
 2858SOL    HW1 8598   3.625   5.012   0.671
 2858SOL    HW2 8599   3.481   5.088   0.688
 2859SOL     OW 8600   3.252   4.299   0.078
 2859SOL    HW1 8601   3.198   4.278   0.159
 2859SOL    HW2 8602   3.343   4.258   0.087
 2860SOL     OW 8603   2.389   3.980   0.328
 2860SOL    HW1 8604   2.416   3.921   0.253
 2860SOL    HW2 8605   2.389   4.075   0.297
 2861SOL     OW 8606   3.616   4.947   1.588
 2861SOL    HW1 8607   3.707   4.908   1.575
 2861SOL    HW2 8608   3.624   5.043   1.612
 2862SOL     OW 8609   2.926   5.071   1.340
 2862SOL    HW1 8610   2.846   5.048   1.395
 2862SOL    HW2 8611   3.009   5.045   1.389
 2863SOL     OW 8612   2.973   4.919   1.100
 2863SOL    HW1 8613   2.933   4.963   1.181
 2863SOL    HW2 8614   2.932   4.956   1.017
 2864SOL     OW 8615   3.500   4.823   1.079
 2864SOL    HW1 8616   3.505   4.904   1.138
 2864SOL    HW2 8617   3.414   4.825   1.028
 2865SOL     OW 8618   2.777   3.813   1.402
 2865SOL    HW1 8619   2.802   3.793   1.307
 2865SOL    HW2 8620   2.849   3.869   1.444
 2866SOL     OW 8621   2.842   4.840   1.719
 2866SOL    HW1 8622   2.743   4.846   1.729
 2866SOL    HW2 8623   2.865   4.760   1.663
 2867SOL     OW 8624   2.567   4.774   0.368
 2867SOL    HW1 8625   2.553   4.781   0.467
 2867SOL    HW2 8626   2.651   4.723   0.350
 2868SOL     OW 8627   2.272   4.537   1.251
 2868SOL    HW1 8628   2.358   4.549   1.301
 2868SOL    HW2 8629   2.230   4.450   1.278
 2869SOL     OW 8630   3.136   4.110   1.262
 2869SOL    HW1 8631   3.157   4.184   1.326
 2869SOL    HW2 8632   3.047   4.127   1.219
 2870SOL     OW 8633   2.229   4.824   0.501
 2870SOL    HW1 8634   2.222   4.907   0.445
 2870SOL    HW2 8635   2.233   4.744   0.441
 2871SOL     OW 8636   2.428   4.261   0.865
 2871SOL    HW1 8637   2.440   4.327   0.791
 2871SOL    HW2 8638   2.474   4.295   0.948
 2872SOL     OW 8639   3.114   5.072   0.388
 2872SOL    HW1 8640   3.164   5.149   0.428
 2872SOL    HW2 8641   3.019   5.074   0.420
 2873SOL     OW 8642   3.444   4.363   0.472
 2873SOL    HW1 8643   3.413   4.424   0.545
 2873SOL    HW2 8644   3.494   4.415   0.403
 2874SOL     OW 8645   2.264   4.475   1.598
 2874SOL    HW1 8646   2.332   4.530   1.551
 2874SOL    HW2 8647   2.304   4.387   1.625
 2875SOL     OW 8648   3.449   4.503   1.670
 2875SOL    HW1 8649   3.357   4.541   1.665
 2875SOL    HW2 8650   3.509   4.550   1.605
 2876SOL     OW 8651   2.875   3.829   1.770
 2876SOL    HW1 8652   2.881   3.914   1.718
 2876SOL    HW2 8653   2.907   3.753   1.713
 2877SOL     OW 8654   2.366   3.774   1.740
 2877SOL    HW1 8655   2.324   3.717   1.670
 2877SOL    HW2 8656   2.300   3.843   1.772
 2878SOL     OW 8657   2.435   4.594   1.029
 2878SOL    HW1 8658   2.479   4.683   1.020
 2878SOL    HW2 8659   2.372   4.594   1.106
 2879SOL     OW 8660   3.222   4.586   1.045
 2879SOL    HW1 8661   3.147   4.586   0.979
 2879SOL    HW2 8662   3.259   4.494   1.054
 2880SOL     OW 8663   3.071   4.249   0.275
 2880SOL    HW1 8664   3.084   4.165   0.329
 2880SOL    HW2 8665   3.042   4.323   0.335
 2881SOL     OW 8666   2.169   3.937   1.231
 2881SOL    HW1 8667   2.146   3.974   1.321
 2881SOL    HW2 8668   2.139   3.842   1.225
 2882SOL     OW 8669   1.899   5.034   1.282
 2882SOL    HW1 8670   1.952   4.985   1.350
 2882SOL    HW2 8671   1.921   5.132   1.287
 2883SOL     OW 8672   2.594   4.358   1.064
 2883SOL    HW1 8673   2.653   4.332   0.988
 2883SOL    HW2 8674   2.566   4.454   1.053
 2884SOL     OW 8675   3.590   4.659   1.854
 2884SOL    HW1 8676   3.544   4.652   1.765
 2884SOL    HW2 8677   3.528   4.703   1.920
 2885SOL     OW 8678   2.169   3.787   0.618
 2885SOL    HW1 8679   2.158   3.881   0.651
 2885SOL    HW2 8680   2.164   3.724   0.695
 2886SOL     OW 8681   3.484   4.091   0.374
 2886SOL    HW1 8682   3.486   4.015   0.438
 2886SOL    HW2 8683   3.436   4.168   0.414
 2887SOL     OW 8684   2.885   4.490   0.966
 2887SOL    HW1 8685   2.900   4.511   1.062
 2887SOL    HW2 8686   2.855   4.395   0.957
 2888SOL     OW 8687   3.721   5.242   1.605
 2888SOL    HW1 8688   3.735   5.269   1.510
 2888SOL    HW2 8689   3.804   5.264   1.658
 2889SOL     OW 8690   2.212   4.622   1.804
 2889SOL    HW1 8691   2.288   4.666   1.852
 2889SOL    HW2 8692   2.247   4.575   1.722
 2890SOL     OW 8693   3.402   3.998   0.125
 2890SOL    HW1 8694   3.341   3.923   0.148
 2890SOL    HW2 8695   3.424   4.050   0.208
 2891SOL     OW 8696   3.165   4.562   0.042
 2891SOL    HW1 8697   3.199   4.469   0.057
 2891SOL    HW2 8698   3.183   4.589  -0.053
 2892SOL     OW 8699   2.181   4.534   0.949
 2892SOL    HW1 8700   2.274   4.570   0.954
 2892SOL    HW2 8701   2.175   4.449   1.001
 2893SOL     OW 8702   2.201   4.233   1.006
 2893SOL    HW1 8703   2.149   4.150   0.989
 2893SOL    HW2 8704   2.278   4.238   0.942
 2894SOL     OW 8705   3.000   4.104   1.678
 2894SOL    HW1 8706   2.955   4.167   1.742
 2894SOL    HW2 8707   3.093   4.135   1.661
 2895SOL     OW 8708   3.022   3.931   1.477
 2895SOL    HW1 8709   3.022   3.995   1.554
 2895SOL    HW2 8710   3.050   3.979   1.394
 2896SOL     OW 8711   2.864   4.520   1.238
 2896SOL    HW1 8712   2.905   4.488   1.324
 2896SOL    HW2 8713   2.768   4.493   1.235
 2897SOL     OW 8714   1.902   4.268   1.114
 2897SOL    HW1 8715   1.987   4.235   1.073
 2897SOL    HW2 8716   1.915   4.283   1.212
 2898SOL     OW 8717   2.051   4.244   1.722
 2898SOL    HW1 8718   2.110   4.204   1.652
 2898SOL    HW2 8719   1.993   4.315   1.681
 2899SOL     OW 8720   3.231   4.674   1.660
 2899SOL    HW1 8721   3.270   4.763   1.680
 2899SOL    HW2 8722   3.241   4.654   1.563
 2900SOL     OW 8723   2.677   4.296   0.325
 2900SOL    HW1 8724   2.684   4.207   0.279
 2900SOL    HW2 8725   2.583   4.330   0.317
 2901SOL     OW 8726   3.519   4.328   1.206
 2901SOL    HW1 8727   3.481   4.259   1.268
 2901SOL    HW2 8728   3.601   4.292   1.162
 2902SOL     OW 8729   2.533   4.188   1.269
 2902SOL    HW1 8730   2.499   4.099   1.239
 2902SOL    HW2 8731   2.559   4.242   1.189
 2903SOL     OW 8732   2.335   4.224   0.191
 2903SOL    HW1 8733   2.396   4.304   0.195
 2903SOL    HW2 8734   2.240   4.255   0.198
 2904SOL     OW 8735   2.021   4.861   1.466
 2904SOL    HW1 8736   2.043   4.800   1.542
 2904SOL    HW2 8737   2.031   4.812   1.380
 2905SOL     OW 8738   3.209   4.783   1.234
 2905SOL    HW1 8739   3.233   4.720   1.160
 2905SOL    HW2 8740   3.119   4.823   1.216
 2906SOL     OW 8741   3.164   4.579   0.309
 2906SOL    HW1 8742   3.078   4.548   0.351
 2906SOL    HW2 8743   3.160   4.565   0.210
 2907SOL     OW 8744   1.945   4.982   1.022
 2907SOL    HW1 8745   1.940   4.981   1.122
 2907SOL    HW2 8746   1.862   4.941   0.984
 2908SOL     OW 8747   2.765   3.810   0.133
 2908SOL    HW1 8748   2.816   3.811   0.047
 2908SOL    HW2 8749   2.821   3.768   0.204
 2909SOL     OW 8750   3.588   3.859   0.523
 2909SOL    HW1 8751   3.661   3.842   0.456
 2909SOL    HW2 8752   3.557   3.772   0.561
 2910SOL     OW 8753   3.142   4.651   0.672
 2910SOL    HW1 8754   3.202   4.570   0.674
 2910SOL    HW2 8755   3.182   4.720   0.612
 2911SOL     OW 8756   2.692   4.997   1.422
 2911SOL    HW1 8757   2.687   5.030   1.517
 2911SOL    HW2 8758   2.606   5.016   1.376
 2912SOL     OW 8759   3.703   3.899   0.963
 2912SOL    HW1 8760   3.742   3.814   0.927
 2912SOL    HW2 8761   3.605   3.901   0.944
 2913SOL     OW 8762   2.125   4.050   0.720
 2913SOL    HW1 8763   2.046   4.101   0.686
 2913SOL    HW2 8764   2.116   4.035   0.818
 2914SOL     OW 8765   2.684   4.726   1.372
 2914SOL    HW1 8766   2.724   4.725   1.280
 2914SOL    HW2 8767   2.694   4.818   1.412
 2915SOL     OW 8768   2.778   4.634   0.291
 2915SOL    HW1 8769   2.841   4.672   0.223
 2915SOL    HW2 8770   2.818   4.551   0.330
 2916SOL     OW 8771   2.234   5.012   1.490
 2916SOL    HW1 8772   2.221   5.105   1.456
 2916SOL    HW2 8773   2.150   4.960   1.477
 2917SOL     OW 8774   3.476   5.016   1.289
 2917SOL    HW1 8775   3.536   5.019   1.369
 2917SOL    HW2 8776   3.401   5.080   1.302
 2918SOL     OW 8777   2.901   4.822   0.696
 2918SOL    HW1 8778   2.831   4.775   0.750
 2918SOL    HW2 8779   2.960   4.754   0.653
 2919SOL     OW 8780   2.876   3.960   0.971
 2919SOL    HW1 8781   2.868   3.924   0.878
 2919SOL    HW2 8782   2.874   3.884   1.036
 2920SOL     OW 8783   3.571   4.109   1.381
 2920SOL    HW1 8784   3.644   4.178   1.385
 2920SOL    HW2 8785   3.599   4.034   1.322
 2921SOL     OW 8786   1.967   4.737   1.726
 2921SOL    HW1 8787   1.890   4.704   1.780
 2921SOL    HW2 8788   2.052   4.707   1.768
 2922SOL     OW 8789   2.534   3.927   1.489
 2922SOL    HW1 8790   2.624   3.911   1.449
 2922SOL    HW2 8791   2.542   3.932   1.588
 2923SOL     OW 8792   1.937   4.069   0.033
 2923SOL    HW1 8793   1.845   4.041   0.004
 2923SOL    HW2 8794   1.968   4.146  -0.023
 2924SOL     OW 8795   3.302   4.580   1.398
 2924SOL    HW1 8796   3.245   4.632   1.335
 2924SOL    HW2 8797   3.398   4.592   1.374
 2925SOL     OW 8798   1.934   3.890   0.318
 2925SOL    HW1 8799   1.917   3.973   0.264
 2925SOL    HW2 8800   2.024   3.853   0.296
 2926SOL     OW 8801   2.475   4.566   1.431
 2926SOL    HW1 8802   2.531   4.647   1.414
 2926SOL    HW2 8803   2.534   4.486   1.434
 2927SOL     OW 8804   2.578   4.289   1.708
 2927SOL    HW1 8805   2.597   4.354   1.782
 2927SOL    HW2 8806   2.638   4.209   1.717
 2928SOL     OW 8807   3.312   4.944   1.633
 2928SOL    HW1 8808   3.303   4.934   1.732
 2928SOL    HW2 8809   3.408   4.937   1.607
 2929SOL     OW 8810   3.536   4.607   1.254
 2929SOL    HW1 8811   3.509   4.518   1.217
 2929SOL    HW2 8812   3.537   4.675   1.181
 2930SOL     OW 8813   3.087   4.049   0.449
 2930SOL    HW1 8814   3.152   3.975   0.438
 2930SOL    HW2 8815   3.107   4.099   0.533
 2931SOL     OW 8816   2.456   4.469   0.652
 2931SOL    HW1 8817   2.506   4.554   0.633
 2931SOL    HW2 8818   2.368   4.471   0.604
 2932SOL     OW 8819   3.639   4.066   1.642
 2932SOL    HW1 8820   3.622   4.097   1.548
 2932SOL    HW2 8821   3.555   4.029   1.680
 2933SOL     OW 8822   3.592   4.658   1.517
 2933SOL    HW1 8823   3.630   4.749   1.532
 2933SOL    HW2 8824   3.584   4.641   1.418
 2934SOL     OW 8825   2.721   4.680   0.861
 2934SOL    HW1 8826   2.775   4.611   0.909
 2934SOL    HW2 8827   2.689   4.749   0.927
 2935SOL     OW 8828   2.945   4.708   0.087
 2935SOL    HW1 8829   2.922   4.761   0.005
 2935SOL    HW2 8830   3.026   4.652   0.068
 2936SOL     OW 8831   2.083   5.038   1.844
 2936SOL    HW1 8832   2.018   4.965   1.823
 2936SOL    HW2 8833   2.087   5.052   1.942
 2937SOL     OW 8834   1.941   4.964   0.653
 2937SOL    HW1 8835   1.940   4.917   0.741
 2937SOL    HW2 8836   2.023   4.936   0.602
 2938SOL     OW 8837   2.534   5.115   1.624
 2938SOL    HW1 8838   2.456   5.065   1.662
 2938SOL    HW2 8839   2.531   5.210   1.655
 2939SOL     OW 8840   3.686   3.916   1.227
 2939SOL    HW1 8841   3.682   3.826   1.271
 2939SOL    HW2 8842   3.689   3.905   1.128
 2940SOL     OW 8843   2.290   4.148   0.520
 2940SOL    HW1 8844   2.320   4.076   0.458
 2940SOL    HW2 8845   2.251   4.108   0.603
 2941SOL     OW 8846   3.567   5.211   1.104
 2941SOL    HW1 8847   3.474   5.186   1.077
 2941SOL    HW2 8848   3.593   5.161   1.186
 2942SOL     OW 8849   2.179   4.271   1.280
 2942SOL    HW1 8850   2.217   4.212   1.352
 2942SOL    HW2 8851   2.219   4.245   1.192
 2943SOL     OW 8852   3.286   3.938   1.112
 2943SOL    HW1 8853   3.338   3.873   1.167
 2943SOL    HW2 8854   3.237   4.001   1.173
 2944SOL     OW 8855   2.863   3.758   1.154
 2944SOL    HW1 8856   2.800   3.686   1.123
 2944SOL    HW2 8857   2.956   3.722   1.154
 2945SOL     OW 8858   2.632   5.054   0.301
 2945SOL    HW1 8859   2.586   4.967   0.318
 2945SOL    HW2 8860   2.723   5.051   0.342
 2946SOL     OW 8861   3.214   3.776   0.168
 2946SOL    HW1 8862   3.249   3.735   0.084
 2946SOL    HW2 8863   3.124   3.738   0.188
 2947SOL     OW 8864   3.162   4.177   0.691
 2947SOL    HW1 8865   3.103   4.257   0.695
 2947SOL    HW2 8866   3.177   4.142   0.784
 2948SOL     OW 8867   3.455   3.945   0.882
 2948SOL    HW1 8868   3.371   3.944   0.936
 2948SOL    HW2 8869   3.457   4.028   0.826
 2949SOL     OW 8870   1.901   4.801   0.300
 2949SOL    HW1 8871   2.000   4.790   0.291
 2949SOL    HW2 8872   1.861   4.715   0.332
 2950SOL     OW 8873   2.092   4.352   1.975
 2950SOL    HW1 8874   1.999   4.350   2.012
 2950SOL    HW2 8875   2.093   4.313   1.883
 2951SOL     OW 8876   2.087   3.999   2.858
 2951SOL    HW1 8877   2.122   3.982   2.950
 2951SOL    HW2 8878   1.999   3.954   2.846
 2952SOL     OW 8879   1.881   4.092   2.509
 2952SOL    HW1 8880   1.799   4.135   2.548
 2952SOL    HW2 8881   1.853   4.019   2.446
 2953SOL     OW 8882   2.431   4.999   3.027
 2953SOL    HW1 8883   2.338   4.992   2.990
 2953SOL    HW2 8884   2.442   5.088   3.071
 2954SOL     OW 8885   3.417   5.235   2.565
 2954SOL    HW1 8886   3.360   5.219   2.646
 2954SOL    HW2 8887   3.358   5.245   2.485
 2955SOL     OW 8888   2.997   4.427   2.579
 2955SOL    HW1 8889   3.054   4.505   2.554
 2955SOL    HW2 8890   2.937   4.453   2.655
 2956SOL     OW 8891   3.617   4.331   2.093
 2956SOL    HW1 8892   3.605   4.318   1.994
 2956SOL    HW2 8893   3.587   4.250   2.142
 2957SOL     OW 8894   2.630   4.868   2.885
 2957SOL    HW1 8895   2.552   4.885   2.945
 2957SOL    HW2 8896   2.664   4.955   2.849
 2958SOL     OW 8897   2.712   4.522   3.685
 2958SOL    HW1 8898   2.708   4.598   3.750
 2958SOL    HW2 8899   2.734   4.558   3.594
 2959SOL     OW 8900   2.547   4.736   2.527
 2959SOL    HW1 8901   2.616   4.720   2.597
 2959SOL    HW2 8902   2.474   4.793   2.565
 2960SOL     OW 8903   2.548   4.885   3.665
 2960SOL    HW1 8904   2.608   4.964   3.679
 2960SOL    HW2 8905   2.462   4.916   3.624
 2961SOL     OW 8906   2.197   5.159   2.923
 2961SOL    HW1 8907   2.119   5.128   2.870
 2961SOL    HW2 8908   2.255   5.217   2.866
 2962SOL     OW 8909   2.300   4.116   3.361
 2962SOL    HW1 8910   2.382   4.060   3.370
 2962SOL    HW2 8911   2.219   4.058   3.365
 2963SOL     OW 8912   3.465   4.171   2.599
 2963SOL    HW1 8913   3.391   4.217   2.549
 2963SOL    HW2 8914   3.516   4.239   2.652
 2964SOL     OW 8915   2.989   5.065   3.552
 2964SOL    HW1 8916   3.036   5.065   3.640
 2964SOL    HW2 8917   2.941   4.978   3.541
 2965SOL     OW 8918   2.102   4.815   2.748
 2965SOL    HW1 8919   2.116   4.731   2.800
 2965SOL    HW2 8920   2.047   4.879   2.803
 2966SOL     OW 8921   2.468   4.688   1.985
 2966SOL    HW1 8922   2.475   4.772   1.931
 2966SOL    HW2 8923   2.514   4.701   2.073
 2967SOL     OW 8924   3.456   3.838   3.342
 2967SOL    HW1 8925   3.438   3.905   3.270
 2967SOL    HW2 8926   3.453   3.884   3.431
 2968SOL     OW 8927   1.984   4.367   2.425
 2968SOL    HW1 8928   1.939   4.279   2.442
 2968SOL    HW2 8929   1.983   4.421   2.509
 2969SOL     OW 8930   3.551   4.646   2.474
 2969SOL    HW1 8931   3.646   4.617   2.482
 2969SOL    HW2 8932   3.543   4.711   2.399
 2970SOL     OW 8933   3.503   4.832   2.294
 2970SOL    HW1 8934   3.589   4.834   2.242
 2970SOL    HW2 8935   3.517   4.879   2.382
 2971SOL     OW 8936   1.975   4.461   3.459
 2971SOL    HW1 8937   2.063   4.448   3.504
 2971SOL    HW2 8938   1.962   4.558   3.437
 2972SOL     OW 8939   2.475   5.089   2.588
 2972SOL    HW1 8940   2.426   5.002   2.597
 2972SOL    HW2 8941   2.452   5.132   2.501
 2973SOL     OW 8942   3.155   4.952   3.285
 2973SOL    HW1 8943   3.192   4.879   3.227
 2973SOL    HW2 8944   3.207   4.957   3.370
 2974SOL     OW 8945   2.671   3.728   2.364
 2974SOL    HW1 8946   2.711   3.819   2.355
 2974SOL    HW2 8947   2.571   3.736   2.370
 2975SOL     OW 8948   2.059   4.700   3.126
 2975SOL    HW1 8949   2.148   4.655   3.112
 2975SOL    HW2 8950   1.986   4.635   3.107
 2976SOL     OW 8951   3.387   4.723   2.052
 2976SOL    HW1 8952   3.324   4.647   2.065
 2976SOL    HW2 8953   3.435   4.741   2.138
 2977SOL     OW 8954   2.179   3.975   3.663
 2977SOL    HW1 8955   2.250   4.046   3.669
 2977SOL    HW2 8956   2.091   4.014   3.691
 2978SOL     OW 8957   3.328   5.141   2.815
 2978SOL    HW1 8958   3.269   5.147   2.895
 2978SOL    HW2 8959   3.313   5.053   2.769
 2979SOL     OW 8960   2.460   4.453   2.132
 2979SOL    HW1 8961   2.484   4.522   2.064
 2979SOL    HW2 8962   2.382   4.486   2.186
 2980SOL     OW 8963   3.143   4.069   2.806
 2980SOL    HW1 8964   3.057   4.019   2.793
 2980SOL    HW2 8965   3.205   4.015   2.862
 2981SOL     OW 8966   2.669   4.329   3.327
 2981SOL    HW1 8967   2.622   4.326   3.416
 2981SOL    HW2 8968   2.618   4.274   3.261
 2982SOL     OW 8969   3.256   4.193   3.536
 2982SOL    HW1 8970   3.236   4.236   3.624
 2982SOL    HW2 8971   3.334   4.131   3.545
 2983SOL     OW 8972   2.835   4.614   3.434
 2983SOL    HW1 8973   2.881   4.530   3.405
 2983SOL    HW2 8974   2.779   4.648   3.359
 2984SOL     OW 8975   2.853   4.134   3.104
 2984SOL    HW1 8976   2.776   4.168   3.158
 2984SOL    HW2 8977   2.819   4.083   3.025
 2985SOL     OW 8978   2.903   4.425   2.291
 2985SOL    HW1 8979   2.929   4.421   2.387
 2985SOL    HW2 8980   2.818   4.374   2.277
 2986SOL     OW 8981   1.938   4.535   2.651
 2986SOL    HW1 8982   2.037   4.523   2.660
 2986SOL    HW2 8983   1.914   4.630   2.672
 2987SOL     OW 8984   2.727   4.072   2.057
 2987SOL    HW1 8985   2.786   4.135   2.008
 2987SOL    HW2 8986   2.746   3.978   2.028
 2988SOL     OW 8987   3.581   4.309   3.693
 2988SOL    HW1 8988   3.555   4.398   3.657
 2988SOL    HW2 8989   3.579   4.241   3.620
 2989SOL     OW 8990   3.224   4.868   2.407
 2989SOL    HW1 8991   3.307   4.839   2.359
 2989SOL    HW2 8992   3.175   4.935   2.351
 2990SOL     OW 8993   2.412   3.920   2.747
 2990SOL    HW1 8994   2.407   3.915   2.847
 2990SOL    HW2 8995   2.414   4.016   2.718
 2991SOL     OW 8996   3.657   4.790   2.735
 2991SOL    HW1 8997   3.595   4.775   2.659
 2991SOL    HW2 8998   3.605   4.801   2.820
 2992SOL     OW 8999   2.183   4.667   2.104
 2992SOL    HW1 9000   2.265   4.706   2.062
 2992SOL    HW2 9001   2.156   4.585   2.055
 2993SOL     OW 9002   3.320   4.459   2.590
 2993SOL    HW1 9003   3.315   4.394   2.665
 2993SOL    HW2 9004   3.400   4.518   2.603
 2994SOL     OW 9005   2.323   4.990   3.589
 2994SOL    HW1 9006   2.273   4.991   3.503
 2994SOL    HW2 9007   2.260   4.972   3.665
 2995SOL     OW 9008   2.064   4.009   3.360
 2995SOL    HW1 9009   1.984   4.069   3.347
 2995SOL    HW2 9010   2.054   3.960   3.446
 2996SOL     OW 9011   3.494   5.101   1.943
 2996SOL    HW1 9012   3.462   5.195   1.933
 2996SOL    HW2 9013   3.418   5.038   1.931
 2997SOL     OW 9014   3.262   3.831   2.288
 2997SOL    HW1 9015   3.238   3.794   2.198
 2997SOL    HW2 9016   3.361   3.847   2.292
 2998SOL     OW 9017   2.244   4.424   2.342
 2998SOL    HW1 9018   2.289   4.334   2.339
 2998SOL    HW2 9019   2.150   4.413   2.375
 2999SOL     OW 9020   3.409   3.946   3.591
 2999SOL    HW1 9021   3.404   3.983   3.683
 2999SOL    HW2 9022   3.337   3.877   3.579
 3000SOL     OW 9023   2.476   3.846   1.979
 3000SOL    HW1 9024   2.574   3.824   1.986
 3000SOL    HW2 9025   2.445   3.829   1.886
 3001SOL     OW 9026   2.643   3.988   3.611
 3001SOL    HW1 9027   2.710   3.927   3.654
 3001SOL    HW2 9028   2.570   4.007   3.676
 3002SOL     OW 9029   3.213   4.314   3.295
 3002SOL    HW1 9030   3.241   4.271   3.380
 3002SOL    HW2 9031   3.238   4.410   3.296
 3003SOL     OW 9032   2.784   4.227   2.761
 3003SOL    HW1 9033   2.759   4.218   2.665
 3003SOL    HW2 9034   2.832   4.145   2.792
 3004SOL     OW 9035   2.401   3.788   2.374
 3004SOL    HW1 9036   2.320   3.789   2.432
 3004SOL    HW2 9037   2.404   3.871   2.319
 3005SOL     OW 9038   3.296   4.912   1.903
 3005SOL    HW1 9039   3.328   4.836   1.960
 3005SOL    HW2 9040   3.204   4.939   1.933
 3006SOL     OW 9041   2.159   3.759   2.033
 3006SOL    HW1 9042   2.208   3.843   2.012
 3006SOL    HW2 9043   2.221   3.694   2.078
 3007SOL     OW 9044   2.797   3.960   2.342
 3007SOL    HW1 9045   2.749   4.001   2.264
 3007SOL    HW2 9046   2.896   3.958   2.323
 3008SOL     OW 9047   2.938   4.407   3.326
 3008SOL    HW1 9048   2.858   4.346   3.329
 3008SOL    HW2 9049   3.019   4.354   3.302
 3009SOL     OW 9050   3.089   5.294   2.655
 3009SOL    HW1 9051   3.110   5.368   2.590
 3009SOL    HW2 9052   3.157   5.294   2.728
 3010SOL     OW 9053   2.321   4.876   2.603
 3010SOL    HW1 9054   2.250   4.849   2.668
 3010SOL    HW2 9055   2.295   4.848   2.510
 3011SOL     OW 9056   2.894   4.273   1.878
 3011SOL    HW1 9057   2.853   4.355   1.839
 3011SOL    HW2 9058   2.958   4.299   1.951
 3012SOL     OW 9059   1.940   4.280   3.248
 3012SOL    HW1 9060   2.032   4.279   3.207
 3012SOL    HW2 9061   1.934   4.354   3.315
 3013SOL     OW 9062   2.423   3.946   3.009
 3013SOL    HW1 9063   2.461   3.862   3.046
 3013SOL    HW2 9064   2.335   3.965   3.053
 3014SOL     OW 9065   2.728   4.178   2.504
 3014SOL    HW1 9066   2.696   4.250   2.442
 3014SOL    HW2 9067   2.752   4.097   2.451
 3015SOL     OW 9068   2.879   3.763   2.615
 3015SOL    HW1 9069   2.807   3.768   2.546
 3015SOL    HW2 9070   2.855   3.694   2.684
 3016SOL     OW 9071   3.291   4.897   2.729
 3016SOL    HW1 9072   3.236   4.813   2.722
 3016SOL    HW2 9073   3.317   4.926   2.637
 3017SOL     OW 9074   3.328   4.314   2.854
 3017SOL    HW1 9075   3.298   4.219   2.861
 3017SOL    HW2 9076   3.401   4.330   2.920
 3018SOL     OW 9077   3.719   4.557   2.239
 3018SOL    HW1 9078   3.761   4.493   2.303
 3018SOL    HW2 9079   3.681   4.506   2.161
 3019SOL     OW 9080   3.526   5.004   2.519
 3019SOL    HW1 9081   3.625   5.012   2.533
 3019SOL    HW2 9082   3.481   5.088   2.550
 3020SOL     OW 9083   3.252   4.299   1.940
 3020SOL    HW1 9084   3.198   4.278   2.021
 3020SOL    HW2 9085   3.343   4.258   1.949
 3021SOL     OW 9086   2.389   3.980   2.190
 3021SOL    HW1 9087   2.416   3.921   2.115
 3021SOL    HW2 9088   2.389   4.075   2.159
 3022SOL     OW 9089   3.616   4.947   3.450
 3022SOL    HW1 9090   3.707   4.908   3.437
 3022SOL    HW2 9091   3.624   5.043   3.474
 3023SOL     OW 9092   2.926   5.071   3.202
 3023SOL    HW1 9093   2.846   5.048   3.257
 3023SOL    HW2 9094   3.009   5.045   3.251
 3024SOL     OW 9095   2.973   4.919   2.962
 3024SOL    HW1 9096   2.933   4.963   3.043
 3024SOL    HW2 9097   2.932   4.956   2.879
 3025SOL     OW 9098   3.500   4.823   2.941
 3025SOL    HW1 9099   3.505   4.904   3.000
 3025SOL    HW2 9100   3.414   4.825   2.890
 3026SOL     OW 9101   2.777   3.813   3.264
 3026SOL    HW1 9102   2.802   3.793   3.169
 3026SOL    HW2 9103   2.849   3.869   3.306
 3027SOL     OW 9104   2.842   4.840   3.581
 3027SOL    HW1 9105   2.743   4.846   3.591
 3027SOL    HW2 9106   2.865   4.760   3.525
 3028SOL     OW 9107   2.567   4.774   2.230
 3028SOL    HW1 9108   2.553   4.781   2.329
 3028SOL    HW2 9109   2.651   4.723   2.212
 3029SOL     OW 9110   2.272   4.537   3.113
 3029SOL    HW1 9111   2.358   4.549   3.163
 3029SOL    HW2 9112   2.230   4.450   3.140
 3030SOL     OW 9113   3.136   4.110   3.124
 3030SOL    HW1 9114   3.157   4.184   3.188
 3030SOL    HW2 9115   3.047   4.127   3.081
 3031SOL     OW 9116   2.229   4.824   2.363
 3031SOL    HW1 9117   2.222   4.907   2.307
 3031SOL    HW2 9118   2.233   4.744   2.303
 3032SOL     OW 9119   2.428   4.261   2.727
 3032SOL    HW1 9120   2.440   4.327   2.653
 3032SOL    HW2 9121   2.474   4.295   2.810
 3033SOL     OW 9122   3.114   5.072   2.250
 3033SOL    HW1 9123   3.164   5.149   2.290
 3033SOL    HW2 9124   3.019   5.074   2.282
 3034SOL     OW 9125   3.444   4.363   2.334
 3034SOL    HW1 9126   3.413   4.424   2.407
 3034SOL    HW2 9127   3.494   4.415   2.265
 3035SOL     OW 9128   2.264   4.475   3.460
 3035SOL    HW1 9129   2.332   4.530   3.413
 3035SOL    HW2 9130   2.304   4.387   3.487
 3036SOL     OW 9131   3.449   4.503   3.532
 3036SOL    HW1 9132   3.357   4.541   3.527
 3036SOL    HW2 9133   3.509   4.550   3.467
 3037SOL     OW 9134   2.875   3.829   3.632
 3037SOL    HW1 9135   2.881   3.914   3.580
 3037SOL    HW2 9136   2.907   3.753   3.575
 3038SOL     OW 9137   2.366   3.774   3.602
 3038SOL    HW1 9138   2.324   3.717   3.532
 3038SOL    HW2 9139   2.300   3.843   3.634
 3039SOL     OW 9140   2.435   4.594   2.891
 3039SOL    HW1 9141   2.479   4.683   2.882
 3039SOL    HW2 9142   2.372   4.594   2.968
 3040SOL     OW 9143   3.222   4.586   2.907
 3040SOL    HW1 9144   3.147   4.586   2.841
 3040SOL    HW2 9145   3.259   4.494   2.916
 3041SOL     OW 9146   3.071   4.249   2.137
 3041SOL    HW1 9147   3.084   4.165   2.191
 3041SOL    HW2 9148   3.042   4.323   2.197
 3042SOL     OW 9149   2.169   3.937   3.093
 3042SOL    HW1 9150   2.146   3.974   3.183
 3042SOL    HW2 9151   2.139   3.842   3.087
 3043SOL     OW 9152   1.899   5.034   3.144
 3043SOL    HW1 9153   1.952   4.985   3.212
 3043SOL    HW2 9154   1.921   5.132   3.149
 3044SOL     OW 9155   2.594   4.358   2.926
 3044SOL    HW1 9156   2.653   4.332   2.850
 3044SOL    HW2 9157   2.566   4.454   2.915
 3045SOL     OW 9158   3.590   4.659   3.716
 3045SOL    HW1 9159   3.544   4.652   3.627
 3045SOL    HW2 9160   3.528   4.703   3.782
 3046SOL     OW 9161   2.169   3.787   2.480
 3046SOL    HW1 9162   2.158   3.881   2.513
 3046SOL    HW2 9163   2.164   3.724   2.557
 3047SOL     OW 9164   3.484   4.091   2.236
 3047SOL    HW1 9165   3.486   4.015   2.300
 3047SOL    HW2 9166   3.436   4.168   2.276
 3048SOL     OW 9167   2.885   4.490   2.828
 3048SOL    HW1 9168   2.900   4.511   2.924
 3048SOL    HW2 9169   2.855   4.395   2.819
 3049SOL     OW 9170   3.721   5.242   3.467
 3049SOL    HW1 9171   3.735   5.269   3.372
 3049SOL    HW2 9172   3.804   5.264   3.520
 3050SOL     OW 9173   2.212   4.622   3.666
 3050SOL    HW1 9174   2.288   4.666   3.714
 3050SOL    HW2 9175   2.247   4.575   3.584
 3051SOL     OW 9176   3.402   3.998   1.987
 3051SOL    HW1 9177   3.341   3.923   2.010
 3051SOL    HW2 9178   3.424   4.050   2.070
 3052SOL     OW 9179   3.165   4.562   1.904
 3052SOL    HW1 9180   3.199   4.469   1.919
 3052SOL    HW2 9181   3.183   4.589   1.809
 3053SOL     OW 9182   2.181   4.534   2.811
 3053SOL    HW1 9183   2.274   4.570   2.816
 3053SOL    HW2 9184   2.175   4.449   2.863
 3054SOL     OW 9185   2.201   4.233   2.868
 3054SOL    HW1 9186   2.149   4.150   2.851
 3054SOL    HW2 9187   2.278   4.238   2.804
 3055SOL     OW 9188   3.000   4.104   3.540
 3055SOL    HW1 9189   2.955   4.167   3.604
 3055SOL    HW2 9190   3.093   4.135   3.523
 3056SOL     OW 9191   3.022   3.931   3.339
 3056SOL    HW1 9192   3.022   3.995   3.416
 3056SOL    HW2 9193   3.050   3.979   3.256
 3057SOL     OW 9194   1.870   5.050   2.062
 3057SOL    HW1 9195   1.777   5.071   2.031
 3057SOL    HW2 9196   1.880   4.951   2.075
 3058SOL     OW 9197   2.864   4.520   3.100
 3058SOL    HW1 9198   2.905   4.488   3.186
 3058SOL    HW2 9199   2.768   4.493   3.097
 3059SOL     OW 9200   1.902   4.268   2.976
 3059SOL    HW1 9201   1.987   4.235   2.935
 3059SOL    HW2 9202   1.915   4.283   3.074
 3060SOL     OW 9203   2.051   4.244   3.584
 3060SOL    HW1 9204   2.110   4.204   3.514
 3060SOL    HW2 9205   1.993   4.315   3.543
 3061SOL     OW 9206   3.231   4.674   3.522
 3061SOL    HW1 9207   3.270   4.763   3.542
 3061SOL    HW2 9208   3.241   4.654   3.425
 3062SOL     OW 9209   2.677   4.296   2.187
 3062SOL    HW1 9210   2.684   4.207   2.141
 3062SOL    HW2 9211   2.583   4.330   2.179
 3063SOL     OW 9212   3.519   4.328   3.068
 3063SOL    HW1 9213   3.481   4.259   3.130
 3063SOL    HW2 9214   3.601   4.292   3.024
 3064SOL     OW 9215   2.533   4.188   3.131
 3064SOL    HW1 9216   2.499   4.099   3.101
 3064SOL    HW2 9217   2.559   4.242   3.051
 3065SOL     OW 9218   2.335   4.224   2.053
 3065SOL    HW1 9219   2.396   4.304   2.057
 3065SOL    HW2 9220   2.240   4.255   2.060
 3066SOL     OW 9221   2.021   4.861   3.328
 3066SOL    HW1 9222   2.043   4.800   3.404
 3066SOL    HW2 9223   2.031   4.812   3.242
 3067SOL     OW 9224   3.209   4.783   3.096
 3067SOL    HW1 9225   3.233   4.720   3.022
 3067SOL    HW2 9226   3.119   4.823   3.078
 3068SOL     OW 9227   3.164   4.579   2.171
 3068SOL    HW1 9228   3.078   4.548   2.213
 3068SOL    HW2 9229   3.160   4.565   2.072
 3069SOL     OW 9230   1.945   4.982   2.884
 3069SOL    HW1 9231   1.940   4.981   2.984
 3069SOL    HW2 9232   1.862   4.941   2.846
 3070SOL     OW 9233   3.588   3.859   2.385
 3070SOL    HW1 9234   3.661   3.842   2.318
 3070SOL    HW2 9235   3.557   3.772   2.423
 3071SOL     OW 9236   3.142   4.651   2.534
 3071SOL    HW1 9237   3.202   4.570   2.536
 3071SOL    HW2 9238   3.182   4.720   2.474
 3072SOL     OW 9239   2.692   4.997   3.284
 3072SOL    HW1 9240   2.687   5.030   3.379
 3072SOL    HW2 9241   2.606   5.016   3.238
 3073SOL     OW 9242   3.703   3.899   2.825
 3073SOL    HW1 9243   3.742   3.814   2.789
 3073SOL    HW2 9244   3.605   3.901   2.806
 3074SOL     OW 9245   2.125   4.050   2.582
 3074SOL    HW1 9246   2.046   4.101   2.548
 3074SOL    HW2 9247   2.116   4.035   2.680
 3075SOL     OW 9248   2.684   4.726   3.234
 3075SOL    HW1 9249   2.724   4.725   3.142
 3075SOL    HW2 9250   2.694   4.818   3.274
 3076SOL     OW 9251   2.778   4.634   2.153
 3076SOL    HW1 9252   2.841   4.672   2.085
 3076SOL    HW2 9253   2.818   4.551   2.192
 3077SOL     OW 9254   2.234   5.012   3.352
 3077SOL    HW1 9255   2.221   5.105   3.318
 3077SOL    HW2 9256   2.150   4.960   3.339
 3078SOL     OW 9257   3.476   5.016   3.151
 3078SOL    HW1 9258   3.536   5.019   3.231
 3078SOL    HW2 9259   3.401   5.080   3.164
 3079SOL     OW 9260   2.901   4.822   2.558
 3079SOL    HW1 9261   2.831   4.775   2.612
 3079SOL    HW2 9262   2.960   4.754   2.515
 3080SOL     OW 9263   2.876   3.960   2.833
 3080SOL    HW1 9264   2.868   3.924   2.740
 3080SOL    HW2 9265   2.874   3.884   2.898
 3081SOL     OW 9266   3.571   4.109   3.243
 3081SOL    HW1 9267   3.644   4.178   3.247
 3081SOL    HW2 9268   3.599   4.034   3.184
 3082SOL     OW 9269   1.967   4.737   3.588
 3082SOL    HW1 9270   1.890   4.704   3.642
 3082SOL    HW2 9271   2.052   4.707   3.630
 3083SOL     OW 9272   2.534   3.927   3.351
 3083SOL    HW1 9273   2.624   3.911   3.311
 3083SOL    HW2 9274   2.542   3.932   3.450
 3084SOL     OW 9275   1.937   4.069   1.895
 3084SOL    HW1 9276   1.845   4.041   1.866
 3084SOL    HW2 9277   1.968   4.146   1.839
 3085SOL     OW 9278   3.302   4.580   3.260
 3085SOL    HW1 9279   3.245   4.632   3.197
 3085SOL    HW2 9280   3.398   4.592   3.236
 3086SOL     OW 9281   1.934   3.890   2.180
 3086SOL    HW1 9282   1.917   3.973   2.126
 3086SOL    HW2 9283   2.024   3.853   2.158
 3087SOL     OW 9284   2.475   4.566   3.293
 3087SOL    HW1 9285   2.531   4.647   3.276
 3087SOL    HW2 9286   2.534   4.486   3.296
 3088SOL     OW 9287   2.578   4.289   3.570
 3088SOL    HW1 9288   2.597   4.354   3.644
 3088SOL    HW2 9289   2.638   4.209   3.579
 3089SOL     OW 9290   3.312   4.944   3.495
 3089SOL    HW1 9291   3.303   4.934   3.594
 3089SOL    HW2 9292   3.408   4.937   3.469
 3090SOL     OW 9293   3.536   4.607   3.116
 3090SOL    HW1 9294   3.509   4.518   3.079
 3090SOL    HW2 9295   3.537   4.675   3.043
 3091SOL     OW 9296   3.087   4.049   2.311
 3091SOL    HW1 9297   3.152   3.975   2.300
 3091SOL    HW2 9298   3.107   4.099   2.395
 3092SOL     OW 9299   2.456   4.469   2.514
 3092SOL    HW1 9300   2.506   4.554   2.495
 3092SOL    HW2 9301   2.368   4.471   2.466
 3093SOL     OW 9302   3.639   4.066   3.504
 3093SOL    HW1 9303   3.622   4.097   3.410
 3093SOL    HW2 9304   3.555   4.029   3.542
 3094SOL     OW 9305   3.592   4.658   3.379
 3094SOL    HW1 9306   3.630   4.749   3.394
 3094SOL    HW2 9307   3.584   4.641   3.280
 3095SOL     OW 9308   2.721   5.098   1.878
 3095SOL    HW1 9309   2.675   5.113   1.966
 3095SOL    HW2 9310   2.765   5.183   1.848
 3096SOL     OW 9311   2.721   4.680   2.723
 3096SOL    HW1 9312   2.775   4.611   2.771
 3096SOL    HW2 9313   2.689   4.749   2.789
 3097SOL     OW 9314   2.945   4.708   1.949
 3097SOL    HW1 9315   2.922   4.761   1.867
 3097SOL    HW2 9316   3.026   4.652   1.930
 3098SOL     OW 9317   2.083   5.038   3.706
 3098SOL    HW1 9318   2.018   4.965   3.685
 3098SOL    HW2 9319   2.087   5.052   3.804
 3099SOL     OW 9320   1.941   4.964   2.515
 3099SOL    HW1 9321   1.940   4.917   2.603
 3099SOL    HW2 9322   2.023   4.936   2.464
 3100SOL     OW 9323   2.534   5.115   3.486
 3100SOL    HW1 9324   2.456   5.065   3.524
 3100SOL    HW2 9325   2.531   5.210   3.517
 3101SOL     OW 9326   3.686   3.916   3.089
 3101SOL    HW1 9327   3.682   3.826   3.133
 3101SOL    HW2 9328   3.689   3.905   2.990
 3102SOL     OW 9329   2.290   4.148   2.382
 3102SOL    HW1 9330   2.320   4.076   2.320
 3102SOL    HW2 9331   2.251   4.108   2.465
 3103SOL     OW 9332   3.567   5.211   2.966
 3103SOL    HW1 9333   3.474   5.186   2.939
 3103SOL    HW2 9334   3.593   5.161   3.048
 3104SOL     OW 9335   2.179   4.271   3.142
 3104SOL    HW1 9336   2.217   4.212   3.214
 3104SOL    HW2 9337   2.219   4.245   3.054
 3105SOL     OW 9338   3.286   3.938   2.974
 3105SOL    HW1 9339   3.338   3.873   3.029
 3105SOL    HW2 9340   3.237   4.001   3.035
 3106SOL     OW 9341   2.863   3.758   3.016
 3106SOL    HW1 9342   2.800   3.686   2.985
 3106SOL    HW2 9343   2.956   3.722   3.016
 3107SOL     OW 9344   2.632   5.054   2.163
 3107SOL    HW1 9345   2.586   4.967   2.180
 3107SOL    HW2 9346   2.723   5.051   2.204
 3108SOL     OW 9347   3.214   3.776   2.030
 3108SOL    HW1 9348   3.249   3.735   1.946
 3108SOL    HW2 9349   3.124   3.738   2.050
 3109SOL     OW 9350   3.162   4.177   2.553
 3109SOL    HW1 9351   3.103   4.257   2.557
 3109SOL    HW2 9352   3.177   4.142   2.646
 3110SOL     OW 9353   3.455   3.945   2.744
 3110SOL    HW1 9354   3.371   3.944   2.798
 3110SOL    HW2 9355   3.457   4.028   2.688
 3111SOL     OW 9356   1.901   4.801   2.162
 3111SOL    HW1 9357   2.000   4.790   2.153
 3111SOL    HW2 9358   1.861   4.715   2.194
 3112SOL     OW 9359   2.092   4.352   3.837
 3112SOL    HW1 9360   1.999   4.350   3.874
 3112SOL    HW2 9361   2.093   4.313   3.745
 3113SOL     OW 9362   2.087   3.999   4.720
 3113SOL    HW1 9363   2.122   3.982   4.812
 3113SOL    HW2 9364   1.999   3.954   4.708
 3114SOL     OW 9365   1.881   4.092   4.371
 3114SOL    HW1 9366   1.799   4.135   4.410
 3114SOL    HW2 9367   1.853   4.019   4.308
 3115SOL     OW 9368   2.431   4.999   4.889
 3115SOL    HW1 9369   2.338   4.992   4.852
 3115SOL    HW2 9370   2.442   5.088   4.933
 3116SOL     OW 9371   3.417   5.235   4.427
 3116SOL    HW1 9372   3.360   5.219   4.508
 3116SOL    HW2 9373   3.358   5.245   4.347
 3117SOL     OW 9374   2.997   4.427   4.441
 3117SOL    HW1 9375   3.054   4.505   4.416
 3117SOL    HW2 9376   2.937   4.453   4.517
 3118SOL     OW 9377   3.617   4.331   3.955
 3118SOL    HW1 9378   3.605   4.318   3.856
 3118SOL    HW2 9379   3.587   4.250   4.004
 3119SOL     OW 9380   2.630   4.868   4.747
 3119SOL    HW1 9381   2.552   4.885   4.807
 3119SOL    HW2 9382   2.664   4.955   4.711
 3120SOL     OW 9383   2.547   4.736   4.389
 3120SOL    HW1 9384   2.616   4.720   4.459
 3120SOL    HW2 9385   2.474   4.793   4.427
 3121SOL     OW 9386   2.197   5.159   4.785
 3121SOL    HW1 9387   2.119   5.128   4.732
 3121SOL    HW2 9388   2.255   5.217   4.728
 3122SOL     OW 9389   2.300   4.116   5.223
 3122SOL    HW1 9390   2.382   4.060   5.232
 3122SOL    HW2 9391   2.219   4.058   5.227
 3123SOL     OW 9392   3.465   4.171   4.461
 3123SOL    HW1 9393   3.391   4.217   4.411
 3123SOL    HW2 9394   3.516   4.239   4.514
 3124SOL     OW 9395   2.102   4.815   4.610
 3124SOL    HW1 9396   2.116   4.731   4.662
 3124SOL    HW2 9397   2.047   4.879   4.665
 3125SOL     OW 9398   2.468   4.688   3.847
 3125SOL    HW1 9399   2.475   4.772   3.793
 3125SOL    HW2 9400   2.514   4.701   3.935
 3126SOL     OW 9401   1.984   4.367   4.287
 3126SOL    HW1 9402   1.939   4.279   4.304
 3126SOL    HW2 9403   1.983   4.421   4.371
 3127SOL     OW 9404   3.551   4.646   4.336
 3127SOL    HW1 9405   3.646   4.617   4.344
 3127SOL    HW2 9406   3.543   4.711   4.261
 3128SOL     OW 9407   3.503   4.832   4.156
 3128SOL    HW1 9408   3.589   4.834   4.104
 3128SOL    HW2 9409   3.517   4.879   4.244
 3129SOL     OW 9410   2.475   5.089   4.450
 3129SOL    HW1 9411   2.426   5.002   4.459
 3129SOL    HW2 9412   2.452   5.132   4.363
 3130SOL     OW 9413   2.671   3.728   4.226
 3130SOL    HW1 9414   2.711   3.819   4.217
 3130SOL    HW2 9415   2.571   3.736   4.232
 3131SOL     OW 9416   2.059   4.700   4.988
 3131SOL    HW1 9417   2.148   4.655   4.974
 3131SOL    HW2 9418   1.986   4.635   4.969
 3132SOL     OW 9419   3.387   4.723   3.914
 3132SOL    HW1 9420   3.324   4.647   3.927
 3132SOL    HW2 9421   3.435   4.741   4.000
 3133SOL     OW 9422   3.328   5.141   4.677
 3133SOL    HW1 9423   3.269   5.147   4.757
 3133SOL    HW2 9424   3.313   5.053   4.631
 3134SOL     OW 9425   2.460   4.453   3.994
 3134SOL    HW1 9426   2.484   4.522   3.926
 3134SOL    HW2 9427   2.382   4.486   4.048
 3135SOL     OW 9428   3.143   4.069   4.668
 3135SOL    HW1 9429   3.057   4.019   4.655
 3135SOL    HW2 9430   3.205   4.015   4.724
 3136SOL     OW 9431   2.669   4.329   5.189
 3136SOL    HW1 9432   2.622   4.326   5.278
 3136SOL    HW2 9433   2.618   4.274   5.123
 3137SOL     OW 9434   2.853   4.134   4.966
 3137SOL    HW1 9435   2.776   4.168   5.020
 3137SOL    HW2 9436   2.819   4.083   4.887
 3138SOL     OW 9437   2.903   4.425   4.153
 3138SOL    HW1 9438   2.929   4.421   4.249
 3138SOL    HW2 9439   2.818   4.374   4.139
 3139SOL     OW 9440   1.938   4.535   4.513
 3139SOL    HW1 9441   2.037   4.523   4.522
 3139SOL    HW2 9442   1.914   4.630   4.534
 3140SOL     OW 9443   2.727   4.072   3.919
 3140SOL    HW1 9444   2.786   4.135   3.870
 3140SOL    HW2 9445   2.746   3.978   3.890
 3141SOL     OW 9446   3.224   4.868   4.269
 3141SOL    HW1 9447   3.307   4.839   4.221
 3141SOL    HW2 9448   3.175   4.935   4.213
 3142SOL     OW 9449   2.412   3.920   4.609
 3142SOL    HW1 9450   2.407   3.915   4.709
 3142SOL    HW2 9451   2.414   4.016   4.580
 3143SOL     OW 9452   3.657   4.790   4.597
 3143SOL    HW1 9453   3.595   4.775   4.521
 3143SOL    HW2 9454   3.605   4.801   4.682
 3144SOL     OW 9455   2.183   4.667   3.966
 3144SOL    HW1 9456   2.265   4.706   3.924
 3144SOL    HW2 9457   2.156   4.585   3.917
 3145SOL     OW 9458   3.320   4.459   4.452
 3145SOL    HW1 9459   3.315   4.394   4.527
 3145SOL    HW2 9460   3.400   4.518   4.465
 3146SOL     OW 9461   3.494   5.101   3.805
 3146SOL    HW1 9462   3.462   5.195   3.795
 3146SOL    HW2 9463   3.418   5.038   3.793
 3147SOL     OW 9464   3.262   3.831   4.150
 3147SOL    HW1 9465   3.238   3.794   4.060
 3147SOL    HW2 9466   3.361   3.847   4.154
 3148SOL     OW 9467   2.244   4.424   4.204
 3148SOL    HW1 9468   2.289   4.334   4.201
 3148SOL    HW2 9469   2.150   4.413   4.237
 3149SOL     OW 9470   2.476   3.846   3.841
 3149SOL    HW1 9471   2.574   3.824   3.848
 3149SOL    HW2 9472   2.445   3.829   3.748
 3150SOL     OW 9473   2.784   4.227   4.623
 3150SOL    HW1 9474   2.759   4.218   4.527
 3150SOL    HW2 9475   2.832   4.145   4.654
 3151SOL     OW 9476   2.401   3.788   4.236
 3151SOL    HW1 9477   2.320   3.789   4.294
 3151SOL    HW2 9478   2.404   3.871   4.181
 3152SOL     OW 9479   3.296   4.912   3.765
 3152SOL    HW1 9480   3.328   4.836   3.822
 3152SOL    HW2 9481   3.204   4.939   3.795
 3153SOL     OW 9482   2.159   3.759   3.895
 3153SOL    HW1 9483   2.208   3.843   3.874
 3153SOL    HW2 9484   2.221   3.694   3.940
 3154SOL     OW 9485   2.797   3.960   4.204
 3154SOL    HW1 9486   2.749   4.001   4.126
 3154SOL    HW2 9487   2.896   3.958   4.185
 3155SOL     OW 9488   3.089   5.294   4.517
 3155SOL    HW1 9489   3.110   5.368   4.452
 3155SOL    HW2 9490   3.157   5.294   4.590
 3156SOL     OW 9491   2.321   4.876   4.465
 3156SOL    HW1 9492   2.250   4.849   4.530
 3156SOL    HW2 9493   2.295   4.848   4.372
 3157SOL     OW 9494   2.894   4.273   3.740
 3157SOL    HW1 9495   2.853   4.355   3.701
 3157SOL    HW2 9496   2.958   4.299   3.813
 3158SOL     OW 9497   2.423   3.946   4.871
 3158SOL    HW1 9498   2.461   3.862   4.908
 3158SOL    HW2 9499   2.335   3.965   4.915
 3159SOL     OW 9500   2.728   4.178   4.366
 3159SOL    HW1 9501   2.696   4.250   4.304
 3159SOL    HW2 9502   2.752   4.097   4.313
 3160SOL     OW 9503   2.879   3.763   4.477
 3160SOL    HW1 9504   2.807   3.768   4.408
 3160SOL    HW2 9505   2.855   3.694   4.546
 3161SOL     OW 9506   3.291   4.897   4.591
 3161SOL    HW1 9507   3.236   4.813   4.584
 3161SOL    HW2 9508   3.317   4.926   4.499
 3162SOL     OW 9509   3.328   4.314   4.716
 3162SOL    HW1 9510   3.298   4.219   4.723
 3162SOL    HW2 9511   3.401   4.330   4.782
 3163SOL     OW 9512   3.719   4.557   4.101
 3163SOL    HW1 9513   3.761   4.493   4.165
 3163SOL    HW2 9514   3.681   4.506   4.023
 3164SOL     OW 9515   3.526   5.004   4.381
 3164SOL    HW1 9516   3.625   5.012   4.395
 3164SOL    HW2 9517   3.481   5.088   4.412
 3165SOL     OW 9518   3.252   4.299   3.802
 3165SOL    HW1 9519   3.198   4.278   3.883
 3165SOL    HW2 9520   3.343   4.258   3.811
 3166SOL     OW 9521   2.389   3.980   4.052
 3166SOL    HW1 9522   2.416   3.921   3.977
 3166SOL    HW2 9523   2.389   4.075   4.021
 3167SOL     OW 9524   3.616   4.947   5.312
 3167SOL    HW1 9525   3.707   4.908   5.299
 3167SOL    HW2 9526   3.624   5.043   5.336
 3168SOL     OW 9527   2.926   5.071   5.064
 3168SOL    HW1 9528   2.846   5.048   5.119
 3168SOL    HW2 9529   3.009   5.045   5.113
 3169SOL     OW 9530   2.973   4.919   4.824
 3169SOL    HW1 9531   2.933   4.963   4.905
 3169SOL    HW2 9532   2.932   4.956   4.741
 3170SOL     OW 9533   3.500   4.823   4.803
 3170SOL    HW1 9534   3.505   4.904   4.862
 3170SOL    HW2 9535   3.414   4.825   4.752
 3171SOL     OW 9536   2.567   4.774   4.092
 3171SOL    HW1 9537   2.553   4.781   4.191
 3171SOL    HW2 9538   2.651   4.723   4.074
 3172SOL     OW 9539   2.272   4.537   4.975
 3172SOL    HW1 9540   2.358   4.549   5.025
 3172SOL    HW2 9541   2.230   4.450   5.002
 3173SOL     OW 9542   3.136   4.110   4.986
 3173SOL    HW1 9543   3.157   4.184   5.050
 3173SOL    HW2 9544   3.047   4.127   4.943
 3174SOL     OW 9545   2.229   4.824   4.225
 3174SOL    HW1 9546   2.222   4.907   4.169
 3174SOL    HW2 9547   2.233   4.744   4.165
 3175SOL     OW 9548   2.428   4.261   4.589
 3175SOL    HW1 9549   2.440   4.327   4.515
 3175SOL    HW2 9550   2.474   4.295   4.672
 3176SOL     OW 9551   3.114   5.072   4.112
 3176SOL    HW1 9552   3.164   5.149   4.152
 3176SOL    HW2 9553   3.019   5.074   4.144
 3177SOL     OW 9554   3.444   4.363   4.196
 3177SOL    HW1 9555   3.413   4.424   4.269
 3177SOL    HW2 9556   3.494   4.415   4.127
 3178SOL     OW 9557   2.435   4.594   4.753
 3178SOL    HW1 9558   2.479   4.683   4.744
 3178SOL    HW2 9559   2.372   4.594   4.830
 3179SOL     OW 9560   3.222   4.586   4.769
 3179SOL    HW1 9561   3.147   4.586   4.703
 3179SOL    HW2 9562   3.259   4.494   4.778
 3180SOL     OW 9563   3.071   4.249   3.999
 3180SOL    HW1 9564   3.084   4.165   4.053
 3180SOL    HW2 9565   3.042   4.323   4.059
 3181SOL     OW 9566   2.169   3.937   4.955
 3181SOL    HW1 9567   2.146   3.974   5.045
 3181SOL    HW2 9568   2.139   3.842   4.949
 3182SOL     OW 9569   1.899   5.034   5.006
 3182SOL    HW1 9570   1.952   4.985   5.074
 3182SOL    HW2 9571   1.921   5.132   5.011
 3183SOL     OW 9572   2.594   4.358   4.788
 3183SOL    HW1 9573   2.653   4.332   4.712
 3183SOL    HW2 9574   2.566   4.454   4.777
 3184SOL     OW 9575   2.169   3.787   4.342
 3184SOL    HW1 9576   2.158   3.881   4.375
 3184SOL    HW2 9577   2.164   3.724   4.419
 3185SOL     OW 9578   3.484   4.091   4.098
 3185SOL    HW1 9579   3.486   4.015   4.162
 3185SOL    HW2 9580   3.436   4.168   4.138
 3186SOL     OW 9581   2.885   4.490   4.690
 3186SOL    HW1 9582   2.900   4.511   4.786
 3186SOL    HW2 9583   2.855   4.395   4.681
 3187SOL     OW 9584   3.402   3.998   3.849
 3187SOL    HW1 9585   3.341   3.923   3.872
 3187SOL    HW2 9586   3.424   4.050   3.932
 3188SOL     OW 9587   3.165   4.562   3.766
 3188SOL    HW1 9588   3.199   4.469   3.781
 3188SOL    HW2 9589   3.183   4.589   3.671
 3189SOL     OW 9590   2.181   4.534   4.673
 3189SOL    HW1 9591   2.274   4.570   4.678
 3189SOL    HW2 9592   2.175   4.449   4.725
 3190SOL     OW 9593   2.201   4.233   4.730
 3190SOL    HW1 9594   2.149   4.150   4.713
 3190SOL    HW2 9595   2.278   4.238   4.666
 3191SOL     OW 9596   3.022   3.931   5.201
 3191SOL    HW1 9597   3.022   3.995   5.278
 3191SOL    HW2 9598   3.050   3.979   5.118
 3192SOL     OW 9599   1.870   5.050   3.924
 3192SOL    HW1 9600   1.777   5.071   3.893
 3192SOL    HW2 9601   1.880   4.951   3.937
 3193SOL     OW 9602   2.864   4.520   4.962
 3193SOL    HW1 9603   2.905   4.488   5.048
 3193SOL    HW2 9604   2.768   4.493   4.959
 3194SOL     OW 9605   1.902   4.268   4.838
 3194SOL    HW1 9606   1.987   4.235   4.797
 3194SOL    HW2 9607   1.915   4.283   4.936
 3195SOL     OW 9608   2.677   4.296   4.049
 3195SOL    HW1 9609   2.684   4.207   4.003
 3195SOL    HW2 9610   2.583   4.330   4.041
 3196SOL     OW 9611   3.519   4.328   4.930
 3196SOL    HW1 9612   3.481   4.259   4.992
 3196SOL    HW2 9613   3.601   4.292   4.886
 3197SOL     OW 9614   2.533   4.188   4.993
 3197SOL    HW1 9615   2.499   4.099   4.963
 3197SOL    HW2 9616   2.559   4.242   4.913
 3198SOL     OW 9617   2.335   4.224   3.915
 3198SOL    HW1 9618   2.396   4.304   3.919
 3198SOL    HW2 9619   2.240   4.255   3.922
 3199SOL     OW 9620   2.021   4.861   5.190
 3199SOL    HW1 9621   2.043   4.800   5.266
 3199SOL    HW2 9622   2.031   4.812   5.104
 3200SOL     OW 9623   3.209   4.783   4.958
 3200SOL    HW1 9624   3.233   4.720   4.884
 3200SOL    HW2 9625   3.119   4.823   4.940
 3201SOL     OW 9626   3.164   4.579   4.033
 3201SOL    HW1 9627   3.078   4.548   4.075
 3201SOL    HW2 9628   3.160   4.565   3.934
 3202SOL     OW 9629   1.945   4.982   4.746
 3202SOL    HW1 9630   1.940   4.981   4.846
 3202SOL    HW2 9631   1.862   4.941   4.708
 3203SOL     OW 9632   3.588   3.859   4.247
 3203SOL    HW1 9633   3.661   3.842   4.180
 3203SOL    HW2 9634   3.557   3.772   4.285
 3204SOL     OW 9635   3.142   4.651   4.396
 3204SOL    HW1 9636   3.202   4.570   4.398
 3204SOL    HW2 9637   3.182   4.720   4.336
 3205SOL     OW 9638   2.692   4.997   5.146
 3205SOL    HW1 9639   2.687   5.030   5.241
 3205SOL    HW2 9640   2.606   5.016   5.100
 3206SOL     OW 9641   3.703   3.899   4.687
 3206SOL    HW1 9642   3.742   3.814   4.651
 3206SOL    HW2 9643   3.605   3.901   4.668
 3207SOL     OW 9644   2.125   4.050   4.444
 3207SOL    HW1 9645   2.046   4.101   4.410
 3207SOL    HW2 9646   2.116   4.035   4.542
 3208SOL     OW 9647   2.684   4.726   5.096
 3208SOL    HW1 9648   2.724   4.725   5.004
 3208SOL    HW2 9649   2.694   4.818   5.136
 3209SOL     OW 9650   2.778   4.634   4.015
 3209SOL    HW1 9651   2.841   4.672   3.947
 3209SOL    HW2 9652   2.818   4.551   4.054
 3210SOL     OW 9653   2.234   5.012   5.214
 3210SOL    HW1 9654   2.221   5.105   5.180
 3210SOL    HW2 9655   2.150   4.960   5.201
 3211SOL     OW 9656   3.476   5.016   5.013
 3211SOL    HW1 9657   3.536   5.019   5.093
 3211SOL    HW2 9658   3.401   5.080   5.026
 3212SOL     OW 9659   2.901   4.822   4.420
 3212SOL    HW1 9660   2.831   4.775   4.474
 3212SOL    HW2 9661   2.960   4.754   4.377
 3213SOL     OW 9662   2.876   3.960   4.695
 3213SOL    HW1 9663   2.868   3.924   4.602
 3213SOL    HW2 9664   2.874   3.884   4.760
 3214SOL     OW 9665   3.571   4.109   5.105
 3214SOL    HW1 9666   3.644   4.178   5.109
 3214SOL    HW2 9667   3.599   4.034   5.046
 3215SOL     OW 9668   2.534   3.927   5.213
 3215SOL    HW1 9669   2.624   3.911   5.173
 3215SOL    HW2 9670   2.542   3.932   5.312
 3216SOL     OW 9671   1.937   4.069   3.757
 3216SOL    HW1 9672   1.845   4.041   3.728
 3216SOL    HW2 9673   1.968   4.146   3.701
 3217SOL     OW 9674   1.934   3.890   4.042
 3217SOL    HW1 9675   1.917   3.973   3.988
 3217SOL    HW2 9676   2.024   3.853   4.020
 3218SOL     OW 9677   2.475   4.566   5.155
 3218SOL    HW1 9678   2.531   4.647   5.138
 3218SOL    HW2 9679   2.534   4.486   5.158
 3219SOL     OW 9680   3.536   4.607   4.978
 3219SOL    HW1 9681   3.509   4.518   4.941
 3219SOL    HW2 9682   3.537   4.675   4.905
 3220SOL     OW 9683   3.087   4.049   4.173
 3220SOL    HW1 9684   3.152   3.975   4.162
 3220SOL    HW2 9685   3.107   4.099   4.257
 3221SOL     OW 9686   2.456   4.469   4.376
 3221SOL    HW1 9687   2.506   4.554   4.357
 3221SOL    HW2 9688   2.368   4.471   4.328
 3222SOL     OW 9689   3.592   4.658   5.241
 3222SOL    HW1 9690   3.630   4.749   5.256
 3222SOL    HW2 9691   3.584   4.641   5.142
 3223SOL     OW 9692   2.721   5.098   3.740
 3223SOL    HW1 9693   2.675   5.113   3.828
 3223SOL    HW2 9694   2.765   5.183   3.710
 3224SOL     OW 9695   2.721   4.680   4.585
 3224SOL    HW1 9696   2.775   4.611   4.633
 3224SOL    HW2 9697   2.689   4.749   4.651
 3225SOL     OW 9698   2.945   4.708   3.811
 3225SOL    HW1 9699   2.922   4.761   3.729
 3225SOL    HW2 9700   3.026   4.652   3.792
 3226SOL     OW 9701   1.941   4.964   4.377
 3226SOL    HW1 9702   1.940   4.917   4.465
 3226SOL    HW2 9703   2.023   4.936   4.326
 3227SOL     OW 9704   3.686   3.916   4.951
 3227SOL    HW1 9705   3.682   3.826   4.995
 3227SOL    HW2 9706   3.689   3.905   4.852
 3228SOL     OW 9707   2.290   4.148   4.244
 3228SOL    HW1 9708   2.320   4.076   4.182
 3228SOL    HW2 9709   2.251   4.108   4.327
 3229SOL     OW 9710   3.567   5.211   4.828
 3229SOL    HW1 9711   3.474   5.186   4.801
 3229SOL    HW2 9712   3.593   5.161   4.910
 3230SOL     OW 9713   2.179   4.271   5.004
 3230SOL    HW1 9714   2.217   4.212   5.076
 3230SOL    HW2 9715   2.219   4.245   4.916
 3231SOL     OW 9716   3.286   3.938   4.836
 3231SOL    HW1 9717   3.338   3.873   4.891
 3231SOL    HW2 9718   3.237   4.001   4.897
 3232SOL     OW 9719   2.863   3.758   4.878
 3232SOL    HW1 9720   2.800   3.686   4.847
 3232SOL    HW2 9721   2.956   3.722   4.878
 3233SOL     OW 9722   2.632   5.054   4.025
 3233SOL    HW1 9723   2.586   4.967   4.042
 3233SOL    HW2 9724   2.723   5.051   4.066
 3234SOL     OW 9725   3.214   3.776   3.892
 3234SOL    HW1 9726   3.249   3.735   3.808
 3234SOL    HW2 9727   3.124   3.738   3.912
 3235SOL     OW 9728   3.162   4.177   4.415
 3235SOL    HW1 9729   3.103   4.257   4.419
 3235SOL    HW2 9730   3.177   4.142   4.508
 3236SOL     OW 9731   3.455   3.945   4.606
 3236SOL    HW1 9732   3.371   3.944   4.660
 3236SOL    HW2 9733   3.457   4.028   4.550
 3237SOL     OW 9734   1.901   4.801   4.024
 3237SOL    HW1 9735   2.000   4.790   4.015
 3237SOL    HW2 9736   1.861   4.715   4.056
 3238SOL     OW 9737   3.954   0.628   0.113
 3238SOL    HW1 9738   3.861   0.626   0.150
 3238SOL    HW2 9739   3.955   0.589   0.021
 3239SOL     OW 9740   3.949   0.275   0.996
 3239SOL    HW1 9741   3.984   0.258   1.088
 3239SOL    HW2 9742   3.861   0.230   0.984
 3240SOL     OW 9743   3.743   0.368   0.647
 3240SOL    HW1 9744   3.661   0.411   0.686
 3240SOL    HW2 9745   3.715   0.295   0.584
 3241SOL     OW 9746   4.293   1.275   1.165
 3241SOL    HW1 9747   4.200   1.268   1.128
 3241SOL    HW2 9748   4.304   1.364   1.209
 3242SOL     OW 9749   5.279   1.511   0.703
 3242SOL    HW1 9750   5.222   1.495   0.784
 3242SOL    HW2 9751   5.220   1.521   0.623
 3243SOL     OW 9752   4.859   0.703   0.717
 3243SOL    HW1 9753   4.916   0.781   0.692
 3243SOL    HW2 9754   4.799   0.729   0.793
 3244SOL     OW 9755   4.492   1.144   1.023
 3244SOL    HW1 9756   4.414   1.161   1.083
 3244SOL    HW2 9757   4.526   1.231   0.987
 3245SOL     OW 9758   4.574   0.798   1.823
 3245SOL    HW1 9759   4.570   0.874   1.888
 3245SOL    HW2 9760   4.596   0.834   1.732
 3246SOL     OW 9761   4.409   1.012   0.665
 3246SOL    HW1 9762   4.478   0.996   0.735
 3246SOL    HW2 9763   4.336   1.069   0.703
 3247SOL     OW 9764   4.410   1.161   1.803
 3247SOL    HW1 9765   4.470   1.240   1.817
 3247SOL    HW2 9766   4.324   1.192   1.762
 3248SOL     OW 9767   4.059   1.435   1.061
 3248SOL    HW1 9768   3.981   1.404   1.008
 3248SOL    HW2 9769   4.117   1.493   1.004
 3249SOL     OW 9770   4.162   0.392   1.499
 3249SOL    HW1 9771   4.244   0.336   1.508
 3249SOL    HW2 9772   4.081   0.334   1.503
 3250SOL     OW 9773   3.955   1.713   0.483
 3250SOL    HW1 9774   3.989   1.790   0.537
 3250SOL    HW2 9775   3.999   1.713   0.393
 3251SOL     OW 9776   4.851   1.341   1.690
 3251SOL    HW1 9777   4.898   1.341   1.778
 3251SOL    HW2 9778   4.803   1.254   1.679
 3252SOL     OW 9779   3.954   1.434   0.538
 3252SOL    HW1 9780   3.928   1.530   0.538
 3252SOL    HW2 9781   3.883   1.380   0.583
 3253SOL     OW 9782   3.964   1.091   0.886
 3253SOL    HW1 9783   3.978   1.007   0.938
 3253SOL    HW2 9784   3.909   1.155   0.941
 3254SOL     OW 9785   4.344   1.786   1.439
 3254SOL    HW1 9786   4.252   1.769   1.474
 3254SOL    HW2 9787   4.372   1.878   1.465
 3255SOL     OW 9788   4.330   0.964   0.123
 3255SOL    HW1 9789   4.337   1.048   0.069
 3255SOL    HW2 9790   4.376   0.977   0.211
 3256SOL     OW 9791   3.846   0.643   0.563
 3256SOL    HW1 9792   3.801   0.555   0.580
 3256SOL    HW2 9793   3.845   0.697   0.647
 3257SOL     OW 9794   3.751   1.596   0.117
 3257SOL    HW1 9795   3.732   1.500   0.138
 3257SOL    HW2 9796   3.718   1.654   0.192
 3258SOL     OW 9797   5.413   0.922   0.612
 3258SOL    HW1 9798   5.508   0.893   0.620
 3258SOL    HW2 9799   5.405   0.987   0.537
 3259SOL     OW 9800   3.837   0.737   1.597
 3259SOL    HW1 9801   3.925   0.724   1.642
 3259SOL    HW2 9802   3.824   0.834   1.575
 3260SOL     OW 9803   4.337   1.365   0.726
 3260SOL    HW1 9804   4.288   1.278   0.735
 3260SOL    HW2 9805   4.314   1.408   0.639
 3261SOL     OW 9806   5.017   1.228   1.423
 3261SOL    HW1 9807   5.054   1.155   1.365
 3261SOL    HW2 9808   5.069   1.233   1.508
 3262SOL     OW 9809   4.533   0.004   0.502
 3262SOL    HW1 9810   4.573   0.095   0.493
 3262SOL    HW2 9811   4.433   0.012   0.508
 3263SOL     OW 9812   3.921   0.976   1.264
 3263SOL    HW1 9813   4.010   0.931   1.250
 3263SOL    HW2 9814   3.848   0.911   1.245
 3264SOL     OW 9815   4.911   1.792   1.616
 3264SOL    HW1 9816   4.935   1.852   1.540
 3264SOL    HW2 9817   4.918   1.697   1.586
 3265SOL     OW 9818   4.041   0.251   1.801
 3265SOL    HW1 9819   4.112   0.322   1.807
 3265SOL    HW2 9820   3.953   0.290   1.829
 3266SOL     OW 9821   4.322   0.729   0.270
 3266SOL    HW1 9822   4.346   0.798   0.202
 3266SOL    HW2 9823   4.244   0.762   0.324
 3267SOL     OW 9824   5.005   0.345   0.944
 3267SOL    HW1 9825   4.919   0.295   0.931
 3267SOL    HW2 9826   5.067   0.291   1.000
 3268SOL     OW 9827   4.531   0.605   1.465
 3268SOL    HW1 9828   4.484   0.602   1.554
 3268SOL    HW2 9829   4.480   0.550   1.399
 3269SOL     OW 9830   5.118   0.469   1.674
 3269SOL    HW1 9831   5.098   0.512   1.762
 3269SOL    HW2 9832   5.196   0.407   1.683
 3270SOL     OW 9833   4.697   0.890   1.572
 3270SOL    HW1 9834   4.743   0.806   1.543
 3270SOL    HW2 9835   4.641   0.924   1.497
 3271SOL     OW 9836   4.715   0.410   1.242
 3271SOL    HW1 9837   4.638   0.444   1.296
 3271SOL    HW2 9838   4.681   0.359   1.163
 3272SOL     OW 9839   4.765   0.701   0.429
 3272SOL    HW1 9840   4.791   0.697   0.525
 3272SOL    HW2 9841   4.680   0.650   0.415
 3273SOL     OW 9842   3.800   0.811   0.789
 3273SOL    HW1 9843   3.899   0.799   0.798
 3273SOL    HW2 9844   3.776   0.906   0.810
 3274SOL     OW 9845   3.854   1.821   1.571
 3274SOL    HW1 9846   3.844   1.806   1.670
 3274SOL    HW2 9847   3.768   1.857   1.535
 3275SOL     OW 9848   4.589   0.348   0.195
 3275SOL    HW1 9849   4.648   0.411   0.146
 3275SOL    HW2 9850   4.608   0.254   0.166
 3276SOL     OW 9851   5.086   1.144   0.545
 3276SOL    HW1 9852   5.169   1.115   0.497
 3276SOL    HW2 9853   5.037   1.211   0.489
 3277SOL     OW 9854   4.274   0.196   0.885
 3277SOL    HW1 9855   4.269   0.191   0.985
 3277SOL    HW2 9856   4.276   0.292   0.856
 3278SOL     OW 9857   4.732   1.456   0.477
 3278SOL    HW1 9858   4.686   1.528   0.425
 3278SOL    HW2 9859   4.728   1.476   0.575
 3279SOL     OW 9860   4.075   1.801   0.853
 3279SOL    HW1 9861   4.125   1.715   0.859
 3279SOL    HW2 9862   4.140   1.878   0.850
 3280SOL     OW 9863   4.951   1.550   1.506
 3280SOL    HW1 9864   4.957   1.473   1.570
 3280SOL    HW2 9865   4.899   1.524   1.426
 3281SOL     OW 9866   4.045   0.943   0.242
 3281SOL    HW1 9867   4.127   0.982   0.200
 3281SOL    HW2 9868   4.018   0.861   0.193
 3282SOL     OW 9869   4.185   1.266   1.727
 3282SOL    HW1 9870   4.135   1.267   1.641
 3282SOL    HW2 9871   4.122   1.248   1.803
 3283SOL     OW 9872   4.835   1.776   0.237
 3283SOL    HW1 9873   4.775   1.714   0.287
 3283SOL    HW2 9874   4.866   1.732   0.152
 3284SOL     OW 9875   3.926   0.285   1.498
 3284SOL    HW1 9876   3.846   0.345   1.485
 3284SOL    HW2 9877   3.916   0.236   1.584
 3285SOL     OW 9878   5.356   1.377   0.081
 3285SOL    HW1 9879   5.324   1.471   0.071
 3285SOL    HW2 9880   5.280   1.314   0.069
 3286SOL     OW 9881   4.188   1.743   0.323
 3286SOL    HW1 9882   4.221   1.782   0.409
 3286SOL    HW2 9883   4.264   1.736   0.258
 3287SOL     OW 9884   3.973   1.785   1.241
 3287SOL    HW1 9885   4.030   1.720   1.291
 3287SOL    HW2 9886   3.957   1.752   1.148
 3288SOL     OW 9887   4.664   1.698   0.904
 3288SOL    HW1 9888   4.744   1.641   0.925
 3288SOL    HW2 9889   4.615   1.658   0.827
 3289SOL     OW 9890   4.106   0.700   0.480
 3289SOL    HW1 9891   4.151   0.610   0.477
 3289SOL    HW2 9892   4.012   0.689   0.513
 3290SOL     OW 9893   4.338   0.122   0.117
 3290SOL    HW1 9894   4.436   0.100   0.124
 3290SOL    HW2 9895   4.307   0.105   0.024
 3291SOL     OW 9896   4.505   0.264   1.749
 3291SOL    HW1 9897   4.572   0.203   1.792
 3291SOL    HW2 9898   4.432   0.283   1.814
 3292SOL     OW 9899   4.612   1.514   1.195
 3292SOL    HW1 9900   4.589   1.489   1.101
 3292SOL    HW2 9901   4.673   1.445   1.234
 3293SOL     OW 9902   5.075   0.590   1.433
 3293SOL    HW1 9903   5.103   0.547   1.518
 3293SOL    HW2 9904   5.100   0.686   1.434
 3294SOL     OW 9905   4.527   1.402   0.924
 3294SOL    HW1 9906   4.617   1.416   0.882
 3294SOL    HW2 9907   4.456   1.404   0.853
 3295SOL     OW 9908   4.646   0.503   0.899
 3295SOL    HW1 9909   4.621   0.494   0.803
 3295SOL    HW2 9910   4.694   0.421   0.930
 3296SOL     OW 9911   4.263   0.064   0.512
 3296SOL    HW1 9912   4.182   0.065   0.570
 3296SOL    HW2 9913   4.266   0.147   0.457
 3297SOL     OW 9914   5.158   1.188   0.041
 3297SOL    HW1 9915   5.190   1.112   0.098
 3297SOL    HW2 9916   5.066   1.215   0.071
 3298SOL     OW 9917   4.021   0.035   0.171
 3298SOL    HW1 9918   4.070   0.119   0.150
 3298SOL    HW2 9919   4.083  -0.030   0.216
 3299SOL     OW 9920   4.659   0.236   0.480
 3299SOL    HW1 9921   4.611   0.277   0.402
 3299SOL    HW2 9922   4.758   0.234   0.461
 3300SOL     OW 9923   4.800   0.683   1.464
 3300SOL    HW1 9924   4.720   0.622   1.467
 3300SOL    HW2 9925   4.881   0.630   1.440
 3301SOL     OW 9926   4.951   1.570   0.793
 3301SOL    HW1 9927   4.972   1.644   0.728
 3301SOL    HW2 9928   5.019   1.570   0.866
 3302SOL     OW 9929   4.183   1.152   0.741
 3302SOL    HW1 9930   4.112   1.125   0.806
 3302SOL    HW2 9931   4.157   1.124   0.648
 3303SOL     OW 9932   4.995   1.797   0.591
 3303SOL    HW1 9933   5.039   1.861   0.527
 3303SOL    HW2 9934   4.945   1.849   0.661
 3304SOL     OW 9935   4.756   0.549   0.016
 3304SOL    HW1 9936   4.715   0.631  -0.023
 3304SOL    HW2 9937   4.820   0.575   0.089
 3305SOL     OW 9938   3.802   0.556   1.386
 3305SOL    HW1 9939   3.894   0.555   1.345
 3305SOL    HW2 9940   3.796   0.630   1.453
 3306SOL     OW 9941   4.285   0.222   1.147
 3306SOL    HW1 9942   4.323   0.138   1.184
 3306SOL    HW2 9943   4.197   0.241   1.191
 3307SOL     OW 9944   4.590   0.454   0.642
 3307SOL    HW1 9945   4.558   0.526   0.580
 3307SOL    HW2 9946   4.614   0.373   0.589
 3308SOL     OW 9947   4.741   0.039   0.753
 3308SOL    HW1 9948   4.669   0.044   0.684
 3308SOL    HW2 9949   4.717  -0.030   0.822
 3309SOL     OW 9950   4.212   1.385   0.174
 3309SOL    HW1 9951   4.125   1.370   0.221
 3309SOL    HW2 9952   4.195   1.411   0.079
 3310SOL     OW 9953   5.114   0.575   0.078
 3310SOL    HW1 9954   5.060   0.554   0.159
 3310SOL    HW2 9955   5.205   0.534   0.087
 3311SOL     OW 9956   4.251   0.256   0.328
 3311SOL    HW1 9957   4.278   0.197   0.253
 3311SOL    HW2 9958   4.251   0.351   0.297
 3312SOL     OW 9959   4.788   1.347   1.340
 3312SOL    HW1 9960   4.708   1.324   1.395
 3312SOL    HW2 9961   4.871   1.321   1.389
 3313SOL     OW 9962   4.835   1.195   1.100
 3313SOL    HW1 9963   4.795   1.239   1.181
 3313SOL    HW2 9964   4.794   1.232   1.017
 3314SOL     OW 9965   4.639   0.089   1.402
 3314SOL    HW1 9966   4.664   0.069   1.307
 3314SOL    HW2 9967   4.711   0.145   1.444
 3315SOL     OW 9968   4.704   1.116   1.719
 3315SOL    HW1 9969   4.605   1.122   1.729
 3315SOL    HW2 9970   4.727   1.036   1.663
 3316SOL     OW 9971   4.429   1.050   0.368
 3316SOL    HW1 9972   4.415   1.057   0.467
 3316SOL    HW2 9973   4.513   0.999   0.350
 3317SOL     OW 9974   4.134   0.813   1.251
 3317SOL    HW1 9975   4.220   0.825   1.301
 3317SOL    HW2 9976   4.092   0.726   1.278
 3318SOL     OW 9977   4.998   0.386   1.262
 3318SOL    HW1 9978   5.019   0.460   1.326
 3318SOL    HW2 9979   4.909   0.403   1.219
 3319SOL     OW 9980   3.788   1.564   1.331
 3319SOL    HW1 9981   3.742   1.646   1.297
 3319SOL    HW2 9982   3.886   1.583   1.340
 3320SOL     OW 9983   4.091   1.100   0.501
 3320SOL    HW1 9984   4.084   1.183   0.445
 3320SOL    HW2 9985   4.095   1.020   0.441
 3321SOL     OW 9986   4.290   0.537   0.865
 3321SOL    HW1 9987   4.302   0.603   0.791
 3321SOL    HW2 9988   4.336   0.571   0.948
 3322SOL     OW 9989   4.976   1.348   0.388
 3322SOL    HW1 9990   5.026   1.425   0.428
 3322SOL    HW2 9991   4.881   1.350   0.420
 3323SOL     OW 9992   4.996   1.445   1.142
 3323SOL    HW1 9993   5.043   1.458   1.229
 3323SOL    HW2 9994   4.930   1.371   1.151
 3324SOL     OW 9995   4.078   1.510   1.329
 3324SOL    HW1 9996   4.057   1.466   1.242
 3324SOL    HW2 9997   4.175   1.536   1.332
 3325SOL     OW 9998   4.126   0.751   1.598
 3325SOL    HW1 9999   4.194   0.806   1.551
 3325SOL    HW210000   4.166   0.663   1.625
 3326SOL     OW10001   4.737   0.105   1.770
 3326SOL    HW110002   4.743   0.190   1.718
 3326SOL    HW210003   4.769   0.029   1.713
 3327SOL     OW10004   4.228   0.050   1.740
 3327SOL    HW110005   4.186  -0.007   1.670
 3327SOL    HW210006   4.162   0.119   1.772
 3328SOL     OW10007   4.297   0.870   1.029
 3328SOL    HW110008   4.341   0.959   1.020
 3328SOL    HW210009   4.234   0.870   1.106
 3329SOL     OW10010   5.084   0.862   1.045
 3329SOL    HW110011   5.009   0.862   0.979
 3329SOL    HW210012   5.121   0.770   1.054
 3330SOL     OW10013   4.933   0.525   0.275
 3330SOL    HW110014   4.946   0.441   0.329
 3330SOL    HW210015   4.904   0.599   0.335
 3331SOL     OW10016   4.031   0.213   1.231
 3331SOL    HW110017   4.008   0.250   1.321
 3331SOL    HW210018   4.001   0.118   1.225
 3332SOL     OW10019   3.761   1.310   1.282
 3332SOL    HW110020   3.814   1.261   1.350
 3332SOL    HW210021   3.783   1.408   1.287
 3333SOL     OW10022   4.456   0.634   1.064
 3333SOL    HW110023   4.515   0.608   0.988
 3333SOL    HW210024   4.428   0.730   1.053
 3334SOL     OW10025   4.031   0.063   0.618
 3334SOL    HW110026   4.020   0.157   0.651
 3334SOL    HW210027   4.026   0.000   0.695
 3335SOL     OW10028   5.346   0.367   0.374
 3335SOL    HW110029   5.348   0.291   0.438
 3335SOL    HW210030   5.298   0.444   0.414
 3336SOL     OW10031   4.747   0.766   0.966
 3336SOL    HW110032   4.762   0.787   1.062
 3336SOL    HW210033   4.717   0.671   0.957
 3337SOL     OW10034   4.704   1.573   1.700
 3337SOL    HW110035   4.684   1.617   1.612
 3337SOL    HW210036   4.743   1.482   1.684
 3338SOL     OW10037   4.074   0.898   1.804
 3338SOL    HW110038   4.150   0.942   1.852
 3338SOL    HW210039   4.109   0.851   1.722
 3339SOL     OW10040   5.027   0.838   0.042
 3339SOL    HW110041   5.061   0.745   0.057
 3339SOL    HW210042   5.045   0.865  -0.053
 3340SOL     OW10043   4.792   1.333   0.849
 3340SOL    HW110044   4.799   1.249   0.794
 3340SOL    HW210045   4.854   1.402   0.813
 3341SOL     OW10046   4.043   0.810   0.949
 3341SOL    HW110047   4.136   0.846   0.954
 3341SOL    HW210048   4.037   0.725   1.001
 3342SOL     OW10049   4.063   0.509   1.006
 3342SOL    HW110050   4.011   0.426   0.989
 3342SOL    HW210051   4.140   0.514   0.942
 3343SOL     OW10052   4.862   0.380   1.678
 3343SOL    HW110053   4.817   0.443   1.742
 3343SOL    HW210054   4.955   0.411   1.661
 3344SOL     OW10055   4.884   0.207   1.477
 3344SOL    HW110056   4.884   0.271   1.554
 3344SOL    HW210057   4.912   0.255   1.394
 3345SOL     OW10058   3.812   1.801   0.927
 3345SOL    HW110059   3.770   1.715   0.900
 3345SOL    HW210060   3.906   1.804   0.893
 3346SOL     OW10061   4.228   1.568   0.910
 3346SOL    HW110062   4.294   1.642   0.919
 3346SOL    HW210063   4.272   1.489   0.868
 3347SOL     OW10064   4.726   0.796   1.238
 3347SOL    HW110065   4.767   0.764   1.324
 3347SOL    HW210066   4.630   0.769   1.235
 3348SOL     OW10067   3.764   0.544   1.114
 3348SOL    HW110068   3.849   0.511   1.073
 3348SOL    HW210069   3.777   0.559   1.212
 3349SOL     OW10070   3.913   0.520   1.722
 3349SOL    HW110071   3.972   0.480   1.652
 3349SOL    HW210072   3.855   0.591   1.681
 3350SOL     OW10073   4.539   0.572   0.325
 3350SOL    HW110074   4.546   0.483   0.279
 3350SOL    HW210075   4.445   0.606   0.317
 3351SOL     OW10076   3.976   1.564   1.744
 3351SOL    HW110077   3.946   1.621   1.820
 3351SOL    HW210078   3.969   1.467   1.770
 3352SOL     OW10079   4.395   0.464   1.269
 3352SOL    HW110080   4.361   0.375   1.239
 3352SOL    HW210081   4.421   0.518   1.189
 3353SOL     OW10082   4.654   1.678   1.465
 3353SOL    HW110083   4.630   1.660   1.370
 3353SOL    HW210084   4.684   1.772   1.475
 3354SOL     OW10085   4.197   0.500   0.191
 3354SOL    HW110086   4.258   0.580   0.195
 3354SOL    HW210087   4.102   0.531   0.198
 3355SOL     OW10088   3.883   1.137   1.466
 3355SOL    HW110089   3.905   1.076   1.542
 3355SOL    HW210090   3.893   1.088   1.380
 3356SOL     OW10091   5.071   1.059   1.234
 3356SOL    HW110092   5.095   0.996   1.160
 3356SOL    HW210093   4.981   1.099   1.216
 3357SOL     OW10094   5.026   0.855   0.309
 3357SOL    HW110095   4.940   0.824   0.351
 3357SOL    HW210096   5.022   0.841   0.210
 3358SOL     OW10097   4.976   1.731   1.128
 3358SOL    HW110098   5.060   1.736   1.074
 3358SOL    HW210099   4.953   1.635   1.146
 3359SOL     OW10100   3.807   1.258   1.022
 3359SOL    HW110101   3.802   1.257   1.122
 3359SOL    HW210102   3.724   1.217   0.984
 3360SOL     OW10103   4.412   1.662   1.716
 3360SOL    HW110104   4.356   1.743   1.725
 3360SOL    HW210105   4.464   1.666   1.630
 3361SOL     OW10106   4.627   0.086   0.133
 3361SOL    HW110107   4.678   0.087   0.047
 3361SOL    HW210108   4.683   0.044   0.204
 3362SOL     OW10109   5.112   1.573   0.477
 3362SOL    HW110110   5.179   1.585   0.403
 3362SOL    HW210111   5.072   1.662   0.500
 3363SOL     OW10112   3.854   1.794   1.851
 3363SOL    HW110113   3.813   1.720   1.904
 3363SOL    HW210114   3.918   1.845   1.909
 3364SOL     OW10115   5.004   0.927   0.672
 3364SOL    HW110116   5.064   0.846   0.674
 3364SOL    HW210117   5.044   0.996   0.612
 3365SOL     OW10118   4.554   1.273   1.422
 3365SOL    HW110119   4.549   1.306   1.517
 3365SOL    HW210120   4.468   1.292   1.376
 3366SOL     OW10121   4.396   1.616   0.154
 3366SOL    HW110122   4.405   1.626   0.055
 3366SOL    HW210123   4.356   1.527   0.175
 3367SOL     OW10124   3.987   0.326   0.720
 3367SOL    HW110125   3.908   0.377   0.686
 3367SOL    HW210126   3.978   0.311   0.818
 3368SOL     OW10127   4.918   1.612   0.031
 3368SOL    HW110128   4.924   1.519   0.068
 3368SOL    HW210129   4.859   1.612  -0.049
 3369SOL     OW10130   4.546   1.002   1.372
 3369SOL    HW110131   4.586   1.001   1.280
 3369SOL    HW210132   4.556   1.094   1.412
 3370SOL     OW10133   4.640   0.910   0.291
 3370SOL    HW110134   4.703   0.948   0.223
 3370SOL    HW210135   4.680   0.827   0.330
 3371SOL     OW10136   4.096   1.288   1.490
 3371SOL    HW110137   4.083   1.381   1.456
 3371SOL    HW210138   4.012   1.236   1.477
 3372SOL     OW10139   4.763   1.098   0.696
 3372SOL    HW110140   4.693   1.051   0.750
 3372SOL    HW210141   4.822   1.030   0.653
 3373SOL     OW10142   4.738   0.236   0.971
 3373SOL    HW110143   4.730   0.200   0.878
 3373SOL    HW210144   4.736   0.160   1.036
 3374SOL     OW10145   4.314   1.487   0.491
 3374SOL    HW110146   4.356   1.429   0.421
 3374SOL    HW210147   4.270   1.566   0.447
 3375SOL     OW10148   3.979   1.348   0.290
 3375SOL    HW110149   3.883   1.349   0.263
 3375SOL    HW210150   3.991   1.401   0.374
 3376SOL     OW10151   3.829   1.013   1.726
 3376SOL    HW110152   3.752   0.980   1.780
 3376SOL    HW210153   3.914   0.983   1.768
 3377SOL     OW10154   4.396   0.203   1.489
 3377SOL    HW110155   4.486   0.187   1.449
 3377SOL    HW210156   4.404   0.208   1.588
 3378SOL     OW10157   3.799   0.345   0.033
 3378SOL    HW110158   3.707   0.317   0.004
 3378SOL    HW210159   3.830   0.422  -0.023
 3379SOL     OW10160   5.164   0.856   1.398
 3379SOL    HW110161   5.107   0.908   1.335
 3379SOL    HW210162   5.260   0.868   1.374
 3380SOL     OW10163   3.796   0.166   0.318
 3380SOL    HW110164   3.779   0.249   0.264
 3380SOL    HW210165   3.886   0.129   0.296
 3381SOL     OW10166   4.907   1.335   0.119
 3381SOL    HW110167   4.808   1.324   0.121
 3381SOL    HW210168   4.941   1.350   0.212
 3382SOL     OW10169   4.337   0.842   1.431
 3382SOL    HW110170   4.393   0.923   1.414
 3382SOL    HW210171   4.396   0.762   1.434
 3383SOL     OW10172   4.440   0.565   1.708
 3383SOL    HW110173   4.459   0.630   1.782
 3383SOL    HW210174   4.500   0.485   1.717
 3384SOL     OW10175   5.174   1.220   1.633
 3384SOL    HW110176   5.165   1.210   1.732
 3384SOL    HW210177   5.270   1.213   1.607
 3385SOL     OW10178   4.114   1.741   1.560
 3385SOL    HW110179   4.023   1.782   1.558
 3385SOL    HW210180   4.107   1.647   1.592
 3386SOL     OW10181   4.949   0.325   0.449
 3386SOL    HW110182   5.014   0.251   0.438
 3386SOL    HW210183   4.969   0.375   0.533
 3387SOL     OW10184   4.318   0.745   0.652
 3387SOL    HW110185   4.368   0.830   0.633
 3387SOL    HW210186   4.230   0.747   0.604
 3388SOL     OW10187   4.583   1.374   0.016
 3388SOL    HW110188   4.537   1.389   0.104
 3388SOL    HW210189   4.627   1.459  -0.014
 3389SOL     OW10190   4.385   1.790   0.953
 3389SOL    HW110191   4.339   1.878   0.940
 3389SOL    HW210192   4.484   1.802   0.946
 3390SOL     OW10193   4.583   0.956   0.861
 3390SOL    HW110194   4.637   0.887   0.909
 3390SOL    HW210195   4.551   1.025   0.927
 3391SOL     OW10196   4.807   0.984   0.087
 3391SOL    HW110197   4.784   1.037   0.005
 3391SOL    HW210198   4.888   0.928   0.068
 3392SOL     OW10199   3.945   1.314   1.844
 3392SOL    HW110200   3.880   1.241   1.823
 3392SOL    HW210201   3.949   1.328   1.942
 3393SOL     OW10202   3.803   1.240   0.653
 3393SOL    HW110203   3.802   1.193   0.741
 3393SOL    HW210204   3.885   1.212   0.602
 3394SOL     OW10205   4.396   1.391   1.624
 3394SOL    HW110206   4.318   1.341   1.662
 3394SOL    HW210207   4.393   1.486   1.655
 3395SOL     OW10208   4.152   0.424   0.520
 3395SOL    HW110209   4.182   0.352   0.458
 3395SOL    HW210210   4.113   0.384   0.603
 3396SOL     OW10211   4.041   0.547   1.280
 3396SOL    HW110212   4.079   0.488   1.352
 3396SOL    HW210213   4.081   0.521   1.192
 3397SOL     OW10214   4.536   1.586   0.687
 3397SOL    HW110215   4.568   1.596   0.593
 3397SOL    HW210216   4.457   1.524   0.689
 3398SOL     OW10217   5.148   0.214   1.112
 3398SOL    HW110218   5.200   0.149   1.167
 3398SOL    HW210219   5.099   0.277   1.173
 3399SOL     OW10220   4.725   0.034   1.154
 3399SOL    HW110221   4.662  -0.038   1.123
 3399SOL    HW210222   4.818  -0.002   1.154
 3400SOL     OW10223   4.494   1.330   0.301
 3400SOL    HW110224   4.448   1.243   0.318
 3400SOL    HW210225   4.585   1.327   0.342
 3401SOL     OW10226   4.342   1.567   1.284
 3401SOL    HW110227   4.337   1.649   1.341
 3401SOL    HW210228   4.431   1.564   1.239
 3402SOL     OW10229   3.763   1.077   0.300
 3402SOL    HW110230   3.862   1.066   0.291
 3402SOL    HW210231   3.723   0.991   0.332
 3403SOL     OW10232   4.599   1.646   0.337
 3403SOL    HW110233   4.522   1.611   0.283
 3403SOL    HW210234   4.567   1.717   0.399
 3404SOL     OW10235   3.954   0.628   1.975
 3404SOL    HW110236   3.861   0.626   2.012
 3404SOL    HW210237   3.955   0.589   1.883
 3405SOL     OW10238   3.949   0.275   2.858
 3405SOL    HW110239   3.984   0.258   2.950
 3405SOL    HW210240   3.861   0.230   2.846
 3406SOL     OW10241   3.743   0.368   2.509
 3406SOL    HW110242   3.661   0.411   2.548
 3406SOL    HW210243   3.715   0.295   2.446
 3407SOL     OW10244   4.293   1.275   3.027
 3407SOL    HW110245   4.200   1.268   2.990
 3407SOL    HW210246   4.304   1.364   3.071
 3408SOL     OW10247   5.279   1.511   2.565
 3408SOL    HW110248   5.222   1.495   2.646
 3408SOL    HW210249   5.220   1.521   2.485
 3409SOL     OW10250   4.859   0.703   2.579
 3409SOL    HW110251   4.916   0.781   2.554
 3409SOL    HW210252   4.799   0.729   2.655
 3410SOL     OW10253   4.492   1.144   2.885
 3410SOL    HW110254   4.414   1.161   2.945
 3410SOL    HW210255   4.526   1.231   2.849
 3411SOL     OW10256   4.574   0.798   3.685
 3411SOL    HW110257   4.570   0.874   3.750
 3411SOL    HW210258   4.596   0.834   3.594
 3412SOL     OW10259   4.409   1.012   2.527
 3412SOL    HW110260   4.478   0.996   2.597
 3412SOL    HW210261   4.336   1.069   2.565
 3413SOL     OW10262   4.410   1.161   3.665
 3413SOL    HW110263   4.470   1.240   3.679
 3413SOL    HW210264   4.324   1.192   3.624
 3414SOL     OW10265   4.059   1.435   2.923
 3414SOL    HW110266   3.981   1.404   2.870
 3414SOL    HW210267   4.117   1.493   2.866
 3415SOL     OW10268   4.162   0.392   3.361
 3415SOL    HW110269   4.244   0.336   3.370
 3415SOL    HW210270   4.081   0.334   3.365
 3416SOL     OW10271   3.955   1.713   2.345
 3416SOL    HW110272   3.989   1.790   2.399
 3416SOL    HW210273   3.999   1.713   2.255
 3417SOL     OW10274   4.851   1.341   3.552
 3417SOL    HW110275   4.898   1.341   3.640
 3417SOL    HW210276   4.803   1.254   3.541
 3418SOL     OW10277   3.954   1.434   2.400
 3418SOL    HW110278   3.928   1.530   2.400
 3418SOL    HW210279   3.883   1.380   2.445
 3419SOL     OW10280   3.964   1.091   2.748
 3419SOL    HW110281   3.978   1.007   2.800
 3419SOL    HW210282   3.909   1.155   2.803
 3420SOL     OW10283   4.344   1.786   3.301
 3420SOL    HW110284   4.252   1.769   3.336
 3420SOL    HW210285   4.372   1.878   3.327
 3421SOL     OW10286   4.330   0.964   1.985
 3421SOL    HW110287   4.337   1.048   1.931
 3421SOL    HW210288   4.376   0.977   2.073
 3422SOL     OW10289   3.846   0.643   2.425
 3422SOL    HW110290   3.801   0.555   2.442
 3422SOL    HW210291   3.845   0.697   2.509
 3423SOL     OW10292   3.751   1.596   1.979
 3423SOL    HW110293   3.732   1.500   2.000
 3423SOL    HW210294   3.718   1.654   2.054
 3424SOL     OW10295   5.413   0.922   2.474
 3424SOL    HW110296   5.508   0.893   2.482
 3424SOL    HW210297   5.405   0.987   2.399
 3425SOL     OW10298   3.837   0.737   3.459
 3425SOL    HW110299   3.925   0.724   3.504
 3425SOL    HW210300   3.824   0.834   3.437
 3426SOL     OW10301   4.337   1.365   2.588
 3426SOL    HW110302   4.288   1.278   2.597
 3426SOL    HW210303   4.314   1.408   2.501
 3427SOL     OW10304   5.017   1.228   3.285
 3427SOL    HW110305   5.054   1.155   3.227
 3427SOL    HW210306   5.069   1.233   3.370
 3428SOL     OW10307   4.533   0.004   2.364
 3428SOL    HW110308   4.573   0.095   2.355
 3428SOL    HW210309   4.433   0.012   2.370
 3429SOL     OW10310   3.921   0.976   3.126
 3429SOL    HW110311   4.010   0.931   3.112
 3429SOL    HW210312   3.848   0.911   3.107
 3430SOL     OW10313   4.911   1.792   3.478
 3430SOL    HW110314   4.935   1.852   3.402
 3430SOL    HW210315   4.918   1.697   3.448
 3431SOL     OW10316   4.041   0.251   3.663
 3431SOL    HW110317   4.112   0.322   3.669
 3431SOL    HW210318   3.953   0.290   3.691
 3432SOL     OW10319   4.322   0.729   2.132
 3432SOL    HW110320   4.346   0.798   2.064
 3432SOL    HW210321   4.244   0.762   2.186
 3433SOL     OW10322   5.005   0.345   2.806
 3433SOL    HW110323   4.919   0.295   2.793
 3433SOL    HW210324   5.067   0.291   2.862
 3434SOL     OW10325   4.531   0.605   3.327
 3434SOL    HW110326   4.484   0.602   3.416
 3434SOL    HW210327   4.480   0.550   3.261
 3435SOL     OW10328   5.118   0.469   3.536
 3435SOL    HW110329   5.098   0.512   3.624
 3435SOL    HW210330   5.196   0.407   3.545
 3436SOL     OW10331   4.697   0.890   3.434
 3436SOL    HW110332   4.743   0.806   3.405
 3436SOL    HW210333   4.641   0.924   3.359
 3437SOL     OW10334   4.715   0.410   3.104
 3437SOL    HW110335   4.638   0.444   3.158
 3437SOL    HW210336   4.681   0.359   3.025
 3438SOL     OW10337   4.765   0.701   2.291
 3438SOL    HW110338   4.791   0.697   2.387
 3438SOL    HW210339   4.680   0.650   2.277
 3439SOL     OW10340   3.800   0.811   2.651
 3439SOL    HW110341   3.899   0.799   2.660
 3439SOL    HW210342   3.776   0.906   2.672
 3440SOL     OW10343   3.854   1.821   3.433
 3440SOL    HW110344   3.844   1.806   3.532
 3440SOL    HW210345   3.768   1.857   3.397
 3441SOL     OW10346   4.589   0.348   2.057
 3441SOL    HW110347   4.648   0.411   2.008
 3441SOL    HW210348   4.608   0.254   2.028
 3442SOL     OW10349   5.086   1.144   2.407
 3442SOL    HW110350   5.169   1.115   2.359
 3442SOL    HW210351   5.037   1.211   2.351
 3443SOL     OW10352   4.274   0.196   2.747
 3443SOL    HW110353   4.269   0.191   2.847
 3443SOL    HW210354   4.276   0.292   2.718
 3444SOL     OW10355   4.732   1.456   2.339
 3444SOL    HW110356   4.686   1.528   2.287
 3444SOL    HW210357   4.728   1.476   2.437
 3445SOL     OW10358   4.075   1.801   2.715
 3445SOL    HW110359   4.125   1.715   2.721
 3445SOL    HW210360   4.140   1.878   2.712
 3446SOL     OW10361   4.951   1.550   3.368
 3446SOL    HW110362   4.957   1.473   3.432
 3446SOL    HW210363   4.899   1.524   3.288
 3447SOL     OW10364   4.045   0.943   2.104
 3447SOL    HW110365   4.127   0.982   2.062
 3447SOL    HW210366   4.018   0.861   2.055
 3448SOL     OW10367   4.185   1.266   3.589
 3448SOL    HW110368   4.135   1.267   3.503
 3448SOL    HW210369   4.122   1.248   3.665
 3449SOL     OW10370   4.835   1.776   2.099
 3449SOL    HW110371   4.775   1.714   2.149
 3449SOL    HW210372   4.866   1.732   2.014
 3450SOL     OW10373   3.926   0.285   3.360
 3450SOL    HW110374   3.846   0.345   3.347
 3450SOL    HW210375   3.916   0.236   3.446
 3451SOL     OW10376   4.188   1.743   2.185
 3451SOL    HW110377   4.221   1.782   2.271
 3451SOL    HW210378   4.264   1.736   2.120
 3452SOL     OW10379   3.973   1.785   3.103
 3452SOL    HW110380   4.030   1.720   3.153
 3452SOL    HW210381   3.957   1.752   3.010
 3453SOL     OW10382   4.664   1.698   2.766
 3453SOL    HW110383   4.744   1.641   2.787
 3453SOL    HW210384   4.615   1.658   2.689
 3454SOL     OW10385   4.106   0.700   2.342
 3454SOL    HW110386   4.151   0.610   2.339
 3454SOL    HW210387   4.012   0.689   2.375
 3455SOL     OW10388   4.338   0.122   1.979
 3455SOL    HW110389   4.436   0.100   1.986
 3455SOL    HW210390   4.307   0.105   1.886
 3456SOL     OW10391   4.505   0.264   3.611
 3456SOL    HW110392   4.572   0.203   3.654
 3456SOL    HW210393   4.432   0.283   3.676
 3457SOL     OW10394   4.612   1.514   3.057
 3457SOL    HW110395   4.589   1.489   2.963
 3457SOL    HW210396   4.673   1.445   3.096
 3458SOL     OW10397   5.075   0.590   3.295
 3458SOL    HW110398   5.103   0.547   3.380
 3458SOL    HW210399   5.100   0.686   3.296
 3459SOL     OW10400   4.527   1.402   2.786
 3459SOL    HW110401   4.617   1.416   2.744
 3459SOL    HW210402   4.456   1.404   2.715
 3460SOL     OW10403   4.646   0.503   2.761
 3460SOL    HW110404   4.621   0.494   2.665
 3460SOL    HW210405   4.694   0.421   2.792
 3461SOL     OW10406   4.263   0.064   2.374
 3461SOL    HW110407   4.182   0.065   2.432
 3461SOL    HW210408   4.266   0.147   2.319
 3462SOL     OW10409   5.158   1.188   1.903
 3462SOL    HW110410   5.190   1.112   1.960
 3462SOL    HW210411   5.066   1.215   1.933
 3463SOL     OW10412   4.021   0.035   2.033
 3463SOL    HW110413   4.070   0.119   2.012
 3463SOL    HW210414   4.083  -0.030   2.078
 3464SOL     OW10415   4.659   0.236   2.342
 3464SOL    HW110416   4.611   0.277   2.264
 3464SOL    HW210417   4.758   0.234   2.323
 3465SOL     OW10418   4.800   0.683   3.326
 3465SOL    HW110419   4.720   0.622   3.329
 3465SOL    HW210420   4.881   0.630   3.302
 3466SOL     OW10421   4.951   1.570   2.655
 3466SOL    HW110422   4.972   1.644   2.590
 3466SOL    HW210423   5.019   1.570   2.728
 3467SOL     OW10424   4.183   1.152   2.603
 3467SOL    HW110425   4.112   1.125   2.668
 3467SOL    HW210426   4.157   1.124   2.510
 3468SOL     OW10427   4.995   1.797   2.453
 3468SOL    HW110428   5.039   1.861   2.389
 3468SOL    HW210429   4.945   1.849   2.523
 3469SOL     OW10430   4.756   0.549   1.878
 3469SOL    HW110431   4.715   0.631   1.839
 3469SOL    HW210432   4.820   0.575   1.951
 3470SOL     OW10433   3.802   0.556   3.248
 3470SOL    HW110434   3.894   0.555   3.207
 3470SOL    HW210435   3.796   0.630   3.315
 3471SOL     OW10436   4.285   0.222   3.009
 3471SOL    HW110437   4.323   0.138   3.046
 3471SOL    HW210438   4.197   0.241   3.053
 3472SOL     OW10439   4.590   0.454   2.504
 3472SOL    HW110440   4.558   0.526   2.442
 3472SOL    HW210441   4.614   0.373   2.451
 3473SOL     OW10442   4.741   0.039   2.615
 3473SOL    HW110443   4.669   0.044   2.546
 3473SOL    HW210444   4.717  -0.030   2.684
 3474SOL     OW10445   4.212   1.385   2.036
 3474SOL    HW110446   4.125   1.370   2.083
 3474SOL    HW210447   4.195   1.411   1.941
 3475SOL     OW10448   5.114   0.575   1.940
 3475SOL    HW110449   5.060   0.554   2.021
 3475SOL    HW210450   5.205   0.534   1.949
 3476SOL     OW10451   4.251   0.256   2.190
 3476SOL    HW110452   4.278   0.197   2.115
 3476SOL    HW210453   4.251   0.351   2.159
 3477SOL     OW10454   4.788   1.347   3.202
 3477SOL    HW110455   4.708   1.324   3.257
 3477SOL    HW210456   4.871   1.321   3.251
 3478SOL     OW10457   4.835   1.195   2.962
 3478SOL    HW110458   4.795   1.239   3.043
 3478SOL    HW210459   4.794   1.232   2.879
 3479SOL     OW10460   4.639   0.089   3.264
 3479SOL    HW110461   4.664   0.069   3.169
 3479SOL    HW210462   4.711   0.145   3.306
 3480SOL     OW10463   4.704   1.116   3.581
 3480SOL    HW110464   4.605   1.122   3.591
 3480SOL    HW210465   4.727   1.036   3.525
 3481SOL     OW10466   4.429   1.050   2.230
 3481SOL    HW110467   4.415   1.057   2.329
 3481SOL    HW210468   4.513   0.999   2.212
 3482SOL     OW10469   4.134   0.813   3.113
 3482SOL    HW110470   4.220   0.825   3.163
 3482SOL    HW210471   4.092   0.726   3.140
 3483SOL     OW10472   4.998   0.386   3.124
 3483SOL    HW110473   5.019   0.460   3.188
 3483SOL    HW210474   4.909   0.403   3.081
 3484SOL     OW10475   3.788   1.564   3.193
 3484SOL    HW110476   3.742   1.646   3.159
 3484SOL    HW210477   3.886   1.583   3.202
 3485SOL     OW10478   4.091   1.100   2.363
 3485SOL    HW110479   4.084   1.183   2.307
 3485SOL    HW210480   4.095   1.020   2.303
 3486SOL     OW10481   4.290   0.537   2.727
 3486SOL    HW110482   4.302   0.603   2.653
 3486SOL    HW210483   4.336   0.571   2.810
 3487SOL     OW10484   4.976   1.348   2.250
 3487SOL    HW110485   5.026   1.425   2.290
 3487SOL    HW210486   4.881   1.350   2.282
 3488SOL     OW10487   4.996   1.445   3.004
 3488SOL    HW110488   5.043   1.458   3.091
 3488SOL    HW210489   4.930   1.371   3.013
 3489SOL     OW10490   4.078   1.510   3.191
 3489SOL    HW110491   4.057   1.466   3.104
 3489SOL    HW210492   4.175   1.536   3.194
 3490SOL     OW10493   4.126   0.751   3.460
 3490SOL    HW110494   4.194   0.806   3.413
 3490SOL    HW210495   4.166   0.663   3.487
 3491SOL     OW10496   4.737   0.105   3.632
 3491SOL    HW110497   4.743   0.190   3.580
 3491SOL    HW210498   4.769   0.029   3.575
 3492SOL     OW10499   4.228   0.050   3.602
 3492SOL    HW110500   4.186  -0.007   3.532
 3492SOL    HW210501   4.162   0.119   3.634
 3493SOL     OW10502   4.297   0.870   2.891
 3493SOL    HW110503   4.341   0.959   2.882
 3493SOL    HW210504   4.234   0.870   2.968
 3494SOL     OW10505   5.084   0.862   2.907
 3494SOL    HW110506   5.009   0.862   2.841
 3494SOL    HW210507   5.121   0.770   2.916
 3495SOL     OW10508   4.933   0.525   2.137
 3495SOL    HW110509   4.946   0.441   2.191
 3495SOL    HW210510   4.904   0.599   2.197
 3496SOL     OW10511   4.031   0.213   3.093
 3496SOL    HW110512   4.008   0.250   3.183
 3496SOL    HW210513   4.001   0.118   3.087
 3497SOL     OW10514   3.761   1.310   3.144
 3497SOL    HW110515   3.814   1.261   3.212
 3497SOL    HW210516   3.783   1.408   3.149
 3498SOL     OW10517   4.456   0.634   2.926
 3498SOL    HW110518   4.515   0.608   2.850
 3498SOL    HW210519   4.428   0.730   2.915
 3499SOL     OW10520   4.031   0.063   2.480
 3499SOL    HW110521   4.020   0.157   2.513
 3499SOL    HW210522   4.026   0.000   2.557
 3500SOL     OW10523   5.346   0.367   2.236
 3500SOL    HW110524   5.348   0.291   2.300
 3500SOL    HW210525   5.298   0.444   2.276
 3501SOL     OW10526   4.747   0.766   2.828
 3501SOL    HW110527   4.762   0.787   2.924
 3501SOL    HW210528   4.717   0.671   2.819
 3502SOL     OW10529   4.704   1.573   3.562
 3502SOL    HW110530   4.684   1.617   3.474
 3502SOL    HW210531   4.743   1.482   3.546
 3503SOL     OW10532   4.074   0.898   3.666
 3503SOL    HW110533   4.150   0.942   3.714
 3503SOL    HW210534   4.109   0.851   3.584
 3504SOL     OW10535   5.027   0.838   1.904
 3504SOL    HW110536   5.061   0.745   1.919
 3504SOL    HW210537   5.045   0.865   1.809
 3505SOL     OW10538   4.792   1.333   2.711
 3505SOL    HW110539   4.799   1.249   2.656
 3505SOL    HW210540   4.854   1.402   2.675
 3506SOL     OW10541   4.043   0.810   2.811
 3506SOL    HW110542   4.136   0.846   2.816
 3506SOL    HW210543   4.037   0.725   2.863
 3507SOL     OW10544   4.063   0.509   2.868
 3507SOL    HW110545   4.011   0.426   2.851
 3507SOL    HW210546   4.140   0.514   2.804
 3508SOL     OW10547   4.862   0.380   3.540
 3508SOL    HW110548   4.817   0.443   3.604
 3508SOL    HW210549   4.955   0.411   3.523
 3509SOL     OW10550   4.884   0.207   3.339
 3509SOL    HW110551   4.884   0.271   3.416
 3509SOL    HW210552   4.912   0.255   3.256
 3510SOL     OW10553   3.732   1.326   2.062
 3510SOL    HW110554   3.639   1.347   2.031
 3510SOL    HW210555   3.742   1.227   2.075
 3511SOL     OW10556   3.812   1.801   2.789
 3511SOL    HW110557   3.770   1.715   2.762
 3511SOL    HW210558   3.906   1.804   2.755
 3512SOL     OW10559   4.228   1.568   2.772
 3512SOL    HW110560   4.294   1.642   2.781
 3512SOL    HW210561   4.272   1.489   2.730
 3513SOL     OW10562   4.726   0.796   3.100
 3513SOL    HW110563   4.767   0.764   3.186
 3513SOL    HW210564   4.630   0.769   3.097
 3514SOL     OW10565   3.764   0.544   2.976
 3514SOL    HW110566   3.849   0.511   2.935
 3514SOL    HW210567   3.777   0.559   3.074
 3515SOL     OW10568   3.913   0.520   3.584
 3515SOL    HW110569   3.972   0.480   3.514
 3515SOL    HW210570   3.855   0.591   3.543
 3516SOL     OW10571   4.539   0.572   2.187
 3516SOL    HW110572   4.546   0.483   2.141
 3516SOL    HW210573   4.445   0.606   2.179
 3517SOL     OW10574   3.976   1.564   3.606
 3517SOL    HW110575   3.946   1.621   3.682
 3517SOL    HW210576   3.969   1.467   3.632
 3518SOL     OW10577   4.395   0.464   3.131
 3518SOL    HW110578   4.361   0.375   3.101
 3518SOL    HW210579   4.421   0.518   3.051
 3519SOL     OW10580   4.654   1.678   3.327
 3519SOL    HW110581   4.630   1.660   3.232
 3519SOL    HW210582   4.684   1.772   3.337
 3520SOL     OW10583   4.197   0.500   2.053
 3520SOL    HW110584   4.258   0.580   2.057
 3520SOL    HW210585   4.102   0.531   2.060
 3521SOL     OW10586   3.883   1.137   3.328
 3521SOL    HW110587   3.905   1.076   3.404
 3521SOL    HW210588   3.893   1.088   3.242
 3522SOL     OW10589   5.071   1.059   3.096
 3522SOL    HW110590   5.095   0.996   3.022
 3522SOL    HW210591   4.981   1.099   3.078
 3523SOL     OW10592   5.026   0.855   2.171
 3523SOL    HW110593   4.940   0.824   2.213
 3523SOL    HW210594   5.022   0.841   2.072
 3524SOL     OW10595   4.976   1.731   2.990
 3524SOL    HW110596   5.060   1.736   2.936
 3524SOL    HW210597   4.953   1.635   3.008
 3525SOL     OW10598   3.807   1.258   2.884
 3525SOL    HW110599   3.802   1.257   2.984
 3525SOL    HW210600   3.724   1.217   2.846
 3526SOL     OW10601   4.412   1.662   3.578
 3526SOL    HW110602   4.356   1.743   3.587
 3526SOL    HW210603   4.464   1.666   3.492
 3527SOL     OW10604   5.112   1.573   2.339
 3527SOL    HW110605   5.179   1.585   2.265
 3527SOL    HW210606   5.072   1.662   2.362
 3528SOL     OW10607   3.854   1.794   3.713
 3528SOL    HW110608   3.813   1.720   3.766
 3528SOL    HW210609   3.918   1.845   3.771
 3529SOL     OW10610   5.004   0.927   2.534
 3529SOL    HW110611   5.064   0.846   2.536
 3529SOL    HW210612   5.044   0.996   2.474
 3530SOL     OW10613   4.554   1.273   3.284
 3530SOL    HW110614   4.549   1.306   3.379
 3530SOL    HW210615   4.468   1.292   3.238
 3531SOL     OW10616   4.396   1.616   2.016
 3531SOL    HW110617   4.405   1.626   1.917
 3531SOL    HW210618   4.356   1.527   2.037
 3532SOL     OW10619   3.987   0.326   2.582
 3532SOL    HW110620   3.908   0.377   2.548
 3532SOL    HW210621   3.978   0.311   2.680
 3533SOL     OW10622   4.918   1.612   1.893
 3533SOL    HW110623   4.924   1.519   1.930
 3533SOL    HW210624   4.859   1.612   1.813
 3534SOL     OW10625   4.546   1.002   3.234
 3534SOL    HW110626   4.586   1.001   3.142
 3534SOL    HW210627   4.556   1.094   3.274
 3535SOL     OW10628   4.640   0.910   2.153
 3535SOL    HW110629   4.703   0.948   2.085
 3535SOL    HW210630   4.680   0.827   2.192
 3536SOL     OW10631   4.096   1.288   3.352
 3536SOL    HW110632   4.083   1.381   3.318
 3536SOL    HW210633   4.012   1.236   3.339
 3537SOL     OW10634   4.763   1.098   2.558
 3537SOL    HW110635   4.693   1.051   2.612
 3537SOL    HW210636   4.822   1.030   2.515
 3538SOL     OW10637   4.738   0.236   2.833
 3538SOL    HW110638   4.730   0.200   2.740
 3538SOL    HW210639   4.736   0.160   2.898
 3539SOL     OW10640   4.314   1.487   2.353
 3539SOL    HW110641   4.356   1.429   2.283
 3539SOL    HW210642   4.270   1.566   2.309
 3540SOL     OW10643   3.979   1.348   2.152
 3540SOL    HW110644   3.883   1.349   2.125
 3540SOL    HW210645   3.991   1.401   2.236
 3541SOL     OW10646   3.829   1.013   3.588
 3541SOL    HW110647   3.752   0.980   3.642
 3541SOL    HW210648   3.914   0.983   3.630
 3542SOL     OW10649   4.396   0.203   3.351
 3542SOL    HW110650   4.486   0.187   3.311
 3542SOL    HW210651   4.404   0.208   3.450
 3543SOL     OW10652   3.799   0.345   1.895
 3543SOL    HW110653   3.707   0.317   1.866
 3543SOL    HW210654   3.830   0.422   1.839
 3544SOL     OW10655   5.164   0.856   3.260
 3544SOL    HW110656   5.107   0.908   3.197
 3544SOL    HW210657   5.260   0.868   3.236
 3545SOL     OW10658   3.796   0.166   2.180
 3545SOL    HW110659   3.779   0.249   2.126
 3545SOL    HW210660   3.886   0.129   2.158
 3546SOL     OW10661   4.907   1.335   1.981
 3546SOL    HW110662   4.808   1.324   1.983
 3546SOL    HW210663   4.941   1.350   2.074
 3547SOL     OW10664   4.337   0.842   3.293
 3547SOL    HW110665   4.393   0.923   3.276
 3547SOL    HW210666   4.396   0.762   3.296
 3548SOL     OW10667   4.440   0.565   3.570
 3548SOL    HW110668   4.459   0.630   3.644
 3548SOL    HW210669   4.500   0.485   3.579
 3549SOL     OW10670   5.174   1.220   3.495
 3549SOL    HW110671   5.165   1.210   3.594
 3549SOL    HW210672   5.270   1.213   3.469
 3550SOL     OW10673   4.114   1.741   3.422
 3550SOL    HW110674   4.023   1.782   3.420
 3550SOL    HW210675   4.107   1.647   3.454
 3551SOL     OW10676   4.949   0.325   2.311
 3551SOL    HW110677   5.014   0.251   2.300
 3551SOL    HW210678   4.969   0.375   2.395
 3552SOL     OW10679   4.318   0.745   2.514
 3552SOL    HW110680   4.368   0.830   2.495
 3552SOL    HW210681   4.230   0.747   2.466
 3553SOL     OW10682   4.583   1.374   1.878
 3553SOL    HW110683   4.537   1.389   1.966
 3553SOL    HW210684   4.627   1.459   1.848
 3554SOL     OW10685   4.385   1.790   2.815
 3554SOL    HW110686   4.339   1.878   2.802
 3554SOL    HW210687   4.484   1.802   2.808
 3555SOL     OW10688   4.583   0.956   2.723
 3555SOL    HW110689   4.637   0.887   2.771
 3555SOL    HW210690   4.551   1.025   2.789
 3556SOL     OW10691   4.807   0.984   1.949
 3556SOL    HW110692   4.784   1.037   1.867
 3556SOL    HW210693   4.888   0.928   1.930
 3557SOL     OW10694   3.945   1.314   3.706
 3557SOL    HW110695   3.880   1.241   3.685
 3557SOL    HW210696   3.949   1.328   3.804
 3558SOL     OW10697   3.803   1.240   2.515
 3558SOL    HW110698   3.802   1.193   2.603
 3558SOL    HW210699   3.885   1.212   2.464
 3559SOL     OW10700   4.396   1.391   3.486
 3559SOL    HW110701   4.318   1.341   3.524
 3559SOL    HW210702   4.393   1.486   3.517
 3560SOL     OW10703   4.152   0.424   2.382
 3560SOL    HW110704   4.182   0.352   2.320
 3560SOL    HW210705   4.113   0.384   2.465
 3561SOL     OW10706   4.041   0.547   3.142
 3561SOL    HW110707   4.079   0.488   3.214
 3561SOL    HW210708   4.081   0.521   3.054
 3562SOL     OW10709   4.536   1.586   2.549
 3562SOL    HW110710   4.568   1.596   2.455
 3562SOL    HW210711   4.457   1.524   2.551
 3563SOL     OW10712   5.148   0.214   2.974
 3563SOL    HW110713   5.200   0.149   3.029
 3563SOL    HW210714   5.099   0.277   3.035
 3564SOL     OW10715   4.725   0.034   3.016
 3564SOL    HW110716   4.662  -0.038   2.985
 3564SOL    HW210717   4.818  -0.002   3.016
 3565SOL     OW10718   4.494   1.330   2.163
 3565SOL    HW110719   4.448   1.243   2.180
 3565SOL    HW210720   4.585   1.327   2.204
 3566SOL     OW10721   4.342   1.567   3.146
 3566SOL    HW110722   4.337   1.649   3.203
 3566SOL    HW210723   4.431   1.564   3.101
 3567SOL     OW10724   3.763   1.077   2.162
 3567SOL    HW110725   3.862   1.066   2.153
 3567SOL    HW210726   3.723   0.991   2.194
 3568SOL     OW10727   4.599   1.646   2.199
 3568SOL    HW110728   4.522   1.611   2.145
 3568SOL    HW210729   4.567   1.717   2.261
 3569SOL     OW10730   3.954   0.628   3.837
 3569SOL    HW110731   3.861   0.626   3.874
 3569SOL    HW210732   3.955   0.589   3.745
 3570SOL     OW10733   3.949   0.275   4.720
 3570SOL    HW110734   3.984   0.258   4.812
 3570SOL    HW210735   3.861   0.230   4.708
 3571SOL     OW10736   3.743   0.368   4.371
 3571SOL    HW110737   3.661   0.411   4.410
 3571SOL    HW210738   3.715   0.295   4.308
 3572SOL     OW10739   4.293   1.275   4.889
 3572SOL    HW110740   4.200   1.268   4.852
 3572SOL    HW210741   4.304   1.364   4.933
 3573SOL     OW10742   5.279   1.511   4.427
 3573SOL    HW110743   5.222   1.495   4.508
 3573SOL    HW210744   5.220   1.521   4.347
 3574SOL     OW10745   4.859   0.703   4.441
 3574SOL    HW110746   4.916   0.781   4.416
 3574SOL    HW210747   4.799   0.729   4.517
 3575SOL     OW10748   4.492   1.144   4.747
 3575SOL    HW110749   4.414   1.161   4.807
 3575SOL    HW210750   4.526   1.231   4.711
 3576SOL     OW10751   4.409   1.012   4.389
 3576SOL    HW110752   4.478   0.996   4.459
 3576SOL    HW210753   4.336   1.069   4.427
 3577SOL     OW10754   4.059   1.435   4.785
 3577SOL    HW110755   3.981   1.404   4.732
 3577SOL    HW210756   4.117   1.493   4.728
 3578SOL     OW10757   4.162   0.392   5.223
 3578SOL    HW110758   4.244   0.336   5.232
 3578SOL    HW210759   4.081   0.334   5.227
 3579SOL     OW10760   3.955   1.713   4.207
 3579SOL    HW110761   3.989   1.790   4.261
 3579SOL    HW210762   3.999   1.713   4.117
 3580SOL     OW10763   3.954   1.434   4.262
 3580SOL    HW110764   3.928   1.530   4.262
 3580SOL    HW210765   3.883   1.380   4.307
 3581SOL     OW10766   3.964   1.091   4.610
 3581SOL    HW110767   3.978   1.007   4.662
 3581SOL    HW210768   3.909   1.155   4.665
 3582SOL     OW10769   4.344   1.786   5.163
 3582SOL    HW110770   4.252   1.769   5.198
 3582SOL    HW210771   4.372   1.878   5.189
 3583SOL     OW10772   4.330   0.964   3.847
 3583SOL    HW110773   4.337   1.048   3.793
 3583SOL    HW210774   4.376   0.977   3.935
 3584SOL     OW10775   3.846   0.643   4.287
 3584SOL    HW110776   3.801   0.555   4.304
 3584SOL    HW210777   3.845   0.697   4.371
 3585SOL     OW10778   3.751   1.596   3.841
 3585SOL    HW110779   3.732   1.500   3.862
 3585SOL    HW210780   3.718   1.654   3.916
 3586SOL     OW10781   5.413   0.922   4.336
 3586SOL    HW110782   5.508   0.893   4.344
 3586SOL    HW210783   5.405   0.987   4.261
 3587SOL     OW10784   4.337   1.365   4.450
 3587SOL    HW110785   4.288   1.278   4.459
 3587SOL    HW210786   4.314   1.408   4.363
 3588SOL     OW10787   4.533   0.004   4.226
 3588SOL    HW110788   4.573   0.095   4.217
 3588SOL    HW210789   4.433   0.012   4.232
 3589SOL     OW10790   3.921   0.976   4.988
 3589SOL    HW110791   4.010   0.931   4.974
 3589SOL    HW210792   3.848   0.911   4.969
 3590SOL     OW10793   4.322   0.729   3.994
 3590SOL    HW110794   4.346   0.798   3.926
 3590SOL    HW210795   4.244   0.762   4.048
 3591SOL     OW10796   5.005   0.345   4.668
 3591SOL    HW110797   4.919   0.295   4.655
 3591SOL    HW210798   5.067   0.291   4.724
 3592SOL     OW10799   4.531   0.605   5.189
 3592SOL    HW110800   4.484   0.602   5.278
 3592SOL    HW210801   4.480   0.550   5.123
 3593SOL     OW10802   4.715   0.410   4.966
 3593SOL    HW110803   4.638   0.444   5.020
 3593SOL    HW210804   4.681   0.359   4.887
 3594SOL     OW10805   4.765   0.701   4.153
 3594SOL    HW110806   4.791   0.697   4.249
 3594SOL    HW210807   4.680   0.650   4.139
 3595SOL     OW10808   3.800   0.811   4.513
 3595SOL    HW110809   3.899   0.799   4.522
 3595SOL    HW210810   3.776   0.906   4.534
 3596SOL     OW10811   3.854   1.821   5.295
 3596SOL    HW110812   3.844   1.806   5.394
 3596SOL    HW210813   3.768   1.857   5.259
 3597SOL     OW10814   4.589   0.348   3.919
 3597SOL    HW110815   4.648   0.411   3.870
 3597SOL    HW210816   4.608   0.254   3.890
 3598SOL     OW10817   5.086   1.144   4.269
 3598SOL    HW110818   5.169   1.115   4.221
 3598SOL    HW210819   5.037   1.211   4.213
 3599SOL     OW10820   4.274   0.196   4.609
 3599SOL    HW110821   4.269   0.191   4.709
 3599SOL    HW210822   4.276   0.292   4.580
 3600SOL     OW10823   4.732   1.456   4.201
 3600SOL    HW110824   4.686   1.528   4.149
 3600SOL    HW210825   4.728   1.476   4.299
 3601SOL     OW10826   4.075   1.801   4.577
 3601SOL    HW110827   4.125   1.715   4.583
 3601SOL    HW210828   4.140   1.878   4.574
 3602SOL     OW10829   4.045   0.943   3.966
 3602SOL    HW110830   4.127   0.982   3.924
 3602SOL    HW210831   4.018   0.861   3.917
 3603SOL     OW10832   4.835   1.776   3.961
 3603SOL    HW110833   4.775   1.714   4.011
 3603SOL    HW210834   4.866   1.732   3.876
 3604SOL     OW10835   4.188   1.743   4.047
 3604SOL    HW110836   4.221   1.782   4.133
 3604SOL    HW210837   4.264   1.736   3.982
 3605SOL     OW10838   3.973   1.785   4.965
 3605SOL    HW110839   4.030   1.720   5.015
 3605SOL    HW210840   3.957   1.752   4.872
 3606SOL     OW10841   4.664   1.698   4.628
 3606SOL    HW110842   4.744   1.641   4.649
 3606SOL    HW210843   4.615   1.658   4.551
 3607SOL     OW10844   4.106   0.700   4.204
 3607SOL    HW110845   4.151   0.610   4.201
 3607SOL    HW210846   4.012   0.689   4.237
 3608SOL     OW10847   4.338   0.122   3.841
 3608SOL    HW110848   4.436   0.100   3.848
 3608SOL    HW210849   4.307   0.105   3.748
 3609SOL     OW10850   4.612   1.514   4.919
 3609SOL    HW110851   4.589   1.489   4.825
 3609SOL    HW210852   4.673   1.445   4.958
 3610SOL     OW10853   4.527   1.402   4.648
 3610SOL    HW110854   4.617   1.416   4.606
 3610SOL    HW210855   4.456   1.404   4.577
 3611SOL     OW10856   4.646   0.503   4.623
 3611SOL    HW110857   4.621   0.494   4.527
 3611SOL    HW210858   4.694   0.421   4.654
 3612SOL     OW10859   4.263   0.064   4.236
 3612SOL    HW110860   4.182   0.065   4.294
 3612SOL    HW210861   4.266   0.147   4.181
 3613SOL     OW10862   5.158   1.188   3.765
 3613SOL    HW110863   5.190   1.112   3.822
 3613SOL    HW210864   5.066   1.215   3.795
 3614SOL     OW10865   4.021   0.035   3.895
 3614SOL    HW110866   4.070   0.119   3.874
 3614SOL    HW210867   4.083  -0.030   3.940
 3615SOL     OW10868   4.659   0.236   4.204
 3615SOL    HW110869   4.611   0.277   4.126
 3615SOL    HW210870   4.758   0.234   4.185
 3616SOL     OW10871   4.951   1.570   4.517
 3616SOL    HW110872   4.972   1.644   4.452
 3616SOL    HW210873   5.019   1.570   4.590
 3617SOL     OW10874   4.183   1.152   4.465
 3617SOL    HW110875   4.112   1.125   4.530
 3617SOL    HW210876   4.157   1.124   4.372
 3618SOL     OW10877   4.995   1.797   4.315
 3618SOL    HW110878   5.039   1.861   4.251
 3618SOL    HW210879   4.945   1.849   4.385
 3619SOL     OW10880   4.756   0.549   3.740
 3619SOL    HW110881   4.715   0.631   3.701
 3619SOL    HW210882   4.820   0.575   3.813
 3620SOL     OW10883   4.285   0.222   4.871
 3620SOL    HW110884   4.323   0.138   4.908
 3620SOL    HW210885   4.197   0.241   4.915
 3621SOL     OW10886   4.590   0.454   4.366
 3621SOL    HW110887   4.558   0.526   4.304
 3621SOL    HW210888   4.614   0.373   4.313
 3622SOL     OW10889   4.741   0.039   4.477
 3622SOL    HW110890   4.669   0.044   4.408
 3622SOL    HW210891   4.717  -0.030   4.546
 3623SOL     OW10892   4.212   1.385   3.898
 3623SOL    HW110893   4.125   1.370   3.945
 3623SOL    HW210894   4.195   1.411   3.803
 3624SOL     OW10895   5.114   0.575   3.802
 3624SOL    HW110896   5.060   0.554   3.883
 3624SOL    HW210897   5.205   0.534   3.811
 3625SOL     OW10898   4.251   0.256   4.052
 3625SOL    HW110899   4.278   0.197   3.977
 3625SOL    HW210900   4.251   0.351   4.021
 3626SOL     OW10901   4.835   1.195   4.824
 3626SOL    HW110902   4.795   1.239   4.905
 3626SOL    HW210903   4.794   1.232   4.741
 3627SOL     OW10904   4.429   1.050   4.092
 3627SOL    HW110905   4.415   1.057   4.191
 3627SOL    HW210906   4.513   0.999   4.074
 3628SOL     OW10907   4.134   0.813   4.975
 3628SOL    HW110908   4.220   0.825   5.025
 3628SOL    HW210909   4.092   0.726   5.002
 3629SOL     OW10910   4.998   0.386   4.986
 3629SOL    HW110911   5.019   0.460   5.050
 3629SOL    HW210912   4.909   0.403   4.943
 3630SOL     OW10913   3.788   1.564   5.055
 3630SOL    HW110914   3.742   1.646   5.021
 3630SOL    HW210915   3.886   1.583   5.064
 3631SOL     OW10916   4.091   1.100   4.225
 3631SOL    HW110917   4.084   1.183   4.169
 3631SOL    HW210918   4.095   1.020   4.165
 3632SOL     OW10919   4.290   0.537   4.589
 3632SOL    HW110920   4.302   0.603   4.515
 3632SOL    HW210921   4.336   0.571   4.672
 3633SOL     OW10922   4.976   1.348   4.112
 3633SOL    HW110923   5.026   1.425   4.152
 3633SOL    HW210924   4.881   1.350   4.144
 3634SOL     OW10925   4.996   1.445   4.866
 3634SOL    HW110926   5.043   1.458   4.953
 3634SOL    HW210927   4.930   1.371   4.875
 3635SOL     OW10928   4.078   1.510   5.053
 3635SOL    HW110929   4.057   1.466   4.966
 3635SOL    HW210930   4.175   1.536   5.056
 3636SOL     OW10931   4.297   0.870   4.753
 3636SOL    HW110932   4.341   0.959   4.744
 3636SOL    HW210933   4.234   0.870   4.830
 3637SOL     OW10934   5.084   0.862   4.769
 3637SOL    HW110935   5.009   0.862   4.703
 3637SOL    HW210936   5.121   0.770   4.778
 3638SOL     OW10937   4.933   0.525   3.999
 3638SOL    HW110938   4.946   0.441   4.053
 3638SOL    HW210939   4.904   0.599   4.059
 3639SOL     OW10940   4.031   0.213   4.955
 3639SOL    HW110941   4.008   0.250   5.045
 3639SOL    HW210942   4.001   0.118   4.949
 3640SOL     OW10943   3.761   1.310   5.006
 3640SOL    HW110944   3.814   1.261   5.074
 3640SOL    HW210945   3.783   1.408   5.011
 3641SOL     OW10946   4.456   0.634   4.788
 3641SOL    HW110947   4.515   0.608   4.712
 3641SOL    HW210948   4.428   0.730   4.777
 3642SOL     OW10949   4.031   0.063   4.342
 3642SOL    HW110950   4.020   0.157   4.375
 3642SOL    HW210951   4.026   0.000   4.419
 3643SOL     OW10952   5.346   0.367   4.098
 3643SOL    HW110953   5.348   0.291   4.162
 3643SOL    HW210954   5.298   0.444   4.138
 3644SOL     OW10955   4.747   0.766   4.690
 3644SOL    HW110956   4.762   0.787   4.786
 3644SOL    HW210957   4.717   0.671   4.681
 3645SOL     OW10958   5.027   0.838   3.766
 3645SOL    HW110959   5.061   0.745   3.781
 3645SOL    HW210960   5.045   0.865   3.671
 3646SOL     OW10961   4.792   1.333   4.573
 3646SOL    HW110962   4.799   1.249   4.518
 3646SOL    HW210963   4.854   1.402   4.537
 3647SOL     OW10964   4.043   0.810   4.673
 3647SOL    HW110965   4.136   0.846   4.678
 3647SOL    HW210966   4.037   0.725   4.725
 3648SOL     OW10967   4.063   0.509   4.730
 3648SOL    HW110968   4.011   0.426   4.713
 3648SOL    HW210969   4.140   0.514   4.666
 3649SOL     OW10970   4.884   0.207   5.201
 3649SOL    HW110971   4.884   0.271   5.278
 3649SOL    HW210972   4.912   0.255   5.118
 3650SOL     OW10973   3.732   1.326   3.924
 3650SOL    HW110974   3.639   1.347   3.893
 3650SOL    HW210975   3.742   1.227   3.937
 3651SOL     OW10976   3.812   1.801   4.651
 3651SOL    HW110977   3.770   1.715   4.624
 3651SOL    HW210978   3.906   1.804   4.617
 3652SOL     OW10979   4.228   1.568   4.634
 3652SOL    HW110980   4.294   1.642   4.643
 3652SOL    HW210981   4.272   1.489   4.592
 3653SOL     OW10982   4.726   0.796   4.962
 3653SOL    HW110983   4.767   0.764   5.048
 3653SOL    HW210984   4.630   0.769   4.959
 3654SOL     OW10985   3.764   0.544   4.838
 3654SOL    HW110986   3.849   0.511   4.797
 3654SOL    HW210987   3.777   0.559   4.936
 3655SOL     OW10988   4.539   0.572   4.049
 3655SOL    HW110989   4.546   0.483   4.003
 3655SOL    HW210990   4.445   0.606   4.041
 3656SOL     OW10991   4.395   0.464   4.993
 3656SOL    HW110992   4.361   0.375   4.963
 3656SOL    HW210993   4.421   0.518   4.913
 3657SOL     OW10994   4.654   1.678   5.189
 3657SOL    HW110995   4.630   1.660   5.094
 3657SOL    HW210996   4.684   1.772   5.199
 3658SOL     OW10997   4.197   0.500   3.915
 3658SOL    HW110998   4.258   0.580   3.919
 3658SOL    HW210999   4.102   0.531   3.922
 3659SOL     OW11000   3.883   1.137   5.190
 3659SOL    HW111001   3.905   1.076   5.266
 3659SOL    HW211002   3.893   1.088   5.104
 3660SOL     OW11003   5.071   1.059   4.958
 3660SOL    HW111004   5.095   0.996   4.884
 3660SOL    HW211005   4.981   1.099   4.940
 3661SOL     OW11006   5.026   0.855   4.033
 3661SOL    HW111007   4.940   0.824   4.075
 3661SOL    HW211008   5.022   0.841   3.934
 3662SOL     OW11009   4.976   1.731   4.852
 3662SOL    HW111010   5.060   1.736   4.798
 3662SOL    HW211011   4.953   1.635   4.870
 3663SOL     OW11012   3.807   1.258   4.746
 3663SOL    HW111013   3.802   1.257   4.846
 3663SOL    HW211014   3.724   1.217   4.708
 3664SOL     OW11015   5.112   1.573   4.201
 3664SOL    HW111016   5.179   1.585   4.127
 3664SOL    HW211017   5.072   1.662   4.224
 3665SOL     OW11018   5.004   0.927   4.396
 3665SOL    HW111019   5.064   0.846   4.398
 3665SOL    HW211020   5.044   0.996   4.336
 3666SOL     OW11021   4.396   1.616   3.878
 3666SOL    HW111022   4.405   1.626   3.779
 3666SOL    HW211023   4.356   1.527   3.899
 3667SOL     OW11024   3.987   0.326   4.444
 3667SOL    HW111025   3.908   0.377   4.410
 3667SOL    HW211026   3.978   0.311   4.542
 3668SOL     OW11027   4.918   1.612   3.755
 3668SOL    HW111028   4.924   1.519   3.792
 3668SOL    HW211029   4.859   1.612   3.675
 3669SOL     OW11030   4.546   1.002   5.096
 3669SOL    HW111031   4.586   1.001   5.004
 3669SOL    HW211032   4.556   1.094   5.136
 3670SOL     OW11033   4.640   0.910   4.015
 3670SOL    HW111034   4.703   0.948   3.947
 3670SOL    HW211035   4.680   0.827   4.054
 3671SOL     OW11036   4.763   1.098   4.420
 3671SOL    HW111037   4.693   1.051   4.474
 3671SOL    HW211038   4.822   1.030   4.377
 3672SOL     OW11039   4.738   0.236   4.695
 3672SOL    HW111040   4.730   0.200   4.602
 3672SOL    HW211041   4.736   0.160   4.760
 3673SOL     OW11042   4.314   1.487   4.215
 3673SOL    HW111043   4.356   1.429   4.145
 3673SOL    HW211044   4.270   1.566   4.171
 3674SOL     OW11045   3.979   1.348   4.014
 3674SOL    HW111046   3.883   1.349   3.987
 3674SOL    HW211047   3.991   1.401   4.098
 3675SOL     OW11048   3.799   0.345   3.757
 3675SOL    HW111049   3.707   0.317   3.728
 3675SOL    HW211050   3.830   0.422   3.701
 3676SOL     OW11051   3.796   0.166   4.042
 3676SOL    HW111052   3.779   0.249   3.988
 3676SOL    HW211053   3.886   0.129   4.020
 3677SOL     OW11054   4.907   1.335   3.843
 3677SOL    HW111055   4.808   1.324   3.845
 3677SOL    HW211056   4.941   1.350   3.936
 3678SOL     OW11057   4.337   0.842   5.155
 3678SOL    HW111058   4.393   0.923   5.138
 3678SOL    HW211059   4.396   0.762   5.158
 3679SOL     OW11060   4.114   1.741   5.284
 3679SOL    HW111061   4.023   1.782   5.282
 3679SOL    HW211062   4.107   1.647   5.316
 3680SOL     OW11063   4.949   0.325   4.173
 3680SOL    HW111064   5.014   0.251   4.162
 3680SOL    HW211065   4.969   0.375   4.257
 3681SOL     OW11066   4.318   0.745   4.376
 3681SOL    HW111067   4.368   0.830   4.357
 3681SOL    HW211068   4.230   0.747   4.328
 3682SOL     OW11069   4.583   1.374   3.740
 3682SOL    HW111070   4.537   1.389   3.828
 3682SOL    HW211071   4.627   1.459   3.710
 3683SOL     OW11072   4.385   1.790   4.677
 3683SOL    HW111073   4.339   1.878   4.664
 3683SOL    HW211074   4.484   1.802   4.670
 3684SOL     OW11075   4.583   0.956   4.585
 3684SOL    HW111076   4.637   0.887   4.633
 3684SOL    HW211077   4.551   1.025   4.651
 3685SOL     OW11078   4.807   0.984   3.811
 3685SOL    HW111079   4.784   1.037   3.729
 3685SOL    HW211080   4.888   0.928   3.792
 3686SOL     OW11081   3.803   1.240   4.377
 3686SOL    HW111082   3.802   1.193   4.465
 3686SOL    HW211083   3.885   1.212   4.326
 3687SOL     OW11084   4.152   0.424   4.244
 3687SOL    HW111085   4.182   0.352   4.182
 3687SOL    HW211086   4.113   0.384   4.327
 3688SOL     OW11087   4.041   0.547   5.004
 3688SOL    HW111088   4.079   0.488   5.076
 3688SOL    HW211089   4.081   0.521   4.916
 3689SOL     OW11090   4.536   1.586   4.411
 3689SOL    HW111091   4.568   1.596   4.317
 3689SOL    HW211092   4.457   1.524   4.413
 3690SOL     OW11093   5.148   0.214   4.836
 3690SOL    HW111094   5.200   0.149   4.891
 3690SOL    HW211095   5.099   0.277   4.897
 3691SOL     OW11096   4.725   0.034   4.878
 3691SOL    HW111097   4.662  -0.038   4.847
 3691SOL    HW211098   4.818  -0.002   4.878
 3692SOL     OW11099   4.494   1.330   4.025
 3692SOL    HW111100   4.448   1.243   4.042
 3692SOL    HW211101   4.585   1.327   4.066
 3693SOL     OW11102   4.342   1.567   5.008
 3693SOL    HW111103   4.337   1.649   5.065
 3693SOL    HW211104   4.431   1.564   4.963
 3694SOL     OW11105   3.763   1.077   4.024
 3694SOL    HW111106   3.862   1.066   4.015
 3694SOL    HW211107   3.723   0.991   4.056
 3695SOL     OW11108   4.599   1.646   4.061
 3695SOL    HW111109   4.522   1.611   4.007
 3695SOL    HW211110   4.567   1.717   4.123
 3696SOL     OW11111   3.954   2.490   0.113
 3696SOL    HW111112   3.861   2.488   0.150
 3696SOL    HW211113   3.955   2.451   0.021
 3697SOL     OW11114   3.949   2.137   0.996
 3697SOL    HW111115   3.984   2.120   1.088
 3697SOL    HW211116   3.861   2.092   0.984
 3698SOL     OW11117   3.743   2.230   0.647
 3698SOL    HW111118   3.661   2.273   0.686
 3698SOL    HW211119   3.715   2.157   0.584
 3699SOL     OW11120   4.293   3.137   1.165
 3699SOL    HW111121   4.200   3.130   1.128
 3699SOL    HW211122   4.304   3.226   1.209
 3700SOL     OW11123   5.279   3.373   0.703
 3700SOL    HW111124   5.222   3.357   0.784
 3700SOL    HW211125   5.220   3.383   0.623
 3701SOL     OW11126   4.859   2.565   0.717
 3701SOL    HW111127   4.916   2.643   0.692
 3701SOL    HW211128   4.799   2.591   0.793
 3702SOL     OW11129   4.492   3.006   1.023
 3702SOL    HW111130   4.414   3.023   1.083
 3702SOL    HW211131   4.526   3.093   0.987
 3703SOL     OW11132   4.574   2.660   1.823
 3703SOL    HW111133   4.570   2.736   1.888
 3703SOL    HW211134   4.596   2.696   1.732
 3704SOL     OW11135   4.409   2.874   0.665
 3704SOL    HW111136   4.478   2.858   0.735
 3704SOL    HW211137   4.336   2.931   0.703
 3705SOL     OW11138   4.410   3.023   1.803
 3705SOL    HW111139   4.470   3.102   1.817
 3705SOL    HW211140   4.324   3.054   1.762
 3706SOL     OW11141   4.059   3.297   1.061
 3706SOL    HW111142   3.981   3.266   1.008
 3706SOL    HW211143   4.117   3.355   1.004
 3707SOL     OW11144   4.162   2.254   1.499
 3707SOL    HW111145   4.244   2.198   1.508
 3707SOL    HW211146   4.081   2.196   1.503
 3708SOL     OW11147   3.955   3.575   0.483
 3708SOL    HW111148   3.989   3.652   0.537
 3708SOL    HW211149   3.999   3.575   0.393
 3709SOL     OW11150   4.851   3.203   1.690
 3709SOL    HW111151   4.898   3.203   1.778
 3709SOL    HW211152   4.803   3.116   1.679
 3710SOL     OW11153   3.954   3.296   0.538
 3710SOL    HW111154   3.928   3.392   0.538
 3710SOL    HW211155   3.883   3.242   0.583
 3711SOL     OW11156   3.964   2.953   0.886
 3711SOL    HW111157   3.978   2.869   0.938
 3711SOL    HW211158   3.909   3.017   0.941
 3712SOL     OW11159   4.344   3.648   1.439
 3712SOL    HW111160   4.252   3.631   1.474
 3712SOL    HW211161   4.372   3.740   1.465
 3713SOL     OW11162   4.330   2.826   0.123
 3713SOL    HW111163   4.337   2.910   0.069
 3713SOL    HW211164   4.376   2.839   0.211
 3714SOL     OW11165   3.846   2.505   0.563
 3714SOL    HW111166   3.801   2.417   0.580
 3714SOL    HW211167   3.845   2.559   0.647
 3715SOL     OW11168   3.751   3.458   0.117
 3715SOL    HW111169   3.732   3.362   0.138
 3715SOL    HW211170   3.718   3.516   0.192
 3716SOL     OW11171   5.413   2.784   0.612
 3716SOL    HW111172   5.508   2.755   0.620
 3716SOL    HW211173   5.405   2.849   0.537
 3717SOL     OW11174   3.837   2.599   1.597
 3717SOL    HW111175   3.925   2.586   1.642
 3717SOL    HW211176   3.824   2.696   1.575
 3718SOL     OW11177   4.337   3.227   0.726
 3718SOL    HW111178   4.288   3.140   0.735
 3718SOL    HW211179   4.314   3.270   0.639
 3719SOL     OW11180   5.017   3.090   1.423
 3719SOL    HW111181   5.054   3.017   1.365
 3719SOL    HW211182   5.069   3.095   1.508
 3720SOL     OW11183   4.533   1.866   0.502
 3720SOL    HW111184   4.573   1.957   0.493
 3720SOL    HW211185   4.433   1.874   0.508
 3721SOL     OW11186   3.921   2.838   1.264
 3721SOL    HW111187   4.010   2.793   1.250
 3721SOL    HW211188   3.848   2.773   1.245
 3722SOL     OW11189   4.911   3.654   1.616
 3722SOL    HW111190   4.935   3.714   1.540
 3722SOL    HW211191   4.918   3.559   1.586
 3723SOL     OW11192   4.041   2.113   1.801
 3723SOL    HW111193   4.112   2.184   1.807
 3723SOL    HW211194   3.953   2.152   1.829
 3724SOL     OW11195   4.322   2.591   0.270
 3724SOL    HW111196   4.346   2.660   0.202
 3724SOL    HW211197   4.244   2.624   0.324
 3725SOL     OW11198   5.005   2.207   0.944
 3725SOL    HW111199   4.919   2.157   0.931
 3725SOL    HW211200   5.067   2.153   1.000
 3726SOL     OW11201   4.531   2.467   1.465
 3726SOL    HW111202   4.484   2.464   1.554
 3726SOL    HW211203   4.480   2.412   1.399
 3727SOL     OW11204   5.118   2.331   1.674
 3727SOL    HW111205   5.098   2.374   1.762
 3727SOL    HW211206   5.196   2.269   1.683
 3728SOL     OW11207   4.697   2.752   1.572
 3728SOL    HW111208   4.743   2.668   1.543
 3728SOL    HW211209   4.641   2.786   1.497
 3729SOL     OW11210   4.715   2.272   1.242
 3729SOL    HW111211   4.638   2.306   1.296
 3729SOL    HW211212   4.681   2.221   1.163
 3730SOL     OW11213   4.765   2.563   0.429
 3730SOL    HW111214   4.791   2.559   0.525
 3730SOL    HW211215   4.680   2.512   0.415
 3731SOL     OW11216   3.800   2.673   0.789
 3731SOL    HW111217   3.899   2.661   0.798
 3731SOL    HW211218   3.776   2.768   0.810
 3732SOL     OW11219   3.854   3.683   1.571
 3732SOL    HW111220   3.844   3.668   1.670
 3732SOL    HW211221   3.768   3.719   1.535
 3733SOL     OW11222   4.589   2.210   0.195
 3733SOL    HW111223   4.648   2.273   0.146
 3733SOL    HW211224   4.608   2.116   0.166
 3734SOL     OW11225   5.086   3.006   0.545
 3734SOL    HW111226   5.169   2.977   0.497
 3734SOL    HW211227   5.037   3.073   0.489
 3735SOL     OW11228   4.274   2.058   0.885
 3735SOL    HW111229   4.269   2.053   0.985
 3735SOL    HW211230   4.276   2.154   0.856
 3736SOL     OW11231   4.732   3.318   0.477
 3736SOL    HW111232   4.686   3.390   0.425
 3736SOL    HW211233   4.728   3.338   0.575
 3737SOL     OW11234   4.075   3.663   0.853
 3737SOL    HW111235   4.125   3.577   0.859
 3737SOL    HW211236   4.140   3.740   0.850
 3738SOL     OW11237   4.951   3.412   1.506
 3738SOL    HW111238   4.957   3.335   1.570
 3738SOL    HW211239   4.899   3.386   1.426
 3739SOL     OW11240   4.045   2.805   0.242
 3739SOL    HW111241   4.127   2.844   0.200
 3739SOL    HW211242   4.018   2.723   0.193
 3740SOL     OW11243   4.185   3.128   1.727
 3740SOL    HW111244   4.135   3.129   1.641
 3740SOL    HW211245   4.122   3.110   1.803
 3741SOL     OW11246   4.835   3.638   0.237
 3741SOL    HW111247   4.775   3.576   0.287
 3741SOL    HW211248   4.866   3.594   0.152
 3742SOL     OW11249   3.926   2.147   1.498
 3742SOL    HW111250   3.846   2.207   1.485
 3742SOL    HW211251   3.916   2.098   1.584
 3743SOL     OW11252   5.356   3.239   0.081
 3743SOL    HW111253   5.324   3.333   0.071
 3743SOL    HW211254   5.280   3.176   0.069
 3744SOL     OW11255   4.188   3.605   0.323
 3744SOL    HW111256   4.221   3.644   0.409
 3744SOL    HW211257   4.264   3.598   0.258
 3745SOL     OW11258   3.973   3.647   1.241
 3745SOL    HW111259   4.030   3.582   1.291
 3745SOL    HW211260   3.957   3.614   1.148
 3746SOL     OW11261   4.664   3.560   0.904
 3746SOL    HW111262   4.744   3.503   0.925
 3746SOL    HW211263   4.615   3.520   0.827
 3747SOL     OW11264   4.106   2.562   0.480
 3747SOL    HW111265   4.151   2.472   0.477
 3747SOL    HW211266   4.012   2.551   0.513
 3748SOL     OW11267   4.505   2.126   1.749
 3748SOL    HW111268   4.572   2.065   1.792
 3748SOL    HW211269   4.432   2.145   1.814
 3749SOL     OW11270   4.612   3.376   1.195
 3749SOL    HW111271   4.589   3.351   1.101
 3749SOL    HW211272   4.673   3.307   1.234
 3750SOL     OW11273   5.075   2.452   1.433
 3750SOL    HW111274   5.103   2.409   1.518
 3750SOL    HW211275   5.100   2.548   1.434
 3751SOL     OW11276   4.527   3.264   0.924
 3751SOL    HW111277   4.617   3.278   0.882
 3751SOL    HW211278   4.456   3.266   0.853
 3752SOL     OW11279   4.646   2.365   0.899
 3752SOL    HW111280   4.621   2.356   0.803
 3752SOL    HW211281   4.694   2.283   0.930
 3753SOL     OW11282   4.263   1.926   0.512
 3753SOL    HW111283   4.182   1.927   0.570
 3753SOL    HW211284   4.266   2.009   0.457
 3754SOL     OW11285   5.158   3.050   0.041
 3754SOL    HW111286   5.190   2.974   0.098
 3754SOL    HW211287   5.066   3.077   0.071
 3755SOL     OW11288   4.659   2.098   0.480
 3755SOL    HW111289   4.611   2.139   0.402
 3755SOL    HW211290   4.758   2.096   0.461
 3756SOL     OW11291   4.800   2.545   1.464
 3756SOL    HW111292   4.720   2.484   1.467
 3756SOL    HW211293   4.881   2.492   1.440
 3757SOL     OW11294   4.951   3.432   0.793
 3757SOL    HW111295   4.972   3.506   0.728
 3757SOL    HW211296   5.019   3.432   0.866
 3758SOL     OW11297   4.183   3.014   0.741
 3758SOL    HW111298   4.112   2.987   0.806
 3758SOL    HW211299   4.157   2.986   0.648
 3759SOL     OW11300   4.995   3.659   0.591
 3759SOL    HW111301   5.039   3.723   0.527
 3759SOL    HW211302   4.945   3.711   0.661
 3760SOL     OW11303   4.756   2.411   0.016
 3760SOL    HW111304   4.715   2.493  -0.023
 3760SOL    HW211305   4.820   2.437   0.089
 3761SOL     OW11306   3.802   2.418   1.386
 3761SOL    HW111307   3.894   2.417   1.345
 3761SOL    HW211308   3.796   2.492   1.453
 3762SOL     OW11309   4.285   2.084   1.147
 3762SOL    HW111310   4.323   2.000   1.184
 3762SOL    HW211311   4.197   2.103   1.191
 3763SOL     OW11312   4.590   2.316   0.642
 3763SOL    HW111313   4.558   2.388   0.580
 3763SOL    HW211314   4.614   2.235   0.589
 3764SOL     OW11315   4.741   1.901   0.753
 3764SOL    HW111316   4.669   1.906   0.684
 3764SOL    HW211317   4.717   1.832   0.822
 3765SOL     OW11318   4.212   3.247   0.174
 3765SOL    HW111319   4.125   3.232   0.221
 3765SOL    HW211320   4.195   3.273   0.079
 3766SOL     OW11321   5.114   2.437   0.078
 3766SOL    HW111322   5.060   2.416   0.159
 3766SOL    HW211323   5.205   2.396   0.087
 3767SOL     OW11324   4.251   2.118   0.328
 3767SOL    HW111325   4.278   2.059   0.253
 3767SOL    HW211326   4.251   2.213   0.297
 3768SOL     OW11327   4.788   3.209   1.340
 3768SOL    HW111328   4.708   3.186   1.395
 3768SOL    HW211329   4.871   3.183   1.389
 3769SOL     OW11330   4.835   3.057   1.100
 3769SOL    HW111331   4.795   3.101   1.181
 3769SOL    HW211332   4.794   3.094   1.017
 3770SOL     OW11333   4.639   1.951   1.402
 3770SOL    HW111334   4.664   1.931   1.307
 3770SOL    HW211335   4.711   2.007   1.444
 3771SOL     OW11336   4.704   2.978   1.719
 3771SOL    HW111337   4.605   2.984   1.729
 3771SOL    HW211338   4.727   2.898   1.663
 3772SOL     OW11339   4.429   2.912   0.368
 3772SOL    HW111340   4.415   2.919   0.467
 3772SOL    HW211341   4.513   2.861   0.350
 3773SOL     OW11342   4.134   2.675   1.251
 3773SOL    HW111343   4.220   2.687   1.301
 3773SOL    HW211344   4.092   2.588   1.278
 3774SOL     OW11345   4.998   2.248   1.262
 3774SOL    HW111346   5.019   2.322   1.326
 3774SOL    HW211347   4.909   2.265   1.219
 3775SOL     OW11348   3.788   3.426   1.331
 3775SOL    HW111349   3.742   3.508   1.297
 3775SOL    HW211350   3.886   3.445   1.340
 3776SOL     OW11351   4.091   2.962   0.501
 3776SOL    HW111352   4.084   3.045   0.445
 3776SOL    HW211353   4.095   2.882   0.441
 3777SOL     OW11354   4.290   2.399   0.865
 3777SOL    HW111355   4.302   2.465   0.791
 3777SOL    HW211356   4.336   2.433   0.948
 3778SOL     OW11357   4.976   3.210   0.388
 3778SOL    HW111358   5.026   3.287   0.428
 3778SOL    HW211359   4.881   3.212   0.420
 3779SOL     OW11360   4.996   3.307   1.142
 3779SOL    HW111361   5.043   3.320   1.229
 3779SOL    HW211362   4.930   3.233   1.151
 3780SOL     OW11363   4.078   3.372   1.329
 3780SOL    HW111364   4.057   3.328   1.242
 3780SOL    HW211365   4.175   3.398   1.332
 3781SOL     OW11366   4.126   2.613   1.598
 3781SOL    HW111367   4.194   2.668   1.551
 3781SOL    HW211368   4.166   2.525   1.625
 3782SOL     OW11369   4.737   1.967   1.770
 3782SOL    HW111370   4.743   2.052   1.718
 3782SOL    HW211371   4.769   1.891   1.713
 3783SOL     OW11372   4.228   1.912   1.740
 3783SOL    HW111373   4.186   1.855   1.670
 3783SOL    HW211374   4.162   1.981   1.772
 3784SOL     OW11375   4.297   2.732   1.029
 3784SOL    HW111376   4.341   2.821   1.020
 3784SOL    HW211377   4.234   2.732   1.106
 3785SOL     OW11378   5.084   2.724   1.045
 3785SOL    HW111379   5.009   2.724   0.979
 3785SOL    HW211380   5.121   2.632   1.054
 3786SOL     OW11381   4.933   2.387   0.275
 3786SOL    HW111382   4.946   2.303   0.329
 3786SOL    HW211383   4.904   2.461   0.335
 3787SOL     OW11384   4.031   2.075   1.231
 3787SOL    HW111385   4.008   2.112   1.321
 3787SOL    HW211386   4.001   1.980   1.225
 3788SOL     OW11387   3.761   3.172   1.282
 3788SOL    HW111388   3.814   3.123   1.350
 3788SOL    HW211389   3.783   3.270   1.287
 3789SOL     OW11390   4.456   2.496   1.064
 3789SOL    HW111391   4.515   2.470   0.988
 3789SOL    HW211392   4.428   2.592   1.053
 3790SOL     OW11393   4.031   1.925   0.618
 3790SOL    HW111394   4.020   2.019   0.651
 3790SOL    HW211395   4.026   1.862   0.695
 3791SOL     OW11396   5.346   2.229   0.374
 3791SOL    HW111397   5.348   2.153   0.438
 3791SOL    HW211398   5.298   2.306   0.414
 3792SOL     OW11399   4.747   2.628   0.966
 3792SOL    HW111400   4.762   2.649   1.062
 3792SOL    HW211401   4.717   2.533   0.957
 3793SOL     OW11402   4.704   3.435   1.700
 3793SOL    HW111403   4.684   3.479   1.612
 3793SOL    HW211404   4.743   3.344   1.684
 3794SOL     OW11405   4.074   2.760   1.804
 3794SOL    HW111406   4.150   2.804   1.852
 3794SOL    HW211407   4.109   2.713   1.722
 3795SOL     OW11408   5.027   2.700   0.042
 3795SOL    HW111409   5.061   2.607   0.057
 3795SOL    HW211410   5.045   2.727  -0.053
 3796SOL     OW11411   4.792   3.195   0.849
 3796SOL    HW111412   4.799   3.111   0.794
 3796SOL    HW211413   4.854   3.264   0.813
 3797SOL     OW11414   4.043   2.672   0.949
 3797SOL    HW111415   4.136   2.708   0.954
 3797SOL    HW211416   4.037   2.587   1.001
 3798SOL     OW11417   4.063   2.371   1.006
 3798SOL    HW111418   4.011   2.288   0.989
 3798SOL    HW211419   4.140   2.376   0.942
 3799SOL     OW11420   4.862   2.242   1.678
 3799SOL    HW111421   4.817   2.305   1.742
 3799SOL    HW211422   4.955   2.273   1.661
 3800SOL     OW11423   4.884   2.069   1.477
 3800SOL    HW111424   4.884   2.133   1.554
 3800SOL    HW211425   4.912   2.117   1.394
 3801SOL     OW11426   3.812   3.663   0.927
 3801SOL    HW111427   3.770   3.577   0.900
 3801SOL    HW211428   3.906   3.666   0.893
 3802SOL     OW11429   4.228   3.430   0.910
 3802SOL    HW111430   4.294   3.504   0.919
 3802SOL    HW211431   4.272   3.351   0.868
 3803SOL     OW11432   4.726   2.658   1.238
 3803SOL    HW111433   4.767   2.626   1.324
 3803SOL    HW211434   4.630   2.631   1.235
 3804SOL     OW11435   3.764   2.406   1.114
 3804SOL    HW111436   3.849   2.373   1.073
 3804SOL    HW211437   3.777   2.421   1.212
 3805SOL     OW11438   3.913   2.382   1.722
 3805SOL    HW111439   3.972   2.342   1.652
 3805SOL    HW211440   3.855   2.453   1.681
 3806SOL     OW11441   4.539   2.434   0.325
 3806SOL    HW111442   4.546   2.345   0.279
 3806SOL    HW211443   4.445   2.468   0.317
 3807SOL     OW11444   3.976   3.426   1.744
 3807SOL    HW111445   3.946   3.483   1.820
 3807SOL    HW211446   3.969   3.329   1.770
 3808SOL     OW11447   4.395   2.326   1.269
 3808SOL    HW111448   4.361   2.237   1.239
 3808SOL    HW211449   4.421   2.380   1.189
 3809SOL     OW11450   4.654   3.540   1.465
 3809SOL    HW111451   4.630   3.522   1.370
 3809SOL    HW211452   4.684   3.634   1.475
 3810SOL     OW11453   4.197   2.362   0.191
 3810SOL    HW111454   4.258   2.442   0.195
 3810SOL    HW211455   4.102   2.393   0.198
 3811SOL     OW11456   3.883   2.999   1.466
 3811SOL    HW111457   3.905   2.938   1.542
 3811SOL    HW211458   3.893   2.950   1.380
 3812SOL     OW11459   5.071   2.921   1.234
 3812SOL    HW111460   5.095   2.858   1.160
 3812SOL    HW211461   4.981   2.961   1.216
 3813SOL     OW11462   5.026   2.717   0.309
 3813SOL    HW111463   4.940   2.686   0.351
 3813SOL    HW211464   5.022   2.703   0.210
 3814SOL     OW11465   4.976   3.593   1.128
 3814SOL    HW111466   5.060   3.598   1.074
 3814SOL    HW211467   4.953   3.497   1.146
 3815SOL     OW11468   3.807   3.120   1.022
 3815SOL    HW111469   3.802   3.119   1.122
 3815SOL    HW211470   3.724   3.079   0.984
 3816SOL     OW11471   4.412   3.524   1.716
 3816SOL    HW111472   4.356   3.605   1.725
 3816SOL    HW211473   4.464   3.528   1.630
 3817SOL     OW11474   4.627   1.948   0.133
 3817SOL    HW111475   4.678   1.949   0.047
 3817SOL    HW211476   4.683   1.906   0.204
 3818SOL     OW11477   5.112   3.435   0.477
 3818SOL    HW111478   5.179   3.447   0.403
 3818SOL    HW211479   5.072   3.524   0.500
 3819SOL     OW11480   3.854   3.656   1.851
 3819SOL    HW111481   3.813   3.582   1.904
 3819SOL    HW211482   3.918   3.707   1.909
 3820SOL     OW11483   5.004   2.789   0.672
 3820SOL    HW111484   5.064   2.708   0.674
 3820SOL    HW211485   5.044   2.858   0.612
 3821SOL     OW11486   4.554   3.135   1.422
 3821SOL    HW111487   4.549   3.168   1.517
 3821SOL    HW211488   4.468   3.154   1.376
 3822SOL     OW11489   4.396   3.478   0.154
 3822SOL    HW111490   4.405   3.488   0.055
 3822SOL    HW211491   4.356   3.389   0.175
 3823SOL     OW11492   3.987   2.188   0.720
 3823SOL    HW111493   3.908   2.239   0.686
 3823SOL    HW211494   3.978   2.173   0.818
 3824SOL     OW11495   4.918   3.474   0.031
 3824SOL    HW111496   4.924   3.381   0.068
 3824SOL    HW211497   4.859   3.474  -0.049
 3825SOL     OW11498   4.546   2.864   1.372
 3825SOL    HW111499   4.586   2.863   1.280
 3825SOL    HW211500   4.556   2.956   1.412
 3826SOL     OW11501   4.640   2.772   0.291
 3826SOL    HW111502   4.703   2.810   0.223
 3826SOL    HW211503   4.680   2.689   0.330
 3827SOL     OW11504   4.096   3.150   1.490
 3827SOL    HW111505   4.083   3.243   1.456
 3827SOL    HW211506   4.012   3.098   1.477
 3828SOL     OW11507   4.763   2.960   0.696
 3828SOL    HW111508   4.693   2.913   0.750
 3828SOL    HW211509   4.822   2.892   0.653
 3829SOL     OW11510   4.738   2.098   0.971
 3829SOL    HW111511   4.730   2.062   0.878
 3829SOL    HW211512   4.736   2.022   1.036
 3830SOL     OW11513   4.314   3.349   0.491
 3830SOL    HW111514   4.356   3.291   0.421
 3830SOL    HW211515   4.270   3.428   0.447
 3831SOL     OW11516   3.979   3.210   0.290
 3831SOL    HW111517   3.883   3.211   0.263
 3831SOL    HW211518   3.991   3.263   0.374
 3832SOL     OW11519   3.829   2.875   1.726
 3832SOL    HW111520   3.752   2.842   1.780
 3832SOL    HW211521   3.914   2.845   1.768
 3833SOL     OW11522   4.396   2.065   1.489
 3833SOL    HW111523   4.486   2.049   1.449
 3833SOL    HW211524   4.404   2.070   1.588
 3834SOL     OW11525   3.799   2.207   0.033
 3834SOL    HW111526   3.707   2.179   0.004
 3834SOL    HW211527   3.830   2.284  -0.023
 3835SOL     OW11528   5.164   2.718   1.398
 3835SOL    HW111529   5.107   2.770   1.335
 3835SOL    HW211530   5.260   2.730   1.374
 3836SOL     OW11531   3.796   2.028   0.318
 3836SOL    HW111532   3.779   2.111   0.264
 3836SOL    HW211533   3.886   1.991   0.296
 3837SOL     OW11534   4.907   3.197   0.119
 3837SOL    HW111535   4.808   3.186   0.121
 3837SOL    HW211536   4.941   3.212   0.212
 3838SOL     OW11537   4.337   2.704   1.431
 3838SOL    HW111538   4.393   2.785   1.414
 3838SOL    HW211539   4.396   2.624   1.434
 3839SOL     OW11540   4.440   2.427   1.708
 3839SOL    HW111541   4.459   2.492   1.782
 3839SOL    HW211542   4.500   2.347   1.717
 3840SOL     OW11543   5.174   3.082   1.633
 3840SOL    HW111544   5.165   3.072   1.732
 3840SOL    HW211545   5.270   3.075   1.607
 3841SOL     OW11546   4.114   3.603   1.560
 3841SOL    HW111547   4.023   3.644   1.558
 3841SOL    HW211548   4.107   3.509   1.592
 3842SOL     OW11549   4.949   2.187   0.449
 3842SOL    HW111550   5.014   2.113   0.438
 3842SOL    HW211551   4.969   2.237   0.533
 3843SOL     OW11552   4.318   2.607   0.652
 3843SOL    HW111553   4.368   2.692   0.633
 3843SOL    HW211554   4.230   2.609   0.604
 3844SOL     OW11555   4.583   3.236   0.016
 3844SOL    HW111556   4.537   3.251   0.104
 3844SOL    HW211557   4.627   3.321  -0.014
 3845SOL     OW11558   4.385   3.652   0.953
 3845SOL    HW111559   4.339   3.740   0.940
 3845SOL    HW211560   4.484   3.664   0.946
 3846SOL     OW11561   4.583   2.818   0.861
 3846SOL    HW111562   4.637   2.749   0.909
 3846SOL    HW211563   4.551   2.887   0.927
 3847SOL     OW11564   4.807   2.846   0.087
 3847SOL    HW111565   4.784   2.899   0.005
 3847SOL    HW211566   4.888   2.790   0.068
 3848SOL     OW11567   3.945   3.176   1.844
 3848SOL    HW111568   3.880   3.103   1.823
 3848SOL    HW211569   3.949   3.190   1.942
 3849SOL     OW11570   3.803   3.102   0.653
 3849SOL    HW111571   3.802   3.055   0.741
 3849SOL    HW211572   3.885   3.074   0.602
 3850SOL     OW11573   4.396   3.253   1.624
 3850SOL    HW111574   4.318   3.203   1.662
 3850SOL    HW211575   4.393   3.348   1.655
 3851SOL     OW11576   4.152   2.286   0.520
 3851SOL    HW111577   4.182   2.214   0.458
 3851SOL    HW211578   4.113   2.246   0.603
 3852SOL     OW11579   4.041   2.409   1.280
 3852SOL    HW111580   4.079   2.350   1.352
 3852SOL    HW211581   4.081   2.383   1.192
 3853SOL     OW11582   4.536   3.448   0.687
 3853SOL    HW111583   4.568   3.458   0.593
 3853SOL    HW211584   4.457   3.386   0.689
 3854SOL     OW11585   5.148   2.076   1.112
 3854SOL    HW111586   5.200   2.011   1.167
 3854SOL    HW211587   5.099   2.139   1.173
 3855SOL     OW11588   4.725   1.896   1.154
 3855SOL    HW111589   4.662   1.824   1.123
 3855SOL    HW211590   4.818   1.860   1.154
 3856SOL     OW11591   4.494   3.192   0.301
 3856SOL    HW111592   4.448   3.105   0.318
 3856SOL    HW211593   4.585   3.189   0.342
 3857SOL     OW11594   4.342   3.429   1.284
 3857SOL    HW111595   4.337   3.511   1.341
 3857SOL    HW211596   4.431   3.426   1.239
 3858SOL     OW11597   3.763   2.939   0.300
 3858SOL    HW111598   3.862   2.928   0.291
 3858SOL    HW211599   3.723   2.853   0.332
 3859SOL     OW11600   4.599   3.508   0.337
 3859SOL    HW111601   4.522   3.473   0.283
 3859SOL    HW211602   4.567   3.579   0.399
 3860SOL     OW11603   3.954   2.490   1.975
 3860SOL    HW111604   3.861   2.488   2.012
 3860SOL    HW211605   3.955   2.451   1.883
 3861SOL     OW11606   3.949   2.137   2.858
 3861SOL    HW111607   3.984   2.120   2.950
 3861SOL    HW211608   3.861   2.092   2.846
 3862SOL     OW11609   3.743   2.230   2.509
 3862SOL    HW111610   3.661   2.273   2.548
 3862SOL    HW211611   3.715   2.157   2.446
 3863SOL     OW11612   4.293   3.137   3.027
 3863SOL    HW111613   4.200   3.130   2.990
 3863SOL    HW211614   4.304   3.226   3.071
 3864SOL     OW11615   5.279   3.373   2.565
 3864SOL    HW111616   5.222   3.357   2.646
 3864SOL    HW211617   5.220   3.383   2.485
 3865SOL     OW11618   4.859   2.565   2.579
 3865SOL    HW111619   4.916   2.643   2.554
 3865SOL    HW211620   4.799   2.591   2.655
 3866SOL     OW11621   4.492   3.006   2.885
 3866SOL    HW111622   4.414   3.023   2.945
 3866SOL    HW211623   4.526   3.093   2.849
 3867SOL     OW11624   4.574   2.660   3.685
 3867SOL    HW111625   4.570   2.736   3.750
 3867SOL    HW211626   4.596   2.696   3.594
 3868SOL     OW11627   4.409   2.874   2.527
 3868SOL    HW111628   4.478   2.858   2.597
 3868SOL    HW211629   4.336   2.931   2.565
 3869SOL     OW11630   4.410   3.023   3.665
 3869SOL    HW111631   4.470   3.102   3.679
 3869SOL    HW211632   4.324   3.054   3.624
 3870SOL     OW11633   4.059   3.297   2.923
 3870SOL    HW111634   3.981   3.266   2.870
 3870SOL    HW211635   4.117   3.355   2.866
 3871SOL     OW11636   4.162   2.254   3.361
 3871SOL    HW111637   4.244   2.198   3.370
 3871SOL    HW211638   4.081   2.196   3.365
 3872SOL     OW11639   3.955   3.575   2.345
 3872SOL    HW111640   3.989   3.652   2.399
 3872SOL    HW211641   3.999   3.575   2.255
 3873SOL     OW11642   4.851   3.203   3.552
 3873SOL    HW111643   4.898   3.203   3.640
 3873SOL    HW211644   4.803   3.116   3.541
 3874SOL     OW11645   3.954   3.296   2.400
 3874SOL    HW111646   3.928   3.392   2.400
 3874SOL    HW211647   3.883   3.242   2.445
 3875SOL     OW11648   3.964   2.953   2.748
 3875SOL    HW111649   3.978   2.869   2.800
 3875SOL    HW211650   3.909   3.017   2.803
 3876SOL     OW11651   4.344   3.648   3.301
 3876SOL    HW111652   4.252   3.631   3.336
 3876SOL    HW211653   4.372   3.740   3.327
 3877SOL     OW11654   4.330   2.826   1.985
 3877SOL    HW111655   4.337   2.910   1.931
 3877SOL    HW211656   4.376   2.839   2.073
 3878SOL     OW11657   3.846   2.505   2.425
 3878SOL    HW111658   3.801   2.417   2.442
 3878SOL    HW211659   3.845   2.559   2.509
 3879SOL     OW11660   3.751   3.458   1.979
 3879SOL    HW111661   3.732   3.362   2.000
 3879SOL    HW211662   3.718   3.516   2.054
 3880SOL     OW11663   5.413   2.784   2.474
 3880SOL    HW111664   5.508   2.755   2.482
 3880SOL    HW211665   5.405   2.849   2.399
 3881SOL     OW11666   3.837   2.599   3.459
 3881SOL    HW111667   3.925   2.586   3.504
 3881SOL    HW211668   3.824   2.696   3.437
 3882SOL     OW11669   4.337   3.227   2.588
 3882SOL    HW111670   4.288   3.140   2.597
 3882SOL    HW211671   4.314   3.270   2.501
 3883SOL     OW11672   5.017   3.090   3.285
 3883SOL    HW111673   5.054   3.017   3.227
 3883SOL    HW211674   5.069   3.095   3.370
 3884SOL     OW11675   4.533   1.866   2.364
 3884SOL    HW111676   4.573   1.957   2.355
 3884SOL    HW211677   4.433   1.874   2.370
 3885SOL     OW11678   3.921   2.838   3.126
 3885SOL    HW111679   4.010   2.793   3.112
 3885SOL    HW211680   3.848   2.773   3.107
 3886SOL     OW11681   4.911   3.654   3.478
 3886SOL    HW111682   4.935   3.714   3.402
 3886SOL    HW211683   4.918   3.559   3.448
 3887SOL     OW11684   4.041   2.113   3.663
 3887SOL    HW111685   4.112   2.184   3.669
 3887SOL    HW211686   3.953   2.152   3.691
 3888SOL     OW11687   4.322   2.591   2.132
 3888SOL    HW111688   4.346   2.660   2.064
 3888SOL    HW211689   4.244   2.624   2.186
 3889SOL     OW11690   5.005   2.207   2.806
 3889SOL    HW111691   4.919   2.157   2.793
 3889SOL    HW211692   5.067   2.153   2.862
 3890SOL     OW11693   4.531   2.467   3.327
 3890SOL    HW111694   4.484   2.464   3.416
 3890SOL    HW211695   4.480   2.412   3.261
 3891SOL     OW11696   5.118   2.331   3.536
 3891SOL    HW111697   5.098   2.374   3.624
 3891SOL    HW211698   5.196   2.269   3.545
 3892SOL     OW11699   4.697   2.752   3.434
 3892SOL    HW111700   4.743   2.668   3.405
 3892SOL    HW211701   4.641   2.786   3.359
 3893SOL     OW11702   4.715   2.272   3.104
 3893SOL    HW111703   4.638   2.306   3.158
 3893SOL    HW211704   4.681   2.221   3.025
 3894SOL     OW11705   4.765   2.563   2.291
 3894SOL    HW111706   4.791   2.559   2.387
 3894SOL    HW211707   4.680   2.512   2.277
 3895SOL     OW11708   3.800   2.673   2.651
 3895SOL    HW111709   3.899   2.661   2.660
 3895SOL    HW211710   3.776   2.768   2.672
 3896SOL     OW11711   3.854   3.683   3.433
 3896SOL    HW111712   3.844   3.668   3.532
 3896SOL    HW211713   3.768   3.719   3.397
 3897SOL     OW11714   4.589   2.210   2.057
 3897SOL    HW111715   4.648   2.273   2.008
 3897SOL    HW211716   4.608   2.116   2.028
 3898SOL     OW11717   5.086   3.006   2.407
 3898SOL    HW111718   5.169   2.977   2.359
 3898SOL    HW211719   5.037   3.073   2.351
 3899SOL     OW11720   4.274   2.058   2.747
 3899SOL    HW111721   4.269   2.053   2.847
 3899SOL    HW211722   4.276   2.154   2.718
 3900SOL     OW11723   4.732   3.318   2.339
 3900SOL    HW111724   4.686   3.390   2.287
 3900SOL    HW211725   4.728   3.338   2.437
 3901SOL     OW11726   4.075   3.663   2.715
 3901SOL    HW111727   4.125   3.577   2.721
 3901SOL    HW211728   4.140   3.740   2.712
 3902SOL     OW11729   4.951   3.412   3.368
 3902SOL    HW111730   4.957   3.335   3.432
 3902SOL    HW211731   4.899   3.386   3.288
 3903SOL     OW11732   4.045   2.805   2.104
 3903SOL    HW111733   4.127   2.844   2.062
 3903SOL    HW211734   4.018   2.723   2.055
 3904SOL     OW11735   4.185   3.128   3.589
 3904SOL    HW111736   4.135   3.129   3.503
 3904SOL    HW211737   4.122   3.110   3.665
 3905SOL     OW11738   4.835   3.638   2.099
 3905SOL    HW111739   4.775   3.576   2.149
 3905SOL    HW211740   4.866   3.594   2.014
 3906SOL     OW11741   3.926   2.147   3.360
 3906SOL    HW111742   3.846   2.207   3.347
 3906SOL    HW211743   3.916   2.098   3.446
 3907SOL     OW11744   4.188   3.605   2.185
 3907SOL    HW111745   4.221   3.644   2.271
 3907SOL    HW211746   4.264   3.598   2.120
 3908SOL     OW11747   3.973   3.647   3.103
 3908SOL    HW111748   4.030   3.582   3.153
 3908SOL    HW211749   3.957   3.614   3.010
 3909SOL     OW11750   4.664   3.560   2.766
 3909SOL    HW111751   4.744   3.503   2.787
 3909SOL    HW211752   4.615   3.520   2.689
 3910SOL     OW11753   4.106   2.562   2.342
 3910SOL    HW111754   4.151   2.472   2.339
 3910SOL    HW211755   4.012   2.551   2.375
 3911SOL     OW11756   4.338   1.984   1.979
 3911SOL    HW111757   4.436   1.962   1.986
 3911SOL    HW211758   4.307   1.967   1.886
 3912SOL     OW11759   4.505   2.126   3.611
 3912SOL    HW111760   4.572   2.065   3.654
 3912SOL    HW211761   4.432   2.145   3.676
 3913SOL     OW11762   4.612   3.376   3.057
 3913SOL    HW111763   4.589   3.351   2.963
 3913SOL    HW211764   4.673   3.307   3.096
 3914SOL     OW11765   5.075   2.452   3.295
 3914SOL    HW111766   5.103   2.409   3.380
 3914SOL    HW211767   5.100   2.548   3.296
 3915SOL     OW11768   4.527   3.264   2.786
 3915SOL    HW111769   4.617   3.278   2.744
 3915SOL    HW211770   4.456   3.266   2.715
 3916SOL     OW11771   4.646   2.365   2.761
 3916SOL    HW111772   4.621   2.356   2.665
 3916SOL    HW211773   4.694   2.283   2.792
 3917SOL     OW11774   4.263   1.926   2.374
 3917SOL    HW111775   4.182   1.927   2.432
 3917SOL    HW211776   4.266   2.009   2.319
 3918SOL     OW11777   5.158   3.050   1.903
 3918SOL    HW111778   5.190   2.974   1.960
 3918SOL    HW211779   5.066   3.077   1.933
 3919SOL     OW11780   4.021   1.897   2.033
 3919SOL    HW111781   4.070   1.981   2.012
 3919SOL    HW211782   4.083   1.832   2.078
 3920SOL     OW11783   4.659   2.098   2.342
 3920SOL    HW111784   4.611   2.139   2.264
 3920SOL    HW211785   4.758   2.096   2.323
 3921SOL     OW11786   4.800   2.545   3.326
 3921SOL    HW111787   4.720   2.484   3.329
 3921SOL    HW211788   4.881   2.492   3.302
 3922SOL     OW11789   4.951   3.432   2.655
 3922SOL    HW111790   4.972   3.506   2.590
 3922SOL    HW211791   5.019   3.432   2.728
 3923SOL     OW11792   4.183   3.014   2.603
 3923SOL    HW111793   4.112   2.987   2.668
 3923SOL    HW211794   4.157   2.986   2.510
 3924SOL     OW11795   4.995   3.659   2.453
 3924SOL    HW111796   5.039   3.723   2.389
 3924SOL    HW211797   4.945   3.711   2.523
 3925SOL     OW11798   4.756   2.411   1.878
 3925SOL    HW111799   4.715   2.493   1.839
 3925SOL    HW211800   4.820   2.437   1.951
 3926SOL     OW11801   3.802   2.418   3.248
 3926SOL    HW111802   3.894   2.417   3.207
 3926SOL    HW211803   3.796   2.492   3.315
 3927SOL     OW11804   4.285   2.084   3.009
 3927SOL    HW111805   4.323   2.000   3.046
 3927SOL    HW211806   4.197   2.103   3.053
 3928SOL     OW11807   4.590   2.316   2.504
 3928SOL    HW111808   4.558   2.388   2.442
 3928SOL    HW211809   4.614   2.235   2.451
 3929SOL     OW11810   4.741   1.901   2.615
 3929SOL    HW111811   4.669   1.906   2.546
 3929SOL    HW211812   4.717   1.832   2.684
 3930SOL     OW11813   4.212   3.247   2.036
 3930SOL    HW111814   4.125   3.232   2.083
 3930SOL    HW211815   4.195   3.273   1.941
 3931SOL     OW11816   5.114   2.437   1.940
 3931SOL    HW111817   5.060   2.416   2.021
 3931SOL    HW211818   5.205   2.396   1.949
 3932SOL     OW11819   4.251   2.118   2.190
 3932SOL    HW111820   4.278   2.059   2.115
 3932SOL    HW211821   4.251   2.213   2.159
 3933SOL     OW11822   4.788   3.209   3.202
 3933SOL    HW111823   4.708   3.186   3.257
 3933SOL    HW211824   4.871   3.183   3.251
 3934SOL     OW11825   4.835   3.057   2.962
 3934SOL    HW111826   4.795   3.101   3.043
 3934SOL    HW211827   4.794   3.094   2.879
 3935SOL     OW11828   4.639   1.951   3.264
 3935SOL    HW111829   4.664   1.931   3.169
 3935SOL    HW211830   4.711   2.007   3.306
 3936SOL     OW11831   4.704   2.978   3.581
 3936SOL    HW111832   4.605   2.984   3.591
 3936SOL    HW211833   4.727   2.898   3.525
 3937SOL     OW11834   4.429   2.912   2.230
 3937SOL    HW111835   4.415   2.919   2.329
 3937SOL    HW211836   4.513   2.861   2.212
 3938SOL     OW11837   4.134   2.675   3.113
 3938SOL    HW111838   4.220   2.687   3.163
 3938SOL    HW211839   4.092   2.588   3.140
 3939SOL     OW11840   4.998   2.248   3.124
 3939SOL    HW111841   5.019   2.322   3.188
 3939SOL    HW211842   4.909   2.265   3.081
 3940SOL     OW11843   3.788   3.426   3.193
 3940SOL    HW111844   3.742   3.508   3.159
 3940SOL    HW211845   3.886   3.445   3.202
 3941SOL     OW11846   4.091   2.962   2.363
 3941SOL    HW111847   4.084   3.045   2.307
 3941SOL    HW211848   4.095   2.882   2.303
 3942SOL     OW11849   4.290   2.399   2.727
 3942SOL    HW111850   4.302   2.465   2.653
 3942SOL    HW211851   4.336   2.433   2.810
 3943SOL     OW11852   4.976   3.210   2.250
 3943SOL    HW111853   5.026   3.287   2.290
 3943SOL    HW211854   4.881   3.212   2.282
 3944SOL     OW11855   4.996   3.307   3.004
 3944SOL    HW111856   5.043   3.320   3.091
 3944SOL    HW211857   4.930   3.233   3.013
 3945SOL     OW11858   4.078   3.372   3.191
 3945SOL    HW111859   4.057   3.328   3.104
 3945SOL    HW211860   4.175   3.398   3.194
 3946SOL     OW11861   4.126   2.613   3.460
 3946SOL    HW111862   4.194   2.668   3.413
 3946SOL    HW211863   4.166   2.525   3.487
 3947SOL     OW11864   4.737   1.967   3.632
 3947SOL    HW111865   4.743   2.052   3.580
 3947SOL    HW211866   4.769   1.891   3.575
 3948SOL     OW11867   4.228   1.912   3.602
 3948SOL    HW111868   4.186   1.855   3.532
 3948SOL    HW211869   4.162   1.981   3.634
 3949SOL     OW11870   4.297   2.732   2.891
 3949SOL    HW111871   4.341   2.821   2.882
 3949SOL    HW211872   4.234   2.732   2.968
 3950SOL     OW11873   5.084   2.724   2.907
 3950SOL    HW111874   5.009   2.724   2.841
 3950SOL    HW211875   5.121   2.632   2.916
 3951SOL     OW11876   4.933   2.387   2.137
 3951SOL    HW111877   4.946   2.303   2.191
 3951SOL    HW211878   4.904   2.461   2.197
 3952SOL     OW11879   4.031   2.075   3.093
 3952SOL    HW111880   4.008   2.112   3.183
 3952SOL    HW211881   4.001   1.980   3.087
 3953SOL     OW11882   3.761   3.172   3.144
 3953SOL    HW111883   3.814   3.123   3.212
 3953SOL    HW211884   3.783   3.270   3.149
 3954SOL     OW11885   4.456   2.496   2.926
 3954SOL    HW111886   4.515   2.470   2.850
 3954SOL    HW211887   4.428   2.592   2.915
 3955SOL     OW11888   4.031   1.925   2.480
 3955SOL    HW111889   4.020   2.019   2.513
 3955SOL    HW211890   4.026   1.862   2.557
 3956SOL     OW11891   5.346   2.229   2.236
 3956SOL    HW111892   5.348   2.153   2.300
 3956SOL    HW211893   5.298   2.306   2.276
 3957SOL     OW11894   4.747   2.628   2.828
 3957SOL    HW111895   4.762   2.649   2.924
 3957SOL    HW211896   4.717   2.533   2.819
 3958SOL     OW11897   4.704   3.435   3.562
 3958SOL    HW111898   4.684   3.479   3.474
 3958SOL    HW211899   4.743   3.344   3.546
 3959SOL     OW11900   4.074   2.760   3.666
 3959SOL    HW111901   4.150   2.804   3.714
 3959SOL    HW211902   4.109   2.713   3.584
 3960SOL     OW11903   5.027   2.700   1.904
 3960SOL    HW111904   5.061   2.607   1.919
 3960SOL    HW211905   5.045   2.727   1.809
 3961SOL     OW11906   4.792   3.195   2.711
 3961SOL    HW111907   4.799   3.111   2.656
 3961SOL    HW211908   4.854   3.264   2.675
 3962SOL     OW11909   4.043   2.672   2.811
 3962SOL    HW111910   4.136   2.708   2.816
 3962SOL    HW211911   4.037   2.587   2.863
 3963SOL     OW11912   4.063   2.371   2.868
 3963SOL    HW111913   4.011   2.288   2.851
 3963SOL    HW211914   4.140   2.376   2.804
 3964SOL     OW11915   4.862   2.242   3.540
 3964SOL    HW111916   4.817   2.305   3.604
 3964SOL    HW211917   4.955   2.273   3.523
 3965SOL     OW11918   4.884   2.069   3.339
 3965SOL    HW111919   4.884   2.133   3.416
 3965SOL    HW211920   4.912   2.117   3.256
 3966SOL     OW11921   3.732   3.188   2.062
 3966SOL    HW111922   3.639   3.209   2.031
 3966SOL    HW211923   3.742   3.089   2.075
 3967SOL     OW11924   3.812   3.663   2.789
 3967SOL    HW111925   3.770   3.577   2.762
 3967SOL    HW211926   3.906   3.666   2.755
 3968SOL     OW11927   4.228   3.430   2.772
 3968SOL    HW111928   4.294   3.504   2.781
 3968SOL    HW211929   4.272   3.351   2.730
 3969SOL     OW11930   4.726   2.658   3.100
 3969SOL    HW111931   4.767   2.626   3.186
 3969SOL    HW211932   4.630   2.631   3.097
 3970SOL     OW11933   3.764   2.406   2.976
 3970SOL    HW111934   3.849   2.373   2.935
 3970SOL    HW211935   3.777   2.421   3.074
 3971SOL     OW11936   3.913   2.382   3.584
 3971SOL    HW111937   3.972   2.342   3.514
 3971SOL    HW211938   3.855   2.453   3.543
 3972SOL     OW11939   4.539   2.434   2.187
 3972SOL    HW111940   4.546   2.345   2.141
 3972SOL    HW211941   4.445   2.468   2.179
 3973SOL     OW11942   3.976   3.426   3.606
 3973SOL    HW111943   3.946   3.483   3.682
 3973SOL    HW211944   3.969   3.329   3.632
 3974SOL     OW11945   4.395   2.326   3.131
 3974SOL    HW111946   4.361   2.237   3.101
 3974SOL    HW211947   4.421   2.380   3.051
 3975SOL     OW11948   4.654   3.540   3.327
 3975SOL    HW111949   4.630   3.522   3.232
 3975SOL    HW211950   4.684   3.634   3.337
 3976SOL     OW11951   4.197   2.362   2.053
 3976SOL    HW111952   4.258   2.442   2.057
 3976SOL    HW211953   4.102   2.393   2.060
 3977SOL     OW11954   3.883   2.999   3.328
 3977SOL    HW111955   3.905   2.938   3.404
 3977SOL    HW211956   3.893   2.950   3.242
 3978SOL     OW11957   5.071   2.921   3.096
 3978SOL    HW111958   5.095   2.858   3.022
 3978SOL    HW211959   4.981   2.961   3.078
 3979SOL     OW11960   5.026   2.717   2.171
 3979SOL    HW111961   4.940   2.686   2.213
 3979SOL    HW211962   5.022   2.703   2.072
 3980SOL     OW11963   4.976   3.593   2.990
 3980SOL    HW111964   5.060   3.598   2.936
 3980SOL    HW211965   4.953   3.497   3.008
 3981SOL     OW11966   3.807   3.120   2.884
 3981SOL    HW111967   3.802   3.119   2.984
 3981SOL    HW211968   3.724   3.079   2.846
 3982SOL     OW11969   4.412   3.524   3.578
 3982SOL    HW111970   4.356   3.605   3.587
 3982SOL    HW211971   4.464   3.528   3.492
 3983SOL     OW11972   5.112   3.435   2.339
 3983SOL    HW111973   5.179   3.447   2.265
 3983SOL    HW211974   5.072   3.524   2.362
 3984SOL     OW11975   3.854   3.656   3.713
 3984SOL    HW111976   3.813   3.582   3.766
 3984SOL    HW211977   3.918   3.707   3.771
 3985SOL     OW11978   5.004   2.789   2.534
 3985SOL    HW111979   5.064   2.708   2.536
 3985SOL    HW211980   5.044   2.858   2.474
 3986SOL     OW11981   4.554   3.135   3.284
 3986SOL    HW111982   4.549   3.168   3.379
 3986SOL    HW211983   4.468   3.154   3.238
 3987SOL     OW11984   4.396   3.478   2.016
 3987SOL    HW111985   4.405   3.488   1.917
 3987SOL    HW211986   4.356   3.389   2.037
 3988SOL     OW11987   3.987   2.188   2.582
 3988SOL    HW111988   3.908   2.239   2.548
 3988SOL    HW211989   3.978   2.173   2.680
 3989SOL     OW11990   4.918   3.474   1.893
 3989SOL    HW111991   4.924   3.381   1.930
 3989SOL    HW211992   4.859   3.474   1.813
 3990SOL     OW11993   4.546   2.864   3.234
 3990SOL    HW111994   4.586   2.863   3.142
 3990SOL    HW211995   4.556   2.956   3.274
 3991SOL     OW11996   4.640   2.772   2.153
 3991SOL    HW111997   4.703   2.810   2.085
 3991SOL    HW211998   4.680   2.689   2.192
 3992SOL     OW11999   4.096   3.150   3.352
 3992SOL    HW112000   4.083   3.243   3.318
 3992SOL    HW212001   4.012   3.098   3.339
 3993SOL     OW12002   4.763   2.960   2.558
 3993SOL    HW112003   4.693   2.913   2.612
 3993SOL    HW212004   4.822   2.892   2.515
 3994SOL     OW12005   4.738   2.098   2.833
 3994SOL    HW112006   4.730   2.062   2.740
 3994SOL    HW212007   4.736   2.022   2.898
 3995SOL     OW12008   4.314   3.349   2.353
 3995SOL    HW112009   4.356   3.291   2.283
 3995SOL    HW212010   4.270   3.428   2.309
 3996SOL     OW12011   3.979   3.210   2.152
 3996SOL    HW112012   3.883   3.211   2.125
 3996SOL    HW212013   3.991   3.263   2.236
 3997SOL     OW12014   3.829   2.875   3.588
 3997SOL    HW112015   3.752   2.842   3.642
 3997SOL    HW212016   3.914   2.845   3.630
 3998SOL     OW12017   4.396   2.065   3.351
 3998SOL    HW112018   4.486   2.049   3.311
 3998SOL    HW212019   4.404   2.070   3.450
 3999SOL     OW12020   3.799   2.207   1.895
 3999SOL    HW112021   3.707   2.179   1.866
 3999SOL    HW212022   3.830   2.284   1.839
 4000SOL     OW12023   5.164   2.718   3.260
 4000SOL    HW112024   5.107   2.770   3.197
 4000SOL    HW212025   5.260   2.730   3.236
 4001SOL     OW12026   3.796   2.028   2.180
 4001SOL    HW112027   3.779   2.111   2.126
 4001SOL    HW212028   3.886   1.991   2.158
 4002SOL     OW12029   4.907   3.197   1.981
 4002SOL    HW112030   4.808   3.186   1.983
 4002SOL    HW212031   4.941   3.212   2.074
 4003SOL     OW12032   4.337   2.704   3.293
 4003SOL    HW112033   4.393   2.785   3.276
 4003SOL    HW212034   4.396   2.624   3.296
 4004SOL     OW12035   4.440   2.427   3.570
 4004SOL    HW112036   4.459   2.492   3.644
 4004SOL    HW212037   4.500   2.347   3.579
 4005SOL     OW12038   5.174   3.082   3.495
 4005SOL    HW112039   5.165   3.072   3.594
 4005SOL    HW212040   5.270   3.075   3.469
 4006SOL     OW12041   4.114   3.603   3.422
 4006SOL    HW112042   4.023   3.644   3.420
 4006SOL    HW212043   4.107   3.509   3.454
 4007SOL     OW12044   4.949   2.187   2.311
 4007SOL    HW112045   5.014   2.113   2.300
 4007SOL    HW212046   4.969   2.237   2.395
 4008SOL     OW12047   4.318   2.607   2.514
 4008SOL    HW112048   4.368   2.692   2.495
 4008SOL    HW212049   4.230   2.609   2.466
 4009SOL     OW12050   4.583   3.236   1.878
 4009SOL    HW112051   4.537   3.251   1.966
 4009SOL    HW212052   4.627   3.321   1.848
 4010SOL     OW12053   4.385   3.652   2.815
 4010SOL    HW112054   4.339   3.740   2.802
 4010SOL    HW212055   4.484   3.664   2.808
 4011SOL     OW12056   4.583   2.818   2.723
 4011SOL    HW112057   4.637   2.749   2.771
 4011SOL    HW212058   4.551   2.887   2.789
 4012SOL     OW12059   4.807   2.846   1.949
 4012SOL    HW112060   4.784   2.899   1.867
 4012SOL    HW212061   4.888   2.790   1.930
 4013SOL     OW12062   3.945   3.176   3.706
 4013SOL    HW112063   3.880   3.103   3.685
 4013SOL    HW212064   3.949   3.190   3.804
 4014SOL     OW12065   3.803   3.102   2.515
 4014SOL    HW112066   3.802   3.055   2.603
 4014SOL    HW212067   3.885   3.074   2.464
 4015SOL     OW12068   4.396   3.253   3.486
 4015SOL    HW112069   4.318   3.203   3.524
 4015SOL    HW212070   4.393   3.348   3.517
 4016SOL     OW12071   4.152   2.286   2.382
 4016SOL    HW112072   4.182   2.214   2.320
 4016SOL    HW212073   4.113   2.246   2.465
 4017SOL     OW12074   4.041   2.409   3.142
 4017SOL    HW112075   4.079   2.350   3.214
 4017SOL    HW212076   4.081   2.383   3.054
 4018SOL     OW12077   4.536   3.448   2.549
 4018SOL    HW112078   4.568   3.458   2.455
 4018SOL    HW212079   4.457   3.386   2.551
 4019SOL     OW12080   5.148   2.076   2.974
 4019SOL    HW112081   5.200   2.011   3.029
 4019SOL    HW212082   5.099   2.139   3.035
 4020SOL     OW12083   4.725   1.896   3.016
 4020SOL    HW112084   4.662   1.824   2.985
 4020SOL    HW212085   4.818   1.860   3.016
 4021SOL     OW12086   4.494   3.192   2.163
 4021SOL    HW112087   4.448   3.105   2.180
 4021SOL    HW212088   4.585   3.189   2.204
 4022SOL     OW12089   4.342   3.429   3.146
 4022SOL    HW112090   4.337   3.511   3.203
 4022SOL    HW212091   4.431   3.426   3.101
 4023SOL     OW12092   5.076   1.914   2.030
 4023SOL    HW112093   5.111   1.873   1.946
 4023SOL    HW212094   4.986   1.876   2.050
 4024SOL     OW12095   3.763   2.939   2.162
 4024SOL    HW112096   3.862   2.928   2.153
 4024SOL    HW212097   3.723   2.853   2.194
 4025SOL     OW12098   4.599   3.508   2.199
 4025SOL    HW112099   4.522   3.473   2.145
 4025SOL    HW212100   4.567   3.579   2.261
 4026SOL     OW12101   3.954   2.490   3.837
 4026SOL    HW112102   3.861   2.488   3.874
 4026SOL    HW212103   3.955   2.451   3.745
 4027SOL     OW12104   3.949   2.137   4.720
 4027SOL    HW112105   3.984   2.120   4.812
 4027SOL    HW212106   3.861   2.092   4.708
 4028SOL     OW12107   3.743   2.230   4.371
 4028SOL    HW112108   3.661   2.273   4.410
 4028SOL    HW212109   3.715   2.157   4.308
 4029SOL     OW12110   4.293   3.137   4.889
 4029SOL    HW112111   4.200   3.130   4.852
 4029SOL    HW212112   4.304   3.226   4.933
 4030SOL     OW12113   5.279   3.373   4.427
 4030SOL    HW112114   5.222   3.357   4.508
 4030SOL    HW212115   5.220   3.383   4.347
 4031SOL     OW12116   4.859   2.565   4.441
 4031SOL    HW112117   4.916   2.643   4.416
 4031SOL    HW212118   4.799   2.591   4.517
 4032SOL     OW12119   4.492   3.006   4.747
 4032SOL    HW112120   4.414   3.023   4.807
 4032SOL    HW212121   4.526   3.093   4.711
 4033SOL     OW12122   4.409   2.874   4.389
 4033SOL    HW112123   4.478   2.858   4.459
 4033SOL    HW212124   4.336   2.931   4.427
 4034SOL     OW12125   4.059   3.297   4.785
 4034SOL    HW112126   3.981   3.266   4.732
 4034SOL    HW212127   4.117   3.355   4.728
 4035SOL     OW12128   4.162   2.254   5.223
 4035SOL    HW112129   4.244   2.198   5.232
 4035SOL    HW212130   4.081   2.196   5.227
 4036SOL     OW12131   3.955   3.575   4.207
 4036SOL    HW112132   3.989   3.652   4.261
 4036SOL    HW212133   3.999   3.575   4.117
 4037SOL     OW12134   3.954   3.296   4.262
 4037SOL    HW112135   3.928   3.392   4.262
 4037SOL    HW212136   3.883   3.242   4.307
 4038SOL     OW12137   3.964   2.953   4.610
 4038SOL    HW112138   3.978   2.869   4.662
 4038SOL    HW212139   3.909   3.017   4.665
 4039SOL     OW12140   4.344   3.648   5.163
 4039SOL    HW112141   4.252   3.631   5.198
 4039SOL    HW212142   4.372   3.740   5.189
 4040SOL     OW12143   4.330   2.826   3.847
 4040SOL    HW112144   4.337   2.910   3.793
 4040SOL    HW212145   4.376   2.839   3.935
 4041SOL     OW12146   5.318   1.976   5.204
 4041SOL    HW112147   5.300   2.043   5.132
 4041SOL    HW212148   5.315   2.022   5.293
 4042SOL     OW12149   3.846   2.505   4.287
 4042SOL    HW112150   3.801   2.417   4.304
 4042SOL    HW212151   3.845   2.559   4.371
 4043SOL     OW12152   3.751   3.458   3.841
 4043SOL    HW112153   3.732   3.362   3.862
 4043SOL    HW212154   3.718   3.516   3.916
 4044SOL     OW12155   5.413   2.784   4.336
 4044SOL    HW112156   5.508   2.755   4.344
 4044SOL    HW212157   5.405   2.849   4.261
 4045SOL     OW12158   4.337   3.227   4.450
 4045SOL    HW112159   4.288   3.140   4.459
 4045SOL    HW212160   4.314   3.270   4.363
 4046SOL     OW12161   4.533   1.866   4.226
 4046SOL    HW112162   4.573   1.957   4.217
 4046SOL    HW212163   4.433   1.874   4.232
 4047SOL     OW12164   3.921   2.838   4.988
 4047SOL    HW112165   4.010   2.793   4.974
 4047SOL    HW212166   3.848   2.773   4.969
 4048SOL     OW12167   4.322   2.591   3.994
 4048SOL    HW112168   4.346   2.660   3.926
 4048SOL    HW212169   4.244   2.624   4.048
 4049SOL     OW12170   5.005   2.207   4.668
 4049SOL    HW112171   4.919   2.157   4.655
 4049SOL    HW212172   5.067   2.153   4.724
 4050SOL     OW12173   4.531   2.467   5.189
 4050SOL    HW112174   4.484   2.464   5.278
 4050SOL    HW212175   4.480   2.412   5.123
 4051SOL     OW12176   4.715   2.272   4.966
 4051SOL    HW112177   4.638   2.306   5.020
 4051SOL    HW212178   4.681   2.221   4.887
 4052SOL     OW12179   4.765   2.563   4.153
 4052SOL    HW112180   4.791   2.559   4.249
 4052SOL    HW212181   4.680   2.512   4.139
 4053SOL     OW12182   3.800   2.673   4.513
 4053SOL    HW112183   3.899   2.661   4.522
 4053SOL    HW212184   3.776   2.768   4.534
 4054SOL     OW12185   3.854   3.683   5.295
 4054SOL    HW112186   3.844   3.668   5.394
 4054SOL    HW212187   3.768   3.719   5.259
 4055SOL     OW12188   4.589   2.210   3.919
 4055SOL    HW112189   4.648   2.273   3.870
 4055SOL    HW212190   4.608   2.116   3.890
 4056SOL     OW12191   5.086   3.006   4.269
 4056SOL    HW112192   5.169   2.977   4.221
 4056SOL    HW212193   5.037   3.073   4.213
 4057SOL     OW12194   4.274   2.058   4.609
 4057SOL    HW112195   4.269   2.053   4.709
 4057SOL    HW212196   4.276   2.154   4.580
 4058SOL     OW12197   4.732   3.318   4.201
 4058SOL    HW112198   4.686   3.390   4.149
 4058SOL    HW212199   4.728   3.338   4.299
 4059SOL     OW12200   4.075   3.663   4.577
 4059SOL    HW112201   4.125   3.577   4.583
 4059SOL    HW212202   4.140   3.740   4.574
 4060SOL     OW12203   4.045   2.805   3.966
 4060SOL    HW112204   4.127   2.844   3.924
 4060SOL    HW212205   4.018   2.723   3.917
 4061SOL     OW12206   4.835   3.638   3.961
 4061SOL    HW112207   4.775   3.576   4.011
 4061SOL    HW212208   4.866   3.594   3.876
 4062SOL     OW12209   4.188   3.605   4.047
 4062SOL    HW112210   4.221   3.644   4.133
 4062SOL    HW212211   4.264   3.598   3.982
 4063SOL     OW12212   3.973   3.647   4.965
 4063SOL    HW112213   4.030   3.582   5.015
 4063SOL    HW212214   3.957   3.614   4.872
 4064SOL     OW12215   4.664   3.560   4.628
 4064SOL    HW112216   4.744   3.503   4.649
 4064SOL    HW212217   4.615   3.520   4.551
 4065SOL     OW12218   4.106   2.562   4.204
 4065SOL    HW112219   4.151   2.472   4.201
 4065SOL    HW212220   4.012   2.551   4.237
 4066SOL     OW12221   4.338   1.984   3.841
 4066SOL    HW112222   4.436   1.962   3.848
 4066SOL    HW212223   4.307   1.967   3.748
 4067SOL     OW12224   4.612   3.376   4.919
 4067SOL    HW112225   4.589   3.351   4.825
 4067SOL    HW212226   4.673   3.307   4.958
 4068SOL     OW12227   4.527   3.264   4.648
 4068SOL    HW112228   4.617   3.278   4.606
 4068SOL    HW212229   4.456   3.266   4.577
 4069SOL     OW12230   4.646   2.365   4.623
 4069SOL    HW112231   4.621   2.356   4.527
 4069SOL    HW212232   4.694   2.283   4.654
 4070SOL     OW12233   4.263   1.926   4.236
 4070SOL    HW112234   4.182   1.927   4.294
 4070SOL    HW212235   4.266   2.009   4.181
 4071SOL     OW12236   5.158   3.050   3.765
 4071SOL    HW112237   5.190   2.974   3.822
 4071SOL    HW212238   5.066   3.077   3.795
 4072SOL     OW12239   4.021   1.897   3.895
 4072SOL    HW112240   4.070   1.981   3.874
 4072SOL    HW212241   4.083   1.832   3.940
 4073SOL     OW12242   4.659   2.098   4.204
 4073SOL    HW112243   4.611   2.139   4.126
 4073SOL    HW212244   4.758   2.096   4.185
 4074SOL     OW12245   4.951   3.432   4.517
 4074SOL    HW112246   4.972   3.506   4.452
 4074SOL    HW212247   5.019   3.432   4.590
 4075SOL     OW12248   4.183   3.014   4.465
 4075SOL    HW112249   4.112   2.987   4.530
 4075SOL    HW212250   4.157   2.986   4.372
 4076SOL     OW12251   4.995   3.659   4.315
 4076SOL    HW112252   5.039   3.723   4.251
 4076SOL    HW212253   4.945   3.711   4.385
 4077SOL     OW12254   4.756   2.411   3.740
 4077SOL    HW112255   4.715   2.493   3.701
 4077SOL    HW212256   4.820   2.437   3.813
 4078SOL     OW12257   4.285   2.084   4.871
 4078SOL    HW112258   4.323   2.000   4.908
 4078SOL    HW212259   4.197   2.103   4.915
 4079SOL     OW12260   4.590   2.316   4.366
 4079SOL    HW112261   4.558   2.388   4.304
 4079SOL    HW212262   4.614   2.235   4.313
 4080SOL     OW12263   4.741   1.901   4.477
 4080SOL    HW112264   4.669   1.906   4.408
 4080SOL    HW212265   4.717   1.832   4.546
 4081SOL     OW12266   4.212   3.247   3.898
 4081SOL    HW112267   4.125   3.232   3.945
 4081SOL    HW212268   4.195   3.273   3.803
 4082SOL     OW12269   5.114   2.437   3.802
 4082SOL    HW112270   5.060   2.416   3.883
 4082SOL    HW212271   5.205   2.396   3.811
 4083SOL     OW12272   4.251   2.118   4.052
 4083SOL    HW112273   4.278   2.059   3.977
 4083SOL    HW212274   4.251   2.213   4.021
 4084SOL     OW12275   4.835   3.057   4.824
 4084SOL    HW112276   4.795   3.101   4.905
 4084SOL    HW212277   4.794   3.094   4.741
 4085SOL     OW12278   4.429   2.912   4.092
 4085SOL    HW112279   4.415   2.919   4.191
 4085SOL    HW212280   4.513   2.861   4.074
 4086SOL     OW12281   4.134   2.675   4.975
 4086SOL    HW112282   4.220   2.687   5.025
 4086SOL    HW212283   4.092   2.588   5.002
 4087SOL     OW12284   4.998   2.248   4.986
 4087SOL    HW112285   5.019   2.322   5.050
 4087SOL    HW212286   4.909   2.265   4.943
 4088SOL     OW12287   3.788   3.426   5.055
 4088SOL    HW112288   3.742   3.508   5.021
 4088SOL    HW212289   3.886   3.445   5.064
 4089SOL     OW12290   4.091   2.962   4.225
 4089SOL    HW112291   4.084   3.045   4.169
 4089SOL    HW212292   4.095   2.882   4.165
 4090SOL     OW12293   4.290   2.399   4.589
 4090SOL    HW112294   4.302   2.465   4.515
 4090SOL    HW212295   4.336   2.433   4.672
 4091SOL     OW12296   4.976   3.210   4.112
 4091SOL    HW112297   5.026   3.287   4.152
 4091SOL    HW212298   4.881   3.212   4.144
 4092SOL     OW12299   4.996   3.307   4.866
 4092SOL    HW112300   5.043   3.320   4.953
 4092SOL    HW212301   4.930   3.233   4.875
 4093SOL     OW12302   4.078   3.372   5.053
 4093SOL    HW112303   4.057   3.328   4.966
 4093SOL    HW212304   4.175   3.398   5.056
 4094SOL     OW12305   4.297   2.732   4.753
 4094SOL    HW112306   4.341   2.821   4.744
 4094SOL    HW212307   4.234   2.732   4.830
 4095SOL     OW12308   5.084   2.724   4.769
 4095SOL    HW112309   5.009   2.724   4.703
 4095SOL    HW212310   5.121   2.632   4.778
 4096SOL     OW12311   4.933   2.387   3.999
 4096SOL    HW112312   4.946   2.303   4.053
 4096SOL    HW212313   4.904   2.461   4.059
 4097SOL     OW12314   4.031   2.075   4.955
 4097SOL    HW112315   4.008   2.112   5.045
 4097SOL    HW212316   4.001   1.980   4.949
 4098SOL     OW12317   3.761   3.172   5.006
 4098SOL    HW112318   3.814   3.123   5.074
 4098SOL    HW212319   3.783   3.270   5.011
 4099SOL     OW12320   4.456   2.496   4.788
 4099SOL    HW112321   4.515   2.470   4.712
 4099SOL    HW212322   4.428   2.592   4.777
 4100SOL     OW12323   4.031   1.925   4.342
 4100SOL    HW112324   4.020   2.019   4.375
 4100SOL    HW212325   4.026   1.862   4.419
 4101SOL     OW12326   5.346   2.229   4.098
 4101SOL    HW112327   5.348   2.153   4.162
 4101SOL    HW212328   5.298   2.306   4.138
 4102SOL     OW12329   4.747   2.628   4.690
 4102SOL    HW112330   4.762   2.649   4.786
 4102SOL    HW212331   4.717   2.533   4.681
 4103SOL     OW12332   5.027   2.700   3.766
 4103SOL    HW112333   5.061   2.607   3.781
 4103SOL    HW212334   5.045   2.727   3.671
 4104SOL     OW12335   4.792   3.195   4.573
 4104SOL    HW112336   4.799   3.111   4.518
 4104SOL    HW212337   4.854   3.264   4.537
 4105SOL     OW12338   4.043   2.672   4.673
 4105SOL    HW112339   4.136   2.708   4.678
 4105SOL    HW212340   4.037   2.587   4.725
 4106SOL     OW12341   4.063   2.371   4.730
 4106SOL    HW112342   4.011   2.288   4.713
 4106SOL    HW212343   4.140   2.376   4.666
 4107SOL     OW12344   4.884   2.069   5.201
 4107SOL    HW112345   4.884   2.133   5.278
 4107SOL    HW212346   4.912   2.117   5.118
 4108SOL     OW12347   3.732   3.188   3.924
 4108SOL    HW112348   3.639   3.209   3.893
 4108SOL    HW212349   3.742   3.089   3.937
 4109SOL     OW12350   3.812   3.663   4.651
 4109SOL    HW112351   3.770   3.577   4.624
 4109SOL    HW212352   3.906   3.666   4.617
 4110SOL     OW12353   4.228   3.430   4.634
 4110SOL    HW112354   4.294   3.504   4.643
 4110SOL    HW212355   4.272   3.351   4.592
 4111SOL     OW12356   4.726   2.658   4.962
 4111SOL    HW112357   4.767   2.626   5.048
 4111SOL    HW212358   4.630   2.631   4.959
 4112SOL     OW12359   3.764   2.406   4.838
 4112SOL    HW112360   3.849   2.373   4.797
 4112SOL    HW212361   3.777   2.421   4.936
 4113SOL     OW12362   4.539   2.434   4.049
 4113SOL    HW112363   4.546   2.345   4.003
 4113SOL    HW212364   4.445   2.468   4.041
 4114SOL     OW12365   4.395   2.326   4.993
 4114SOL    HW112366   4.361   2.237   4.963
 4114SOL    HW212367   4.421   2.380   4.913
 4115SOL     OW12368   4.654   3.540   5.189
 4115SOL    HW112369   4.630   3.522   5.094
 4115SOL    HW212370   4.684   3.634   5.199
 4116SOL     OW12371   4.197   2.362   3.915
 4116SOL    HW112372   4.258   2.442   3.919
 4116SOL    HW212373   4.102   2.393   3.922
 4117SOL     OW12374   3.883   2.999   5.190
 4117SOL    HW112375   3.905   2.938   5.266
 4117SOL    HW212376   3.893   2.950   5.104
 4118SOL     OW12377   5.071   2.921   4.958
 4118SOL    HW112378   5.095   2.858   4.884
 4118SOL    HW212379   4.981   2.961   4.940
 4119SOL     OW12380   5.026   2.717   4.033
 4119SOL    HW112381   4.940   2.686   4.075
 4119SOL    HW212382   5.022   2.703   3.934
 4120SOL     OW12383   4.976   3.593   4.852
 4120SOL    HW112384   5.060   3.598   4.798
 4120SOL    HW212385   4.953   3.497   4.870
 4121SOL     OW12386   3.807   3.120   4.746
 4121SOL    HW112387   3.802   3.119   4.846
 4121SOL    HW212388   3.724   3.079   4.708
 4122SOL     OW12389   5.112   3.435   4.201
 4122SOL    HW112390   5.179   3.447   4.127
 4122SOL    HW212391   5.072   3.524   4.224
 4123SOL     OW12392   5.004   2.789   4.396
 4123SOL    HW112393   5.064   2.708   4.398
 4123SOL    HW212394   5.044   2.858   4.336
 4124SOL     OW12395   4.396   3.478   3.878
 4124SOL    HW112396   4.405   3.488   3.779
 4124SOL    HW212397   4.356   3.389   3.899
 4125SOL     OW12398   3.987   2.188   4.444
 4125SOL    HW112399   3.908   2.239   4.410
 4125SOL    HW212400   3.978   2.173   4.542
 4126SOL     OW12401   4.918   3.474   3.755
 4126SOL    HW112402   4.924   3.381   3.792
 4126SOL    HW212403   4.859   3.474   3.675
 4127SOL     OW12404   4.546   2.864   5.096
 4127SOL    HW112405   4.586   2.863   5.004
 4127SOL    HW212406   4.556   2.956   5.136
 4128SOL     OW12407   4.640   2.772   4.015
 4128SOL    HW112408   4.703   2.810   3.947
 4128SOL    HW212409   4.680   2.689   4.054
 4129SOL     OW12410   4.763   2.960   4.420
 4129SOL    HW112411   4.693   2.913   4.474
 4129SOL    HW212412   4.822   2.892   4.377
 4130SOL     OW12413   4.738   2.098   4.695
 4130SOL    HW112414   4.730   2.062   4.602
 4130SOL    HW212415   4.736   2.022   4.760
 4131SOL     OW12416   4.314   3.349   4.215
 4131SOL    HW112417   4.356   3.291   4.145
 4131SOL    HW212418   4.270   3.428   4.171
 4132SOL     OW12419   3.979   3.210   4.014
 4132SOL    HW112420   3.883   3.211   3.987
 4132SOL    HW212421   3.991   3.263   4.098
 4133SOL     OW12422   4.396   2.065   5.213
 4133SOL    HW112423   4.486   2.049   5.173
 4133SOL    HW212424   4.404   2.070   5.312
 4134SOL     OW12425   3.799   2.207   3.757
 4134SOL    HW112426   3.707   2.179   3.728
 4134SOL    HW212427   3.830   2.284   3.701
 4135SOL     OW12428   3.796   2.028   4.042
 4135SOL    HW112429   3.779   2.111   3.988
 4135SOL    HW212430   3.886   1.991   4.020
 4136SOL     OW12431   4.907   3.197   3.843
 4136SOL    HW112432   4.808   3.186   3.845
 4136SOL    HW212433   4.941   3.212   3.936
 4137SOL     OW12434   4.337   2.704   5.155
 4137SOL    HW112435   4.393   2.785   5.138
 4137SOL    HW212436   4.396   2.624   5.158
 4138SOL     OW12437   4.114   3.603   5.284
 4138SOL    HW112438   4.023   3.644   5.282
 4138SOL    HW212439   4.107   3.509   5.316
 4139SOL     OW12440   4.949   2.187   4.173
 4139SOL    HW112441   5.014   2.113   4.162
 4139SOL    HW212442   4.969   2.237   4.257
 4140SOL     OW12443   4.318   2.607   4.376
 4140SOL    HW112444   4.368   2.692   4.357
 4140SOL    HW212445   4.230   2.609   4.328
 4141SOL     OW12446   4.583   3.236   3.740
 4141SOL    HW112447   4.537   3.251   3.828
 4141SOL    HW212448   4.627   3.321   3.710
 4142SOL     OW12449   4.385   3.652   4.677
 4142SOL    HW112450   4.339   3.740   4.664
 4142SOL    HW212451   4.484   3.664   4.670
 4143SOL     OW12452   4.583   2.818   4.585
 4143SOL    HW112453   4.637   2.749   4.633
 4143SOL    HW212454   4.551   2.887   4.651
 4144SOL     OW12455   4.807   2.846   3.811
 4144SOL    HW112456   4.784   2.899   3.729
 4144SOL    HW212457   4.888   2.790   3.792
 4145SOL     OW12458   3.803   3.102   4.377
 4145SOL    HW112459   3.802   3.055   4.465
 4145SOL    HW212460   3.885   3.074   4.326
 4146SOL     OW12461   4.152   2.286   4.244
 4146SOL    HW112462   4.182   2.214   4.182
 4146SOL    HW212463   4.113   2.246   4.327
 4147SOL     OW12464   4.041   2.409   5.004
 4147SOL    HW112465   4.079   2.350   5.076
 4147SOL    HW212466   4.081   2.383   4.916
 4148SOL     OW12467   4.536   3.448   4.411
 4148SOL    HW112468   4.568   3.458   4.317
 4148SOL    HW212469   4.457   3.386   4.413
 4149SOL     OW12470   5.148   2.076   4.836
 4149SOL    HW112471   5.200   2.011   4.891
 4149SOL    HW212472   5.099   2.139   4.897
 4150SOL     OW12473   4.725   1.896   4.878
 4150SOL    HW112474   4.662   1.824   4.847
 4150SOL    HW212475   4.818   1.860   4.878
 4151SOL     OW12476   4.494   3.192   4.025
 4151SOL    HW112477   4.448   3.105   4.042
 4151SOL    HW212478   4.585   3.189   4.066
 4152SOL     OW12479   4.342   3.429   5.008
 4152SOL    HW112480   4.337   3.511   5.065
 4152SOL    HW212481   4.431   3.426   4.963
 4153SOL     OW12482   5.076   1.914   3.892
 4153SOL    HW112483   5.111   1.873   3.808
 4153SOL    HW212484   4.986   1.876   3.912
 4154SOL     OW12485   3.763   2.939   4.024
 4154SOL    HW112486   3.862   2.928   4.015
 4154SOL    HW212487   3.723   2.853   4.056
 4155SOL     OW12488   4.599   3.508   4.061
 4155SOL    HW112489   4.522   3.473   4.007
 4155SOL    HW212490   4.567   3.579   4.123
 4156SOL     OW12491   3.954   4.352   0.113
 4156SOL    HW112492   3.861   4.350   0.150
 4156SOL    HW212493   3.955   4.313   0.021
 4157SOL     OW12494   3.949   3.999   0.996
 4157SOL    HW112495   3.984   3.982   1.088
 4157SOL    HW212496   3.861   3.954   0.984
 4158SOL     OW12497   3.743   4.092   0.647
 4158SOL    HW112498   3.661   4.135   0.686
 4158SOL    HW212499   3.715   4.019   0.584
 4159SOL     OW12500   4.293   4.999   1.165
 4159SOL    HW112501   4.200   4.992   1.128
 4159SOL    HW212502   4.304   5.088   1.209
 4160SOL     OW12503   5.279   5.235   0.703
 4160SOL    HW112504   5.222   5.219   0.784
 4160SOL    HW212505   5.220   5.245   0.623
 4161SOL     OW12506   4.859   4.427   0.717
 4161SOL    HW112507   4.916   4.505   0.692
 4161SOL    HW212508   4.799   4.453   0.793
 4162SOL     OW12509   4.492   4.868   1.023
 4162SOL    HW112510   4.414   4.885   1.083
 4162SOL    HW212511   4.526   4.955   0.987
 4163SOL     OW12512   4.574   4.522   1.823
 4163SOL    HW112513   4.570   4.598   1.888
 4163SOL    HW212514   4.596   4.558   1.732
 4164SOL     OW12515   4.409   4.736   0.665
 4164SOL    HW112516   4.478   4.720   0.735
 4164SOL    HW212517   4.336   4.793   0.703
 4165SOL     OW12518   4.410   4.885   1.803
 4165SOL    HW112519   4.470   4.964   1.817
 4165SOL    HW212520   4.324   4.916   1.762
 4166SOL     OW12521   4.059   5.159   1.061
 4166SOL    HW112522   3.981   5.128   1.008
 4166SOL    HW212523   4.117   5.217   1.004
 4167SOL     OW12524   4.162   4.116   1.499
 4167SOL    HW112525   4.244   4.060   1.508
 4167SOL    HW212526   4.081   4.058   1.503
 4168SOL     OW12527   4.851   5.065   1.690
 4168SOL    HW112528   4.898   5.065   1.778
 4168SOL    HW212529   4.803   4.978   1.679
 4169SOL     OW12530   3.964   4.815   0.886
 4169SOL    HW112531   3.978   4.731   0.938
 4169SOL    HW212532   3.909   4.879   0.941
 4170SOL     OW12533   4.330   4.688   0.123
 4170SOL    HW112534   4.337   4.772   0.069
 4170SOL    HW212535   4.376   4.701   0.211
 4171SOL     OW12536   3.846   4.367   0.563
 4171SOL    HW112537   3.801   4.279   0.580
 4171SOL    HW212538   3.845   4.421   0.647
 4172SOL     OW12539   5.413   4.646   0.612
 4172SOL    HW112540   5.508   4.617   0.620
 4172SOL    HW212541   5.405   4.711   0.537
 4173SOL     OW12542   3.837   4.461   1.597
 4173SOL    HW112543   3.925   4.448   1.642
 4173SOL    HW212544   3.824   4.558   1.575
 4174SOL     OW12545   4.337   5.089   0.726
 4174SOL    HW112546   4.288   5.002   0.735
 4174SOL    HW212547   4.314   5.132   0.639
 4175SOL     OW12548   5.017   4.952   1.423
 4175SOL    HW112549   5.054   4.879   1.365
 4175SOL    HW212550   5.069   4.957   1.508
 4176SOL     OW12551   4.533   3.728   0.502
 4176SOL    HW112552   4.573   3.819   0.493
 4176SOL    HW212553   4.433   3.736   0.508
 4177SOL     OW12554   3.921   4.700   1.264
 4177SOL    HW112555   4.010   4.655   1.250
 4177SOL    HW212556   3.848   4.635   1.245
 4178SOL     OW12557   4.041   3.975   1.801
 4178SOL    HW112558   4.112   4.046   1.807
 4178SOL    HW212559   3.953   4.014   1.829
 4179SOL     OW12560   4.322   4.453   0.270
 4179SOL    HW112561   4.346   4.522   0.202
 4179SOL    HW212562   4.244   4.486   0.324
 4180SOL     OW12563   5.005   4.069   0.944
 4180SOL    HW112564   4.919   4.019   0.931
 4180SOL    HW212565   5.067   4.015   1.000
 4181SOL     OW12566   4.531   4.329   1.465
 4181SOL    HW112567   4.484   4.326   1.554
 4181SOL    HW212568   4.480   4.274   1.399
 4182SOL     OW12569   5.118   4.193   1.674
 4182SOL    HW112570   5.098   4.236   1.762
 4182SOL    HW212571   5.196   4.131   1.683
 4183SOL     OW12572   4.697   4.614   1.572
 4183SOL    HW112573   4.743   4.530   1.543
 4183SOL    HW212574   4.641   4.648   1.497
 4184SOL     OW12575   4.715   4.134   1.242
 4184SOL    HW112576   4.638   4.168   1.296
 4184SOL    HW212577   4.681   4.083   1.163
 4185SOL     OW12578   4.765   4.425   0.429
 4185SOL    HW112579   4.791   4.421   0.525
 4185SOL    HW212580   4.680   4.374   0.415
 4186SOL     OW12581   3.800   4.535   0.789
 4186SOL    HW112582   3.899   4.523   0.798
 4186SOL    HW212583   3.776   4.630   0.810
 4187SOL     OW12584   4.589   4.072   0.195
 4187SOL    HW112585   4.648   4.135   0.146
 4187SOL    HW212586   4.608   3.978   0.166
 4188SOL     OW12587   5.086   4.868   0.545
 4188SOL    HW112588   5.169   4.839   0.497
 4188SOL    HW212589   5.037   4.935   0.489
 4189SOL     OW12590   4.274   3.920   0.885
 4189SOL    HW112591   4.269   3.915   0.985
 4189SOL    HW212592   4.276   4.016   0.856
 4190SOL     OW12593   4.045   4.667   0.242
 4190SOL    HW112594   4.127   4.706   0.200
 4190SOL    HW212595   4.018   4.585   0.193
 4191SOL     OW12596   4.185   4.990   1.727
 4191SOL    HW112597   4.135   4.991   1.641
 4191SOL    HW212598   4.122   4.972   1.803
 4192SOL     OW12599   3.926   4.009   1.498
 4192SOL    HW112600   3.846   4.069   1.485
 4192SOL    HW212601   3.916   3.960   1.584
 4193SOL     OW12602   5.356   5.101   0.081
 4193SOL    HW112603   5.324   5.195   0.071
 4193SOL    HW212604   5.280   5.038   0.069
 4194SOL     OW12605   4.106   4.424   0.480
 4194SOL    HW112606   4.151   4.334   0.477
 4194SOL    HW212607   4.012   4.413   0.513
 4195SOL     OW12608   4.505   3.988   1.749
 4195SOL    HW112609   4.572   3.927   1.792
 4195SOL    HW212610   4.432   4.007   1.814
 4196SOL     OW12611   5.075   4.314   1.433
 4196SOL    HW112612   5.103   4.271   1.518
 4196SOL    HW212613   5.100   4.410   1.434
 4197SOL     OW12614   4.646   4.227   0.899
 4197SOL    HW112615   4.621   4.218   0.803
 4197SOL    HW212616   4.694   4.145   0.930
 4198SOL     OW12617   4.263   3.788   0.512
 4198SOL    HW112618   4.182   3.789   0.570
 4198SOL    HW212619   4.266   3.871   0.457
 4199SOL     OW12620   5.158   4.912   0.041
 4199SOL    HW112621   5.190   4.836   0.098
 4199SOL    HW212622   5.066   4.939   0.071
 4200SOL     OW12623   4.659   3.960   0.480
 4200SOL    HW112624   4.611   4.001   0.402
 4200SOL    HW212625   4.758   3.958   0.461
 4201SOL     OW12626   4.800   4.407   1.464
 4201SOL    HW112627   4.720   4.346   1.467
 4201SOL    HW212628   4.881   4.354   1.440
 4202SOL     OW12629   4.951   5.294   0.793
 4202SOL    HW112630   4.972   5.368   0.728
 4202SOL    HW212631   5.019   5.294   0.866
 4203SOL     OW12632   4.183   4.876   0.741
 4203SOL    HW112633   4.112   4.849   0.806
 4203SOL    HW212634   4.157   4.848   0.648
 4204SOL     OW12635   4.756   4.273   0.016
 4204SOL    HW112636   4.715   4.355  -0.023
 4204SOL    HW212637   4.820   4.299   0.089
 4205SOL     OW12638   3.802   4.280   1.386
 4205SOL    HW112639   3.894   4.279   1.345
 4205SOL    HW212640   3.796   4.354   1.453
 4206SOL     OW12641   4.285   3.946   1.147
 4206SOL    HW112642   4.323   3.862   1.184
 4206SOL    HW212643   4.197   3.965   1.191
 4207SOL     OW12644   4.590   4.178   0.642
 4207SOL    HW112645   4.558   4.250   0.580
 4207SOL    HW212646   4.614   4.097   0.589
 4208SOL     OW12647   4.741   3.763   0.753
 4208SOL    HW112648   4.669   3.768   0.684
 4208SOL    HW212649   4.717   3.694   0.822
 4209SOL     OW12650   5.114   4.299   0.078
 4209SOL    HW112651   5.060   4.278   0.159
 4209SOL    HW212652   5.205   4.258   0.087
 4210SOL     OW12653   4.251   3.980   0.328
 4210SOL    HW112654   4.278   3.921   0.253
 4210SOL    HW212655   4.251   4.075   0.297
 4211SOL     OW12656   4.788   5.071   1.340
 4211SOL    HW112657   4.708   5.048   1.395
 4211SOL    HW212658   4.871   5.045   1.389
 4212SOL     OW12659   4.835   4.919   1.100
 4212SOL    HW112660   4.795   4.963   1.181
 4212SOL    HW212661   4.794   4.956   1.017
 4213SOL     OW12662   4.639   3.813   1.402
 4213SOL    HW112663   4.664   3.793   1.307
 4213SOL    HW212664   4.711   3.869   1.444
 4214SOL     OW12665   4.704   4.840   1.719
 4214SOL    HW112666   4.605   4.846   1.729
 4214SOL    HW212667   4.727   4.760   1.663
 4215SOL     OW12668   4.429   4.774   0.368
 4215SOL    HW112669   4.415   4.781   0.467
 4215SOL    HW212670   4.513   4.723   0.350
 4216SOL     OW12671   4.134   4.537   1.251
 4216SOL    HW112672   4.220   4.549   1.301
 4216SOL    HW212673   4.092   4.450   1.278
 4217SOL     OW12674   4.998   4.110   1.262
 4217SOL    HW112675   5.019   4.184   1.326
 4217SOL    HW212676   4.909   4.127   1.219
 4218SOL     OW12677   4.091   4.824   0.501
 4218SOL    HW112678   4.084   4.907   0.445
 4218SOL    HW212679   4.095   4.744   0.441
 4219SOL     OW12680   4.290   4.261   0.865
 4219SOL    HW112681   4.302   4.327   0.791
 4219SOL    HW212682   4.336   4.295   0.948
 4220SOL     OW12683   4.976   5.072   0.388
 4220SOL    HW112684   5.026   5.149   0.428
 4220SOL    HW212685   4.881   5.074   0.420
 4221SOL     OW12686   4.126   4.475   1.598
 4221SOL    HW112687   4.194   4.530   1.551
 4221SOL    HW212688   4.166   4.387   1.625
 4222SOL     OW12689   4.737   3.829   1.770
 4222SOL    HW112690   4.743   3.914   1.718
 4222SOL    HW212691   4.769   3.753   1.713
 4223SOL     OW12692   4.228   3.774   1.740
 4223SOL    HW112693   4.186   3.717   1.670
 4223SOL    HW212694   4.162   3.843   1.772
 4224SOL     OW12695   4.297   4.594   1.029
 4224SOL    HW112696   4.341   4.683   1.020
 4224SOL    HW212697   4.234   4.594   1.106
 4225SOL     OW12698   5.084   4.586   1.045
 4225SOL    HW112699   5.009   4.586   0.979
 4225SOL    HW212700   5.121   4.494   1.054
 4226SOL     OW12701   4.933   4.249   0.275
 4226SOL    HW112702   4.946   4.165   0.329
 4226SOL    HW212703   4.904   4.323   0.335
 4227SOL     OW12704   4.031   3.937   1.231
 4227SOL    HW112705   4.008   3.974   1.321
 4227SOL    HW212706   4.001   3.842   1.225
 4228SOL     OW12707   3.761   5.034   1.282
 4228SOL    HW112708   3.814   4.985   1.350
 4228SOL    HW212709   3.783   5.132   1.287
 4229SOL     OW12710   4.456   4.358   1.064
 4229SOL    HW112711   4.515   4.332   0.988
 4229SOL    HW212712   4.428   4.454   1.053
 4230SOL     OW12713   4.031   3.787   0.618
 4230SOL    HW112714   4.020   3.881   0.651
 4230SOL    HW212715   4.026   3.724   0.695
 4231SOL     OW12716   5.346   4.091   0.374
 4231SOL    HW112717   5.348   4.015   0.438
 4231SOL    HW212718   5.298   4.168   0.414
 4232SOL     OW12719   4.747   4.490   0.966
 4232SOL    HW112720   4.762   4.511   1.062
 4232SOL    HW212721   4.717   4.395   0.957
 4233SOL     OW12722   4.074   4.622   1.804
 4233SOL    HW112723   4.150   4.666   1.852
 4233SOL    HW212724   4.109   4.575   1.722
 4234SOL     OW12725   5.027   4.562   0.042
 4234SOL    HW112726   5.061   4.469   0.057
 4234SOL    HW212727   5.045   4.589  -0.053
 4235SOL     OW12728   4.043   4.534   0.949
 4235SOL    HW112729   4.136   4.570   0.954
 4235SOL    HW212730   4.037   4.449   1.001
 4236SOL     OW12731   4.063   4.233   1.006
 4236SOL    HW112732   4.011   4.150   0.989
 4236SOL    HW212733   4.140   4.238   0.942
 4237SOL     OW12734   4.862   4.104   1.678
 4237SOL    HW112735   4.817   4.167   1.742
 4237SOL    HW212736   4.955   4.135   1.661
 4238SOL     OW12737   4.884   3.931   1.477
 4238SOL    HW112738   4.884   3.995   1.554
 4238SOL    HW212739   4.912   3.979   1.394
 4239SOL     OW12740   4.726   4.520   1.238
 4239SOL    HW112741   4.767   4.488   1.324
 4239SOL    HW212742   4.630   4.493   1.235
 4240SOL     OW12743   3.764   4.268   1.114
 4240SOL    HW112744   3.849   4.235   1.073
 4240SOL    HW212745   3.777   4.283   1.212
 4241SOL     OW12746   3.913   4.244   1.722
 4241SOL    HW112747   3.972   4.204   1.652
 4241SOL    HW212748   3.855   4.315   1.681
 4242SOL     OW12749   4.539   4.296   0.325
 4242SOL    HW112750   4.546   4.207   0.279
 4242SOL    HW212751   4.445   4.330   0.317
 4243SOL     OW12752   4.395   4.188   1.269
 4243SOL    HW112753   4.361   4.099   1.239
 4243SOL    HW212754   4.421   4.242   1.189
 4244SOL     OW12755   4.197   4.224   0.191
 4244SOL    HW112756   4.258   4.304   0.195
 4244SOL    HW212757   4.102   4.255   0.198
 4245SOL     OW12758   3.883   4.861   1.466
 4245SOL    HW112759   3.905   4.800   1.542
 4245SOL    HW212760   3.893   4.812   1.380
 4246SOL     OW12761   5.071   4.783   1.234
 4246SOL    HW112762   5.095   4.720   1.160
 4246SOL    HW212763   4.981   4.823   1.216
 4247SOL     OW12764   5.026   4.579   0.309
 4247SOL    HW112765   4.940   4.548   0.351
 4247SOL    HW212766   5.022   4.565   0.210
 4248SOL     OW12767   3.807   4.982   1.022
 4248SOL    HW112768   3.802   4.981   1.122
 4248SOL    HW212769   3.724   4.941   0.984
 4249SOL     OW12770   4.627   3.810   0.133
 4249SOL    HW112771   4.678   3.811   0.047
 4249SOL    HW212772   4.683   3.768   0.204
 4250SOL     OW12773   5.004   4.651   0.672
 4250SOL    HW112774   5.064   4.570   0.674
 4250SOL    HW212775   5.044   4.720   0.612
 4251SOL     OW12776   4.554   4.997   1.422
 4251SOL    HW112777   4.549   5.030   1.517
 4251SOL    HW212778   4.468   5.016   1.376
 4252SOL     OW12779   3.987   4.050   0.720
 4252SOL    HW112780   3.908   4.101   0.686
 4252SOL    HW212781   3.978   4.035   0.818
 4253SOL     OW12782   4.546   4.726   1.372
 4253SOL    HW112783   4.586   4.725   1.280
 4253SOL    HW212784   4.556   4.818   1.412
 4254SOL     OW12785   4.640   4.634   0.291
 4254SOL    HW112786   4.703   4.672   0.223
 4254SOL    HW212787   4.680   4.551   0.330
 4255SOL     OW12788   4.096   5.012   1.490
 4255SOL    HW112789   4.083   5.105   1.456
 4255SOL    HW212790   4.012   4.960   1.477
 4256SOL     OW12791   4.763   4.822   0.696
 4256SOL    HW112792   4.693   4.775   0.750
 4256SOL    HW212793   4.822   4.754   0.653
 4257SOL     OW12794   4.738   3.960   0.971
 4257SOL    HW112795   4.730   3.924   0.878
 4257SOL    HW212796   4.736   3.884   1.036
 4258SOL     OW12797   3.829   4.737   1.726
 4258SOL    HW112798   3.752   4.704   1.780
 4258SOL    HW212799   3.914   4.707   1.768
 4259SOL     OW12800   4.396   3.927   1.489
 4259SOL    HW112801   4.486   3.911   1.449
 4259SOL    HW212802   4.404   3.932   1.588
 4260SOL     OW12803   3.799   4.069   0.033
 4260SOL    HW112804   3.707   4.041   0.004
 4260SOL    HW212805   3.830   4.146  -0.023
 4261SOL     OW12806   5.164   4.580   1.398
 4261SOL    HW112807   5.107   4.632   1.335
 4261SOL    HW212808   5.260   4.592   1.374
 4262SOL     OW12809   3.796   3.890   0.318
 4262SOL    HW112810   3.779   3.973   0.264
 4262SOL    HW212811   3.886   3.853   0.296
 4263SOL     OW12812   4.907   5.059   0.119
 4263SOL    HW112813   4.808   5.048   0.121
 4263SOL    HW212814   4.941   5.074   0.212
 4264SOL     OW12815   4.337   4.566   1.431
 4264SOL    HW112816   4.393   4.647   1.414
 4264SOL    HW212817   4.396   4.486   1.434
 4265SOL     OW12818   4.440   4.289   1.708
 4265SOL    HW112819   4.459   4.354   1.782
 4265SOL    HW212820   4.500   4.209   1.717
 4266SOL     OW12821   5.174   4.944   1.633
 4266SOL    HW112822   5.165   4.934   1.732
 4266SOL    HW212823   5.270   4.937   1.607
 4267SOL     OW12824   4.949   4.049   0.449
 4267SOL    HW112825   5.014   3.975   0.438
 4267SOL    HW212826   4.969   4.099   0.533
 4268SOL     OW12827   4.318   4.469   0.652
 4268SOL    HW112828   4.368   4.554   0.633
 4268SOL    HW212829   4.230   4.471   0.604
 4269SOL     OW12830   4.583   4.680   0.861
 4269SOL    HW112831   4.637   4.611   0.909
 4269SOL    HW212832   4.551   4.749   0.927
 4270SOL     OW12833   4.807   4.708   0.087
 4270SOL    HW112834   4.784   4.761   0.005
 4270SOL    HW212835   4.888   4.652   0.068
 4271SOL     OW12836   3.945   5.038   1.844
 4271SOL    HW112837   3.880   4.965   1.823
 4271SOL    HW212838   3.949   5.052   1.942
 4272SOL     OW12839   3.803   4.964   0.653
 4272SOL    HW112840   3.802   4.917   0.741
 4272SOL    HW212841   3.885   4.936   0.602
 4273SOL     OW12842   4.396   5.115   1.624
 4273SOL    HW112843   4.318   5.065   1.662
 4273SOL    HW212844   4.393   5.210   1.655
 4274SOL     OW12845   4.152   4.148   0.520
 4274SOL    HW112846   4.182   4.076   0.458
 4274SOL    HW212847   4.113   4.108   0.603
 4275SOL     OW12848   4.041   4.271   1.280
 4275SOL    HW112849   4.079   4.212   1.352
 4275SOL    HW212850   4.081   4.245   1.192
 4276SOL     OW12851   5.148   3.938   1.112
 4276SOL    HW112852   5.200   3.873   1.167
 4276SOL    HW212853   5.099   4.001   1.173
 4277SOL     OW12854   4.725   3.758   1.154
 4277SOL    HW112855   4.662   3.686   1.123
 4277SOL    HW212856   4.818   3.722   1.154
 4278SOL     OW12857   4.494   5.054   0.301
 4278SOL    HW112858   4.448   4.967   0.318
 4278SOL    HW212859   4.585   5.051   0.342
 4279SOL     OW12860   3.763   4.801   0.300
 4279SOL    HW112861   3.862   4.790   0.291
 4279SOL    HW212862   3.723   4.715   0.332
 4280SOL     OW12863   3.954   4.352   1.975
 4280SOL    HW112864   3.861   4.350   2.012
 4280SOL    HW212865   3.955   4.313   1.883
 4281SOL     OW12866   3.949   3.999   2.858
 4281SOL    HW112867   3.984   3.982   2.950
 4281SOL    HW212868   3.861   3.954   2.846
 4282SOL     OW12869   3.743   4.092   2.509
 4282SOL    HW112870   3.661   4.135   2.548
 4282SOL    HW212871   3.715   4.019   2.446
 4283SOL     OW12872   4.293   4.999   3.027
 4283SOL    HW112873   4.200   4.992   2.990
 4283SOL    HW212874   4.304   5.088   3.071
 4284SOL     OW12875   5.279   5.235   2.565
 4284SOL    HW112876   5.222   5.219   2.646
 4284SOL    HW212877   5.220   5.245   2.485
 4285SOL     OW12878   4.859   4.427   2.579
 4285SOL    HW112879   4.916   4.505   2.554
 4285SOL    HW212880   4.799   4.453   2.655
 4286SOL     OW12881   4.492   4.868   2.885
 4286SOL    HW112882   4.414   4.885   2.945
 4286SOL    HW212883   4.526   4.955   2.849
 4287SOL     OW12884   4.574   4.522   3.685
 4287SOL    HW112885   4.570   4.598   3.750
 4287SOL    HW212886   4.596   4.558   3.594
 4288SOL     OW12887   4.409   4.736   2.527
 4288SOL    HW112888   4.478   4.720   2.597
 4288SOL    HW212889   4.336   4.793   2.565
 4289SOL     OW12890   4.410   4.885   3.665
 4289SOL    HW112891   4.470   4.964   3.679
 4289SOL    HW212892   4.324   4.916   3.624
 4290SOL     OW12893   4.059   5.159   2.923
 4290SOL    HW112894   3.981   5.128   2.870
 4290SOL    HW212895   4.117   5.217   2.866
 4291SOL     OW12896   4.162   4.116   3.361
 4291SOL    HW112897   4.244   4.060   3.370
 4291SOL    HW212898   4.081   4.058   3.365
 4292SOL     OW12899   4.851   5.065   3.552
 4292SOL    HW112900   4.898   5.065   3.640
 4292SOL    HW212901   4.803   4.978   3.541
 4293SOL     OW12902   3.964   4.815   2.748
 4293SOL    HW112903   3.978   4.731   2.800
 4293SOL    HW212904   3.909   4.879   2.803
 4294SOL     OW12905   4.330   4.688   1.985
 4294SOL    HW112906   4.337   4.772   1.931
 4294SOL    HW212907   4.376   4.701   2.073
 4295SOL     OW12908   3.846   4.367   2.425
 4295SOL    HW112909   3.801   4.279   2.442
 4295SOL    HW212910   3.845   4.421   2.509
 4296SOL     OW12911   5.413   4.646   2.474
 4296SOL    HW112912   5.508   4.617   2.482
 4296SOL    HW212913   5.405   4.711   2.399
 4297SOL     OW12914   3.837   4.461   3.459
 4297SOL    HW112915   3.925   4.448   3.504
 4297SOL    HW212916   3.824   4.558   3.437
 4298SOL     OW12917   4.337   5.089   2.588
 4298SOL    HW112918   4.288   5.002   2.597
 4298SOL    HW212919   4.314   5.132   2.501
 4299SOL     OW12920   5.017   4.952   3.285
 4299SOL    HW112921   5.054   4.879   3.227
 4299SOL    HW212922   5.069   4.957   3.370
 4300SOL     OW12923   4.533   3.728   2.364
 4300SOL    HW112924   4.573   3.819   2.355
 4300SOL    HW212925   4.433   3.736   2.370
 4301SOL     OW12926   3.921   4.700   3.126
 4301SOL    HW112927   4.010   4.655   3.112
 4301SOL    HW212928   3.848   4.635   3.107
 4302SOL     OW12929   4.041   3.975   3.663
 4302SOL    HW112930   4.112   4.046   3.669
 4302SOL    HW212931   3.953   4.014   3.691
 4303SOL     OW12932   4.322   4.453   2.132
 4303SOL    HW112933   4.346   4.522   2.064
 4303SOL    HW212934   4.244   4.486   2.186
 4304SOL     OW12935   5.005   4.069   2.806
 4304SOL    HW112936   4.919   4.019   2.793
 4304SOL    HW212937   5.067   4.015   2.862
 4305SOL     OW12938   4.531   4.329   3.327
 4305SOL    HW112939   4.484   4.326   3.416
 4305SOL    HW212940   4.480   4.274   3.261
 4306SOL     OW12941   5.118   4.193   3.536
 4306SOL    HW112942   5.098   4.236   3.624
 4306SOL    HW212943   5.196   4.131   3.545
 4307SOL     OW12944   4.697   4.614   3.434
 4307SOL    HW112945   4.743   4.530   3.405
 4307SOL    HW212946   4.641   4.648   3.359
 4308SOL     OW12947   4.715   4.134   3.104
 4308SOL    HW112948   4.638   4.168   3.158
 4308SOL    HW212949   4.681   4.083   3.025
 4309SOL     OW12950   4.765   4.425   2.291
 4309SOL    HW112951   4.791   4.421   2.387
 4309SOL    HW212952   4.680   4.374   2.277
 4310SOL     OW12953   3.800   4.535   2.651
 4310SOL    HW112954   3.899   4.523   2.660
 4310SOL    HW212955   3.776   4.630   2.672
 4311SOL     OW12956   4.589   4.072   2.057
 4311SOL    HW112957   4.648   4.135   2.008
 4311SOL    HW212958   4.608   3.978   2.028
 4312SOL     OW12959   5.086   4.868   2.407
 4312SOL    HW112960   5.169   4.839   2.359
 4312SOL    HW212961   5.037   4.935   2.351
 4313SOL     OW12962   4.274   3.920   2.747
 4313SOL    HW112963   4.269   3.915   2.847
 4313SOL    HW212964   4.276   4.016   2.718
 4314SOL     OW12965   4.045   4.667   2.104
 4314SOL    HW112966   4.127   4.706   2.062
 4314SOL    HW212967   4.018   4.585   2.055
 4315SOL     OW12968   4.185   4.990   3.589
 4315SOL    HW112969   4.135   4.991   3.503
 4315SOL    HW212970   4.122   4.972   3.665
 4316SOL     OW12971   3.926   4.009   3.360
 4316SOL    HW112972   3.846   4.069   3.347
 4316SOL    HW212973   3.916   3.960   3.446
 4317SOL     OW12974   4.106   4.424   2.342
 4317SOL    HW112975   4.151   4.334   2.339
 4317SOL    HW212976   4.012   4.413   2.375
 4318SOL     OW12977   4.338   3.846   1.979
 4318SOL    HW112978   4.436   3.824   1.986
 4318SOL    HW212979   4.307   3.829   1.886
 4319SOL     OW12980   4.505   3.988   3.611
 4319SOL    HW112981   4.572   3.927   3.654
 4319SOL    HW212982   4.432   4.007   3.676
 4320SOL     OW12983   5.075   4.314   3.295
 4320SOL    HW112984   5.103   4.271   3.380
 4320SOL    HW212985   5.100   4.410   3.296
 4321SOL     OW12986   4.646   4.227   2.761
 4321SOL    HW112987   4.621   4.218   2.665
 4321SOL    HW212988   4.694   4.145   2.792
 4322SOL     OW12989   4.263   3.788   2.374
 4322SOL    HW112990   4.182   3.789   2.432
 4322SOL    HW212991   4.266   3.871   2.319
 4323SOL     OW12992   5.158   4.912   1.903
 4323SOL    HW112993   5.190   4.836   1.960
 4323SOL    HW212994   5.066   4.939   1.933
 4324SOL     OW12995   4.021   3.759   2.033
 4324SOL    HW112996   4.070   3.843   2.012
 4324SOL    HW212997   4.083   3.694   2.078
 4325SOL     OW12998   4.659   3.960   2.342
 4325SOL    HW112999   4.611   4.001   2.264
 4325SOL    HW213000   4.758   3.958   2.323
 4326SOL     OW13001   4.800   4.407   3.326
 4326SOL    HW113002   4.720   4.346   3.329
 4326SOL    HW213003   4.881   4.354   3.302
 4327SOL     OW13004   4.951   5.294   2.655
 4327SOL    HW113005   4.972   5.368   2.590
 4327SOL    HW213006   5.019   5.294   2.728
 4328SOL     OW13007   4.183   4.876   2.603
 4328SOL    HW113008   4.112   4.849   2.668
 4328SOL    HW213009   4.157   4.848   2.510
 4329SOL     OW13010   4.756   4.273   1.878
 4329SOL    HW113011   4.715   4.355   1.839
 4329SOL    HW213012   4.820   4.299   1.951
 4330SOL     OW13013   3.802   4.280   3.248
 4330SOL    HW113014   3.894   4.279   3.207
 4330SOL    HW213015   3.796   4.354   3.315
 4331SOL     OW13016   4.285   3.946   3.009
 4331SOL    HW113017   4.323   3.862   3.046
 4331SOL    HW213018   4.197   3.965   3.053
 4332SOL     OW13019   4.590   4.178   2.504
 4332SOL    HW113020   4.558   4.250   2.442
 4332SOL    HW213021   4.614   4.097   2.451
 4333SOL     OW13022   4.741   3.763   2.615
 4333SOL    HW113023   4.669   3.768   2.546
 4333SOL    HW213024   4.717   3.694   2.684
 4334SOL     OW13025   5.114   4.299   1.940
 4334SOL    HW113026   5.060   4.278   2.021
 4334SOL    HW213027   5.205   4.258   1.949
 4335SOL     OW13028   4.251   3.980   2.190
 4335SOL    HW113029   4.278   3.921   2.115
 4335SOL    HW213030   4.251   4.075   2.159
 4336SOL     OW13031   4.788   5.071   3.202
 4336SOL    HW113032   4.708   5.048   3.257
 4336SOL    HW213033   4.871   5.045   3.251
 4337SOL     OW13034   4.835   4.919   2.962
 4337SOL    HW113035   4.795   4.963   3.043
 4337SOL    HW213036   4.794   4.956   2.879
 4338SOL     OW13037   4.639   3.813   3.264
 4338SOL    HW113038   4.664   3.793   3.169
 4338SOL    HW213039   4.711   3.869   3.306
 4339SOL     OW13040   4.704   4.840   3.581
 4339SOL    HW113041   4.605   4.846   3.591
 4339SOL    HW213042   4.727   4.760   3.525
 4340SOL     OW13043   4.429   4.774   2.230
 4340SOL    HW113044   4.415   4.781   2.329
 4340SOL    HW213045   4.513   4.723   2.212
 4341SOL     OW13046   4.134   4.537   3.113
 4341SOL    HW113047   4.220   4.549   3.163
 4341SOL    HW213048   4.092   4.450   3.140
 4342SOL     OW13049   4.998   4.110   3.124
 4342SOL    HW113050   5.019   4.184   3.188
 4342SOL    HW213051   4.909   4.127   3.081
 4343SOL     OW13052   4.091   4.824   2.363
 4343SOL    HW113053   4.084   4.907   2.307
 4343SOL    HW213054   4.095   4.744   2.303
 4344SOL     OW13055   4.290   4.261   2.727
 4344SOL    HW113056   4.302   4.327   2.653
 4344SOL    HW213057   4.336   4.295   2.810
 4345SOL     OW13058   4.976   5.072   2.250
 4345SOL    HW113059   5.026   5.149   2.290
 4345SOL    HW213060   4.881   5.074   2.282
 4346SOL     OW13061   4.126   4.475   3.460
 4346SOL    HW113062   4.194   4.530   3.413
 4346SOL    HW213063   4.166   4.387   3.487
 4347SOL     OW13064   4.737   3.829   3.632
 4347SOL    HW113065   4.743   3.914   3.580
 4347SOL    HW213066   4.769   3.753   3.575
 4348SOL     OW13067   4.228   3.774   3.602
 4348SOL    HW113068   4.186   3.717   3.532
 4348SOL    HW213069   4.162   3.843   3.634
 4349SOL     OW13070   4.297   4.594   2.891
 4349SOL    HW113071   4.341   4.683   2.882
 4349SOL    HW213072   4.234   4.594   2.968
 4350SOL     OW13073   5.084   4.586   2.907
 4350SOL    HW113074   5.009   4.586   2.841
 4350SOL    HW213075   5.121   4.494   2.916
 4351SOL     OW13076   4.933   4.249   2.137
 4351SOL    HW113077   4.946   4.165   2.191
 4351SOL    HW213078   4.904   4.323   2.197
 4352SOL     OW13079   4.031   3.937   3.093
 4352SOL    HW113080   4.008   3.974   3.183
 4352SOL    HW213081   4.001   3.842   3.087
 4353SOL     OW13082   3.761   5.034   3.144
 4353SOL    HW113083   3.814   4.985   3.212
 4353SOL    HW213084   3.783   5.132   3.149
 4354SOL     OW13085   4.456   4.358   2.926
 4354SOL    HW113086   4.515   4.332   2.850
 4354SOL    HW213087   4.428   4.454   2.915
 4355SOL     OW13088   4.031   3.787   2.480
 4355SOL    HW113089   4.020   3.881   2.513
 4355SOL    HW213090   4.026   3.724   2.557
 4356SOL     OW13091   5.346   4.091   2.236
 4356SOL    HW113092   5.348   4.015   2.300
 4356SOL    HW213093   5.298   4.168   2.276
 4357SOL     OW13094   4.747   4.490   2.828
 4357SOL    HW113095   4.762   4.511   2.924
 4357SOL    HW213096   4.717   4.395   2.819
 4358SOL     OW13097   4.074   4.622   3.666
 4358SOL    HW113098   4.150   4.666   3.714
 4358SOL    HW213099   4.109   4.575   3.584
 4359SOL     OW13100   5.027   4.562   1.904
 4359SOL    HW113101   5.061   4.469   1.919
 4359SOL    HW213102   5.045   4.589   1.809
 4360SOL     OW13103   4.043   4.534   2.811
 4360SOL    HW113104   4.136   4.570   2.816
 4360SOL    HW213105   4.037   4.449   2.863
 4361SOL     OW13106   4.063   4.233   2.868
 4361SOL    HW113107   4.011   4.150   2.851
 4361SOL    HW213108   4.140   4.238   2.804
 4362SOL     OW13109   4.862   4.104   3.540
 4362SOL    HW113110   4.817   4.167   3.604
 4362SOL    HW213111   4.955   4.135   3.523
 4363SOL     OW13112   4.884   3.931   3.339
 4363SOL    HW113113   4.884   3.995   3.416
 4363SOL    HW213114   4.912   3.979   3.256
 4364SOL     OW13115   3.732   5.050   2.062
 4364SOL    HW113116   3.639   5.071   2.031
 4364SOL    HW213117   3.742   4.951   2.075
 4365SOL     OW13118   4.726   4.520   3.100
 4365SOL    HW113119   4.767   4.488   3.186
 4365SOL    HW213120   4.630   4.493   3.097
 4366SOL     OW13121   3.764   4.268   2.976
 4366SOL    HW113122   3.849   4.235   2.935
 4366SOL    HW213123   3.777   4.283   3.074
 4367SOL     OW13124   3.913   4.244   3.584
 4367SOL    HW113125   3.972   4.204   3.514
 4367SOL    HW213126   3.855   4.315   3.543
 4368SOL     OW13127   4.539   4.296   2.187
 4368SOL    HW113128   4.546   4.207   2.141
 4368SOL    HW213129   4.445   4.330   2.179
 4369SOL     OW13130   4.395   4.188   3.131
 4369SOL    HW113131   4.361   4.099   3.101
 4369SOL    HW213132   4.421   4.242   3.051
 4370SOL     OW13133   4.197   4.224   2.053
 4370SOL    HW113134   4.258   4.304   2.057
 4370SOL    HW213135   4.102   4.255   2.060
 4371SOL     OW13136   3.883   4.861   3.328
 4371SOL    HW113137   3.905   4.800   3.404
 4371SOL    HW213138   3.893   4.812   3.242
 4372SOL     OW13139   5.071   4.783   3.096
 4372SOL    HW113140   5.095   4.720   3.022
 4372SOL    HW213141   4.981   4.823   3.078
 4373SOL     OW13142   5.026   4.579   2.171
 4373SOL    HW113143   4.940   4.548   2.213
 4373SOL    HW213144   5.022   4.565   2.072
 4374SOL     OW13145   3.807   4.982   2.884
 4374SOL    HW113146   3.802   4.981   2.984
 4374SOL    HW213147   3.724   4.941   2.846
 4375SOL     OW13148   5.004   4.651   2.534
 4375SOL    HW113149   5.064   4.570   2.536
 4375SOL    HW213150   5.044   4.720   2.474
 4376SOL     OW13151   4.554   4.997   3.284
 4376SOL    HW113152   4.549   5.030   3.379
 4376SOL    HW213153   4.468   5.016   3.238
 4377SOL     OW13154   3.987   4.050   2.582
 4377SOL    HW113155   3.908   4.101   2.548
 4377SOL    HW213156   3.978   4.035   2.680
 4378SOL     OW13157   4.546   4.726   3.234
 4378SOL    HW113158   4.586   4.725   3.142
 4378SOL    HW213159   4.556   4.818   3.274
 4379SOL     OW13160   4.640   4.634   2.153
 4379SOL    HW113161   4.703   4.672   2.085
 4379SOL    HW213162   4.680   4.551   2.192
 4380SOL     OW13163   4.096   5.012   3.352
 4380SOL    HW113164   4.083   5.105   3.318
 4380SOL    HW213165   4.012   4.960   3.339
 4381SOL     OW13166   4.763   4.822   2.558
 4381SOL    HW113167   4.693   4.775   2.612
 4381SOL    HW213168   4.822   4.754   2.515
 4382SOL     OW13169   4.738   3.960   2.833
 4382SOL    HW113170   4.730   3.924   2.740
 4382SOL    HW213171   4.736   3.884   2.898
 4383SOL     OW13172   3.829   4.737   3.588
 4383SOL    HW113173   3.752   4.704   3.642
 4383SOL    HW213174   3.914   4.707   3.630
 4384SOL     OW13175   4.396   3.927   3.351
 4384SOL    HW113176   4.486   3.911   3.311
 4384SOL    HW213177   4.404   3.932   3.450
 4385SOL     OW13178   3.799   4.069   1.895
 4385SOL    HW113179   3.707   4.041   1.866
 4385SOL    HW213180   3.830   4.146   1.839
 4386SOL     OW13181   5.164   4.580   3.260
 4386SOL    HW113182   5.107   4.632   3.197
 4386SOL    HW213183   5.260   4.592   3.236
 4387SOL     OW13184   3.796   3.890   2.180
 4387SOL    HW113185   3.779   3.973   2.126
 4387SOL    HW213186   3.886   3.853   2.158
 4388SOL     OW13187   4.907   5.059   1.981
 4388SOL    HW113188   4.808   5.048   1.983
 4388SOL    HW213189   4.941   5.074   2.074
 4389SOL     OW13190   4.337   4.566   3.293
 4389SOL    HW113191   4.393   4.647   3.276
 4389SOL    HW213192   4.396   4.486   3.296
 4390SOL     OW13193   4.440   4.289   3.570
 4390SOL    HW113194   4.459   4.354   3.644
 4390SOL    HW213195   4.500   4.209   3.579
 4391SOL     OW13196   5.174   4.944   3.495
 4391SOL    HW113197   5.165   4.934   3.594
 4391SOL    HW213198   5.270   4.937   3.469
 4392SOL     OW13199   4.949   4.049   2.311
 4392SOL    HW113200   5.014   3.975   2.300
 4392SOL    HW213201   4.969   4.099   2.395
 4393SOL     OW13202   4.318   4.469   2.514
 4393SOL    HW113203   4.368   4.554   2.495
 4393SOL    HW213204   4.230   4.471   2.466
 4394SOL     OW13205   4.583   5.098   1.878
 4394SOL    HW113206   4.537   5.113   1.966
 4394SOL    HW213207   4.627   5.183   1.848
 4395SOL     OW13208   4.583   4.680   2.723
 4395SOL    HW113209   4.637   4.611   2.771
 4395SOL    HW213210   4.551   4.749   2.789
 4396SOL     OW13211   4.807   4.708   1.949
 4396SOL    HW113212   4.784   4.761   1.867
 4396SOL    HW213213   4.888   4.652   1.930
 4397SOL     OW13214   3.945   5.038   3.706
 4397SOL    HW113215   3.880   4.965   3.685
 4397SOL    HW213216   3.949   5.052   3.804
 4398SOL     OW13217   3.803   4.964   2.515
 4398SOL    HW113218   3.802   4.917   2.603
 4398SOL    HW213219   3.885   4.936   2.464
 4399SOL     OW13220   4.396   5.115   3.486
 4399SOL    HW113221   4.318   5.065   3.524
 4399SOL    HW213222   4.393   5.210   3.517
 4400SOL     OW13223   4.152   4.148   2.382
 4400SOL    HW113224   4.182   4.076   2.320
 4400SOL    HW213225   4.113   4.108   2.465
 4401SOL     OW13226   4.041   4.271   3.142
 4401SOL    HW113227   4.079   4.212   3.214
 4401SOL    HW213228   4.081   4.245   3.054
 4402SOL     OW13229   5.148   3.938   2.974
 4402SOL    HW113230   5.200   3.873   3.029
 4402SOL    HW213231   5.099   4.001   3.035
 4403SOL     OW13232   4.725   3.758   3.016
 4403SOL    HW113233   4.662   3.686   2.985
 4403SOL    HW213234   4.818   3.722   3.016
 4404SOL     OW13235   4.494   5.054   2.163
 4404SOL    HW113236   4.448   4.967   2.180
 4404SOL    HW213237   4.585   5.051   2.204
 4405SOL     OW13238   5.076   3.776   2.030
 4405SOL    HW113239   5.111   3.735   1.946
 4405SOL    HW213240   4.986   3.738   2.050
 4406SOL     OW13241   3.763   4.801   2.162
 4406SOL    HW113242   3.862   4.790   2.153
 4406SOL    HW213243   3.723   4.715   2.194
 4407SOL     OW13244   3.954   4.352   3.837
 4407SOL    HW113245   3.861   4.350   3.874
 4407SOL    HW213246   3.955   4.313   3.745
 4408SOL     OW13247   3.949   3.999   4.720
 4408SOL    HW113248   3.984   3.982   4.812
 4408SOL    HW213249   3.861   3.954   4.708
 4409SOL     OW13250   3.743   4.092   4.371
 4409SOL    HW113251   3.661   4.135   4.410
 4409SOL    HW213252   3.715   4.019   4.308
 4410SOL     OW13253   4.293   4.999   4.889
 4410SOL    HW113254   4.200   4.992   4.852
 4410SOL    HW213255   4.304   5.088   4.933
 4411SOL     OW13256   5.279   5.235   4.427
 4411SOL    HW113257   5.222   5.219   4.508
 4411SOL    HW213258   5.220   5.245   4.347
 4412SOL     OW13259   4.859   4.427   4.441
 4412SOL    HW113260   4.916   4.505   4.416
 4412SOL    HW213261   4.799   4.453   4.517
 4413SOL     OW13262   4.492   4.868   4.747
 4413SOL    HW113263   4.414   4.885   4.807
 4413SOL    HW213264   4.526   4.955   4.711
 4414SOL     OW13265   4.409   4.736   4.389
 4414SOL    HW113266   4.478   4.720   4.459
 4414SOL    HW213267   4.336   4.793   4.427
 4415SOL     OW13268   4.059   5.159   4.785
 4415SOL    HW113269   3.981   5.128   4.732
 4415SOL    HW213270   4.117   5.217   4.728
 4416SOL     OW13271   4.162   4.116   5.223
 4416SOL    HW113272   4.244   4.060   5.232
 4416SOL    HW213273   4.081   4.058   5.227
 4417SOL     OW13274   3.964   4.815   4.610
 4417SOL    HW113275   3.978   4.731   4.662
 4417SOL    HW213276   3.909   4.879   4.665
 4418SOL     OW13277   4.330   4.688   3.847
 4418SOL    HW113278   4.337   4.772   3.793
 4418SOL    HW213279   4.376   4.701   3.935
 4419SOL     OW13280   5.318   3.838   5.204
 4419SOL    HW113281   5.300   3.905   5.132
 4419SOL    HW213282   5.315   3.884   5.293
 4420SOL     OW13283   3.846   4.367   4.287
 4420SOL    HW113284   3.801   4.279   4.304
 4420SOL    HW213285   3.845   4.421   4.371
 4421SOL     OW13286   5.413   4.646   4.336
 4421SOL    HW113287   5.508   4.617   4.344
 4421SOL    HW213288   5.405   4.711   4.261
 4422SOL     OW13289   4.337   5.089   4.450
 4422SOL    HW113290   4.288   5.002   4.459
 4422SOL    HW213291   4.314   5.132   4.363
 4423SOL     OW13292   4.533   3.728   4.226
 4423SOL    HW113293   4.573   3.819   4.217
 4423SOL    HW213294   4.433   3.736   4.232
 4424SOL     OW13295   3.921   4.700   4.988
 4424SOL    HW113296   4.010   4.655   4.974
 4424SOL    HW213297   3.848   4.635   4.969
 4425SOL     OW13298   4.322   4.453   3.994
 4425SOL    HW113299   4.346   4.522   3.926
 4425SOL    HW213300   4.244   4.486   4.048
 4426SOL     OW13301   5.005   4.069   4.668
 4426SOL    HW113302   4.919   4.019   4.655
 4426SOL    HW213303   5.067   4.015   4.724
 4427SOL     OW13304   4.531   4.329   5.189
 4427SOL    HW113305   4.484   4.326   5.278
 4427SOL    HW213306   4.480   4.274   5.123
 4428SOL     OW13307   4.715   4.134   4.966
 4428SOL    HW113308   4.638   4.168   5.020
 4428SOL    HW213309   4.681   4.083   4.887
 4429SOL     OW13310   4.765   4.425   4.153
 4429SOL    HW113311   4.791   4.421   4.249
 4429SOL    HW213312   4.680   4.374   4.139
 4430SOL     OW13313   3.800   4.535   4.513
 4430SOL    HW113314   3.899   4.523   4.522
 4430SOL    HW213315   3.776   4.630   4.534
 4431SOL     OW13316   4.589   4.072   3.919
 4431SOL    HW113317   4.648   4.135   3.870
 4431SOL    HW213318   4.608   3.978   3.890
 4432SOL     OW13319   5.086   4.868   4.269
 4432SOL    HW113320   5.169   4.839   4.221
 4432SOL    HW213321   5.037   4.935   4.213
 4433SOL     OW13322   4.274   3.920   4.609
 4433SOL    HW113323   4.269   3.915   4.709
 4433SOL    HW213324   4.276   4.016   4.580
 4434SOL     OW13325   4.045   4.667   3.966
 4434SOL    HW113326   4.127   4.706   3.924
 4434SOL    HW213327   4.018   4.585   3.917
 4435SOL     OW13328   4.106   4.424   4.204
 4435SOL    HW113329   4.151   4.334   4.201
 4435SOL    HW213330   4.012   4.413   4.237
 4436SOL     OW13331   4.338   3.846   3.841
 4436SOL    HW113332   4.436   3.824   3.848
 4436SOL    HW213333   4.307   3.829   3.748
 4437SOL     OW13334   4.646   4.227   4.623
 4437SOL    HW113335   4.621   4.218   4.527
 4437SOL    HW213336   4.694   4.145   4.654
 4438SOL     OW13337   4.263   3.788   4.236
 4438SOL    HW113338   4.182   3.789   4.294
 4438SOL    HW213339   4.266   3.871   4.181
 4439SOL     OW13340   5.158   4.912   3.765
 4439SOL    HW113341   5.190   4.836   3.822
 4439SOL    HW213342   5.066   4.939   3.795
 4440SOL     OW13343   4.021   3.759   3.895
 4440SOL    HW113344   4.070   3.843   3.874
 4440SOL    HW213345   4.083   3.694   3.940
 4441SOL     OW13346   4.659   3.960   4.204
 4441SOL    HW113347   4.611   4.001   4.126
 4441SOL    HW213348   4.758   3.958   4.185
 4442SOL     OW13349   4.951   5.294   4.517
 4442SOL    HW113350   4.972   5.368   4.452
 4442SOL    HW213351   5.019   5.294   4.590
 4443SOL     OW13352   4.183   4.876   4.465
 4443SOL    HW113353   4.112   4.849   4.530
 4443SOL    HW213354   4.157   4.848   4.372
 4444SOL     OW13355   4.756   4.273   3.740
 4444SOL    HW113356   4.715   4.355   3.701
 4444SOL    HW213357   4.820   4.299   3.813
 4445SOL     OW13358   4.285   3.946   4.871
 4445SOL    HW113359   4.323   3.862   4.908
 4445SOL    HW213360   4.197   3.965   4.915
 4446SOL     OW13361   4.590   4.178   4.366
 4446SOL    HW113362   4.558   4.250   4.304
 4446SOL    HW213363   4.614   4.097   4.313
 4447SOL     OW13364   4.741   3.763   4.477
 4447SOL    HW113365   4.669   3.768   4.408
 4447SOL    HW213366   4.717   3.694   4.546
 4448SOL     OW13367   5.114   4.299   3.802
 4448SOL    HW113368   5.060   4.278   3.883
 4448SOL    HW213369   5.205   4.258   3.811
 4449SOL     OW13370   4.251   3.980   4.052
 4449SOL    HW113371   4.278   3.921   3.977
 4449SOL    HW213372   4.251   4.075   4.021
 4450SOL     OW13373   4.788   5.071   5.064
 4450SOL    HW113374   4.708   5.048   5.119
 4450SOL    HW213375   4.871   5.045   5.113
 4451SOL     OW13376   4.835   4.919   4.824
 4451SOL    HW113377   4.795   4.963   4.905
 4451SOL    HW213378   4.794   4.956   4.741
 4452SOL     OW13379   4.429   4.774   4.092
 4452SOL    HW113380   4.415   4.781   4.191
 4452SOL    HW213381   4.513   4.723   4.074
 4453SOL     OW13382   4.134   4.537   4.975
 4453SOL    HW113383   4.220   4.549   5.025
 4453SOL    HW213384   4.092   4.450   5.002
 4454SOL     OW13385   4.998   4.110   4.986
 4454SOL    HW113386   5.019   4.184   5.050
 4454SOL    HW213387   4.909   4.127   4.943
 4455SOL     OW13388   4.091   4.824   4.225
 4455SOL    HW113389   4.084   4.907   4.169
 4455SOL    HW213390   4.095   4.744   4.165
 4456SOL     OW13391   4.290   4.261   4.589
 4456SOL    HW113392   4.302   4.327   4.515
 4456SOL    HW213393   4.336   4.295   4.672
 4457SOL     OW13394   4.976   5.072   4.112
 4457SOL    HW113395   5.026   5.149   4.152
 4457SOL    HW213396   4.881   5.074   4.144
 4458SOL     OW13397   4.297   4.594   4.753
 4458SOL    HW113398   4.341   4.683   4.744
 4458SOL    HW213399   4.234   4.594   4.830
 4459SOL     OW13400   5.084   4.586   4.769
 4459SOL    HW113401   5.009   4.586   4.703
 4459SOL    HW213402   5.121   4.494   4.778
 4460SOL     OW13403   4.933   4.249   3.999
 4460SOL    HW113404   4.946   4.165   4.053
 4460SOL    HW213405   4.904   4.323   4.059
 4461SOL     OW13406   4.031   3.937   4.955
 4461SOL    HW113407   4.008   3.974   5.045
 4461SOL    HW213408   4.001   3.842   4.949
 4462SOL     OW13409   3.761   5.034   5.006
 4462SOL    HW113410   3.814   4.985   5.074
 4462SOL    HW213411   3.783   5.132   5.011
 4463SOL     OW13412   4.456   4.358   4.788
 4463SOL    HW113413   4.515   4.332   4.712
 4463SOL    HW213414   4.428   4.454   4.777
 4464SOL     OW13415   4.031   3.787   4.342
 4464SOL    HW113416   4.020   3.881   4.375
 4464SOL    HW213417   4.026   3.724   4.419
 4465SOL     OW13418   5.346   4.091   4.098
 4465SOL    HW113419   5.348   4.015   4.162
 4465SOL    HW213420   5.298   4.168   4.138
 4466SOL     OW13421   4.747   4.490   4.690
 4466SOL    HW113422   4.762   4.511   4.786
 4466SOL    HW213423   4.717   4.395   4.681
 4467SOL     OW13424   5.027   4.562   3.766
 4467SOL    HW113425   5.061   4.469   3.781
 4467SOL    HW213426   5.045   4.589   3.671
 4468SOL     OW13427   4.043   4.534   4.673
 4468SOL    HW113428   4.136   4.570   4.678
 4468SOL    HW213429   4.037   4.449   4.725
 4469SOL     OW13430   4.063   4.233   4.730
 4469SOL    HW113431   4.011   4.150   4.713
 4469SOL    HW213432   4.140   4.238   4.666
 4470SOL     OW13433   4.884   3.931   5.201
 4470SOL    HW113434   4.884   3.995   5.278
 4470SOL    HW213435   4.912   3.979   5.118
 4471SOL     OW13436   3.732   5.050   3.924
 4471SOL    HW113437   3.639   5.071   3.893
 4471SOL    HW213438   3.742   4.951   3.937
 4472SOL     OW13439   4.726   4.520   4.962
 4472SOL    HW113440   4.767   4.488   5.048
 4472SOL    HW213441   4.630   4.493   4.959
 4473SOL     OW13442   3.764   4.268   4.838
 4473SOL    HW113443   3.849   4.235   4.797
 4473SOL    HW213444   3.777   4.283   4.936
 4474SOL     OW13445   4.539   4.296   4.049
 4474SOL    HW113446   4.546   4.207   4.003
 4474SOL    HW213447   4.445   4.330   4.041
 4475SOL     OW13448   4.395   4.188   4.993
 4475SOL    HW113449   4.361   4.099   4.963
 4475SOL    HW213450   4.421   4.242   4.913
 4476SOL     OW13451   4.197   4.224   3.915
 4476SOL    HW113452   4.258   4.304   3.919
 4476SOL    HW213453   4.102   4.255   3.922
 4477SOL     OW13454   3.883   4.861   5.190
 4477SOL    HW113455   3.905   4.800   5.266
 4477SOL    HW213456   3.893   4.812   5.104
 4478SOL     OW13457   5.071   4.783   4.958
 4478SOL    HW113458   5.095   4.720   4.884
 4478SOL    HW213459   4.981   4.823   4.940
 4479SOL     OW13460   5.026   4.579   4.033
 4479SOL    HW113461   4.940   4.548   4.075
 4479SOL    HW213462   5.022   4.565   3.934
 4480SOL     OW13463   3.807   4.982   4.746
 4480SOL    HW113464   3.802   4.981   4.846
 4480SOL    HW213465   3.724   4.941   4.708
 4481SOL     OW13466   5.004   4.651   4.396
 4481SOL    HW113467   5.064   4.570   4.398
 4481SOL    HW213468   5.044   4.720   4.336
 4482SOL     OW13469   4.554   4.997   5.146
 4482SOL    HW113470   4.549   5.030   5.241
 4482SOL    HW213471   4.468   5.016   5.100
 4483SOL     OW13472   3.987   4.050   4.444
 4483SOL    HW113473   3.908   4.101   4.410
 4483SOL    HW213474   3.978   4.035   4.542
 4484SOL     OW13475   4.546   4.726   5.096
 4484SOL    HW113476   4.586   4.725   5.004
 4484SOL    HW213477   4.556   4.818   5.136
 4485SOL     OW13478   4.640   4.634   4.015
 4485SOL    HW113479   4.703   4.672   3.947
 4485SOL    HW213480   4.680   4.551   4.054
 4486SOL     OW13481   4.096   5.012   5.214
 4486SOL    HW113482   4.083   5.105   5.180
 4486SOL    HW213483   4.012   4.960   5.201
 4487SOL     OW13484   4.763   4.822   4.420
 4487SOL    HW113485   4.693   4.775   4.474
 4487SOL    HW213486   4.822   4.754   4.377
 4488SOL     OW13487   4.738   3.960   4.695
 4488SOL    HW113488   4.730   3.924   4.602
 4488SOL    HW213489   4.736   3.884   4.760
 4489SOL     OW13490   4.396   3.927   5.213
 4489SOL    HW113491   4.486   3.911   5.173
 4489SOL    HW213492   4.404   3.932   5.312
 4490SOL     OW13493   3.799   4.069   3.757
 4490SOL    HW113494   3.707   4.041   3.728
 4490SOL    HW213495   3.830   4.146   3.701
 4491SOL     OW13496   3.796   3.890   4.042
 4491SOL    HW113497   3.779   3.973   3.988
 4491SOL    HW213498   3.886   3.853   4.020
 4492SOL     OW13499   4.907   5.059   3.843
 4492SOL    HW113500   4.808   5.048   3.845
 4492SOL    HW213501   4.941   5.074   3.936
 4493SOL     OW13502   4.337   4.566   5.155
 4493SOL    HW113503   4.393   4.647   5.138
 4493SOL    HW213504   4.396   4.486   5.158
 4494SOL     OW13505   4.949   4.049   4.173
 4494SOL    HW113506   5.014   3.975   4.162
 4494SOL    HW213507   4.969   4.099   4.257
 4495SOL     OW13508   4.318   4.469   4.376
 4495SOL    HW113509   4.368   4.554   4.357
 4495SOL    HW213510   4.230   4.471   4.328
 4496SOL     OW13511   4.583   5.098   3.740
 4496SOL    HW113512   4.537   5.113   3.828
 4496SOL    HW213513   4.627   5.183   3.710
 4497SOL     OW13514   4.583   4.680   4.585
 4497SOL    HW113515   4.637   4.611   4.633
 4497SOL    HW213516   4.551   4.749   4.651
 4498SOL     OW13517   4.807   4.708   3.811
 4498SOL    HW113518   4.784   4.761   3.729
 4498SOL    HW213519   4.888   4.652   3.792
 4499SOL     OW13520   3.803   4.964   4.377
 4499SOL    HW113521   3.802   4.917   4.465
 4499SOL    HW213522   3.885   4.936   4.326
 4500SOL     OW13523   4.152   4.148   4.244
 4500SOL    HW113524   4.182   4.076   4.182
 4500SOL    HW213525   4.113   4.108   4.327
 4501SOL     OW13526   4.041   4.271   5.004
 4501SOL    HW113527   4.079   4.212   5.076
 4501SOL    HW213528   4.081   4.245   4.916
 4502SOL     OW13529   5.148   3.938   4.836
 4502SOL    HW113530   5.200   3.873   4.891
 4502SOL    HW213531   5.099   4.001   4.897
 4503SOL     OW13532   4.725   3.758   4.878
 4503SOL    HW113533   4.662   3.686   4.847
 4503SOL    HW213534   4.818   3.722   4.878
 4504SOL     OW13535   4.494   5.054   4.025
 4504SOL    HW113536   4.448   4.967   4.042
 4504SOL    HW213537   4.585   5.051   4.066
 4505SOL     OW13538   5.076   3.776   3.892
 4505SOL    HW113539   5.111   3.735   3.808
 4505SOL    HW213540   4.986   3.738   3.912
 4506SOL     OW13541   3.763   4.801   4.024
 4506SOL    HW113542   3.862   4.790   4.015
 4506SOL    HW213543   3.723   4.715   4.056
   5.17332   5.17332   5.17332
