mobley_5747981_GMX.gro created by acpype (v: 2023.10.27) on Wed May 20 23:53:49 2026
   24
    1MOL     C1    1   2.533   2.470   2.111
    1MOL     C2    2   2.269   2.122   2.377
    1MOL     C3    3   2.087   2.402   2.422
    1MOL     C4    4   2.485   2.442   2.553
    1MOL     C5    5   2.424   2.348   2.279
    1MOL     C6    6   2.321   2.358   2.394
    1MOL     O1    7   2.435   2.474   2.214
    1MOL     O2    8   2.311   2.230   2.460
    1MOL     O3    9   2.195   2.389   2.331
    1MOL     O4   10   2.359   2.460   2.489
    1MOL     H1   11   2.601   2.387   2.129
    1MOL     H2   12   2.588   2.564   2.110
    1MOL     H3   13   2.483   2.456   2.015
    1MOL     H4   14   2.245   2.160   2.278
    1MOL     H5   15   2.181   2.074   2.422
    1MOL     H6   16   2.350   2.049   2.370
    1MOL     H7   17   2.119   2.374   2.522
    1MOL     H8   18   2.004   2.338   2.390
    1MOL     H9   19   2.054   2.507   2.423
    1MOL    H10   20   2.560   2.506   2.505
    1MOL    H11   21   2.515   2.337   2.545
    1MOL    H12   22   2.476   2.470   2.658
    1MOL    H13   23   2.395   2.273   2.206
    1MOL    H14   24   2.523   2.322   2.317
   4.70929   4.70929   4.70929
