mobley_5747981_GMX.gro created by acpype (v: 2023.10.27) on Wed May 20 23:53:49 2026
10191
    1MOL     C1    1   2.533   2.470   2.111
    1MOL     C2    2   2.269   2.122   2.377
    1MOL     C3    3   2.087   2.402   2.422
    1MOL     C4    4   2.485   2.442   2.553
    1MOL     C5    5   2.424   2.348   2.279
    1MOL     C6    6   2.321   2.358   2.394
    1MOL     O1    7   2.435   2.474   2.214
    1MOL     O2    8   2.311   2.230   2.460
    1MOL     O3    9   2.195   2.389   2.331
    1MOL     O4   10   2.359   2.460   2.489
    1MOL     H1   11   2.601   2.387   2.129
    1MOL     H2   12   2.588   2.564   2.110
    1MOL     H3   13   2.483   2.456   2.015
    1MOL     H4   14   2.245   2.160   2.278
    1MOL     H5   15   2.181   2.074   2.422
    1MOL     H6   16   2.350   2.049   2.370
    1MOL     H7   17   2.119   2.374   2.522
    1MOL     H8   18   2.004   2.338   2.390
    1MOL     H9   19   2.054   2.507   2.423
    1MOL    H10   20   2.560   2.506   2.505
    1MOL    H11   21   2.515   2.337   2.545
    1MOL    H12   22   2.476   2.470   2.658
    1MOL    H13   23   2.395   2.273   2.206
    1MOL    H14   24   2.523   2.322   2.317
    2SOL     OW   25   0.230   0.628   0.113
    2SOL    HW1   26   0.137   0.626   0.150
    2SOL    HW2   27   0.231   0.589   0.021
    3SOL     OW   28   0.225   0.275   0.996
    3SOL    HW1   29   0.260   0.258   1.088
    3SOL    HW2   30   0.137   0.230   0.984
    4SOL     OW   31   0.019   0.368   0.647
    4SOL    HW1   32  -0.063   0.411   0.686
    4SOL    HW2   33  -0.009   0.295   0.584
    5SOL     OW   34   0.569   1.275   1.165
    5SOL    HW1   35   0.476   1.268   1.128
    5SOL    HW2   36   0.580   1.364   1.209
    6SOL     OW   37   1.555   1.511   0.703
    6SOL    HW1   38   1.498   1.495   0.784
    6SOL    HW2   39   1.496   1.521   0.623
    7SOL     OW   40   1.135   0.703   0.717
    7SOL    HW1   41   1.192   0.781   0.692
    7SOL    HW2   42   1.075   0.729   0.793
    8SOL     OW   43   1.755   0.607   0.231
    8SOL    HW1   44   1.743   0.594   0.132
    8SOL    HW2   45   1.725   0.526   0.280
    9SOL     OW   46   0.768   1.144   1.023
    9SOL    HW1   47   0.690   1.161   1.083
    9SOL    HW2   48   0.802   1.231   0.987
   10SOL     OW   49   0.850   0.798   1.823
   10SOL    HW1   50   0.846   0.874   1.888
   10SOL    HW2   51   0.872   0.834   1.732
   11SOL     OW   52   0.685   1.012   0.665
   11SOL    HW1   53   0.754   0.996   0.735
   11SOL    HW2   54   0.612   1.069   0.703
   12SOL     OW   55   0.686   1.161   1.803
   12SOL    HW1   56   0.746   1.240   1.817
   12SOL    HW2   57   0.600   1.192   1.762
   13SOL     OW   58   0.335   1.435   1.061
   13SOL    HW1   59   0.257   1.404   1.008
   13SOL    HW2   60   0.393   1.493   1.004
   14SOL     OW   61   1.460   1.505   1.339
   14SOL    HW1   62   1.484   1.599   1.365
   14SOL    HW2   63   1.444   1.451   1.421
   15SOL     OW   64   0.438   0.392   1.499
   15SOL    HW1   65   0.520   0.336   1.508
   15SOL    HW2   66   0.357   0.334   1.503
   16SOL     OW   67   1.603   0.447   0.737
   16SOL    HW1   68   1.529   0.493   0.687
   16SOL    HW2   69   1.654   0.515   0.790
   17SOL     OW   70   0.231   1.713   0.483
   17SOL    HW1   71   0.265   1.790   0.537
   17SOL    HW2   72   0.275   1.713   0.393
   18SOL     OW   73   1.127   1.341   1.690
   18SOL    HW1   74   1.174   1.341   1.778
   18SOL    HW2   75   1.079   1.254   1.679
   19SOL     OW   76   0.230   1.434   0.538
   19SOL    HW1   77   0.204   1.530   0.538
   19SOL    HW2   78   0.159   1.380   0.583
   20SOL     OW   79   0.240   1.091   0.886
   20SOL    HW1   80   0.254   1.007   0.938
   20SOL    HW2   81   0.185   1.155   0.941
   21SOL     OW   82   0.620   1.786   1.439
   21SOL    HW1   83   0.528   1.769   1.474
   21SOL    HW2   84   0.648   1.878   1.465
   22SOL     OW   85   0.606   0.964   0.123
   22SOL    HW1   86   0.613   1.048   0.069
   22SOL    HW2   87   0.652   0.977   0.211
   23SOL     OW   88   1.594   0.114   1.480
   23SOL    HW1   89   1.576   0.181   1.408
   23SOL    HW2   90   1.591   0.160   1.569
   24SOL     OW   91   0.122   0.643   0.563
   24SOL    HW1   92   0.077   0.555   0.580
   24SOL    HW2   93   0.121   0.697   0.647
   25SOL     OW   94   1.842   1.767   0.359
   25SOL    HW1   95   1.896   1.738   0.439
   25SOL    HW2   96   1.872   1.857   0.330
   26SOL     OW   97   0.027   1.596   0.117
   26SOL    HW1   98   0.008   1.500   0.138
   26SOL    HW2   99  -0.006   1.654   0.192
   27SOL     OW  100   1.689   0.922   0.612
   27SOL    HW1  101   1.784   0.893   0.620
   27SOL    HW2  102   1.681   0.987   0.537
   28SOL     OW  103   1.641   1.108   0.432
   28SOL    HW1  104   1.727   1.110   0.380
   28SOL    HW2  105   1.655   1.155   0.520
   29SOL     OW  106   0.113   0.737   1.597
   29SOL    HW1  107   0.201   0.724   1.642
   29SOL    HW2  108   0.100   0.834   1.575
   30SOL     OW  109   0.613   1.365   0.726
   30SOL    HW1  110   0.564   1.278   0.735
   30SOL    HW2  111   0.590   1.408   0.639
   31SOL     OW  112   1.293   1.228   1.423
   31SOL    HW1  113   1.330   1.155   1.365
   31SOL    HW2  114   1.345   1.233   1.508
   32SOL     OW  115   0.809   0.004   0.502
   32SOL    HW1  116   0.849   0.095   0.493
   32SOL    HW2  117   0.709   0.012   0.508
   33SOL     OW  118   0.197   0.976   1.264
   33SOL    HW1  119   0.286   0.931   1.250
   33SOL    HW2  120   0.124   0.911   1.245
   34SOL     OW  121   1.525   0.999   0.190
   34SOL    HW1  122   1.462   0.923   0.203
   34SOL    HW2  123   1.573   1.017   0.276
   35SOL     OW  124   1.187   1.792   1.616
   35SOL    HW1  125   1.211   1.852   1.540
   35SOL    HW2  126   1.194   1.697   1.586
   36SOL     OW  127   0.317   0.251   1.801
   36SOL    HW1  128   0.388   0.322   1.807
   36SOL    HW2  129   0.229   0.290   1.829
   37SOL     OW  130   1.466   1.417   0.953
   37SOL    HW1  131   1.407   1.423   1.033
   37SOL    HW2  132   1.451   1.329   0.907
   38SOL     OW  133   1.667   1.714   0.572
   38SOL    HW1  134   1.626   1.691   0.484
   38SOL    HW2  135   1.649   1.640   0.637
   39SOL     OW  136   0.598   0.729   0.270
   39SOL    HW1  137   0.622   0.798   0.202
   39SOL    HW2  138   0.520   0.762   0.324
   40SOL     OW  139   1.281   0.345   0.944
   40SOL    HW1  140   1.195   0.295   0.931
   40SOL    HW2  141   1.343   0.291   1.000
   41SOL     OW  142   1.576   1.662   0.307
   41SOL    HW1  143   1.665   1.708   0.310
   41SOL    HW2  144   1.555   1.638   0.212
   42SOL     OW  145   0.807   0.605   1.465
   42SOL    HW1  146   0.760   0.602   1.554
   42SOL    HW2  147   0.756   0.550   1.399
   43SOL     OW  148   1.394   0.469   1.674
   43SOL    HW1  149   1.374   0.512   1.762
   43SOL    HW2  150   1.472   0.407   1.683
   44SOL     OW  151   0.973   0.890   1.572
   44SOL    HW1  152   1.019   0.806   1.543
   44SOL    HW2  153   0.917   0.924   1.497
   45SOL     OW  154   0.991   0.410   1.242
   45SOL    HW1  155   0.914   0.444   1.296
   45SOL    HW2  156   0.957   0.359   1.163
   46SOL     OW  157   1.041   0.701   0.429
   46SOL    HW1  158   1.067   0.697   0.525
   46SOL    HW2  159   0.956   0.650   0.415
   47SOL     OW  160   0.076   0.811   0.789
   47SOL    HW1  161   0.175   0.799   0.798
   47SOL    HW2  162   0.052   0.906   0.810
   48SOL     OW  163   0.130   1.821   1.571
   48SOL    HW1  164   0.120   1.806   1.670
   48SOL    HW2  165   0.044   1.857   1.535
   49SOL     OW  166   0.865   0.348   0.195
   49SOL    HW1  167   0.924   0.411   0.146
   49SOL    HW2  168   0.884   0.254   0.166
   50SOL     OW  169   1.719   0.585   1.831
   50SOL    HW1  170   1.693   0.674   1.795
   50SOL    HW2  171   1.717   0.517   1.758
   51SOL     OW  172   1.362   1.144   0.545
   51SOL    HW1  173   1.445   1.115   0.497
   51SOL    HW2  174   1.313   1.211   0.489
   52SOL     OW  175   0.550   0.196   0.885
   52SOL    HW1  176   0.545   0.191   0.985
   52SOL    HW2  177   0.552   0.292   0.856
   53SOL     OW  178   1.008   1.456   0.477
   53SOL    HW1  179   0.962   1.528   0.425
   53SOL    HW2  180   1.004   1.476   0.575
   54SOL     OW  181   0.351   1.801   0.853
   54SOL    HW1  182   0.401   1.715   0.859
   54SOL    HW2  183   0.416   1.878   0.850
   55SOL     OW  184   1.795   1.066   0.873
   55SOL    HW1  185   1.733   1.051   0.797
   55SOL    HW2  186   1.743   1.077   0.958
   56SOL     OW  187   1.227   1.550   1.506
   56SOL    HW1  188   1.233   1.473   1.570
   56SOL    HW2  189   1.175   1.524   1.426
   57SOL     OW  190   0.321   0.943   0.242
   57SOL    HW1  191   0.403   0.982   0.200
   57SOL    HW2  192   0.294   0.861   0.193
   58SOL     OW  193   1.458   0.735   0.728
   58SOL    HW1  194   1.453   0.670   0.803
   58SOL    HW2  195   1.538   0.794   0.741
   59SOL     OW  196   0.461   1.266   1.727
   59SOL    HW1  197   0.411   1.267   1.641
   59SOL    HW2  198   0.398   1.248   1.803
   60SOL     OW  199   1.111   1.776   0.237
   60SOL    HW1  200   1.051   1.714   0.287
   60SOL    HW2  201   1.142   1.732   0.152
   61SOL     OW  202   0.202   0.285   1.498
   61SOL    HW1  203   0.122   0.345   1.485
   61SOL    HW2  204   0.192   0.236   1.584
   62SOL     OW  205   1.632   1.377   0.081
   62SOL    HW1  206   1.600   1.471   0.071
   62SOL    HW2  207   1.556   1.314   0.069
   63SOL     OW  208   0.464   1.743   0.323
   63SOL    HW1  209   0.497   1.782   0.409
   63SOL    HW2  210   0.540   1.736   0.258
   64SOL     OW  211   1.400   0.107   0.426
   64SOL    HW1  212   1.376   0.070   0.336
   64SOL    HW2  213   1.499   0.123   0.430
   65SOL     OW  214   0.249   1.785   1.241
   65SOL    HW1  215   0.306   1.720   1.291
   65SOL    HW2  216   0.233   1.752   1.148
   66SOL     OW  217   0.940   1.698   0.904
   66SOL    HW1  218   1.020   1.641   0.925
   66SOL    HW2  219   0.891   1.658   0.827
   67SOL     OW  220   0.382   0.700   0.480
   67SOL    HW1  221   0.427   0.610   0.477
   67SOL    HW2  222   0.288   0.689   0.513
   68SOL     OW  223   1.547   0.222   1.729
   68SOL    HW1  224   1.542   0.259   1.821
   68SOL    HW2  225   1.475   0.153   1.717
   69SOL     OW  226   0.614   0.122   0.117
   69SOL    HW1  227   0.712   0.100   0.124
   69SOL    HW2  228   0.583   0.105   0.024
   70SOL     OW  229   0.781   0.264   1.749
   70SOL    HW1  230   0.848   0.203   1.792
   70SOL    HW2  231   0.708   0.283   1.814
   71SOL     OW  232   0.888   1.514   1.195
   71SOL    HW1  233   0.865   1.489   1.101
   71SOL    HW2  234   0.949   1.445   1.234
   72SOL     OW  235   1.351   0.590   1.433
   72SOL    HW1  236   1.379   0.547   1.518
   72SOL    HW2  237   1.376   0.686   1.434
   73SOL     OW  238   0.803   1.402   0.924
   73SOL    HW1  239   0.893   1.416   0.882
   73SOL    HW2  240   0.732   1.404   0.853
   74SOL     OW  241   0.922   0.503   0.899
   74SOL    HW1  242   0.897   0.494   0.803
   74SOL    HW2  243   0.970   0.421   0.930
   75SOL     OW  244   0.539   0.064   0.512
   75SOL    HW1  245   0.458   0.065   0.570
   75SOL    HW2  246   0.542   0.147   0.457
   76SOL     OW  247   1.434   1.188   0.041
   76SOL    HW1  248   1.466   1.112   0.098
   76SOL    HW2  249   1.342   1.215   0.071
   77SOL     OW  250   0.297   0.035   0.171
   77SOL    HW1  251   0.346   0.119   0.150
   77SOL    HW2  252   0.359  -0.030   0.216
   78SOL     OW  253   0.935   0.236   0.480
   78SOL    HW1  254   0.887   0.277   0.402
   78SOL    HW2  255   1.034   0.234   0.461
   79SOL     OW  256   1.076   0.683   1.464
   79SOL    HW1  257   0.996   0.622   1.467
   79SOL    HW2  258   1.157   0.630   1.440
   80SOL     OW  259   1.227   1.570   0.793
   80SOL    HW1  260   1.248   1.644   0.728
   80SOL    HW2  261   1.295   1.570   0.866
   81SOL     OW  262   0.459   1.152   0.741
   81SOL    HW1  263   0.388   1.125   0.806
   81SOL    HW2  264   0.433   1.124   0.648
   82SOL     OW  265   1.271   1.797   0.591
   82SOL    HW1  266   1.315   1.861   0.527
   82SOL    HW2  267   1.221   1.849   0.661
   83SOL     OW  268   1.032   0.549   0.016
   83SOL    HW1  269   0.991   0.631  -0.023
   83SOL    HW2  270   1.096   0.575   0.089
   84SOL     OW  271   0.078   0.556   1.386
   84SOL    HW1  272   0.170   0.555   1.345
   84SOL    HW2  273   0.072   0.630   1.453
   85SOL     OW  274   0.561   0.222   1.147
   85SOL    HW1  275   0.599   0.138   1.184
   85SOL    HW2  276   0.473   0.241   1.191
   86SOL     OW  277   0.866   0.454   0.642
   86SOL    HW1  278   0.834   0.526   0.580
   86SOL    HW2  279   0.890   0.373   0.589
   87SOL     OW  280   1.017   0.039   0.753
   87SOL    HW1  281   0.945   0.044   0.684
   87SOL    HW2  282   0.993  -0.030   0.822
   88SOL     OW  283   1.429   1.173   0.867
   88SOL    HW1  284   1.374   1.089   0.860
   88SOL    HW2  285   1.455   1.202   0.775
   89SOL     OW  286   1.466   0.590   0.992
   89SOL    HW1  287   1.436   0.495   0.999
   89SOL    HW2  288   1.539   0.606   1.058
   90SOL     OW  289   1.857   0.833   0.377
   90SOL    HW1  290   1.899   0.769   0.441
   90SOL    HW2  291   1.819   0.782   0.299
   91SOL     OW  292   0.488   1.385   0.174
   91SOL    HW1  293   0.401   1.370   0.221
   91SOL    HW2  294   0.471   1.411   0.079
   92SOL     OW  295   1.664   1.280   0.657
   92SOL    HW1  296   1.763   1.288   0.671
   92SOL    HW2  297   1.619   1.364   0.688
   93SOL     OW  298   1.390   0.575   0.078
   93SOL    HW1  299   1.336   0.554   0.159
   93SOL    HW2  300   1.481   0.534   0.087
   94SOL     OW  301   0.527   0.256   0.328
   94SOL    HW1  302   0.554   0.197   0.253
   94SOL    HW2  303   0.527   0.351   0.297
   95SOL     OW  304   1.754   1.223   1.588
   95SOL    HW1  305   1.845   1.184   1.575
   95SOL    HW2  306   1.762   1.319   1.612
   96SOL     OW  307   1.064   1.347   1.340
   96SOL    HW1  308   0.984   1.324   1.395
   96SOL    HW2  309   1.147   1.321   1.389
   97SOL     OW  310   1.592   1.629   1.625
   97SOL    HW1  311   1.619   1.663   1.535
   97SOL    HW2  312   1.671   1.591   1.671
   98SOL     OW  313   1.111   1.195   1.100
   98SOL    HW1  314   1.071   1.239   1.181
   98SOL    HW2  315   1.070   1.232   1.017
   99SOL     OW  316   1.638   1.099   1.079
   99SOL    HW1  317   1.643   1.180   1.138
   99SOL    HW2  318   1.552   1.101   1.028
  100SOL     OW  319   0.915   0.089   1.402
  100SOL    HW1  320   0.940   0.069   1.307
  100SOL    HW2  321   0.987   0.145   1.444
  101SOL     OW  322   0.980   1.116   1.719
  101SOL    HW1  323   0.881   1.122   1.729
  101SOL    HW2  324   1.003   1.036   1.663
  102SOL     OW  325   0.705   1.050   0.368
  102SOL    HW1  326   0.691   1.057   0.467
  102SOL    HW2  327   0.789   0.999   0.350
  103SOL     OW  328   0.410   0.813   1.251
  103SOL    HW1  329   0.496   0.825   1.301
  103SOL    HW2  330   0.368   0.726   1.278
  104SOL     OW  331   1.274   0.386   1.262
  104SOL    HW1  332   1.295   0.460   1.326
  104SOL    HW2  333   1.185   0.403   1.219
  105SOL     OW  334   0.064   1.564   1.331
  105SOL    HW1  335   0.018   1.646   1.297
  105SOL    HW2  336   0.162   1.583   1.340
  106SOL     OW  337   0.367   1.100   0.501
  106SOL    HW1  338   0.360   1.183   0.445
  106SOL    HW2  339   0.371   1.020   0.441
  107SOL     OW  340   0.566   0.537   0.865
  107SOL    HW1  341   0.578   0.603   0.791
  107SOL    HW2  342   0.612   0.571   0.948
  108SOL     OW  343   1.252   1.348   0.388
  108SOL    HW1  344   1.302   1.425   0.428
  108SOL    HW2  345   1.157   1.350   0.420
  109SOL     OW  346   1.272   1.445   1.142
  109SOL    HW1  347   1.319   1.458   1.229
  109SOL    HW2  348   1.206   1.371   1.151
  110SOL     OW  349   1.582   0.639   0.472
  110SOL    HW1  350   1.551   0.700   0.545
  110SOL    HW2  351   1.632   0.691   0.403
  111SOL     OW  352   0.354   1.510   1.329
  111SOL    HW1  353   0.333   1.466   1.242
  111SOL    HW2  354   0.451   1.536   1.332
  112SOL     OW  355   0.402   0.751   1.598
  112SOL    HW1  356   0.470   0.806   1.551
  112SOL    HW2  357   0.442   0.663   1.625
  113SOL     OW  358   1.587   0.779   1.670
  113SOL    HW1  359   1.495   0.817   1.665
  113SOL    HW2  360   1.647   0.826   1.605
  114SOL     OW  361   1.013   0.105   1.770
  114SOL    HW1  362   1.019   0.190   1.718
  114SOL    HW2  363   1.045   0.029   1.713
  115SOL     OW  364   0.504   0.050   1.740
  115SOL    HW1  365   0.462  -0.007   1.670
  115SOL    HW2  366   0.438   0.119   1.772
  116SOL     OW  367   0.573   0.870   1.029
  116SOL    HW1  368   0.617   0.959   1.020
  116SOL    HW2  369   0.510   0.870   1.106
  117SOL     OW  370   1.360   0.862   1.045
  117SOL    HW1  371   1.285   0.862   0.979
  117SOL    HW2  372   1.397   0.770   1.054
  118SOL     OW  373   1.209   0.525   0.275
  118SOL    HW1  374   1.222   0.441   0.329
  118SOL    HW2  375   1.180   0.599   0.335
  119SOL     OW  376   0.307   0.213   1.231
  119SOL    HW1  377   0.284   0.250   1.321
  119SOL    HW2  378   0.277   0.118   1.225
  120SOL     OW  379   0.037   1.310   1.282
  120SOL    HW1  380   0.090   1.261   1.350
  120SOL    HW2  381   0.059   1.408   1.287
  121SOL     OW  382   0.732   0.634   1.064
  121SOL    HW1  383   0.791   0.608   0.988
  121SOL    HW2  384   0.704   0.730   1.053
  122SOL     OW  385   1.728   0.935   1.854
  122SOL    HW1  386   1.682   0.928   1.765
  122SOL    HW2  387   1.666   0.979   1.920
  123SOL     OW  388   0.307   0.063   0.618
  123SOL    HW1  389   0.296   0.157   0.651
  123SOL    HW2  390   0.302   0.000   0.695
  124SOL     OW  391   1.622   0.367   0.374
  124SOL    HW1  392   1.624   0.291   0.438
  124SOL    HW2  393   1.574   0.444   0.414
  125SOL     OW  394   1.023   0.766   0.966
  125SOL    HW1  395   1.038   0.787   1.062
  125SOL    HW2  396   0.993   0.671   0.957
  126SOL     OW  397   0.980   1.573   1.700
  126SOL    HW1  398   0.960   1.617   1.612
  126SOL    HW2  399   1.019   1.482   1.684
  127SOL     OW  400   1.859   1.518   1.605
  127SOL    HW1  401   1.873   1.545   1.510
  127SOL    HW2  402   1.942   1.540   1.658
  128SOL     OW  403   0.350   0.898   1.804
  128SOL    HW1  404   0.426   0.942   1.852
  128SOL    HW2  405   0.385   0.851   1.722
  129SOL     OW  406   1.540   0.274   0.125
  129SOL    HW1  407   1.479   0.199   0.148
  129SOL    HW2  408   1.562   0.326   0.208
  130SOL     OW  409   1.303   0.838   0.042
  130SOL    HW1  410   1.337   0.745   0.057
  130SOL    HW2  411   1.321   0.865  -0.053
  131SOL     OW  412   1.068   1.333   0.849
  131SOL    HW1  413   1.075   1.249   0.794
  131SOL    HW2  414   1.130   1.402   0.813
  132SOL     OW  415   0.319   0.810   0.949
  132SOL    HW1  416   0.412   0.846   0.954
  132SOL    HW2  417   0.313   0.725   1.001
  133SOL     OW  418   0.339   0.509   1.006
  133SOL    HW1  419   0.287   0.426   0.989
  133SOL    HW2  420   0.416   0.514   0.942
  134SOL     OW  421   1.138   0.380   1.678
  134SOL    HW1  422   1.093   0.443   1.742
  134SOL    HW2  423   1.231   0.411   1.661
  135SOL     OW  424   1.160   0.207   1.477
  135SOL    HW1  425   1.160   0.271   1.554
  135SOL    HW2  426   1.188   0.255   1.394
  136SOL     OW  427   0.008   1.326   0.200
  136SOL    HW1  428  -0.085   1.347   0.169
  136SOL    HW2  429   0.018   1.227   0.213
  137SOL     OW  430   0.088   1.801   0.927
  137SOL    HW1  431   0.046   1.715   0.900
  137SOL    HW2  432   0.182   1.804   0.893
  138SOL     OW  433   0.504   1.568   0.910
  138SOL    HW1  434   0.570   1.642   0.919
  138SOL    HW2  435   0.548   1.489   0.868
  139SOL     OW  436   1.002   0.796   1.238
  139SOL    HW1  437   1.043   0.764   1.324
  139SOL    HW2  438   0.906   0.769   1.235
  140SOL     OW  439   0.040   0.544   1.114
  140SOL    HW1  440   0.125   0.511   1.073
  140SOL    HW2  441   0.053   0.559   1.212
  141SOL     OW  442   0.189   0.520   1.722
  141SOL    HW1  443   0.248   0.480   1.652
  141SOL    HW2  444   0.131   0.591   1.681
  142SOL     OW  445   1.369   0.950   1.660
  142SOL    HW1  446   1.408   1.039   1.680
  142SOL    HW2  447   1.379   0.930   1.563
  143SOL     OW  448   0.815   0.572   0.325
  143SOL    HW1  449   0.822   0.483   0.279
  143SOL    HW2  450   0.721   0.606   0.317
  144SOL     OW  451   1.657   0.604   1.206
  144SOL    HW1  452   1.619   0.535   1.268
  144SOL    HW2  453   1.739   0.568   1.162
  145SOL     OW  454   0.252   1.564   1.744
  145SOL    HW1  455   0.222   1.621   1.820
  145SOL    HW2  456   0.245   1.467   1.770
  146SOL     OW  457   0.671   0.464   1.269
  146SOL    HW1  458   0.637   0.375   1.239
  146SOL    HW2  459   0.697   0.518   1.189
  147SOL     OW  460   0.930   1.678   1.465
  147SOL    HW1  461   0.906   1.660   1.370
  147SOL    HW2  462   0.960   1.772   1.475
  148SOL     OW  463   0.473   0.500   0.191
  148SOL    HW1  464   0.534   0.580   0.195
  148SOL    HW2  465   0.378   0.531   0.198
  149SOL     OW  466   0.159   1.137   1.466
  149SOL    HW1  467   0.181   1.076   1.542
  149SOL    HW2  468   0.169   1.088   1.380
  150SOL     OW  469   1.347   1.059   1.234
  150SOL    HW1  470   1.371   0.996   1.160
  150SOL    HW2  471   1.257   1.099   1.216
  151SOL     OW  472   1.302   0.855   0.309
  151SOL    HW1  473   1.216   0.824   0.351
  151SOL    HW2  474   1.298   0.841   0.210
  152SOL     OW  475   1.759   1.747   1.154
  152SOL    HW1  476   1.820   1.777   1.081
  152SOL    HW2  477   1.721   1.658   1.132
  153SOL     OW  478   1.252   1.731   1.128
  153SOL    HW1  479   1.336   1.736   1.074
  153SOL    HW2  480   1.229   1.635   1.146
  154SOL     OW  481   0.083   1.258   1.022
  154SOL    HW1  482   0.078   1.257   1.122
  154SOL    HW2  483   0.000   1.217   0.984
  155SOL     OW  484   0.688   1.662   1.716
  155SOL    HW1  485   0.632   1.743   1.725
  155SOL    HW2  486   0.740   1.666   1.630
  156SOL     OW  487   0.903   0.086   0.133
  156SOL    HW1  488   0.954   0.087   0.047
  156SOL    HW2  489   0.959   0.044   0.204
  157SOL     OW  490   1.726   0.135   0.523
  157SOL    HW1  491   1.799   0.118   0.456
  157SOL    HW2  492   1.695   0.048   0.561
  158SOL     OW  493   1.388   1.573   0.477
  158SOL    HW1  494   1.455   1.585   0.403
  158SOL    HW2  495   1.348   1.662   0.500
  159SOL     OW  496   0.130   1.794   1.851
  159SOL    HW1  497   0.089   1.720   1.904
  159SOL    HW2  498   0.194   1.845   1.909
  160SOL     OW  499   1.280   0.927   0.672
  160SOL    HW1  500   1.340   0.846   0.674
  160SOL    HW2  501   1.320   0.996   0.612
  161SOL     OW  502   0.830   1.273   1.422
  161SOL    HW1  503   0.825   1.306   1.517
  161SOL    HW2  504   0.744   1.292   1.376
  162SOL     OW  505   0.672   1.616   0.154
  162SOL    HW1  506   0.681   1.626   0.055
  162SOL    HW2  507   0.632   1.527   0.175
  163SOL     OW  508   1.650   1.720   1.394
  163SOL    HW1  509   1.703   1.730   1.310
  163SOL    HW2  510   1.623   1.810   1.428
  164SOL     OW  511   1.841   0.175   0.963
  164SOL    HW1  512   1.880   0.090   0.927
  164SOL    HW2  513   1.743   0.177   0.944
  165SOL     OW  514   0.263   0.326   0.720
  165SOL    HW1  515   0.184   0.377   0.686
  165SOL    HW2  516   0.254   0.311   0.818
  166SOL     OW  517   1.194   1.612   0.031
  166SOL    HW1  518   1.200   1.519   0.068
  166SOL    HW2  519   1.135   1.612  -0.049
  167SOL     OW  520   0.822   1.002   1.372
  167SOL    HW1  521   0.862   1.001   1.280
  167SOL    HW2  522   0.832   1.094   1.412
  168SOL     OW  523   0.916   0.910   0.291
  168SOL    HW1  524   0.979   0.948   0.223
  168SOL    HW2  525   0.956   0.827   0.330
  169SOL     OW  526   1.504   1.607   0.044
  169SOL    HW1  527   1.412   1.644   0.051
  169SOL    HW2  528   1.542   1.627  -0.046
  170SOL     OW  529   0.372   1.288   1.490
  170SOL    HW1  530   0.359   1.381   1.456
  170SOL    HW2  531   0.288   1.236   1.477
  171SOL     OW  532   1.614   1.292   1.289
  171SOL    HW1  533   1.674   1.295   1.369
  171SOL    HW2  534   1.539   1.356   1.302
  172SOL     OW  535   1.039   1.098   0.696
  172SOL    HW1  536   0.969   1.051   0.750
  172SOL    HW2  537   1.098   1.030   0.653
  173SOL     OW  538   1.014   0.236   0.971
  173SOL    HW1  539   1.006   0.200   0.878
  173SOL    HW2  540   1.012   0.160   1.036
  174SOL     OW  541   0.590   1.487   0.491
  174SOL    HW1  542   0.632   1.429   0.421
  174SOL    HW2  543   0.546   1.566   0.447
  175SOL     OW  544   1.709   0.385   1.381
  175SOL    HW1  545   1.782   0.454   1.385
  175SOL    HW2  546   1.737   0.310   1.322
  176SOL     OW  547   0.255   1.348   0.290
  176SOL    HW1  548   0.159   1.349   0.263
  176SOL    HW2  549   0.267   1.401   0.374
  177SOL     OW  550   0.105   1.013   1.726
  177SOL    HW1  551   0.028   0.980   1.780
  177SOL    HW2  552   0.190   0.983   1.768
  178SOL     OW  553   0.672   0.203   1.489
  178SOL    HW1  554   0.762   0.187   1.449
  178SOL    HW2  555   0.680   0.208   1.588
  179SOL     OW  556   0.075   0.345   0.033
  179SOL    HW1  557  -0.017   0.317   0.004
  179SOL    HW2  558   0.106   0.422  -0.023
  180SOL     OW  559   1.440   0.856   1.398
  180SOL    HW1  560   1.383   0.908   1.335
  180SOL    HW2  561   1.536   0.868   1.374
  181SOL     OW  562   0.072   0.166   0.318
  181SOL    HW1  563   0.055   0.249   0.264
  181SOL    HW2  564   0.162   0.129   0.296
  182SOL     OW  565   1.183   1.335   0.119
  182SOL    HW1  566   1.084   1.324   0.121
  182SOL    HW2  567   1.217   1.350   0.212
  183SOL     OW  568   0.613   0.842   1.431
  183SOL    HW1  569   0.669   0.923   1.414
  183SOL    HW2  570   0.672   0.762   1.434
  184SOL     OW  571   1.493   1.767   0.959
  184SOL    HW1  572   1.526   1.831   0.890
  184SOL    HW2  573   1.559   1.761   1.034
  185SOL     OW  574   0.716   0.565   1.708
  185SOL    HW1  575   0.735   0.630   1.782
  185SOL    HW2  576   0.776   0.485   1.717
  186SOL     OW  577   1.450   1.220   1.633
  186SOL    HW1  578   1.441   1.210   1.732
  186SOL    HW2  579   1.546   1.213   1.607
  187SOL     OW  580   0.390   1.741   1.560
  187SOL    HW1  581   0.299   1.782   1.558
  187SOL    HW2  582   0.383   1.647   1.592
  188SOL     OW  583   1.674   0.883   1.254
  188SOL    HW1  584   1.647   0.794   1.217
  188SOL    HW2  585   1.675   0.951   1.181
  189SOL     OW  586   1.225   0.325   0.449
  189SOL    HW1  587   1.290   0.251   0.438
  189SOL    HW2  588   1.245   0.375   0.533
  190SOL     OW  589   0.594   0.745   0.652
  190SOL    HW1  590   0.644   0.830   0.633
  190SOL    HW2  591   0.506   0.747   0.604
  191SOL     OW  592   1.777   0.342   1.642
  191SOL    HW1  593   1.760   0.373   1.548
  191SOL    HW2  594   1.693   0.305   1.680
  192SOL     OW  595   1.730   0.934   1.517
  192SOL    HW1  596   1.768   1.025   1.532
  192SOL    HW2  597   1.722   0.917   1.418
  193SOL     OW  598   0.859   1.374   0.016
  193SOL    HW1  599   0.813   1.389   0.104
  193SOL    HW2  600   0.903   1.459  -0.014
  194SOL     OW  601   0.661   1.790   0.953
  194SOL    HW1  602   0.615   1.878   0.940
  194SOL    HW2  603   0.760   1.802   0.946
  195SOL     OW  604   0.859   0.956   0.861
  195SOL    HW1  605   0.913   0.887   0.909
  195SOL    HW2  606   0.827   1.025   0.927
  196SOL     OW  607   1.083   0.984   0.087
  196SOL    HW1  608   1.060   1.037   0.005
  196SOL    HW2  609   1.164   0.928   0.068
  197SOL     OW  610   1.861   1.569   0.851
  197SOL    HW1  611   1.790   1.557   0.781
  197SOL    HW2  612   1.862   1.490   0.911
  198SOL     OW  613   0.221   1.314   1.844
  198SOL    HW1  614   0.156   1.241   1.823
  198SOL    HW2  615   0.225   1.328   1.942
  199SOL     OW  616   0.079   1.240   0.653
  199SOL    HW1  617   0.078   1.193   0.741
  199SOL    HW2  618   0.161   1.212   0.602
  200SOL     OW  619   0.672   1.391   1.624
  200SOL    HW1  620   0.594   1.341   1.662
  200SOL    HW2  621   0.669   1.486   1.655
  201SOL     OW  622   1.824   0.192   1.227
  201SOL    HW1  623   1.820   0.102   1.271
  201SOL    HW2  624   1.827   0.181   1.128
  202SOL     OW  625   0.428   0.424   0.520
  202SOL    HW1  626   0.458   0.352   0.458
  202SOL    HW2  627   0.389   0.384   0.603
  203SOL     OW  628   1.705   1.487   1.104
  203SOL    HW1  629   1.612   1.462   1.077
  203SOL    HW2  630   1.731   1.437   1.186
  204SOL     OW  631   0.317   0.547   1.280
  204SOL    HW1  632   0.355   0.488   1.352
  204SOL    HW2  633   0.357   0.521   1.192
  205SOL     OW  634   0.812   1.586   0.687
  205SOL    HW1  635   0.844   1.596   0.593
  205SOL    HW2  636   0.733   1.524   0.689
  206SOL     OW  637   1.424   0.214   1.112
  206SOL    HW1  638   1.476   0.149   1.167
  206SOL    HW2  639   1.375   0.277   1.173
  207SOL     OW  640   1.001   0.034   1.154
  207SOL    HW1  641   0.938  -0.038   1.123
  207SOL    HW2  642   1.094  -0.002   1.154
  208SOL     OW  643   0.770   1.330   0.301
  208SOL    HW1  644   0.724   1.243   0.318
  208SOL    HW2  645   0.861   1.327   0.342
  209SOL     OW  646   0.618   1.567   1.284
  209SOL    HW1  647   0.613   1.649   1.341
  209SOL    HW2  648   0.707   1.564   1.239
  210SOL     OW  649   1.352   0.052   0.168
  210SOL    HW1  650   1.387   0.011   0.084
  210SOL    HW2  651   1.262   0.014   0.188
  211SOL     OW  652   1.300   0.453   0.691
  211SOL    HW1  653   1.241   0.533   0.695
  211SOL    HW2  654   1.315   0.418   0.784
  212SOL     OW  655   1.593   0.221   0.882
  212SOL    HW1  656   1.509   0.220   0.936
  212SOL    HW2  657   1.595   0.304   0.826
  213SOL     OW  658   0.039   1.077   0.300
  213SOL    HW1  659   0.138   1.066   0.291
  213SOL    HW2  660  -0.001   0.991   0.332
  214SOL     OW  661   0.875   1.646   0.337
  214SOL    HW1  662   0.798   1.611   0.283
  214SOL    HW2  663   0.843   1.717   0.399
  215SOL     OW  664   0.230   0.628   1.975
  215SOL    HW1  665   0.137   0.626   2.012
  215SOL    HW2  666   0.231   0.589   1.883
  216SOL     OW  667   0.225   0.275   2.858
  216SOL    HW1  668   0.260   0.258   2.950
  216SOL    HW2  669   0.137   0.230   2.846
  217SOL     OW  670   0.019   0.368   2.509
  217SOL    HW1  671  -0.063   0.411   2.548
  217SOL    HW2  672  -0.009   0.295   2.446
  218SOL     OW  673   0.569   1.275   3.027
  218SOL    HW1  674   0.476   1.268   2.990
  218SOL    HW2  675   0.580   1.364   3.071
  219SOL     OW  676   1.555   1.511   2.565
  219SOL    HW1  677   1.498   1.495   2.646
  219SOL    HW2  678   1.496   1.521   2.485
  220SOL     OW  679   1.135   0.703   2.579
  220SOL    HW1  680   1.192   0.781   2.554
  220SOL    HW2  681   1.075   0.729   2.655
  221SOL     OW  682   1.755   0.607   2.093
  221SOL    HW1  683   1.743   0.594   1.994
  221SOL    HW2  684   1.725   0.526   2.142
  222SOL     OW  685   0.768   1.144   2.885
  222SOL    HW1  686   0.690   1.161   2.945
  222SOL    HW2  687   0.802   1.231   2.849
  223SOL     OW  688   0.850   0.798   3.685
  223SOL    HW1  689   0.846   0.874   3.750
  223SOL    HW2  690   0.872   0.834   3.594
  224SOL     OW  691   0.685   1.012   2.527
  224SOL    HW1  692   0.754   0.996   2.597
  224SOL    HW2  693   0.612   1.069   2.565
  225SOL     OW  694   0.686   1.161   3.665
  225SOL    HW1  695   0.746   1.240   3.679
  225SOL    HW2  696   0.600   1.192   3.624
  226SOL     OW  697   0.335   1.435   2.923
  226SOL    HW1  698   0.257   1.404   2.870
  226SOL    HW2  699   0.393   1.493   2.866
  227SOL     OW  700   1.460   1.505   3.201
  227SOL    HW1  701   1.484   1.599   3.227
  227SOL    HW2  702   1.444   1.451   3.283
  228SOL     OW  703   0.438   0.392   3.361
  228SOL    HW1  704   0.520   0.336   3.370
  228SOL    HW2  705   0.357   0.334   3.365
  229SOL     OW  706   1.603   0.447   2.599
  229SOL    HW1  707   1.529   0.493   2.549
  229SOL    HW2  708   1.654   0.515   2.652
  230SOL     OW  709   0.231   1.713   2.345
  230SOL    HW1  710   0.265   1.790   2.399
  230SOL    HW2  711   0.275   1.713   2.255
  231SOL     OW  712   1.127   1.341   3.552
  231SOL    HW1  713   1.174   1.341   3.640
  231SOL    HW2  714   1.079   1.254   3.541
  232SOL     OW  715   0.230   1.434   2.400
  232SOL    HW1  716   0.204   1.530   2.400
  232SOL    HW2  717   0.159   1.380   2.445
  233SOL     OW  718   0.240   1.091   2.748
  233SOL    HW1  719   0.254   1.007   2.800
  233SOL    HW2  720   0.185   1.155   2.803
  234SOL     OW  721   0.620   1.786   3.301
  234SOL    HW1  722   0.528   1.769   3.336
  234SOL    HW2  723   0.648   1.878   3.327
  235SOL     OW  724   0.606   0.964   1.985
  235SOL    HW1  725   0.613   1.048   1.931
  235SOL    HW2  726   0.652   0.977   2.073
  236SOL     OW  727   1.594   0.114   3.342
  236SOL    HW1  728   1.576   0.181   3.270
  236SOL    HW2  729   1.591   0.160   3.431
  237SOL     OW  730   0.122   0.643   2.425
  237SOL    HW1  731   0.077   0.555   2.442
  237SOL    HW2  732   0.121   0.697   2.509
  238SOL     OW  733   1.842   1.767   2.221
  238SOL    HW1  734   1.896   1.738   2.301
  238SOL    HW2  735   1.872   1.857   2.192
  239SOL     OW  736   0.027   1.596   1.979
  239SOL    HW1  737   0.008   1.500   2.000
  239SOL    HW2  738  -0.006   1.654   2.054
  240SOL     OW  739   1.689   0.922   2.474
  240SOL    HW1  740   1.784   0.893   2.482
  240SOL    HW2  741   1.681   0.987   2.399
  241SOL     OW  742   1.641   1.108   2.294
  241SOL    HW1  743   1.727   1.110   2.242
  241SOL    HW2  744   1.655   1.155   2.382
  242SOL     OW  745   0.113   0.737   3.459
  242SOL    HW1  746   0.201   0.724   3.504
  242SOL    HW2  747   0.100   0.834   3.437
  243SOL     OW  748   0.613   1.365   2.588
  243SOL    HW1  749   0.564   1.278   2.597
  243SOL    HW2  750   0.590   1.408   2.501
  244SOL     OW  751   1.293   1.228   3.285
  244SOL    HW1  752   1.330   1.155   3.227
  244SOL    HW2  753   1.345   1.233   3.370
  245SOL     OW  754   0.809   0.004   2.364
  245SOL    HW1  755   0.849   0.095   2.355
  245SOL    HW2  756   0.709   0.012   2.370
  246SOL     OW  757   0.197   0.976   3.126
  246SOL    HW1  758   0.286   0.931   3.112
  246SOL    HW2  759   0.124   0.911   3.107
  247SOL     OW  760   1.525   0.999   2.052
  247SOL    HW1  761   1.462   0.923   2.065
  247SOL    HW2  762   1.573   1.017   2.138
  248SOL     OW  763   1.187   1.792   3.478
  248SOL    HW1  764   1.211   1.852   3.402
  248SOL    HW2  765   1.194   1.697   3.448
  249SOL     OW  766   0.317   0.251   3.663
  249SOL    HW1  767   0.388   0.322   3.669
  249SOL    HW2  768   0.229   0.290   3.691
  250SOL     OW  769   1.466   1.417   2.815
  250SOL    HW1  770   1.407   1.423   2.895
  250SOL    HW2  771   1.451   1.329   2.769
  251SOL     OW  772   1.667   1.714   2.434
  251SOL    HW1  773   1.626   1.691   2.346
  251SOL    HW2  774   1.649   1.640   2.499
  252SOL     OW  775   0.598   0.729   2.132
  252SOL    HW1  776   0.622   0.798   2.064
  252SOL    HW2  777   0.520   0.762   2.186
  253SOL     OW  778   1.281   0.345   2.806
  253SOL    HW1  779   1.195   0.295   2.793
  253SOL    HW2  780   1.343   0.291   2.862
  254SOL     OW  781   1.576   1.662   2.169
  254SOL    HW1  782   1.665   1.708   2.172
  254SOL    HW2  783   1.555   1.638   2.074
  255SOL     OW  784   0.807   0.605   3.327
  255SOL    HW1  785   0.760   0.602   3.416
  255SOL    HW2  786   0.756   0.550   3.261
  256SOL     OW  787   1.394   0.469   3.536
  256SOL    HW1  788   1.374   0.512   3.624
  256SOL    HW2  789   1.472   0.407   3.545
  257SOL     OW  790   0.973   0.890   3.434
  257SOL    HW1  791   1.019   0.806   3.405
  257SOL    HW2  792   0.917   0.924   3.359
  258SOL     OW  793   0.991   0.410   3.104
  258SOL    HW1  794   0.914   0.444   3.158
  258SOL    HW2  795   0.957   0.359   3.025
  259SOL     OW  796   1.041   0.701   2.291
  259SOL    HW1  797   1.067   0.697   2.387
  259SOL    HW2  798   0.956   0.650   2.277
  260SOL     OW  799   0.076   0.811   2.651
  260SOL    HW1  800   0.175   0.799   2.660
  260SOL    HW2  801   0.052   0.906   2.672
  261SOL     OW  802   0.130   1.821   3.433
  261SOL    HW1  803   0.120   1.806   3.532
  261SOL    HW2  804   0.044   1.857   3.397
  262SOL     OW  805   0.865   0.348   2.057
  262SOL    HW1  806   0.924   0.411   2.008
  262SOL    HW2  807   0.884   0.254   2.028
  263SOL     OW  808   1.719   0.585   3.693
  263SOL    HW1  809   1.693   0.674   3.657
  263SOL    HW2  810   1.717   0.517   3.620
  264SOL     OW  811   1.362   1.144   2.407
  264SOL    HW1  812   1.445   1.115   2.359
  264SOL    HW2  813   1.313   1.211   2.351
  265SOL     OW  814   0.550   0.196   2.747
  265SOL    HW1  815   0.545   0.191   2.847
  265SOL    HW2  816   0.552   0.292   2.718
  266SOL     OW  817   1.008   1.456   2.339
  266SOL    HW1  818   0.962   1.528   2.287
  266SOL    HW2  819   1.004   1.476   2.437
  267SOL     OW  820   0.351   1.801   2.715
  267SOL    HW1  821   0.401   1.715   2.721
  267SOL    HW2  822   0.416   1.878   2.712
  268SOL     OW  823   1.795   1.066   2.735
  268SOL    HW1  824   1.733   1.051   2.659
  268SOL    HW2  825   1.743   1.077   2.820
  269SOL     OW  826   1.227   1.550   3.368
  269SOL    HW1  827   1.233   1.473   3.432
  269SOL    HW2  828   1.175   1.524   3.288
  270SOL     OW  829   0.321   0.943   2.104
  270SOL    HW1  830   0.403   0.982   2.062
  270SOL    HW2  831   0.294   0.861   2.055
  271SOL     OW  832   1.458   0.735   2.590
  271SOL    HW1  833   1.453   0.670   2.665
  271SOL    HW2  834   1.538   0.794   2.603
  272SOL     OW  835   0.461   1.266   3.589
  272SOL    HW1  836   0.411   1.267   3.503
  272SOL    HW2  837   0.398   1.248   3.665
  273SOL     OW  838   1.111   1.776   2.099
  273SOL    HW1  839   1.051   1.714   2.149
  273SOL    HW2  840   1.142   1.732   2.014
  274SOL     OW  841   0.202   0.285   3.360
  274SOL    HW1  842   0.122   0.345   3.347
  274SOL    HW2  843   0.192   0.236   3.446
  275SOL     OW  844   1.632   1.377   1.943
  275SOL    HW1  845   1.600   1.471   1.933
  275SOL    HW2  846   1.556   1.314   1.931
  276SOL     OW  847   0.464   1.743   2.185
  276SOL    HW1  848   0.497   1.782   2.271
  276SOL    HW2  849   0.540   1.736   2.120
  277SOL     OW  850   1.400   0.107   2.288
  277SOL    HW1  851   1.376   0.070   2.198
  277SOL    HW2  852   1.499   0.123   2.292
  278SOL     OW  853   0.249   1.785   3.103
  278SOL    HW1  854   0.306   1.720   3.153
  278SOL    HW2  855   0.233   1.752   3.010
  279SOL     OW  856   0.940   1.698   2.766
  279SOL    HW1  857   1.020   1.641   2.787
  279SOL    HW2  858   0.891   1.658   2.689
  280SOL     OW  859   0.382   0.700   2.342
  280SOL    HW1  860   0.427   0.610   2.339
  280SOL    HW2  861   0.288   0.689   2.375
  281SOL     OW  862   1.547   0.222   3.591
  281SOL    HW1  863   1.542   0.259   3.683
  281SOL    HW2  864   1.475   0.153   3.579
  282SOL     OW  865   0.614   0.122   1.979
  282SOL    HW1  866   0.712   0.100   1.986
  282SOL    HW2  867   0.583   0.105   1.886
  283SOL     OW  868   0.781   0.264   3.611
  283SOL    HW1  869   0.848   0.203   3.654
  283SOL    HW2  870   0.708   0.283   3.676
  284SOL     OW  871   0.888   1.514   3.057
  284SOL    HW1  872   0.865   1.489   2.963
  284SOL    HW2  873   0.949   1.445   3.096
  285SOL     OW  874   1.351   0.590   3.295
  285SOL    HW1  875   1.379   0.547   3.380
  285SOL    HW2  876   1.376   0.686   3.296
  286SOL     OW  877   0.803   1.402   2.786
  286SOL    HW1  878   0.893   1.416   2.744
  286SOL    HW2  879   0.732   1.404   2.715
  287SOL     OW  880   0.922   0.503   2.761
  287SOL    HW1  881   0.897   0.494   2.665
  287SOL    HW2  882   0.970   0.421   2.792
  288SOL     OW  883   0.539   0.064   2.374
  288SOL    HW1  884   0.458   0.065   2.432
  288SOL    HW2  885   0.542   0.147   2.319
  289SOL     OW  886   1.434   1.188   1.903
  289SOL    HW1  887   1.466   1.112   1.960
  289SOL    HW2  888   1.342   1.215   1.933
  290SOL     OW  889   0.297   0.035   2.033
  290SOL    HW1  890   0.346   0.119   2.012
  290SOL    HW2  891   0.359  -0.030   2.078
  291SOL     OW  892   0.935   0.236   2.342
  291SOL    HW1  893   0.887   0.277   2.264
  291SOL    HW2  894   1.034   0.234   2.323
  292SOL     OW  895   1.076   0.683   3.326
  292SOL    HW1  896   0.996   0.622   3.329
  292SOL    HW2  897   1.157   0.630   3.302
  293SOL     OW  898   1.227   1.570   2.655
  293SOL    HW1  899   1.248   1.644   2.590
  293SOL    HW2  900   1.295   1.570   2.728
  294SOL     OW  901   0.459   1.152   2.603
  294SOL    HW1  902   0.388   1.125   2.668
  294SOL    HW2  903   0.433   1.124   2.510
  295SOL     OW  904   1.271   1.797   2.453
  295SOL    HW1  905   1.315   1.861   2.389
  295SOL    HW2  906   1.221   1.849   2.523
  296SOL     OW  907   1.032   0.549   1.878
  296SOL    HW1  908   0.991   0.631   1.839
  296SOL    HW2  909   1.096   0.575   1.951
  297SOL     OW  910   0.078   0.556   3.248
  297SOL    HW1  911   0.170   0.555   3.207
  297SOL    HW2  912   0.072   0.630   3.315
  298SOL     OW  913   0.561   0.222   3.009
  298SOL    HW1  914   0.599   0.138   3.046
  298SOL    HW2  915   0.473   0.241   3.053
  299SOL     OW  916   0.866   0.454   2.504
  299SOL    HW1  917   0.834   0.526   2.442
  299SOL    HW2  918   0.890   0.373   2.451
  300SOL     OW  919   1.017   0.039   2.615
  300SOL    HW1  920   0.945   0.044   2.546
  300SOL    HW2  921   0.993  -0.030   2.684
  301SOL     OW  922   1.429   1.173   2.729
  301SOL    HW1  923   1.374   1.089   2.722
  301SOL    HW2  924   1.455   1.202   2.637
  302SOL     OW  925   1.466   0.590   2.854
  302SOL    HW1  926   1.436   0.495   2.861
  302SOL    HW2  927   1.539   0.606   2.920
  303SOL     OW  928   1.857   0.833   2.239
  303SOL    HW1  929   1.899   0.769   2.303
  303SOL    HW2  930   1.819   0.782   2.161
  304SOL     OW  931   0.488   1.385   2.036
  304SOL    HW1  932   0.401   1.370   2.083
  304SOL    HW2  933   0.471   1.411   1.941
  305SOL     OW  934   1.664   1.280   2.519
  305SOL    HW1  935   1.763   1.288   2.533
  305SOL    HW2  936   1.619   1.364   2.550
  306SOL     OW  937   1.390   0.575   1.940
  306SOL    HW1  938   1.336   0.554   2.021
  306SOL    HW2  939   1.481   0.534   1.949
  307SOL     OW  940   0.527   0.256   2.190
  307SOL    HW1  941   0.554   0.197   2.115
  307SOL    HW2  942   0.527   0.351   2.159
  308SOL     OW  943   1.754   1.223   3.450
  308SOL    HW1  944   1.845   1.184   3.437
  308SOL    HW2  945   1.762   1.319   3.474
  309SOL     OW  946   1.064   1.347   3.202
  309SOL    HW1  947   0.984   1.324   3.257
  309SOL    HW2  948   1.147   1.321   3.251
  310SOL     OW  949   1.592   1.629   3.487
  310SOL    HW1  950   1.619   1.663   3.397
  310SOL    HW2  951   1.671   1.591   3.533
  311SOL     OW  952   1.111   1.195   2.962
  311SOL    HW1  953   1.071   1.239   3.043
  311SOL    HW2  954   1.070   1.232   2.879
  312SOL     OW  955   1.638   1.099   2.941
  312SOL    HW1  956   1.643   1.180   3.000
  312SOL    HW2  957   1.552   1.101   2.890
  313SOL     OW  958   0.915   0.089   3.264
  313SOL    HW1  959   0.940   0.069   3.169
  313SOL    HW2  960   0.987   0.145   3.306
  314SOL     OW  961   0.980   1.116   3.581
  314SOL    HW1  962   0.881   1.122   3.591
  314SOL    HW2  963   1.003   1.036   3.525
  315SOL     OW  964   0.705   1.050   2.230
  315SOL    HW1  965   0.691   1.057   2.329
  315SOL    HW2  966   0.789   0.999   2.212
  316SOL     OW  967   0.410   0.813   3.113
  316SOL    HW1  968   0.496   0.825   3.163
  316SOL    HW2  969   0.368   0.726   3.140
  317SOL     OW  970   1.274   0.386   3.124
  317SOL    HW1  971   1.295   0.460   3.188
  317SOL    HW2  972   1.185   0.403   3.081
  318SOL     OW  973   0.064   1.564   3.193
  318SOL    HW1  974   0.018   1.646   3.159
  318SOL    HW2  975   0.162   1.583   3.202
  319SOL     OW  976   0.367   1.100   2.363
  319SOL    HW1  977   0.360   1.183   2.307
  319SOL    HW2  978   0.371   1.020   2.303
  320SOL     OW  979   0.566   0.537   2.727
  320SOL    HW1  980   0.578   0.603   2.653
  320SOL    HW2  981   0.612   0.571   2.810
  321SOL     OW  982   1.252   1.348   2.250
  321SOL    HW1  983   1.302   1.425   2.290
  321SOL    HW2  984   1.157   1.350   2.282
  322SOL     OW  985   1.272   1.445   3.004
  322SOL    HW1  986   1.319   1.458   3.091
  322SOL    HW2  987   1.206   1.371   3.013
  323SOL     OW  988   1.582   0.639   2.334
  323SOL    HW1  989   1.551   0.700   2.407
  323SOL    HW2  990   1.632   0.691   2.265
  324SOL     OW  991   0.354   1.510   3.191
  324SOL    HW1  992   0.333   1.466   3.104
  324SOL    HW2  993   0.451   1.536   3.194
  325SOL     OW  994   0.402   0.751   3.460
  325SOL    HW1  995   0.470   0.806   3.413
  325SOL    HW2  996   0.442   0.663   3.487
  326SOL     OW  997   1.587   0.779   3.532
  326SOL    HW1  998   1.495   0.817   3.527
  326SOL    HW2  999   1.647   0.826   3.467
  327SOL     OW 1000   1.013   0.105   3.632
  327SOL    HW1 1001   1.019   0.190   3.580
  327SOL    HW2 1002   1.045   0.029   3.575
  328SOL     OW 1003   0.504   0.050   3.602
  328SOL    HW1 1004   0.462  -0.007   3.532
  328SOL    HW2 1005   0.438   0.119   3.634
  329SOL     OW 1006   0.573   0.870   2.891
  329SOL    HW1 1007   0.617   0.959   2.882
  329SOL    HW2 1008   0.510   0.870   2.968
  330SOL     OW 1009   1.360   0.862   2.907
  330SOL    HW1 1010   1.285   0.862   2.841
  330SOL    HW2 1011   1.397   0.770   2.916
  331SOL     OW 1012   1.209   0.525   2.137
  331SOL    HW1 1013   1.222   0.441   2.191
  331SOL    HW2 1014   1.180   0.599   2.197
  332SOL     OW 1015   0.307   0.213   3.093
  332SOL    HW1 1016   0.284   0.250   3.183
  332SOL    HW2 1017   0.277   0.118   3.087
  333SOL     OW 1018   0.037   1.310   3.144
  333SOL    HW1 1019   0.090   1.261   3.212
  333SOL    HW2 1020   0.059   1.408   3.149
  334SOL     OW 1021   0.732   0.634   2.926
  334SOL    HW1 1022   0.791   0.608   2.850
  334SOL    HW2 1023   0.704   0.730   2.915
  335SOL     OW 1024   1.728   0.935   3.716
  335SOL    HW1 1025   1.682   0.928   3.627
  335SOL    HW2 1026   1.666   0.979   3.782
  336SOL     OW 1027   0.307   0.063   2.480
  336SOL    HW1 1028   0.296   0.157   2.513
  336SOL    HW2 1029   0.302   0.000   2.557
  337SOL     OW 1030   1.622   0.367   2.236
  337SOL    HW1 1031   1.624   0.291   2.300
  337SOL    HW2 1032   1.574   0.444   2.276
  338SOL     OW 1033   1.023   0.766   2.828
  338SOL    HW1 1034   1.038   0.787   2.924
  338SOL    HW2 1035   0.993   0.671   2.819
  339SOL     OW 1036   0.980   1.573   3.562
  339SOL    HW1 1037   0.960   1.617   3.474
  339SOL    HW2 1038   1.019   1.482   3.546
  340SOL     OW 1039   1.859   1.518   3.467
  340SOL    HW1 1040   1.873   1.545   3.372
  340SOL    HW2 1041   1.942   1.540   3.520
  341SOL     OW 1042   0.350   0.898   3.666
  341SOL    HW1 1043   0.426   0.942   3.714
  341SOL    HW2 1044   0.385   0.851   3.584
  342SOL     OW 1045   1.540   0.274   1.987
  342SOL    HW1 1046   1.479   0.199   2.010
  342SOL    HW2 1047   1.562   0.326   2.070
  343SOL     OW 1048   1.303   0.838   1.904
  343SOL    HW1 1049   1.337   0.745   1.919
  343SOL    HW2 1050   1.321   0.865   1.809
  344SOL     OW 1051   1.068   1.333   2.711
  344SOL    HW1 1052   1.075   1.249   2.656
  344SOL    HW2 1053   1.130   1.402   2.675
  345SOL     OW 1054   0.319   0.810   2.811
  345SOL    HW1 1055   0.412   0.846   2.816
  345SOL    HW2 1056   0.313   0.725   2.863
  346SOL     OW 1057   0.339   0.509   2.868
  346SOL    HW1 1058   0.287   0.426   2.851
  346SOL    HW2 1059   0.416   0.514   2.804
  347SOL     OW 1060   1.138   0.380   3.540
  347SOL    HW1 1061   1.093   0.443   3.604
  347SOL    HW2 1062   1.231   0.411   3.523
  348SOL     OW 1063   1.160   0.207   3.339
  348SOL    HW1 1064   1.160   0.271   3.416
  348SOL    HW2 1065   1.188   0.255   3.256
  349SOL     OW 1066   0.008   1.326   2.062
  349SOL    HW1 1067  -0.085   1.347   2.031
  349SOL    HW2 1068   0.018   1.227   2.075
  350SOL     OW 1069   0.088   1.801   2.789
  350SOL    HW1 1070   0.046   1.715   2.762
  350SOL    HW2 1071   0.182   1.804   2.755
  351SOL     OW 1072   0.504   1.568   2.772
  351SOL    HW1 1073   0.570   1.642   2.781
  351SOL    HW2 1074   0.548   1.489   2.730
  352SOL     OW 1075   1.002   0.796   3.100
  352SOL    HW1 1076   1.043   0.764   3.186
  352SOL    HW2 1077   0.906   0.769   3.097
  353SOL     OW 1078   0.040   0.544   2.976
  353SOL    HW1 1079   0.125   0.511   2.935
  353SOL    HW2 1080   0.053   0.559   3.074
  354SOL     OW 1081   0.189   0.520   3.584
  354SOL    HW1 1082   0.248   0.480   3.514
  354SOL    HW2 1083   0.131   0.591   3.543
  355SOL     OW 1084   1.369   0.950   3.522
  355SOL    HW1 1085   1.408   1.039   3.542
  355SOL    HW2 1086   1.379   0.930   3.425
  356SOL     OW 1087   0.815   0.572   2.187
  356SOL    HW1 1088   0.822   0.483   2.141
  356SOL    HW2 1089   0.721   0.606   2.179
  357SOL     OW 1090   1.657   0.604   3.068
  357SOL    HW1 1091   1.619   0.535   3.130
  357SOL    HW2 1092   1.739   0.568   3.024
  358SOL     OW 1093   0.252   1.564   3.606
  358SOL    HW1 1094   0.222   1.621   3.682
  358SOL    HW2 1095   0.245   1.467   3.632
  359SOL     OW 1096   0.671   0.464   3.131
  359SOL    HW1 1097   0.637   0.375   3.101
  359SOL    HW2 1098   0.697   0.518   3.051
  360SOL     OW 1099   0.930   1.678   3.327
  360SOL    HW1 1100   0.906   1.660   3.232
  360SOL    HW2 1101   0.960   1.772   3.337
  361SOL     OW 1102   0.473   0.500   2.053
  361SOL    HW1 1103   0.534   0.580   2.057
  361SOL    HW2 1104   0.378   0.531   2.060
  362SOL     OW 1105   0.159   1.137   3.328
  362SOL    HW1 1106   0.181   1.076   3.404
  362SOL    HW2 1107   0.169   1.088   3.242
  363SOL     OW 1108   1.347   1.059   3.096
  363SOL    HW1 1109   1.371   0.996   3.022
  363SOL    HW2 1110   1.257   1.099   3.078
  364SOL     OW 1111   1.302   0.855   2.171
  364SOL    HW1 1112   1.216   0.824   2.213
  364SOL    HW2 1113   1.298   0.841   2.072
  365SOL     OW 1114   1.759   1.747   3.016
  365SOL    HW1 1115   1.820   1.777   2.943
  365SOL    HW2 1116   1.721   1.658   2.994
  366SOL     OW 1117   1.252   1.731   2.990
  366SOL    HW1 1118   1.336   1.736   2.936
  366SOL    HW2 1119   1.229   1.635   3.008
  367SOL     OW 1120   0.083   1.258   2.884
  367SOL    HW1 1121   0.078   1.257   2.984
  367SOL    HW2 1122   0.000   1.217   2.846
  368SOL     OW 1123   0.688   1.662   3.578
  368SOL    HW1 1124   0.632   1.743   3.587
  368SOL    HW2 1125   0.740   1.666   3.492
  369SOL     OW 1126   1.726   0.135   2.385
  369SOL    HW1 1127   1.799   0.118   2.318
  369SOL    HW2 1128   1.695   0.048   2.423
  370SOL     OW 1129   1.388   1.573   2.339
  370SOL    HW1 1130   1.455   1.585   2.265
  370SOL    HW2 1131   1.348   1.662   2.362
  371SOL     OW 1132   0.130   1.794   3.713
  371SOL    HW1 1133   0.089   1.720   3.766
  371SOL    HW2 1134   0.194   1.845   3.771
  372SOL     OW 1135   1.280   0.927   2.534
  372SOL    HW1 1136   1.340   0.846   2.536
  372SOL    HW2 1137   1.320   0.996   2.474
  373SOL     OW 1138   0.830   1.273   3.284
  373SOL    HW1 1139   0.825   1.306   3.379
  373SOL    HW2 1140   0.744   1.292   3.238
  374SOL     OW 1141   0.672   1.616   2.016
  374SOL    HW1 1142   0.681   1.626   1.917
  374SOL    HW2 1143   0.632   1.527   2.037
  375SOL     OW 1144   1.650   1.720   3.256
  375SOL    HW1 1145   1.703   1.730   3.172
  375SOL    HW2 1146   1.623   1.810   3.290
  376SOL     OW 1147   1.841   0.175   2.825
  376SOL    HW1 1148   1.880   0.090   2.789
  376SOL    HW2 1149   1.743   0.177   2.806
  377SOL     OW 1150   0.263   0.326   2.582
  377SOL    HW1 1151   0.184   0.377   2.548
  377SOL    HW2 1152   0.254   0.311   2.680
  378SOL     OW 1153   1.194   1.612   1.893
  378SOL    HW1 1154   1.200   1.519   1.930
  378SOL    HW2 1155   1.135   1.612   1.813
  379SOL     OW 1156   0.822   1.002   3.234
  379SOL    HW1 1157   0.862   1.001   3.142
  379SOL    HW2 1158   0.832   1.094   3.274
  380SOL     OW 1159   0.916   0.910   2.153
  380SOL    HW1 1160   0.979   0.948   2.085
  380SOL    HW2 1161   0.956   0.827   2.192
  381SOL     OW 1162   1.504   1.607   1.906
  381SOL    HW1 1163   1.412   1.644   1.913
  381SOL    HW2 1164   1.542   1.627   1.816
  382SOL     OW 1165   0.372   1.288   3.352
  382SOL    HW1 1166   0.359   1.381   3.318
  382SOL    HW2 1167   0.288   1.236   3.339
  383SOL     OW 1168   1.614   1.292   3.151
  383SOL    HW1 1169   1.674   1.295   3.231
  383SOL    HW2 1170   1.539   1.356   3.164
  384SOL     OW 1171   1.039   1.098   2.558
  384SOL    HW1 1172   0.969   1.051   2.612
  384SOL    HW2 1173   1.098   1.030   2.515
  385SOL     OW 1174   1.014   0.236   2.833
  385SOL    HW1 1175   1.006   0.200   2.740
  385SOL    HW2 1176   1.012   0.160   2.898
  386SOL     OW 1177   0.590   1.487   2.353
  386SOL    HW1 1178   0.632   1.429   2.283
  386SOL    HW2 1179   0.546   1.566   2.309
  387SOL     OW 1180   1.709   0.385   3.243
  387SOL    HW1 1181   1.782   0.454   3.247
  387SOL    HW2 1182   1.737   0.310   3.184
  388SOL     OW 1183   0.255   1.348   2.152
  388SOL    HW1 1184   0.159   1.349   2.125
  388SOL    HW2 1185   0.267   1.401   2.236
  389SOL     OW 1186   0.105   1.013   3.588
  389SOL    HW1 1187   0.028   0.980   3.642
  389SOL    HW2 1188   0.190   0.983   3.630
  390SOL     OW 1189   0.672   0.203   3.351
  390SOL    HW1 1190   0.762   0.187   3.311
  390SOL    HW2 1191   0.680   0.208   3.450
  391SOL     OW 1192   0.075   0.345   1.895
  391SOL    HW1 1193  -0.017   0.317   1.866
  391SOL    HW2 1194   0.106   0.422   1.839
  392SOL     OW 1195   1.440   0.856   3.260
  392SOL    HW1 1196   1.383   0.908   3.197
  392SOL    HW2 1197   1.536   0.868   3.236
  393SOL     OW 1198   0.072   0.166   2.180
  393SOL    HW1 1199   0.055   0.249   2.126
  393SOL    HW2 1200   0.162   0.129   2.158
  394SOL     OW 1201   1.183   1.335   1.981
  394SOL    HW1 1202   1.084   1.324   1.983
  394SOL    HW2 1203   1.217   1.350   2.074
  395SOL     OW 1204   0.613   0.842   3.293
  395SOL    HW1 1205   0.669   0.923   3.276
  395SOL    HW2 1206   0.672   0.762   3.296
  396SOL     OW 1207   1.493   1.767   2.821
  396SOL    HW1 1208   1.526   1.831   2.752
  396SOL    HW2 1209   1.559   1.761   2.896
  397SOL     OW 1210   0.716   0.565   3.570
  397SOL    HW1 1211   0.735   0.630   3.644
  397SOL    HW2 1212   0.776   0.485   3.579
  398SOL     OW 1213   1.450   1.220   3.495
  398SOL    HW1 1214   1.441   1.210   3.594
  398SOL    HW2 1215   1.546   1.213   3.469
  399SOL     OW 1216   0.390   1.741   3.422
  399SOL    HW1 1217   0.299   1.782   3.420
  399SOL    HW2 1218   0.383   1.647   3.454
  400SOL     OW 1219   1.674   0.883   3.116
  400SOL    HW1 1220   1.647   0.794   3.079
  400SOL    HW2 1221   1.675   0.951   3.043
  401SOL     OW 1222   1.225   0.325   2.311
  401SOL    HW1 1223   1.290   0.251   2.300
  401SOL    HW2 1224   1.245   0.375   2.395
  402SOL     OW 1225   0.594   0.745   2.514
  402SOL    HW1 1226   0.644   0.830   2.495
  402SOL    HW2 1227   0.506   0.747   2.466
  403SOL     OW 1228   1.777   0.342   3.504
  403SOL    HW1 1229   1.760   0.373   3.410
  403SOL    HW2 1230   1.693   0.305   3.542
  404SOL     OW 1231   1.730   0.934   3.379
  404SOL    HW1 1232   1.768   1.025   3.394
  404SOL    HW2 1233   1.722   0.917   3.280
  405SOL     OW 1234   0.859   1.374   1.878
  405SOL    HW1 1235   0.813   1.389   1.966
  405SOL    HW2 1236   0.903   1.459   1.848
  406SOL     OW 1237   0.661   1.790   2.815
  406SOL    HW1 1238   0.615   1.878   2.802
  406SOL    HW2 1239   0.760   1.802   2.808
  407SOL     OW 1240   0.859   0.956   2.723
  407SOL    HW1 1241   0.913   0.887   2.771
  407SOL    HW2 1242   0.827   1.025   2.789
  408SOL     OW 1243   1.083   0.984   1.949
  408SOL    HW1 1244   1.060   1.037   1.867
  408SOL    HW2 1245   1.164   0.928   1.930
  409SOL     OW 1246   1.861   1.569   2.713
  409SOL    HW1 1247   1.790   1.557   2.643
  409SOL    HW2 1248   1.862   1.490   2.773
  410SOL     OW 1249   0.221   1.314   3.706
  410SOL    HW1 1250   0.156   1.241   3.685
  410SOL    HW2 1251   0.225   1.328   3.804
  411SOL     OW 1252   0.079   1.240   2.515
  411SOL    HW1 1253   0.078   1.193   2.603
  411SOL    HW2 1254   0.161   1.212   2.464
  412SOL     OW 1255   0.672   1.391   3.486
  412SOL    HW1 1256   0.594   1.341   3.524
  412SOL    HW2 1257   0.669   1.486   3.517
  413SOL     OW 1258   1.824   0.192   3.089
  413SOL    HW1 1259   1.820   0.102   3.133
  413SOL    HW2 1260   1.827   0.181   2.990
  414SOL     OW 1261   0.428   0.424   2.382
  414SOL    HW1 1262   0.458   0.352   2.320
  414SOL    HW2 1263   0.389   0.384   2.465
  415SOL     OW 1264   1.705   1.487   2.966
  415SOL    HW1 1265   1.612   1.462   2.939
  415SOL    HW2 1266   1.731   1.437   3.048
  416SOL     OW 1267   0.317   0.547   3.142
  416SOL    HW1 1268   0.355   0.488   3.214
  416SOL    HW2 1269   0.357   0.521   3.054
  417SOL     OW 1270   0.812   1.586   2.549
  417SOL    HW1 1271   0.844   1.596   2.455
  417SOL    HW2 1272   0.733   1.524   2.551
  418SOL     OW 1273   1.424   0.214   2.974
  418SOL    HW1 1274   1.476   0.149   3.029
  418SOL    HW2 1275   1.375   0.277   3.035
  419SOL     OW 1276   1.001   0.034   3.016
  419SOL    HW1 1277   0.938  -0.038   2.985
  419SOL    HW2 1278   1.094  -0.002   3.016
  420SOL     OW 1279   0.770   1.330   2.163
  420SOL    HW1 1280   0.724   1.243   2.180
  420SOL    HW2 1281   0.861   1.327   2.204
  421SOL     OW 1282   0.618   1.567   3.146
  421SOL    HW1 1283   0.613   1.649   3.203
  421SOL    HW2 1284   0.707   1.564   3.101
  422SOL     OW 1285   1.352   0.052   2.030
  422SOL    HW1 1286   1.387   0.011   1.946
  422SOL    HW2 1287   1.262   0.014   2.050
  423SOL     OW 1288   1.300   0.453   2.553
  423SOL    HW1 1289   1.241   0.533   2.557
  423SOL    HW2 1290   1.315   0.418   2.646
  424SOL     OW 1291   1.593   0.221   2.744
  424SOL    HW1 1292   1.509   0.220   2.798
  424SOL    HW2 1293   1.595   0.304   2.688
  425SOL     OW 1294   0.039   1.077   2.162
  425SOL    HW1 1295   0.138   1.066   2.153
  425SOL    HW2 1296  -0.001   0.991   2.194
  426SOL     OW 1297   0.875   1.646   2.199
  426SOL    HW1 1298   0.798   1.611   2.145
  426SOL    HW2 1299   0.843   1.717   2.261
  427SOL     OW 1300   0.230   0.628   3.837
  427SOL    HW1 1301   0.137   0.626   3.874
  427SOL    HW2 1302   0.231   0.589   3.745
  428SOL     OW 1303   0.019   0.368   4.371
  428SOL    HW1 1304  -0.063   0.411   4.410
  428SOL    HW2 1305  -0.009   0.295   4.308
  429SOL     OW 1306   1.555   1.511   4.427
  429SOL    HW1 1307   1.498   1.495   4.508
  429SOL    HW2 1308   1.496   1.521   4.347
  430SOL     OW 1309   1.135   0.703   4.441
  430SOL    HW1 1310   1.192   0.781   4.416
  430SOL    HW2 1311   1.075   0.729   4.517
  431SOL     OW 1312   1.755   0.607   3.955
  431SOL    HW1 1313   1.743   0.594   3.856
  431SOL    HW2 1314   1.725   0.526   4.004
  432SOL     OW 1315   0.685   1.012   4.389
  432SOL    HW1 1316   0.754   0.996   4.459
  432SOL    HW2 1317   0.612   1.069   4.427
  433SOL     OW 1318   1.603   0.447   4.461
  433SOL    HW1 1319   1.529   0.493   4.411
  433SOL    HW2 1320   1.654   0.515   4.514
  434SOL     OW 1321   0.231   1.713   4.207
  434SOL    HW1 1322   0.265   1.790   4.261
  434SOL    HW2 1323   0.275   1.713   4.117
  435SOL     OW 1324   0.230   1.434   4.262
  435SOL    HW1 1325   0.204   1.530   4.262
  435SOL    HW2 1326   0.159   1.380   4.307
  436SOL     OW 1327   0.240   1.091   4.610
  436SOL    HW1 1328   0.254   1.007   4.662
  436SOL    HW2 1329   0.185   1.155   4.665
  437SOL     OW 1330   0.606   0.964   3.847
  437SOL    HW1 1331   0.613   1.048   3.793
  437SOL    HW2 1332   0.652   0.977   3.935
  438SOL     OW 1333   0.122   0.643   4.287
  438SOL    HW1 1334   0.077   0.555   4.304
  438SOL    HW2 1335   0.121   0.697   4.371
  439SOL     OW 1336   1.842   1.767   4.083
  439SOL    HW1 1337   1.896   1.738   4.163
  439SOL    HW2 1338   1.872   1.857   4.054
  440SOL     OW 1339   0.027   1.596   3.841
  440SOL    HW1 1340   0.008   1.500   3.862
  440SOL    HW2 1341  -0.006   1.654   3.916
  441SOL     OW 1342   1.689   0.922   4.336
  441SOL    HW1 1343   1.784   0.893   4.344
  441SOL    HW2 1344   1.681   0.987   4.261
  442SOL     OW 1345   1.641   1.108   4.156
  442SOL    HW1 1346   1.727   1.110   4.104
  442SOL    HW2 1347   1.655   1.155   4.244
  443SOL     OW 1348   0.613   1.365   4.450
  443SOL    HW1 1349   0.564   1.278   4.459
  443SOL    HW2 1350   0.590   1.408   4.363
  444SOL     OW 1351   0.809   0.004   4.226
  444SOL    HW1 1352   0.849   0.095   4.217
  444SOL    HW2 1353   0.709   0.012   4.232
  445SOL     OW 1354   1.525   0.999   3.914
  445SOL    HW1 1355   1.462   0.923   3.927
  445SOL    HW2 1356   1.573   1.017   4.000
  446SOL     OW 1357   1.466   1.417   4.677
  446SOL    HW1 1358   1.407   1.423   4.757
  446SOL    HW2 1359   1.451   1.329   4.631
  447SOL     OW 1360   1.667   1.714   4.296
  447SOL    HW1 1361   1.626   1.691   4.208
  447SOL    HW2 1362   1.649   1.640   4.361
  448SOL     OW 1363   0.598   0.729   3.994
  448SOL    HW1 1364   0.622   0.798   3.926
  448SOL    HW2 1365   0.520   0.762   4.048
  449SOL     OW 1366   1.281   0.345   4.668
  449SOL    HW1 1367   1.195   0.295   4.655
  449SOL    HW2 1368   1.343   0.291   4.724
  450SOL     OW 1369   1.576   1.662   4.031
  450SOL    HW1 1370   1.665   1.708   4.034
  450SOL    HW2 1371   1.555   1.638   3.936
  451SOL     OW 1372   1.041   0.701   4.153
  451SOL    HW1 1373   1.067   0.697   4.249
  451SOL    HW2 1374   0.956   0.650   4.139
  452SOL     OW 1375   0.076   0.811   4.513
  452SOL    HW1 1376   0.175   0.799   4.522
  452SOL    HW2 1377   0.052   0.906   4.534
  453SOL     OW 1378   0.865   0.348   3.919
  453SOL    HW1 1379   0.924   0.411   3.870
  453SOL    HW2 1380   0.884   0.254   3.890
  454SOL     OW 1381   1.362   1.144   4.269
  454SOL    HW1 1382   1.445   1.115   4.221
  454SOL    HW2 1383   1.313   1.211   4.213
  455SOL     OW 1384   1.008   1.456   4.201
  455SOL    HW1 1385   0.962   1.528   4.149
  455SOL    HW2 1386   1.004   1.476   4.299
  456SOL     OW 1387   0.351   1.801   4.577
  456SOL    HW1 1388   0.401   1.715   4.583
  456SOL    HW2 1389   0.416   1.878   4.574
  457SOL     OW 1390   1.795   1.066   4.597
  457SOL    HW1 1391   1.733   1.051   4.521
  457SOL    HW2 1392   1.743   1.077   4.682
  458SOL     OW 1393   0.321   0.943   3.966
  458SOL    HW1 1394   0.403   0.982   3.924
  458SOL    HW2 1395   0.294   0.861   3.917
  459SOL     OW 1396   1.458   0.735   4.452
  459SOL    HW1 1397   1.453   0.670   4.527
  459SOL    HW2 1398   1.538   0.794   4.465
  460SOL     OW 1399   1.111   1.776   3.961
  460SOL    HW1 1400   1.051   1.714   4.011
  460SOL    HW2 1401   1.142   1.732   3.876
  461SOL     OW 1402   1.632   1.377   3.805
  461SOL    HW1 1403   1.600   1.471   3.795
  461SOL    HW2 1404   1.556   1.314   3.793
  462SOL     OW 1405   0.464   1.743   4.047
  462SOL    HW1 1406   0.497   1.782   4.133
  462SOL    HW2 1407   0.540   1.736   3.982
  463SOL     OW 1408   1.400   0.107   4.150
  463SOL    HW1 1409   1.376   0.070   4.060
  463SOL    HW2 1410   1.499   0.123   4.154
  464SOL     OW 1411   0.382   0.700   4.204
  464SOL    HW1 1412   0.427   0.610   4.201
  464SOL    HW2 1413   0.288   0.689   4.237
  465SOL     OW 1414   0.614   0.122   3.841
  465SOL    HW1 1415   0.712   0.100   3.848
  465SOL    HW2 1416   0.583   0.105   3.748
  466SOL     OW 1417   0.539   0.064   4.236
  466SOL    HW1 1418   0.458   0.065   4.294
  466SOL    HW2 1419   0.542   0.147   4.181
  467SOL     OW 1420   1.434   1.188   3.765
  467SOL    HW1 1421   1.466   1.112   3.822
  467SOL    HW2 1422   1.342   1.215   3.795
  468SOL     OW 1423   0.297   0.035   3.895
  468SOL    HW1 1424   0.346   0.119   3.874
  468SOL    HW2 1425   0.359  -0.030   3.940
  469SOL     OW 1426   0.935   0.236   4.204
  469SOL    HW1 1427   0.887   0.277   4.126
  469SOL    HW2 1428   1.034   0.234   4.185
  470SOL     OW 1429   1.227   1.570   4.517
  470SOL    HW1 1430   1.248   1.644   4.452
  470SOL    HW2 1431   1.295   1.570   4.590
  471SOL     OW 1432   0.459   1.152   4.465
  471SOL    HW1 1433   0.388   1.125   4.530
  471SOL    HW2 1434   0.433   1.124   4.372
  472SOL     OW 1435   1.271   1.797   4.315
  472SOL    HW1 1436   1.315   1.861   4.251
  472SOL    HW2 1437   1.221   1.849   4.385
  473SOL     OW 1438   1.032   0.549   3.740
  473SOL    HW1 1439   0.991   0.631   3.701
  473SOL    HW2 1440   1.096   0.575   3.813
  474SOL     OW 1441   0.866   0.454   4.366
  474SOL    HW1 1442   0.834   0.526   4.304
  474SOL    HW2 1443   0.890   0.373   4.313
  475SOL     OW 1444   1.017   0.039   4.477
  475SOL    HW1 1445   0.945   0.044   4.408
  475SOL    HW2 1446   0.993  -0.030   4.546
  476SOL     OW 1447   1.857   0.833   4.101
  476SOL    HW1 1448   1.899   0.769   4.165
  476SOL    HW2 1449   1.819   0.782   4.023
  477SOL     OW 1450   0.488   1.385   3.898
  477SOL    HW1 1451   0.401   1.370   3.945
  477SOL    HW2 1452   0.471   1.411   3.803
  478SOL     OW 1453   1.664   1.280   4.381
  478SOL    HW1 1454   1.763   1.288   4.395
  478SOL    HW2 1455   1.619   1.364   4.412
  479SOL     OW 1456   1.390   0.575   3.802
  479SOL    HW1 1457   1.336   0.554   3.883
  479SOL    HW2 1458   1.481   0.534   3.811
  480SOL     OW 1459   0.527   0.256   4.052
  480SOL    HW1 1460   0.554   0.197   3.977
  480SOL    HW2 1461   0.527   0.351   4.021
  481SOL     OW 1462   0.705   1.050   4.092
  481SOL    HW1 1463   0.691   1.057   4.191
  481SOL    HW2 1464   0.789   0.999   4.074
  482SOL     OW 1465   0.367   1.100   4.225
  482SOL    HW1 1466   0.360   1.183   4.169
  482SOL    HW2 1467   0.371   1.020   4.165
  483SOL     OW 1468   0.566   0.537   4.589
  483SOL    HW1 1469   0.578   0.603   4.515
  483SOL    HW2 1470   0.612   0.571   4.672
  484SOL     OW 1471   1.252   1.348   4.112
  484SOL    HW1 1472   1.302   1.425   4.152
  484SOL    HW2 1473   1.157   1.350   4.144
  485SOL     OW 1474   1.582   0.639   4.196
  485SOL    HW1 1475   1.551   0.700   4.269
  485SOL    HW2 1476   1.632   0.691   4.127
  486SOL     OW 1477   1.209   0.525   3.999
  486SOL    HW1 1478   1.222   0.441   4.053
  486SOL    HW2 1479   1.180   0.599   4.059
  487SOL     OW 1480   0.732   0.634   4.788
  487SOL    HW1 1481   0.791   0.608   4.712
  487SOL    HW2 1482   0.704   0.730   4.777
  488SOL     OW 1483   0.307   0.063   4.342
  488SOL    HW1 1484   0.296   0.157   4.375
  488SOL    HW2 1485   0.302   0.000   4.419
  489SOL     OW 1486   1.622   0.367   4.098
  489SOL    HW1 1487   1.624   0.291   4.162
  489SOL    HW2 1488   1.574   0.444   4.138
  490SOL     OW 1489   1.540   0.274   3.849
  490SOL    HW1 1490   1.479   0.199   3.872
  490SOL    HW2 1491   1.562   0.326   3.932
  491SOL     OW 1492   1.303   0.838   3.766
  491SOL    HW1 1493   1.337   0.745   3.781
  491SOL    HW2 1494   1.321   0.865   3.671
  492SOL     OW 1495   1.068   1.333   4.573
  492SOL    HW1 1496   1.075   1.249   4.518
  492SOL    HW2 1497   1.130   1.402   4.537
  493SOL     OW 1498   0.319   0.810   4.673
  493SOL    HW1 1499   0.412   0.846   4.678
  493SOL    HW2 1500   0.313   0.725   4.725
  494SOL     OW 1501   0.008   1.326   3.924
  494SOL    HW1 1502  -0.085   1.347   3.893
  494SOL    HW2 1503   0.018   1.227   3.937
  495SOL     OW 1504   0.088   1.801   4.651
  495SOL    HW1 1505   0.046   1.715   4.624
  495SOL    HW2 1506   0.182   1.804   4.617
  496SOL     OW 1507   0.504   1.568   4.634
  496SOL    HW1 1508   0.570   1.642   4.643
  496SOL    HW2 1509   0.548   1.489   4.592
  497SOL     OW 1510   0.815   0.572   4.049
  497SOL    HW1 1511   0.822   0.483   4.003
  497SOL    HW2 1512   0.721   0.606   4.041
  498SOL     OW 1513   0.473   0.500   3.915
  498SOL    HW1 1514   0.534   0.580   3.919
  498SOL    HW2 1515   0.378   0.531   3.922
  499SOL     OW 1516   1.302   0.855   4.033
  499SOL    HW1 1517   1.216   0.824   4.075
  499SOL    HW2 1518   1.298   0.841   3.934
  500SOL     OW 1519   1.759   1.747   4.878
  500SOL    HW1 1520   1.820   1.777   4.805
  500SOL    HW2 1521   1.721   1.658   4.856
  501SOL     OW 1522   1.726   0.135   4.247
  501SOL    HW1 1523   1.799   0.118   4.180
  501SOL    HW2 1524   1.695   0.048   4.285
  502SOL     OW 1525   1.388   1.573   4.201
  502SOL    HW1 1526   1.455   1.585   4.127
  502SOL    HW2 1527   1.348   1.662   4.224
  503SOL     OW 1528   1.280   0.927   4.396
  503SOL    HW1 1529   1.340   0.846   4.398
  503SOL    HW2 1530   1.320   0.996   4.336
  504SOL     OW 1531   0.672   1.616   3.878
  504SOL    HW1 1532   0.681   1.626   3.779
  504SOL    HW2 1533   0.632   1.527   3.899
  505SOL     OW 1534   1.841   0.175   4.687
  505SOL    HW1 1535   1.880   0.090   4.651
  505SOL    HW2 1536   1.743   0.177   4.668
  506SOL     OW 1537   0.263   0.326   4.444
  506SOL    HW1 1538   0.184   0.377   4.410
  506SOL    HW2 1539   0.254   0.311   4.542
  507SOL     OW 1540   1.194   1.612   3.755
  507SOL    HW1 1541   1.200   1.519   3.792
  507SOL    HW2 1542   1.135   1.612   3.675
  508SOL     OW 1543   0.916   0.910   4.015
  508SOL    HW1 1544   0.979   0.948   3.947
  508SOL    HW2 1545   0.956   0.827   4.054
  509SOL     OW 1546   1.504   1.607   3.768
  509SOL    HW1 1547   1.412   1.644   3.775
  509SOL    HW2 1548   1.542   1.627   3.678
  510SOL     OW 1549   1.039   1.098   4.420
  510SOL    HW1 1550   0.969   1.051   4.474
  510SOL    HW2 1551   1.098   1.030   4.377
  511SOL     OW 1552   0.590   1.487   4.215
  511SOL    HW1 1553   0.632   1.429   4.145
  511SOL    HW2 1554   0.546   1.566   4.171
  512SOL     OW 1555   0.255   1.348   4.014
  512SOL    HW1 1556   0.159   1.349   3.987
  512SOL    HW2 1557   0.267   1.401   4.098
  513SOL     OW 1558   0.075   0.345   3.757
  513SOL    HW1 1559  -0.017   0.317   3.728
  513SOL    HW2 1560   0.106   0.422   3.701
  514SOL     OW 1561   0.072   0.166   4.042
  514SOL    HW1 1562   0.055   0.249   3.988
  514SOL    HW2 1563   0.162   0.129   4.020
  515SOL     OW 1564   1.183   1.335   3.843
  515SOL    HW1 1565   1.084   1.324   3.845
  515SOL    HW2 1566   1.217   1.350   3.936
  516SOL     OW 1567   1.674   0.883   4.978
  516SOL    HW1 1568   1.647   0.794   4.941
  516SOL    HW2 1569   1.675   0.951   4.905
  517SOL     OW 1570   1.225   0.325   4.173
  517SOL    HW1 1571   1.290   0.251   4.162
  517SOL    HW2 1572   1.245   0.375   4.257
  518SOL     OW 1573   0.594   0.745   4.376
  518SOL    HW1 1574   0.644   0.830   4.357
  518SOL    HW2 1575   0.506   0.747   4.328
  519SOL     OW 1576   0.859   1.374   3.740
  519SOL    HW1 1577   0.813   1.389   3.828
  519SOL    HW2 1578   0.903   1.459   3.710
  520SOL     OW 1579   0.661   1.790   4.677
  520SOL    HW1 1580   0.615   1.878   4.664
  520SOL    HW2 1581   0.760   1.802   4.670
  521SOL     OW 1582   0.859   0.956   4.585
  521SOL    HW1 1583   0.913   0.887   4.633
  521SOL    HW2 1584   0.827   1.025   4.651
  522SOL     OW 1585   1.083   0.984   3.811
  522SOL    HW1 1586   1.060   1.037   3.729
  522SOL    HW2 1587   1.164   0.928   3.792
  523SOL     OW 1588   1.861   1.569   4.575
  523SOL    HW1 1589   1.790   1.557   4.505
  523SOL    HW2 1590   1.862   1.490   4.635
  524SOL     OW 1591   0.079   1.240   4.377
  524SOL    HW1 1592   0.078   1.193   4.465
  524SOL    HW2 1593   0.161   1.212   4.326
  525SOL     OW 1594   1.824   0.192   4.951
  525SOL    HW1 1595   1.820   0.102   4.995
  525SOL    HW2 1596   1.827   0.181   4.852
  526SOL     OW 1597   0.428   0.424   4.244
  526SOL    HW1 1598   0.458   0.352   4.182
  526SOL    HW2 1599   0.389   0.384   4.327
  527SOL     OW 1600   0.812   1.586   4.411
  527SOL    HW1 1601   0.844   1.596   4.317
  527SOL    HW2 1602   0.733   1.524   4.413
  528SOL     OW 1603   0.770   1.330   4.025
  528SOL    HW1 1604   0.724   1.243   4.042
  528SOL    HW2 1605   0.861   1.327   4.066
  529SOL     OW 1606   1.352   0.052   3.892
  529SOL    HW1 1607   1.387   0.011   3.808
  529SOL    HW2 1608   1.262   0.014   3.912
  530SOL     OW 1609   1.300   0.453   4.415
  530SOL    HW1 1610   1.241   0.533   4.419
  530SOL    HW2 1611   1.315   0.418   4.508
  531SOL     OW 1612   1.593   0.221   4.606
  531SOL    HW1 1613   1.509   0.220   4.660
  531SOL    HW2 1614   1.595   0.304   4.550
  532SOL     OW 1615   0.039   1.077   4.024
  532SOL    HW1 1616   0.138   1.066   4.015
  532SOL    HW2 1617  -0.001   0.991   4.056
  533SOL     OW 1618   0.875   1.646   4.061
  533SOL    HW1 1619   0.798   1.611   4.007
  533SOL    HW2 1620   0.843   1.717   4.123
  534SOL     OW 1621   0.230   2.490   0.113
  534SOL    HW1 1622   0.137   2.488   0.150
  534SOL    HW2 1623   0.231   2.451   0.021
  535SOL     OW 1624   0.225   2.137   0.996
  535SOL    HW1 1625   0.260   2.120   1.088
  535SOL    HW2 1626   0.137   2.092   0.984
  536SOL     OW 1627   0.019   2.230   0.647
  536SOL    HW1 1628  -0.063   2.273   0.686
  536SOL    HW2 1629  -0.009   2.157   0.584
  537SOL     OW 1630   0.569   3.137   1.165
  537SOL    HW1 1631   0.476   3.130   1.128
  537SOL    HW2 1632   0.580   3.226   1.209
  538SOL     OW 1633   1.555   3.373   0.703
  538SOL    HW1 1634   1.498   3.357   0.784
  538SOL    HW2 1635   1.496   3.383   0.623
  539SOL     OW 1636   1.135   2.565   0.717
  539SOL    HW1 1637   1.192   2.643   0.692
  539SOL    HW2 1638   1.075   2.591   0.793
  540SOL     OW 1639   1.755   2.469   0.231
  540SOL    HW1 1640   1.743   2.456   0.132
  540SOL    HW2 1641   1.725   2.388   0.280
  541SOL     OW 1642   0.768   3.006   1.023
  541SOL    HW1 1643   0.690   3.023   1.083
  541SOL    HW2 1644   0.802   3.093   0.987
  542SOL     OW 1645   0.850   2.660   1.823
  542SOL    HW1 1646   0.846   2.736   1.888
  542SOL    HW2 1647   0.872   2.696   1.732
  543SOL     OW 1648   0.685   2.874   0.665
  543SOL    HW1 1649   0.754   2.858   0.735
  543SOL    HW2 1650   0.612   2.931   0.703
  544SOL     OW 1651   0.686   3.023   1.803
  544SOL    HW1 1652   0.746   3.102   1.817
  544SOL    HW2 1653   0.600   3.054   1.762
  545SOL     OW 1654   0.335   3.297   1.061
  545SOL    HW1 1655   0.257   3.266   1.008
  545SOL    HW2 1656   0.393   3.355   1.004
  546SOL     OW 1657   1.460   3.367   1.339
  546SOL    HW1 1658   1.484   3.461   1.365
  546SOL    HW2 1659   1.444   3.313   1.421
  547SOL     OW 1660   0.438   2.254   1.499
  547SOL    HW1 1661   0.520   2.198   1.508
  547SOL    HW2 1662   0.357   2.196   1.503
  548SOL     OW 1663   1.603   2.309   0.737
  548SOL    HW1 1664   1.529   2.355   0.687
  548SOL    HW2 1665   1.654   2.377   0.790
  549SOL     OW 1666   0.231   3.575   0.483
  549SOL    HW1 1667   0.265   3.652   0.537
  549SOL    HW2 1668   0.275   3.575   0.393
  550SOL     OW 1669   1.127   3.203   1.690
  550SOL    HW1 1670   1.174   3.203   1.778
  550SOL    HW2 1671   1.079   3.116   1.679
  551SOL     OW 1672   0.230   3.296   0.538
  551SOL    HW1 1673   0.204   3.392   0.538
  551SOL    HW2 1674   0.159   3.242   0.583
  552SOL     OW 1675   0.240   2.953   0.886
  552SOL    HW1 1676   0.254   2.869   0.938
  552SOL    HW2 1677   0.185   3.017   0.941
  553SOL     OW 1678   0.620   3.648   1.439
  553SOL    HW1 1679   0.528   3.631   1.474
  553SOL    HW2 1680   0.648   3.740   1.465
  554SOL     OW 1681   0.606   2.826   0.123
  554SOL    HW1 1682   0.613   2.910   0.069
  554SOL    HW2 1683   0.652   2.839   0.211
  555SOL     OW 1684   1.594   1.976   1.480
  555SOL    HW1 1685   1.576   2.043   1.408
  555SOL    HW2 1686   1.591   2.022   1.569
  556SOL     OW 1687   0.122   2.505   0.563
  556SOL    HW1 1688   0.077   2.417   0.580
  556SOL    HW2 1689   0.121   2.559   0.647
  557SOL     OW 1690   1.842   3.629   0.359
  557SOL    HW1 1691   1.896   3.600   0.439
  557SOL    HW2 1692   1.872   3.719   0.330
  558SOL     OW 1693   0.027   3.458   0.117
  558SOL    HW1 1694   0.008   3.362   0.138
  558SOL    HW2 1695  -0.006   3.516   0.192
  559SOL     OW 1696   1.689   2.784   0.612
  559SOL    HW1 1697   1.784   2.755   0.620
  559SOL    HW2 1698   1.681   2.849   0.537
  560SOL     OW 1699   1.641   2.970   0.432
  560SOL    HW1 1700   1.727   2.972   0.380
  560SOL    HW2 1701   1.655   3.017   0.520
  561SOL     OW 1702   0.113   2.599   1.597
  561SOL    HW1 1703   0.201   2.586   1.642
  561SOL    HW2 1704   0.100   2.696   1.575
  562SOL     OW 1705   0.613   3.227   0.726
  562SOL    HW1 1706   0.564   3.140   0.735
  562SOL    HW2 1707   0.590   3.270   0.639
  563SOL     OW 1708   1.293   3.090   1.423
  563SOL    HW1 1709   1.330   3.017   1.365
  563SOL    HW2 1710   1.345   3.095   1.508
  564SOL     OW 1711   0.809   1.866   0.502
  564SOL    HW1 1712   0.849   1.957   0.493
  564SOL    HW2 1713   0.709   1.874   0.508
  565SOL     OW 1714   0.197   2.838   1.264
  565SOL    HW1 1715   0.286   2.793   1.250
  565SOL    HW2 1716   0.124   2.773   1.245
  566SOL     OW 1717   1.525   2.861   0.190
  566SOL    HW1 1718   1.462   2.785   0.203
  566SOL    HW2 1719   1.573   2.879   0.276
  567SOL     OW 1720   1.187   3.654   1.616
  567SOL    HW1 1721   1.211   3.714   1.540
  567SOL    HW2 1722   1.194   3.559   1.586
  568SOL     OW 1723   0.317   2.113   1.801
  568SOL    HW1 1724   0.388   2.184   1.807
  568SOL    HW2 1725   0.229   2.152   1.829
  569SOL     OW 1726   1.466   3.279   0.953
  569SOL    HW1 1727   1.407   3.285   1.033
  569SOL    HW2 1728   1.451   3.191   0.907
  570SOL     OW 1729   1.667   3.576   0.572
  570SOL    HW1 1730   1.626   3.553   0.484
  570SOL    HW2 1731   1.649   3.502   0.637
  571SOL     OW 1732   0.598   2.591   0.270
  571SOL    HW1 1733   0.622   2.660   0.202
  571SOL    HW2 1734   0.520   2.624   0.324
  572SOL     OW 1735   1.281   2.207   0.944
  572SOL    HW1 1736   1.195   2.157   0.931
  572SOL    HW2 1737   1.343   2.153   1.000
  573SOL     OW 1738   1.576   3.524   0.307
  573SOL    HW1 1739   1.665   3.570   0.310
  573SOL    HW2 1740   1.555   3.500   0.212
  574SOL     OW 1741   0.807   2.467   1.465
  574SOL    HW1 1742   0.760   2.464   1.554
  574SOL    HW2 1743   0.756   2.412   1.399
  575SOL     OW 1744   1.394   2.331   1.674
  575SOL    HW1 1745   1.374   2.374   1.762
  575SOL    HW2 1746   1.472   2.269   1.683
  576SOL     OW 1747   0.973   2.752   1.572
  576SOL    HW1 1748   1.019   2.668   1.543
  576SOL    HW2 1749   0.917   2.786   1.497
  577SOL     OW 1750   0.991   2.272   1.242
  577SOL    HW1 1751   0.914   2.306   1.296
  577SOL    HW2 1752   0.957   2.221   1.163
  578SOL     OW 1753   1.041   2.563   0.429
  578SOL    HW1 1754   1.067   2.559   0.525
  578SOL    HW2 1755   0.956   2.512   0.415
  579SOL     OW 1756   0.076   2.673   0.789
  579SOL    HW1 1757   0.175   2.661   0.798
  579SOL    HW2 1758   0.052   2.768   0.810
  580SOL     OW 1759   0.130   3.683   1.571
  580SOL    HW1 1760   0.120   3.668   1.670
  580SOL    HW2 1761   0.044   3.719   1.535
  581SOL     OW 1762   0.865   2.210   0.195
  581SOL    HW1 1763   0.924   2.273   0.146
  581SOL    HW2 1764   0.884   2.116   0.166
  582SOL     OW 1765   1.719   2.447   1.831
  582SOL    HW1 1766   1.693   2.536   1.795
  582SOL    HW2 1767   1.717   2.379   1.758
  583SOL     OW 1768   1.362   3.006   0.545
  583SOL    HW1 1769   1.445   2.977   0.497
  583SOL    HW2 1770   1.313   3.073   0.489
  584SOL     OW 1771   0.550   2.058   0.885
  584SOL    HW1 1772   0.545   2.053   0.985
  584SOL    HW2 1773   0.552   2.154   0.856
  585SOL     OW 1774   1.008   3.318   0.477
  585SOL    HW1 1775   0.962   3.390   0.425
  585SOL    HW2 1776   1.004   3.338   0.575
  586SOL     OW 1777   0.351   3.663   0.853
  586SOL    HW1 1778   0.401   3.577   0.859
  586SOL    HW2 1779   0.416   3.740   0.850
  587SOL     OW 1780   1.795   2.928   0.873
  587SOL    HW1 1781   1.733   2.913   0.797
  587SOL    HW2 1782   1.743   2.939   0.958
  588SOL     OW 1783   1.227   3.412   1.506
  588SOL    HW1 1784   1.233   3.335   1.570
  588SOL    HW2 1785   1.175   3.386   1.426
  589SOL     OW 1786   0.321   2.805   0.242
  589SOL    HW1 1787   0.403   2.844   0.200
  589SOL    HW2 1788   0.294   2.723   0.193
  590SOL     OW 1789   1.458   2.597   0.728
  590SOL    HW1 1790   1.453   2.532   0.803
  590SOL    HW2 1791   1.538   2.656   0.741
  591SOL     OW 1792   0.461   3.128   1.727
  591SOL    HW1 1793   0.411   3.129   1.641
  591SOL    HW2 1794   0.398   3.110   1.803
  592SOL     OW 1795   1.111   3.638   0.237
  592SOL    HW1 1796   1.051   3.576   0.287
  592SOL    HW2 1797   1.142   3.594   0.152
  593SOL     OW 1798   0.202   2.147   1.498
  593SOL    HW1 1799   0.122   2.207   1.485
  593SOL    HW2 1800   0.192   2.098   1.584
  594SOL     OW 1801   1.632   3.239   0.081
  594SOL    HW1 1802   1.600   3.333   0.071
  594SOL    HW2 1803   1.556   3.176   0.069
  595SOL     OW 1804   0.464   3.605   0.323
  595SOL    HW1 1805   0.497   3.644   0.409
  595SOL    HW2 1806   0.540   3.598   0.258
  596SOL     OW 1807   1.400   1.969   0.426
  596SOL    HW1 1808   1.376   1.932   0.336
  596SOL    HW2 1809   1.499   1.985   0.430
  597SOL     OW 1810   0.249   3.647   1.241
  597SOL    HW1 1811   0.306   3.582   1.291
  597SOL    HW2 1812   0.233   3.614   1.148
  598SOL     OW 1813   0.940   3.560   0.904
  598SOL    HW1 1814   1.020   3.503   0.925
  598SOL    HW2 1815   0.891   3.520   0.827
  599SOL     OW 1816   0.382   2.562   0.480
  599SOL    HW1 1817   0.427   2.472   0.477
  599SOL    HW2 1818   0.288   2.551   0.513
  600SOL     OW 1819   1.547   2.084   1.729
  600SOL    HW1 1820   1.542   2.121   1.821
  600SOL    HW2 1821   1.475   2.015   1.717
  601SOL     OW 1822   0.781   2.126   1.749
  601SOL    HW1 1823   0.848   2.065   1.792
  601SOL    HW2 1824   0.708   2.145   1.814
  602SOL     OW 1825   0.888   3.376   1.195
  602SOL    HW1 1826   0.865   3.351   1.101
  602SOL    HW2 1827   0.949   3.307   1.234
  603SOL     OW 1828   1.351   2.452   1.433
  603SOL    HW1 1829   1.379   2.409   1.518
  603SOL    HW2 1830   1.376   2.548   1.434
  604SOL     OW 1831   0.803   3.264   0.924
  604SOL    HW1 1832   0.893   3.278   0.882
  604SOL    HW2 1833   0.732   3.266   0.853
  605SOL     OW 1834   0.922   2.365   0.899
  605SOL    HW1 1835   0.897   2.356   0.803
  605SOL    HW2 1836   0.970   2.283   0.930
  606SOL     OW 1837   0.539   1.926   0.512
  606SOL    HW1 1838   0.458   1.927   0.570
  606SOL    HW2 1839   0.542   2.009   0.457
  607SOL     OW 1840   1.434   3.050   0.041
  607SOL    HW1 1841   1.466   2.974   0.098
  607SOL    HW2 1842   1.342   3.077   0.071
  608SOL     OW 1843   0.297   1.897   0.171
  608SOL    HW1 1844   0.346   1.981   0.150
  608SOL    HW2 1845   0.359   1.832   0.216
  609SOL     OW 1846   0.935   2.098   0.480
  609SOL    HW1 1847   0.887   2.139   0.402
  609SOL    HW2 1848   1.034   2.096   0.461
  610SOL     OW 1849   1.076   2.545   1.464
  610SOL    HW1 1850   0.996   2.484   1.467
  610SOL    HW2 1851   1.157   2.492   1.440
  611SOL     OW 1852   1.227   3.432   0.793
  611SOL    HW1 1853   1.248   3.506   0.728
  611SOL    HW2 1854   1.295   3.432   0.866
  612SOL     OW 1855   0.459   3.014   0.741
  612SOL    HW1 1856   0.388   2.987   0.806
  612SOL    HW2 1857   0.433   2.986   0.648
  613SOL     OW 1858   1.271   3.659   0.591
  613SOL    HW1 1859   1.315   3.723   0.527
  613SOL    HW2 1860   1.221   3.711   0.661
  614SOL     OW 1861   1.032   2.411   0.016
  614SOL    HW1 1862   0.991   2.493  -0.023
  614SOL    HW2 1863   1.096   2.437   0.089
  615SOL     OW 1864   0.078   2.418   1.386
  615SOL    HW1 1865   0.170   2.417   1.345
  615SOL    HW2 1866   0.072   2.492   1.453
  616SOL     OW 1867   0.561   2.084   1.147
  616SOL    HW1 1868   0.599   2.000   1.184
  616SOL    HW2 1869   0.473   2.103   1.191
  617SOL     OW 1870   0.866   2.316   0.642
  617SOL    HW1 1871   0.834   2.388   0.580
  617SOL    HW2 1872   0.890   2.235   0.589
  618SOL     OW 1873   1.017   1.901   0.753
  618SOL    HW1 1874   0.945   1.906   0.684
  618SOL    HW2 1875   0.993   1.832   0.822
  619SOL     OW 1876   1.429   3.035   0.867
  619SOL    HW1 1877   1.374   2.951   0.860
  619SOL    HW2 1878   1.455   3.064   0.775
  620SOL     OW 1879   1.466   2.452   0.992
  620SOL    HW1 1880   1.436   2.357   0.999
  620SOL    HW2 1881   1.539   2.468   1.058
  621SOL     OW 1882   1.857   2.695   0.377
  621SOL    HW1 1883   1.899   2.631   0.441
  621SOL    HW2 1884   1.819   2.644   0.299
  622SOL     OW 1885   0.488   3.247   0.174
  622SOL    HW1 1886   0.401   3.232   0.221
  622SOL    HW2 1887   0.471   3.273   0.079
  623SOL     OW 1888   1.664   3.142   0.657
  623SOL    HW1 1889   1.763   3.150   0.671
  623SOL    HW2 1890   1.619   3.226   0.688
  624SOL     OW 1891   1.390   2.437   0.078
  624SOL    HW1 1892   1.336   2.416   0.159
  624SOL    HW2 1893   1.481   2.396   0.087
  625SOL     OW 1894   0.527   2.118   0.328
  625SOL    HW1 1895   0.554   2.059   0.253
  625SOL    HW2 1896   0.527   2.213   0.297
  626SOL     OW 1897   1.754   3.085   1.588
  626SOL    HW1 1898   1.845   3.046   1.575
  626SOL    HW2 1899   1.762   3.181   1.612
  627SOL     OW 1900   1.064   3.209   1.340
  627SOL    HW1 1901   0.984   3.186   1.395
  627SOL    HW2 1902   1.147   3.183   1.389
  628SOL     OW 1903   1.592   3.491   1.625
  628SOL    HW1 1904   1.619   3.525   1.535
  628SOL    HW2 1905   1.671   3.453   1.671
  629SOL     OW 1906   1.111   3.057   1.100
  629SOL    HW1 1907   1.071   3.101   1.181
  629SOL    HW2 1908   1.070   3.094   1.017
  630SOL     OW 1909   1.638   2.961   1.079
  630SOL    HW1 1910   1.643   3.042   1.138
  630SOL    HW2 1911   1.552   2.963   1.028
  631SOL     OW 1912   0.915   1.951   1.402
  631SOL    HW1 1913   0.940   1.931   1.307
  631SOL    HW2 1914   0.987   2.007   1.444
  632SOL     OW 1915   0.980   2.978   1.719
  632SOL    HW1 1916   0.881   2.984   1.729
  632SOL    HW2 1917   1.003   2.898   1.663
  633SOL     OW 1918   0.705   2.912   0.368
  633SOL    HW1 1919   0.691   2.919   0.467
  633SOL    HW2 1920   0.789   2.861   0.350
  634SOL     OW 1921   0.410   2.675   1.251
  634SOL    HW1 1922   0.496   2.687   1.301
  634SOL    HW2 1923   0.368   2.588   1.278
  635SOL     OW 1924   1.274   2.248   1.262
  635SOL    HW1 1925   1.295   2.322   1.326
  635SOL    HW2 1926   1.185   2.265   1.219
  636SOL     OW 1927   0.064   3.426   1.331
  636SOL    HW1 1928   0.018   3.508   1.297
  636SOL    HW2 1929   0.162   3.445   1.340
  637SOL     OW 1930   0.367   2.962   0.501
  637SOL    HW1 1931   0.360   3.045   0.445
  637SOL    HW2 1932   0.371   2.882   0.441
  638SOL     OW 1933   0.566   2.399   0.865
  638SOL    HW1 1934   0.578   2.465   0.791
  638SOL    HW2 1935   0.612   2.433   0.948
  639SOL     OW 1936   1.252   3.210   0.388
  639SOL    HW1 1937   1.302   3.287   0.428
  639SOL    HW2 1938   1.157   3.212   0.420
  640SOL     OW 1939   1.272   3.307   1.142
  640SOL    HW1 1940   1.319   3.320   1.229
  640SOL    HW2 1941   1.206   3.233   1.151
  641SOL     OW 1942   1.582   2.501   0.472
  641SOL    HW1 1943   1.551   2.562   0.545
  641SOL    HW2 1944   1.632   2.553   0.403
  642SOL     OW 1945   0.354   3.372   1.329
  642SOL    HW1 1946   0.333   3.328   1.242
  642SOL    HW2 1947   0.451   3.398   1.332
  643SOL     OW 1948   0.402   2.613   1.598
  643SOL    HW1 1949   0.470   2.668   1.551
  643SOL    HW2 1950   0.442   2.525   1.625
  644SOL     OW 1951   1.587   2.641   1.670
  644SOL    HW1 1952   1.495   2.679   1.665
  644SOL    HW2 1953   1.647   2.688   1.605
  645SOL     OW 1954   1.013   1.967   1.770
  645SOL    HW1 1955   1.019   2.052   1.718
  645SOL    HW2 1956   1.045   1.891   1.713
  646SOL     OW 1957   0.504   1.912   1.740
  646SOL    HW1 1958   0.462   1.855   1.670
  646SOL    HW2 1959   0.438   1.981   1.772
  647SOL     OW 1960   0.573   2.732   1.029
  647SOL    HW1 1961   0.617   2.821   1.020
  647SOL    HW2 1962   0.510   2.732   1.106
  648SOL     OW 1963   1.360   2.724   1.045
  648SOL    HW1 1964   1.285   2.724   0.979
  648SOL    HW2 1965   1.397   2.632   1.054
  649SOL     OW 1966   1.209   2.387   0.275
  649SOL    HW1 1967   1.222   2.303   0.329
  649SOL    HW2 1968   1.180   2.461   0.335
  650SOL     OW 1969   0.307   2.075   1.231
  650SOL    HW1 1970   0.284   2.112   1.321
  650SOL    HW2 1971   0.277   1.980   1.225
  651SOL     OW 1972   0.037   3.172   1.282
  651SOL    HW1 1973   0.090   3.123   1.350
  651SOL    HW2 1974   0.059   3.270   1.287
  652SOL     OW 1975   0.732   2.496   1.064
  652SOL    HW1 1976   0.791   2.470   0.988
  652SOL    HW2 1977   0.704   2.592   1.053
  653SOL     OW 1978   1.728   2.797   1.854
  653SOL    HW1 1979   1.682   2.790   1.765
  653SOL    HW2 1980   1.666   2.841   1.920
  654SOL     OW 1981   0.307   1.925   0.618
  654SOL    HW1 1982   0.296   2.019   0.651
  654SOL    HW2 1983   0.302   1.862   0.695
  655SOL     OW 1984   1.622   2.229   0.374
  655SOL    HW1 1985   1.624   2.153   0.438
  655SOL    HW2 1986   1.574   2.306   0.414
  656SOL     OW 1987   1.023   2.628   0.966
  656SOL    HW1 1988   1.038   2.649   1.062
  656SOL    HW2 1989   0.993   2.533   0.957
  657SOL     OW 1990   0.980   3.435   1.700
  657SOL    HW1 1991   0.960   3.479   1.612
  657SOL    HW2 1992   1.019   3.344   1.684
  658SOL     OW 1993   1.859   3.380   1.605
  658SOL    HW1 1994   1.873   3.407   1.510
  658SOL    HW2 1995   1.942   3.402   1.658
  659SOL     OW 1996   0.350   2.760   1.804
  659SOL    HW1 1997   0.426   2.804   1.852
  659SOL    HW2 1998   0.385   2.713   1.722
  660SOL     OW 1999   1.540   2.136   0.125
  660SOL    HW1 2000   1.479   2.061   0.148
  660SOL    HW2 2001   1.562   2.188   0.208
  661SOL     OW 2002   1.303   2.700   0.042
  661SOL    HW1 2003   1.337   2.607   0.057
  661SOL    HW2 2004   1.321   2.727  -0.053
  662SOL     OW 2005   1.068   3.195   0.849
  662SOL    HW1 2006   1.075   3.111   0.794
  662SOL    HW2 2007   1.130   3.264   0.813
  663SOL     OW 2008   0.319   2.672   0.949
  663SOL    HW1 2009   0.412   2.708   0.954
  663SOL    HW2 2010   0.313   2.587   1.001
  664SOL     OW 2011   0.339   2.371   1.006
  664SOL    HW1 2012   0.287   2.288   0.989
  664SOL    HW2 2013   0.416   2.376   0.942
  665SOL     OW 2014   1.138   2.242   1.678
  665SOL    HW1 2015   1.093   2.305   1.742
  665SOL    HW2 2016   1.231   2.273   1.661
  666SOL     OW 2017   1.160   2.069   1.477
  666SOL    HW1 2018   1.160   2.133   1.554
  666SOL    HW2 2019   1.188   2.117   1.394
  667SOL     OW 2020   0.008   3.188   0.200
  667SOL    HW1 2021  -0.085   3.209   0.169
  667SOL    HW2 2022   0.018   3.089   0.213
  668SOL     OW 2023   0.088   3.663   0.927
  668SOL    HW1 2024   0.046   3.577   0.900
  668SOL    HW2 2025   0.182   3.666   0.893
  669SOL     OW 2026   0.504   3.430   0.910
  669SOL    HW1 2027   0.570   3.504   0.919
  669SOL    HW2 2028   0.548   3.351   0.868
  670SOL     OW 2029   1.002   2.658   1.238
  670SOL    HW1 2030   1.043   2.626   1.324
  670SOL    HW2 2031   0.906   2.631   1.235
  671SOL     OW 2032   0.040   2.406   1.114
  671SOL    HW1 2033   0.125   2.373   1.073
  671SOL    HW2 2034   0.053   2.421   1.212
  672SOL     OW 2035   0.189   2.382   1.722
  672SOL    HW1 2036   0.248   2.342   1.652
  672SOL    HW2 2037   0.131   2.453   1.681
  673SOL     OW 2038   1.369   2.812   1.660
  673SOL    HW1 2039   1.408   2.901   1.680
  673SOL    HW2 2040   1.379   2.792   1.563
  674SOL     OW 2041   0.815   2.434   0.325
  674SOL    HW1 2042   0.822   2.345   0.279
  674SOL    HW2 2043   0.721   2.468   0.317
  675SOL     OW 2044   1.657   2.466   1.206
  675SOL    HW1 2045   1.619   2.397   1.268
  675SOL    HW2 2046   1.739   2.430   1.162
  676SOL     OW 2047   0.252   3.426   1.744
  676SOL    HW1 2048   0.222   3.483   1.820
  676SOL    HW2 2049   0.245   3.329   1.770
  677SOL     OW 2050   0.671   2.326   1.269
  677SOL    HW1 2051   0.637   2.237   1.239
  677SOL    HW2 2052   0.697   2.380   1.189
  678SOL     OW 2053   0.930   3.540   1.465
  678SOL    HW1 2054   0.906   3.522   1.370
  678SOL    HW2 2055   0.960   3.634   1.475
  679SOL     OW 2056   0.473   2.362   0.191
  679SOL    HW1 2057   0.534   2.442   0.195
  679SOL    HW2 2058   0.378   2.393   0.198
  680SOL     OW 2059   0.159   2.999   1.466
  680SOL    HW1 2060   0.181   2.938   1.542
  680SOL    HW2 2061   0.169   2.950   1.380
  681SOL     OW 2062   1.347   2.921   1.234
  681SOL    HW1 2063   1.371   2.858   1.160
  681SOL    HW2 2064   1.257   2.961   1.216
  682SOL     OW 2065   1.302   2.717   0.309
  682SOL    HW1 2066   1.216   2.686   0.351
  682SOL    HW2 2067   1.298   2.703   0.210
  683SOL     OW 2068   1.759   3.609   1.154
  683SOL    HW1 2069   1.820   3.639   1.081
  683SOL    HW2 2070   1.721   3.520   1.132
  684SOL     OW 2071   1.252   3.593   1.128
  684SOL    HW1 2072   1.336   3.598   1.074
  684SOL    HW2 2073   1.229   3.497   1.146
  685SOL     OW 2074   0.083   3.120   1.022
  685SOL    HW1 2075   0.078   3.119   1.122
  685SOL    HW2 2076   0.000   3.079   0.984
  686SOL     OW 2077   0.688   3.524   1.716
  686SOL    HW1 2078   0.632   3.605   1.725
  686SOL    HW2 2079   0.740   3.528   1.630
  687SOL     OW 2080   0.903   1.948   0.133
  687SOL    HW1 2081   0.954   1.949   0.047
  687SOL    HW2 2082   0.959   1.906   0.204
  688SOL     OW 2083   1.726   1.997   0.523
  688SOL    HW1 2084   1.799   1.980   0.456
  688SOL    HW2 2085   1.695   1.910   0.561
  689SOL     OW 2086   1.388   3.435   0.477
  689SOL    HW1 2087   1.455   3.447   0.403
  689SOL    HW2 2088   1.348   3.524   0.500
  690SOL     OW 2089   0.130   3.656   1.851
  690SOL    HW1 2090   0.089   3.582   1.904
  690SOL    HW2 2091   0.194   3.707   1.909
  691SOL     OW 2092   1.280   2.789   0.672
  691SOL    HW1 2093   1.340   2.708   0.674
  691SOL    HW2 2094   1.320   2.858   0.612
  692SOL     OW 2095   0.830   3.135   1.422
  692SOL    HW1 2096   0.825   3.168   1.517
  692SOL    HW2 2097   0.744   3.154   1.376
  693SOL     OW 2098   0.672   3.478   0.154
  693SOL    HW1 2099   0.681   3.488   0.055
  693SOL    HW2 2100   0.632   3.389   0.175
  694SOL     OW 2101   1.650   3.582   1.394
  694SOL    HW1 2102   1.703   3.592   1.310
  694SOL    HW2 2103   1.623   3.672   1.428
  695SOL     OW 2104   1.841   2.037   0.963
  695SOL    HW1 2105   1.880   1.952   0.927
  695SOL    HW2 2106   1.743   2.039   0.944
  696SOL     OW 2107   0.263   2.188   0.720
  696SOL    HW1 2108   0.184   2.239   0.686
  696SOL    HW2 2109   0.254   2.173   0.818
  697SOL     OW 2110   1.194   3.474   0.031
  697SOL    HW1 2111   1.200   3.381   0.068
  697SOL    HW2 2112   1.135   3.474  -0.049
  698SOL     OW 2113   0.822   2.864   1.372
  698SOL    HW1 2114   0.862   2.863   1.280
  698SOL    HW2 2115   0.832   2.956   1.412
  699SOL     OW 2116   0.916   2.772   0.291
  699SOL    HW1 2117   0.979   2.810   0.223
  699SOL    HW2 2118   0.956   2.689   0.330
  700SOL     OW 2119   1.504   3.469   0.044
  700SOL    HW1 2120   1.412   3.506   0.051
  700SOL    HW2 2121   1.542   3.489  -0.046
  701SOL     OW 2122   0.372   3.150   1.490
  701SOL    HW1 2123   0.359   3.243   1.456
  701SOL    HW2 2124   0.288   3.098   1.477
  702SOL     OW 2125   1.614   3.154   1.289
  702SOL    HW1 2126   1.674   3.157   1.369
  702SOL    HW2 2127   1.539   3.218   1.302
  703SOL     OW 2128   1.039   2.960   0.696
  703SOL    HW1 2129   0.969   2.913   0.750
  703SOL    HW2 2130   1.098   2.892   0.653
  704SOL     OW 2131   1.014   2.098   0.971
  704SOL    HW1 2132   1.006   2.062   0.878
  704SOL    HW2 2133   1.012   2.022   1.036
  705SOL     OW 2134   0.590   3.349   0.491
  705SOL    HW1 2135   0.632   3.291   0.421
  705SOL    HW2 2136   0.546   3.428   0.447
  706SOL     OW 2137   1.709   2.247   1.381
  706SOL    HW1 2138   1.782   2.316   1.385
  706SOL    HW2 2139   1.737   2.172   1.322
  707SOL     OW 2140   0.255   3.210   0.290
  707SOL    HW1 2141   0.159   3.211   0.263
  707SOL    HW2 2142   0.267   3.263   0.374
  708SOL     OW 2143   0.105   2.875   1.726
  708SOL    HW1 2144   0.028   2.842   1.780
  708SOL    HW2 2145   0.190   2.845   1.768
  709SOL     OW 2146   0.672   2.065   1.489
  709SOL    HW1 2147   0.762   2.049   1.449
  709SOL    HW2 2148   0.680   2.070   1.588
  710SOL     OW 2149   0.075   2.207   0.033
  710SOL    HW1 2150  -0.017   2.179   0.004
  710SOL    HW2 2151   0.106   2.284  -0.023
  711SOL     OW 2152   1.440   2.718   1.398
  711SOL    HW1 2153   1.383   2.770   1.335
  711SOL    HW2 2154   1.536   2.730   1.374
  712SOL     OW 2155   0.072   2.028   0.318
  712SOL    HW1 2156   0.055   2.111   0.264
  712SOL    HW2 2157   0.162   1.991   0.296
  713SOL     OW 2158   1.183   3.197   0.119
  713SOL    HW1 2159   1.084   3.186   0.121
  713SOL    HW2 2160   1.217   3.212   0.212
  714SOL     OW 2161   0.613   2.704   1.431
  714SOL    HW1 2162   0.669   2.785   1.414
  714SOL    HW2 2163   0.672   2.624   1.434
  715SOL     OW 2164   1.493   3.629   0.959
  715SOL    HW1 2165   1.526   3.693   0.890
  715SOL    HW2 2166   1.559   3.623   1.034
  716SOL     OW 2167   0.716   2.427   1.708
  716SOL    HW1 2168   0.735   2.492   1.782
  716SOL    HW2 2169   0.776   2.347   1.717
  717SOL     OW 2170   1.450   3.082   1.633
  717SOL    HW1 2171   1.441   3.072   1.732
  717SOL    HW2 2172   1.546   3.075   1.607
  718SOL     OW 2173   0.390   3.603   1.560
  718SOL    HW1 2174   0.299   3.644   1.558
  718SOL    HW2 2175   0.383   3.509   1.592
  719SOL     OW 2176   1.674   2.745   1.254
  719SOL    HW1 2177   1.647   2.656   1.217
  719SOL    HW2 2178   1.675   2.813   1.181
  720SOL     OW 2179   1.225   2.187   0.449
  720SOL    HW1 2180   1.290   2.113   0.438
  720SOL    HW2 2181   1.245   2.237   0.533
  721SOL     OW 2182   0.594   2.607   0.652
  721SOL    HW1 2183   0.644   2.692   0.633
  721SOL    HW2 2184   0.506   2.609   0.604
  722SOL     OW 2185   1.777   2.204   1.642
  722SOL    HW1 2186   1.760   2.235   1.548
  722SOL    HW2 2187   1.693   2.167   1.680
  723SOL     OW 2188   1.730   2.796   1.517
  723SOL    HW1 2189   1.768   2.887   1.532
  723SOL    HW2 2190   1.722   2.779   1.418
  724SOL     OW 2191   0.859   3.236   0.016
  724SOL    HW1 2192   0.813   3.251   0.104
  724SOL    HW2 2193   0.903   3.321  -0.014
  725SOL     OW 2194   0.661   3.652   0.953
  725SOL    HW1 2195   0.615   3.740   0.940
  725SOL    HW2 2196   0.760   3.664   0.946
  726SOL     OW 2197   0.859   2.818   0.861
  726SOL    HW1 2198   0.913   2.749   0.909
  726SOL    HW2 2199   0.827   2.887   0.927
  727SOL     OW 2200   1.083   2.846   0.087
  727SOL    HW1 2201   1.060   2.899   0.005
  727SOL    HW2 2202   1.164   2.790   0.068
  728SOL     OW 2203   1.861   3.431   0.851
  728SOL    HW1 2204   1.790   3.419   0.781
  728SOL    HW2 2205   1.862   3.352   0.911
  729SOL     OW 2206   0.221   3.176   1.844
  729SOL    HW1 2207   0.156   3.103   1.823
  729SOL    HW2 2208   0.225   3.190   1.942
  730SOL     OW 2209   0.079   3.102   0.653
  730SOL    HW1 2210   0.078   3.055   0.741
  730SOL    HW2 2211   0.161   3.074   0.602
  731SOL     OW 2212   0.672   3.253   1.624
  731SOL    HW1 2213   0.594   3.203   1.662
  731SOL    HW2 2214   0.669   3.348   1.655
  732SOL     OW 2215   1.824   2.054   1.227
  732SOL    HW1 2216   1.820   1.964   1.271
  732SOL    HW2 2217   1.827   2.043   1.128
  733SOL     OW 2218   0.428   2.286   0.520
  733SOL    HW1 2219   0.458   2.214   0.458
  733SOL    HW2 2220   0.389   2.246   0.603
  734SOL     OW 2221   1.705   3.349   1.104
  734SOL    HW1 2222   1.612   3.324   1.077
  734SOL    HW2 2223   1.731   3.299   1.186
  735SOL     OW 2224   0.317   2.409   1.280
  735SOL    HW1 2225   0.355   2.350   1.352
  735SOL    HW2 2226   0.357   2.383   1.192
  736SOL     OW 2227   0.812   3.448   0.687
  736SOL    HW1 2228   0.844   3.458   0.593
  736SOL    HW2 2229   0.733   3.386   0.689
  737SOL     OW 2230   1.424   2.076   1.112
  737SOL    HW1 2231   1.476   2.011   1.167
  737SOL    HW2 2232   1.375   2.139   1.173
  738SOL     OW 2233   1.001   1.896   1.154
  738SOL    HW1 2234   0.938   1.824   1.123
  738SOL    HW2 2235   1.094   1.860   1.154
  739SOL     OW 2236   0.770   3.192   0.301
  739SOL    HW1 2237   0.724   3.105   0.318
  739SOL    HW2 2238   0.861   3.189   0.342
  740SOL     OW 2239   0.618   3.429   1.284
  740SOL    HW1 2240   0.613   3.511   1.341
  740SOL    HW2 2241   0.707   3.426   1.239
  741SOL     OW 2242   1.352   1.914   0.168
  741SOL    HW1 2243   1.387   1.873   0.084
  741SOL    HW2 2244   1.262   1.876   0.188
  742SOL     OW 2245   1.300   2.315   0.691
  742SOL    HW1 2246   1.241   2.395   0.695
  742SOL    HW2 2247   1.315   2.280   0.784
  743SOL     OW 2248   1.593   2.083   0.882
  743SOL    HW1 2249   1.509   2.082   0.936
  743SOL    HW2 2250   1.595   2.166   0.826
  744SOL     OW 2251   0.039   2.939   0.300
  744SOL    HW1 2252   0.138   2.928   0.291
  744SOL    HW2 2253  -0.001   2.853   0.332
  745SOL     OW 2254   0.875   3.508   0.337
  745SOL    HW1 2255   0.798   3.473   0.283
  745SOL    HW2 2256   0.843   3.579   0.399
  746SOL     OW 2257   0.230   2.490   1.975
  746SOL    HW1 2258   0.137   2.488   2.012
  746SOL    HW2 2259   0.231   2.451   1.883
  747SOL     OW 2260   0.225   2.137   2.858
  747SOL    HW1 2261   0.260   2.120   2.950
  747SOL    HW2 2262   0.137   2.092   2.846
  748SOL     OW 2263   0.019   2.230   2.509
  748SOL    HW1 2264  -0.063   2.273   2.548
  748SOL    HW2 2265  -0.009   2.157   2.446
  749SOL     OW 2266   0.569   3.137   3.027
  749SOL    HW1 2267   0.476   3.130   2.990
  749SOL    HW2 2268   0.580   3.226   3.071
  750SOL     OW 2269   1.555   3.373   2.565
  750SOL    HW1 2270   1.498   3.357   2.646
  750SOL    HW2 2271   1.496   3.383   2.485
  751SOL     OW 2272   1.135   2.565   2.579
  751SOL    HW1 2273   1.192   2.643   2.554
  751SOL    HW2 2274   1.075   2.591   2.655
  752SOL     OW 2275   1.755   2.469   2.093
  752SOL    HW1 2276   1.743   2.456   1.994
  752SOL    HW2 2277   1.725   2.388   2.142
  753SOL     OW 2278   0.768   3.006   2.885
  753SOL    HW1 2279   0.690   3.023   2.945
  753SOL    HW2 2280   0.802   3.093   2.849
  754SOL     OW 2281   0.850   2.660   3.685
  754SOL    HW1 2282   0.846   2.736   3.750
  754SOL    HW2 2283   0.872   2.696   3.594
  755SOL     OW 2284   0.685   2.874   2.527
  755SOL    HW1 2285   0.754   2.858   2.597
  755SOL    HW2 2286   0.612   2.931   2.565
  756SOL     OW 2287   0.686   3.023   3.665
  756SOL    HW1 2288   0.746   3.102   3.679
  756SOL    HW2 2289   0.600   3.054   3.624
  757SOL     OW 2290   0.335   3.297   2.923
  757SOL    HW1 2291   0.257   3.266   2.870
  757SOL    HW2 2292   0.393   3.355   2.866
  758SOL     OW 2293   1.460   3.367   3.201
  758SOL    HW1 2294   1.484   3.461   3.227
  758SOL    HW2 2295   1.444   3.313   3.283
  759SOL     OW 2296   0.438   2.254   3.361
  759SOL    HW1 2297   0.520   2.198   3.370
  759SOL    HW2 2298   0.357   2.196   3.365
  760SOL     OW 2299   1.603   2.309   2.599
  760SOL    HW1 2300   1.529   2.355   2.549
  760SOL    HW2 2301   1.654   2.377   2.652
  761SOL     OW 2302   0.231   3.575   2.345
  761SOL    HW1 2303   0.265   3.652   2.399
  761SOL    HW2 2304   0.275   3.575   2.255
  762SOL     OW 2305   1.127   3.203   3.552
  762SOL    HW1 2306   1.174   3.203   3.640
  762SOL    HW2 2307   1.079   3.116   3.541
  763SOL     OW 2308   0.230   3.296   2.400
  763SOL    HW1 2309   0.204   3.392   2.400
  763SOL    HW2 2310   0.159   3.242   2.445
  764SOL     OW 2311   0.240   2.953   2.748
  764SOL    HW1 2312   0.254   2.869   2.800
  764SOL    HW2 2313   0.185   3.017   2.803
  765SOL     OW 2314   0.620   3.648   3.301
  765SOL    HW1 2315   0.528   3.631   3.336
  765SOL    HW2 2316   0.648   3.740   3.327
  766SOL     OW 2317   0.606   2.826   1.985
  766SOL    HW1 2318   0.613   2.910   1.931
  766SOL    HW2 2319   0.652   2.839   2.073
  767SOL     OW 2320   1.594   1.976   3.342
  767SOL    HW1 2321   1.576   2.043   3.270
  767SOL    HW2 2322   1.591   2.022   3.431
  768SOL     OW 2323   0.122   2.505   2.425
  768SOL    HW1 2324   0.077   2.417   2.442
  768SOL    HW2 2325   0.121   2.559   2.509
  769SOL     OW 2326   1.842   3.629   2.221
  769SOL    HW1 2327   1.896   3.600   2.301
  769SOL    HW2 2328   1.872   3.719   2.192
  770SOL     OW 2329   0.027   3.458   1.979
  770SOL    HW1 2330   0.008   3.362   2.000
  770SOL    HW2 2331  -0.006   3.516   2.054
  771SOL     OW 2332   1.689   2.784   2.474
  771SOL    HW1 2333   1.784   2.755   2.482
  771SOL    HW2 2334   1.681   2.849   2.399
  772SOL     OW 2335   1.641   2.970   2.294
  772SOL    HW1 2336   1.727   2.972   2.242
  772SOL    HW2 2337   1.655   3.017   2.382
  773SOL     OW 2338   0.113   2.599   3.459
  773SOL    HW1 2339   0.201   2.586   3.504
  773SOL    HW2 2340   0.100   2.696   3.437
  774SOL     OW 2341   0.613   3.227   2.588
  774SOL    HW1 2342   0.564   3.140   2.597
  774SOL    HW2 2343   0.590   3.270   2.501
  775SOL     OW 2344   1.293   3.090   3.285
  775SOL    HW1 2345   1.330   3.017   3.227
  775SOL    HW2 2346   1.345   3.095   3.370
  776SOL     OW 2347   0.809   1.866   2.364
  776SOL    HW1 2348   0.849   1.957   2.355
  776SOL    HW2 2349   0.709   1.874   2.370
  777SOL     OW 2350   0.197   2.838   3.126
  777SOL    HW1 2351   0.286   2.793   3.112
  777SOL    HW2 2352   0.124   2.773   3.107
  778SOL     OW 2353   1.525   2.861   2.052
  778SOL    HW1 2354   1.462   2.785   2.065
  778SOL    HW2 2355   1.573   2.879   2.138
  779SOL     OW 2356   1.187   3.654   3.478
  779SOL    HW1 2357   1.211   3.714   3.402
  779SOL    HW2 2358   1.194   3.559   3.448
  780SOL     OW 2359   0.317   2.113   3.663
  780SOL    HW1 2360   0.388   2.184   3.669
  780SOL    HW2 2361   0.229   2.152   3.691
  781SOL     OW 2362   1.466   3.279   2.815
  781SOL    HW1 2363   1.407   3.285   2.895
  781SOL    HW2 2364   1.451   3.191   2.769
  782SOL     OW 2365   1.667   3.576   2.434
  782SOL    HW1 2366   1.626   3.553   2.346
  782SOL    HW2 2367   1.649   3.502   2.499
  783SOL     OW 2368   0.598   2.591   2.132
  783SOL    HW1 2369   0.622   2.660   2.064
  783SOL    HW2 2370   0.520   2.624   2.186
  784SOL     OW 2371   1.281   2.207   2.806
  784SOL    HW1 2372   1.195   2.157   2.793
  784SOL    HW2 2373   1.343   2.153   2.862
  785SOL     OW 2374   1.576   3.524   2.169
  785SOL    HW1 2375   1.665   3.570   2.172
  785SOL    HW2 2376   1.555   3.500   2.074
  786SOL     OW 2377   0.807   2.467   3.327
  786SOL    HW1 2378   0.760   2.464   3.416
  786SOL    HW2 2379   0.756   2.412   3.261
  787SOL     OW 2380   1.394   2.331   3.536
  787SOL    HW1 2381   1.374   2.374   3.624
  787SOL    HW2 2382   1.472   2.269   3.545
  788SOL     OW 2383   0.973   2.752   3.434
  788SOL    HW1 2384   1.019   2.668   3.405
  788SOL    HW2 2385   0.917   2.786   3.359
  789SOL     OW 2386   0.991   2.272   3.104
  789SOL    HW1 2387   0.914   2.306   3.158
  789SOL    HW2 2388   0.957   2.221   3.025
  790SOL     OW 2389   1.041   2.563   2.291
  790SOL    HW1 2390   1.067   2.559   2.387
  790SOL    HW2 2391   0.956   2.512   2.277
  791SOL     OW 2392   0.076   2.673   2.651
  791SOL    HW1 2393   0.175   2.661   2.660
  791SOL    HW2 2394   0.052   2.768   2.672
  792SOL     OW 2395   0.130   3.683   3.433
  792SOL    HW1 2396   0.120   3.668   3.532
  792SOL    HW2 2397   0.044   3.719   3.397
  793SOL     OW 2398   0.865   2.210   2.057
  793SOL    HW1 2399   0.924   2.273   2.008
  793SOL    HW2 2400   0.884   2.116   2.028
  794SOL     OW 2401   1.719   2.447   3.693
  794SOL    HW1 2402   1.693   2.536   3.657
  794SOL    HW2 2403   1.717   2.379   3.620
  795SOL     OW 2404   1.362   3.006   2.407
  795SOL    HW1 2405   1.445   2.977   2.359
  795SOL    HW2 2406   1.313   3.073   2.351
  796SOL     OW 2407   0.550   2.058   2.747
  796SOL    HW1 2408   0.545   2.053   2.847
  796SOL    HW2 2409   0.552   2.154   2.718
  797SOL     OW 2410   1.008   3.318   2.339
  797SOL    HW1 2411   0.962   3.390   2.287
  797SOL    HW2 2412   1.004   3.338   2.437
  798SOL     OW 2413   0.351   3.663   2.715
  798SOL    HW1 2414   0.401   3.577   2.721
  798SOL    HW2 2415   0.416   3.740   2.712
  799SOL     OW 2416   1.795   2.928   2.735
  799SOL    HW1 2417   1.733   2.913   2.659
  799SOL    HW2 2418   1.743   2.939   2.820
  800SOL     OW 2419   1.227   3.412   3.368
  800SOL    HW1 2420   1.233   3.335   3.432
  800SOL    HW2 2421   1.175   3.386   3.288
  801SOL     OW 2422   0.321   2.805   2.104
  801SOL    HW1 2423   0.403   2.844   2.062
  801SOL    HW2 2424   0.294   2.723   2.055
  802SOL     OW 2425   1.458   2.597   2.590
  802SOL    HW1 2426   1.453   2.532   2.665
  802SOL    HW2 2427   1.538   2.656   2.603
  803SOL     OW 2428   0.461   3.128   3.589
  803SOL    HW1 2429   0.411   3.129   3.503
  803SOL    HW2 2430   0.398   3.110   3.665
  804SOL     OW 2431   1.111   3.638   2.099
  804SOL    HW1 2432   1.051   3.576   2.149
  804SOL    HW2 2433   1.142   3.594   2.014
  805SOL     OW 2434   0.202   2.147   3.360
  805SOL    HW1 2435   0.122   2.207   3.347
  805SOL    HW2 2436   0.192   2.098   3.446
  806SOL     OW 2437   1.632   3.239   1.943
  806SOL    HW1 2438   1.600   3.333   1.933
  806SOL    HW2 2439   1.556   3.176   1.931
  807SOL     OW 2440   0.464   3.605   2.185
  807SOL    HW1 2441   0.497   3.644   2.271
  807SOL    HW2 2442   0.540   3.598   2.120
  808SOL     OW 2443   1.400   1.969   2.288
  808SOL    HW1 2444   1.376   1.932   2.198
  808SOL    HW2 2445   1.499   1.985   2.292
  809SOL     OW 2446   0.249   3.647   3.103
  809SOL    HW1 2447   0.306   3.582   3.153
  809SOL    HW2 2448   0.233   3.614   3.010
  810SOL     OW 2449   0.940   3.560   2.766
  810SOL    HW1 2450   1.020   3.503   2.787
  810SOL    HW2 2451   0.891   3.520   2.689
  811SOL     OW 2452   0.382   2.562   2.342
  811SOL    HW1 2453   0.427   2.472   2.339
  811SOL    HW2 2454   0.288   2.551   2.375
  812SOL     OW 2455   1.547   2.084   3.591
  812SOL    HW1 2456   1.542   2.121   3.683
  812SOL    HW2 2457   1.475   2.015   3.579
  813SOL     OW 2458   0.614   1.984   1.979
  813SOL    HW1 2459   0.712   1.962   1.986
  813SOL    HW2 2460   0.583   1.967   1.886
  814SOL     OW 2461   0.781   2.126   3.611
  814SOL    HW1 2462   0.848   2.065   3.654
  814SOL    HW2 2463   0.708   2.145   3.676
  815SOL     OW 2464   0.888   3.376   3.057
  815SOL    HW1 2465   0.865   3.351   2.963
  815SOL    HW2 2466   0.949   3.307   3.096
  816SOL     OW 2467   1.351   2.452   3.295
  816SOL    HW1 2468   1.379   2.409   3.380
  816SOL    HW2 2469   1.376   2.548   3.296
  817SOL     OW 2470   0.803   3.264   2.786
  817SOL    HW1 2471   0.893   3.278   2.744
  817SOL    HW2 2472   0.732   3.266   2.715
  818SOL     OW 2473   0.922   2.365   2.761
  818SOL    HW1 2474   0.897   2.356   2.665
  818SOL    HW2 2475   0.970   2.283   2.792
  819SOL     OW 2476   0.539   1.926   2.374
  819SOL    HW1 2477   0.458   1.927   2.432
  819SOL    HW2 2478   0.542   2.009   2.319
  820SOL     OW 2479   1.434   3.050   1.903
  820SOL    HW1 2480   1.466   2.974   1.960
  820SOL    HW2 2481   1.342   3.077   1.933
  821SOL     OW 2482   0.297   1.897   2.033
  821SOL    HW1 2483   0.346   1.981   2.012
  821SOL    HW2 2484   0.359   1.832   2.078
  822SOL     OW 2485   0.935   2.098   2.342
  822SOL    HW1 2486   0.887   2.139   2.264
  822SOL    HW2 2487   1.034   2.096   2.323
  823SOL     OW 2488   1.076   2.545   3.326
  823SOL    HW1 2489   0.996   2.484   3.329
  823SOL    HW2 2490   1.157   2.492   3.302
  824SOL     OW 2491   1.227   3.432   2.655
  824SOL    HW1 2492   1.248   3.506   2.590
  824SOL    HW2 2493   1.295   3.432   2.728
  825SOL     OW 2494   0.459   3.014   2.603
  825SOL    HW1 2495   0.388   2.987   2.668
  825SOL    HW2 2496   0.433   2.986   2.510
  826SOL     OW 2497   1.271   3.659   2.453
  826SOL    HW1 2498   1.315   3.723   2.389
  826SOL    HW2 2499   1.221   3.711   2.523
  827SOL     OW 2500   1.032   2.411   1.878
  827SOL    HW1 2501   0.991   2.493   1.839
  827SOL    HW2 2502   1.096   2.437   1.951
  828SOL     OW 2503   0.078   2.418   3.248
  828SOL    HW1 2504   0.170   2.417   3.207
  828SOL    HW2 2505   0.072   2.492   3.315
  829SOL     OW 2506   0.561   2.084   3.009
  829SOL    HW1 2507   0.599   2.000   3.046
  829SOL    HW2 2508   0.473   2.103   3.053
  830SOL     OW 2509   0.866   2.316   2.504
  830SOL    HW1 2510   0.834   2.388   2.442
  830SOL    HW2 2511   0.890   2.235   2.451
  831SOL     OW 2512   1.017   1.901   2.615
  831SOL    HW1 2513   0.945   1.906   2.546
  831SOL    HW2 2514   0.993   1.832   2.684
  832SOL     OW 2515   1.429   3.035   2.729
  832SOL    HW1 2516   1.374   2.951   2.722
  832SOL    HW2 2517   1.455   3.064   2.637
  833SOL     OW 2518   1.466   2.452   2.854
  833SOL    HW1 2519   1.436   2.357   2.861
  833SOL    HW2 2520   1.539   2.468   2.920
  834SOL     OW 2521   1.857   2.695   2.239
  834SOL    HW1 2522   1.899   2.631   2.303
  834SOL    HW2 2523   1.819   2.644   2.161
  835SOL     OW 2524   0.488   3.247   2.036
  835SOL    HW1 2525   0.401   3.232   2.083
  835SOL    HW2 2526   0.471   3.273   1.941
  836SOL     OW 2527   1.664   3.142   2.519
  836SOL    HW1 2528   1.763   3.150   2.533
  836SOL    HW2 2529   1.619   3.226   2.550
  837SOL     OW 2530   1.390   2.437   1.940
  837SOL    HW1 2531   1.336   2.416   2.021
  837SOL    HW2 2532   1.481   2.396   1.949
  838SOL     OW 2533   0.527   2.118   2.190
  838SOL    HW1 2534   0.554   2.059   2.115
  838SOL    HW2 2535   0.527   2.213   2.159
  839SOL     OW 2536   1.754   3.085   3.450
  839SOL    HW1 2537   1.845   3.046   3.437
  839SOL    HW2 2538   1.762   3.181   3.474
  840SOL     OW 2539   1.064   3.209   3.202
  840SOL    HW1 2540   0.984   3.186   3.257
  840SOL    HW2 2541   1.147   3.183   3.251
  841SOL     OW 2542   1.592   3.491   3.487
  841SOL    HW1 2543   1.619   3.525   3.397
  841SOL    HW2 2544   1.671   3.453   3.533
  842SOL     OW 2545   1.111   3.057   2.962
  842SOL    HW1 2546   1.071   3.101   3.043
  842SOL    HW2 2547   1.070   3.094   2.879
  843SOL     OW 2548   1.638   2.961   2.941
  843SOL    HW1 2549   1.643   3.042   3.000
  843SOL    HW2 2550   1.552   2.963   2.890
  844SOL     OW 2551   0.915   1.951   3.264
  844SOL    HW1 2552   0.940   1.931   3.169
  844SOL    HW2 2553   0.987   2.007   3.306
  845SOL     OW 2554   0.980   2.978   3.581
  845SOL    HW1 2555   0.881   2.984   3.591
  845SOL    HW2 2556   1.003   2.898   3.525
  846SOL     OW 2557   0.705   2.912   2.230
  846SOL    HW1 2558   0.691   2.919   2.329
  846SOL    HW2 2559   0.789   2.861   2.212
  847SOL     OW 2560   0.410   2.675   3.113
  847SOL    HW1 2561   0.496   2.687   3.163
  847SOL    HW2 2562   0.368   2.588   3.140
  848SOL     OW 2563   1.274   2.248   3.124
  848SOL    HW1 2564   1.295   2.322   3.188
  848SOL    HW2 2565   1.185   2.265   3.081
  849SOL     OW 2566   0.064   3.426   3.193
  849SOL    HW1 2567   0.018   3.508   3.159
  849SOL    HW2 2568   0.162   3.445   3.202
  850SOL     OW 2569   0.367   2.962   2.363
  850SOL    HW1 2570   0.360   3.045   2.307
  850SOL    HW2 2571   0.371   2.882   2.303
  851SOL     OW 2572   0.566   2.399   2.727
  851SOL    HW1 2573   0.578   2.465   2.653
  851SOL    HW2 2574   0.612   2.433   2.810
  852SOL     OW 2575   1.252   3.210   2.250
  852SOL    HW1 2576   1.302   3.287   2.290
  852SOL    HW2 2577   1.157   3.212   2.282
  853SOL     OW 2578   1.272   3.307   3.004
  853SOL    HW1 2579   1.319   3.320   3.091
  853SOL    HW2 2580   1.206   3.233   3.013
  854SOL     OW 2581   1.582   2.501   2.334
  854SOL    HW1 2582   1.551   2.562   2.407
  854SOL    HW2 2583   1.632   2.553   2.265
  855SOL     OW 2584   0.354   3.372   3.191
  855SOL    HW1 2585   0.333   3.328   3.104
  855SOL    HW2 2586   0.451   3.398   3.194
  856SOL     OW 2587   0.402   2.613   3.460
  856SOL    HW1 2588   0.470   2.668   3.413
  856SOL    HW2 2589   0.442   2.525   3.487
  857SOL     OW 2590   1.587   2.641   3.532
  857SOL    HW1 2591   1.495   2.679   3.527
  857SOL    HW2 2592   1.647   2.688   3.467
  858SOL     OW 2593   1.013   1.967   3.632
  858SOL    HW1 2594   1.019   2.052   3.580
  858SOL    HW2 2595   1.045   1.891   3.575
  859SOL     OW 2596   0.504   1.912   3.602
  859SOL    HW1 2597   0.462   1.855   3.532
  859SOL    HW2 2598   0.438   1.981   3.634
  860SOL     OW 2599   0.573   2.732   2.891
  860SOL    HW1 2600   0.617   2.821   2.882
  860SOL    HW2 2601   0.510   2.732   2.968
  861SOL     OW 2602   1.360   2.724   2.907
  861SOL    HW1 2603   1.285   2.724   2.841
  861SOL    HW2 2604   1.397   2.632   2.916
  862SOL     OW 2605   1.209   2.387   2.137
  862SOL    HW1 2606   1.222   2.303   2.191
  862SOL    HW2 2607   1.180   2.461   2.197
  863SOL     OW 2608   0.307   2.075   3.093
  863SOL    HW1 2609   0.284   2.112   3.183
  863SOL    HW2 2610   0.277   1.980   3.087
  864SOL     OW 2611   0.037   3.172   3.144
  864SOL    HW1 2612   0.090   3.123   3.212
  864SOL    HW2 2613   0.059   3.270   3.149
  865SOL     OW 2614   0.732   2.496   2.926
  865SOL    HW1 2615   0.791   2.470   2.850
  865SOL    HW2 2616   0.704   2.592   2.915
  866SOL     OW 2617   1.728   2.797   3.716
  866SOL    HW1 2618   1.682   2.790   3.627
  866SOL    HW2 2619   1.666   2.841   3.782
  867SOL     OW 2620   0.307   1.925   2.480
  867SOL    HW1 2621   0.296   2.019   2.513
  867SOL    HW2 2622   0.302   1.862   2.557
  868SOL     OW 2623   1.622   2.229   2.236
  868SOL    HW1 2624   1.624   2.153   2.300
  868SOL    HW2 2625   1.574   2.306   2.276
  869SOL     OW 2626   1.023   2.628   2.828
  869SOL    HW1 2627   1.038   2.649   2.924
  869SOL    HW2 2628   0.993   2.533   2.819
  870SOL     OW 2629   0.980   3.435   3.562
  870SOL    HW1 2630   0.960   3.479   3.474
  870SOL    HW2 2631   1.019   3.344   3.546
  871SOL     OW 2632   1.859   3.380   3.467
  871SOL    HW1 2633   1.873   3.407   3.372
  871SOL    HW2 2634   1.942   3.402   3.520
  872SOL     OW 2635   0.350   2.760   3.666
  872SOL    HW1 2636   0.426   2.804   3.714
  872SOL    HW2 2637   0.385   2.713   3.584
  873SOL     OW 2638   1.540   2.136   1.987
  873SOL    HW1 2639   1.479   2.061   2.010
  873SOL    HW2 2640   1.562   2.188   2.070
  874SOL     OW 2641   1.303   2.700   1.904
  874SOL    HW1 2642   1.337   2.607   1.919
  874SOL    HW2 2643   1.321   2.727   1.809
  875SOL     OW 2644   1.068   3.195   2.711
  875SOL    HW1 2645   1.075   3.111   2.656
  875SOL    HW2 2646   1.130   3.264   2.675
  876SOL     OW 2647   0.319   2.672   2.811
  876SOL    HW1 2648   0.412   2.708   2.816
  876SOL    HW2 2649   0.313   2.587   2.863
  877SOL     OW 2650   0.339   2.371   2.868
  877SOL    HW1 2651   0.287   2.288   2.851
  877SOL    HW2 2652   0.416   2.376   2.804
  878SOL     OW 2653   1.138   2.242   3.540
  878SOL    HW1 2654   1.093   2.305   3.604
  878SOL    HW2 2655   1.231   2.273   3.523
  879SOL     OW 2656   1.160   2.069   3.339
  879SOL    HW1 2657   1.160   2.133   3.416
  879SOL    HW2 2658   1.188   2.117   3.256
  880SOL     OW 2659   0.008   3.188   2.062
  880SOL    HW1 2660  -0.085   3.209   2.031
  880SOL    HW2 2661   0.018   3.089   2.075
  881SOL     OW 2662   0.088   3.663   2.789
  881SOL    HW1 2663   0.046   3.577   2.762
  881SOL    HW2 2664   0.182   3.666   2.755
  882SOL     OW 2665   0.504   3.430   2.772
  882SOL    HW1 2666   0.570   3.504   2.781
  882SOL    HW2 2667   0.548   3.351   2.730
  883SOL     OW 2668   1.002   2.658   3.100
  883SOL    HW1 2669   1.043   2.626   3.186
  883SOL    HW2 2670   0.906   2.631   3.097
  884SOL     OW 2671   0.040   2.406   2.976
  884SOL    HW1 2672   0.125   2.373   2.935
  884SOL    HW2 2673   0.053   2.421   3.074
  885SOL     OW 2674   0.189   2.382   3.584
  885SOL    HW1 2675   0.248   2.342   3.514
  885SOL    HW2 2676   0.131   2.453   3.543
  886SOL     OW 2677   1.369   2.812   3.522
  886SOL    HW1 2678   1.408   2.901   3.542
  886SOL    HW2 2679   1.379   2.792   3.425
  887SOL     OW 2680   0.815   2.434   2.187
  887SOL    HW1 2681   0.822   2.345   2.141
  887SOL    HW2 2682   0.721   2.468   2.179
  888SOL     OW 2683   1.657   2.466   3.068
  888SOL    HW1 2684   1.619   2.397   3.130
  888SOL    HW2 2685   1.739   2.430   3.024
  889SOL     OW 2686   0.252   3.426   3.606
  889SOL    HW1 2687   0.222   3.483   3.682
  889SOL    HW2 2688   0.245   3.329   3.632
  890SOL     OW 2689   0.671   2.326   3.131
  890SOL    HW1 2690   0.637   2.237   3.101
  890SOL    HW2 2691   0.697   2.380   3.051
  891SOL     OW 2692   0.930   3.540   3.327
  891SOL    HW1 2693   0.906   3.522   3.232
  891SOL    HW2 2694   0.960   3.634   3.337
  892SOL     OW 2695   0.473   2.362   2.053
  892SOL    HW1 2696   0.534   2.442   2.057
  892SOL    HW2 2697   0.378   2.393   2.060
  893SOL     OW 2698   0.159   2.999   3.328
  893SOL    HW1 2699   0.181   2.938   3.404
  893SOL    HW2 2700   0.169   2.950   3.242
  894SOL     OW 2701   1.347   2.921   3.096
  894SOL    HW1 2702   1.371   2.858   3.022
  894SOL    HW2 2703   1.257   2.961   3.078
  895SOL     OW 2704   1.302   2.717   2.171
  895SOL    HW1 2705   1.216   2.686   2.213
  895SOL    HW2 2706   1.298   2.703   2.072
  896SOL     OW 2707   1.759   3.609   3.016
  896SOL    HW1 2708   1.820   3.639   2.943
  896SOL    HW2 2709   1.721   3.520   2.994
  897SOL     OW 2710   1.252   3.593   2.990
  897SOL    HW1 2711   1.336   3.598   2.936
  897SOL    HW2 2712   1.229   3.497   3.008
  898SOL     OW 2713   0.083   3.120   2.884
  898SOL    HW1 2714   0.078   3.119   2.984
  898SOL    HW2 2715   0.000   3.079   2.846
  899SOL     OW 2716   0.688   3.524   3.578
  899SOL    HW1 2717   0.632   3.605   3.587
  899SOL    HW2 2718   0.740   3.528   3.492
  900SOL     OW 2719   1.726   1.997   2.385
  900SOL    HW1 2720   1.799   1.980   2.318
  900SOL    HW2 2721   1.695   1.910   2.423
  901SOL     OW 2722   1.388   3.435   2.339
  901SOL    HW1 2723   1.455   3.447   2.265
  901SOL    HW2 2724   1.348   3.524   2.362
  902SOL     OW 2725   0.130   3.656   3.713
  902SOL    HW1 2726   0.089   3.582   3.766
  902SOL    HW2 2727   0.194   3.707   3.771
  903SOL     OW 2728   1.280   2.789   2.534
  903SOL    HW1 2729   1.340   2.708   2.536
  903SOL    HW2 2730   1.320   2.858   2.474
  904SOL     OW 2731   0.830   3.135   3.284
  904SOL    HW1 2732   0.825   3.168   3.379
  904SOL    HW2 2733   0.744   3.154   3.238
  905SOL     OW 2734   0.672   3.478   2.016
  905SOL    HW1 2735   0.681   3.488   1.917
  905SOL    HW2 2736   0.632   3.389   2.037
  906SOL     OW 2737   1.650   3.582   3.256
  906SOL    HW1 2738   1.703   3.592   3.172
  906SOL    HW2 2739   1.623   3.672   3.290
  907SOL     OW 2740   1.841   2.037   2.825
  907SOL    HW1 2741   1.880   1.952   2.789
  907SOL    HW2 2742   1.743   2.039   2.806
  908SOL     OW 2743   0.263   2.188   2.582
  908SOL    HW1 2744   0.184   2.239   2.548
  908SOL    HW2 2745   0.254   2.173   2.680
  909SOL     OW 2746   1.194   3.474   1.893
  909SOL    HW1 2747   1.200   3.381   1.930
  909SOL    HW2 2748   1.135   3.474   1.813
  910SOL     OW 2749   0.822   2.864   3.234
  910SOL    HW1 2750   0.862   2.863   3.142
  910SOL    HW2 2751   0.832   2.956   3.274
  911SOL     OW 2752   0.916   2.772   2.153
  911SOL    HW1 2753   0.979   2.810   2.085
  911SOL    HW2 2754   0.956   2.689   2.192
  912SOL     OW 2755   1.504   3.469   1.906
  912SOL    HW1 2756   1.412   3.506   1.913
  912SOL    HW2 2757   1.542   3.489   1.816
  913SOL     OW 2758   0.372   3.150   3.352
  913SOL    HW1 2759   0.359   3.243   3.318
  913SOL    HW2 2760   0.288   3.098   3.339
  914SOL     OW 2761   1.614   3.154   3.151
  914SOL    HW1 2762   1.674   3.157   3.231
  914SOL    HW2 2763   1.539   3.218   3.164
  915SOL     OW 2764   1.039   2.960   2.558
  915SOL    HW1 2765   0.969   2.913   2.612
  915SOL    HW2 2766   1.098   2.892   2.515
  916SOL     OW 2767   1.014   2.098   2.833
  916SOL    HW1 2768   1.006   2.062   2.740
  916SOL    HW2 2769   1.012   2.022   2.898
  917SOL     OW 2770   0.590   3.349   2.353
  917SOL    HW1 2771   0.632   3.291   2.283
  917SOL    HW2 2772   0.546   3.428   2.309
  918SOL     OW 2773   1.709   2.247   3.243
  918SOL    HW1 2774   1.782   2.316   3.247
  918SOL    HW2 2775   1.737   2.172   3.184
  919SOL     OW 2776   0.255   3.210   2.152
  919SOL    HW1 2777   0.159   3.211   2.125
  919SOL    HW2 2778   0.267   3.263   2.236
  920SOL     OW 2779   0.105   2.875   3.588
  920SOL    HW1 2780   0.028   2.842   3.642
  920SOL    HW2 2781   0.190   2.845   3.630
  921SOL     OW 2782   0.672   2.065   3.351
  921SOL    HW1 2783   0.762   2.049   3.311
  921SOL    HW2 2784   0.680   2.070   3.450
  922SOL     OW 2785   0.075   2.207   1.895
  922SOL    HW1 2786  -0.017   2.179   1.866
  922SOL    HW2 2787   0.106   2.284   1.839
  923SOL     OW 2788   1.440   2.718   3.260
  923SOL    HW1 2789   1.383   2.770   3.197
  923SOL    HW2 2790   1.536   2.730   3.236
  924SOL     OW 2791   0.072   2.028   2.180
  924SOL    HW1 2792   0.055   2.111   2.126
  924SOL    HW2 2793   0.162   1.991   2.158
  925SOL     OW 2794   1.183   3.197   1.981
  925SOL    HW1 2795   1.084   3.186   1.983
  925SOL    HW2 2796   1.217   3.212   2.074
  926SOL     OW 2797   0.613   2.704   3.293
  926SOL    HW1 2798   0.669   2.785   3.276
  926SOL    HW2 2799   0.672   2.624   3.296
  927SOL     OW 2800   1.493   3.629   2.821
  927SOL    HW1 2801   1.526   3.693   2.752
  927SOL    HW2 2802   1.559   3.623   2.896
  928SOL     OW 2803   0.716   2.427   3.570
  928SOL    HW1 2804   0.735   2.492   3.644
  928SOL    HW2 2805   0.776   2.347   3.579
  929SOL     OW 2806   1.450   3.082   3.495
  929SOL    HW1 2807   1.441   3.072   3.594
  929SOL    HW2 2808   1.546   3.075   3.469
  930SOL     OW 2809   0.390   3.603   3.422
  930SOL    HW1 2810   0.299   3.644   3.420
  930SOL    HW2 2811   0.383   3.509   3.454
  931SOL     OW 2812   1.674   2.745   3.116
  931SOL    HW1 2813   1.647   2.656   3.079
  931SOL    HW2 2814   1.675   2.813   3.043
  932SOL     OW 2815   1.225   2.187   2.311
  932SOL    HW1 2816   1.290   2.113   2.300
  932SOL    HW2 2817   1.245   2.237   2.395
  933SOL     OW 2818   0.594   2.607   2.514
  933SOL    HW1 2819   0.644   2.692   2.495
  933SOL    HW2 2820   0.506   2.609   2.466
  934SOL     OW 2821   1.777   2.204   3.504
  934SOL    HW1 2822   1.760   2.235   3.410
  934SOL    HW2 2823   1.693   2.167   3.542
  935SOL     OW 2824   1.730   2.796   3.379
  935SOL    HW1 2825   1.768   2.887   3.394
  935SOL    HW2 2826   1.722   2.779   3.280
  936SOL     OW 2827   0.859   3.236   1.878
  936SOL    HW1 2828   0.813   3.251   1.966
  936SOL    HW2 2829   0.903   3.321   1.848
  937SOL     OW 2830   0.661   3.652   2.815
  937SOL    HW1 2831   0.615   3.740   2.802
  937SOL    HW2 2832   0.760   3.664   2.808
  938SOL     OW 2833   0.859   2.818   2.723
  938SOL    HW1 2834   0.913   2.749   2.771
  938SOL    HW2 2835   0.827   2.887   2.789
  939SOL     OW 2836   1.083   2.846   1.949
  939SOL    HW1 2837   1.060   2.899   1.867
  939SOL    HW2 2838   1.164   2.790   1.930
  940SOL     OW 2839   1.861   3.431   2.713
  940SOL    HW1 2840   1.790   3.419   2.643
  940SOL    HW2 2841   1.862   3.352   2.773
  941SOL     OW 2842   0.221   3.176   3.706
  941SOL    HW1 2843   0.156   3.103   3.685
  941SOL    HW2 2844   0.225   3.190   3.804
  942SOL     OW 2845   0.079   3.102   2.515
  942SOL    HW1 2846   0.078   3.055   2.603
  942SOL    HW2 2847   0.161   3.074   2.464
  943SOL     OW 2848   0.672   3.253   3.486
  943SOL    HW1 2849   0.594   3.203   3.524
  943SOL    HW2 2850   0.669   3.348   3.517
  944SOL     OW 2851   1.824   2.054   3.089
  944SOL    HW1 2852   1.820   1.964   3.133
  944SOL    HW2 2853   1.827   2.043   2.990
  945SOL     OW 2854   0.428   2.286   2.382
  945SOL    HW1 2855   0.458   2.214   2.320
  945SOL    HW2 2856   0.389   2.246   2.465
  946SOL     OW 2857   1.705   3.349   2.966
  946SOL    HW1 2858   1.612   3.324   2.939
  946SOL    HW2 2859   1.731   3.299   3.048
  947SOL     OW 2860   0.317   2.409   3.142
  947SOL    HW1 2861   0.355   2.350   3.214
  947SOL    HW2 2862   0.357   2.383   3.054
  948SOL     OW 2863   0.812   3.448   2.549
  948SOL    HW1 2864   0.844   3.458   2.455
  948SOL    HW2 2865   0.733   3.386   2.551
  949SOL     OW 2866   1.424   2.076   2.974
  949SOL    HW1 2867   1.476   2.011   3.029
  949SOL    HW2 2868   1.375   2.139   3.035
  950SOL     OW 2869   1.001   1.896   3.016
  950SOL    HW1 2870   0.938   1.824   2.985
  950SOL    HW2 2871   1.094   1.860   3.016
  951SOL     OW 2872   0.770   3.192   2.163
  951SOL    HW1 2873   0.724   3.105   2.180
  951SOL    HW2 2874   0.861   3.189   2.204
  952SOL     OW 2875   0.618   3.429   3.146
  952SOL    HW1 2876   0.613   3.511   3.203
  952SOL    HW2 2877   0.707   3.426   3.101
  953SOL     OW 2878   1.352   1.914   2.030
  953SOL    HW1 2879   1.387   1.873   1.946
  953SOL    HW2 2880   1.262   1.876   2.050
  954SOL     OW 2881   1.300   2.315   2.553
  954SOL    HW1 2882   1.241   2.395   2.557
  954SOL    HW2 2883   1.315   2.280   2.646
  955SOL     OW 2884   1.593   2.083   2.744
  955SOL    HW1 2885   1.509   2.082   2.798
  955SOL    HW2 2886   1.595   2.166   2.688
  956SOL     OW 2887   0.039   2.939   2.162
  956SOL    HW1 2888   0.138   2.928   2.153
  956SOL    HW2 2889  -0.001   2.853   2.194
  957SOL     OW 2890   0.875   3.508   2.199
  957SOL    HW1 2891   0.798   3.473   2.145
  957SOL    HW2 2892   0.843   3.579   2.261
  958SOL     OW 2893   0.230   2.490   3.837
  958SOL    HW1 2894   0.137   2.488   3.874
  958SOL    HW2 2895   0.231   2.451   3.745
  959SOL     OW 2896   0.019   2.230   4.371
  959SOL    HW1 2897  -0.063   2.273   4.410
  959SOL    HW2 2898  -0.009   2.157   4.308
  960SOL     OW 2899   1.555   3.373   4.427
  960SOL    HW1 2900   1.498   3.357   4.508
  960SOL    HW2 2901   1.496   3.383   4.347
  961SOL     OW 2902   1.135   2.565   4.441
  961SOL    HW1 2903   1.192   2.643   4.416
  961SOL    HW2 2904   1.075   2.591   4.517
  962SOL     OW 2905   1.755   2.469   3.955
  962SOL    HW1 2906   1.743   2.456   3.856
  962SOL    HW2 2907   1.725   2.388   4.004
  963SOL     OW 2908   0.685   2.874   4.389
  963SOL    HW1 2909   0.754   2.858   4.459
  963SOL    HW2 2910   0.612   2.931   4.427
  964SOL     OW 2911   1.603   2.309   4.461
  964SOL    HW1 2912   1.529   2.355   4.411
  964SOL    HW2 2913   1.654   2.377   4.514
  965SOL     OW 2914   0.231   3.575   4.207
  965SOL    HW1 2915   0.265   3.652   4.261
  965SOL    HW2 2916   0.275   3.575   4.117
  966SOL     OW 2917   0.230   3.296   4.262
  966SOL    HW1 2918   0.204   3.392   4.262
  966SOL    HW2 2919   0.159   3.242   4.307
  967SOL     OW 2920   0.240   2.953   4.610
  967SOL    HW1 2921   0.254   2.869   4.662
  967SOL    HW2 2922   0.185   3.017   4.665
  968SOL     OW 2923   0.606   2.826   3.847
  968SOL    HW1 2924   0.613   2.910   3.793
  968SOL    HW2 2925   0.652   2.839   3.935
  969SOL     OW 2926   0.122   2.505   4.287
  969SOL    HW1 2927   0.077   2.417   4.304
  969SOL    HW2 2928   0.121   2.559   4.371
  970SOL     OW 2929   1.842   3.629   4.083
  970SOL    HW1 2930   1.896   3.600   4.163
  970SOL    HW2 2931   1.872   3.719   4.054
  971SOL     OW 2932   0.027   3.458   3.841
  971SOL    HW1 2933   0.008   3.362   3.862
  971SOL    HW2 2934  -0.006   3.516   3.916
  972SOL     OW 2935   1.689   2.784   4.336
  972SOL    HW1 2936   1.784   2.755   4.344
  972SOL    HW2 2937   1.681   2.849   4.261
  973SOL     OW 2938   1.641   2.970   4.156
  973SOL    HW1 2939   1.727   2.972   4.104
  973SOL    HW2 2940   1.655   3.017   4.244
  974SOL     OW 2941   0.613   3.227   4.450
  974SOL    HW1 2942   0.564   3.140   4.459
  974SOL    HW2 2943   0.590   3.270   4.363
  975SOL     OW 2944   0.809   1.866   4.226
  975SOL    HW1 2945   0.849   1.957   4.217
  975SOL    HW2 2946   0.709   1.874   4.232
  976SOL     OW 2947   1.525   2.861   3.914
  976SOL    HW1 2948   1.462   2.785   3.927
  976SOL    HW2 2949   1.573   2.879   4.000
  977SOL     OW 2950   1.466   3.279   4.677
  977SOL    HW1 2951   1.407   3.285   4.757
  977SOL    HW2 2952   1.451   3.191   4.631
  978SOL     OW 2953   1.667   3.576   4.296
  978SOL    HW1 2954   1.626   3.553   4.208
  978SOL    HW2 2955   1.649   3.502   4.361
  979SOL     OW 2956   0.598   2.591   3.994
  979SOL    HW1 2957   0.622   2.660   3.926
  979SOL    HW2 2958   0.520   2.624   4.048
  980SOL     OW 2959   1.281   2.207   4.668
  980SOL    HW1 2960   1.195   2.157   4.655
  980SOL    HW2 2961   1.343   2.153   4.724
  981SOL     OW 2962   1.576   3.524   4.031
  981SOL    HW1 2963   1.665   3.570   4.034
  981SOL    HW2 2964   1.555   3.500   3.936
  982SOL     OW 2965   1.041   2.563   4.153
  982SOL    HW1 2966   1.067   2.559   4.249
  982SOL    HW2 2967   0.956   2.512   4.139
  983SOL     OW 2968   0.076   2.673   4.513
  983SOL    HW1 2969   0.175   2.661   4.522
  983SOL    HW2 2970   0.052   2.768   4.534
  984SOL     OW 2971   0.865   2.210   3.919
  984SOL    HW1 2972   0.924   2.273   3.870
  984SOL    HW2 2973   0.884   2.116   3.890
  985SOL     OW 2974   1.362   3.006   4.269
  985SOL    HW1 2975   1.445   2.977   4.221
  985SOL    HW2 2976   1.313   3.073   4.213
  986SOL     OW 2977   0.550   2.058   4.609
  986SOL    HW1 2978   0.545   2.053   4.709
  986SOL    HW2 2979   0.552   2.154   4.580
  987SOL     OW 2980   1.008   3.318   4.201
  987SOL    HW1 2981   0.962   3.390   4.149
  987SOL    HW2 2982   1.004   3.338   4.299
  988SOL     OW 2983   0.351   3.663   4.577
  988SOL    HW1 2984   0.401   3.577   4.583
  988SOL    HW2 2985   0.416   3.740   4.574
  989SOL     OW 2986   1.795   2.928   4.597
  989SOL    HW1 2987   1.733   2.913   4.521
  989SOL    HW2 2988   1.743   2.939   4.682
  990SOL     OW 2989   0.321   2.805   3.966
  990SOL    HW1 2990   0.403   2.844   3.924
  990SOL    HW2 2991   0.294   2.723   3.917
  991SOL     OW 2992   1.458   2.597   4.452
  991SOL    HW1 2993   1.453   2.532   4.527
  991SOL    HW2 2994   1.538   2.656   4.465
  992SOL     OW 2995   1.111   3.638   3.961
  992SOL    HW1 2996   1.051   3.576   4.011
  992SOL    HW2 2997   1.142   3.594   3.876
  993SOL     OW 2998   1.632   3.239   3.805
  993SOL    HW1 2999   1.600   3.333   3.795
  993SOL    HW2 3000   1.556   3.176   3.793
  994SOL     OW 3001   0.464   3.605   4.047
  994SOL    HW1 3002   0.497   3.644   4.133
  994SOL    HW2 3003   0.540   3.598   3.982
  995SOL     OW 3004   1.400   1.969   4.150
  995SOL    HW1 3005   1.376   1.932   4.060
  995SOL    HW2 3006   1.499   1.985   4.154
  996SOL     OW 3007   0.382   2.562   4.204
  996SOL    HW1 3008   0.427   2.472   4.201
  996SOL    HW2 3009   0.288   2.551   4.237
  997SOL     OW 3010   0.614   1.984   3.841
  997SOL    HW1 3011   0.712   1.962   3.848
  997SOL    HW2 3012   0.583   1.967   3.748
  998SOL     OW 3013   0.539   1.926   4.236
  998SOL    HW1 3014   0.458   1.927   4.294
  998SOL    HW2 3015   0.542   2.009   4.181
  999SOL     OW 3016   1.434   3.050   3.765
  999SOL    HW1 3017   1.466   2.974   3.822
  999SOL    HW2 3018   1.342   3.077   3.795
 1000SOL     OW 3019   0.297   1.897   3.895
 1000SOL    HW1 3020   0.346   1.981   3.874
 1000SOL    HW2 3021   0.359   1.832   3.940
 1001SOL     OW 3022   0.935   2.098   4.204
 1001SOL    HW1 3023   0.887   2.139   4.126
 1001SOL    HW2 3024   1.034   2.096   4.185
 1002SOL     OW 3025   1.227   3.432   4.517
 1002SOL    HW1 3026   1.248   3.506   4.452
 1002SOL    HW2 3027   1.295   3.432   4.590
 1003SOL     OW 3028   0.459   3.014   4.465
 1003SOL    HW1 3029   0.388   2.987   4.530
 1003SOL    HW2 3030   0.433   2.986   4.372
 1004SOL     OW 3031   1.271   3.659   4.315
 1004SOL    HW1 3032   1.315   3.723   4.251
 1004SOL    HW2 3033   1.221   3.711   4.385
 1005SOL     OW 3034   1.032   2.411   3.740
 1005SOL    HW1 3035   0.991   2.493   3.701
 1005SOL    HW2 3036   1.096   2.437   3.813
 1006SOL     OW 3037   0.866   2.316   4.366
 1006SOL    HW1 3038   0.834   2.388   4.304
 1006SOL    HW2 3039   0.890   2.235   4.313
 1007SOL     OW 3040   1.017   1.901   4.477
 1007SOL    HW1 3041   0.945   1.906   4.408
 1007SOL    HW2 3042   0.993   1.832   4.546
 1008SOL     OW 3043   1.857   2.695   4.101
 1008SOL    HW1 3044   1.899   2.631   4.165
 1008SOL    HW2 3045   1.819   2.644   4.023
 1009SOL     OW 3046   0.488   3.247   3.898
 1009SOL    HW1 3047   0.401   3.232   3.945
 1009SOL    HW2 3048   0.471   3.273   3.803
 1010SOL     OW 3049   1.664   3.142   4.381
 1010SOL    HW1 3050   1.763   3.150   4.395
 1010SOL    HW2 3051   1.619   3.226   4.412
 1011SOL     OW 3052   1.390   2.437   3.802
 1011SOL    HW1 3053   1.336   2.416   3.883
 1011SOL    HW2 3054   1.481   2.396   3.811
 1012SOL     OW 3055   0.527   2.118   4.052
 1012SOL    HW1 3056   0.554   2.059   3.977
 1012SOL    HW2 3057   0.527   2.213   4.021
 1013SOL     OW 3058   0.705   2.912   4.092
 1013SOL    HW1 3059   0.691   2.919   4.191
 1013SOL    HW2 3060   0.789   2.861   4.074
 1014SOL     OW 3061   0.367   2.962   4.225
 1014SOL    HW1 3062   0.360   3.045   4.169
 1014SOL    HW2 3063   0.371   2.882   4.165
 1015SOL     OW 3064   0.566   2.399   4.589
 1015SOL    HW1 3065   0.578   2.465   4.515
 1015SOL    HW2 3066   0.612   2.433   4.672
 1016SOL     OW 3067   1.252   3.210   4.112
 1016SOL    HW1 3068   1.302   3.287   4.152
 1016SOL    HW2 3069   1.157   3.212   4.144
 1017SOL     OW 3070   1.582   2.501   4.196
 1017SOL    HW1 3071   1.551   2.562   4.269
 1017SOL    HW2 3072   1.632   2.553   4.127
 1018SOL     OW 3073   1.209   2.387   3.999
 1018SOL    HW1 3074   1.222   2.303   4.053
 1018SOL    HW2 3075   1.180   2.461   4.059
 1019SOL     OW 3076   0.732   2.496   4.788
 1019SOL    HW1 3077   0.791   2.470   4.712
 1019SOL    HW2 3078   0.704   2.592   4.777
 1020SOL     OW 3079   0.307   1.925   4.342
 1020SOL    HW1 3080   0.296   2.019   4.375
 1020SOL    HW2 3081   0.302   1.862   4.419
 1021SOL     OW 3082   1.622   2.229   4.098
 1021SOL    HW1 3083   1.624   2.153   4.162
 1021SOL    HW2 3084   1.574   2.306   4.138
 1022SOL     OW 3085   1.540   2.136   3.849
 1022SOL    HW1 3086   1.479   2.061   3.872
 1022SOL    HW2 3087   1.562   2.188   3.932
 1023SOL     OW 3088   1.303   2.700   3.766
 1023SOL    HW1 3089   1.337   2.607   3.781
 1023SOL    HW2 3090   1.321   2.727   3.671
 1024SOL     OW 3091   1.068   3.195   4.573
 1024SOL    HW1 3092   1.075   3.111   4.518
 1024SOL    HW2 3093   1.130   3.264   4.537
 1025SOL     OW 3094   0.319   2.672   4.673
 1025SOL    HW1 3095   0.412   2.708   4.678
 1025SOL    HW2 3096   0.313   2.587   4.725
 1026SOL     OW 3097   0.008   3.188   3.924
 1026SOL    HW1 3098  -0.085   3.209   3.893
 1026SOL    HW2 3099   0.018   3.089   3.937
 1027SOL     OW 3100   0.088   3.663   4.651
 1027SOL    HW1 3101   0.046   3.577   4.624
 1027SOL    HW2 3102   0.182   3.666   4.617
 1028SOL     OW 3103   0.504   3.430   4.634
 1028SOL    HW1 3104   0.570   3.504   4.643
 1028SOL    HW2 3105   0.548   3.351   4.592
 1029SOL     OW 3106   0.815   2.434   4.049
 1029SOL    HW1 3107   0.822   2.345   4.003
 1029SOL    HW2 3108   0.721   2.468   4.041
 1030SOL     OW 3109   0.473   2.362   3.915
 1030SOL    HW1 3110   0.534   2.442   3.919
 1030SOL    HW2 3111   0.378   2.393   3.922
 1031SOL     OW 3112   1.302   2.717   4.033
 1031SOL    HW1 3113   1.216   2.686   4.075
 1031SOL    HW2 3114   1.298   2.703   3.934
 1032SOL     OW 3115   1.759   3.609   4.878
 1032SOL    HW1 3116   1.820   3.639   4.805
 1032SOL    HW2 3117   1.721   3.520   4.856
 1033SOL     OW 3118   1.726   1.997   4.247
 1033SOL    HW1 3119   1.799   1.980   4.180
 1033SOL    HW2 3120   1.695   1.910   4.285
 1034SOL     OW 3121   1.388   3.435   4.201
 1034SOL    HW1 3122   1.455   3.447   4.127
 1034SOL    HW2 3123   1.348   3.524   4.224
 1035SOL     OW 3124   1.280   2.789   4.396
 1035SOL    HW1 3125   1.340   2.708   4.398
 1035SOL    HW2 3126   1.320   2.858   4.336
 1036SOL     OW 3127   0.672   3.478   3.878
 1036SOL    HW1 3128   0.681   3.488   3.779
 1036SOL    HW2 3129   0.632   3.389   3.899
 1037SOL     OW 3130   1.841   2.037   4.687
 1037SOL    HW1 3131   1.880   1.952   4.651
 1037SOL    HW2 3132   1.743   2.039   4.668
 1038SOL     OW 3133   0.263   2.188   4.444
 1038SOL    HW1 3134   0.184   2.239   4.410
 1038SOL    HW2 3135   0.254   2.173   4.542
 1039SOL     OW 3136   1.194   3.474   3.755
 1039SOL    HW1 3137   1.200   3.381   3.792
 1039SOL    HW2 3138   1.135   3.474   3.675
 1040SOL     OW 3139   0.916   2.772   4.015
 1040SOL    HW1 3140   0.979   2.810   3.947
 1040SOL    HW2 3141   0.956   2.689   4.054
 1041SOL     OW 3142   1.504   3.469   3.768
 1041SOL    HW1 3143   1.412   3.506   3.775
 1041SOL    HW2 3144   1.542   3.489   3.678
 1042SOL     OW 3145   1.039   2.960   4.420
 1042SOL    HW1 3146   0.969   2.913   4.474
 1042SOL    HW2 3147   1.098   2.892   4.377
 1043SOL     OW 3148   0.590   3.349   4.215
 1043SOL    HW1 3149   0.632   3.291   4.145
 1043SOL    HW2 3150   0.546   3.428   4.171
 1044SOL     OW 3151   0.255   3.210   4.014
 1044SOL    HW1 3152   0.159   3.211   3.987
 1044SOL    HW2 3153   0.267   3.263   4.098
 1045SOL     OW 3154   0.075   2.207   3.757
 1045SOL    HW1 3155  -0.017   2.179   3.728
 1045SOL    HW2 3156   0.106   2.284   3.701
 1046SOL     OW 3157   0.072   2.028   4.042
 1046SOL    HW1 3158   0.055   2.111   3.988
 1046SOL    HW2 3159   0.162   1.991   4.020
 1047SOL     OW 3160   1.183   3.197   3.843
 1047SOL    HW1 3161   1.084   3.186   3.845
 1047SOL    HW2 3162   1.217   3.212   3.936
 1048SOL     OW 3163   1.674   2.745   4.978
 1048SOL    HW1 3164   1.647   2.656   4.941
 1048SOL    HW2 3165   1.675   2.813   4.905
 1049SOL     OW 3166   1.225   2.187   4.173
 1049SOL    HW1 3167   1.290   2.113   4.162
 1049SOL    HW2 3168   1.245   2.237   4.257
 1050SOL     OW 3169   0.594   2.607   4.376
 1050SOL    HW1 3170   0.644   2.692   4.357
 1050SOL    HW2 3171   0.506   2.609   4.328
 1051SOL     OW 3172   0.859   3.236   3.740
 1051SOL    HW1 3173   0.813   3.251   3.828
 1051SOL    HW2 3174   0.903   3.321   3.710
 1052SOL     OW 3175   0.661   3.652   4.677
 1052SOL    HW1 3176   0.615   3.740   4.664
 1052SOL    HW2 3177   0.760   3.664   4.670
 1053SOL     OW 3178   0.859   2.818   4.585
 1053SOL    HW1 3179   0.913   2.749   4.633
 1053SOL    HW2 3180   0.827   2.887   4.651
 1054SOL     OW 3181   1.083   2.846   3.811
 1054SOL    HW1 3182   1.060   2.899   3.729
 1054SOL    HW2 3183   1.164   2.790   3.792
 1055SOL     OW 3184   1.861   3.431   4.575
 1055SOL    HW1 3185   1.790   3.419   4.505
 1055SOL    HW2 3186   1.862   3.352   4.635
 1056SOL     OW 3187   0.079   3.102   4.377
 1056SOL    HW1 3188   0.078   3.055   4.465
 1056SOL    HW2 3189   0.161   3.074   4.326
 1057SOL     OW 3190   0.428   2.286   4.244
 1057SOL    HW1 3191   0.458   2.214   4.182
 1057SOL    HW2 3192   0.389   2.246   4.327
 1058SOL     OW 3193   0.812   3.448   4.411
 1058SOL    HW1 3194   0.844   3.458   4.317
 1058SOL    HW2 3195   0.733   3.386   4.413
 1059SOL     OW 3196   0.770   3.192   4.025
 1059SOL    HW1 3197   0.724   3.105   4.042
 1059SOL    HW2 3198   0.861   3.189   4.066
 1060SOL     OW 3199   1.352   1.914   3.892
 1060SOL    HW1 3200   1.387   1.873   3.808
 1060SOL    HW2 3201   1.262   1.876   3.912
 1061SOL     OW 3202   1.300   2.315   4.415
 1061SOL    HW1 3203   1.241   2.395   4.419
 1061SOL    HW2 3204   1.315   2.280   4.508
 1062SOL     OW 3205   1.593   2.083   4.606
 1062SOL    HW1 3206   1.509   2.082   4.660
 1062SOL    HW2 3207   1.595   2.166   4.550
 1063SOL     OW 3208   0.039   2.939   4.024
 1063SOL    HW1 3209   0.138   2.928   4.015
 1063SOL    HW2 3210  -0.001   2.853   4.056
 1064SOL     OW 3211   0.875   3.508   4.061
 1064SOL    HW1 3212   0.798   3.473   4.007
 1064SOL    HW2 3213   0.843   3.579   4.123
 1065SOL     OW 3214   0.230   4.352   0.113
 1065SOL    HW1 3215   0.137   4.350   0.150
 1065SOL    HW2 3216   0.231   4.313   0.021
 1066SOL     OW 3217   0.225   3.999   0.996
 1066SOL    HW1 3218   0.260   3.982   1.088
 1066SOL    HW2 3219   0.137   3.954   0.984
 1067SOL     OW 3220   0.019   4.092   0.647
 1067SOL    HW1 3221  -0.063   4.135   0.686
 1067SOL    HW2 3222  -0.009   4.019   0.584
 1068SOL     OW 3223   1.135   4.427   0.717
 1068SOL    HW1 3224   1.192   4.505   0.692
 1068SOL    HW2 3225   1.075   4.453   0.793
 1069SOL     OW 3226   1.755   4.331   0.231
 1069SOL    HW1 3227   1.743   4.318   0.132
 1069SOL    HW2 3228   1.725   4.250   0.280
 1070SOL     OW 3229   0.850   4.522   1.823
 1070SOL    HW1 3230   0.846   4.598   1.888
 1070SOL    HW2 3231   0.872   4.558   1.732
 1071SOL     OW 3232   0.685   4.736   0.665
 1071SOL    HW1 3233   0.754   4.720   0.735
 1071SOL    HW2 3234   0.612   4.793   0.703
 1072SOL     OW 3235   0.438   4.116   1.499
 1072SOL    HW1 3236   0.520   4.060   1.508
 1072SOL    HW2 3237   0.357   4.058   1.503
 1073SOL     OW 3238   1.603   4.171   0.737
 1073SOL    HW1 3239   1.529   4.217   0.687
 1073SOL    HW2 3240   1.654   4.239   0.790
 1074SOL     OW 3241   1.594   3.838   1.480
 1074SOL    HW1 3242   1.576   3.905   1.408
 1074SOL    HW2 3243   1.591   3.884   1.569
 1075SOL     OW 3244   0.122   4.367   0.563
 1075SOL    HW1 3245   0.077   4.279   0.580
 1075SOL    HW2 3246   0.121   4.421   0.647
 1076SOL     OW 3247   0.113   4.461   1.597
 1076SOL    HW1 3248   0.201   4.448   1.642
 1076SOL    HW2 3249   0.100   4.558   1.575
 1077SOL     OW 3250   0.809   3.728   0.502
 1077SOL    HW1 3251   0.849   3.819   0.493
 1077SOL    HW2 3252   0.709   3.736   0.508
 1078SOL     OW 3253   0.197   4.700   1.264
 1078SOL    HW1 3254   0.286   4.655   1.250
 1078SOL    HW2 3255   0.124   4.635   1.245
 1079SOL     OW 3256   1.525   4.723   0.190
 1079SOL    HW1 3257   1.462   4.647   0.203
 1079SOL    HW2 3258   1.573   4.741   0.276
 1080SOL     OW 3259   0.317   3.975   1.801
 1080SOL    HW1 3260   0.388   4.046   1.807
 1080SOL    HW2 3261   0.229   4.014   1.829
 1081SOL     OW 3262   0.598   4.453   0.270
 1081SOL    HW1 3263   0.622   4.522   0.202
 1081SOL    HW2 3264   0.520   4.486   0.324
 1082SOL     OW 3265   1.281   4.069   0.944
 1082SOL    HW1 3266   1.195   4.019   0.931
 1082SOL    HW2 3267   1.343   4.015   1.000
 1083SOL     OW 3268   0.807   4.329   1.465
 1083SOL    HW1 3269   0.760   4.326   1.554
 1083SOL    HW2 3270   0.756   4.274   1.399
 1084SOL     OW 3271   1.394   4.193   1.674
 1084SOL    HW1 3272   1.374   4.236   1.762
 1084SOL    HW2 3273   1.472   4.131   1.683
 1085SOL     OW 3274   0.973   4.614   1.572
 1085SOL    HW1 3275   1.019   4.530   1.543
 1085SOL    HW2 3276   0.917   4.648   1.497
 1086SOL     OW 3277   0.991   4.134   1.242
 1086SOL    HW1 3278   0.914   4.168   1.296
 1086SOL    HW2 3279   0.957   4.083   1.163
 1087SOL     OW 3280   1.041   4.425   0.429
 1087SOL    HW1 3281   1.067   4.421   0.525
 1087SOL    HW2 3282   0.956   4.374   0.415
 1088SOL     OW 3283   0.076   4.535   0.789
 1088SOL    HW1 3284   0.175   4.523   0.798
 1088SOL    HW2 3285   0.052   4.630   0.810
 1089SOL     OW 3286   0.865   4.072   0.195
 1089SOL    HW1 3287   0.924   4.135   0.146
 1089SOL    HW2 3288   0.884   3.978   0.166
 1090SOL     OW 3289   1.719   4.309   1.831
 1090SOL    HW1 3290   1.693   4.398   1.795
 1090SOL    HW2 3291   1.717   4.241   1.758
 1091SOL     OW 3292   0.550   3.920   0.885
 1091SOL    HW1 3293   0.545   3.915   0.985
 1091SOL    HW2 3294   0.552   4.016   0.856
 1092SOL     OW 3295   1.458   4.459   0.728
 1092SOL    HW1 3296   1.453   4.394   0.803
 1092SOL    HW2 3297   1.538   4.518   0.741
 1093SOL     OW 3298   0.202   4.009   1.498
 1093SOL    HW1 3299   0.122   4.069   1.485
 1093SOL    HW2 3300   0.192   3.960   1.584
 1094SOL     OW 3301   1.400   3.831   0.426
 1094SOL    HW1 3302   1.376   3.794   0.336
 1094SOL    HW2 3303   1.499   3.847   0.430
 1095SOL     OW 3304   0.382   4.424   0.480
 1095SOL    HW1 3305   0.427   4.334   0.477
 1095SOL    HW2 3306   0.288   4.413   0.513
 1096SOL     OW 3307   1.547   3.946   1.729
 1096SOL    HW1 3308   1.542   3.983   1.821
 1096SOL    HW2 3309   1.475   3.877   1.717
 1097SOL     OW 3310   0.781   3.988   1.749
 1097SOL    HW1 3311   0.848   3.927   1.792
 1097SOL    HW2 3312   0.708   4.007   1.814
 1098SOL     OW 3313   1.351   4.314   1.433
 1098SOL    HW1 3314   1.379   4.271   1.518
 1098SOL    HW2 3315   1.376   4.410   1.434
 1099SOL     OW 3316   0.922   4.227   0.899
 1099SOL    HW1 3317   0.897   4.218   0.803
 1099SOL    HW2 3318   0.970   4.145   0.930
 1100SOL     OW 3319   0.539   3.788   0.512
 1100SOL    HW1 3320   0.458   3.789   0.570
 1100SOL    HW2 3321   0.542   3.871   0.457
 1101SOL     OW 3322   0.297   3.759   0.171
 1101SOL    HW1 3323   0.346   3.843   0.150
 1101SOL    HW2 3324   0.359   3.694   0.216
 1102SOL     OW 3325   0.935   3.960   0.480
 1102SOL    HW1 3326   0.887   4.001   0.402
 1102SOL    HW2 3327   1.034   3.958   0.461
 1103SOL     OW 3328   1.076   4.407   1.464
 1103SOL    HW1 3329   0.996   4.346   1.467
 1103SOL    HW2 3330   1.157   4.354   1.440
 1104SOL     OW 3331   1.032   4.273   0.016
 1104SOL    HW1 3332   0.991   4.355  -0.023
 1104SOL    HW2 3333   1.096   4.299   0.089
 1105SOL     OW 3334   0.078   4.280   1.386
 1105SOL    HW1 3335   0.170   4.279   1.345
 1105SOL    HW2 3336   0.072   4.354   1.453
 1106SOL     OW 3337   0.561   3.946   1.147
 1106SOL    HW1 3338   0.599   3.862   1.184
 1106SOL    HW2 3339   0.473   3.965   1.191
 1107SOL     OW 3340   0.866   4.178   0.642
 1107SOL    HW1 3341   0.834   4.250   0.580
 1107SOL    HW2 3342   0.890   4.097   0.589
 1108SOL     OW 3343   1.017   3.763   0.753
 1108SOL    HW1 3344   0.945   3.768   0.684
 1108SOL    HW2 3345   0.993   3.694   0.822
 1109SOL     OW 3346   1.466   4.314   0.992
 1109SOL    HW1 3347   1.436   4.219   0.999
 1109SOL    HW2 3348   1.539   4.330   1.058
 1110SOL     OW 3349   1.857   4.557   0.377
 1110SOL    HW1 3350   1.899   4.493   0.441
 1110SOL    HW2 3351   1.819   4.506   0.299
 1111SOL     OW 3352   1.390   4.299   0.078
 1111SOL    HW1 3353   1.336   4.278   0.159
 1111SOL    HW2 3354   1.481   4.258   0.087
 1112SOL     OW 3355   0.527   3.980   0.328
 1112SOL    HW1 3356   0.554   3.921   0.253
 1112SOL    HW2 3357   0.527   4.075   0.297
 1113SOL     OW 3358   1.638   4.823   1.079
 1113SOL    HW1 3359   1.643   4.904   1.138
 1113SOL    HW2 3360   1.552   4.825   1.028
 1114SOL     OW 3361   0.915   3.813   1.402
 1114SOL    HW1 3362   0.940   3.793   1.307
 1114SOL    HW2 3363   0.987   3.869   1.444
 1115SOL     OW 3364   0.410   4.537   1.251
 1115SOL    HW1 3365   0.496   4.549   1.301
 1115SOL    HW2 3366   0.368   4.450   1.278
 1116SOL     OW 3367   1.274   4.110   1.262
 1116SOL    HW1 3368   1.295   4.184   1.326
 1116SOL    HW2 3369   1.185   4.127   1.219
 1117SOL     OW 3370   0.566   4.261   0.865
 1117SOL    HW1 3371   0.578   4.327   0.791
 1117SOL    HW2 3372   0.612   4.295   0.948
 1118SOL     OW 3373   1.582   4.363   0.472
 1118SOL    HW1 3374   1.551   4.424   0.545
 1118SOL    HW2 3375   1.632   4.415   0.403
 1119SOL     OW 3376   0.402   4.475   1.598
 1119SOL    HW1 3377   0.470   4.530   1.551
 1119SOL    HW2 3378   0.442   4.387   1.625
 1120SOL     OW 3379   1.587   4.503   1.670
 1120SOL    HW1 3380   1.495   4.541   1.665
 1120SOL    HW2 3381   1.647   4.550   1.605
 1121SOL     OW 3382   1.013   3.829   1.770
 1121SOL    HW1 3383   1.019   3.914   1.718
 1121SOL    HW2 3384   1.045   3.753   1.713
 1122SOL     OW 3385   0.504   3.774   1.740
 1122SOL    HW1 3386   0.462   3.717   1.670
 1122SOL    HW2 3387   0.438   3.843   1.772
 1123SOL     OW 3388   0.573   4.594   1.029
 1123SOL    HW1 3389   0.617   4.683   1.020
 1123SOL    HW2 3390   0.510   4.594   1.106
 1124SOL     OW 3391   1.360   4.586   1.045
 1124SOL    HW1 3392   1.285   4.586   0.979
 1124SOL    HW2 3393   1.397   4.494   1.054
 1125SOL     OW 3394   1.209   4.249   0.275
 1125SOL    HW1 3395   1.222   4.165   0.329
 1125SOL    HW2 3396   1.180   4.323   0.335
 1126SOL     OW 3397   0.307   3.937   1.231
 1126SOL    HW1 3398   0.284   3.974   1.321
 1126SOL    HW2 3399   0.277   3.842   1.225
 1127SOL     OW 3400   0.732   4.358   1.064
 1127SOL    HW1 3401   0.791   4.332   0.988
 1127SOL    HW2 3402   0.704   4.454   1.053
 1128SOL     OW 3403   1.728   4.659   1.854
 1128SOL    HW1 3404   1.682   4.652   1.765
 1128SOL    HW2 3405   1.666   4.703   1.920
 1129SOL     OW 3406   0.307   3.787   0.618
 1129SOL    HW1 3407   0.296   3.881   0.651
 1129SOL    HW2 3408   0.302   3.724   0.695
 1130SOL     OW 3409   1.622   4.091   0.374
 1130SOL    HW1 3410   1.624   4.015   0.438
 1130SOL    HW2 3411   1.574   4.168   0.414
 1131SOL     OW 3412   1.023   4.490   0.966
 1131SOL    HW1 3413   1.038   4.511   1.062
 1131SOL    HW2 3414   0.993   4.395   0.957
 1132SOL     OW 3415   0.350   4.622   1.804
 1132SOL    HW1 3416   0.426   4.666   1.852
 1132SOL    HW2 3417   0.385   4.575   1.722
 1133SOL     OW 3418   1.540   3.998   0.125
 1133SOL    HW1 3419   1.479   3.923   0.148
 1133SOL    HW2 3420   1.562   4.050   0.208
 1134SOL     OW 3421   1.303   4.562   0.042
 1134SOL    HW1 3422   1.337   4.469   0.057
 1134SOL    HW2 3423   1.321   4.589  -0.053
 1135SOL     OW 3424   0.319   4.534   0.949
 1135SOL    HW1 3425   0.412   4.570   0.954
 1135SOL    HW2 3426   0.313   4.449   1.001
 1136SOL     OW 3427   0.339   4.233   1.006
 1136SOL    HW1 3428   0.287   4.150   0.989
 1136SOL    HW2 3429   0.416   4.238   0.942
 1137SOL     OW 3430   1.138   4.104   1.678
 1137SOL    HW1 3431   1.093   4.167   1.742
 1137SOL    HW2 3432   1.231   4.135   1.661
 1138SOL     OW 3433   1.160   3.931   1.477
 1138SOL    HW1 3434   1.160   3.995   1.554
 1138SOL    HW2 3435   1.188   3.979   1.394
 1139SOL     OW 3436   1.002   4.520   1.238
 1139SOL    HW1 3437   1.043   4.488   1.324
 1139SOL    HW2 3438   0.906   4.493   1.235
 1140SOL     OW 3439   0.040   4.268   1.114
 1140SOL    HW1 3440   0.125   4.235   1.073
 1140SOL    HW2 3441   0.053   4.283   1.212
 1141SOL     OW 3442   0.189   4.244   1.722
 1141SOL    HW1 3443   0.248   4.204   1.652
 1141SOL    HW2 3444   0.131   4.315   1.681
 1142SOL     OW 3445   0.815   4.296   0.325
 1142SOL    HW1 3446   0.822   4.207   0.279
 1142SOL    HW2 3447   0.721   4.330   0.317
 1143SOL     OW 3448   1.657   4.328   1.206
 1143SOL    HW1 3449   1.619   4.259   1.268
 1143SOL    HW2 3450   1.739   4.292   1.162
 1144SOL     OW 3451   0.671   4.188   1.269
 1144SOL    HW1 3452   0.637   4.099   1.239
 1144SOL    HW2 3453   0.697   4.242   1.189
 1145SOL     OW 3454   0.473   4.224   0.191
 1145SOL    HW1 3455   0.534   4.304   0.195
 1145SOL    HW2 3456   0.378   4.255   0.198
 1146SOL     OW 3457   1.347   4.783   1.234
 1146SOL    HW1 3458   1.371   4.720   1.160
 1146SOL    HW2 3459   1.257   4.823   1.216
 1147SOL     OW 3460   1.302   4.579   0.309
 1147SOL    HW1 3461   1.216   4.548   0.351
 1147SOL    HW2 3462   1.298   4.565   0.210
 1148SOL     OW 3463   0.903   3.810   0.133
 1148SOL    HW1 3464   0.954   3.811   0.047
 1148SOL    HW2 3465   0.959   3.768   0.204
 1149SOL     OW 3466   1.726   3.859   0.523
 1149SOL    HW1 3467   1.799   3.842   0.456
 1149SOL    HW2 3468   1.695   3.772   0.561
 1150SOL     OW 3469   1.280   4.651   0.672
 1150SOL    HW1 3470   1.340   4.570   0.674
 1150SOL    HW2 3471   1.320   4.720   0.612
 1151SOL     OW 3472   1.841   3.899   0.963
 1151SOL    HW1 3473   1.880   3.814   0.927
 1151SOL    HW2 3474   1.743   3.901   0.944
 1152SOL     OW 3475   0.263   4.050   0.720
 1152SOL    HW1 3476   0.184   4.101   0.686
 1152SOL    HW2 3477   0.254   4.035   0.818
 1153SOL     OW 3478   1.014   3.960   0.971
 1153SOL    HW1 3479   1.006   3.924   0.878
 1153SOL    HW2 3480   1.012   3.884   1.036
 1154SOL     OW 3481   1.709   4.109   1.381
 1154SOL    HW1 3482   1.782   4.178   1.385
 1154SOL    HW2 3483   1.737   4.034   1.322
 1155SOL     OW 3484   0.105   4.737   1.726
 1155SOL    HW1 3485   0.028   4.704   1.780
 1155SOL    HW2 3486   0.190   4.707   1.768
 1156SOL     OW 3487   0.672   3.927   1.489
 1156SOL    HW1 3488   0.762   3.911   1.449
 1156SOL    HW2 3489   0.680   3.932   1.588
 1157SOL     OW 3490   0.075   4.069   0.033
 1157SOL    HW1 3491  -0.017   4.041   0.004
 1157SOL    HW2 3492   0.106   4.146  -0.023
 1158SOL     OW 3493   1.440   4.580   1.398
 1158SOL    HW1 3494   1.383   4.632   1.335
 1158SOL    HW2 3495   1.536   4.592   1.374
 1159SOL     OW 3496   0.072   3.890   0.318
 1159SOL    HW1 3497   0.055   3.973   0.264
 1159SOL    HW2 3498   0.162   3.853   0.296
 1160SOL     OW 3499   0.613   4.566   1.431
 1160SOL    HW1 3500   0.669   4.647   1.414
 1160SOL    HW2 3501   0.672   4.486   1.434
 1161SOL     OW 3502   0.716   4.289   1.708
 1161SOL    HW1 3503   0.735   4.354   1.782
 1161SOL    HW2 3504   0.776   4.209   1.717
 1162SOL     OW 3505   1.674   4.607   1.254
 1162SOL    HW1 3506   1.647   4.518   1.217
 1162SOL    HW2 3507   1.675   4.675   1.181
 1163SOL     OW 3508   1.225   4.049   0.449
 1163SOL    HW1 3509   1.290   3.975   0.438
 1163SOL    HW2 3510   1.245   4.099   0.533
 1164SOL     OW 3511   0.594   4.469   0.652
 1164SOL    HW1 3512   0.644   4.554   0.633
 1164SOL    HW2 3513   0.506   4.471   0.604
 1165SOL     OW 3514   1.777   4.066   1.642
 1165SOL    HW1 3515   1.760   4.097   1.548
 1165SOL    HW2 3516   1.693   4.029   1.680
 1166SOL     OW 3517   1.730   4.658   1.517
 1166SOL    HW1 3518   1.768   4.749   1.532
 1166SOL    HW2 3519   1.722   4.641   1.418
 1167SOL     OW 3520   1.824   3.916   1.227
 1167SOL    HW1 3521   1.820   3.826   1.271
 1167SOL    HW2 3522   1.827   3.905   1.128
 1168SOL     OW 3523   0.428   4.148   0.520
 1168SOL    HW1 3524   0.458   4.076   0.458
 1168SOL    HW2 3525   0.389   4.108   0.603
 1169SOL     OW 3526   0.317   4.271   1.280
 1169SOL    HW1 3527   0.355   4.212   1.352
 1169SOL    HW2 3528   0.357   4.245   1.192
 1170SOL     OW 3529   1.424   3.938   1.112
 1170SOL    HW1 3530   1.476   3.873   1.167
 1170SOL    HW2 3531   1.375   4.001   1.173
 1171SOL     OW 3532   1.001   3.758   1.154
 1171SOL    HW1 3533   0.938   3.686   1.123
 1171SOL    HW2 3534   1.094   3.722   1.154
 1172SOL     OW 3535   1.352   3.776   0.168
 1172SOL    HW1 3536   1.387   3.735   0.084
 1172SOL    HW2 3537   1.262   3.738   0.188
 1173SOL     OW 3538   1.300   4.177   0.691
 1173SOL    HW1 3539   1.241   4.257   0.695
 1173SOL    HW2 3540   1.315   4.142   0.784
 1174SOL     OW 3541   1.593   3.945   0.882
 1174SOL    HW1 3542   1.509   3.944   0.936
 1174SOL    HW2 3543   1.595   4.028   0.826
 1175SOL     OW 3544   0.230   4.352   1.975
 1175SOL    HW1 3545   0.137   4.350   2.012
 1175SOL    HW2 3546   0.231   4.313   1.883
 1176SOL     OW 3547   0.225   3.999   2.858
 1176SOL    HW1 3548   0.260   3.982   2.950
 1176SOL    HW2 3549   0.137   3.954   2.846
 1177SOL     OW 3550   0.019   4.092   2.509
 1177SOL    HW1 3551  -0.063   4.135   2.548
 1177SOL    HW2 3552  -0.009   4.019   2.446
 1178SOL     OW 3553   1.135   4.427   2.579
 1178SOL    HW1 3554   1.192   4.505   2.554
 1178SOL    HW2 3555   1.075   4.453   2.655
 1179SOL     OW 3556   1.755   4.331   2.093
 1179SOL    HW1 3557   1.743   4.318   1.994
 1179SOL    HW2 3558   1.725   4.250   2.142
 1180SOL     OW 3559   0.850   4.522   3.685
 1180SOL    HW1 3560   0.846   4.598   3.750
 1180SOL    HW2 3561   0.872   4.558   3.594
 1181SOL     OW 3562   0.685   4.736   2.527
 1181SOL    HW1 3563   0.754   4.720   2.597
 1181SOL    HW2 3564   0.612   4.793   2.565
 1182SOL     OW 3565   0.438   4.116   3.361
 1182SOL    HW1 3566   0.520   4.060   3.370
 1182SOL    HW2 3567   0.357   4.058   3.365
 1183SOL     OW 3568   1.603   4.171   2.599
 1183SOL    HW1 3569   1.529   4.217   2.549
 1183SOL    HW2 3570   1.654   4.239   2.652
 1184SOL     OW 3571   1.594   3.838   3.342
 1184SOL    HW1 3572   1.576   3.905   3.270
 1184SOL    HW2 3573   1.591   3.884   3.431
 1185SOL     OW 3574   0.122   4.367   2.425
 1185SOL    HW1 3575   0.077   4.279   2.442
 1185SOL    HW2 3576   0.121   4.421   2.509
 1186SOL     OW 3577   0.113   4.461   3.459
 1186SOL    HW1 3578   0.201   4.448   3.504
 1186SOL    HW2 3579   0.100   4.558   3.437
 1187SOL     OW 3580   0.809   3.728   2.364
 1187SOL    HW1 3581   0.849   3.819   2.355
 1187SOL    HW2 3582   0.709   3.736   2.370
 1188SOL     OW 3583   0.197   4.700   3.126
 1188SOL    HW1 3584   0.286   4.655   3.112
 1188SOL    HW2 3585   0.124   4.635   3.107
 1189SOL     OW 3586   1.525   4.723   2.052
 1189SOL    HW1 3587   1.462   4.647   2.065
 1189SOL    HW2 3588   1.573   4.741   2.138
 1190SOL     OW 3589   0.317   3.975   3.663
 1190SOL    HW1 3590   0.388   4.046   3.669
 1190SOL    HW2 3591   0.229   4.014   3.691
 1191SOL     OW 3592   0.598   4.453   2.132
 1191SOL    HW1 3593   0.622   4.522   2.064
 1191SOL    HW2 3594   0.520   4.486   2.186
 1192SOL     OW 3595   1.281   4.069   2.806
 1192SOL    HW1 3596   1.195   4.019   2.793
 1192SOL    HW2 3597   1.343   4.015   2.862
 1193SOL     OW 3598   0.807   4.329   3.327
 1193SOL    HW1 3599   0.760   4.326   3.416
 1193SOL    HW2 3600   0.756   4.274   3.261
 1194SOL     OW 3601   1.394   4.193   3.536
 1194SOL    HW1 3602   1.374   4.236   3.624
 1194SOL    HW2 3603   1.472   4.131   3.545
 1195SOL     OW 3604   0.973   4.614   3.434
 1195SOL    HW1 3605   1.019   4.530   3.405
 1195SOL    HW2 3606   0.917   4.648   3.359
 1196SOL     OW 3607   0.991   4.134   3.104
 1196SOL    HW1 3608   0.914   4.168   3.158
 1196SOL    HW2 3609   0.957   4.083   3.025
 1197SOL     OW 3610   1.041   4.425   2.291
 1197SOL    HW1 3611   1.067   4.421   2.387
 1197SOL    HW2 3612   0.956   4.374   2.277
 1198SOL     OW 3613   0.076   4.535   2.651
 1198SOL    HW1 3614   0.175   4.523   2.660
 1198SOL    HW2 3615   0.052   4.630   2.672
 1199SOL     OW 3616   0.865   4.072   2.057
 1199SOL    HW1 3617   0.924   4.135   2.008
 1199SOL    HW2 3618   0.884   3.978   2.028
 1200SOL     OW 3619   1.719   4.309   3.693
 1200SOL    HW1 3620   1.693   4.398   3.657
 1200SOL    HW2 3621   1.717   4.241   3.620
 1201SOL     OW 3622   0.550   3.920   2.747
 1201SOL    HW1 3623   0.545   3.915   2.847
 1201SOL    HW2 3624   0.552   4.016   2.718
 1202SOL     OW 3625   1.458   4.459   2.590
 1202SOL    HW1 3626   1.453   4.394   2.665
 1202SOL    HW2 3627   1.538   4.518   2.603
 1203SOL     OW 3628   0.202   4.009   3.360
 1203SOL    HW1 3629   0.122   4.069   3.347
 1203SOL    HW2 3630   0.192   3.960   3.446
 1204SOL     OW 3631   1.400   3.831   2.288
 1204SOL    HW1 3632   1.376   3.794   2.198
 1204SOL    HW2 3633   1.499   3.847   2.292
 1205SOL     OW 3634   0.382   4.424   2.342
 1205SOL    HW1 3635   0.427   4.334   2.339
 1205SOL    HW2 3636   0.288   4.413   2.375
 1206SOL     OW 3637   1.547   3.946   3.591
 1206SOL    HW1 3638   1.542   3.983   3.683
 1206SOL    HW2 3639   1.475   3.877   3.579
 1207SOL     OW 3640   0.614   3.846   1.979
 1207SOL    HW1 3641   0.712   3.824   1.986
 1207SOL    HW2 3642   0.583   3.829   1.886
 1208SOL     OW 3643   0.781   3.988   3.611
 1208SOL    HW1 3644   0.848   3.927   3.654
 1208SOL    HW2 3645   0.708   4.007   3.676
 1209SOL     OW 3646   1.351   4.314   3.295
 1209SOL    HW1 3647   1.379   4.271   3.380
 1209SOL    HW2 3648   1.376   4.410   3.296
 1210SOL     OW 3649   0.922   4.227   2.761
 1210SOL    HW1 3650   0.897   4.218   2.665
 1210SOL    HW2 3651   0.970   4.145   2.792
 1211SOL     OW 3652   0.539   3.788   2.374
 1211SOL    HW1 3653   0.458   3.789   2.432
 1211SOL    HW2 3654   0.542   3.871   2.319
 1212SOL     OW 3655   0.297   3.759   2.033
 1212SOL    HW1 3656   0.346   3.843   2.012
 1212SOL    HW2 3657   0.359   3.694   2.078
 1213SOL     OW 3658   0.935   3.960   2.342
 1213SOL    HW1 3659   0.887   4.001   2.264
 1213SOL    HW2 3660   1.034   3.958   2.323
 1214SOL     OW 3661   1.076   4.407   3.326
 1214SOL    HW1 3662   0.996   4.346   3.329
 1214SOL    HW2 3663   1.157   4.354   3.302
 1215SOL     OW 3664   1.032   4.273   1.878
 1215SOL    HW1 3665   0.991   4.355   1.839
 1215SOL    HW2 3666   1.096   4.299   1.951
 1216SOL     OW 3667   0.078   4.280   3.248
 1216SOL    HW1 3668   0.170   4.279   3.207
 1216SOL    HW2 3669   0.072   4.354   3.315
 1217SOL     OW 3670   0.561   3.946   3.009
 1217SOL    HW1 3671   0.599   3.862   3.046
 1217SOL    HW2 3672   0.473   3.965   3.053
 1218SOL     OW 3673   0.866   4.178   2.504
 1218SOL    HW1 3674   0.834   4.250   2.442
 1218SOL    HW2 3675   0.890   4.097   2.451
 1219SOL     OW 3676   1.017   3.763   2.615
 1219SOL    HW1 3677   0.945   3.768   2.546
 1219SOL    HW2 3678   0.993   3.694   2.684
 1220SOL     OW 3679   1.466   4.314   2.854
 1220SOL    HW1 3680   1.436   4.219   2.861
 1220SOL    HW2 3681   1.539   4.330   2.920
 1221SOL     OW 3682   1.857   4.557   2.239
 1221SOL    HW1 3683   1.899   4.493   2.303
 1221SOL    HW2 3684   1.819   4.506   2.161
 1222SOL     OW 3685   1.390   4.299   1.940
 1222SOL    HW1 3686   1.336   4.278   2.021
 1222SOL    HW2 3687   1.481   4.258   1.949
 1223SOL     OW 3688   0.527   3.980   2.190
 1223SOL    HW1 3689   0.554   3.921   2.115
 1223SOL    HW2 3690   0.527   4.075   2.159
 1224SOL     OW 3691   1.638   4.823   2.941
 1224SOL    HW1 3692   1.643   4.904   3.000
 1224SOL    HW2 3693   1.552   4.825   2.890
 1225SOL     OW 3694   0.915   3.813   3.264
 1225SOL    HW1 3695   0.940   3.793   3.169
 1225SOL    HW2 3696   0.987   3.869   3.306
 1226SOL     OW 3697   0.410   4.537   3.113
 1226SOL    HW1 3698   0.496   4.549   3.163
 1226SOL    HW2 3699   0.368   4.450   3.140
 1227SOL     OW 3700   1.274   4.110   3.124
 1227SOL    HW1 3701   1.295   4.184   3.188
 1227SOL    HW2 3702   1.185   4.127   3.081
 1228SOL     OW 3703   0.566   4.261   2.727
 1228SOL    HW1 3704   0.578   4.327   2.653
 1228SOL    HW2 3705   0.612   4.295   2.810
 1229SOL     OW 3706   1.582   4.363   2.334
 1229SOL    HW1 3707   1.551   4.424   2.407
 1229SOL    HW2 3708   1.632   4.415   2.265
 1230SOL     OW 3709   0.402   4.475   3.460
 1230SOL    HW1 3710   0.470   4.530   3.413
 1230SOL    HW2 3711   0.442   4.387   3.487
 1231SOL     OW 3712   1.587   4.503   3.532
 1231SOL    HW1 3713   1.495   4.541   3.527
 1231SOL    HW2 3714   1.647   4.550   3.467
 1232SOL     OW 3715   1.013   3.829   3.632
 1232SOL    HW1 3716   1.019   3.914   3.580
 1232SOL    HW2 3717   1.045   3.753   3.575
 1233SOL     OW 3718   0.504   3.774   3.602
 1233SOL    HW1 3719   0.462   3.717   3.532
 1233SOL    HW2 3720   0.438   3.843   3.634
 1234SOL     OW 3721   0.573   4.594   2.891
 1234SOL    HW1 3722   0.617   4.683   2.882
 1234SOL    HW2 3723   0.510   4.594   2.968
 1235SOL     OW 3724   1.360   4.586   2.907
 1235SOL    HW1 3725   1.285   4.586   2.841
 1235SOL    HW2 3726   1.397   4.494   2.916
 1236SOL     OW 3727   1.209   4.249   2.137
 1236SOL    HW1 3728   1.222   4.165   2.191
 1236SOL    HW2 3729   1.180   4.323   2.197
 1237SOL     OW 3730   0.307   3.937   3.093
 1237SOL    HW1 3731   0.284   3.974   3.183
 1237SOL    HW2 3732   0.277   3.842   3.087
 1238SOL     OW 3733   0.732   4.358   2.926
 1238SOL    HW1 3734   0.791   4.332   2.850
 1238SOL    HW2 3735   0.704   4.454   2.915
 1239SOL     OW 3736   1.728   4.659   3.716
 1239SOL    HW1 3737   1.682   4.652   3.627
 1239SOL    HW2 3738   1.666   4.703   3.782
 1240SOL     OW 3739   0.307   3.787   2.480
 1240SOL    HW1 3740   0.296   3.881   2.513
 1240SOL    HW2 3741   0.302   3.724   2.557
 1241SOL     OW 3742   1.622   4.091   2.236
 1241SOL    HW1 3743   1.624   4.015   2.300
 1241SOL    HW2 3744   1.574   4.168   2.276
 1242SOL     OW 3745   1.023   4.490   2.828
 1242SOL    HW1 3746   1.038   4.511   2.924
 1242SOL    HW2 3747   0.993   4.395   2.819
 1243SOL     OW 3748   0.350   4.622   3.666
 1243SOL    HW1 3749   0.426   4.666   3.714
 1243SOL    HW2 3750   0.385   4.575   3.584
 1244SOL     OW 3751   1.540   3.998   1.987
 1244SOL    HW1 3752   1.479   3.923   2.010
 1244SOL    HW2 3753   1.562   4.050   2.070
 1245SOL     OW 3754   1.303   4.562   1.904
 1245SOL    HW1 3755   1.337   4.469   1.919
 1245SOL    HW2 3756   1.321   4.589   1.809
 1246SOL     OW 3757   0.319   4.534   2.811
 1246SOL    HW1 3758   0.412   4.570   2.816
 1246SOL    HW2 3759   0.313   4.449   2.863
 1247SOL     OW 3760   0.339   4.233   2.868
 1247SOL    HW1 3761   0.287   4.150   2.851
 1247SOL    HW2 3762   0.416   4.238   2.804
 1248SOL     OW 3763   1.138   4.104   3.540
 1248SOL    HW1 3764   1.093   4.167   3.604
 1248SOL    HW2 3765   1.231   4.135   3.523
 1249SOL     OW 3766   1.160   3.931   3.339
 1249SOL    HW1 3767   1.160   3.995   3.416
 1249SOL    HW2 3768   1.188   3.979   3.256
 1250SOL     OW 3769   1.002   4.520   3.100
 1250SOL    HW1 3770   1.043   4.488   3.186
 1250SOL    HW2 3771   0.906   4.493   3.097
 1251SOL     OW 3772   0.040   4.268   2.976
 1251SOL    HW1 3773   0.125   4.235   2.935
 1251SOL    HW2 3774   0.053   4.283   3.074
 1252SOL     OW 3775   0.189   4.244   3.584
 1252SOL    HW1 3776   0.248   4.204   3.514
 1252SOL    HW2 3777   0.131   4.315   3.543
 1253SOL     OW 3778   0.815   4.296   2.187
 1253SOL    HW1 3779   0.822   4.207   2.141
 1253SOL    HW2 3780   0.721   4.330   2.179
 1254SOL     OW 3781   1.657   4.328   3.068
 1254SOL    HW1 3782   1.619   4.259   3.130
 1254SOL    HW2 3783   1.739   4.292   3.024
 1255SOL     OW 3784   0.671   4.188   3.131
 1255SOL    HW1 3785   0.637   4.099   3.101
 1255SOL    HW2 3786   0.697   4.242   3.051
 1256SOL     OW 3787   0.473   4.224   2.053
 1256SOL    HW1 3788   0.534   4.304   2.057
 1256SOL    HW2 3789   0.378   4.255   2.060
 1257SOL     OW 3790   1.347   4.783   3.096
 1257SOL    HW1 3791   1.371   4.720   3.022
 1257SOL    HW2 3792   1.257   4.823   3.078
 1258SOL     OW 3793   1.302   4.579   2.171
 1258SOL    HW1 3794   1.216   4.548   2.213
 1258SOL    HW2 3795   1.298   4.565   2.072
 1259SOL     OW 3796   1.726   3.859   2.385
 1259SOL    HW1 3797   1.799   3.842   2.318
 1259SOL    HW2 3798   1.695   3.772   2.423
 1260SOL     OW 3799   1.280   4.651   2.534
 1260SOL    HW1 3800   1.340   4.570   2.536
 1260SOL    HW2 3801   1.320   4.720   2.474
 1261SOL     OW 3802   1.841   3.899   2.825
 1261SOL    HW1 3803   1.880   3.814   2.789
 1261SOL    HW2 3804   1.743   3.901   2.806
 1262SOL     OW 3805   0.263   4.050   2.582
 1262SOL    HW1 3806   0.184   4.101   2.548
 1262SOL    HW2 3807   0.254   4.035   2.680
 1263SOL     OW 3808   0.916   4.634   2.153
 1263SOL    HW1 3809   0.979   4.672   2.085
 1263SOL    HW2 3810   0.956   4.551   2.192
 1264SOL     OW 3811   1.014   3.960   2.833
 1264SOL    HW1 3812   1.006   3.924   2.740
 1264SOL    HW2 3813   1.012   3.884   2.898
 1265SOL     OW 3814   1.709   4.109   3.243
 1265SOL    HW1 3815   1.782   4.178   3.247
 1265SOL    HW2 3816   1.737   4.034   3.184
 1266SOL     OW 3817   0.105   4.737   3.588
 1266SOL    HW1 3818   0.028   4.704   3.642
 1266SOL    HW2 3819   0.190   4.707   3.630
 1267SOL     OW 3820   0.672   3.927   3.351
 1267SOL    HW1 3821   0.762   3.911   3.311
 1267SOL    HW2 3822   0.680   3.932   3.450
 1268SOL     OW 3823   0.075   4.069   1.895
 1268SOL    HW1 3824  -0.017   4.041   1.866
 1268SOL    HW2 3825   0.106   4.146   1.839
 1269SOL     OW 3826   1.440   4.580   3.260
 1269SOL    HW1 3827   1.383   4.632   3.197
 1269SOL    HW2 3828   1.536   4.592   3.236
 1270SOL     OW 3829   0.072   3.890   2.180
 1270SOL    HW1 3830   0.055   3.973   2.126
 1270SOL    HW2 3831   0.162   3.853   2.158
 1271SOL     OW 3832   0.613   4.566   3.293
 1271SOL    HW1 3833   0.669   4.647   3.276
 1271SOL    HW2 3834   0.672   4.486   3.296
 1272SOL     OW 3835   0.716   4.289   3.570
 1272SOL    HW1 3836   0.735   4.354   3.644
 1272SOL    HW2 3837   0.776   4.209   3.579
 1273SOL     OW 3838   1.674   4.607   3.116
 1273SOL    HW1 3839   1.647   4.518   3.079
 1273SOL    HW2 3840   1.675   4.675   3.043
 1274SOL     OW 3841   1.225   4.049   2.311
 1274SOL    HW1 3842   1.290   3.975   2.300
 1274SOL    HW2 3843   1.245   4.099   2.395
 1275SOL     OW 3844   0.594   4.469   2.514
 1275SOL    HW1 3845   0.644   4.554   2.495
 1275SOL    HW2 3846   0.506   4.471   2.466
 1276SOL     OW 3847   1.777   4.066   3.504
 1276SOL    HW1 3848   1.760   4.097   3.410
 1276SOL    HW2 3849   1.693   4.029   3.542
 1277SOL     OW 3850   1.730   4.658   3.379
 1277SOL    HW1 3851   1.768   4.749   3.394
 1277SOL    HW2 3852   1.722   4.641   3.280
 1278SOL     OW 3853   1.824   3.916   3.089
 1278SOL    HW1 3854   1.820   3.826   3.133
 1278SOL    HW2 3855   1.827   3.905   2.990
 1279SOL     OW 3856   0.428   4.148   2.382
 1279SOL    HW1 3857   0.458   4.076   2.320
 1279SOL    HW2 3858   0.389   4.108   2.465
 1280SOL     OW 3859   0.317   4.271   3.142
 1280SOL    HW1 3860   0.355   4.212   3.214
 1280SOL    HW2 3861   0.357   4.245   3.054
 1281SOL     OW 3862   1.424   3.938   2.974
 1281SOL    HW1 3863   1.476   3.873   3.029
 1281SOL    HW2 3864   1.375   4.001   3.035
 1282SOL     OW 3865   1.001   3.758   3.016
 1282SOL    HW1 3866   0.938   3.686   2.985
 1282SOL    HW2 3867   1.094   3.722   3.016
 1283SOL     OW 3868   1.352   3.776   2.030
 1283SOL    HW1 3869   1.387   3.735   1.946
 1283SOL    HW2 3870   1.262   3.738   2.050
 1284SOL     OW 3871   1.300   4.177   2.553
 1284SOL    HW1 3872   1.241   4.257   2.557
 1284SOL    HW2 3873   1.315   4.142   2.646
 1285SOL     OW 3874   1.593   3.945   2.744
 1285SOL    HW1 3875   1.509   3.944   2.798
 1285SOL    HW2 3876   1.595   4.028   2.688
 1286SOL     OW 3877   0.230   4.352   3.837
 1286SOL    HW1 3878   0.137   4.350   3.874
 1286SOL    HW2 3879   0.231   4.313   3.745
 1287SOL     OW 3880   0.019   4.092   4.371
 1287SOL    HW1 3881  -0.063   4.135   4.410
 1287SOL    HW2 3882  -0.009   4.019   4.308
 1288SOL     OW 3883   1.135   4.427   4.441
 1288SOL    HW1 3884   1.192   4.505   4.416
 1288SOL    HW2 3885   1.075   4.453   4.517
 1289SOL     OW 3886   1.755   4.331   3.955
 1289SOL    HW1 3887   1.743   4.318   3.856
 1289SOL    HW2 3888   1.725   4.250   4.004
 1290SOL     OW 3889   0.685   4.736   4.389
 1290SOL    HW1 3890   0.754   4.720   4.459
 1290SOL    HW2 3891   0.612   4.793   4.427
 1291SOL     OW 3892   1.603   4.171   4.461
 1291SOL    HW1 3893   1.529   4.217   4.411
 1291SOL    HW2 3894   1.654   4.239   4.514
 1292SOL     OW 3895   0.240   4.815   4.610
 1292SOL    HW1 3896   0.254   4.731   4.662
 1292SOL    HW2 3897   0.185   4.879   4.665
 1293SOL     OW 3898   0.122   4.367   4.287
 1293SOL    HW1 3899   0.077   4.279   4.304
 1293SOL    HW2 3900   0.121   4.421   4.371
 1294SOL     OW 3901   0.809   3.728   4.226
 1294SOL    HW1 3902   0.849   3.819   4.217
 1294SOL    HW2 3903   0.709   3.736   4.232
 1295SOL     OW 3904   1.525   4.723   3.914
 1295SOL    HW1 3905   1.462   4.647   3.927
 1295SOL    HW2 3906   1.573   4.741   4.000
 1296SOL     OW 3907   0.598   4.453   3.994
 1296SOL    HW1 3908   0.622   4.522   3.926
 1296SOL    HW2 3909   0.520   4.486   4.048
 1297SOL     OW 3910   1.281   4.069   4.668
 1297SOL    HW1 3911   1.195   4.019   4.655
 1297SOL    HW2 3912   1.343   4.015   4.724
 1298SOL     OW 3913   1.041   4.425   4.153
 1298SOL    HW1 3914   1.067   4.421   4.249
 1298SOL    HW2 3915   0.956   4.374   4.139
 1299SOL     OW 3916   0.076   4.535   4.513
 1299SOL    HW1 3917   0.175   4.523   4.522
 1299SOL    HW2 3918   0.052   4.630   4.534
 1300SOL     OW 3919   0.865   4.072   3.919
 1300SOL    HW1 3920   0.924   4.135   3.870
 1300SOL    HW2 3921   0.884   3.978   3.890
 1301SOL     OW 3922   0.550   3.920   4.609
 1301SOL    HW1 3923   0.545   3.915   4.709
 1301SOL    HW2 3924   0.552   4.016   4.580
 1302SOL     OW 3925   1.458   4.459   4.452
 1302SOL    HW1 3926   1.453   4.394   4.527
 1302SOL    HW2 3927   1.538   4.518   4.465
 1303SOL     OW 3928   1.400   3.831   4.150
 1303SOL    HW1 3929   1.376   3.794   4.060
 1303SOL    HW2 3930   1.499   3.847   4.154
 1304SOL     OW 3931   0.382   4.424   4.204
 1304SOL    HW1 3932   0.427   4.334   4.201
 1304SOL    HW2 3933   0.288   4.413   4.237
 1305SOL     OW 3934   0.614   3.846   3.841
 1305SOL    HW1 3935   0.712   3.824   3.848
 1305SOL    HW2 3936   0.583   3.829   3.748
 1306SOL     OW 3937   0.539   3.788   4.236
 1306SOL    HW1 3938   0.458   3.789   4.294
 1306SOL    HW2 3939   0.542   3.871   4.181
 1307SOL     OW 3940   0.297   3.759   3.895
 1307SOL    HW1 3941   0.346   3.843   3.874
 1307SOL    HW2 3942   0.359   3.694   3.940
 1308SOL     OW 3943   0.935   3.960   4.204
 1308SOL    HW1 3944   0.887   4.001   4.126
 1308SOL    HW2 3945   1.034   3.958   4.185
 1309SOL     OW 3946   1.032   4.273   3.740
 1309SOL    HW1 3947   0.991   4.355   3.701
 1309SOL    HW2 3948   1.096   4.299   3.813
 1310SOL     OW 3949   0.866   4.178   4.366
 1310SOL    HW1 3950   0.834   4.250   4.304
 1310SOL    HW2 3951   0.890   4.097   4.313
 1311SOL     OW 3952   1.017   3.763   4.477
 1311SOL    HW1 3953   0.945   3.768   4.408
 1311SOL    HW2 3954   0.993   3.694   4.546
 1312SOL     OW 3955   1.857   4.557   4.101
 1312SOL    HW1 3956   1.899   4.493   4.165
 1312SOL    HW2 3957   1.819   4.506   4.023
 1313SOL     OW 3958   1.390   4.299   3.802
 1313SOL    HW1 3959   1.336   4.278   3.883
 1313SOL    HW2 3960   1.481   4.258   3.811
 1314SOL     OW 3961   0.527   3.980   4.052
 1314SOL    HW1 3962   0.554   3.921   3.977
 1314SOL    HW2 3963   0.527   4.075   4.021
 1315SOL     OW 3964   1.111   4.919   4.824
 1315SOL    HW1 3965   1.071   4.963   4.905
 1315SOL    HW2 3966   1.070   4.956   4.741
 1316SOL     OW 3967   0.566   4.261   4.589
 1316SOL    HW1 3968   0.578   4.327   4.515
 1316SOL    HW2 3969   0.612   4.295   4.672
 1317SOL     OW 3970   1.582   4.363   4.196
 1317SOL    HW1 3971   1.551   4.424   4.269
 1317SOL    HW2 3972   1.632   4.415   4.127
 1318SOL     OW 3973   1.209   4.249   3.999
 1318SOL    HW1 3974   1.222   4.165   4.053
 1318SOL    HW2 3975   1.180   4.323   4.059
 1319SOL     OW 3976   0.732   4.358   4.788
 1319SOL    HW1 3977   0.791   4.332   4.712
 1319SOL    HW2 3978   0.704   4.454   4.777
 1320SOL     OW 3979   0.307   3.787   4.342
 1320SOL    HW1 3980   0.296   3.881   4.375
 1320SOL    HW2 3981   0.302   3.724   4.419
 1321SOL     OW 3982   1.622   4.091   4.098
 1321SOL    HW1 3983   1.624   4.015   4.162
 1321SOL    HW2 3984   1.574   4.168   4.138
 1322SOL     OW 3985   1.540   3.998   3.849
 1322SOL    HW1 3986   1.479   3.923   3.872
 1322SOL    HW2 3987   1.562   4.050   3.932
 1323SOL     OW 3988   1.303   4.562   3.766
 1323SOL    HW1 3989   1.337   4.469   3.781
 1323SOL    HW2 3990   1.321   4.589   3.671
 1324SOL     OW 3991   0.319   4.534   4.673
 1324SOL    HW1 3992   0.412   4.570   4.678
 1324SOL    HW2 3993   0.313   4.449   4.725
 1325SOL     OW 3994   0.815   4.296   4.049
 1325SOL    HW1 3995   0.822   4.207   4.003
 1325SOL    HW2 3996   0.721   4.330   4.041
 1326SOL     OW 3997   0.473   4.224   3.915
 1326SOL    HW1 3998   0.534   4.304   3.919
 1326SOL    HW2 3999   0.378   4.255   3.922
 1327SOL     OW 4000   1.302   4.579   4.033
 1327SOL    HW1 4001   1.216   4.548   4.075
 1327SOL    HW2 4002   1.298   4.565   3.934
 1328SOL     OW 4003   1.726   3.859   4.247
 1328SOL    HW1 4004   1.799   3.842   4.180
 1328SOL    HW2 4005   1.695   3.772   4.285
 1329SOL     OW 4006   1.280   4.651   4.396
 1329SOL    HW1 4007   1.340   4.570   4.398
 1329SOL    HW2 4008   1.320   4.720   4.336
 1330SOL     OW 4009   1.841   3.899   4.687
 1330SOL    HW1 4010   1.880   3.814   4.651
 1330SOL    HW2 4011   1.743   3.901   4.668
 1331SOL     OW 4012   0.263   4.050   4.444
 1331SOL    HW1 4013   0.184   4.101   4.410
 1331SOL    HW2 4014   0.254   4.035   4.542
 1332SOL     OW 4015   0.916   4.634   4.015
 1332SOL    HW1 4016   0.979   4.672   3.947
 1332SOL    HW2 4017   0.956   4.551   4.054
 1333SOL     OW 4018   0.075   4.069   3.757
 1333SOL    HW1 4019  -0.017   4.041   3.728
 1333SOL    HW2 4020   0.106   4.146   3.701
 1334SOL     OW 4021   0.072   3.890   4.042
 1334SOL    HW1 4022   0.055   3.973   3.988
 1334SOL    HW2 4023   0.162   3.853   4.020
 1335SOL     OW 4024   1.674   4.607   4.978
 1335SOL    HW1 4025   1.647   4.518   4.941
 1335SOL    HW2 4026   1.675   4.675   4.905
 1336SOL     OW 4027   1.225   4.049   4.173
 1336SOL    HW1 4028   1.290   3.975   4.162
 1336SOL    HW2 4029   1.245   4.099   4.257
 1337SOL     OW 4030   0.594   4.469   4.376
 1337SOL    HW1 4031   0.644   4.554   4.357
 1337SOL    HW2 4032   0.506   4.471   4.328
 1338SOL     OW 4033   0.428   4.148   4.244
 1338SOL    HW1 4034   0.458   4.076   4.182
 1338SOL    HW2 4035   0.389   4.108   4.327
 1339SOL     OW 4036   1.352   3.776   3.892
 1339SOL    HW1 4037   1.387   3.735   3.808
 1339SOL    HW2 4038   1.262   3.738   3.912
 1340SOL     OW 4039   1.300   4.177   4.415
 1340SOL    HW1 4040   1.241   4.257   4.419
 1340SOL    HW2 4041   1.315   4.142   4.508
 1341SOL     OW 4042   1.593   3.945   4.606
 1341SOL    HW1 4043   1.509   3.944   4.660
 1341SOL    HW2 4044   1.595   4.028   4.550
 1342SOL     OW 4045   2.092   0.628   0.113
 1342SOL    HW1 4046   1.999   0.626   0.150
 1342SOL    HW2 4047   2.093   0.589   0.021
 1343SOL     OW 4048   2.087   0.275   0.996
 1343SOL    HW1 4049   2.122   0.258   1.088
 1343SOL    HW2 4050   1.999   0.230   0.984
 1344SOL     OW 4051   1.881   0.368   0.647
 1344SOL    HW1 4052   1.799   0.411   0.686
 1344SOL    HW2 4053   1.853   0.295   0.584
 1345SOL     OW 4054   2.431   1.275   1.165
 1345SOL    HW1 4055   2.338   1.268   1.128
 1345SOL    HW2 4056   2.442   1.364   1.209
 1346SOL     OW 4057   3.417   1.511   0.703
 1346SOL    HW1 4058   3.360   1.495   0.784
 1346SOL    HW2 4059   3.358   1.521   0.623
 1347SOL     OW 4060   2.997   0.703   0.717
 1347SOL    HW1 4061   3.054   0.781   0.692
 1347SOL    HW2 4062   2.937   0.729   0.793
 1348SOL     OW 4063   3.617   0.607   0.231
 1348SOL    HW1 4064   3.605   0.594   0.132
 1348SOL    HW2 4065   3.587   0.526   0.280
 1349SOL     OW 4066   2.630   1.144   1.023
 1349SOL    HW1 4067   2.552   1.161   1.083
 1349SOL    HW2 4068   2.664   1.231   0.987
 1350SOL     OW 4069   2.712   0.798   1.823
 1350SOL    HW1 4070   2.708   0.874   1.888
 1350SOL    HW2 4071   2.734   0.834   1.732
 1351SOL     OW 4072   2.547   1.012   0.665
 1351SOL    HW1 4073   2.616   0.996   0.735
 1351SOL    HW2 4074   2.474   1.069   0.703
 1352SOL     OW 4075   2.548   1.161   1.803
 1352SOL    HW1 4076   2.608   1.240   1.817
 1352SOL    HW2 4077   2.462   1.192   1.762
 1353SOL     OW 4078   2.197   1.435   1.061
 1353SOL    HW1 4079   2.119   1.404   1.008
 1353SOL    HW2 4080   2.255   1.493   1.004
 1354SOL     OW 4081   3.322   1.505   1.339
 1354SOL    HW1 4082   3.346   1.599   1.365
 1354SOL    HW2 4083   3.306   1.451   1.421
 1355SOL     OW 4084   2.300   0.392   1.499
 1355SOL    HW1 4085   2.382   0.336   1.508
 1355SOL    HW2 4086   2.219   0.334   1.503
 1356SOL     OW 4087   3.465   0.447   0.737
 1356SOL    HW1 4088   3.391   0.493   0.687
 1356SOL    HW2 4089   3.516   0.515   0.790
 1357SOL     OW 4090   2.093   1.713   0.483
 1357SOL    HW1 4091   2.127   1.790   0.537
 1357SOL    HW2 4092   2.137   1.713   0.393
 1358SOL     OW 4093   2.989   1.341   1.690
 1358SOL    HW1 4094   3.036   1.341   1.778
 1358SOL    HW2 4095   2.941   1.254   1.679
 1359SOL     OW 4096   2.092   1.434   0.538
 1359SOL    HW1 4097   2.066   1.530   0.538
 1359SOL    HW2 4098   2.021   1.380   0.583
 1360SOL     OW 4099   2.102   1.091   0.886
 1360SOL    HW1 4100   2.116   1.007   0.938
 1360SOL    HW2 4101   2.047   1.155   0.941
 1361SOL     OW 4102   2.482   1.786   1.439
 1361SOL    HW1 4103   2.390   1.769   1.474
 1361SOL    HW2 4104   2.510   1.878   1.465
 1362SOL     OW 4105   2.468   0.964   0.123
 1362SOL    HW1 4106   2.475   1.048   0.069
 1362SOL    HW2 4107   2.514   0.977   0.211
 1363SOL     OW 4108   3.456   0.114   1.480
 1363SOL    HW1 4109   3.438   0.181   1.408
 1363SOL    HW2 4110   3.453   0.160   1.569
 1364SOL     OW 4111   1.984   0.643   0.563
 1364SOL    HW1 4112   1.939   0.555   0.580
 1364SOL    HW2 4113   1.983   0.697   0.647
 1365SOL     OW 4114   3.704   1.767   0.359
 1365SOL    HW1 4115   3.758   1.738   0.439
 1365SOL    HW2 4116   3.734   1.857   0.330
 1366SOL     OW 4117   3.551   0.922   0.612
 1366SOL    HW1 4118   3.646   0.893   0.620
 1366SOL    HW2 4119   3.543   0.987   0.537
 1367SOL     OW 4120   3.503   1.108   0.432
 1367SOL    HW1 4121   3.589   1.110   0.380
 1367SOL    HW2 4122   3.517   1.155   0.520
 1368SOL     OW 4123   1.975   0.737   1.597
 1368SOL    HW1 4124   2.063   0.724   1.642
 1368SOL    HW2 4125   1.962   0.834   1.575
 1369SOL     OW 4126   2.475   1.365   0.726
 1369SOL    HW1 4127   2.426   1.278   0.735
 1369SOL    HW2 4128   2.452   1.408   0.639
 1370SOL     OW 4129   3.155   1.228   1.423
 1370SOL    HW1 4130   3.192   1.155   1.365
 1370SOL    HW2 4131   3.207   1.233   1.508
 1371SOL     OW 4132   2.671   0.004   0.502
 1371SOL    HW1 4133   2.711   0.095   0.493
 1371SOL    HW2 4134   2.571   0.012   0.508
 1372SOL     OW 4135   2.059   0.976   1.264
 1372SOL    HW1 4136   2.148   0.931   1.250
 1372SOL    HW2 4137   1.986   0.911   1.245
 1373SOL     OW 4138   3.387   0.999   0.190
 1373SOL    HW1 4139   3.324   0.923   0.203
 1373SOL    HW2 4140   3.435   1.017   0.276
 1374SOL     OW 4141   3.049   1.792   1.616
 1374SOL    HW1 4142   3.073   1.852   1.540
 1374SOL    HW2 4143   3.056   1.697   1.586
 1375SOL     OW 4144   2.179   0.251   1.801
 1375SOL    HW1 4145   2.250   0.322   1.807
 1375SOL    HW2 4146   2.091   0.290   1.829
 1376SOL     OW 4147   3.328   1.417   0.953
 1376SOL    HW1 4148   3.269   1.423   1.033
 1376SOL    HW2 4149   3.313   1.329   0.907
 1377SOL     OW 4150   3.529   1.714   0.572
 1377SOL    HW1 4151   3.488   1.691   0.484
 1377SOL    HW2 4152   3.511   1.640   0.637
 1378SOL     OW 4153   2.460   0.729   0.270
 1378SOL    HW1 4154   2.484   0.798   0.202
 1378SOL    HW2 4155   2.382   0.762   0.324
 1379SOL     OW 4156   3.143   0.345   0.944
 1379SOL    HW1 4157   3.057   0.295   0.931
 1379SOL    HW2 4158   3.205   0.291   1.000
 1380SOL     OW 4159   3.438   1.662   0.307
 1380SOL    HW1 4160   3.527   1.708   0.310
 1380SOL    HW2 4161   3.417   1.638   0.212
 1381SOL     OW 4162   2.669   0.605   1.465
 1381SOL    HW1 4163   2.622   0.602   1.554
 1381SOL    HW2 4164   2.618   0.550   1.399
 1382SOL     OW 4165   3.256   0.469   1.674
 1382SOL    HW1 4166   3.236   0.512   1.762
 1382SOL    HW2 4167   3.334   0.407   1.683
 1383SOL     OW 4168   2.835   0.890   1.572
 1383SOL    HW1 4169   2.881   0.806   1.543
 1383SOL    HW2 4170   2.779   0.924   1.497
 1384SOL     OW 4171   2.853   0.410   1.242
 1384SOL    HW1 4172   2.776   0.444   1.296
 1384SOL    HW2 4173   2.819   0.359   1.163
 1385SOL     OW 4174   2.903   0.701   0.429
 1385SOL    HW1 4175   2.929   0.697   0.525
 1385SOL    HW2 4176   2.818   0.650   0.415
 1386SOL     OW 4177   1.938   0.811   0.789
 1386SOL    HW1 4178   2.037   0.799   0.798
 1386SOL    HW2 4179   1.914   0.906   0.810
 1387SOL     OW 4180   1.992   1.821   1.571
 1387SOL    HW1 4181   1.982   1.806   1.670
 1387SOL    HW2 4182   1.906   1.857   1.535
 1388SOL     OW 4183   2.727   0.348   0.195
 1388SOL    HW1 4184   2.786   0.411   0.146
 1388SOL    HW2 4185   2.746   0.254   0.166
 1389SOL     OW 4186   3.581   0.585   1.831
 1389SOL    HW1 4187   3.555   0.674   1.795
 1389SOL    HW2 4188   3.579   0.517   1.758
 1390SOL     OW 4189   3.224   1.144   0.545
 1390SOL    HW1 4190   3.307   1.115   0.497
 1390SOL    HW2 4191   3.175   1.211   0.489
 1391SOL     OW 4192   2.412   0.196   0.885
 1391SOL    HW1 4193   2.407   0.191   0.985
 1391SOL    HW2 4194   2.414   0.292   0.856
 1392SOL     OW 4195   2.870   1.456   0.477
 1392SOL    HW1 4196   2.824   1.528   0.425
 1392SOL    HW2 4197   2.866   1.476   0.575
 1393SOL     OW 4198   2.213   1.801   0.853
 1393SOL    HW1 4199   2.263   1.715   0.859
 1393SOL    HW2 4200   2.278   1.878   0.850
 1394SOL     OW 4201   3.657   1.066   0.873
 1394SOL    HW1 4202   3.595   1.051   0.797
 1394SOL    HW2 4203   3.605   1.077   0.958
 1395SOL     OW 4204   3.089   1.550   1.506
 1395SOL    HW1 4205   3.095   1.473   1.570
 1395SOL    HW2 4206   3.037   1.524   1.426
 1396SOL     OW 4207   2.183   0.943   0.242
 1396SOL    HW1 4208   2.265   0.982   0.200
 1396SOL    HW2 4209   2.156   0.861   0.193
 1397SOL     OW 4210   3.320   0.735   0.728
 1397SOL    HW1 4211   3.315   0.670   0.803
 1397SOL    HW2 4212   3.400   0.794   0.741
 1398SOL     OW 4213   2.323   1.266   1.727
 1398SOL    HW1 4214   2.273   1.267   1.641
 1398SOL    HW2 4215   2.260   1.248   1.803
 1399SOL     OW 4216   2.973   1.776   0.237
 1399SOL    HW1 4217   2.913   1.714   0.287
 1399SOL    HW2 4218   3.004   1.732   0.152
 1400SOL     OW 4219   2.064   0.285   1.498
 1400SOL    HW1 4220   1.984   0.345   1.485
 1400SOL    HW2 4221   2.054   0.236   1.584
 1401SOL     OW 4222   3.494   1.377   0.081
 1401SOL    HW1 4223   3.462   1.471   0.071
 1401SOL    HW2 4224   3.418   1.314   0.069
 1402SOL     OW 4225   2.326   1.743   0.323
 1402SOL    HW1 4226   2.359   1.782   0.409
 1402SOL    HW2 4227   2.402   1.736   0.258
 1403SOL     OW 4228   3.262   0.107   0.426
 1403SOL    HW1 4229   3.238   0.070   0.336
 1403SOL    HW2 4230   3.361   0.123   0.430
 1404SOL     OW 4231   2.111   1.785   1.241
 1404SOL    HW1 4232   2.168   1.720   1.291
 1404SOL    HW2 4233   2.095   1.752   1.148
 1405SOL     OW 4234   2.802   1.698   0.904
 1405SOL    HW1 4235   2.882   1.641   0.925
 1405SOL    HW2 4236   2.753   1.658   0.827
 1406SOL     OW 4237   2.244   0.700   0.480
 1406SOL    HW1 4238   2.289   0.610   0.477
 1406SOL    HW2 4239   2.150   0.689   0.513
 1407SOL     OW 4240   3.409   0.222   1.729
 1407SOL    HW1 4241   3.404   0.259   1.821
 1407SOL    HW2 4242   3.337   0.153   1.717
 1408SOL     OW 4243   2.476   0.122   0.117
 1408SOL    HW1 4244   2.574   0.100   0.124
 1408SOL    HW2 4245   2.445   0.105   0.024
 1409SOL     OW 4246   2.643   0.264   1.749
 1409SOL    HW1 4247   2.710   0.203   1.792
 1409SOL    HW2 4248   2.570   0.283   1.814
 1410SOL     OW 4249   2.750   1.514   1.195
 1410SOL    HW1 4250   2.727   1.489   1.101
 1410SOL    HW2 4251   2.811   1.445   1.234
 1411SOL     OW 4252   3.213   0.590   1.433
 1411SOL    HW1 4253   3.241   0.547   1.518
 1411SOL    HW2 4254   3.238   0.686   1.434
 1412SOL     OW 4255   2.665   1.402   0.924
 1412SOL    HW1 4256   2.755   1.416   0.882
 1412SOL    HW2 4257   2.594   1.404   0.853
 1413SOL     OW 4258   2.784   0.503   0.899
 1413SOL    HW1 4259   2.759   0.494   0.803
 1413SOL    HW2 4260   2.832   0.421   0.930
 1414SOL     OW 4261   2.401   0.064   0.512
 1414SOL    HW1 4262   2.320   0.065   0.570
 1414SOL    HW2 4263   2.404   0.147   0.457
 1415SOL     OW 4264   3.296   1.188   0.041
 1415SOL    HW1 4265   3.328   1.112   0.098
 1415SOL    HW2 4266   3.204   1.215   0.071
 1416SOL     OW 4267   2.159   0.035   0.171
 1416SOL    HW1 4268   2.208   0.119   0.150
 1416SOL    HW2 4269   2.221  -0.030   0.216
 1417SOL     OW 4270   2.797   0.236   0.480
 1417SOL    HW1 4271   2.749   0.277   0.402
 1417SOL    HW2 4272   2.896   0.234   0.461
 1418SOL     OW 4273   2.938   0.683   1.464
 1418SOL    HW1 4274   2.858   0.622   1.467
 1418SOL    HW2 4275   3.019   0.630   1.440
 1419SOL     OW 4276   3.089   1.570   0.793
 1419SOL    HW1 4277   3.110   1.644   0.728
 1419SOL    HW2 4278   3.157   1.570   0.866
 1420SOL     OW 4279   2.321   1.152   0.741
 1420SOL    HW1 4280   2.250   1.125   0.806
 1420SOL    HW2 4281   2.295   1.124   0.648
 1421SOL     OW 4282   3.133   1.797   0.591
 1421SOL    HW1 4283   3.177   1.861   0.527
 1421SOL    HW2 4284   3.083   1.849   0.661
 1422SOL     OW 4285   2.894   0.549   0.016
 1422SOL    HW1 4286   2.853   0.631  -0.023
 1422SOL    HW2 4287   2.958   0.575   0.089
 1423SOL     OW 4288   1.940   0.556   1.386
 1423SOL    HW1 4289   2.032   0.555   1.345
 1423SOL    HW2 4290   1.934   0.630   1.453
 1424SOL     OW 4291   2.423   0.222   1.147
 1424SOL    HW1 4292   2.461   0.138   1.184
 1424SOL    HW2 4293   2.335   0.241   1.191
 1425SOL     OW 4294   2.728   0.454   0.642
 1425SOL    HW1 4295   2.696   0.526   0.580
 1425SOL    HW2 4296   2.752   0.373   0.589
 1426SOL     OW 4297   2.879   0.039   0.753
 1426SOL    HW1 4298   2.807   0.044   0.684
 1426SOL    HW2 4299   2.855  -0.030   0.822
 1427SOL     OW 4300   3.291   1.173   0.867
 1427SOL    HW1 4301   3.236   1.089   0.860
 1427SOL    HW2 4302   3.317   1.202   0.775
 1428SOL     OW 4303   3.328   0.590   0.992
 1428SOL    HW1 4304   3.298   0.495   0.999
 1428SOL    HW2 4305   3.401   0.606   1.058
 1429SOL     OW 4306   3.719   0.833   0.377
 1429SOL    HW1 4307   3.761   0.769   0.441
 1429SOL    HW2 4308   3.681   0.782   0.299
 1430SOL     OW 4309   2.350   1.385   0.174
 1430SOL    HW1 4310   2.263   1.370   0.221
 1430SOL    HW2 4311   2.333   1.411   0.079
 1431SOL     OW 4312   3.526   1.280   0.657
 1431SOL    HW1 4313   3.625   1.288   0.671
 1431SOL    HW2 4314   3.481   1.364   0.688
 1432SOL     OW 4315   3.252   0.575   0.078
 1432SOL    HW1 4316   3.198   0.554   0.159
 1432SOL    HW2 4317   3.343   0.534   0.087
 1433SOL     OW 4318   2.389   0.256   0.328
 1433SOL    HW1 4319   2.416   0.197   0.253
 1433SOL    HW2 4320   2.389   0.351   0.297
 1434SOL     OW 4321   3.616   1.223   1.588
 1434SOL    HW1 4322   3.707   1.184   1.575
 1434SOL    HW2 4323   3.624   1.319   1.612
 1435SOL     OW 4324   2.926   1.347   1.340
 1435SOL    HW1 4325   2.846   1.324   1.395
 1435SOL    HW2 4326   3.009   1.321   1.389
 1436SOL     OW 4327   3.454   1.629   1.625
 1436SOL    HW1 4328   3.481   1.663   1.535
 1436SOL    HW2 4329   3.533   1.591   1.671
 1437SOL     OW 4330   2.973   1.195   1.100
 1437SOL    HW1 4331   2.933   1.239   1.181
 1437SOL    HW2 4332   2.932   1.232   1.017
 1438SOL     OW 4333   3.500   1.099   1.079
 1438SOL    HW1 4334   3.505   1.180   1.138
 1438SOL    HW2 4335   3.414   1.101   1.028
 1439SOL     OW 4336   2.777   0.089   1.402
 1439SOL    HW1 4337   2.802   0.069   1.307
 1439SOL    HW2 4338   2.849   0.145   1.444
 1440SOL     OW 4339   2.842   1.116   1.719
 1440SOL    HW1 4340   2.743   1.122   1.729
 1440SOL    HW2 4341   2.865   1.036   1.663
 1441SOL     OW 4342   2.567   1.050   0.368
 1441SOL    HW1 4343   2.553   1.057   0.467
 1441SOL    HW2 4344   2.651   0.999   0.350
 1442SOL     OW 4345   2.272   0.813   1.251
 1442SOL    HW1 4346   2.358   0.825   1.301
 1442SOL    HW2 4347   2.230   0.726   1.278
 1443SOL     OW 4348   3.136   0.386   1.262
 1443SOL    HW1 4349   3.157   0.460   1.326
 1443SOL    HW2 4350   3.047   0.403   1.219
 1444SOL     OW 4351   1.926   1.564   1.331
 1444SOL    HW1 4352   1.880   1.646   1.297
 1444SOL    HW2 4353   2.024   1.583   1.340
 1445SOL     OW 4354   2.229   1.100   0.501
 1445SOL    HW1 4355   2.222   1.183   0.445
 1445SOL    HW2 4356   2.233   1.020   0.441
 1446SOL     OW 4357   2.428   0.537   0.865
 1446SOL    HW1 4358   2.440   0.603   0.791
 1446SOL    HW2 4359   2.474   0.571   0.948
 1447SOL     OW 4360   3.114   1.348   0.388
 1447SOL    HW1 4361   3.164   1.425   0.428
 1447SOL    HW2 4362   3.019   1.350   0.420
 1448SOL     OW 4363   3.134   1.445   1.142
 1448SOL    HW1 4364   3.181   1.458   1.229
 1448SOL    HW2 4365   3.068   1.371   1.151
 1449SOL     OW 4366   3.444   0.639   0.472
 1449SOL    HW1 4367   3.413   0.700   0.545
 1449SOL    HW2 4368   3.494   0.691   0.403
 1450SOL     OW 4369   2.216   1.510   1.329
 1450SOL    HW1 4370   2.195   1.466   1.242
 1450SOL    HW2 4371   2.313   1.536   1.332
 1451SOL     OW 4372   2.264   0.751   1.598
 1451SOL    HW1 4373   2.332   0.806   1.551
 1451SOL    HW2 4374   2.304   0.663   1.625
 1452SOL     OW 4375   3.449   0.779   1.670
 1452SOL    HW1 4376   3.357   0.817   1.665
 1452SOL    HW2 4377   3.509   0.826   1.605
 1453SOL     OW 4378   2.875   0.105   1.770
 1453SOL    HW1 4379   2.881   0.190   1.718
 1453SOL    HW2 4380   2.907   0.029   1.713
 1454SOL     OW 4381   2.366   0.050   1.740
 1454SOL    HW1 4382   2.324  -0.007   1.670
 1454SOL    HW2 4383   2.300   0.119   1.772
 1455SOL     OW 4384   2.435   0.870   1.029
 1455SOL    HW1 4385   2.479   0.959   1.020
 1455SOL    HW2 4386   2.372   0.870   1.106
 1456SOL     OW 4387   3.222   0.862   1.045
 1456SOL    HW1 4388   3.147   0.862   0.979
 1456SOL    HW2 4389   3.259   0.770   1.054
 1457SOL     OW 4390   3.071   0.525   0.275
 1457SOL    HW1 4391   3.084   0.441   0.329
 1457SOL    HW2 4392   3.042   0.599   0.335
 1458SOL     OW 4393   2.169   0.213   1.231
 1458SOL    HW1 4394   2.146   0.250   1.321
 1458SOL    HW2 4395   2.139   0.118   1.225
 1459SOL     OW 4396   1.899   1.310   1.282
 1459SOL    HW1 4397   1.952   1.261   1.350
 1459SOL    HW2 4398   1.921   1.408   1.287
 1460SOL     OW 4399   2.594   0.634   1.064
 1460SOL    HW1 4400   2.653   0.608   0.988
 1460SOL    HW2 4401   2.566   0.730   1.053
 1461SOL     OW 4402   3.590   0.935   1.854
 1461SOL    HW1 4403   3.544   0.928   1.765
 1461SOL    HW2 4404   3.528   0.979   1.920
 1462SOL     OW 4405   2.169   0.063   0.618
 1462SOL    HW1 4406   2.158   0.157   0.651
 1462SOL    HW2 4407   2.164   0.000   0.695
 1463SOL     OW 4408   3.484   0.367   0.374
 1463SOL    HW1 4409   3.486   0.291   0.438
 1463SOL    HW2 4410   3.436   0.444   0.414
 1464SOL     OW 4411   2.885   0.766   0.966
 1464SOL    HW1 4412   2.900   0.787   1.062
 1464SOL    HW2 4413   2.855   0.671   0.957
 1465SOL     OW 4414   2.842   1.573   1.700
 1465SOL    HW1 4415   2.822   1.617   1.612
 1465SOL    HW2 4416   2.881   1.482   1.684
 1466SOL     OW 4417   3.721   1.518   1.605
 1466SOL    HW1 4418   3.735   1.545   1.510
 1466SOL    HW2 4419   3.804   1.540   1.658
 1467SOL     OW 4420   2.212   0.898   1.804
 1467SOL    HW1 4421   2.288   0.942   1.852
 1467SOL    HW2 4422   2.247   0.851   1.722
 1468SOL     OW 4423   3.402   0.274   0.125
 1468SOL    HW1 4424   3.341   0.199   0.148
 1468SOL    HW2 4425   3.424   0.326   0.208
 1469SOL     OW 4426   3.165   0.838   0.042
 1469SOL    HW1 4427   3.199   0.745   0.057
 1469SOL    HW2 4428   3.183   0.865  -0.053
 1470SOL     OW 4429   2.930   1.333   0.849
 1470SOL    HW1 4430   2.937   1.249   0.794
 1470SOL    HW2 4431   2.992   1.402   0.813
 1471SOL     OW 4432   2.181   0.810   0.949
 1471SOL    HW1 4433   2.274   0.846   0.954
 1471SOL    HW2 4434   2.175   0.725   1.001
 1472SOL     OW 4435   2.201   0.509   1.006
 1472SOL    HW1 4436   2.149   0.426   0.989
 1472SOL    HW2 4437   2.278   0.514   0.942
 1473SOL     OW 4438   3.000   0.380   1.678
 1473SOL    HW1 4439   2.955   0.443   1.742
 1473SOL    HW2 4440   3.093   0.411   1.661
 1474SOL     OW 4441   3.022   0.207   1.477
 1474SOL    HW1 4442   3.022   0.271   1.554
 1474SOL    HW2 4443   3.050   0.255   1.394
 1475SOL     OW 4444   1.870   1.326   0.200
 1475SOL    HW1 4445   1.777   1.347   0.169
 1475SOL    HW2 4446   1.880   1.227   0.213
 1476SOL     OW 4447   1.950   1.801   0.927
 1476SOL    HW1 4448   1.908   1.715   0.900
 1476SOL    HW2 4449   2.044   1.804   0.893
 1477SOL     OW 4450   2.366   1.568   0.910
 1477SOL    HW1 4451   2.432   1.642   0.919
 1477SOL    HW2 4452   2.410   1.489   0.868
 1478SOL     OW 4453   2.864   0.796   1.238
 1478SOL    HW1 4454   2.905   0.764   1.324
 1478SOL    HW2 4455   2.768   0.769   1.235
 1479SOL     OW 4456   1.902   0.544   1.114
 1479SOL    HW1 4457   1.987   0.511   1.073
 1479SOL    HW2 4458   1.915   0.559   1.212
 1480SOL     OW 4459   2.051   0.520   1.722
 1480SOL    HW1 4460   2.110   0.480   1.652
 1480SOL    HW2 4461   1.993   0.591   1.681
 1481SOL     OW 4462   3.231   0.950   1.660
 1481SOL    HW1 4463   3.270   1.039   1.680
 1481SOL    HW2 4464   3.241   0.930   1.563
 1482SOL     OW 4465   2.677   0.572   0.325
 1482SOL    HW1 4466   2.684   0.483   0.279
 1482SOL    HW2 4467   2.583   0.606   0.317
 1483SOL     OW 4468   3.519   0.604   1.206
 1483SOL    HW1 4469   3.481   0.535   1.268
 1483SOL    HW2 4470   3.601   0.568   1.162
 1484SOL     OW 4471   2.114   1.564   1.744
 1484SOL    HW1 4472   2.084   1.621   1.820
 1484SOL    HW2 4473   2.107   1.467   1.770
 1485SOL     OW 4474   2.533   0.464   1.269
 1485SOL    HW1 4475   2.499   0.375   1.239
 1485SOL    HW2 4476   2.559   0.518   1.189
 1486SOL     OW 4477   2.792   1.678   1.465
 1486SOL    HW1 4478   2.768   1.660   1.370
 1486SOL    HW2 4479   2.822   1.772   1.475
 1487SOL     OW 4480   2.335   0.500   0.191
 1487SOL    HW1 4481   2.396   0.580   0.195
 1487SOL    HW2 4482   2.240   0.531   0.198
 1488SOL     OW 4483   2.021   1.137   1.466
 1488SOL    HW1 4484   2.043   1.076   1.542
 1488SOL    HW2 4485   2.031   1.088   1.380
 1489SOL     OW 4486   3.209   1.059   1.234
 1489SOL    HW1 4487   3.233   0.996   1.160
 1489SOL    HW2 4488   3.119   1.099   1.216
 1490SOL     OW 4489   3.164   0.855   0.309
 1490SOL    HW1 4490   3.078   0.824   0.351
 1490SOL    HW2 4491   3.160   0.841   0.210
 1491SOL     OW 4492   3.621   1.747   1.154
 1491SOL    HW1 4493   3.682   1.777   1.081
 1491SOL    HW2 4494   3.583   1.658   1.132
 1492SOL     OW 4495   3.114   1.731   1.128
 1492SOL    HW1 4496   3.198   1.736   1.074
 1492SOL    HW2 4497   3.091   1.635   1.146
 1493SOL     OW 4498   1.945   1.258   1.022
 1493SOL    HW1 4499   1.940   1.257   1.122
 1493SOL    HW2 4500   1.862   1.217   0.984
 1494SOL     OW 4501   2.550   1.662   1.716
 1494SOL    HW1 4502   2.494   1.743   1.725
 1494SOL    HW2 4503   2.602   1.666   1.630
 1495SOL     OW 4504   2.765   0.086   0.133
 1495SOL    HW1 4505   2.816   0.087   0.047
 1495SOL    HW2 4506   2.821   0.044   0.204
 1496SOL     OW 4507   3.588   0.135   0.523
 1496SOL    HW1 4508   3.661   0.118   0.456
 1496SOL    HW2 4509   3.557   0.048   0.561
 1497SOL     OW 4510   3.250   1.573   0.477
 1497SOL    HW1 4511   3.317   1.585   0.403
 1497SOL    HW2 4512   3.210   1.662   0.500
 1498SOL     OW 4513   1.992   1.794   1.851
 1498SOL    HW1 4514   1.951   1.720   1.904
 1498SOL    HW2 4515   2.056   1.845   1.909
 1499SOL     OW 4516   3.142   0.927   0.672
 1499SOL    HW1 4517   3.202   0.846   0.674
 1499SOL    HW2 4518   3.182   0.996   0.612
 1500SOL     OW 4519   2.692   1.273   1.422
 1500SOL    HW1 4520   2.687   1.306   1.517
 1500SOL    HW2 4521   2.606   1.292   1.376
 1501SOL     OW 4522   2.534   1.616   0.154
 1501SOL    HW1 4523   2.543   1.626   0.055
 1501SOL    HW2 4524   2.494   1.527   0.175
 1502SOL     OW 4525   3.512   1.720   1.394
 1502SOL    HW1 4526   3.565   1.730   1.310
 1502SOL    HW2 4527   3.485   1.810   1.428
 1503SOL     OW 4528   3.703   0.175   0.963
 1503SOL    HW1 4529   3.742   0.090   0.927
 1503SOL    HW2 4530   3.605   0.177   0.944
 1504SOL     OW 4531   2.125   0.326   0.720
 1504SOL    HW1 4532   2.046   0.377   0.686
 1504SOL    HW2 4533   2.116   0.311   0.818
 1505SOL     OW 4534   3.056   1.612   0.031
 1505SOL    HW1 4535   3.062   1.519   0.068
 1505SOL    HW2 4536   2.997   1.612  -0.049
 1506SOL     OW 4537   2.684   1.002   1.372
 1506SOL    HW1 4538   2.724   1.001   1.280
 1506SOL    HW2 4539   2.694   1.094   1.412
 1507SOL     OW 4540   2.778   0.910   0.291
 1507SOL    HW1 4541   2.841   0.948   0.223
 1507SOL    HW2 4542   2.818   0.827   0.330
 1508SOL     OW 4543   3.366   1.607   0.044
 1508SOL    HW1 4544   3.274   1.644   0.051
 1508SOL    HW2 4545   3.404   1.627  -0.046
 1509SOL     OW 4546   2.234   1.288   1.490
 1509SOL    HW1 4547   2.221   1.381   1.456
 1509SOL    HW2 4548   2.150   1.236   1.477
 1510SOL     OW 4549   3.476   1.292   1.289
 1510SOL    HW1 4550   3.536   1.295   1.369
 1510SOL    HW2 4551   3.401   1.356   1.302
 1511SOL     OW 4552   2.901   1.098   0.696
 1511SOL    HW1 4553   2.831   1.051   0.750
 1511SOL    HW2 4554   2.960   1.030   0.653
 1512SOL     OW 4555   2.876   0.236   0.971
 1512SOL    HW1 4556   2.868   0.200   0.878
 1512SOL    HW2 4557   2.874   0.160   1.036
 1513SOL     OW 4558   2.452   1.487   0.491
 1513SOL    HW1 4559   2.494   1.429   0.421
 1513SOL    HW2 4560   2.408   1.566   0.447
 1514SOL     OW 4561   3.571   0.385   1.381
 1514SOL    HW1 4562   3.644   0.454   1.385
 1514SOL    HW2 4563   3.599   0.310   1.322
 1515SOL     OW 4564   2.117   1.348   0.290
 1515SOL    HW1 4565   2.021   1.349   0.263
 1515SOL    HW2 4566   2.129   1.401   0.374
 1516SOL     OW 4567   1.967   1.013   1.726
 1516SOL    HW1 4568   1.890   0.980   1.780
 1516SOL    HW2 4569   2.052   0.983   1.768
 1517SOL     OW 4570   2.534   0.203   1.489
 1517SOL    HW1 4571   2.624   0.187   1.449
 1517SOL    HW2 4572   2.542   0.208   1.588
 1518SOL     OW 4573   3.302   0.856   1.398
 1518SOL    HW1 4574   3.245   0.908   1.335
 1518SOL    HW2 4575   3.398   0.868   1.374
 1519SOL     OW 4576   3.045   1.335   0.119
 1519SOL    HW1 4577   2.946   1.324   0.121
 1519SOL    HW2 4578   3.079   1.350   0.212
 1520SOL     OW 4579   2.475   0.842   1.431
 1520SOL    HW1 4580   2.531   0.923   1.414
 1520SOL    HW2 4581   2.534   0.762   1.434
 1521SOL     OW 4582   3.355   1.767   0.959
 1521SOL    HW1 4583   3.388   1.831   0.890
 1521SOL    HW2 4584   3.421   1.761   1.034
 1522SOL     OW 4585   2.578   0.565   1.708
 1522SOL    HW1 4586   2.597   0.630   1.782
 1522SOL    HW2 4587   2.638   0.485   1.717
 1523SOL     OW 4588   3.312   1.220   1.633
 1523SOL    HW1 4589   3.303   1.210   1.732
 1523SOL    HW2 4590   3.408   1.213   1.607
 1524SOL     OW 4591   2.252   1.741   1.560
 1524SOL    HW1 4592   2.161   1.782   1.558
 1524SOL    HW2 4593   2.245   1.647   1.592
 1525SOL     OW 4594   3.536   0.883   1.254
 1525SOL    HW1 4595   3.509   0.794   1.217
 1525SOL    HW2 4596   3.537   0.951   1.181
 1526SOL     OW 4597   3.087   0.325   0.449
 1526SOL    HW1 4598   3.152   0.251   0.438
 1526SOL    HW2 4599   3.107   0.375   0.533
 1527SOL     OW 4600   2.456   0.745   0.652
 1527SOL    HW1 4601   2.506   0.830   0.633
 1527SOL    HW2 4602   2.368   0.747   0.604
 1528SOL     OW 4603   3.639   0.342   1.642
 1528SOL    HW1 4604   3.622   0.373   1.548
 1528SOL    HW2 4605   3.555   0.305   1.680
 1529SOL     OW 4606   3.592   0.934   1.517
 1529SOL    HW1 4607   3.630   1.025   1.532
 1529SOL    HW2 4608   3.584   0.917   1.418
 1530SOL     OW 4609   2.721   1.374   0.016
 1530SOL    HW1 4610   2.675   1.389   0.104
 1530SOL    HW2 4611   2.765   1.459  -0.014
 1531SOL     OW 4612   2.523   1.790   0.953
 1531SOL    HW1 4613   2.477   1.878   0.940
 1531SOL    HW2 4614   2.622   1.802   0.946
 1532SOL     OW 4615   2.721   0.956   0.861
 1532SOL    HW1 4616   2.775   0.887   0.909
 1532SOL    HW2 4617   2.689   1.025   0.927
 1533SOL     OW 4618   2.945   0.984   0.087
 1533SOL    HW1 4619   2.922   1.037   0.005
 1533SOL    HW2 4620   3.026   0.928   0.068
 1534SOL     OW 4621   3.723   1.569   0.851
 1534SOL    HW1 4622   3.652   1.557   0.781
 1534SOL    HW2 4623   3.724   1.490   0.911
 1535SOL     OW 4624   2.083   1.314   1.844
 1535SOL    HW1 4625   2.018   1.241   1.823
 1535SOL    HW2 4626   2.087   1.328   1.942
 1536SOL     OW 4627   1.941   1.240   0.653
 1536SOL    HW1 4628   1.940   1.193   0.741
 1536SOL    HW2 4629   2.023   1.212   0.602
 1537SOL     OW 4630   2.534   1.391   1.624
 1537SOL    HW1 4631   2.456   1.341   1.662
 1537SOL    HW2 4632   2.531   1.486   1.655
 1538SOL     OW 4633   3.686   0.192   1.227
 1538SOL    HW1 4634   3.682   0.102   1.271
 1538SOL    HW2 4635   3.689   0.181   1.128
 1539SOL     OW 4636   2.290   0.424   0.520
 1539SOL    HW1 4637   2.320   0.352   0.458
 1539SOL    HW2 4638   2.251   0.384   0.603
 1540SOL     OW 4639   3.567   1.487   1.104
 1540SOL    HW1 4640   3.474   1.462   1.077
 1540SOL    HW2 4641   3.593   1.437   1.186
 1541SOL     OW 4642   2.179   0.547   1.280
 1541SOL    HW1 4643   2.217   0.488   1.352
 1541SOL    HW2 4644   2.219   0.521   1.192
 1542SOL     OW 4645   2.674   1.586   0.687
 1542SOL    HW1 4646   2.706   1.596   0.593
 1542SOL    HW2 4647   2.595   1.524   0.689
 1543SOL     OW 4648   3.286   0.214   1.112
 1543SOL    HW1 4649   3.338   0.149   1.167
 1543SOL    HW2 4650   3.237   0.277   1.173
 1544SOL     OW 4651   2.863   0.034   1.154
 1544SOL    HW1 4652   2.800  -0.038   1.123
 1544SOL    HW2 4653   2.956  -0.002   1.154
 1545SOL     OW 4654   2.632   1.330   0.301
 1545SOL    HW1 4655   2.586   1.243   0.318
 1545SOL    HW2 4656   2.723   1.327   0.342
 1546SOL     OW 4657   2.480   1.567   1.284
 1546SOL    HW1 4658   2.475   1.649   1.341
 1546SOL    HW2 4659   2.569   1.564   1.239
 1547SOL     OW 4660   3.214   0.052   0.168
 1547SOL    HW1 4661   3.249   0.011   0.084
 1547SOL    HW2 4662   3.124   0.014   0.188
 1548SOL     OW 4663   3.162   0.453   0.691
 1548SOL    HW1 4664   3.103   0.533   0.695
 1548SOL    HW2 4665   3.177   0.418   0.784
 1549SOL     OW 4666   3.455   0.221   0.882
 1549SOL    HW1 4667   3.371   0.220   0.936
 1549SOL    HW2 4668   3.457   0.304   0.826
 1550SOL     OW 4669   1.901   1.077   0.300
 1550SOL    HW1 4670   2.000   1.066   0.291
 1550SOL    HW2 4671   1.861   0.991   0.332
 1551SOL     OW 4672   2.737   1.646   0.337
 1551SOL    HW1 4673   2.660   1.611   0.283
 1551SOL    HW2 4674   2.705   1.717   0.399
 1552SOL     OW 4675   2.092   0.628   1.975
 1552SOL    HW1 4676   1.999   0.626   2.012
 1552SOL    HW2 4677   2.093   0.589   1.883
 1553SOL     OW 4678   2.087   0.275   2.858
 1553SOL    HW1 4679   2.122   0.258   2.950
 1553SOL    HW2 4680   1.999   0.230   2.846
 1554SOL     OW 4681   1.881   0.368   2.509
 1554SOL    HW1 4682   1.799   0.411   2.548
 1554SOL    HW2 4683   1.853   0.295   2.446
 1555SOL     OW 4684   2.431   1.275   3.027
 1555SOL    HW1 4685   2.338   1.268   2.990
 1555SOL    HW2 4686   2.442   1.364   3.071
 1556SOL     OW 4687   3.417   1.511   2.565
 1556SOL    HW1 4688   3.360   1.495   2.646
 1556SOL    HW2 4689   3.358   1.521   2.485
 1557SOL     OW 4690   2.997   0.703   2.579
 1557SOL    HW1 4691   3.054   0.781   2.554
 1557SOL    HW2 4692   2.937   0.729   2.655
 1558SOL     OW 4693   3.617   0.607   2.093
 1558SOL    HW1 4694   3.605   0.594   1.994
 1558SOL    HW2 4695   3.587   0.526   2.142
 1559SOL     OW 4696   2.630   1.144   2.885
 1559SOL    HW1 4697   2.552   1.161   2.945
 1559SOL    HW2 4698   2.664   1.231   2.849
 1560SOL     OW 4699   2.712   0.798   3.685
 1560SOL    HW1 4700   2.708   0.874   3.750
 1560SOL    HW2 4701   2.734   0.834   3.594
 1561SOL     OW 4702   2.547   1.012   2.527
 1561SOL    HW1 4703   2.616   0.996   2.597
 1561SOL    HW2 4704   2.474   1.069   2.565
 1562SOL     OW 4705   2.548   1.161   3.665
 1562SOL    HW1 4706   2.608   1.240   3.679
 1562SOL    HW2 4707   2.462   1.192   3.624
 1563SOL     OW 4708   2.197   1.435   2.923
 1563SOL    HW1 4709   2.119   1.404   2.870
 1563SOL    HW2 4710   2.255   1.493   2.866
 1564SOL     OW 4711   3.322   1.505   3.201
 1564SOL    HW1 4712   3.346   1.599   3.227
 1564SOL    HW2 4713   3.306   1.451   3.283
 1565SOL     OW 4714   2.300   0.392   3.361
 1565SOL    HW1 4715   2.382   0.336   3.370
 1565SOL    HW2 4716   2.219   0.334   3.365
 1566SOL     OW 4717   3.465   0.447   2.599
 1566SOL    HW1 4718   3.391   0.493   2.549
 1566SOL    HW2 4719   3.516   0.515   2.652
 1567SOL     OW 4720   2.093   1.713   2.345
 1567SOL    HW1 4721   2.127   1.790   2.399
 1567SOL    HW2 4722   2.137   1.713   2.255
 1568SOL     OW 4723   2.989   1.341   3.552
 1568SOL    HW1 4724   3.036   1.341   3.640
 1568SOL    HW2 4725   2.941   1.254   3.541
 1569SOL     OW 4726   2.092   1.434   2.400
 1569SOL    HW1 4727   2.066   1.530   2.400
 1569SOL    HW2 4728   2.021   1.380   2.445
 1570SOL     OW 4729   2.102   1.091   2.748
 1570SOL    HW1 4730   2.116   1.007   2.800
 1570SOL    HW2 4731   2.047   1.155   2.803
 1571SOL     OW 4732   2.482   1.786   3.301
 1571SOL    HW1 4733   2.390   1.769   3.336
 1571SOL    HW2 4734   2.510   1.878   3.327
 1572SOL     OW 4735   2.468   0.964   1.985
 1572SOL    HW1 4736   2.475   1.048   1.931
 1572SOL    HW2 4737   2.514   0.977   2.073
 1573SOL     OW 4738   3.456   0.114   3.342
 1573SOL    HW1 4739   3.438   0.181   3.270
 1573SOL    HW2 4740   3.453   0.160   3.431
 1574SOL     OW 4741   1.984   0.643   2.425
 1574SOL    HW1 4742   1.939   0.555   2.442
 1574SOL    HW2 4743   1.983   0.697   2.509
 1575SOL     OW 4744   3.704   1.767   2.221
 1575SOL    HW1 4745   3.758   1.738   2.301
 1575SOL    HW2 4746   3.734   1.857   2.192
 1576SOL     OW 4747   1.889   1.596   1.979
 1576SOL    HW1 4748   1.870   1.500   2.000
 1576SOL    HW2 4749   1.856   1.654   2.054
 1577SOL     OW 4750   3.551   0.922   2.474
 1577SOL    HW1 4751   3.646   0.893   2.482
 1577SOL    HW2 4752   3.543   0.987   2.399
 1578SOL     OW 4753   3.503   1.108   2.294
 1578SOL    HW1 4754   3.589   1.110   2.242
 1578SOL    HW2 4755   3.517   1.155   2.382
 1579SOL     OW 4756   1.975   0.737   3.459
 1579SOL    HW1 4757   2.063   0.724   3.504
 1579SOL    HW2 4758   1.962   0.834   3.437
 1580SOL     OW 4759   2.475   1.365   2.588
 1580SOL    HW1 4760   2.426   1.278   2.597
 1580SOL    HW2 4761   2.452   1.408   2.501
 1581SOL     OW 4762   3.155   1.228   3.285
 1581SOL    HW1 4763   3.192   1.155   3.227
 1581SOL    HW2 4764   3.207   1.233   3.370
 1582SOL     OW 4765   2.671   0.004   2.364
 1582SOL    HW1 4766   2.711   0.095   2.355
 1582SOL    HW2 4767   2.571   0.012   2.370
 1583SOL     OW 4768   2.059   0.976   3.126
 1583SOL    HW1 4769   2.148   0.931   3.112
 1583SOL    HW2 4770   1.986   0.911   3.107
 1584SOL     OW 4771   3.387   0.999   2.052
 1584SOL    HW1 4772   3.324   0.923   2.065
 1584SOL    HW2 4773   3.435   1.017   2.138
 1585SOL     OW 4774   3.049   1.792   3.478
 1585SOL    HW1 4775   3.073   1.852   3.402
 1585SOL    HW2 4776   3.056   1.697   3.448
 1586SOL     OW 4777   2.179   0.251   3.663
 1586SOL    HW1 4778   2.250   0.322   3.669
 1586SOL    HW2 4779   2.091   0.290   3.691
 1587SOL     OW 4780   3.328   1.417   2.815
 1587SOL    HW1 4781   3.269   1.423   2.895
 1587SOL    HW2 4782   3.313   1.329   2.769
 1588SOL     OW 4783   3.529   1.714   2.434
 1588SOL    HW1 4784   3.488   1.691   2.346
 1588SOL    HW2 4785   3.511   1.640   2.499
 1589SOL     OW 4786   2.460   0.729   2.132
 1589SOL    HW1 4787   2.484   0.798   2.064
 1589SOL    HW2 4788   2.382   0.762   2.186
 1590SOL     OW 4789   3.143   0.345   2.806
 1590SOL    HW1 4790   3.057   0.295   2.793
 1590SOL    HW2 4791   3.205   0.291   2.862
 1591SOL     OW 4792   3.438   1.662   2.169
 1591SOL    HW1 4793   3.527   1.708   2.172
 1591SOL    HW2 4794   3.417   1.638   2.074
 1592SOL     OW 4795   2.669   0.605   3.327
 1592SOL    HW1 4796   2.622   0.602   3.416
 1592SOL    HW2 4797   2.618   0.550   3.261
 1593SOL     OW 4798   3.256   0.469   3.536
 1593SOL    HW1 4799   3.236   0.512   3.624
 1593SOL    HW2 4800   3.334   0.407   3.545
 1594SOL     OW 4801   2.835   0.890   3.434
 1594SOL    HW1 4802   2.881   0.806   3.405
 1594SOL    HW2 4803   2.779   0.924   3.359
 1595SOL     OW 4804   2.853   0.410   3.104
 1595SOL    HW1 4805   2.776   0.444   3.158
 1595SOL    HW2 4806   2.819   0.359   3.025
 1596SOL     OW 4807   2.903   0.701   2.291
 1596SOL    HW1 4808   2.929   0.697   2.387
 1596SOL    HW2 4809   2.818   0.650   2.277
 1597SOL     OW 4810   1.938   0.811   2.651
 1597SOL    HW1 4811   2.037   0.799   2.660
 1597SOL    HW2 4812   1.914   0.906   2.672
 1598SOL     OW 4813   1.992   1.821   3.433
 1598SOL    HW1 4814   1.982   1.806   3.532
 1598SOL    HW2 4815   1.906   1.857   3.397
 1599SOL     OW 4816   2.727   0.348   2.057
 1599SOL    HW1 4817   2.786   0.411   2.008
 1599SOL    HW2 4818   2.746   0.254   2.028
 1600SOL     OW 4819   3.581   0.585   3.693
 1600SOL    HW1 4820   3.555   0.674   3.657
 1600SOL    HW2 4821   3.579   0.517   3.620
 1601SOL     OW 4822   3.224   1.144   2.407
 1601SOL    HW1 4823   3.307   1.115   2.359
 1601SOL    HW2 4824   3.175   1.211   2.351
 1602SOL     OW 4825   2.412   0.196   2.747
 1602SOL    HW1 4826   2.407   0.191   2.847
 1602SOL    HW2 4827   2.414   0.292   2.718
 1603SOL     OW 4828   2.870   1.456   2.339
 1603SOL    HW1 4829   2.824   1.528   2.287
 1603SOL    HW2 4830   2.866   1.476   2.437
 1604SOL     OW 4831   2.213   1.801   2.715
 1604SOL    HW1 4832   2.263   1.715   2.721
 1604SOL    HW2 4833   2.278   1.878   2.712
 1605SOL     OW 4834   3.657   1.066   2.735
 1605SOL    HW1 4835   3.595   1.051   2.659
 1605SOL    HW2 4836   3.605   1.077   2.820
 1606SOL     OW 4837   3.089   1.550   3.368
 1606SOL    HW1 4838   3.095   1.473   3.432
 1606SOL    HW2 4839   3.037   1.524   3.288
 1607SOL     OW 4840   2.183   0.943   2.104
 1607SOL    HW1 4841   2.265   0.982   2.062
 1607SOL    HW2 4842   2.156   0.861   2.055
 1608SOL     OW 4843   3.320   0.735   2.590
 1608SOL    HW1 4844   3.315   0.670   2.665
 1608SOL    HW2 4845   3.400   0.794   2.603
 1609SOL     OW 4846   2.323   1.266   3.589
 1609SOL    HW1 4847   2.273   1.267   3.503
 1609SOL    HW2 4848   2.260   1.248   3.665
 1610SOL     OW 4849   2.973   1.776   2.099
 1610SOL    HW1 4850   2.913   1.714   2.149
 1610SOL    HW2 4851   3.004   1.732   2.014
 1611SOL     OW 4852   2.064   0.285   3.360
 1611SOL    HW1 4853   1.984   0.345   3.347
 1611SOL    HW2 4854   2.054   0.236   3.446
 1612SOL     OW 4855   3.494   1.377   1.943
 1612SOL    HW1 4856   3.462   1.471   1.933
 1612SOL    HW2 4857   3.418   1.314   1.931
 1613SOL     OW 4858   2.326   1.743   2.185
 1613SOL    HW1 4859   2.359   1.782   2.271
 1613SOL    HW2 4860   2.402   1.736   2.120
 1614SOL     OW 4861   3.262   0.107   2.288
 1614SOL    HW1 4862   3.238   0.070   2.198
 1614SOL    HW2 4863   3.361   0.123   2.292
 1615SOL     OW 4864   2.111   1.785   3.103
 1615SOL    HW1 4865   2.168   1.720   3.153
 1615SOL    HW2 4866   2.095   1.752   3.010
 1616SOL     OW 4867   2.802   1.698   2.766
 1616SOL    HW1 4868   2.882   1.641   2.787
 1616SOL    HW2 4869   2.753   1.658   2.689
 1617SOL     OW 4870   2.244   0.700   2.342
 1617SOL    HW1 4871   2.289   0.610   2.339
 1617SOL    HW2 4872   2.150   0.689   2.375
 1618SOL     OW 4873   3.409   0.222   3.591
 1618SOL    HW1 4874   3.404   0.259   3.683
 1618SOL    HW2 4875   3.337   0.153   3.579
 1619SOL     OW 4876   2.476   0.122   1.979
 1619SOL    HW1 4877   2.574   0.100   1.986
 1619SOL    HW2 4878   2.445   0.105   1.886
 1620SOL     OW 4879   2.643   0.264   3.611
 1620SOL    HW1 4880   2.710   0.203   3.654
 1620SOL    HW2 4881   2.570   0.283   3.676
 1621SOL     OW 4882   2.750   1.514   3.057
 1621SOL    HW1 4883   2.727   1.489   2.963
 1621SOL    HW2 4884   2.811   1.445   3.096
 1622SOL     OW 4885   3.213   0.590   3.295
 1622SOL    HW1 4886   3.241   0.547   3.380
 1622SOL    HW2 4887   3.238   0.686   3.296
 1623SOL     OW 4888   2.665   1.402   2.786
 1623SOL    HW1 4889   2.755   1.416   2.744
 1623SOL    HW2 4890   2.594   1.404   2.715
 1624SOL     OW 4891   2.784   0.503   2.761
 1624SOL    HW1 4892   2.759   0.494   2.665
 1624SOL    HW2 4893   2.832   0.421   2.792
 1625SOL     OW 4894   2.401   0.064   2.374
 1625SOL    HW1 4895   2.320   0.065   2.432
 1625SOL    HW2 4896   2.404   0.147   2.319
 1626SOL     OW 4897   3.296   1.188   1.903
 1626SOL    HW1 4898   3.328   1.112   1.960
 1626SOL    HW2 4899   3.204   1.215   1.933
 1627SOL     OW 4900   2.159   0.035   2.033
 1627SOL    HW1 4901   2.208   0.119   2.012
 1627SOL    HW2 4902   2.221  -0.030   2.078
 1628SOL     OW 4903   2.797   0.236   2.342
 1628SOL    HW1 4904   2.749   0.277   2.264
 1628SOL    HW2 4905   2.896   0.234   2.323
 1629SOL     OW 4906   2.938   0.683   3.326
 1629SOL    HW1 4907   2.858   0.622   3.329
 1629SOL    HW2 4908   3.019   0.630   3.302
 1630SOL     OW 4909   3.089   1.570   2.655
 1630SOL    HW1 4910   3.110   1.644   2.590
 1630SOL    HW2 4911   3.157   1.570   2.728
 1631SOL     OW 4912   2.321   1.152   2.603
 1631SOL    HW1 4913   2.250   1.125   2.668
 1631SOL    HW2 4914   2.295   1.124   2.510
 1632SOL     OW 4915   3.133   1.797   2.453
 1632SOL    HW1 4916   3.177   1.861   2.389
 1632SOL    HW2 4917   3.083   1.849   2.523
 1633SOL     OW 4918   2.894   0.549   1.878
 1633SOL    HW1 4919   2.853   0.631   1.839
 1633SOL    HW2 4920   2.958   0.575   1.951
 1634SOL     OW 4921   1.940   0.556   3.248
 1634SOL    HW1 4922   2.032   0.555   3.207
 1634SOL    HW2 4923   1.934   0.630   3.315
 1635SOL     OW 4924   2.423   0.222   3.009
 1635SOL    HW1 4925   2.461   0.138   3.046
 1635SOL    HW2 4926   2.335   0.241   3.053
 1636SOL     OW 4927   2.728   0.454   2.504
 1636SOL    HW1 4928   2.696   0.526   2.442
 1636SOL    HW2 4929   2.752   0.373   2.451
 1637SOL     OW 4930   2.879   0.039   2.615
 1637SOL    HW1 4931   2.807   0.044   2.546
 1637SOL    HW2 4932   2.855  -0.030   2.684
 1638SOL     OW 4933   3.291   1.173   2.729
 1638SOL    HW1 4934   3.236   1.089   2.722
 1638SOL    HW2 4935   3.317   1.202   2.637
 1639SOL     OW 4936   3.328   0.590   2.854
 1639SOL    HW1 4937   3.298   0.495   2.861
 1639SOL    HW2 4938   3.401   0.606   2.920
 1640SOL     OW 4939   3.719   0.833   2.239
 1640SOL    HW1 4940   3.761   0.769   2.303
 1640SOL    HW2 4941   3.681   0.782   2.161
 1641SOL     OW 4942   2.350   1.385   2.036
 1641SOL    HW1 4943   2.263   1.370   2.083
 1641SOL    HW2 4944   2.333   1.411   1.941
 1642SOL     OW 4945   3.526   1.280   2.519
 1642SOL    HW1 4946   3.625   1.288   2.533
 1642SOL    HW2 4947   3.481   1.364   2.550
 1643SOL     OW 4948   3.252   0.575   1.940
 1643SOL    HW1 4949   3.198   0.554   2.021
 1643SOL    HW2 4950   3.343   0.534   1.949
 1644SOL     OW 4951   2.389   0.256   2.190
 1644SOL    HW1 4952   2.416   0.197   2.115
 1644SOL    HW2 4953   2.389   0.351   2.159
 1645SOL     OW 4954   3.616   1.223   3.450
 1645SOL    HW1 4955   3.707   1.184   3.437
 1645SOL    HW2 4956   3.624   1.319   3.474
 1646SOL     OW 4957   2.926   1.347   3.202
 1646SOL    HW1 4958   2.846   1.324   3.257
 1646SOL    HW2 4959   3.009   1.321   3.251
 1647SOL     OW 4960   3.454   1.629   3.487
 1647SOL    HW1 4961   3.481   1.663   3.397
 1647SOL    HW2 4962   3.533   1.591   3.533
 1648SOL     OW 4963   2.973   1.195   2.962
 1648SOL    HW1 4964   2.933   1.239   3.043
 1648SOL    HW2 4965   2.932   1.232   2.879
 1649SOL     OW 4966   3.500   1.099   2.941
 1649SOL    HW1 4967   3.505   1.180   3.000
 1649SOL    HW2 4968   3.414   1.101   2.890
 1650SOL     OW 4969   2.777   0.089   3.264
 1650SOL    HW1 4970   2.802   0.069   3.169
 1650SOL    HW2 4971   2.849   0.145   3.306
 1651SOL     OW 4972   2.842   1.116   3.581
 1651SOL    HW1 4973   2.743   1.122   3.591
 1651SOL    HW2 4974   2.865   1.036   3.525
 1652SOL     OW 4975   2.567   1.050   2.230
 1652SOL    HW1 4976   2.553   1.057   2.329
 1652SOL    HW2 4977   2.651   0.999   2.212
 1653SOL     OW 4978   2.272   0.813   3.113
 1653SOL    HW1 4979   2.358   0.825   3.163
 1653SOL    HW2 4980   2.230   0.726   3.140
 1654SOL     OW 4981   3.136   0.386   3.124
 1654SOL    HW1 4982   3.157   0.460   3.188
 1654SOL    HW2 4983   3.047   0.403   3.081
 1655SOL     OW 4984   1.926   1.564   3.193
 1655SOL    HW1 4985   1.880   1.646   3.159
 1655SOL    HW2 4986   2.024   1.583   3.202
 1656SOL     OW 4987   2.229   1.100   2.363
 1656SOL    HW1 4988   2.222   1.183   2.307
 1656SOL    HW2 4989   2.233   1.020   2.303
 1657SOL     OW 4990   2.428   0.537   2.727
 1657SOL    HW1 4991   2.440   0.603   2.653
 1657SOL    HW2 4992   2.474   0.571   2.810
 1658SOL     OW 4993   3.114   1.348   2.250
 1658SOL    HW1 4994   3.164   1.425   2.290
 1658SOL    HW2 4995   3.019   1.350   2.282
 1659SOL     OW 4996   3.134   1.445   3.004
 1659SOL    HW1 4997   3.181   1.458   3.091
 1659SOL    HW2 4998   3.068   1.371   3.013
 1660SOL     OW 4999   3.444   0.639   2.334
 1660SOL    HW1 5000   3.413   0.700   2.407
 1660SOL    HW2 5001   3.494   0.691   2.265
 1661SOL     OW 5002   2.216   1.510   3.191
 1661SOL    HW1 5003   2.195   1.466   3.104
 1661SOL    HW2 5004   2.313   1.536   3.194
 1662SOL     OW 5005   2.264   0.751   3.460
 1662SOL    HW1 5006   2.332   0.806   3.413
 1662SOL    HW2 5007   2.304   0.663   3.487
 1663SOL     OW 5008   3.449   0.779   3.532
 1663SOL    HW1 5009   3.357   0.817   3.527
 1663SOL    HW2 5010   3.509   0.826   3.467
 1664SOL     OW 5011   2.875   0.105   3.632
 1664SOL    HW1 5012   2.881   0.190   3.580
 1664SOL    HW2 5013   2.907   0.029   3.575
 1665SOL     OW 5014   2.366   0.050   3.602
 1665SOL    HW1 5015   2.324  -0.007   3.532
 1665SOL    HW2 5016   2.300   0.119   3.634
 1666SOL     OW 5017   2.435   0.870   2.891
 1666SOL    HW1 5018   2.479   0.959   2.882
 1666SOL    HW2 5019   2.372   0.870   2.968
 1667SOL     OW 5020   3.222   0.862   2.907
 1667SOL    HW1 5021   3.147   0.862   2.841
 1667SOL    HW2 5022   3.259   0.770   2.916
 1668SOL     OW 5023   3.071   0.525   2.137
 1668SOL    HW1 5024   3.084   0.441   2.191
 1668SOL    HW2 5025   3.042   0.599   2.197
 1669SOL     OW 5026   2.169   0.213   3.093
 1669SOL    HW1 5027   2.146   0.250   3.183
 1669SOL    HW2 5028   2.139   0.118   3.087
 1670SOL     OW 5029   1.899   1.310   3.144
 1670SOL    HW1 5030   1.952   1.261   3.212
 1670SOL    HW2 5031   1.921   1.408   3.149
 1671SOL     OW 5032   2.594   0.634   2.926
 1671SOL    HW1 5033   2.653   0.608   2.850
 1671SOL    HW2 5034   2.566   0.730   2.915
 1672SOL     OW 5035   3.590   0.935   3.716
 1672SOL    HW1 5036   3.544   0.928   3.627
 1672SOL    HW2 5037   3.528   0.979   3.782
 1673SOL     OW 5038   2.169   0.063   2.480
 1673SOL    HW1 5039   2.158   0.157   2.513
 1673SOL    HW2 5040   2.164   0.000   2.557
 1674SOL     OW 5041   3.484   0.367   2.236
 1674SOL    HW1 5042   3.486   0.291   2.300
 1674SOL    HW2 5043   3.436   0.444   2.276
 1675SOL     OW 5044   2.885   0.766   2.828
 1675SOL    HW1 5045   2.900   0.787   2.924
 1675SOL    HW2 5046   2.855   0.671   2.819
 1676SOL     OW 5047   2.842   1.573   3.562
 1676SOL    HW1 5048   2.822   1.617   3.474
 1676SOL    HW2 5049   2.881   1.482   3.546
 1677SOL     OW 5050   3.721   1.518   3.467
 1677SOL    HW1 5051   3.735   1.545   3.372
 1677SOL    HW2 5052   3.804   1.540   3.520
 1678SOL     OW 5053   2.212   0.898   3.666
 1678SOL    HW1 5054   2.288   0.942   3.714
 1678SOL    HW2 5055   2.247   0.851   3.584
 1679SOL     OW 5056   3.402   0.274   1.987
 1679SOL    HW1 5057   3.341   0.199   2.010
 1679SOL    HW2 5058   3.424   0.326   2.070
 1680SOL     OW 5059   3.165   0.838   1.904
 1680SOL    HW1 5060   3.199   0.745   1.919
 1680SOL    HW2 5061   3.183   0.865   1.809
 1681SOL     OW 5062   2.930   1.333   2.711
 1681SOL    HW1 5063   2.937   1.249   2.656
 1681SOL    HW2 5064   2.992   1.402   2.675
 1682SOL     OW 5065   2.181   0.810   2.811
 1682SOL    HW1 5066   2.274   0.846   2.816
 1682SOL    HW2 5067   2.175   0.725   2.863
 1683SOL     OW 5068   2.201   0.509   2.868
 1683SOL    HW1 5069   2.149   0.426   2.851
 1683SOL    HW2 5070   2.278   0.514   2.804
 1684SOL     OW 5071   3.000   0.380   3.540
 1684SOL    HW1 5072   2.955   0.443   3.604
 1684SOL    HW2 5073   3.093   0.411   3.523
 1685SOL     OW 5074   3.022   0.207   3.339
 1685SOL    HW1 5075   3.022   0.271   3.416
 1685SOL    HW2 5076   3.050   0.255   3.256
 1686SOL     OW 5077   1.870   1.326   2.062
 1686SOL    HW1 5078   1.777   1.347   2.031
 1686SOL    HW2 5079   1.880   1.227   2.075
 1687SOL     OW 5080   1.950   1.801   2.789
 1687SOL    HW1 5081   1.908   1.715   2.762
 1687SOL    HW2 5082   2.044   1.804   2.755
 1688SOL     OW 5083   2.366   1.568   2.772
 1688SOL    HW1 5084   2.432   1.642   2.781
 1688SOL    HW2 5085   2.410   1.489   2.730
 1689SOL     OW 5086   2.864   0.796   3.100
 1689SOL    HW1 5087   2.905   0.764   3.186
 1689SOL    HW2 5088   2.768   0.769   3.097
 1690SOL     OW 5089   1.902   0.544   2.976
 1690SOL    HW1 5090   1.987   0.511   2.935
 1690SOL    HW2 5091   1.915   0.559   3.074
 1691SOL     OW 5092   2.051   0.520   3.584
 1691SOL    HW1 5093   2.110   0.480   3.514
 1691SOL    HW2 5094   1.993   0.591   3.543
 1692SOL     OW 5095   3.231   0.950   3.522
 1692SOL    HW1 5096   3.270   1.039   3.542
 1692SOL    HW2 5097   3.241   0.930   3.425
 1693SOL     OW 5098   2.677   0.572   2.187
 1693SOL    HW1 5099   2.684   0.483   2.141
 1693SOL    HW2 5100   2.583   0.606   2.179
 1694SOL     OW 5101   3.519   0.604   3.068
 1694SOL    HW1 5102   3.481   0.535   3.130
 1694SOL    HW2 5103   3.601   0.568   3.024
 1695SOL     OW 5104   2.114   1.564   3.606
 1695SOL    HW1 5105   2.084   1.621   3.682
 1695SOL    HW2 5106   2.107   1.467   3.632
 1696SOL     OW 5107   2.533   0.464   3.131
 1696SOL    HW1 5108   2.499   0.375   3.101
 1696SOL    HW2 5109   2.559   0.518   3.051
 1697SOL     OW 5110   2.792   1.678   3.327
 1697SOL    HW1 5111   2.768   1.660   3.232
 1697SOL    HW2 5112   2.822   1.772   3.337
 1698SOL     OW 5113   2.335   0.500   2.053
 1698SOL    HW1 5114   2.396   0.580   2.057
 1698SOL    HW2 5115   2.240   0.531   2.060
 1699SOL     OW 5116   2.021   1.137   3.328
 1699SOL    HW1 5117   2.043   1.076   3.404
 1699SOL    HW2 5118   2.031   1.088   3.242
 1700SOL     OW 5119   3.209   1.059   3.096
 1700SOL    HW1 5120   3.233   0.996   3.022
 1700SOL    HW2 5121   3.119   1.099   3.078
 1701SOL     OW 5122   3.164   0.855   2.171
 1701SOL    HW1 5123   3.078   0.824   2.213
 1701SOL    HW2 5124   3.160   0.841   2.072
 1702SOL     OW 5125   3.621   1.747   3.016
 1702SOL    HW1 5126   3.682   1.777   2.943
 1702SOL    HW2 5127   3.583   1.658   2.994
 1703SOL     OW 5128   3.114   1.731   2.990
 1703SOL    HW1 5129   3.198   1.736   2.936
 1703SOL    HW2 5130   3.091   1.635   3.008
 1704SOL     OW 5131   1.945   1.258   2.884
 1704SOL    HW1 5132   1.940   1.257   2.984
 1704SOL    HW2 5133   1.862   1.217   2.846
 1705SOL     OW 5134   2.550   1.662   3.578
 1705SOL    HW1 5135   2.494   1.743   3.587
 1705SOL    HW2 5136   2.602   1.666   3.492
 1706SOL     OW 5137   3.588   0.135   2.385
 1706SOL    HW1 5138   3.661   0.118   2.318
 1706SOL    HW2 5139   3.557   0.048   2.423
 1707SOL     OW 5140   3.250   1.573   2.339
 1707SOL    HW1 5141   3.317   1.585   2.265
 1707SOL    HW2 5142   3.210   1.662   2.362
 1708SOL     OW 5143   1.992   1.794   3.713
 1708SOL    HW1 5144   1.951   1.720   3.766
 1708SOL    HW2 5145   2.056   1.845   3.771
 1709SOL     OW 5146   3.142   0.927   2.534
 1709SOL    HW1 5147   3.202   0.846   2.536
 1709SOL    HW2 5148   3.182   0.996   2.474
 1710SOL     OW 5149   2.692   1.273   3.284
 1710SOL    HW1 5150   2.687   1.306   3.379
 1710SOL    HW2 5151   2.606   1.292   3.238
 1711SOL     OW 5152   2.534   1.616   2.016
 1711SOL    HW1 5153   2.543   1.626   1.917
 1711SOL    HW2 5154   2.494   1.527   2.037
 1712SOL     OW 5155   3.512   1.720   3.256
 1712SOL    HW1 5156   3.565   1.730   3.172
 1712SOL    HW2 5157   3.485   1.810   3.290
 1713SOL     OW 5158   3.703   0.175   2.825
 1713SOL    HW1 5159   3.742   0.090   2.789
 1713SOL    HW2 5160   3.605   0.177   2.806
 1714SOL     OW 5161   2.125   0.326   2.582
 1714SOL    HW1 5162   2.046   0.377   2.548
 1714SOL    HW2 5163   2.116   0.311   2.680
 1715SOL     OW 5164   3.056   1.612   1.893
 1715SOL    HW1 5165   3.062   1.519   1.930
 1715SOL    HW2 5166   2.997   1.612   1.813
 1716SOL     OW 5167   2.684   1.002   3.234
 1716SOL    HW1 5168   2.724   1.001   3.142
 1716SOL    HW2 5169   2.694   1.094   3.274
 1717SOL     OW 5170   2.778   0.910   2.153
 1717SOL    HW1 5171   2.841   0.948   2.085
 1717SOL    HW2 5172   2.818   0.827   2.192
 1718SOL     OW 5173   3.366   1.607   1.906
 1718SOL    HW1 5174   3.274   1.644   1.913
 1718SOL    HW2 5175   3.404   1.627   1.816
 1719SOL     OW 5176   2.234   1.288   3.352
 1719SOL    HW1 5177   2.221   1.381   3.318
 1719SOL    HW2 5178   2.150   1.236   3.339
 1720SOL     OW 5179   3.476   1.292   3.151
 1720SOL    HW1 5180   3.536   1.295   3.231
 1720SOL    HW2 5181   3.401   1.356   3.164
 1721SOL     OW 5182   2.901   1.098   2.558
 1721SOL    HW1 5183   2.831   1.051   2.612
 1721SOL    HW2 5184   2.960   1.030   2.515
 1722SOL     OW 5185   2.876   0.236   2.833
 1722SOL    HW1 5186   2.868   0.200   2.740
 1722SOL    HW2 5187   2.874   0.160   2.898
 1723SOL     OW 5188   2.452   1.487   2.353
 1723SOL    HW1 5189   2.494   1.429   2.283
 1723SOL    HW2 5190   2.408   1.566   2.309
 1724SOL     OW 5191   3.571   0.385   3.243
 1724SOL    HW1 5192   3.644   0.454   3.247
 1724SOL    HW2 5193   3.599   0.310   3.184
 1725SOL     OW 5194   2.117   1.348   2.152
 1725SOL    HW1 5195   2.021   1.349   2.125
 1725SOL    HW2 5196   2.129   1.401   2.236
 1726SOL     OW 5197   1.967   1.013   3.588
 1726SOL    HW1 5198   1.890   0.980   3.642
 1726SOL    HW2 5199   2.052   0.983   3.630
 1727SOL     OW 5200   2.534   0.203   3.351
 1727SOL    HW1 5201   2.624   0.187   3.311
 1727SOL    HW2 5202   2.542   0.208   3.450
 1728SOL     OW 5203   1.937   0.345   1.895
 1728SOL    HW1 5204   1.845   0.317   1.866
 1728SOL    HW2 5205   1.968   0.422   1.839
 1729SOL     OW 5206   3.302   0.856   3.260
 1729SOL    HW1 5207   3.245   0.908   3.197
 1729SOL    HW2 5208   3.398   0.868   3.236
 1730SOL     OW 5209   1.934   0.166   2.180
 1730SOL    HW1 5210   1.917   0.249   2.126
 1730SOL    HW2 5211   2.024   0.129   2.158
 1731SOL     OW 5212   3.045   1.335   1.981
 1731SOL    HW1 5213   2.946   1.324   1.983
 1731SOL    HW2 5214   3.079   1.350   2.074
 1732SOL     OW 5215   2.475   0.842   3.293
 1732SOL    HW1 5216   2.531   0.923   3.276
 1732SOL    HW2 5217   2.534   0.762   3.296
 1733SOL     OW 5218   3.355   1.767   2.821
 1733SOL    HW1 5219   3.388   1.831   2.752
 1733SOL    HW2 5220   3.421   1.761   2.896
 1734SOL     OW 5221   2.578   0.565   3.570
 1734SOL    HW1 5222   2.597   0.630   3.644
 1734SOL    HW2 5223   2.638   0.485   3.579
 1735SOL     OW 5224   3.312   1.220   3.495
 1735SOL    HW1 5225   3.303   1.210   3.594
 1735SOL    HW2 5226   3.408   1.213   3.469
 1736SOL     OW 5227   2.252   1.741   3.422
 1736SOL    HW1 5228   2.161   1.782   3.420
 1736SOL    HW2 5229   2.245   1.647   3.454
 1737SOL     OW 5230   3.536   0.883   3.116
 1737SOL    HW1 5231   3.509   0.794   3.079
 1737SOL    HW2 5232   3.537   0.951   3.043
 1738SOL     OW 5233   3.087   0.325   2.311
 1738SOL    HW1 5234   3.152   0.251   2.300
 1738SOL    HW2 5235   3.107   0.375   2.395
 1739SOL     OW 5236   2.456   0.745   2.514
 1739SOL    HW1 5237   2.506   0.830   2.495
 1739SOL    HW2 5238   2.368   0.747   2.466
 1740SOL     OW 5239   3.639   0.342   3.504
 1740SOL    HW1 5240   3.622   0.373   3.410
 1740SOL    HW2 5241   3.555   0.305   3.542
 1741SOL     OW 5242   3.592   0.934   3.379
 1741SOL    HW1 5243   3.630   1.025   3.394
 1741SOL    HW2 5244   3.584   0.917   3.280
 1742SOL     OW 5245   2.721   1.374   1.878
 1742SOL    HW1 5246   2.675   1.389   1.966
 1742SOL    HW2 5247   2.765   1.459   1.848
 1743SOL     OW 5248   2.523   1.790   2.815
 1743SOL    HW1 5249   2.477   1.878   2.802
 1743SOL    HW2 5250   2.622   1.802   2.808
 1744SOL     OW 5251   2.721   0.956   2.723
 1744SOL    HW1 5252   2.775   0.887   2.771
 1744SOL    HW2 5253   2.689   1.025   2.789
 1745SOL     OW 5254   2.945   0.984   1.949
 1745SOL    HW1 5255   2.922   1.037   1.867
 1745SOL    HW2 5256   3.026   0.928   1.930
 1746SOL     OW 5257   3.723   1.569   2.713
 1746SOL    HW1 5258   3.652   1.557   2.643
 1746SOL    HW2 5259   3.724   1.490   2.773
 1747SOL     OW 5260   2.083   1.314   3.706
 1747SOL    HW1 5261   2.018   1.241   3.685
 1747SOL    HW2 5262   2.087   1.328   3.804
 1748SOL     OW 5263   1.941   1.240   2.515
 1748SOL    HW1 5264   1.940   1.193   2.603
 1748SOL    HW2 5265   2.023   1.212   2.464
 1749SOL     OW 5266   2.534   1.391   3.486
 1749SOL    HW1 5267   2.456   1.341   3.524
 1749SOL    HW2 5268   2.531   1.486   3.517
 1750SOL     OW 5269   3.686   0.192   3.089
 1750SOL    HW1 5270   3.682   0.102   3.133
 1750SOL    HW2 5271   3.689   0.181   2.990
 1751SOL     OW 5272   2.290   0.424   2.382
 1751SOL    HW1 5273   2.320   0.352   2.320
 1751SOL    HW2 5274   2.251   0.384   2.465
 1752SOL     OW 5275   3.567   1.487   2.966
 1752SOL    HW1 5276   3.474   1.462   2.939
 1752SOL    HW2 5277   3.593   1.437   3.048
 1753SOL     OW 5278   2.179   0.547   3.142
 1753SOL    HW1 5279   2.217   0.488   3.214
 1753SOL    HW2 5280   2.219   0.521   3.054
 1754SOL     OW 5281   2.674   1.586   2.549
 1754SOL    HW1 5282   2.706   1.596   2.455
 1754SOL    HW2 5283   2.595   1.524   2.551
 1755SOL     OW 5284   3.286   0.214   2.974
 1755SOL    HW1 5285   3.338   0.149   3.029
 1755SOL    HW2 5286   3.237   0.277   3.035
 1756SOL     OW 5287   2.863   0.034   3.016
 1756SOL    HW1 5288   2.800  -0.038   2.985
 1756SOL    HW2 5289   2.956  -0.002   3.016
 1757SOL     OW 5290   2.632   1.330   2.163
 1757SOL    HW1 5291   2.586   1.243   2.180
 1757SOL    HW2 5292   2.723   1.327   2.204
 1758SOL     OW 5293   2.480   1.567   3.146
 1758SOL    HW1 5294   2.475   1.649   3.203
 1758SOL    HW2 5295   2.569   1.564   3.101
 1759SOL     OW 5296   3.214   0.052   2.030
 1759SOL    HW1 5297   3.249   0.011   1.946
 1759SOL    HW2 5298   3.124   0.014   2.050
 1760SOL     OW 5299   3.162   0.453   2.553
 1760SOL    HW1 5300   3.103   0.533   2.557
 1760SOL    HW2 5301   3.177   0.418   2.646
 1761SOL     OW 5302   3.455   0.221   2.744
 1761SOL    HW1 5303   3.371   0.220   2.798
 1761SOL    HW2 5304   3.457   0.304   2.688
 1762SOL     OW 5305   1.901   1.077   2.162
 1762SOL    HW1 5306   2.000   1.066   2.153
 1762SOL    HW2 5307   1.861   0.991   2.194
 1763SOL     OW 5308   2.737   1.646   2.199
 1763SOL    HW1 5309   2.660   1.611   2.145
 1763SOL    HW2 5310   2.705   1.717   2.261
 1764SOL     OW 5311   2.092   0.628   3.837
 1764SOL    HW1 5312   1.999   0.626   3.874
 1764SOL    HW2 5313   2.093   0.589   3.745
 1765SOL     OW 5314   2.087   0.275   4.720
 1765SOL    HW1 5315   2.122   0.258   4.812
 1765SOL    HW2 5316   1.999   0.230   4.708
 1766SOL     OW 5317   1.881   0.368   4.371
 1766SOL    HW1 5318   1.799   0.411   4.410
 1766SOL    HW2 5319   1.853   0.295   4.308
 1767SOL     OW 5320   3.417   1.511   4.427
 1767SOL    HW1 5321   3.360   1.495   4.508
 1767SOL    HW2 5322   3.358   1.521   4.347
 1768SOL     OW 5323   2.997   0.703   4.441
 1768SOL    HW1 5324   3.054   0.781   4.416
 1768SOL    HW2 5325   2.937   0.729   4.517
 1769SOL     OW 5326   3.617   0.607   3.955
 1769SOL    HW1 5327   3.605   0.594   3.856
 1769SOL    HW2 5328   3.587   0.526   4.004
 1770SOL     OW 5329   2.547   1.012   4.389
 1770SOL    HW1 5330   2.616   0.996   4.459
 1770SOL    HW2 5331   2.474   1.069   4.427
 1771SOL     OW 5332   3.465   0.447   4.461
 1771SOL    HW1 5333   3.391   0.493   4.411
 1771SOL    HW2 5334   3.516   0.515   4.514
 1772SOL     OW 5335   2.093   1.713   4.207
 1772SOL    HW1 5336   2.127   1.790   4.261
 1772SOL    HW2 5337   2.137   1.713   4.117
 1773SOL     OW 5338   2.092   1.434   4.262
 1773SOL    HW1 5339   2.066   1.530   4.262
 1773SOL    HW2 5340   2.021   1.380   4.307
 1774SOL     OW 5341   2.102   1.091   4.610
 1774SOL    HW1 5342   2.116   1.007   4.662
 1774SOL    HW2 5343   2.047   1.155   4.665
 1775SOL     OW 5344   2.468   0.964   3.847
 1775SOL    HW1 5345   2.475   1.048   3.793
 1775SOL    HW2 5346   2.514   0.977   3.935
 1776SOL     OW 5347   1.984   0.643   4.287
 1776SOL    HW1 5348   1.939   0.555   4.304
 1776SOL    HW2 5349   1.983   0.697   4.371
 1777SOL     OW 5350   3.704   1.767   4.083
 1777SOL    HW1 5351   3.758   1.738   4.163
 1777SOL    HW2 5352   3.734   1.857   4.054
 1778SOL     OW 5353   1.889   1.596   3.841
 1778SOL    HW1 5354   1.870   1.500   3.862
 1778SOL    HW2 5355   1.856   1.654   3.916
 1779SOL     OW 5356   3.551   0.922   4.336
 1779SOL    HW1 5357   3.646   0.893   4.344
 1779SOL    HW2 5358   3.543   0.987   4.261
 1780SOL     OW 5359   3.503   1.108   4.156
 1780SOL    HW1 5360   3.589   1.110   4.104
 1780SOL    HW2 5361   3.517   1.155   4.244
 1781SOL     OW 5362   2.475   1.365   4.450
 1781SOL    HW1 5363   2.426   1.278   4.459
 1781SOL    HW2 5364   2.452   1.408   4.363
 1782SOL     OW 5365   2.671   0.004   4.226
 1782SOL    HW1 5366   2.711   0.095   4.217
 1782SOL    HW2 5367   2.571   0.012   4.232
 1783SOL     OW 5368   3.387   0.999   3.914
 1783SOL    HW1 5369   3.324   0.923   3.927
 1783SOL    HW2 5370   3.435   1.017   4.000
 1784SOL     OW 5371   3.328   1.417   4.677
 1784SOL    HW1 5372   3.269   1.423   4.757
 1784SOL    HW2 5373   3.313   1.329   4.631
 1785SOL     OW 5374   3.529   1.714   4.296
 1785SOL    HW1 5375   3.488   1.691   4.208
 1785SOL    HW2 5376   3.511   1.640   4.361
 1786SOL     OW 5377   2.460   0.729   3.994
 1786SOL    HW1 5378   2.484   0.798   3.926
 1786SOL    HW2 5379   2.382   0.762   4.048
 1787SOL     OW 5380   3.143   0.345   4.668
 1787SOL    HW1 5381   3.057   0.295   4.655
 1787SOL    HW2 5382   3.205   0.291   4.724
 1788SOL     OW 5383   3.438   1.662   4.031
 1788SOL    HW1 5384   3.527   1.708   4.034
 1788SOL    HW2 5385   3.417   1.638   3.936
 1789SOL     OW 5386   2.903   0.701   4.153
 1789SOL    HW1 5387   2.929   0.697   4.249
 1789SOL    HW2 5388   2.818   0.650   4.139
 1790SOL     OW 5389   1.938   0.811   4.513
 1790SOL    HW1 5390   2.037   0.799   4.522
 1790SOL    HW2 5391   1.914   0.906   4.534
 1791SOL     OW 5392   2.727   0.348   3.919
 1791SOL    HW1 5393   2.786   0.411   3.870
 1791SOL    HW2 5394   2.746   0.254   3.890
 1792SOL     OW 5395   3.224   1.144   4.269
 1792SOL    HW1 5396   3.307   1.115   4.221
 1792SOL    HW2 5397   3.175   1.211   4.213
 1793SOL     OW 5398   2.870   1.456   4.201
 1793SOL    HW1 5399   2.824   1.528   4.149
 1793SOL    HW2 5400   2.866   1.476   4.299
 1794SOL     OW 5401   2.213   1.801   4.577
 1794SOL    HW1 5402   2.263   1.715   4.583
 1794SOL    HW2 5403   2.278   1.878   4.574
 1795SOL     OW 5404   3.657   1.066   4.597
 1795SOL    HW1 5405   3.595   1.051   4.521
 1795SOL    HW2 5406   3.605   1.077   4.682
 1796SOL     OW 5407   2.183   0.943   3.966
 1796SOL    HW1 5408   2.265   0.982   3.924
 1796SOL    HW2 5409   2.156   0.861   3.917
 1797SOL     OW 5410   3.320   0.735   4.452
 1797SOL    HW1 5411   3.315   0.670   4.527
 1797SOL    HW2 5412   3.400   0.794   4.465
 1798SOL     OW 5413   2.973   1.776   3.961
 1798SOL    HW1 5414   2.913   1.714   4.011
 1798SOL    HW2 5415   3.004   1.732   3.876
 1799SOL     OW 5416   3.494   1.377   3.805
 1799SOL    HW1 5417   3.462   1.471   3.795
 1799SOL    HW2 5418   3.418   1.314   3.793
 1800SOL     OW 5419   2.326   1.743   4.047
 1800SOL    HW1 5420   2.359   1.782   4.133
 1800SOL    HW2 5421   2.402   1.736   3.982
 1801SOL     OW 5422   3.262   0.107   4.150
 1801SOL    HW1 5423   3.238   0.070   4.060
 1801SOL    HW2 5424   3.361   0.123   4.154
 1802SOL     OW 5425   2.244   0.700   4.204
 1802SOL    HW1 5426   2.289   0.610   4.201
 1802SOL    HW2 5427   2.150   0.689   4.237
 1803SOL     OW 5428   2.476   0.122   3.841
 1803SOL    HW1 5429   2.574   0.100   3.848
 1803SOL    HW2 5430   2.445   0.105   3.748
 1804SOL     OW 5431   2.401   0.064   4.236
 1804SOL    HW1 5432   2.320   0.065   4.294
 1804SOL    HW2 5433   2.404   0.147   4.181
 1805SOL     OW 5434   3.296   1.188   3.765
 1805SOL    HW1 5435   3.328   1.112   3.822
 1805SOL    HW2 5436   3.204   1.215   3.795
 1806SOL     OW 5437   2.159   0.035   3.895
 1806SOL    HW1 5438   2.208   0.119   3.874
 1806SOL    HW2 5439   2.221  -0.030   3.940
 1807SOL     OW 5440   2.797   0.236   4.204
 1807SOL    HW1 5441   2.749   0.277   4.126
 1807SOL    HW2 5442   2.896   0.234   4.185
 1808SOL     OW 5443   3.089   1.570   4.517
 1808SOL    HW1 5444   3.110   1.644   4.452
 1808SOL    HW2 5445   3.157   1.570   4.590
 1809SOL     OW 5446   2.321   1.152   4.465
 1809SOL    HW1 5447   2.250   1.125   4.530
 1809SOL    HW2 5448   2.295   1.124   4.372
 1810SOL     OW 5449   3.133   1.797   4.315
 1810SOL    HW1 5450   3.177   1.861   4.251
 1810SOL    HW2 5451   3.083   1.849   4.385
 1811SOL     OW 5452   2.894   0.549   3.740
 1811SOL    HW1 5453   2.853   0.631   3.701
 1811SOL    HW2 5454   2.958   0.575   3.813
 1812SOL     OW 5455   2.728   0.454   4.366
 1812SOL    HW1 5456   2.696   0.526   4.304
 1812SOL    HW2 5457   2.752   0.373   4.313
 1813SOL     OW 5458   2.879   0.039   4.477
 1813SOL    HW1 5459   2.807   0.044   4.408
 1813SOL    HW2 5460   2.855  -0.030   4.546
 1814SOL     OW 5461   3.719   0.833   4.101
 1814SOL    HW1 5462   3.761   0.769   4.165
 1814SOL    HW2 5463   3.681   0.782   4.023
 1815SOL     OW 5464   2.350   1.385   3.898
 1815SOL    HW1 5465   2.263   1.370   3.945
 1815SOL    HW2 5466   2.333   1.411   3.803
 1816SOL     OW 5467   3.526   1.280   4.381
 1816SOL    HW1 5468   3.625   1.288   4.395
 1816SOL    HW2 5469   3.481   1.364   4.412
 1817SOL     OW 5470   3.252   0.575   3.802
 1817SOL    HW1 5471   3.198   0.554   3.883
 1817SOL    HW2 5472   3.343   0.534   3.811
 1818SOL     OW 5473   2.389   0.256   4.052
 1818SOL    HW1 5474   2.416   0.197   3.977
 1818SOL    HW2 5475   2.389   0.351   4.021
 1819SOL     OW 5476   2.567   1.050   4.092
 1819SOL    HW1 5477   2.553   1.057   4.191
 1819SOL    HW2 5478   2.651   0.999   4.074
 1820SOL     OW 5479   2.229   1.100   4.225
 1820SOL    HW1 5480   2.222   1.183   4.169
 1820SOL    HW2 5481   2.233   1.020   4.165
 1821SOL     OW 5482   2.428   0.537   4.589
 1821SOL    HW1 5483   2.440   0.603   4.515
 1821SOL    HW2 5484   2.474   0.571   4.672
 1822SOL     OW 5485   3.114   1.348   4.112
 1822SOL    HW1 5486   3.164   1.425   4.152
 1822SOL    HW2 5487   3.019   1.350   4.144
 1823SOL     OW 5488   3.444   0.639   4.196
 1823SOL    HW1 5489   3.413   0.700   4.269
 1823SOL    HW2 5490   3.494   0.691   4.127
 1824SOL     OW 5491   3.071   0.525   3.999
 1824SOL    HW1 5492   3.084   0.441   4.053
 1824SOL    HW2 5493   3.042   0.599   4.059
 1825SOL     OW 5494   2.594   0.634   4.788
 1825SOL    HW1 5495   2.653   0.608   4.712
 1825SOL    HW2 5496   2.566   0.730   4.777
 1826SOL     OW 5497   2.169   0.063   4.342
 1826SOL    HW1 5498   2.158   0.157   4.375
 1826SOL    HW2 5499   2.164   0.000   4.419
 1827SOL     OW 5500   3.484   0.367   4.098
 1827SOL    HW1 5501   3.486   0.291   4.162
 1827SOL    HW2 5502   3.436   0.444   4.138
 1828SOL     OW 5503   3.402   0.274   3.849
 1828SOL    HW1 5504   3.341   0.199   3.872
 1828SOL    HW2 5505   3.424   0.326   3.932
 1829SOL     OW 5506   3.165   0.838   3.766
 1829SOL    HW1 5507   3.199   0.745   3.781
 1829SOL    HW2 5508   3.183   0.865   3.671
 1830SOL     OW 5509   2.930   1.333   4.573
 1830SOL    HW1 5510   2.937   1.249   4.518
 1830SOL    HW2 5511   2.992   1.402   4.537
 1831SOL     OW 5512   2.181   0.810   4.673
 1831SOL    HW1 5513   2.274   0.846   4.678
 1831SOL    HW2 5514   2.175   0.725   4.725
 1832SOL     OW 5515   1.870   1.326   3.924
 1832SOL    HW1 5516   1.777   1.347   3.893
 1832SOL    HW2 5517   1.880   1.227   3.937
 1833SOL     OW 5518   1.950   1.801   4.651
 1833SOL    HW1 5519   1.908   1.715   4.624
 1833SOL    HW2 5520   2.044   1.804   4.617
 1834SOL     OW 5521   2.366   1.568   4.634
 1834SOL    HW1 5522   2.432   1.642   4.643
 1834SOL    HW2 5523   2.410   1.489   4.592
 1835SOL     OW 5524   2.677   0.572   4.049
 1835SOL    HW1 5525   2.684   0.483   4.003
 1835SOL    HW2 5526   2.583   0.606   4.041
 1836SOL     OW 5527   2.335   0.500   3.915
 1836SOL    HW1 5528   2.396   0.580   3.919
 1836SOL    HW2 5529   2.240   0.531   3.922
 1837SOL     OW 5530   3.164   0.855   4.033
 1837SOL    HW1 5531   3.078   0.824   4.075
 1837SOL    HW2 5532   3.160   0.841   3.934
 1838SOL     OW 5533   3.621   1.747   4.878
 1838SOL    HW1 5534   3.682   1.777   4.805
 1838SOL    HW2 5535   3.583   1.658   4.856
 1839SOL     OW 5536   3.588   0.135   4.247
 1839SOL    HW1 5537   3.661   0.118   4.180
 1839SOL    HW2 5538   3.557   0.048   4.285
 1840SOL     OW 5539   3.250   1.573   4.201
 1840SOL    HW1 5540   3.317   1.585   4.127
 1840SOL    HW2 5541   3.210   1.662   4.224
 1841SOL     OW 5542   3.142   0.927   4.396
 1841SOL    HW1 5543   3.202   0.846   4.398
 1841SOL    HW2 5544   3.182   0.996   4.336
 1842SOL     OW 5545   2.534   1.616   3.878
 1842SOL    HW1 5546   2.543   1.626   3.779
 1842SOL    HW2 5547   2.494   1.527   3.899
 1843SOL     OW 5548   3.703   0.175   4.687
 1843SOL    HW1 5549   3.742   0.090   4.651
 1843SOL    HW2 5550   3.605   0.177   4.668
 1844SOL     OW 5551   2.125   0.326   4.444
 1844SOL    HW1 5552   2.046   0.377   4.410
 1844SOL    HW2 5553   2.116   0.311   4.542
 1845SOL     OW 5554   3.056   1.612   3.755
 1845SOL    HW1 5555   3.062   1.519   3.792
 1845SOL    HW2 5556   2.997   1.612   3.675
 1846SOL     OW 5557   2.778   0.910   4.015
 1846SOL    HW1 5558   2.841   0.948   3.947
 1846SOL    HW2 5559   2.818   0.827   4.054
 1847SOL     OW 5560   3.366   1.607   3.768
 1847SOL    HW1 5561   3.274   1.644   3.775
 1847SOL    HW2 5562   3.404   1.627   3.678
 1848SOL     OW 5563   2.901   1.098   4.420
 1848SOL    HW1 5564   2.831   1.051   4.474
 1848SOL    HW2 5565   2.960   1.030   4.377
 1849SOL     OW 5566   2.452   1.487   4.215
 1849SOL    HW1 5567   2.494   1.429   4.145
 1849SOL    HW2 5568   2.408   1.566   4.171
 1850SOL     OW 5569   2.117   1.348   4.014
 1850SOL    HW1 5570   2.021   1.349   3.987
 1850SOL    HW2 5571   2.129   1.401   4.098
 1851SOL     OW 5572   1.937   0.345   3.757
 1851SOL    HW1 5573   1.845   0.317   3.728
 1851SOL    HW2 5574   1.968   0.422   3.701
 1852SOL     OW 5575   1.934   0.166   4.042
 1852SOL    HW1 5576   1.917   0.249   3.988
 1852SOL    HW2 5577   2.024   0.129   4.020
 1853SOL     OW 5578   3.045   1.335   3.843
 1853SOL    HW1 5579   2.946   1.324   3.845
 1853SOL    HW2 5580   3.079   1.350   3.936
 1854SOL     OW 5581   3.536   0.883   4.978
 1854SOL    HW1 5582   3.509   0.794   4.941
 1854SOL    HW2 5583   3.537   0.951   4.905
 1855SOL     OW 5584   3.087   0.325   4.173
 1855SOL    HW1 5585   3.152   0.251   4.162
 1855SOL    HW2 5586   3.107   0.375   4.257
 1856SOL     OW 5587   2.456   0.745   4.376
 1856SOL    HW1 5588   2.506   0.830   4.357
 1856SOL    HW2 5589   2.368   0.747   4.328
 1857SOL     OW 5590   2.721   1.374   3.740
 1857SOL    HW1 5591   2.675   1.389   3.828
 1857SOL    HW2 5592   2.765   1.459   3.710
 1858SOL     OW 5593   2.523   1.790   4.677
 1858SOL    HW1 5594   2.477   1.878   4.664
 1858SOL    HW2 5595   2.622   1.802   4.670
 1859SOL     OW 5596   2.721   0.956   4.585
 1859SOL    HW1 5597   2.775   0.887   4.633
 1859SOL    HW2 5598   2.689   1.025   4.651
 1860SOL     OW 5599   2.945   0.984   3.811
 1860SOL    HW1 5600   2.922   1.037   3.729
 1860SOL    HW2 5601   3.026   0.928   3.792
 1861SOL     OW 5602   3.723   1.569   4.575
 1861SOL    HW1 5603   3.652   1.557   4.505
 1861SOL    HW2 5604   3.724   1.490   4.635
 1862SOL     OW 5605   1.941   1.240   4.377
 1862SOL    HW1 5606   1.940   1.193   4.465
 1862SOL    HW2 5607   2.023   1.212   4.326
 1863SOL     OW 5608   3.686   0.192   4.951
 1863SOL    HW1 5609   3.682   0.102   4.995
 1863SOL    HW2 5610   3.689   0.181   4.852
 1864SOL     OW 5611   2.290   0.424   4.244
 1864SOL    HW1 5612   2.320   0.352   4.182
 1864SOL    HW2 5613   2.251   0.384   4.327
 1865SOL     OW 5614   2.674   1.586   4.411
 1865SOL    HW1 5615   2.706   1.596   4.317
 1865SOL    HW2 5616   2.595   1.524   4.413
 1866SOL     OW 5617   2.632   1.330   4.025
 1866SOL    HW1 5618   2.586   1.243   4.042
 1866SOL    HW2 5619   2.723   1.327   4.066
 1867SOL     OW 5620   3.214   0.052   3.892
 1867SOL    HW1 5621   3.249   0.011   3.808
 1867SOL    HW2 5622   3.124   0.014   3.912
 1868SOL     OW 5623   3.162   0.453   4.415
 1868SOL    HW1 5624   3.103   0.533   4.419
 1868SOL    HW2 5625   3.177   0.418   4.508
 1869SOL     OW 5626   3.455   0.221   4.606
 1869SOL    HW1 5627   3.371   0.220   4.660
 1869SOL    HW2 5628   3.457   0.304   4.550
 1870SOL     OW 5629   1.901   1.077   4.024
 1870SOL    HW1 5630   2.000   1.066   4.015
 1870SOL    HW2 5631   1.861   0.991   4.056
 1871SOL     OW 5632   2.737   1.646   4.061
 1871SOL    HW1 5633   2.660   1.611   4.007
 1871SOL    HW2 5634   2.705   1.717   4.123
 1872SOL     OW 5635   2.092   2.490   0.113
 1872SOL    HW1 5636   1.999   2.488   0.150
 1872SOL    HW2 5637   2.093   2.451   0.021
 1873SOL     OW 5638   2.087   2.137   0.996
 1873SOL    HW1 5639   2.122   2.120   1.088
 1873SOL    HW2 5640   1.999   2.092   0.984
 1874SOL     OW 5641   1.881   2.230   0.647
 1874SOL    HW1 5642   1.799   2.273   0.686
 1874SOL    HW2 5643   1.853   2.157   0.584
 1875SOL     OW 5644   2.431   3.137   1.165
 1875SOL    HW1 5645   2.338   3.130   1.128
 1875SOL    HW2 5646   2.442   3.226   1.209
 1876SOL     OW 5647   3.417   3.373   0.703
 1876SOL    HW1 5648   3.360   3.357   0.784
 1876SOL    HW2 5649   3.358   3.383   0.623
 1877SOL     OW 5650   2.997   2.565   0.717
 1877SOL    HW1 5651   3.054   2.643   0.692
 1877SOL    HW2 5652   2.937   2.591   0.793
 1878SOL     OW 5653   3.617   2.469   0.231
 1878SOL    HW1 5654   3.605   2.456   0.132
 1878SOL    HW2 5655   3.587   2.388   0.280
 1879SOL     OW 5656   2.630   3.006   1.023
 1879SOL    HW1 5657   2.552   3.023   1.083
 1879SOL    HW2 5658   2.664   3.093   0.987
 1880SOL     OW 5659   2.712   2.660   1.823
 1880SOL    HW1 5660   2.708   2.736   1.888
 1880SOL    HW2 5661   2.734   2.696   1.732
 1881SOL     OW 5662   2.547   2.874   0.665
 1881SOL    HW1 5663   2.616   2.858   0.735
 1881SOL    HW2 5664   2.474   2.931   0.703
 1882SOL     OW 5665   2.548   3.023   1.803
 1882SOL    HW1 5666   2.608   3.102   1.817
 1882SOL    HW2 5667   2.462   3.054   1.762
 1883SOL     OW 5668   2.197   3.297   1.061
 1883SOL    HW1 5669   2.119   3.266   1.008
 1883SOL    HW2 5670   2.255   3.355   1.004
 1884SOL     OW 5671   3.322   3.367   1.339
 1884SOL    HW1 5672   3.346   3.461   1.365
 1884SOL    HW2 5673   3.306   3.313   1.421
 1885SOL     OW 5674   2.300   2.254   1.499
 1885SOL    HW1 5675   2.382   2.198   1.508
 1885SOL    HW2 5676   2.219   2.196   1.503
 1886SOL     OW 5677   3.465   2.309   0.737
 1886SOL    HW1 5678   3.391   2.355   0.687
 1886SOL    HW2 5679   3.516   2.377   0.790
 1887SOL     OW 5680   2.093   3.575   0.483
 1887SOL    HW1 5681   2.127   3.652   0.537
 1887SOL    HW2 5682   2.137   3.575   0.393
 1888SOL     OW 5683   2.989   3.203   1.690
 1888SOL    HW1 5684   3.036   3.203   1.778
 1888SOL    HW2 5685   2.941   3.116   1.679
 1889SOL     OW 5686   2.092   3.296   0.538
 1889SOL    HW1 5687   2.066   3.392   0.538
 1889SOL    HW2 5688   2.021   3.242   0.583
 1890SOL     OW 5689   2.102   2.953   0.886
 1890SOL    HW1 5690   2.116   2.869   0.938
 1890SOL    HW2 5691   2.047   3.017   0.941
 1891SOL     OW 5692   2.482   3.648   1.439
 1891SOL    HW1 5693   2.390   3.631   1.474
 1891SOL    HW2 5694   2.510   3.740   1.465
 1892SOL     OW 5695   2.468   2.826   0.123
 1892SOL    HW1 5696   2.475   2.910   0.069
 1892SOL    HW2 5697   2.514   2.839   0.211
 1893SOL     OW 5698   3.456   1.976   1.480
 1893SOL    HW1 5699   3.438   2.043   1.408
 1893SOL    HW2 5700   3.453   2.022   1.569
 1894SOL     OW 5701   1.984   2.505   0.563
 1894SOL    HW1 5702   1.939   2.417   0.580
 1894SOL    HW2 5703   1.983   2.559   0.647
 1895SOL     OW 5704   3.704   3.629   0.359
 1895SOL    HW1 5705   3.758   3.600   0.439
 1895SOL    HW2 5706   3.734   3.719   0.330
 1896SOL     OW 5707   3.551   2.784   0.612
 1896SOL    HW1 5708   3.646   2.755   0.620
 1896SOL    HW2 5709   3.543   2.849   0.537
 1897SOL     OW 5710   3.503   2.970   0.432
 1897SOL    HW1 5711   3.589   2.972   0.380
 1897SOL    HW2 5712   3.517   3.017   0.520
 1898SOL     OW 5713   1.975   2.599   1.597
 1898SOL    HW1 5714   2.063   2.586   1.642
 1898SOL    HW2 5715   1.962   2.696   1.575
 1899SOL     OW 5716   2.475   3.227   0.726
 1899SOL    HW1 5717   2.426   3.140   0.735
 1899SOL    HW2 5718   2.452   3.270   0.639
 1900SOL     OW 5719   3.155   3.090   1.423
 1900SOL    HW1 5720   3.192   3.017   1.365
 1900SOL    HW2 5721   3.207   3.095   1.508
 1901SOL     OW 5722   2.671   1.866   0.502
 1901SOL    HW1 5723   2.711   1.957   0.493
 1901SOL    HW2 5724   2.571   1.874   0.508
 1902SOL     OW 5725   2.059   2.838   1.264
 1902SOL    HW1 5726   2.148   2.793   1.250
 1902SOL    HW2 5727   1.986   2.773   1.245
 1903SOL     OW 5728   3.387   2.861   0.190
 1903SOL    HW1 5729   3.324   2.785   0.203
 1903SOL    HW2 5730   3.435   2.879   0.276
 1904SOL     OW 5731   3.049   3.654   1.616
 1904SOL    HW1 5732   3.073   3.714   1.540
 1904SOL    HW2 5733   3.056   3.559   1.586
 1905SOL     OW 5734   2.179   2.113   1.801
 1905SOL    HW1 5735   2.250   2.184   1.807
 1905SOL    HW2 5736   2.091   2.152   1.829
 1906SOL     OW 5737   3.328   3.279   0.953
 1906SOL    HW1 5738   3.269   3.285   1.033
 1906SOL    HW2 5739   3.313   3.191   0.907
 1907SOL     OW 5740   3.529   3.576   0.572
 1907SOL    HW1 5741   3.488   3.553   0.484
 1907SOL    HW2 5742   3.511   3.502   0.637
 1908SOL     OW 5743   2.460   2.591   0.270
 1908SOL    HW1 5744   2.484   2.660   0.202
 1908SOL    HW2 5745   2.382   2.624   0.324
 1909SOL     OW 5746   3.143   2.207   0.944
 1909SOL    HW1 5747   3.057   2.157   0.931
 1909SOL    HW2 5748   3.205   2.153   1.000
 1910SOL     OW 5749   3.438   3.524   0.307
 1910SOL    HW1 5750   3.527   3.570   0.310
 1910SOL    HW2 5751   3.417   3.500   0.212
 1911SOL     OW 5752   2.669   2.467   1.465
 1911SOL    HW1 5753   2.622   2.464   1.554
 1911SOL    HW2 5754   2.618   2.412   1.399
 1912SOL     OW 5755   3.256   2.331   1.674
 1912SOL    HW1 5756   3.236   2.374   1.762
 1912SOL    HW2 5757   3.334   2.269   1.683
 1913SOL     OW 5758   2.835   2.752   1.572
 1913SOL    HW1 5759   2.881   2.668   1.543
 1913SOL    HW2 5760   2.779   2.786   1.497
 1914SOL     OW 5761   2.853   2.272   1.242
 1914SOL    HW1 5762   2.776   2.306   1.296
 1914SOL    HW2 5763   2.819   2.221   1.163
 1915SOL     OW 5764   2.903   2.563   0.429
 1915SOL    HW1 5765   2.929   2.559   0.525
 1915SOL    HW2 5766   2.818   2.512   0.415
 1916SOL     OW 5767   1.938   2.673   0.789
 1916SOL    HW1 5768   2.037   2.661   0.798
 1916SOL    HW2 5769   1.914   2.768   0.810
 1917SOL     OW 5770   1.992   3.683   1.571
 1917SOL    HW1 5771   1.982   3.668   1.670
 1917SOL    HW2 5772   1.906   3.719   1.535
 1918SOL     OW 5773   2.727   2.210   0.195
 1918SOL    HW1 5774   2.786   2.273   0.146
 1918SOL    HW2 5775   2.746   2.116   0.166
 1919SOL     OW 5776   3.581   2.447   1.831
 1919SOL    HW1 5777   3.555   2.536   1.795
 1919SOL    HW2 5778   3.579   2.379   1.758
 1920SOL     OW 5779   3.224   3.006   0.545
 1920SOL    HW1 5780   3.307   2.977   0.497
 1920SOL    HW2 5781   3.175   3.073   0.489
 1921SOL     OW 5782   2.412   2.058   0.885
 1921SOL    HW1 5783   2.407   2.053   0.985
 1921SOL    HW2 5784   2.414   2.154   0.856
 1922SOL     OW 5785   2.870   3.318   0.477
 1922SOL    HW1 5786   2.824   3.390   0.425
 1922SOL    HW2 5787   2.866   3.338   0.575
 1923SOL     OW 5788   2.213   3.663   0.853
 1923SOL    HW1 5789   2.263   3.577   0.859
 1923SOL    HW2 5790   2.278   3.740   0.850
 1924SOL     OW 5791   3.657   2.928   0.873
 1924SOL    HW1 5792   3.595   2.913   0.797
 1924SOL    HW2 5793   3.605   2.939   0.958
 1925SOL     OW 5794   3.089   3.412   1.506
 1925SOL    HW1 5795   3.095   3.335   1.570
 1925SOL    HW2 5796   3.037   3.386   1.426
 1926SOL     OW 5797   2.183   2.805   0.242
 1926SOL    HW1 5798   2.265   2.844   0.200
 1926SOL    HW2 5799   2.156   2.723   0.193
 1927SOL     OW 5800   3.320   2.597   0.728
 1927SOL    HW1 5801   3.315   2.532   0.803
 1927SOL    HW2 5802   3.400   2.656   0.741
 1928SOL     OW 5803   2.323   3.128   1.727
 1928SOL    HW1 5804   2.273   3.129   1.641
 1928SOL    HW2 5805   2.260   3.110   1.803
 1929SOL     OW 5806   2.973   3.638   0.237
 1929SOL    HW1 5807   2.913   3.576   0.287
 1929SOL    HW2 5808   3.004   3.594   0.152
 1930SOL     OW 5809   2.064   2.147   1.498
 1930SOL    HW1 5810   1.984   2.207   1.485
 1930SOL    HW2 5811   2.054   2.098   1.584
 1931SOL     OW 5812   3.494   3.239   0.081
 1931SOL    HW1 5813   3.462   3.333   0.071
 1931SOL    HW2 5814   3.418   3.176   0.069
 1932SOL     OW 5815   2.326   3.605   0.323
 1932SOL    HW1 5816   2.359   3.644   0.409
 1932SOL    HW2 5817   2.402   3.598   0.258
 1933SOL     OW 5818   3.262   1.969   0.426
 1933SOL    HW1 5819   3.238   1.932   0.336
 1933SOL    HW2 5820   3.361   1.985   0.430
 1934SOL     OW 5821   2.111   3.647   1.241
 1934SOL    HW1 5822   2.168   3.582   1.291
 1934SOL    HW2 5823   2.095   3.614   1.148
 1935SOL     OW 5824   2.802   3.560   0.904
 1935SOL    HW1 5825   2.882   3.503   0.925
 1935SOL    HW2 5826   2.753   3.520   0.827
 1936SOL     OW 5827   2.244   2.562   0.480
 1936SOL    HW1 5828   2.289   2.472   0.477
 1936SOL    HW2 5829   2.150   2.551   0.513
 1937SOL     OW 5830   3.409   2.084   1.729
 1937SOL    HW1 5831   3.404   2.121   1.821
 1937SOL    HW2 5832   3.337   2.015   1.717
 1938SOL     OW 5833   2.643   2.126   1.749
 1938SOL    HW1 5834   2.710   2.065   1.792
 1938SOL    HW2 5835   2.570   2.145   1.814
 1939SOL     OW 5836   2.750   3.376   1.195
 1939SOL    HW1 5837   2.727   3.351   1.101
 1939SOL    HW2 5838   2.811   3.307   1.234
 1940SOL     OW 5839   3.213   2.452   1.433
 1940SOL    HW1 5840   3.241   2.409   1.518
 1940SOL    HW2 5841   3.238   2.548   1.434
 1941SOL     OW 5842   2.665   3.264   0.924
 1941SOL    HW1 5843   2.755   3.278   0.882
 1941SOL    HW2 5844   2.594   3.266   0.853
 1942SOL     OW 5845   2.784   2.365   0.899
 1942SOL    HW1 5846   2.759   2.356   0.803
 1942SOL    HW2 5847   2.832   2.283   0.930
 1943SOL     OW 5848   2.401   1.926   0.512
 1943SOL    HW1 5849   2.320   1.927   0.570
 1943SOL    HW2 5850   2.404   2.009   0.457
 1944SOL     OW 5851   3.296   3.050   0.041
 1944SOL    HW1 5852   3.328   2.974   0.098
 1944SOL    HW2 5853   3.204   3.077   0.071
 1945SOL     OW 5854   2.159   1.897   0.171
 1945SOL    HW1 5855   2.208   1.981   0.150
 1945SOL    HW2 5856   2.221   1.832   0.216
 1946SOL     OW 5857   2.797   2.098   0.480
 1946SOL    HW1 5858   2.749   2.139   0.402
 1946SOL    HW2 5859   2.896   2.096   0.461
 1947SOL     OW 5860   2.938   2.545   1.464
 1947SOL    HW1 5861   2.858   2.484   1.467
 1947SOL    HW2 5862   3.019   2.492   1.440
 1948SOL     OW 5863   3.089   3.432   0.793
 1948SOL    HW1 5864   3.110   3.506   0.728
 1948SOL    HW2 5865   3.157   3.432   0.866
 1949SOL     OW 5866   2.321   3.014   0.741
 1949SOL    HW1 5867   2.250   2.987   0.806
 1949SOL    HW2 5868   2.295   2.986   0.648
 1950SOL     OW 5869   3.133   3.659   0.591
 1950SOL    HW1 5870   3.177   3.723   0.527
 1950SOL    HW2 5871   3.083   3.711   0.661
 1951SOL     OW 5872   2.894   2.411   0.016
 1951SOL    HW1 5873   2.853   2.493  -0.023
 1951SOL    HW2 5874   2.958   2.437   0.089
 1952SOL     OW 5875   1.940   2.418   1.386
 1952SOL    HW1 5876   2.032   2.417   1.345
 1952SOL    HW2 5877   1.934   2.492   1.453
 1953SOL     OW 5878   2.423   2.084   1.147
 1953SOL    HW1 5879   2.461   2.000   1.184
 1953SOL    HW2 5880   2.335   2.103   1.191
 1954SOL     OW 5881   2.728   2.316   0.642
 1954SOL    HW1 5882   2.696   2.388   0.580
 1954SOL    HW2 5883   2.752   2.235   0.589
 1955SOL     OW 5884   2.879   1.901   0.753
 1955SOL    HW1 5885   2.807   1.906   0.684
 1955SOL    HW2 5886   2.855   1.832   0.822
 1956SOL     OW 5887   3.291   3.035   0.867
 1956SOL    HW1 5888   3.236   2.951   0.860
 1956SOL    HW2 5889   3.317   3.064   0.775
 1957SOL     OW 5890   3.328   2.452   0.992
 1957SOL    HW1 5891   3.298   2.357   0.999
 1957SOL    HW2 5892   3.401   2.468   1.058
 1958SOL     OW 5893   3.719   2.695   0.377
 1958SOL    HW1 5894   3.761   2.631   0.441
 1958SOL    HW2 5895   3.681   2.644   0.299
 1959SOL     OW 5896   2.350   3.247   0.174
 1959SOL    HW1 5897   2.263   3.232   0.221
 1959SOL    HW2 5898   2.333   3.273   0.079
 1960SOL     OW 5899   3.526   3.142   0.657
 1960SOL    HW1 5900   3.625   3.150   0.671
 1960SOL    HW2 5901   3.481   3.226   0.688
 1961SOL     OW 5902   3.252   2.437   0.078
 1961SOL    HW1 5903   3.198   2.416   0.159
 1961SOL    HW2 5904   3.343   2.396   0.087
 1962SOL     OW 5905   2.389   2.118   0.328
 1962SOL    HW1 5906   2.416   2.059   0.253
 1962SOL    HW2 5907   2.389   2.213   0.297
 1963SOL     OW 5908   3.616   3.085   1.588
 1963SOL    HW1 5909   3.707   3.046   1.575
 1963SOL    HW2 5910   3.624   3.181   1.612
 1964SOL     OW 5911   2.926   3.209   1.340
 1964SOL    HW1 5912   2.846   3.186   1.395
 1964SOL    HW2 5913   3.009   3.183   1.389
 1965SOL     OW 5914   3.454   3.491   1.625
 1965SOL    HW1 5915   3.481   3.525   1.535
 1965SOL    HW2 5916   3.533   3.453   1.671
 1966SOL     OW 5917   2.973   3.057   1.100
 1966SOL    HW1 5918   2.933   3.101   1.181
 1966SOL    HW2 5919   2.932   3.094   1.017
 1967SOL     OW 5920   3.500   2.961   1.079
 1967SOL    HW1 5921   3.505   3.042   1.138
 1967SOL    HW2 5922   3.414   2.963   1.028
 1968SOL     OW 5923   2.777   1.951   1.402
 1968SOL    HW1 5924   2.802   1.931   1.307
 1968SOL    HW2 5925   2.849   2.007   1.444
 1969SOL     OW 5926   2.842   2.978   1.719
 1969SOL    HW1 5927   2.743   2.984   1.729
 1969SOL    HW2 5928   2.865   2.898   1.663
 1970SOL     OW 5929   2.567   2.912   0.368
 1970SOL    HW1 5930   2.553   2.919   0.467
 1970SOL    HW2 5931   2.651   2.861   0.350
 1971SOL     OW 5932   2.272   2.675   1.251
 1971SOL    HW1 5933   2.358   2.687   1.301
 1971SOL    HW2 5934   2.230   2.588   1.278
 1972SOL     OW 5935   3.136   2.248   1.262
 1972SOL    HW1 5936   3.157   2.322   1.326
 1972SOL    HW2 5937   3.047   2.265   1.219
 1973SOL     OW 5938   1.926   3.426   1.331
 1973SOL    HW1 5939   1.880   3.508   1.297
 1973SOL    HW2 5940   2.024   3.445   1.340
 1974SOL     OW 5941   2.229   2.962   0.501
 1974SOL    HW1 5942   2.222   3.045   0.445
 1974SOL    HW2 5943   2.233   2.882   0.441
 1975SOL     OW 5944   2.428   2.399   0.865
 1975SOL    HW1 5945   2.440   2.465   0.791
 1975SOL    HW2 5946   2.474   2.433   0.948
 1976SOL     OW 5947   3.114   3.210   0.388
 1976SOL    HW1 5948   3.164   3.287   0.428
 1976SOL    HW2 5949   3.019   3.212   0.420
 1977SOL     OW 5950   3.134   3.307   1.142
 1977SOL    HW1 5951   3.181   3.320   1.229
 1977SOL    HW2 5952   3.068   3.233   1.151
 1978SOL     OW 5953   3.444   2.501   0.472
 1978SOL    HW1 5954   3.413   2.562   0.545
 1978SOL    HW2 5955   3.494   2.553   0.403
 1979SOL     OW 5956   2.216   3.372   1.329
 1979SOL    HW1 5957   2.195   3.328   1.242
 1979SOL    HW2 5958   2.313   3.398   1.332
 1980SOL     OW 5959   2.264   2.613   1.598
 1980SOL    HW1 5960   2.332   2.668   1.551
 1980SOL    HW2 5961   2.304   2.525   1.625
 1981SOL     OW 5962   3.449   2.641   1.670
 1981SOL    HW1 5963   3.357   2.679   1.665
 1981SOL    HW2 5964   3.509   2.688   1.605
 1982SOL     OW 5965   2.875   1.967   1.770
 1982SOL    HW1 5966   2.881   2.052   1.718
 1982SOL    HW2 5967   2.907   1.891   1.713
 1983SOL     OW 5968   2.366   1.912   1.740
 1983SOL    HW1 5969   2.324   1.855   1.670
 1983SOL    HW2 5970   2.300   1.981   1.772
 1984SOL     OW 5971   2.435   2.732   1.029
 1984SOL    HW1 5972   2.479   2.821   1.020
 1984SOL    HW2 5973   2.372   2.732   1.106
 1985SOL     OW 5974   3.222   2.724   1.045
 1985SOL    HW1 5975   3.147   2.724   0.979
 1985SOL    HW2 5976   3.259   2.632   1.054
 1986SOL     OW 5977   3.071   2.387   0.275
 1986SOL    HW1 5978   3.084   2.303   0.329
 1986SOL    HW2 5979   3.042   2.461   0.335
 1987SOL     OW 5980   2.169   2.075   1.231
 1987SOL    HW1 5981   2.146   2.112   1.321
 1987SOL    HW2 5982   2.139   1.980   1.225
 1988SOL     OW 5983   1.899   3.172   1.282
 1988SOL    HW1 5984   1.952   3.123   1.350
 1988SOL    HW2 5985   1.921   3.270   1.287
 1989SOL     OW 5986   2.594   2.496   1.064
 1989SOL    HW1 5987   2.653   2.470   0.988
 1989SOL    HW2 5988   2.566   2.592   1.053
 1990SOL     OW 5989   3.590   2.797   1.854
 1990SOL    HW1 5990   3.544   2.790   1.765
 1990SOL    HW2 5991   3.528   2.841   1.920
 1991SOL     OW 5992   2.169   1.925   0.618
 1991SOL    HW1 5993   2.158   2.019   0.651
 1991SOL    HW2 5994   2.164   1.862   0.695
 1992SOL     OW 5995   3.484   2.229   0.374
 1992SOL    HW1 5996   3.486   2.153   0.438
 1992SOL    HW2 5997   3.436   2.306   0.414
 1993SOL     OW 5998   2.885   2.628   0.966
 1993SOL    HW1 5999   2.900   2.649   1.062
 1993SOL    HW2 6000   2.855   2.533   0.957
 1994SOL     OW 6001   2.842   3.435   1.700
 1994SOL    HW1 6002   2.822   3.479   1.612
 1994SOL    HW2 6003   2.881   3.344   1.684
 1995SOL     OW 6004   3.721   3.380   1.605
 1995SOL    HW1 6005   3.735   3.407   1.510
 1995SOL    HW2 6006   3.804   3.402   1.658
 1996SOL     OW 6007   2.212   2.760   1.804
 1996SOL    HW1 6008   2.288   2.804   1.852
 1996SOL    HW2 6009   2.247   2.713   1.722
 1997SOL     OW 6010   3.402   2.136   0.125
 1997SOL    HW1 6011   3.341   2.061   0.148
 1997SOL    HW2 6012   3.424   2.188   0.208
 1998SOL     OW 6013   3.165   2.700   0.042
 1998SOL    HW1 6014   3.199   2.607   0.057
 1998SOL    HW2 6015   3.183   2.727  -0.053
 1999SOL     OW 6016   2.930   3.195   0.849
 1999SOL    HW1 6017   2.937   3.111   0.794
 1999SOL    HW2 6018   2.992   3.264   0.813
 2000SOL     OW 6019   2.181   2.672   0.949
 2000SOL    HW1 6020   2.274   2.708   0.954
 2000SOL    HW2 6021   2.175   2.587   1.001
 2001SOL     OW 6022   2.201   2.371   1.006
 2001SOL    HW1 6023   2.149   2.288   0.989
 2001SOL    HW2 6024   2.278   2.376   0.942
 2002SOL     OW 6025   3.000   2.242   1.678
 2002SOL    HW1 6026   2.955   2.305   1.742
 2002SOL    HW2 6027   3.093   2.273   1.661
 2003SOL     OW 6028   3.022   2.069   1.477
 2003SOL    HW1 6029   3.022   2.133   1.554
 2003SOL    HW2 6030   3.050   2.117   1.394
 2004SOL     OW 6031   1.870   3.188   0.200
 2004SOL    HW1 6032   1.777   3.209   0.169
 2004SOL    HW2 6033   1.880   3.089   0.213
 2005SOL     OW 6034   1.950   3.663   0.927
 2005SOL    HW1 6035   1.908   3.577   0.900
 2005SOL    HW2 6036   2.044   3.666   0.893
 2006SOL     OW 6037   2.366   3.430   0.910
 2006SOL    HW1 6038   2.432   3.504   0.919
 2006SOL    HW2 6039   2.410   3.351   0.868
 2007SOL     OW 6040   2.864   2.658   1.238
 2007SOL    HW1 6041   2.905   2.626   1.324
 2007SOL    HW2 6042   2.768   2.631   1.235
 2008SOL     OW 6043   1.902   2.406   1.114
 2008SOL    HW1 6044   1.987   2.373   1.073
 2008SOL    HW2 6045   1.915   2.421   1.212
 2009SOL     OW 6046   2.051   2.382   1.722
 2009SOL    HW1 6047   2.110   2.342   1.652
 2009SOL    HW2 6048   1.993   2.453   1.681
 2010SOL     OW 6049   3.231   2.812   1.660
 2010SOL    HW1 6050   3.270   2.901   1.680
 2010SOL    HW2 6051   3.241   2.792   1.563
 2011SOL     OW 6052   2.677   2.434   0.325
 2011SOL    HW1 6053   2.684   2.345   0.279
 2011SOL    HW2 6054   2.583   2.468   0.317
 2012SOL     OW 6055   3.519   2.466   1.206
 2012SOL    HW1 6056   3.481   2.397   1.268
 2012SOL    HW2 6057   3.601   2.430   1.162
 2013SOL     OW 6058   2.114   3.426   1.744
 2013SOL    HW1 6059   2.084   3.483   1.820
 2013SOL    HW2 6060   2.107   3.329   1.770
 2014SOL     OW 6061   2.533   2.326   1.269
 2014SOL    HW1 6062   2.499   2.237   1.239
 2014SOL    HW2 6063   2.559   2.380   1.189
 2015SOL     OW 6064   2.792   3.540   1.465
 2015SOL    HW1 6065   2.768   3.522   1.370
 2015SOL    HW2 6066   2.822   3.634   1.475
 2016SOL     OW 6067   2.335   2.362   0.191
 2016SOL    HW1 6068   2.396   2.442   0.195
 2016SOL    HW2 6069   2.240   2.393   0.198
 2017SOL     OW 6070   2.021   2.999   1.466
 2017SOL    HW1 6071   2.043   2.938   1.542
 2017SOL    HW2 6072   2.031   2.950   1.380
 2018SOL     OW 6073   3.209   2.921   1.234
 2018SOL    HW1 6074   3.233   2.858   1.160
 2018SOL    HW2 6075   3.119   2.961   1.216
 2019SOL     OW 6076   3.164   2.717   0.309
 2019SOL    HW1 6077   3.078   2.686   0.351
 2019SOL    HW2 6078   3.160   2.703   0.210
 2020SOL     OW 6079   3.621   3.609   1.154
 2020SOL    HW1 6080   3.682   3.639   1.081
 2020SOL    HW2 6081   3.583   3.520   1.132
 2021SOL     OW 6082   3.114   3.593   1.128
 2021SOL    HW1 6083   3.198   3.598   1.074
 2021SOL    HW2 6084   3.091   3.497   1.146
 2022SOL     OW 6085   1.945   3.120   1.022
 2022SOL    HW1 6086   1.940   3.119   1.122
 2022SOL    HW2 6087   1.862   3.079   0.984
 2023SOL     OW 6088   2.550   3.524   1.716
 2023SOL    HW1 6089   2.494   3.605   1.725
 2023SOL    HW2 6090   2.602   3.528   1.630
 2024SOL     OW 6091   2.765   1.948   0.133
 2024SOL    HW1 6092   2.816   1.949   0.047
 2024SOL    HW2 6093   2.821   1.906   0.204
 2025SOL     OW 6094   3.588   1.997   0.523
 2025SOL    HW1 6095   3.661   1.980   0.456
 2025SOL    HW2 6096   3.557   1.910   0.561
 2026SOL     OW 6097   3.250   3.435   0.477
 2026SOL    HW1 6098   3.317   3.447   0.403
 2026SOL    HW2 6099   3.210   3.524   0.500
 2027SOL     OW 6100   1.992   3.656   1.851
 2027SOL    HW1 6101   1.951   3.582   1.904
 2027SOL    HW2 6102   2.056   3.707   1.909
 2028SOL     OW 6103   3.142   2.789   0.672
 2028SOL    HW1 6104   3.202   2.708   0.674
 2028SOL    HW2 6105   3.182   2.858   0.612
 2029SOL     OW 6106   2.692   3.135   1.422
 2029SOL    HW1 6107   2.687   3.168   1.517
 2029SOL    HW2 6108   2.606   3.154   1.376
 2030SOL     OW 6109   2.534   3.478   0.154
 2030SOL    HW1 6110   2.543   3.488   0.055
 2030SOL    HW2 6111   2.494   3.389   0.175
 2031SOL     OW 6112   3.512   3.582   1.394
 2031SOL    HW1 6113   3.565   3.592   1.310
 2031SOL    HW2 6114   3.485   3.672   1.428
 2032SOL     OW 6115   3.703   2.037   0.963
 2032SOL    HW1 6116   3.742   1.952   0.927
 2032SOL    HW2 6117   3.605   2.039   0.944
 2033SOL     OW 6118   2.125   2.188   0.720
 2033SOL    HW1 6119   2.046   2.239   0.686
 2033SOL    HW2 6120   2.116   2.173   0.818
 2034SOL     OW 6121   3.056   3.474   0.031
 2034SOL    HW1 6122   3.062   3.381   0.068
 2034SOL    HW2 6123   2.997   3.474  -0.049
 2035SOL     OW 6124   2.684   2.864   1.372
 2035SOL    HW1 6125   2.724   2.863   1.280
 2035SOL    HW2 6126   2.694   2.956   1.412
 2036SOL     OW 6127   2.778   2.772   0.291
 2036SOL    HW1 6128   2.841   2.810   0.223
 2036SOL    HW2 6129   2.818   2.689   0.330
 2037SOL     OW 6130   3.366   3.469   0.044
 2037SOL    HW1 6131   3.274   3.506   0.051
 2037SOL    HW2 6132   3.404   3.489  -0.046
 2038SOL     OW 6133   2.234   3.150   1.490
 2038SOL    HW1 6134   2.221   3.243   1.456
 2038SOL    HW2 6135   2.150   3.098   1.477
 2039SOL     OW 6136   3.476   3.154   1.289
 2039SOL    HW1 6137   3.536   3.157   1.369
 2039SOL    HW2 6138   3.401   3.218   1.302
 2040SOL     OW 6139   2.901   2.960   0.696
 2040SOL    HW1 6140   2.831   2.913   0.750
 2040SOL    HW2 6141   2.960   2.892   0.653
 2041SOL     OW 6142   2.876   2.098   0.971
 2041SOL    HW1 6143   2.868   2.062   0.878
 2041SOL    HW2 6144   2.874   2.022   1.036
 2042SOL     OW 6145   2.452   3.349   0.491
 2042SOL    HW1 6146   2.494   3.291   0.421
 2042SOL    HW2 6147   2.408   3.428   0.447
 2043SOL     OW 6148   3.571   2.247   1.381
 2043SOL    HW1 6149   3.644   2.316   1.385
 2043SOL    HW2 6150   3.599   2.172   1.322
 2044SOL     OW 6151   2.117   3.210   0.290
 2044SOL    HW1 6152   2.021   3.211   0.263
 2044SOL    HW2 6153   2.129   3.263   0.374
 2045SOL     OW 6154   1.967   2.875   1.726
 2045SOL    HW1 6155   1.890   2.842   1.780
 2045SOL    HW2 6156   2.052   2.845   1.768
 2046SOL     OW 6157   2.534   2.065   1.489
 2046SOL    HW1 6158   2.624   2.049   1.449
 2046SOL    HW2 6159   2.542   2.070   1.588
 2047SOL     OW 6160   3.302   2.718   1.398
 2047SOL    HW1 6161   3.245   2.770   1.335
 2047SOL    HW2 6162   3.398   2.730   1.374
 2048SOL     OW 6163   1.934   2.028   0.318
 2048SOL    HW1 6164   1.917   2.111   0.264
 2048SOL    HW2 6165   2.024   1.991   0.296
 2049SOL     OW 6166   3.045   3.197   0.119
 2049SOL    HW1 6167   2.946   3.186   0.121
 2049SOL    HW2 6168   3.079   3.212   0.212
 2050SOL     OW 6169   2.475   2.704   1.431
 2050SOL    HW1 6170   2.531   2.785   1.414
 2050SOL    HW2 6171   2.534   2.624   1.434
 2051SOL     OW 6172   3.355   3.629   0.959
 2051SOL    HW1 6173   3.388   3.693   0.890
 2051SOL    HW2 6174   3.421   3.623   1.034
 2052SOL     OW 6175   2.578   2.427   1.708
 2052SOL    HW1 6176   2.597   2.492   1.782
 2052SOL    HW2 6177   2.638   2.347   1.717
 2053SOL     OW 6178   3.312   3.082   1.633
 2053SOL    HW1 6179   3.303   3.072   1.732
 2053SOL    HW2 6180   3.408   3.075   1.607
 2054SOL     OW 6181   2.252   3.603   1.560
 2054SOL    HW1 6182   2.161   3.644   1.558
 2054SOL    HW2 6183   2.245   3.509   1.592
 2055SOL     OW 6184   3.536   2.745   1.254
 2055SOL    HW1 6185   3.509   2.656   1.217
 2055SOL    HW2 6186   3.537   2.813   1.181
 2056SOL     OW 6187   3.087   2.187   0.449
 2056SOL    HW1 6188   3.152   2.113   0.438
 2056SOL    HW2 6189   3.107   2.237   0.533
 2057SOL     OW 6190   2.456   2.607   0.652
 2057SOL    HW1 6191   2.506   2.692   0.633
 2057SOL    HW2 6192   2.368   2.609   0.604
 2058SOL     OW 6193   3.639   2.204   1.642
 2058SOL    HW1 6194   3.622   2.235   1.548
 2058SOL    HW2 6195   3.555   2.167   1.680
 2059SOL     OW 6196   3.592   2.796   1.517
 2059SOL    HW1 6197   3.630   2.887   1.532
 2059SOL    HW2 6198   3.584   2.779   1.418
 2060SOL     OW 6199   2.721   3.236   0.016
 2060SOL    HW1 6200   2.675   3.251   0.104
 2060SOL    HW2 6201   2.765   3.321  -0.014
 2061SOL     OW 6202   2.523   3.652   0.953
 2061SOL    HW1 6203   2.477   3.740   0.940
 2061SOL    HW2 6204   2.622   3.664   0.946
 2062SOL     OW 6205   2.721   2.818   0.861
 2062SOL    HW1 6206   2.775   2.749   0.909
 2062SOL    HW2 6207   2.689   2.887   0.927
 2063SOL     OW 6208   2.945   2.846   0.087
 2063SOL    HW1 6209   2.922   2.899   0.005
 2063SOL    HW2 6210   3.026   2.790   0.068
 2064SOL     OW 6211   3.723   3.431   0.851
 2064SOL    HW1 6212   3.652   3.419   0.781
 2064SOL    HW2 6213   3.724   3.352   0.911
 2065SOL     OW 6214   2.083   3.176   1.844
 2065SOL    HW1 6215   2.018   3.103   1.823
 2065SOL    HW2 6216   2.087   3.190   1.942
 2066SOL     OW 6217   1.941   3.102   0.653
 2066SOL    HW1 6218   1.940   3.055   0.741
 2066SOL    HW2 6219   2.023   3.074   0.602
 2067SOL     OW 6220   2.534   3.253   1.624
 2067SOL    HW1 6221   2.456   3.203   1.662
 2067SOL    HW2 6222   2.531   3.348   1.655
 2068SOL     OW 6223   3.686   2.054   1.227
 2068SOL    HW1 6224   3.682   1.964   1.271
 2068SOL    HW2 6225   3.689   2.043   1.128
 2069SOL     OW 6226   2.290   2.286   0.520
 2069SOL    HW1 6227   2.320   2.214   0.458
 2069SOL    HW2 6228   2.251   2.246   0.603
 2070SOL     OW 6229   3.567   3.349   1.104
 2070SOL    HW1 6230   3.474   3.324   1.077
 2070SOL    HW2 6231   3.593   3.299   1.186
 2071SOL     OW 6232   2.179   2.409   1.280
 2071SOL    HW1 6233   2.217   2.350   1.352
 2071SOL    HW2 6234   2.219   2.383   1.192
 2072SOL     OW 6235   2.674   3.448   0.687
 2072SOL    HW1 6236   2.706   3.458   0.593
 2072SOL    HW2 6237   2.595   3.386   0.689
 2073SOL     OW 6238   3.286   2.076   1.112
 2073SOL    HW1 6239   3.338   2.011   1.167
 2073SOL    HW2 6240   3.237   2.139   1.173
 2074SOL     OW 6241   2.863   1.896   1.154
 2074SOL    HW1 6242   2.800   1.824   1.123
 2074SOL    HW2 6243   2.956   1.860   1.154
 2075SOL     OW 6244   2.632   3.192   0.301
 2075SOL    HW1 6245   2.586   3.105   0.318
 2075SOL    HW2 6246   2.723   3.189   0.342
 2076SOL     OW 6247   2.480   3.429   1.284
 2076SOL    HW1 6248   2.475   3.511   1.341
 2076SOL    HW2 6249   2.569   3.426   1.239
 2077SOL     OW 6250   3.214   1.914   0.168
 2077SOL    HW1 6251   3.249   1.873   0.084
 2077SOL    HW2 6252   3.124   1.876   0.188
 2078SOL     OW 6253   3.162   2.315   0.691
 2078SOL    HW1 6254   3.103   2.395   0.695
 2078SOL    HW2 6255   3.177   2.280   0.784
 2079SOL     OW 6256   3.455   2.083   0.882
 2079SOL    HW1 6257   3.371   2.082   0.936
 2079SOL    HW2 6258   3.457   2.166   0.826
 2080SOL     OW 6259   1.901   2.939   0.300
 2080SOL    HW1 6260   2.000   2.928   0.291
 2080SOL    HW2 6261   1.861   2.853   0.332
 2081SOL     OW 6262   2.737   3.508   0.337
 2081SOL    HW1 6263   2.660   3.473   0.283
 2081SOL    HW2 6264   2.705   3.579   0.399
 2082SOL     OW 6265   2.092   2.490   1.975
 2082SOL    HW1 6266   1.999   2.488   2.012
 2082SOL    HW2 6267   2.093   2.451   1.883
 2083SOL     OW 6268   2.087   2.137   2.858
 2083SOL    HW1 6269   2.122   2.120   2.950
 2083SOL    HW2 6270   1.999   2.092   2.846
 2084SOL     OW 6271   1.881   2.230   2.509
 2084SOL    HW1 6272   1.799   2.273   2.548
 2084SOL    HW2 6273   1.853   2.157   2.446
 2085SOL     OW 6274   2.431   3.137   3.027
 2085SOL    HW1 6275   2.338   3.130   2.990
 2085SOL    HW2 6276   2.442   3.226   3.071
 2086SOL     OW 6277   3.417   3.373   2.565
 2086SOL    HW1 6278   3.360   3.357   2.646
 2086SOL    HW2 6279   3.358   3.383   2.485
 2087SOL     OW 6280   2.997   2.565   2.579
 2087SOL    HW1 6281   3.054   2.643   2.554
 2087SOL    HW2 6282   2.937   2.591   2.655
 2088SOL     OW 6283   3.617   2.469   2.093
 2088SOL    HW1 6284   3.605   2.456   1.994
 2088SOL    HW2 6285   3.587   2.388   2.142
 2089SOL     OW 6286   2.630   3.006   2.885
 2089SOL    HW1 6287   2.552   3.023   2.945
 2089SOL    HW2 6288   2.664   3.093   2.849
 2090SOL     OW 6289   2.712   2.660   3.685
 2090SOL    HW1 6290   2.708   2.736   3.750
 2090SOL    HW2 6291   2.734   2.696   3.594
 2091SOL     OW 6292   2.547   2.874   2.527
 2091SOL    HW1 6293   2.616   2.858   2.597
 2091SOL    HW2 6294   2.474   2.931   2.565
 2092SOL     OW 6295   2.548   3.023   3.665
 2092SOL    HW1 6296   2.608   3.102   3.679
 2092SOL    HW2 6297   2.462   3.054   3.624
 2093SOL     OW 6298   2.197   3.297   2.923
 2093SOL    HW1 6299   2.119   3.266   2.870
 2093SOL    HW2 6300   2.255   3.355   2.866
 2094SOL     OW 6301   3.322   3.367   3.201
 2094SOL    HW1 6302   3.346   3.461   3.227
 2094SOL    HW2 6303   3.306   3.313   3.283
 2095SOL     OW 6304   2.300   2.254   3.361
 2095SOL    HW1 6305   2.382   2.198   3.370
 2095SOL    HW2 6306   2.219   2.196   3.365
 2096SOL     OW 6307   3.465   2.309   2.599
 2096SOL    HW1 6308   3.391   2.355   2.549
 2096SOL    HW2 6309   3.516   2.377   2.652
 2097SOL     OW 6310   2.093   3.575   2.345
 2097SOL    HW1 6311   2.127   3.652   2.399
 2097SOL    HW2 6312   2.137   3.575   2.255
 2098SOL     OW 6313   2.989   3.203   3.552
 2098SOL    HW1 6314   3.036   3.203   3.640
 2098SOL    HW2 6315   2.941   3.116   3.541
 2099SOL     OW 6316   2.092   3.296   2.400
 2099SOL    HW1 6317   2.066   3.392   2.400
 2099SOL    HW2 6318   2.021   3.242   2.445
 2100SOL     OW 6319   2.102   2.953   2.748
 2100SOL    HW1 6320   2.116   2.869   2.800
 2100SOL    HW2 6321   2.047   3.017   2.803
 2101SOL     OW 6322   2.482   3.648   3.301
 2101SOL    HW1 6323   2.390   3.631   3.336
 2101SOL    HW2 6324   2.510   3.740   3.327
 2102SOL     OW 6325   2.468   2.826   1.985
 2102SOL    HW1 6326   2.475   2.910   1.931
 2102SOL    HW2 6327   2.514   2.839   2.073
 2103SOL     OW 6328   3.456   1.976   3.342
 2103SOL    HW1 6329   3.438   2.043   3.270
 2103SOL    HW2 6330   3.453   2.022   3.431
 2104SOL     OW 6331   3.704   3.629   2.221
 2104SOL    HW1 6332   3.758   3.600   2.301
 2104SOL    HW2 6333   3.734   3.719   2.192
 2105SOL     OW 6334   1.889   3.458   1.979
 2105SOL    HW1 6335   1.870   3.362   2.000
 2105SOL    HW2 6336   1.856   3.516   2.054
 2106SOL     OW 6337   3.551   2.784   2.474
 2106SOL    HW1 6338   3.646   2.755   2.482
 2106SOL    HW2 6339   3.543   2.849   2.399
 2107SOL     OW 6340   3.503   2.970   2.294
 2107SOL    HW1 6341   3.589   2.972   2.242
 2107SOL    HW2 6342   3.517   3.017   2.382
 2108SOL     OW 6343   1.975   2.599   3.459
 2108SOL    HW1 6344   2.063   2.586   3.504
 2108SOL    HW2 6345   1.962   2.696   3.437
 2109SOL     OW 6346   2.475   3.227   2.588
 2109SOL    HW1 6347   2.426   3.140   2.597
 2109SOL    HW2 6348   2.452   3.270   2.501
 2110SOL     OW 6349   3.155   3.090   3.285
 2110SOL    HW1 6350   3.192   3.017   3.227
 2110SOL    HW2 6351   3.207   3.095   3.370
 2111SOL     OW 6352   2.671   1.866   2.364
 2111SOL    HW1 6353   2.711   1.957   2.355
 2111SOL    HW2 6354   2.571   1.874   2.370
 2112SOL     OW 6355   2.059   2.838   3.126
 2112SOL    HW1 6356   2.148   2.793   3.112
 2112SOL    HW2 6357   1.986   2.773   3.107
 2113SOL     OW 6358   3.387   2.861   2.052
 2113SOL    HW1 6359   3.324   2.785   2.065
 2113SOL    HW2 6360   3.435   2.879   2.138
 2114SOL     OW 6361   3.049   3.654   3.478
 2114SOL    HW1 6362   3.073   3.714   3.402
 2114SOL    HW2 6363   3.056   3.559   3.448
 2115SOL     OW 6364   2.179   2.113   3.663
 2115SOL    HW1 6365   2.250   2.184   3.669
 2115SOL    HW2 6366   2.091   2.152   3.691
 2116SOL     OW 6367   3.328   3.279   2.815
 2116SOL    HW1 6368   3.269   3.285   2.895
 2116SOL    HW2 6369   3.313   3.191   2.769
 2117SOL     OW 6370   3.529   3.576   2.434
 2117SOL    HW1 6371   3.488   3.553   2.346
 2117SOL    HW2 6372   3.511   3.502   2.499
 2118SOL     OW 6373   3.143   2.207   2.806
 2118SOL    HW1 6374   3.057   2.157   2.793
 2118SOL    HW2 6375   3.205   2.153   2.862
 2119SOL     OW 6376   3.438   3.524   2.169
 2119SOL    HW1 6377   3.527   3.570   2.172
 2119SOL    HW2 6378   3.417   3.500   2.074
 2120SOL     OW 6379   2.669   2.467   3.327
 2120SOL    HW1 6380   2.622   2.464   3.416
 2120SOL    HW2 6381   2.618   2.412   3.261
 2121SOL     OW 6382   3.256   2.331   3.536
 2121SOL    HW1 6383   3.236   2.374   3.624
 2121SOL    HW2 6384   3.334   2.269   3.545
 2122SOL     OW 6385   2.835   2.752   3.434
 2122SOL    HW1 6386   2.881   2.668   3.405
 2122SOL    HW2 6387   2.779   2.786   3.359
 2123SOL     OW 6388   2.853   2.272   3.104
 2123SOL    HW1 6389   2.776   2.306   3.158
 2123SOL    HW2 6390   2.819   2.221   3.025
 2124SOL     OW 6391   2.903   2.563   2.291
 2124SOL    HW1 6392   2.929   2.559   2.387
 2124SOL    HW2 6393   2.818   2.512   2.277
 2125SOL     OW 6394   1.938   2.673   2.651
 2125SOL    HW1 6395   2.037   2.661   2.660
 2125SOL    HW2 6396   1.914   2.768   2.672
 2126SOL     OW 6397   1.992   3.683   3.433
 2126SOL    HW1 6398   1.982   3.668   3.532
 2126SOL    HW2 6399   1.906   3.719   3.397
 2127SOL     OW 6400   2.727   2.210   2.057
 2127SOL    HW1 6401   2.786   2.273   2.008
 2127SOL    HW2 6402   2.746   2.116   2.028
 2128SOL     OW 6403   3.581   2.447   3.693
 2128SOL    HW1 6404   3.555   2.536   3.657
 2128SOL    HW2 6405   3.579   2.379   3.620
 2129SOL     OW 6406   3.224   3.006   2.407
 2129SOL    HW1 6407   3.307   2.977   2.359
 2129SOL    HW2 6408   3.175   3.073   2.351
 2130SOL     OW 6409   2.412   2.058   2.747
 2130SOL    HW1 6410   2.407   2.053   2.847
 2130SOL    HW2 6411   2.414   2.154   2.718
 2131SOL     OW 6412   2.870   3.318   2.339
 2131SOL    HW1 6413   2.824   3.390   2.287
 2131SOL    HW2 6414   2.866   3.338   2.437
 2132SOL     OW 6415   2.213   3.663   2.715
 2132SOL    HW1 6416   2.263   3.577   2.721
 2132SOL    HW2 6417   2.278   3.740   2.712
 2133SOL     OW 6418   3.657   2.928   2.735
 2133SOL    HW1 6419   3.595   2.913   2.659
 2133SOL    HW2 6420   3.605   2.939   2.820
 2134SOL     OW 6421   3.089   3.412   3.368
 2134SOL    HW1 6422   3.095   3.335   3.432
 2134SOL    HW2 6423   3.037   3.386   3.288
 2135SOL     OW 6424   2.183   2.805   2.104
 2135SOL    HW1 6425   2.265   2.844   2.062
 2135SOL    HW2 6426   2.156   2.723   2.055
 2136SOL     OW 6427   3.320   2.597   2.590
 2136SOL    HW1 6428   3.315   2.532   2.665
 2136SOL    HW2 6429   3.400   2.656   2.603
 2137SOL     OW 6430   2.323   3.128   3.589
 2137SOL    HW1 6431   2.273   3.129   3.503
 2137SOL    HW2 6432   2.260   3.110   3.665
 2138SOL     OW 6433   2.973   3.638   2.099
 2138SOL    HW1 6434   2.913   3.576   2.149
 2138SOL    HW2 6435   3.004   3.594   2.014
 2139SOL     OW 6436   2.064   2.147   3.360
 2139SOL    HW1 6437   1.984   2.207   3.347
 2139SOL    HW2 6438   2.054   2.098   3.446
 2140SOL     OW 6439   3.494   3.239   1.943
 2140SOL    HW1 6440   3.462   3.333   1.933
 2140SOL    HW2 6441   3.418   3.176   1.931
 2141SOL     OW 6442   2.326   3.605   2.185
 2141SOL    HW1 6443   2.359   3.644   2.271
 2141SOL    HW2 6444   2.402   3.598   2.120
 2142SOL     OW 6445   3.262   1.969   2.288
 2142SOL    HW1 6446   3.238   1.932   2.198
 2142SOL    HW2 6447   3.361   1.985   2.292
 2143SOL     OW 6448   2.111   3.647   3.103
 2143SOL    HW1 6449   2.168   3.582   3.153
 2143SOL    HW2 6450   2.095   3.614   3.010
 2144SOL     OW 6451   2.802   3.560   2.766
 2144SOL    HW1 6452   2.882   3.503   2.787
 2144SOL    HW2 6453   2.753   3.520   2.689
 2145SOL     OW 6454   3.409   2.084   3.591
 2145SOL    HW1 6455   3.404   2.121   3.683
 2145SOL    HW2 6456   3.337   2.015   3.579
 2146SOL     OW 6457   2.476   1.984   1.979
 2146SOL    HW1 6458   2.574   1.962   1.986
 2146SOL    HW2 6459   2.445   1.967   1.886
 2147SOL     OW 6460   2.643   2.126   3.611
 2147SOL    HW1 6461   2.710   2.065   3.654
 2147SOL    HW2 6462   2.570   2.145   3.676
 2148SOL     OW 6463   2.750   3.376   3.057
 2148SOL    HW1 6464   2.727   3.351   2.963
 2148SOL    HW2 6465   2.811   3.307   3.096
 2149SOL     OW 6466   3.213   2.452   3.295
 2149SOL    HW1 6467   3.241   2.409   3.380
 2149SOL    HW2 6468   3.238   2.548   3.296
 2150SOL     OW 6469   2.665   3.264   2.786
 2150SOL    HW1 6470   2.755   3.278   2.744
 2150SOL    HW2 6471   2.594   3.266   2.715
 2151SOL     OW 6472   2.784   2.365   2.761
 2151SOL    HW1 6473   2.759   2.356   2.665
 2151SOL    HW2 6474   2.832   2.283   2.792
 2152SOL     OW 6475   3.296   3.050   1.903
 2152SOL    HW1 6476   3.328   2.974   1.960
 2152SOL    HW2 6477   3.204   3.077   1.933
 2153SOL     OW 6478   2.159   1.897   2.033
 2153SOL    HW1 6479   2.208   1.981   2.012
 2153SOL    HW2 6480   2.221   1.832   2.078
 2154SOL     OW 6481   2.797   2.098   2.342
 2154SOL    HW1 6482   2.749   2.139   2.264
 2154SOL    HW2 6483   2.896   2.096   2.323
 2155SOL     OW 6484   2.938   2.545   3.326
 2155SOL    HW1 6485   2.858   2.484   3.329
 2155SOL    HW2 6486   3.019   2.492   3.302
 2156SOL     OW 6487   3.089   3.432   2.655
 2156SOL    HW1 6488   3.110   3.506   2.590
 2156SOL    HW2 6489   3.157   3.432   2.728
 2157SOL     OW 6490   2.321   3.014   2.603
 2157SOL    HW1 6491   2.250   2.987   2.668
 2157SOL    HW2 6492   2.295   2.986   2.510
 2158SOL     OW 6493   3.133   3.659   2.453
 2158SOL    HW1 6494   3.177   3.723   2.389
 2158SOL    HW2 6495   3.083   3.711   2.523
 2159SOL     OW 6496   2.894   2.411   1.878
 2159SOL    HW1 6497   2.853   2.493   1.839
 2159SOL    HW2 6498   2.958   2.437   1.951
 2160SOL     OW 6499   1.940   2.418   3.248
 2160SOL    HW1 6500   2.032   2.417   3.207
 2160SOL    HW2 6501   1.934   2.492   3.315
 2161SOL     OW 6502   2.423   2.084   3.009
 2161SOL    HW1 6503   2.461   2.000   3.046
 2161SOL    HW2 6504   2.335   2.103   3.053
 2162SOL     OW 6505   2.728   2.316   2.504
 2162SOL    HW1 6506   2.696   2.388   2.442
 2162SOL    HW2 6507   2.752   2.235   2.451
 2163SOL     OW 6508   2.879   1.901   2.615
 2163SOL    HW1 6509   2.807   1.906   2.546
 2163SOL    HW2 6510   2.855   1.832   2.684
 2164SOL     OW 6511   3.291   3.035   2.729
 2164SOL    HW1 6512   3.236   2.951   2.722
 2164SOL    HW2 6513   3.317   3.064   2.637
 2165SOL     OW 6514   3.328   2.452   2.854
 2165SOL    HW1 6515   3.298   2.357   2.861
 2165SOL    HW2 6516   3.401   2.468   2.920
 2166SOL     OW 6517   3.719   2.695   2.239
 2166SOL    HW1 6518   3.761   2.631   2.303
 2166SOL    HW2 6519   3.681   2.644   2.161
 2167SOL     OW 6520   2.350   3.247   2.036
 2167SOL    HW1 6521   2.263   3.232   2.083
 2167SOL    HW2 6522   2.333   3.273   1.941
 2168SOL     OW 6523   3.526   3.142   2.519
 2168SOL    HW1 6524   3.625   3.150   2.533
 2168SOL    HW2 6525   3.481   3.226   2.550
 2169SOL     OW 6526   3.252   2.437   1.940
 2169SOL    HW1 6527   3.198   2.416   2.021
 2169SOL    HW2 6528   3.343   2.396   1.949
 2170SOL     OW 6529   3.616   3.085   3.450
 2170SOL    HW1 6530   3.707   3.046   3.437
 2170SOL    HW2 6531   3.624   3.181   3.474
 2171SOL     OW 6532   2.926   3.209   3.202
 2171SOL    HW1 6533   2.846   3.186   3.257
 2171SOL    HW2 6534   3.009   3.183   3.251
 2172SOL     OW 6535   3.454   3.491   3.487
 2172SOL    HW1 6536   3.481   3.525   3.397
 2172SOL    HW2 6537   3.533   3.453   3.533
 2173SOL     OW 6538   2.973   3.057   2.962
 2173SOL    HW1 6539   2.933   3.101   3.043
 2173SOL    HW2 6540   2.932   3.094   2.879
 2174SOL     OW 6541   3.500   2.961   2.941
 2174SOL    HW1 6542   3.505   3.042   3.000
 2174SOL    HW2 6543   3.414   2.963   2.890
 2175SOL     OW 6544   2.777   1.951   3.264
 2175SOL    HW1 6545   2.802   1.931   3.169
 2175SOL    HW2 6546   2.849   2.007   3.306
 2176SOL     OW 6547   2.842   2.978   3.581
 2176SOL    HW1 6548   2.743   2.984   3.591
 2176SOL    HW2 6549   2.865   2.898   3.525
 2177SOL     OW 6550   2.567   2.912   2.230
 2177SOL    HW1 6551   2.553   2.919   2.329
 2177SOL    HW2 6552   2.651   2.861   2.212
 2178SOL     OW 6553   2.272   2.675   3.113
 2178SOL    HW1 6554   2.358   2.687   3.163
 2178SOL    HW2 6555   2.230   2.588   3.140
 2179SOL     OW 6556   3.136   2.248   3.124
 2179SOL    HW1 6557   3.157   2.322   3.188
 2179SOL    HW2 6558   3.047   2.265   3.081
 2180SOL     OW 6559   1.926   3.426   3.193
 2180SOL    HW1 6560   1.880   3.508   3.159
 2180SOL    HW2 6561   2.024   3.445   3.202
 2181SOL     OW 6562   2.229   2.962   2.363
 2181SOL    HW1 6563   2.222   3.045   2.307
 2181SOL    HW2 6564   2.233   2.882   2.303
 2182SOL     OW 6565   3.114   3.210   2.250
 2182SOL    HW1 6566   3.164   3.287   2.290
 2182SOL    HW2 6567   3.019   3.212   2.282
 2183SOL     OW 6568   3.134   3.307   3.004
 2183SOL    HW1 6569   3.181   3.320   3.091
 2183SOL    HW2 6570   3.068   3.233   3.013
 2184SOL     OW 6571   3.444   2.501   2.334
 2184SOL    HW1 6572   3.413   2.562   2.407
 2184SOL    HW2 6573   3.494   2.553   2.265
 2185SOL     OW 6574   2.216   3.372   3.191
 2185SOL    HW1 6575   2.195   3.328   3.104
 2185SOL    HW2 6576   2.313   3.398   3.194
 2186SOL     OW 6577   2.264   2.613   3.460
 2186SOL    HW1 6578   2.332   2.668   3.413
 2186SOL    HW2 6579   2.304   2.525   3.487
 2187SOL     OW 6580   3.449   2.641   3.532
 2187SOL    HW1 6581   3.357   2.679   3.527
 2187SOL    HW2 6582   3.509   2.688   3.467
 2188SOL     OW 6583   2.875   1.967   3.632
 2188SOL    HW1 6584   2.881   2.052   3.580
 2188SOL    HW2 6585   2.907   1.891   3.575
 2189SOL     OW 6586   2.366   1.912   3.602
 2189SOL    HW1 6587   2.324   1.855   3.532
 2189SOL    HW2 6588   2.300   1.981   3.634
 2190SOL     OW 6589   2.435   2.732   2.891
 2190SOL    HW1 6590   2.479   2.821   2.882
 2190SOL    HW2 6591   2.372   2.732   2.968
 2191SOL     OW 6592   3.222   2.724   2.907
 2191SOL    HW1 6593   3.147   2.724   2.841
 2191SOL    HW2 6594   3.259   2.632   2.916
 2192SOL     OW 6595   3.071   2.387   2.137
 2192SOL    HW1 6596   3.084   2.303   2.191
 2192SOL    HW2 6597   3.042   2.461   2.197
 2193SOL     OW 6598   2.169   2.075   3.093
 2193SOL    HW1 6599   2.146   2.112   3.183
 2193SOL    HW2 6600   2.139   1.980   3.087
 2194SOL     OW 6601   1.899   3.172   3.144
 2194SOL    HW1 6602   1.952   3.123   3.212
 2194SOL    HW2 6603   1.921   3.270   3.149
 2195SOL     OW 6604   2.594   2.496   2.926
 2195SOL    HW1 6605   2.653   2.470   2.850
 2195SOL    HW2 6606   2.566   2.592   2.915
 2196SOL     OW 6607   3.590   2.797   3.716
 2196SOL    HW1 6608   3.544   2.790   3.627
 2196SOL    HW2 6609   3.528   2.841   3.782
 2197SOL     OW 6610   3.484   2.229   2.236
 2197SOL    HW1 6611   3.486   2.153   2.300
 2197SOL    HW2 6612   3.436   2.306   2.276
 2198SOL     OW 6613   2.885   2.628   2.828
 2198SOL    HW1 6614   2.900   2.649   2.924
 2198SOL    HW2 6615   2.855   2.533   2.819
 2199SOL     OW 6616   2.842   3.435   3.562
 2199SOL    HW1 6617   2.822   3.479   3.474
 2199SOL    HW2 6618   2.881   3.344   3.546
 2200SOL     OW 6619   3.721   3.380   3.467
 2200SOL    HW1 6620   3.735   3.407   3.372
 2200SOL    HW2 6621   3.804   3.402   3.520
 2201SOL     OW 6622   2.212   2.760   3.666
 2201SOL    HW1 6623   2.288   2.804   3.714
 2201SOL    HW2 6624   2.247   2.713   3.584
 2202SOL     OW 6625   3.402   2.136   1.987
 2202SOL    HW1 6626   3.341   2.061   2.010
 2202SOL    HW2 6627   3.424   2.188   2.070
 2203SOL     OW 6628   3.165   2.700   1.904
 2203SOL    HW1 6629   3.199   2.607   1.919
 2203SOL    HW2 6630   3.183   2.727   1.809
 2204SOL     OW 6631   2.930   3.195   2.711
 2204SOL    HW1 6632   2.937   3.111   2.656
 2204SOL    HW2 6633   2.992   3.264   2.675
 2205SOL     OW 6634   2.181   2.672   2.811
 2205SOL    HW1 6635   2.274   2.708   2.816
 2205SOL    HW2 6636   2.175   2.587   2.863
 2206SOL     OW 6637   2.201   2.371   2.868
 2206SOL    HW1 6638   2.149   2.288   2.851
 2206SOL    HW2 6639   2.278   2.376   2.804
 2207SOL     OW 6640   3.000   2.242   3.540
 2207SOL    HW1 6641   2.955   2.305   3.604
 2207SOL    HW2 6642   3.093   2.273   3.523
 2208SOL     OW 6643   3.022   2.069   3.339
 2208SOL    HW1 6644   3.022   2.133   3.416
 2208SOL    HW2 6645   3.050   2.117   3.256
 2209SOL     OW 6646   1.870   3.188   2.062
 2209SOL    HW1 6647   1.777   3.209   2.031
 2209SOL    HW2 6648   1.880   3.089   2.075
 2210SOL     OW 6649   1.950   3.663   2.789
 2210SOL    HW1 6650   1.908   3.577   2.762
 2210SOL    HW2 6651   2.044   3.666   2.755
 2211SOL     OW 6652   2.366   3.430   2.772
 2211SOL    HW1 6653   2.432   3.504   2.781
 2211SOL    HW2 6654   2.410   3.351   2.730
 2212SOL     OW 6655   2.864   2.658   3.100
 2212SOL    HW1 6656   2.905   2.626   3.186
 2212SOL    HW2 6657   2.768   2.631   3.097
 2213SOL     OW 6658   1.902   2.406   2.976
 2213SOL    HW1 6659   1.987   2.373   2.935
 2213SOL    HW2 6660   1.915   2.421   3.074
 2214SOL     OW 6661   2.051   2.382   3.584
 2214SOL    HW1 6662   2.110   2.342   3.514
 2214SOL    HW2 6663   1.993   2.453   3.543
 2215SOL     OW 6664   3.231   2.812   3.522
 2215SOL    HW1 6665   3.270   2.901   3.542
 2215SOL    HW2 6666   3.241   2.792   3.425
 2216SOL     OW 6667   3.519   2.466   3.068
 2216SOL    HW1 6668   3.481   2.397   3.130
 2216SOL    HW2 6669   3.601   2.430   3.024
 2217SOL     OW 6670   2.114   3.426   3.606
 2217SOL    HW1 6671   2.084   3.483   3.682
 2217SOL    HW2 6672   2.107   3.329   3.632
 2218SOL     OW 6673   2.533   2.326   3.131
 2218SOL    HW1 6674   2.499   2.237   3.101
 2218SOL    HW2 6675   2.559   2.380   3.051
 2219SOL     OW 6676   2.792   3.540   3.327
 2219SOL    HW1 6677   2.768   3.522   3.232
 2219SOL    HW2 6678   2.822   3.634   3.337
 2220SOL     OW 6679   2.021   2.999   3.328
 2220SOL    HW1 6680   2.043   2.938   3.404
 2220SOL    HW2 6681   2.031   2.950   3.242
 2221SOL     OW 6682   3.209   2.921   3.096
 2221SOL    HW1 6683   3.233   2.858   3.022
 2221SOL    HW2 6684   3.119   2.961   3.078
 2222SOL     OW 6685   3.164   2.717   2.171
 2222SOL    HW1 6686   3.078   2.686   2.213
 2222SOL    HW2 6687   3.160   2.703   2.072
 2223SOL     OW 6688   3.621   3.609   3.016
 2223SOL    HW1 6689   3.682   3.639   2.943
 2223SOL    HW2 6690   3.583   3.520   2.994
 2224SOL     OW 6691   3.114   3.593   2.990
 2224SOL    HW1 6692   3.198   3.598   2.936
 2224SOL    HW2 6693   3.091   3.497   3.008
 2225SOL     OW 6694   1.945   3.120   2.884
 2225SOL    HW1 6695   1.940   3.119   2.984
 2225SOL    HW2 6696   1.862   3.079   2.846
 2226SOL     OW 6697   2.550   3.524   3.578
 2226SOL    HW1 6698   2.494   3.605   3.587
 2226SOL    HW2 6699   2.602   3.528   3.492
 2227SOL     OW 6700   3.588   1.997   2.385
 2227SOL    HW1 6701   3.661   1.980   2.318
 2227SOL    HW2 6702   3.557   1.910   2.423
 2228SOL     OW 6703   3.250   3.435   2.339
 2228SOL    HW1 6704   3.317   3.447   2.265
 2228SOL    HW2 6705   3.210   3.524   2.362
 2229SOL     OW 6706   1.992   3.656   3.713
 2229SOL    HW1 6707   1.951   3.582   3.766
 2229SOL    HW2 6708   2.056   3.707   3.771
 2230SOL     OW 6709   3.142   2.789   2.534
 2230SOL    HW1 6710   3.202   2.708   2.536
 2230SOL    HW2 6711   3.182   2.858   2.474
 2231SOL     OW 6712   2.692   3.135   3.284
 2231SOL    HW1 6713   2.687   3.168   3.379
 2231SOL    HW2 6714   2.606   3.154   3.238
 2232SOL     OW 6715   2.534   3.478   2.016
 2232SOL    HW1 6716   2.543   3.488   1.917
 2232SOL    HW2 6717   2.494   3.389   2.037
 2233SOL     OW 6718   3.512   3.582   3.256
 2233SOL    HW1 6719   3.565   3.592   3.172
 2233SOL    HW2 6720   3.485   3.672   3.290
 2234SOL     OW 6721   3.703   2.037   2.825
 2234SOL    HW1 6722   3.742   1.952   2.789
 2234SOL    HW2 6723   3.605   2.039   2.806
 2235SOL     OW 6724   2.125   2.188   2.582
 2235SOL    HW1 6725   2.046   2.239   2.548
 2235SOL    HW2 6726   2.116   2.173   2.680
 2236SOL     OW 6727   3.056   3.474   1.893
 2236SOL    HW1 6728   3.062   3.381   1.930
 2236SOL    HW2 6729   2.997   3.474   1.813
 2237SOL     OW 6730   2.684   2.864   3.234
 2237SOL    HW1 6731   2.724   2.863   3.142
 2237SOL    HW2 6732   2.694   2.956   3.274
 2238SOL     OW 6733   2.778   2.772   2.153
 2238SOL    HW1 6734   2.841   2.810   2.085
 2238SOL    HW2 6735   2.818   2.689   2.192
 2239SOL     OW 6736   3.366   3.469   1.906
 2239SOL    HW1 6737   3.274   3.506   1.913
 2239SOL    HW2 6738   3.404   3.489   1.816
 2240SOL     OW 6739   2.234   3.150   3.352
 2240SOL    HW1 6740   2.221   3.243   3.318
 2240SOL    HW2 6741   2.150   3.098   3.339
 2241SOL     OW 6742   3.476   3.154   3.151
 2241SOL    HW1 6743   3.536   3.157   3.231
 2241SOL    HW2 6744   3.401   3.218   3.164
 2242SOL     OW 6745   2.901   2.960   2.558
 2242SOL    HW1 6746   2.831   2.913   2.612
 2242SOL    HW2 6747   2.960   2.892   2.515
 2243SOL     OW 6748   2.876   2.098   2.833
 2243SOL    HW1 6749   2.868   2.062   2.740
 2243SOL    HW2 6750   2.874   2.022   2.898
 2244SOL     OW 6751   2.452   3.349   2.353
 2244SOL    HW1 6752   2.494   3.291   2.283
 2244SOL    HW2 6753   2.408   3.428   2.309
 2245SOL     OW 6754   3.571   2.247   3.243
 2245SOL    HW1 6755   3.644   2.316   3.247
 2245SOL    HW2 6756   3.599   2.172   3.184
 2246SOL     OW 6757   2.117   3.210   2.152
 2246SOL    HW1 6758   2.021   3.211   2.125
 2246SOL    HW2 6759   2.129   3.263   2.236
 2247SOL     OW 6760   1.967   2.875   3.588
 2247SOL    HW1 6761   1.890   2.842   3.642
 2247SOL    HW2 6762   2.052   2.845   3.630
 2248SOL     OW 6763   2.534   2.065   3.351
 2248SOL    HW1 6764   2.624   2.049   3.311
 2248SOL    HW2 6765   2.542   2.070   3.450
 2249SOL     OW 6766   1.937   2.207   1.895
 2249SOL    HW1 6767   1.845   2.179   1.866
 2249SOL    HW2 6768   1.968   2.284   1.839
 2250SOL     OW 6769   3.302   2.718   3.260
 2250SOL    HW1 6770   3.245   2.770   3.197
 2250SOL    HW2 6771   3.398   2.730   3.236
 2251SOL     OW 6772   1.934   2.028   2.180
 2251SOL    HW1 6773   1.917   2.111   2.126
 2251SOL    HW2 6774   2.024   1.991   2.158
 2252SOL     OW 6775   3.045   3.197   1.981
 2252SOL    HW1 6776   2.946   3.186   1.983
 2252SOL    HW2 6777   3.079   3.212   2.074
 2253SOL     OW 6778   2.475   2.704   3.293
 2253SOL    HW1 6779   2.531   2.785   3.276
 2253SOL    HW2 6780   2.534   2.624   3.296
 2254SOL     OW 6781   3.355   3.629   2.821
 2254SOL    HW1 6782   3.388   3.693   2.752
 2254SOL    HW2 6783   3.421   3.623   2.896
 2255SOL     OW 6784   2.578   2.427   3.570
 2255SOL    HW1 6785   2.597   2.492   3.644
 2255SOL    HW2 6786   2.638   2.347   3.579
 2256SOL     OW 6787   3.312   3.082   3.495
 2256SOL    HW1 6788   3.303   3.072   3.594
 2256SOL    HW2 6789   3.408   3.075   3.469
 2257SOL     OW 6790   2.252   3.603   3.422
 2257SOL    HW1 6791   2.161   3.644   3.420
 2257SOL    HW2 6792   2.245   3.509   3.454
 2258SOL     OW 6793   3.536   2.745   3.116
 2258SOL    HW1 6794   3.509   2.656   3.079
 2258SOL    HW2 6795   3.537   2.813   3.043
 2259SOL     OW 6796   3.087   2.187   2.311
 2259SOL    HW1 6797   3.152   2.113   2.300
 2259SOL    HW2 6798   3.107   2.237   2.395
 2260SOL     OW 6799   3.639   2.204   3.504
 2260SOL    HW1 6800   3.622   2.235   3.410
 2260SOL    HW2 6801   3.555   2.167   3.542
 2261SOL     OW 6802   3.592   2.796   3.379
 2261SOL    HW1 6803   3.630   2.887   3.394
 2261SOL    HW2 6804   3.584   2.779   3.280
 2262SOL     OW 6805   2.721   3.236   1.878
 2262SOL    HW1 6806   2.675   3.251   1.966
 2262SOL    HW2 6807   2.765   3.321   1.848
 2263SOL     OW 6808   2.523   3.652   2.815
 2263SOL    HW1 6809   2.477   3.740   2.802
 2263SOL    HW2 6810   2.622   3.664   2.808
 2264SOL     OW 6811   2.721   2.818   2.723
 2264SOL    HW1 6812   2.775   2.749   2.771
 2264SOL    HW2 6813   2.689   2.887   2.789
 2265SOL     OW 6814   2.945   2.846   1.949
 2265SOL    HW1 6815   2.922   2.899   1.867
 2265SOL    HW2 6816   3.026   2.790   1.930
 2266SOL     OW 6817   3.723   3.431   2.713
 2266SOL    HW1 6818   3.652   3.419   2.643
 2266SOL    HW2 6819   3.724   3.352   2.773
 2267SOL     OW 6820   2.083   3.176   3.706
 2267SOL    HW1 6821   2.018   3.103   3.685
 2267SOL    HW2 6822   2.087   3.190   3.804
 2268SOL     OW 6823   1.941   3.102   2.515
 2268SOL    HW1 6824   1.940   3.055   2.603
 2268SOL    HW2 6825   2.023   3.074   2.464
 2269SOL     OW 6826   2.534   3.253   3.486
 2269SOL    HW1 6827   2.456   3.203   3.524
 2269SOL    HW2 6828   2.531   3.348   3.517
 2270SOL     OW 6829   3.686   2.054   3.089
 2270SOL    HW1 6830   3.682   1.964   3.133
 2270SOL    HW2 6831   3.689   2.043   2.990
 2271SOL     OW 6832   3.567   3.349   2.966
 2271SOL    HW1 6833   3.474   3.324   2.939
 2271SOL    HW2 6834   3.593   3.299   3.048
 2272SOL     OW 6835   2.179   2.409   3.142
 2272SOL    HW1 6836   2.217   2.350   3.214
 2272SOL    HW2 6837   2.219   2.383   3.054
 2273SOL     OW 6838   2.674   3.448   2.549
 2273SOL    HW1 6839   2.706   3.458   2.455
 2273SOL    HW2 6840   2.595   3.386   2.551
 2274SOL     OW 6841   3.286   2.076   2.974
 2274SOL    HW1 6842   3.338   2.011   3.029
 2274SOL    HW2 6843   3.237   2.139   3.035
 2275SOL     OW 6844   2.863   1.896   3.016
 2275SOL    HW1 6845   2.800   1.824   2.985
 2275SOL    HW2 6846   2.956   1.860   3.016
 2276SOL     OW 6847   2.632   3.192   2.163
 2276SOL    HW1 6848   2.586   3.105   2.180
 2276SOL    HW2 6849   2.723   3.189   2.204
 2277SOL     OW 6850   2.480   3.429   3.146
 2277SOL    HW1 6851   2.475   3.511   3.203
 2277SOL    HW2 6852   2.569   3.426   3.101
 2278SOL     OW 6853   3.214   1.914   2.030
 2278SOL    HW1 6854   3.249   1.873   1.946
 2278SOL    HW2 6855   3.124   1.876   2.050
 2279SOL     OW 6856   3.162   2.315   2.553
 2279SOL    HW1 6857   3.103   2.395   2.557
 2279SOL    HW2 6858   3.177   2.280   2.646
 2280SOL     OW 6859   3.455   2.083   2.744
 2280SOL    HW1 6860   3.371   2.082   2.798
 2280SOL    HW2 6861   3.457   2.166   2.688
 2281SOL     OW 6862   1.901   2.939   2.162
 2281SOL    HW1 6863   2.000   2.928   2.153
 2281SOL    HW2 6864   1.861   2.853   2.194
 2282SOL     OW 6865   2.737   3.508   2.199
 2282SOL    HW1 6866   2.660   3.473   2.145
 2282SOL    HW2 6867   2.705   3.579   2.261
 2283SOL     OW 6868   2.092   2.490   3.837
 2283SOL    HW1 6869   1.999   2.488   3.874
 2283SOL    HW2 6870   2.093   2.451   3.745
 2284SOL     OW 6871   2.087   2.137   4.720
 2284SOL    HW1 6872   2.122   2.120   4.812
 2284SOL    HW2 6873   1.999   2.092   4.708
 2285SOL     OW 6874   1.881   2.230   4.371
 2285SOL    HW1 6875   1.799   2.273   4.410
 2285SOL    HW2 6876   1.853   2.157   4.308
 2286SOL     OW 6877   3.417   3.373   4.427
 2286SOL    HW1 6878   3.360   3.357   4.508
 2286SOL    HW2 6879   3.358   3.383   4.347
 2287SOL     OW 6880   2.997   2.565   4.441
 2287SOL    HW1 6881   3.054   2.643   4.416
 2287SOL    HW2 6882   2.937   2.591   4.517
 2288SOL     OW 6883   3.617   2.469   3.955
 2288SOL    HW1 6884   3.605   2.456   3.856
 2288SOL    HW2 6885   3.587   2.388   4.004
 2289SOL     OW 6886   2.547   2.874   4.389
 2289SOL    HW1 6887   2.616   2.858   4.459
 2289SOL    HW2 6888   2.474   2.931   4.427
 2290SOL     OW 6889   3.465   2.309   4.461
 2290SOL    HW1 6890   3.391   2.355   4.411
 2290SOL    HW2 6891   3.516   2.377   4.514
 2291SOL     OW 6892   2.093   3.575   4.207
 2291SOL    HW1 6893   2.127   3.652   4.261
 2291SOL    HW2 6894   2.137   3.575   4.117
 2292SOL     OW 6895   2.092   3.296   4.262
 2292SOL    HW1 6896   2.066   3.392   4.262
 2292SOL    HW2 6897   2.021   3.242   4.307
 2293SOL     OW 6898   2.102   2.953   4.610
 2293SOL    HW1 6899   2.116   2.869   4.662
 2293SOL    HW2 6900   2.047   3.017   4.665
 2294SOL     OW 6901   2.468   2.826   3.847
 2294SOL    HW1 6902   2.475   2.910   3.793
 2294SOL    HW2 6903   2.514   2.839   3.935
 2295SOL     OW 6904   1.984   2.505   4.287
 2295SOL    HW1 6905   1.939   2.417   4.304
 2295SOL    HW2 6906   1.983   2.559   4.371
 2296SOL     OW 6907   3.704   3.629   4.083
 2296SOL    HW1 6908   3.758   3.600   4.163
 2296SOL    HW2 6909   3.734   3.719   4.054
 2297SOL     OW 6910   1.889   3.458   3.841
 2297SOL    HW1 6911   1.870   3.362   3.862
 2297SOL    HW2 6912   1.856   3.516   3.916
 2298SOL     OW 6913   3.551   2.784   4.336
 2298SOL    HW1 6914   3.646   2.755   4.344
 2298SOL    HW2 6915   3.543   2.849   4.261
 2299SOL     OW 6916   3.503   2.970   4.156
 2299SOL    HW1 6917   3.589   2.972   4.104
 2299SOL    HW2 6918   3.517   3.017   4.244
 2300SOL     OW 6919   2.475   3.227   4.450
 2300SOL    HW1 6920   2.426   3.140   4.459
 2300SOL    HW2 6921   2.452   3.270   4.363
 2301SOL     OW 6922   2.671   1.866   4.226
 2301SOL    HW1 6923   2.711   1.957   4.217
 2301SOL    HW2 6924   2.571   1.874   4.232
 2302SOL     OW 6925   3.387   2.861   3.914
 2302SOL    HW1 6926   3.324   2.785   3.927
 2302SOL    HW2 6927   3.435   2.879   4.000
 2303SOL     OW 6928   3.328   3.279   4.677
 2303SOL    HW1 6929   3.269   3.285   4.757
 2303SOL    HW2 6930   3.313   3.191   4.631
 2304SOL     OW 6931   3.529   3.576   4.296
 2304SOL    HW1 6932   3.488   3.553   4.208
 2304SOL    HW2 6933   3.511   3.502   4.361
 2305SOL     OW 6934   2.460   2.591   3.994
 2305SOL    HW1 6935   2.484   2.660   3.926
 2305SOL    HW2 6936   2.382   2.624   4.048
 2306SOL     OW 6937   3.143   2.207   4.668
 2306SOL    HW1 6938   3.057   2.157   4.655
 2306SOL    HW2 6939   3.205   2.153   4.724
 2307SOL     OW 6940   3.438   3.524   4.031
 2307SOL    HW1 6941   3.527   3.570   4.034
 2307SOL    HW2 6942   3.417   3.500   3.936
 2308SOL     OW 6943   2.903   2.563   4.153
 2308SOL    HW1 6944   2.929   2.559   4.249
 2308SOL    HW2 6945   2.818   2.512   4.139
 2309SOL     OW 6946   1.938   2.673   4.513
 2309SOL    HW1 6947   2.037   2.661   4.522
 2309SOL    HW2 6948   1.914   2.768   4.534
 2310SOL     OW 6949   2.727   2.210   3.919
 2310SOL    HW1 6950   2.786   2.273   3.870
 2310SOL    HW2 6951   2.746   2.116   3.890
 2311SOL     OW 6952   3.224   3.006   4.269
 2311SOL    HW1 6953   3.307   2.977   4.221
 2311SOL    HW2 6954   3.175   3.073   4.213
 2312SOL     OW 6955   2.412   2.058   4.609
 2312SOL    HW1 6956   2.407   2.053   4.709
 2312SOL    HW2 6957   2.414   2.154   4.580
 2313SOL     OW 6958   2.870   3.318   4.201
 2313SOL    HW1 6959   2.824   3.390   4.149
 2313SOL    HW2 6960   2.866   3.338   4.299
 2314SOL     OW 6961   2.213   3.663   4.577
 2314SOL    HW1 6962   2.263   3.577   4.583
 2314SOL    HW2 6963   2.278   3.740   4.574
 2315SOL     OW 6964   3.657   2.928   4.597
 2315SOL    HW1 6965   3.595   2.913   4.521
 2315SOL    HW2 6966   3.605   2.939   4.682
 2316SOL     OW 6967   2.183   2.805   3.966
 2316SOL    HW1 6968   2.265   2.844   3.924
 2316SOL    HW2 6969   2.156   2.723   3.917
 2317SOL     OW 6970   3.320   2.597   4.452
 2317SOL    HW1 6971   3.315   2.532   4.527
 2317SOL    HW2 6972   3.400   2.656   4.465
 2318SOL     OW 6973   2.973   3.638   3.961
 2318SOL    HW1 6974   2.913   3.576   4.011
 2318SOL    HW2 6975   3.004   3.594   3.876
 2319SOL     OW 6976   3.494   3.239   3.805
 2319SOL    HW1 6977   3.462   3.333   3.795
 2319SOL    HW2 6978   3.418   3.176   3.793
 2320SOL     OW 6979   2.326   3.605   4.047
 2320SOL    HW1 6980   2.359   3.644   4.133
 2320SOL    HW2 6981   2.402   3.598   3.982
 2321SOL     OW 6982   3.262   1.969   4.150
 2321SOL    HW1 6983   3.238   1.932   4.060
 2321SOL    HW2 6984   3.361   1.985   4.154
 2322SOL     OW 6985   2.244   2.562   4.204
 2322SOL    HW1 6986   2.289   2.472   4.201
 2322SOL    HW2 6987   2.150   2.551   4.237
 2323SOL     OW 6988   2.476   1.984   3.841
 2323SOL    HW1 6989   2.574   1.962   3.848
 2323SOL    HW2 6990   2.445   1.967   3.748
 2324SOL     OW 6991   2.401   1.926   4.236
 2324SOL    HW1 6992   2.320   1.927   4.294
 2324SOL    HW2 6993   2.404   2.009   4.181
 2325SOL     OW 6994   3.296   3.050   3.765
 2325SOL    HW1 6995   3.328   2.974   3.822
 2325SOL    HW2 6996   3.204   3.077   3.795
 2326SOL     OW 6997   2.159   1.897   3.895
 2326SOL    HW1 6998   2.208   1.981   3.874
 2326SOL    HW2 6999   2.221   1.832   3.940
 2327SOL     OW 7000   2.797   2.098   4.204
 2327SOL    HW1 7001   2.749   2.139   4.126
 2327SOL    HW2 7002   2.896   2.096   4.185
 2328SOL     OW 7003   3.089   3.432   4.517
 2328SOL    HW1 7004   3.110   3.506   4.452
 2328SOL    HW2 7005   3.157   3.432   4.590
 2329SOL     OW 7006   2.321   3.014   4.465
 2329SOL    HW1 7007   2.250   2.987   4.530
 2329SOL    HW2 7008   2.295   2.986   4.372
 2330SOL     OW 7009   3.133   3.659   4.315
 2330SOL    HW1 7010   3.177   3.723   4.251
 2330SOL    HW2 7011   3.083   3.711   4.385
 2331SOL     OW 7012   2.894   2.411   3.740
 2331SOL    HW1 7013   2.853   2.493   3.701
 2331SOL    HW2 7014   2.958   2.437   3.813
 2332SOL     OW 7015   2.728   2.316   4.366
 2332SOL    HW1 7016   2.696   2.388   4.304
 2332SOL    HW2 7017   2.752   2.235   4.313
 2333SOL     OW 7018   2.879   1.901   4.477
 2333SOL    HW1 7019   2.807   1.906   4.408
 2333SOL    HW2 7020   2.855   1.832   4.546
 2334SOL     OW 7021   3.719   2.695   4.101
 2334SOL    HW1 7022   3.761   2.631   4.165
 2334SOL    HW2 7023   3.681   2.644   4.023
 2335SOL     OW 7024   2.350   3.247   3.898
 2335SOL    HW1 7025   2.263   3.232   3.945
 2335SOL    HW2 7026   2.333   3.273   3.803
 2336SOL     OW 7027   3.526   3.142   4.381
 2336SOL    HW1 7028   3.625   3.150   4.395
 2336SOL    HW2 7029   3.481   3.226   4.412
 2337SOL     OW 7030   3.252   2.437   3.802
 2337SOL    HW1 7031   3.198   2.416   3.883
 2337SOL    HW2 7032   3.343   2.396   3.811
 2338SOL     OW 7033   2.389   2.118   4.052
 2338SOL    HW1 7034   2.416   2.059   3.977
 2338SOL    HW2 7035   2.389   2.213   4.021
 2339SOL     OW 7036   2.567   2.912   4.092
 2339SOL    HW1 7037   2.553   2.919   4.191
 2339SOL    HW2 7038   2.651   2.861   4.074
 2340SOL     OW 7039   2.229   2.962   4.225
 2340SOL    HW1 7040   2.222   3.045   4.169
 2340SOL    HW2 7041   2.233   2.882   4.165
 2341SOL     OW 7042   2.428   2.399   4.589
 2341SOL    HW1 7043   2.440   2.465   4.515
 2341SOL    HW2 7044   2.474   2.433   4.672
 2342SOL     OW 7045   3.114   3.210   4.112
 2342SOL    HW1 7046   3.164   3.287   4.152
 2342SOL    HW2 7047   3.019   3.212   4.144
 2343SOL     OW 7048   3.444   2.501   4.196
 2343SOL    HW1 7049   3.413   2.562   4.269
 2343SOL    HW2 7050   3.494   2.553   4.127
 2344SOL     OW 7051   3.071   2.387   3.999
 2344SOL    HW1 7052   3.084   2.303   4.053
 2344SOL    HW2 7053   3.042   2.461   4.059
 2345SOL     OW 7054   2.594   2.496   4.788
 2345SOL    HW1 7055   2.653   2.470   4.712
 2345SOL    HW2 7056   2.566   2.592   4.777
 2346SOL     OW 7057   2.169   1.925   4.342
 2346SOL    HW1 7058   2.158   2.019   4.375
 2346SOL    HW2 7059   2.164   1.862   4.419
 2347SOL     OW 7060   3.484   2.229   4.098
 2347SOL    HW1 7061   3.486   2.153   4.162
 2347SOL    HW2 7062   3.436   2.306   4.138
 2348SOL     OW 7063   3.402   2.136   3.849
 2348SOL    HW1 7064   3.341   2.061   3.872
 2348SOL    HW2 7065   3.424   2.188   3.932
 2349SOL     OW 7066   3.165   2.700   3.766
 2349SOL    HW1 7067   3.199   2.607   3.781
 2349SOL    HW2 7068   3.183   2.727   3.671
 2350SOL     OW 7069   2.930   3.195   4.573
 2350SOL    HW1 7070   2.937   3.111   4.518
 2350SOL    HW2 7071   2.992   3.264   4.537
 2351SOL     OW 7072   2.181   2.672   4.673
 2351SOL    HW1 7073   2.274   2.708   4.678
 2351SOL    HW2 7074   2.175   2.587   4.725
 2352SOL     OW 7075   1.870   3.188   3.924
 2352SOL    HW1 7076   1.777   3.209   3.893
 2352SOL    HW2 7077   1.880   3.089   3.937
 2353SOL     OW 7078   1.950   3.663   4.651
 2353SOL    HW1 7079   1.908   3.577   4.624
 2353SOL    HW2 7080   2.044   3.666   4.617
 2354SOL     OW 7081   2.366   3.430   4.634
 2354SOL    HW1 7082   2.432   3.504   4.643
 2354SOL    HW2 7083   2.410   3.351   4.592
 2355SOL     OW 7084   2.677   2.434   4.049
 2355SOL    HW1 7085   2.684   2.345   4.003
 2355SOL    HW2 7086   2.583   2.468   4.041
 2356SOL     OW 7087   2.335   2.362   3.915
 2356SOL    HW1 7088   2.396   2.442   3.919
 2356SOL    HW2 7089   2.240   2.393   3.922
 2357SOL     OW 7090   3.164   2.717   4.033
 2357SOL    HW1 7091   3.078   2.686   4.075
 2357SOL    HW2 7092   3.160   2.703   3.934
 2358SOL     OW 7093   3.621   3.609   4.878
 2358SOL    HW1 7094   3.682   3.639   4.805
 2358SOL    HW2 7095   3.583   3.520   4.856
 2359SOL     OW 7096   3.588   1.997   4.247
 2359SOL    HW1 7097   3.661   1.980   4.180
 2359SOL    HW2 7098   3.557   1.910   4.285
 2360SOL     OW 7099   3.250   3.435   4.201
 2360SOL    HW1 7100   3.317   3.447   4.127
 2360SOL    HW2 7101   3.210   3.524   4.224
 2361SOL     OW 7102   3.142   2.789   4.396
 2361SOL    HW1 7103   3.202   2.708   4.398
 2361SOL    HW2 7104   3.182   2.858   4.336
 2362SOL     OW 7105   2.534   3.478   3.878
 2362SOL    HW1 7106   2.543   3.488   3.779
 2362SOL    HW2 7107   2.494   3.389   3.899
 2363SOL     OW 7108   3.703   2.037   4.687
 2363SOL    HW1 7109   3.742   1.952   4.651
 2363SOL    HW2 7110   3.605   2.039   4.668
 2364SOL     OW 7111   2.125   2.188   4.444
 2364SOL    HW1 7112   2.046   2.239   4.410
 2364SOL    HW2 7113   2.116   2.173   4.542
 2365SOL     OW 7114   3.056   3.474   3.755
 2365SOL    HW1 7115   3.062   3.381   3.792
 2365SOL    HW2 7116   2.997   3.474   3.675
 2366SOL     OW 7117   2.778   2.772   4.015
 2366SOL    HW1 7118   2.841   2.810   3.947
 2366SOL    HW2 7119   2.818   2.689   4.054
 2367SOL     OW 7120   3.366   3.469   3.768
 2367SOL    HW1 7121   3.274   3.506   3.775
 2367SOL    HW2 7122   3.404   3.489   3.678
 2368SOL     OW 7123   2.901   2.960   4.420
 2368SOL    HW1 7124   2.831   2.913   4.474
 2368SOL    HW2 7125   2.960   2.892   4.377
 2369SOL     OW 7126   2.452   3.349   4.215
 2369SOL    HW1 7127   2.494   3.291   4.145
 2369SOL    HW2 7128   2.408   3.428   4.171
 2370SOL     OW 7129   2.117   3.210   4.014
 2370SOL    HW1 7130   2.021   3.211   3.987
 2370SOL    HW2 7131   2.129   3.263   4.098
 2371SOL     OW 7132   1.937   2.207   3.757
 2371SOL    HW1 7133   1.845   2.179   3.728
 2371SOL    HW2 7134   1.968   2.284   3.701
 2372SOL     OW 7135   1.934   2.028   4.042
 2372SOL    HW1 7136   1.917   2.111   3.988
 2372SOL    HW2 7137   2.024   1.991   4.020
 2373SOL     OW 7138   3.045   3.197   3.843
 2373SOL    HW1 7139   2.946   3.186   3.845
 2373SOL    HW2 7140   3.079   3.212   3.936
 2374SOL     OW 7141   3.536   2.745   4.978
 2374SOL    HW1 7142   3.509   2.656   4.941
 2374SOL    HW2 7143   3.537   2.813   4.905
 2375SOL     OW 7144   3.087   2.187   4.173
 2375SOL    HW1 7145   3.152   2.113   4.162
 2375SOL    HW2 7146   3.107   2.237   4.257
 2376SOL     OW 7147   2.456   2.607   4.376
 2376SOL    HW1 7148   2.506   2.692   4.357
 2376SOL    HW2 7149   2.368   2.609   4.328
 2377SOL     OW 7150   2.721   3.236   3.740
 2377SOL    HW1 7151   2.675   3.251   3.828
 2377SOL    HW2 7152   2.765   3.321   3.710
 2378SOL     OW 7153   2.523   3.652   4.677
 2378SOL    HW1 7154   2.477   3.740   4.664
 2378SOL    HW2 7155   2.622   3.664   4.670
 2379SOL     OW 7156   2.721   2.818   4.585
 2379SOL    HW1 7157   2.775   2.749   4.633
 2379SOL    HW2 7158   2.689   2.887   4.651
 2380SOL     OW 7159   2.945   2.846   3.811
 2380SOL    HW1 7160   2.922   2.899   3.729
 2380SOL    HW2 7161   3.026   2.790   3.792
 2381SOL     OW 7162   3.723   3.431   4.575
 2381SOL    HW1 7163   3.652   3.419   4.505
 2381SOL    HW2 7164   3.724   3.352   4.635
 2382SOL     OW 7165   1.941   3.102   4.377
 2382SOL    HW1 7166   1.940   3.055   4.465
 2382SOL    HW2 7167   2.023   3.074   4.326
 2383SOL     OW 7168   2.290   2.286   4.244
 2383SOL    HW1 7169   2.320   2.214   4.182
 2383SOL    HW2 7170   2.251   2.246   4.327
 2384SOL     OW 7171   2.674   3.448   4.411
 2384SOL    HW1 7172   2.706   3.458   4.317
 2384SOL    HW2 7173   2.595   3.386   4.413
 2385SOL     OW 7174   2.632   3.192   4.025
 2385SOL    HW1 7175   2.586   3.105   4.042
 2385SOL    HW2 7176   2.723   3.189   4.066
 2386SOL     OW 7177   3.214   1.914   3.892
 2386SOL    HW1 7178   3.249   1.873   3.808
 2386SOL    HW2 7179   3.124   1.876   3.912
 2387SOL     OW 7180   3.162   2.315   4.415
 2387SOL    HW1 7181   3.103   2.395   4.419
 2387SOL    HW2 7182   3.177   2.280   4.508
 2388SOL     OW 7183   3.455   2.083   4.606
 2388SOL    HW1 7184   3.371   2.082   4.660
 2388SOL    HW2 7185   3.457   2.166   4.550
 2389SOL     OW 7186   1.901   2.939   4.024
 2389SOL    HW1 7187   2.000   2.928   4.015
 2389SOL    HW2 7188   1.861   2.853   4.056
 2390SOL     OW 7189   2.737   3.508   4.061
 2390SOL    HW1 7190   2.660   3.473   4.007
 2390SOL    HW2 7191   2.705   3.579   4.123
 2391SOL     OW 7192   2.092   4.352   0.113
 2391SOL    HW1 7193   1.999   4.350   0.150
 2391SOL    HW2 7194   2.093   4.313   0.021
 2392SOL     OW 7195   2.087   3.999   0.996
 2392SOL    HW1 7196   2.122   3.982   1.088
 2392SOL    HW2 7197   1.999   3.954   0.984
 2393SOL     OW 7198   1.881   4.092   0.647
 2393SOL    HW1 7199   1.799   4.135   0.686
 2393SOL    HW2 7200   1.853   4.019   0.584
 2394SOL     OW 7201   2.997   4.427   0.717
 2394SOL    HW1 7202   3.054   4.505   0.692
 2394SOL    HW2 7203   2.937   4.453   0.793
 2395SOL     OW 7204   3.617   4.331   0.231
 2395SOL    HW1 7205   3.605   4.318   0.132
 2395SOL    HW2 7206   3.587   4.250   0.280
 2396SOL     OW 7207   2.712   4.522   1.823
 2396SOL    HW1 7208   2.708   4.598   1.888
 2396SOL    HW2 7209   2.734   4.558   1.732
 2397SOL     OW 7210   2.547   4.736   0.665
 2397SOL    HW1 7211   2.616   4.720   0.735
 2397SOL    HW2 7212   2.474   4.793   0.703
 2398SOL     OW 7213   2.300   4.116   1.499
 2398SOL    HW1 7214   2.382   4.060   1.508
 2398SOL    HW2 7215   2.219   4.058   1.503
 2399SOL     OW 7216   3.465   4.171   0.737
 2399SOL    HW1 7217   3.391   4.217   0.687
 2399SOL    HW2 7218   3.516   4.239   0.790
 2400SOL     OW 7219   3.456   3.838   1.480
 2400SOL    HW1 7220   3.438   3.905   1.408
 2400SOL    HW2 7221   3.453   3.884   1.569
 2401SOL     OW 7222   1.984   4.367   0.563
 2401SOL    HW1 7223   1.939   4.279   0.580
 2401SOL    HW2 7224   1.983   4.421   0.647
 2402SOL     OW 7225   1.975   4.461   1.597
 2402SOL    HW1 7226   2.063   4.448   1.642
 2402SOL    HW2 7227   1.962   4.558   1.575
 2403SOL     OW 7228   2.671   3.728   0.502
 2403SOL    HW1 7229   2.711   3.819   0.493
 2403SOL    HW2 7230   2.571   3.736   0.508
 2404SOL     OW 7231   2.059   4.700   1.264
 2404SOL    HW1 7232   2.148   4.655   1.250
 2404SOL    HW2 7233   1.986   4.635   1.245
 2405SOL     OW 7234   3.387   4.723   0.190
 2405SOL    HW1 7235   3.324   4.647   0.203
 2405SOL    HW2 7236   3.435   4.741   0.276
 2406SOL     OW 7237   2.179   3.975   1.801
 2406SOL    HW1 7238   2.250   4.046   1.807
 2406SOL    HW2 7239   2.091   4.014   1.829
 2407SOL     OW 7240   2.460   4.453   0.270
 2407SOL    HW1 7241   2.484   4.522   0.202
 2407SOL    HW2 7242   2.382   4.486   0.324
 2408SOL     OW 7243   3.143   4.069   0.944
 2408SOL    HW1 7244   3.057   4.019   0.931
 2408SOL    HW2 7245   3.205   4.015   1.000
 2409SOL     OW 7246   2.669   4.329   1.465
 2409SOL    HW1 7247   2.622   4.326   1.554
 2409SOL    HW2 7248   2.618   4.274   1.399
 2410SOL     OW 7249   3.256   4.193   1.674
 2410SOL    HW1 7250   3.236   4.236   1.762
 2410SOL    HW2 7251   3.334   4.131   1.683
 2411SOL     OW 7252   2.835   4.614   1.572
 2411SOL    HW1 7253   2.881   4.530   1.543
 2411SOL    HW2 7254   2.779   4.648   1.497
 2412SOL     OW 7255   2.853   4.134   1.242
 2412SOL    HW1 7256   2.776   4.168   1.296
 2412SOL    HW2 7257   2.819   4.083   1.163
 2413SOL     OW 7258   2.903   4.425   0.429
 2413SOL    HW1 7259   2.929   4.421   0.525
 2413SOL    HW2 7260   2.818   4.374   0.415
 2414SOL     OW 7261   1.938   4.535   0.789
 2414SOL    HW1 7262   2.037   4.523   0.798
 2414SOL    HW2 7263   1.914   4.630   0.810
 2415SOL     OW 7264   2.727   4.072   0.195
 2415SOL    HW1 7265   2.786   4.135   0.146
 2415SOL    HW2 7266   2.746   3.978   0.166
 2416SOL     OW 7267   3.581   4.309   1.831
 2416SOL    HW1 7268   3.555   4.398   1.795
 2416SOL    HW2 7269   3.579   4.241   1.758
 2417SOL     OW 7270   2.412   3.920   0.885
 2417SOL    HW1 7271   2.407   3.915   0.985
 2417SOL    HW2 7272   2.414   4.016   0.856
 2418SOL     OW 7273   3.320   4.459   0.728
 2418SOL    HW1 7274   3.315   4.394   0.803
 2418SOL    HW2 7275   3.400   4.518   0.741
 2419SOL     OW 7276   2.064   4.009   1.498
 2419SOL    HW1 7277   1.984   4.069   1.485
 2419SOL    HW2 7278   2.054   3.960   1.584
 2420SOL     OW 7279   3.262   3.831   0.426
 2420SOL    HW1 7280   3.238   3.794   0.336
 2420SOL    HW2 7281   3.361   3.847   0.430
 2421SOL     OW 7282   2.244   4.424   0.480
 2421SOL    HW1 7283   2.289   4.334   0.477
 2421SOL    HW2 7284   2.150   4.413   0.513
 2422SOL     OW 7285   3.409   3.946   1.729
 2422SOL    HW1 7286   3.404   3.983   1.821
 2422SOL    HW2 7287   3.337   3.877   1.717
 2423SOL     OW 7288   2.643   3.988   1.749
 2423SOL    HW1 7289   2.710   3.927   1.792
 2423SOL    HW2 7290   2.570   4.007   1.814
 2424SOL     OW 7291   3.213   4.314   1.433
 2424SOL    HW1 7292   3.241   4.271   1.518
 2424SOL    HW2 7293   3.238   4.410   1.434
 2425SOL     OW 7294   2.784   4.227   0.899
 2425SOL    HW1 7295   2.759   4.218   0.803
 2425SOL    HW2 7296   2.832   4.145   0.930
 2426SOL     OW 7297   2.401   3.788   0.512
 2426SOL    HW1 7298   2.320   3.789   0.570
 2426SOL    HW2 7299   2.404   3.871   0.457
 2427SOL     OW 7300   2.159   3.759   0.171
 2427SOL    HW1 7301   2.208   3.843   0.150
 2427SOL    HW2 7302   2.221   3.694   0.216
 2428SOL     OW 7303   2.797   3.960   0.480
 2428SOL    HW1 7304   2.749   4.001   0.402
 2428SOL    HW2 7305   2.896   3.958   0.461
 2429SOL     OW 7306   2.938   4.407   1.464
 2429SOL    HW1 7307   2.858   4.346   1.467
 2429SOL    HW2 7308   3.019   4.354   1.440
 2430SOL     OW 7309   2.894   4.273   0.016
 2430SOL    HW1 7310   2.853   4.355  -0.023
 2430SOL    HW2 7311   2.958   4.299   0.089
 2431SOL     OW 7312   1.940   4.280   1.386
 2431SOL    HW1 7313   2.032   4.279   1.345
 2431SOL    HW2 7314   1.934   4.354   1.453
 2432SOL     OW 7315   2.423   3.946   1.147
 2432SOL    HW1 7316   2.461   3.862   1.184
 2432SOL    HW2 7317   2.335   3.965   1.191
 2433SOL     OW 7318   2.728   4.178   0.642
 2433SOL    HW1 7319   2.696   4.250   0.580
 2433SOL    HW2 7320   2.752   4.097   0.589
 2434SOL     OW 7321   2.879   3.763   0.753
 2434SOL    HW1 7322   2.807   3.768   0.684
 2434SOL    HW2 7323   2.855   3.694   0.822
 2435SOL     OW 7324   3.328   4.314   0.992
 2435SOL    HW1 7325   3.298   4.219   0.999
 2435SOL    HW2 7326   3.401   4.330   1.058
 2436SOL     OW 7327   3.719   4.557   0.377
 2436SOL    HW1 7328   3.761   4.493   0.441
 2436SOL    HW2 7329   3.681   4.506   0.299
 2437SOL     OW 7330   3.252   4.299   0.078
 2437SOL    HW1 7331   3.198   4.278   0.159
 2437SOL    HW2 7332   3.343   4.258   0.087
 2438SOL     OW 7333   2.389   3.980   0.328
 2438SOL    HW1 7334   2.416   3.921   0.253
 2438SOL    HW2 7335   2.389   4.075   0.297
 2439SOL     OW 7336   3.500   4.823   1.079
 2439SOL    HW1 7337   3.505   4.904   1.138
 2439SOL    HW2 7338   3.414   4.825   1.028
 2440SOL     OW 7339   2.777   3.813   1.402
 2440SOL    HW1 7340   2.802   3.793   1.307
 2440SOL    HW2 7341   2.849   3.869   1.444
 2441SOL     OW 7342   2.272   4.537   1.251
 2441SOL    HW1 7343   2.358   4.549   1.301
 2441SOL    HW2 7344   2.230   4.450   1.278
 2442SOL     OW 7345   3.136   4.110   1.262
 2442SOL    HW1 7346   3.157   4.184   1.326
 2442SOL    HW2 7347   3.047   4.127   1.219
 2443SOL     OW 7348   2.428   4.261   0.865
 2443SOL    HW1 7349   2.440   4.327   0.791
 2443SOL    HW2 7350   2.474   4.295   0.948
 2444SOL     OW 7351   3.444   4.363   0.472
 2444SOL    HW1 7352   3.413   4.424   0.545
 2444SOL    HW2 7353   3.494   4.415   0.403
 2445SOL     OW 7354   2.264   4.475   1.598
 2445SOL    HW1 7355   2.332   4.530   1.551
 2445SOL    HW2 7356   2.304   4.387   1.625
 2446SOL     OW 7357   3.449   4.503   1.670
 2446SOL    HW1 7358   3.357   4.541   1.665
 2446SOL    HW2 7359   3.509   4.550   1.605
 2447SOL     OW 7360   2.875   3.829   1.770
 2447SOL    HW1 7361   2.881   3.914   1.718
 2447SOL    HW2 7362   2.907   3.753   1.713
 2448SOL     OW 7363   2.366   3.774   1.740
 2448SOL    HW1 7364   2.324   3.717   1.670
 2448SOL    HW2 7365   2.300   3.843   1.772
 2449SOL     OW 7366   2.435   4.594   1.029
 2449SOL    HW1 7367   2.479   4.683   1.020
 2449SOL    HW2 7368   2.372   4.594   1.106
 2450SOL     OW 7369   3.222   4.586   1.045
 2450SOL    HW1 7370   3.147   4.586   0.979
 2450SOL    HW2 7371   3.259   4.494   1.054
 2451SOL     OW 7372   3.071   4.249   0.275
 2451SOL    HW1 7373   3.084   4.165   0.329
 2451SOL    HW2 7374   3.042   4.323   0.335
 2452SOL     OW 7375   2.169   3.937   1.231
 2452SOL    HW1 7376   2.146   3.974   1.321
 2452SOL    HW2 7377   2.139   3.842   1.225
 2453SOL     OW 7378   2.594   4.358   1.064
 2453SOL    HW1 7379   2.653   4.332   0.988
 2453SOL    HW2 7380   2.566   4.454   1.053
 2454SOL     OW 7381   3.590   4.659   1.854
 2454SOL    HW1 7382   3.544   4.652   1.765
 2454SOL    HW2 7383   3.528   4.703   1.920
 2455SOL     OW 7384   2.169   3.787   0.618
 2455SOL    HW1 7385   2.158   3.881   0.651
 2455SOL    HW2 7386   2.164   3.724   0.695
 2456SOL     OW 7387   3.484   4.091   0.374
 2456SOL    HW1 7388   3.486   4.015   0.438
 2456SOL    HW2 7389   3.436   4.168   0.414
 2457SOL     OW 7390   2.885   4.490   0.966
 2457SOL    HW1 7391   2.900   4.511   1.062
 2457SOL    HW2 7392   2.855   4.395   0.957
 2458SOL     OW 7393   2.212   4.622   1.804
 2458SOL    HW1 7394   2.288   4.666   1.852
 2458SOL    HW2 7395   2.247   4.575   1.722
 2459SOL     OW 7396   3.402   3.998   0.125
 2459SOL    HW1 7397   3.341   3.923   0.148
 2459SOL    HW2 7398   3.424   4.050   0.208
 2460SOL     OW 7399   3.165   4.562   0.042
 2460SOL    HW1 7400   3.199   4.469   0.057
 2460SOL    HW2 7401   3.183   4.589  -0.053
 2461SOL     OW 7402   2.181   4.534   0.949
 2461SOL    HW1 7403   2.274   4.570   0.954
 2461SOL    HW2 7404   2.175   4.449   1.001
 2462SOL     OW 7405   2.201   4.233   1.006
 2462SOL    HW1 7406   2.149   4.150   0.989
 2462SOL    HW2 7407   2.278   4.238   0.942
 2463SOL     OW 7408   3.000   4.104   1.678
 2463SOL    HW1 7409   2.955   4.167   1.742
 2463SOL    HW2 7410   3.093   4.135   1.661
 2464SOL     OW 7411   3.022   3.931   1.477
 2464SOL    HW1 7412   3.022   3.995   1.554
 2464SOL    HW2 7413   3.050   3.979   1.394
 2465SOL     OW 7414   2.864   4.520   1.238
 2465SOL    HW1 7415   2.905   4.488   1.324
 2465SOL    HW2 7416   2.768   4.493   1.235
 2466SOL     OW 7417   1.902   4.268   1.114
 2466SOL    HW1 7418   1.987   4.235   1.073
 2466SOL    HW2 7419   1.915   4.283   1.212
 2467SOL     OW 7420   2.051   4.244   1.722
 2467SOL    HW1 7421   2.110   4.204   1.652
 2467SOL    HW2 7422   1.993   4.315   1.681
 2468SOL     OW 7423   2.677   4.296   0.325
 2468SOL    HW1 7424   2.684   4.207   0.279
 2468SOL    HW2 7425   2.583   4.330   0.317
 2469SOL     OW 7426   3.519   4.328   1.206
 2469SOL    HW1 7427   3.481   4.259   1.268
 2469SOL    HW2 7428   3.601   4.292   1.162
 2470SOL     OW 7429   2.533   4.188   1.269
 2470SOL    HW1 7430   2.499   4.099   1.239
 2470SOL    HW2 7431   2.559   4.242   1.189
 2471SOL     OW 7432   2.335   4.224   0.191
 2471SOL    HW1 7433   2.396   4.304   0.195
 2471SOL    HW2 7434   2.240   4.255   0.198
 2472SOL     OW 7435   3.209   4.783   1.234
 2472SOL    HW1 7436   3.233   4.720   1.160
 2472SOL    HW2 7437   3.119   4.823   1.216
 2473SOL     OW 7438   3.164   4.579   0.309
 2473SOL    HW1 7439   3.078   4.548   0.351
 2473SOL    HW2 7440   3.160   4.565   0.210
 2474SOL     OW 7441   2.765   3.810   0.133
 2474SOL    HW1 7442   2.816   3.811   0.047
 2474SOL    HW2 7443   2.821   3.768   0.204
 2475SOL     OW 7444   3.588   3.859   0.523
 2475SOL    HW1 7445   3.661   3.842   0.456
 2475SOL    HW2 7446   3.557   3.772   0.561
 2476SOL     OW 7447   3.142   4.651   0.672
 2476SOL    HW1 7448   3.202   4.570   0.674
 2476SOL    HW2 7449   3.182   4.720   0.612
 2477SOL     OW 7450   3.703   3.899   0.963
 2477SOL    HW1 7451   3.742   3.814   0.927
 2477SOL    HW2 7452   3.605   3.901   0.944
 2478SOL     OW 7453   2.125   4.050   0.720
 2478SOL    HW1 7454   2.046   4.101   0.686
 2478SOL    HW2 7455   2.116   4.035   0.818
 2479SOL     OW 7456   2.876   3.960   0.971
 2479SOL    HW1 7457   2.868   3.924   0.878
 2479SOL    HW2 7458   2.874   3.884   1.036
 2480SOL     OW 7459   3.571   4.109   1.381
 2480SOL    HW1 7460   3.644   4.178   1.385
 2480SOL    HW2 7461   3.599   4.034   1.322
 2481SOL     OW 7462   1.967   4.737   1.726
 2481SOL    HW1 7463   1.890   4.704   1.780
 2481SOL    HW2 7464   2.052   4.707   1.768
 2482SOL     OW 7465   2.534   3.927   1.489
 2482SOL    HW1 7466   2.624   3.911   1.449
 2482SOL    HW2 7467   2.542   3.932   1.588
 2483SOL     OW 7468   3.302   4.580   1.398
 2483SOL    HW1 7469   3.245   4.632   1.335
 2483SOL    HW2 7470   3.398   4.592   1.374
 2484SOL     OW 7471   1.934   3.890   0.318
 2484SOL    HW1 7472   1.917   3.973   0.264
 2484SOL    HW2 7473   2.024   3.853   0.296
 2485SOL     OW 7474   2.475   4.566   1.431
 2485SOL    HW1 7475   2.531   4.647   1.414
 2485SOL    HW2 7476   2.534   4.486   1.434
 2486SOL     OW 7477   2.578   4.289   1.708
 2486SOL    HW1 7478   2.597   4.354   1.782
 2486SOL    HW2 7479   2.638   4.209   1.717
 2487SOL     OW 7480   3.536   4.607   1.254
 2487SOL    HW1 7481   3.509   4.518   1.217
 2487SOL    HW2 7482   3.537   4.675   1.181
 2488SOL     OW 7483   3.087   4.049   0.449
 2488SOL    HW1 7484   3.152   3.975   0.438
 2488SOL    HW2 7485   3.107   4.099   0.533
 2489SOL     OW 7486   2.456   4.469   0.652
 2489SOL    HW1 7487   2.506   4.554   0.633
 2489SOL    HW2 7488   2.368   4.471   0.604
 2490SOL     OW 7489   3.639   4.066   1.642
 2490SOL    HW1 7490   3.622   4.097   1.548
 2490SOL    HW2 7491   3.555   4.029   1.680
 2491SOL     OW 7492   3.592   4.658   1.517
 2491SOL    HW1 7493   3.630   4.749   1.532
 2491SOL    HW2 7494   3.584   4.641   1.418
 2492SOL     OW 7495   3.686   3.916   1.227
 2492SOL    HW1 7496   3.682   3.826   1.271
 2492SOL    HW2 7497   3.689   3.905   1.128
 2493SOL     OW 7498   2.290   4.148   0.520
 2493SOL    HW1 7499   2.320   4.076   0.458
 2493SOL    HW2 7500   2.251   4.108   0.603
 2494SOL     OW 7501   2.179   4.271   1.280
 2494SOL    HW1 7502   2.217   4.212   1.352
 2494SOL    HW2 7503   2.219   4.245   1.192
 2495SOL     OW 7504   3.286   3.938   1.112
 2495SOL    HW1 7505   3.338   3.873   1.167
 2495SOL    HW2 7506   3.237   4.001   1.173
 2496SOL     OW 7507   2.863   3.758   1.154
 2496SOL    HW1 7508   2.800   3.686   1.123
 2496SOL    HW2 7509   2.956   3.722   1.154
 2497SOL     OW 7510   3.214   3.776   0.168
 2497SOL    HW1 7511   3.249   3.735   0.084
 2497SOL    HW2 7512   3.124   3.738   0.188
 2498SOL     OW 7513   3.162   4.177   0.691
 2498SOL    HW1 7514   3.103   4.257   0.695
 2498SOL    HW2 7515   3.177   4.142   0.784
 2499SOL     OW 7516   3.455   3.945   0.882
 2499SOL    HW1 7517   3.371   3.944   0.936
 2499SOL    HW2 7518   3.457   4.028   0.826
 2500SOL     OW 7519   2.092   4.352   1.975
 2500SOL    HW1 7520   1.999   4.350   2.012
 2500SOL    HW2 7521   2.093   4.313   1.883
 2501SOL     OW 7522   2.087   3.999   2.858
 2501SOL    HW1 7523   2.122   3.982   2.950
 2501SOL    HW2 7524   1.999   3.954   2.846
 2502SOL     OW 7525   1.881   4.092   2.509
 2502SOL    HW1 7526   1.799   4.135   2.548
 2502SOL    HW2 7527   1.853   4.019   2.446
 2503SOL     OW 7528   2.997   4.427   2.579
 2503SOL    HW1 7529   3.054   4.505   2.554
 2503SOL    HW2 7530   2.937   4.453   2.655
 2504SOL     OW 7531   3.617   4.331   2.093
 2504SOL    HW1 7532   3.605   4.318   1.994
 2504SOL    HW2 7533   3.587   4.250   2.142
 2505SOL     OW 7534   2.712   4.522   3.685
 2505SOL    HW1 7535   2.708   4.598   3.750
 2505SOL    HW2 7536   2.734   4.558   3.594
 2506SOL     OW 7537   2.547   4.736   2.527
 2506SOL    HW1 7538   2.616   4.720   2.597
 2506SOL    HW2 7539   2.474   4.793   2.565
 2507SOL     OW 7540   2.300   4.116   3.361
 2507SOL    HW1 7541   2.382   4.060   3.370
 2507SOL    HW2 7542   2.219   4.058   3.365
 2508SOL     OW 7543   3.465   4.171   2.599
 2508SOL    HW1 7544   3.391   4.217   2.549
 2508SOL    HW2 7545   3.516   4.239   2.652
 2509SOL     OW 7546   3.456   3.838   3.342
 2509SOL    HW1 7547   3.438   3.905   3.270
 2509SOL    HW2 7548   3.453   3.884   3.431
 2510SOL     OW 7549   1.984   4.367   2.425
 2510SOL    HW1 7550   1.939   4.279   2.442
 2510SOL    HW2 7551   1.983   4.421   2.509
 2511SOL     OW 7552   1.975   4.461   3.459
 2511SOL    HW1 7553   2.063   4.448   3.504
 2511SOL    HW2 7554   1.962   4.558   3.437
 2512SOL     OW 7555   2.671   3.728   2.364
 2512SOL    HW1 7556   2.711   3.819   2.355
 2512SOL    HW2 7557   2.571   3.736   2.370
 2513SOL     OW 7558   2.059   4.700   3.126
 2513SOL    HW1 7559   2.148   4.655   3.112
 2513SOL    HW2 7560   1.986   4.635   3.107
 2514SOL     OW 7561   3.387   4.723   2.052
 2514SOL    HW1 7562   3.324   4.647   2.065
 2514SOL    HW2 7563   3.435   4.741   2.138
 2515SOL     OW 7564   2.179   3.975   3.663
 2515SOL    HW1 7565   2.250   4.046   3.669
 2515SOL    HW2 7566   2.091   4.014   3.691
 2516SOL     OW 7567   2.460   4.453   2.132
 2516SOL    HW1 7568   2.484   4.522   2.064
 2516SOL    HW2 7569   2.382   4.486   2.186
 2517SOL     OW 7570   3.143   4.069   2.806
 2517SOL    HW1 7571   3.057   4.019   2.793
 2517SOL    HW2 7572   3.205   4.015   2.862
 2518SOL     OW 7573   2.669   4.329   3.327
 2518SOL    HW1 7574   2.622   4.326   3.416
 2518SOL    HW2 7575   2.618   4.274   3.261
 2519SOL     OW 7576   3.256   4.193   3.536
 2519SOL    HW1 7577   3.236   4.236   3.624
 2519SOL    HW2 7578   3.334   4.131   3.545
 2520SOL     OW 7579   2.835   4.614   3.434
 2520SOL    HW1 7580   2.881   4.530   3.405
 2520SOL    HW2 7581   2.779   4.648   3.359
 2521SOL     OW 7582   2.853   4.134   3.104
 2521SOL    HW1 7583   2.776   4.168   3.158
 2521SOL    HW2 7584   2.819   4.083   3.025
 2522SOL     OW 7585   2.903   4.425   2.291
 2522SOL    HW1 7586   2.929   4.421   2.387
 2522SOL    HW2 7587   2.818   4.374   2.277
 2523SOL     OW 7588   1.938   4.535   2.651
 2523SOL    HW1 7589   2.037   4.523   2.660
 2523SOL    HW2 7590   1.914   4.630   2.672
 2524SOL     OW 7591   2.727   4.072   2.057
 2524SOL    HW1 7592   2.786   4.135   2.008
 2524SOL    HW2 7593   2.746   3.978   2.028
 2525SOL     OW 7594   3.581   4.309   3.693
 2525SOL    HW1 7595   3.555   4.398   3.657
 2525SOL    HW2 7596   3.579   4.241   3.620
 2526SOL     OW 7597   2.412   3.920   2.747
 2526SOL    HW1 7598   2.407   3.915   2.847
 2526SOL    HW2 7599   2.414   4.016   2.718
 2527SOL     OW 7600   3.320   4.459   2.590
 2527SOL    HW1 7601   3.315   4.394   2.665
 2527SOL    HW2 7602   3.400   4.518   2.603
 2528SOL     OW 7603   2.064   4.009   3.360
 2528SOL    HW1 7604   1.984   4.069   3.347
 2528SOL    HW2 7605   2.054   3.960   3.446
 2529SOL     OW 7606   3.262   3.831   2.288
 2529SOL    HW1 7607   3.238   3.794   2.198
 2529SOL    HW2 7608   3.361   3.847   2.292
 2530SOL     OW 7609   2.244   4.424   2.342
 2530SOL    HW1 7610   2.289   4.334   2.339
 2530SOL    HW2 7611   2.150   4.413   2.375
 2531SOL     OW 7612   3.409   3.946   3.591
 2531SOL    HW1 7613   3.404   3.983   3.683
 2531SOL    HW2 7614   3.337   3.877   3.579
 2532SOL     OW 7615   2.476   3.846   1.979
 2532SOL    HW1 7616   2.574   3.824   1.986
 2532SOL    HW2 7617   2.445   3.829   1.886
 2533SOL     OW 7618   2.643   3.988   3.611
 2533SOL    HW1 7619   2.710   3.927   3.654
 2533SOL    HW2 7620   2.570   4.007   3.676
 2534SOL     OW 7621   3.213   4.314   3.295
 2534SOL    HW1 7622   3.241   4.271   3.380
 2534SOL    HW2 7623   3.238   4.410   3.296
 2535SOL     OW 7624   2.784   4.227   2.761
 2535SOL    HW1 7625   2.759   4.218   2.665
 2535SOL    HW2 7626   2.832   4.145   2.792
 2536SOL     OW 7627   2.401   3.788   2.374
 2536SOL    HW1 7628   2.320   3.789   2.432
 2536SOL    HW2 7629   2.404   3.871   2.319
 2537SOL     OW 7630   2.159   3.759   2.033
 2537SOL    HW1 7631   2.208   3.843   2.012
 2537SOL    HW2 7632   2.221   3.694   2.078
 2538SOL     OW 7633   2.797   3.960   2.342
 2538SOL    HW1 7634   2.749   4.001   2.264
 2538SOL    HW2 7635   2.896   3.958   2.323
 2539SOL     OW 7636   2.938   4.407   3.326
 2539SOL    HW1 7637   2.858   4.346   3.329
 2539SOL    HW2 7638   3.019   4.354   3.302
 2540SOL     OW 7639   2.894   4.273   1.878
 2540SOL    HW1 7640   2.853   4.355   1.839
 2540SOL    HW2 7641   2.958   4.299   1.951
 2541SOL     OW 7642   1.940   4.280   3.248
 2541SOL    HW1 7643   2.032   4.279   3.207
 2541SOL    HW2 7644   1.934   4.354   3.315
 2542SOL     OW 7645   2.423   3.946   3.009
 2542SOL    HW1 7646   2.461   3.862   3.046
 2542SOL    HW2 7647   2.335   3.965   3.053
 2543SOL     OW 7648   2.728   4.178   2.504
 2543SOL    HW1 7649   2.696   4.250   2.442
 2543SOL    HW2 7650   2.752   4.097   2.451
 2544SOL     OW 7651   2.879   3.763   2.615
 2544SOL    HW1 7652   2.807   3.768   2.546
 2544SOL    HW2 7653   2.855   3.694   2.684
 2545SOL     OW 7654   3.328   4.314   2.854
 2545SOL    HW1 7655   3.298   4.219   2.861
 2545SOL    HW2 7656   3.401   4.330   2.920
 2546SOL     OW 7657   3.719   4.557   2.239
 2546SOL    HW1 7658   3.761   4.493   2.303
 2546SOL    HW2 7659   3.681   4.506   2.161
 2547SOL     OW 7660   3.252   4.299   1.940
 2547SOL    HW1 7661   3.198   4.278   2.021
 2547SOL    HW2 7662   3.343   4.258   1.949
 2548SOL     OW 7663   2.389   3.980   2.190
 2548SOL    HW1 7664   2.416   3.921   2.115
 2548SOL    HW2 7665   2.389   4.075   2.159
 2549SOL     OW 7666   3.500   4.823   2.941
 2549SOL    HW1 7667   3.505   4.904   3.000
 2549SOL    HW2 7668   3.414   4.825   2.890
 2550SOL     OW 7669   2.777   3.813   3.264
 2550SOL    HW1 7670   2.802   3.793   3.169
 2550SOL    HW2 7671   2.849   3.869   3.306
 2551SOL     OW 7672   2.272   4.537   3.113
 2551SOL    HW1 7673   2.358   4.549   3.163
 2551SOL    HW2 7674   2.230   4.450   3.140
 2552SOL     OW 7675   3.136   4.110   3.124
 2552SOL    HW1 7676   3.157   4.184   3.188
 2552SOL    HW2 7677   3.047   4.127   3.081
 2553SOL     OW 7678   2.428   4.261   2.727
 2553SOL    HW1 7679   2.440   4.327   2.653
 2553SOL    HW2 7680   2.474   4.295   2.810
 2554SOL     OW 7681   3.444   4.363   2.334
 2554SOL    HW1 7682   3.413   4.424   2.407
 2554SOL    HW2 7683   3.494   4.415   2.265
 2555SOL     OW 7684   2.264   4.475   3.460
 2555SOL    HW1 7685   2.332   4.530   3.413
 2555SOL    HW2 7686   2.304   4.387   3.487
 2556SOL     OW 7687   3.449   4.503   3.532
 2556SOL    HW1 7688   3.357   4.541   3.527
 2556SOL    HW2 7689   3.509   4.550   3.467
 2557SOL     OW 7690   2.875   3.829   3.632
 2557SOL    HW1 7691   2.881   3.914   3.580
 2557SOL    HW2 7692   2.907   3.753   3.575
 2558SOL     OW 7693   2.366   3.774   3.602
 2558SOL    HW1 7694   2.324   3.717   3.532
 2558SOL    HW2 7695   2.300   3.843   3.634
 2559SOL     OW 7696   2.435   4.594   2.891
 2559SOL    HW1 7697   2.479   4.683   2.882
 2559SOL    HW2 7698   2.372   4.594   2.968
 2560SOL     OW 7699   3.222   4.586   2.907
 2560SOL    HW1 7700   3.147   4.586   2.841
 2560SOL    HW2 7701   3.259   4.494   2.916
 2561SOL     OW 7702   3.071   4.249   2.137
 2561SOL    HW1 7703   3.084   4.165   2.191
 2561SOL    HW2 7704   3.042   4.323   2.197
 2562SOL     OW 7705   2.169   3.937   3.093
 2562SOL    HW1 7706   2.146   3.974   3.183
 2562SOL    HW2 7707   2.139   3.842   3.087
 2563SOL     OW 7708   2.594   4.358   2.926
 2563SOL    HW1 7709   2.653   4.332   2.850
 2563SOL    HW2 7710   2.566   4.454   2.915
 2564SOL     OW 7711   3.590   4.659   3.716
 2564SOL    HW1 7712   3.544   4.652   3.627
 2564SOL    HW2 7713   3.528   4.703   3.782
 2565SOL     OW 7714   2.169   3.787   2.480
 2565SOL    HW1 7715   2.158   3.881   2.513
 2565SOL    HW2 7716   2.164   3.724   2.557
 2566SOL     OW 7717   3.484   4.091   2.236
 2566SOL    HW1 7718   3.486   4.015   2.300
 2566SOL    HW2 7719   3.436   4.168   2.276
 2567SOL     OW 7720   2.885   4.490   2.828
 2567SOL    HW1 7721   2.900   4.511   2.924
 2567SOL    HW2 7722   2.855   4.395   2.819
 2568SOL     OW 7723   2.212   4.622   3.666
 2568SOL    HW1 7724   2.288   4.666   3.714
 2568SOL    HW2 7725   2.247   4.575   3.584
 2569SOL     OW 7726   3.402   3.998   1.987
 2569SOL    HW1 7727   3.341   3.923   2.010
 2569SOL    HW2 7728   3.424   4.050   2.070
 2570SOL     OW 7729   3.165   4.562   1.904
 2570SOL    HW1 7730   3.199   4.469   1.919
 2570SOL    HW2 7731   3.183   4.589   1.809
 2571SOL     OW 7732   2.181   4.534   2.811
 2571SOL    HW1 7733   2.274   4.570   2.816
 2571SOL    HW2 7734   2.175   4.449   2.863
 2572SOL     OW 7735   2.201   4.233   2.868
 2572SOL    HW1 7736   2.149   4.150   2.851
 2572SOL    HW2 7737   2.278   4.238   2.804
 2573SOL     OW 7738   3.000   4.104   3.540
 2573SOL    HW1 7739   2.955   4.167   3.604
 2573SOL    HW2 7740   3.093   4.135   3.523
 2574SOL     OW 7741   3.022   3.931   3.339
 2574SOL    HW1 7742   3.022   3.995   3.416
 2574SOL    HW2 7743   3.050   3.979   3.256
 2575SOL     OW 7744   2.864   4.520   3.100
 2575SOL    HW1 7745   2.905   4.488   3.186
 2575SOL    HW2 7746   2.768   4.493   3.097
 2576SOL     OW 7747   1.902   4.268   2.976
 2576SOL    HW1 7748   1.987   4.235   2.935
 2576SOL    HW2 7749   1.915   4.283   3.074
 2577SOL     OW 7750   2.051   4.244   3.584
 2577SOL    HW1 7751   2.110   4.204   3.514
 2577SOL    HW2 7752   1.993   4.315   3.543
 2578SOL     OW 7753   2.677   4.296   2.187
 2578SOL    HW1 7754   2.684   4.207   2.141
 2578SOL    HW2 7755   2.583   4.330   2.179
 2579SOL     OW 7756   3.519   4.328   3.068
 2579SOL    HW1 7757   3.481   4.259   3.130
 2579SOL    HW2 7758   3.601   4.292   3.024
 2580SOL     OW 7759   2.533   4.188   3.131
 2580SOL    HW1 7760   2.499   4.099   3.101
 2580SOL    HW2 7761   2.559   4.242   3.051
 2581SOL     OW 7762   2.335   4.224   2.053
 2581SOL    HW1 7763   2.396   4.304   2.057
 2581SOL    HW2 7764   2.240   4.255   2.060
 2582SOL     OW 7765   3.209   4.783   3.096
 2582SOL    HW1 7766   3.233   4.720   3.022
 2582SOL    HW2 7767   3.119   4.823   3.078
 2583SOL     OW 7768   3.164   4.579   2.171
 2583SOL    HW1 7769   3.078   4.548   2.213
 2583SOL    HW2 7770   3.160   4.565   2.072
 2584SOL     OW 7771   3.588   3.859   2.385
 2584SOL    HW1 7772   3.661   3.842   2.318
 2584SOL    HW2 7773   3.557   3.772   2.423
 2585SOL     OW 7774   3.142   4.651   2.534
 2585SOL    HW1 7775   3.202   4.570   2.536
 2585SOL    HW2 7776   3.182   4.720   2.474
 2586SOL     OW 7777   3.703   3.899   2.825
 2586SOL    HW1 7778   3.742   3.814   2.789
 2586SOL    HW2 7779   3.605   3.901   2.806
 2587SOL     OW 7780   2.125   4.050   2.582
 2587SOL    HW1 7781   2.046   4.101   2.548
 2587SOL    HW2 7782   2.116   4.035   2.680
 2588SOL     OW 7783   2.778   4.634   2.153
 2588SOL    HW1 7784   2.841   4.672   2.085
 2588SOL    HW2 7785   2.818   4.551   2.192
 2589SOL     OW 7786   2.876   3.960   2.833
 2589SOL    HW1 7787   2.868   3.924   2.740
 2589SOL    HW2 7788   2.874   3.884   2.898
 2590SOL     OW 7789   3.571   4.109   3.243
 2590SOL    HW1 7790   3.644   4.178   3.247
 2590SOL    HW2 7791   3.599   4.034   3.184
 2591SOL     OW 7792   1.967   4.737   3.588
 2591SOL    HW1 7793   1.890   4.704   3.642
 2591SOL    HW2 7794   2.052   4.707   3.630
 2592SOL     OW 7795   2.534   3.927   3.351
 2592SOL    HW1 7796   2.624   3.911   3.311
 2592SOL    HW2 7797   2.542   3.932   3.450
 2593SOL     OW 7798   1.937   4.069   1.895
 2593SOL    HW1 7799   1.845   4.041   1.866
 2593SOL    HW2 7800   1.968   4.146   1.839
 2594SOL     OW 7801   3.302   4.580   3.260
 2594SOL    HW1 7802   3.245   4.632   3.197
 2594SOL    HW2 7803   3.398   4.592   3.236
 2595SOL     OW 7804   1.934   3.890   2.180
 2595SOL    HW1 7805   1.917   3.973   2.126
 2595SOL    HW2 7806   2.024   3.853   2.158
 2596SOL     OW 7807   2.475   4.566   3.293
 2596SOL    HW1 7808   2.531   4.647   3.276
 2596SOL    HW2 7809   2.534   4.486   3.296
 2597SOL     OW 7810   2.578   4.289   3.570
 2597SOL    HW1 7811   2.597   4.354   3.644
 2597SOL    HW2 7812   2.638   4.209   3.579
 2598SOL     OW 7813   3.536   4.607   3.116
 2598SOL    HW1 7814   3.509   4.518   3.079
 2598SOL    HW2 7815   3.537   4.675   3.043
 2599SOL     OW 7816   3.087   4.049   2.311
 2599SOL    HW1 7817   3.152   3.975   2.300
 2599SOL    HW2 7818   3.107   4.099   2.395
 2600SOL     OW 7819   2.456   4.469   2.514
 2600SOL    HW1 7820   2.506   4.554   2.495
 2600SOL    HW2 7821   2.368   4.471   2.466
 2601SOL     OW 7822   3.639   4.066   3.504
 2601SOL    HW1 7823   3.622   4.097   3.410
 2601SOL    HW2 7824   3.555   4.029   3.542
 2602SOL     OW 7825   3.592   4.658   3.379
 2602SOL    HW1 7826   3.630   4.749   3.394
 2602SOL    HW2 7827   3.584   4.641   3.280
 2603SOL     OW 7828   3.686   3.916   3.089
 2603SOL    HW1 7829   3.682   3.826   3.133
 2603SOL    HW2 7830   3.689   3.905   2.990
 2604SOL     OW 7831   2.290   4.148   2.382
 2604SOL    HW1 7832   2.320   4.076   2.320
 2604SOL    HW2 7833   2.251   4.108   2.465
 2605SOL     OW 7834   2.179   4.271   3.142
 2605SOL    HW1 7835   2.217   4.212   3.214
 2605SOL    HW2 7836   2.219   4.245   3.054
 2606SOL     OW 7837   3.286   3.938   2.974
 2606SOL    HW1 7838   3.338   3.873   3.029
 2606SOL    HW2 7839   3.237   4.001   3.035
 2607SOL     OW 7840   2.863   3.758   3.016
 2607SOL    HW1 7841   2.800   3.686   2.985
 2607SOL    HW2 7842   2.956   3.722   3.016
 2608SOL     OW 7843   3.214   3.776   2.030
 2608SOL    HW1 7844   3.249   3.735   1.946
 2608SOL    HW2 7845   3.124   3.738   2.050
 2609SOL     OW 7846   3.162   4.177   2.553
 2609SOL    HW1 7847   3.103   4.257   2.557
 2609SOL    HW2 7848   3.177   4.142   2.646
 2610SOL     OW 7849   3.455   3.945   2.744
 2610SOL    HW1 7850   3.371   3.944   2.798
 2610SOL    HW2 7851   3.457   4.028   2.688
 2611SOL     OW 7852   2.092   4.352   3.837
 2611SOL    HW1 7853   1.999   4.350   3.874
 2611SOL    HW2 7854   2.093   4.313   3.745
 2612SOL     OW 7855   2.087   3.999   4.720
 2612SOL    HW1 7856   2.122   3.982   4.812
 2612SOL    HW2 7857   1.999   3.954   4.708
 2613SOL     OW 7858   1.881   4.092   4.371
 2613SOL    HW1 7859   1.799   4.135   4.410
 2613SOL    HW2 7860   1.853   4.019   4.308
 2614SOL     OW 7861   2.997   4.427   4.441
 2614SOL    HW1 7862   3.054   4.505   4.416
 2614SOL    HW2 7863   2.937   4.453   4.517
 2615SOL     OW 7864   3.617   4.331   3.955
 2615SOL    HW1 7865   3.605   4.318   3.856
 2615SOL    HW2 7866   3.587   4.250   4.004
 2616SOL     OW 7867   2.547   4.736   4.389
 2616SOL    HW1 7868   2.616   4.720   4.459
 2616SOL    HW2 7869   2.474   4.793   4.427
 2617SOL     OW 7870   3.465   4.171   4.461
 2617SOL    HW1 7871   3.391   4.217   4.411
 2617SOL    HW2 7872   3.516   4.239   4.514
 2618SOL     OW 7873   1.984   4.367   4.287
 2618SOL    HW1 7874   1.939   4.279   4.304
 2618SOL    HW2 7875   1.983   4.421   4.371
 2619SOL     OW 7876   2.671   3.728   4.226
 2619SOL    HW1 7877   2.711   3.819   4.217
 2619SOL    HW2 7878   2.571   3.736   4.232
 2620SOL     OW 7879   3.387   4.723   3.914
 2620SOL    HW1 7880   3.324   4.647   3.927
 2620SOL    HW2 7881   3.435   4.741   4.000
 2621SOL     OW 7882   2.460   4.453   3.994
 2621SOL    HW1 7883   2.484   4.522   3.926
 2621SOL    HW2 7884   2.382   4.486   4.048
 2622SOL     OW 7885   3.143   4.069   4.668
 2622SOL    HW1 7886   3.057   4.019   4.655
 2622SOL    HW2 7887   3.205   4.015   4.724
 2623SOL     OW 7888   2.903   4.425   4.153
 2623SOL    HW1 7889   2.929   4.421   4.249
 2623SOL    HW2 7890   2.818   4.374   4.139
 2624SOL     OW 7891   1.938   4.535   4.513
 2624SOL    HW1 7892   2.037   4.523   4.522
 2624SOL    HW2 7893   1.914   4.630   4.534
 2625SOL     OW 7894   2.727   4.072   3.919
 2625SOL    HW1 7895   2.786   4.135   3.870
 2625SOL    HW2 7896   2.746   3.978   3.890
 2626SOL     OW 7897   2.412   3.920   4.609
 2626SOL    HW1 7898   2.407   3.915   4.709
 2626SOL    HW2 7899   2.414   4.016   4.580
 2627SOL     OW 7900   3.320   4.459   4.452
 2627SOL    HW1 7901   3.315   4.394   4.527
 2627SOL    HW2 7902   3.400   4.518   4.465
 2628SOL     OW 7903   3.262   3.831   4.150
 2628SOL    HW1 7904   3.238   3.794   4.060
 2628SOL    HW2 7905   3.361   3.847   4.154
 2629SOL     OW 7906   2.244   4.424   4.204
 2629SOL    HW1 7907   2.289   4.334   4.201
 2629SOL    HW2 7908   2.150   4.413   4.237
 2630SOL     OW 7909   2.476   3.846   3.841
 2630SOL    HW1 7910   2.574   3.824   3.848
 2630SOL    HW2 7911   2.445   3.829   3.748
 2631SOL     OW 7912   2.401   3.788   4.236
 2631SOL    HW1 7913   2.320   3.789   4.294
 2631SOL    HW2 7914   2.404   3.871   4.181
 2632SOL     OW 7915   2.159   3.759   3.895
 2632SOL    HW1 7916   2.208   3.843   3.874
 2632SOL    HW2 7917   2.221   3.694   3.940
 2633SOL     OW 7918   2.797   3.960   4.204
 2633SOL    HW1 7919   2.749   4.001   4.126
 2633SOL    HW2 7920   2.896   3.958   4.185
 2634SOL     OW 7921   2.894   4.273   3.740
 2634SOL    HW1 7922   2.853   4.355   3.701
 2634SOL    HW2 7923   2.958   4.299   3.813
 2635SOL     OW 7924   2.728   4.178   4.366
 2635SOL    HW1 7925   2.696   4.250   4.304
 2635SOL    HW2 7926   2.752   4.097   4.313
 2636SOL     OW 7927   2.879   3.763   4.477
 2636SOL    HW1 7928   2.807   3.768   4.408
 2636SOL    HW2 7929   2.855   3.694   4.546
 2637SOL     OW 7930   3.719   4.557   4.101
 2637SOL    HW1 7931   3.761   4.493   4.165
 2637SOL    HW2 7932   3.681   4.506   4.023
 2638SOL     OW 7933   3.252   4.299   3.802
 2638SOL    HW1 7934   3.198   4.278   3.883
 2638SOL    HW2 7935   3.343   4.258   3.811
 2639SOL     OW 7936   2.389   3.980   4.052
 2639SOL    HW1 7937   2.416   3.921   3.977
 2639SOL    HW2 7938   2.389   4.075   4.021
 2640SOL     OW 7939   2.973   4.919   4.824
 2640SOL    HW1 7940   2.933   4.963   4.905
 2640SOL    HW2 7941   2.932   4.956   4.741
 2641SOL     OW 7942   2.428   4.261   4.589
 2641SOL    HW1 7943   2.440   4.327   4.515
 2641SOL    HW2 7944   2.474   4.295   4.672
 2642SOL     OW 7945   3.444   4.363   4.196
 2642SOL    HW1 7946   3.413   4.424   4.269
 2642SOL    HW2 7947   3.494   4.415   4.127
 2643SOL     OW 7948   3.071   4.249   3.999
 2643SOL    HW1 7949   3.084   4.165   4.053
 2643SOL    HW2 7950   3.042   4.323   4.059
 2644SOL     OW 7951   2.594   4.358   4.788
 2644SOL    HW1 7952   2.653   4.332   4.712
 2644SOL    HW2 7953   2.566   4.454   4.777
 2645SOL     OW 7954   2.169   3.787   4.342
 2645SOL    HW1 7955   2.158   3.881   4.375
 2645SOL    HW2 7956   2.164   3.724   4.419
 2646SOL     OW 7957   3.484   4.091   4.098
 2646SOL    HW1 7958   3.486   4.015   4.162
 2646SOL    HW2 7959   3.436   4.168   4.138
 2647SOL     OW 7960   3.402   3.998   3.849
 2647SOL    HW1 7961   3.341   3.923   3.872
 2647SOL    HW2 7962   3.424   4.050   3.932
 2648SOL     OW 7963   3.165   4.562   3.766
 2648SOL    HW1 7964   3.199   4.469   3.781
 2648SOL    HW2 7965   3.183   4.589   3.671
 2649SOL     OW 7966   2.181   4.534   4.673
 2649SOL    HW1 7967   2.274   4.570   4.678
 2649SOL    HW2 7968   2.175   4.449   4.725
 2650SOL     OW 7969   2.677   4.296   4.049
 2650SOL    HW1 7970   2.684   4.207   4.003
 2650SOL    HW2 7971   2.583   4.330   4.041
 2651SOL     OW 7972   2.335   4.224   3.915
 2651SOL    HW1 7973   2.396   4.304   3.919
 2651SOL    HW2 7974   2.240   4.255   3.922
 2652SOL     OW 7975   3.164   4.579   4.033
 2652SOL    HW1 7976   3.078   4.548   4.075
 2652SOL    HW2 7977   3.160   4.565   3.934
 2653SOL     OW 7978   3.588   3.859   4.247
 2653SOL    HW1 7979   3.661   3.842   4.180
 2653SOL    HW2 7980   3.557   3.772   4.285
 2654SOL     OW 7981   3.142   4.651   4.396
 2654SOL    HW1 7982   3.202   4.570   4.398
 2654SOL    HW2 7983   3.182   4.720   4.336
 2655SOL     OW 7984   3.703   3.899   4.687
 2655SOL    HW1 7985   3.742   3.814   4.651
 2655SOL    HW2 7986   3.605   3.901   4.668
 2656SOL     OW 7987   2.125   4.050   4.444
 2656SOL    HW1 7988   2.046   4.101   4.410
 2656SOL    HW2 7989   2.116   4.035   4.542
 2657SOL     OW 7990   2.778   4.634   4.015
 2657SOL    HW1 7991   2.841   4.672   3.947
 2657SOL    HW2 7992   2.818   4.551   4.054
 2658SOL     OW 7993   1.937   4.069   3.757
 2658SOL    HW1 7994   1.845   4.041   3.728
 2658SOL    HW2 7995   1.968   4.146   3.701
 2659SOL     OW 7996   1.934   3.890   4.042
 2659SOL    HW1 7997   1.917   3.973   3.988
 2659SOL    HW2 7998   2.024   3.853   4.020
 2660SOL     OW 7999   3.536   4.607   4.978
 2660SOL    HW1 8000   3.509   4.518   4.941
 2660SOL    HW2 8001   3.537   4.675   4.905
 2661SOL     OW 8002   3.087   4.049   4.173
 2661SOL    HW1 8003   3.152   3.975   4.162
 2661SOL    HW2 8004   3.107   4.099   4.257
 2662SOL     OW 8005   2.456   4.469   4.376
 2662SOL    HW1 8006   2.506   4.554   4.357
 2662SOL    HW2 8007   2.368   4.471   4.328
 2663SOL     OW 8008   2.290   4.148   4.244
 2663SOL    HW1 8009   2.320   4.076   4.182
 2663SOL    HW2 8010   2.251   4.108   4.327
 2664SOL     OW 8011   3.214   3.776   3.892
 2664SOL    HW1 8012   3.249   3.735   3.808
 2664SOL    HW2 8013   3.124   3.738   3.912
 2665SOL     OW 8014   3.162   4.177   4.415
 2665SOL    HW1 8015   3.103   4.257   4.419
 2665SOL    HW2 8016   3.177   4.142   4.508
 2666SOL     OW 8017   3.455   3.945   4.606
 2666SOL    HW1 8018   3.371   3.944   4.660
 2666SOL    HW2 8019   3.457   4.028   4.550
 2667SOL     OW 8020   3.954   0.628   0.113
 2667SOL    HW1 8021   3.861   0.626   0.150
 2667SOL    HW2 8022   3.955   0.589   0.021
 2668SOL     OW 8023   3.949   0.275   0.996
 2668SOL    HW1 8024   3.984   0.258   1.088
 2668SOL    HW2 8025   3.861   0.230   0.984
 2669SOL     OW 8026   3.743   0.368   0.647
 2669SOL    HW1 8027   3.661   0.411   0.686
 2669SOL    HW2 8028   3.715   0.295   0.584
 2670SOL     OW 8029   4.293   1.275   1.165
 2670SOL    HW1 8030   4.200   1.268   1.128
 2670SOL    HW2 8031   4.304   1.364   1.209
 2671SOL     OW 8032   4.492   1.144   1.023
 2671SOL    HW1 8033   4.414   1.161   1.083
 2671SOL    HW2 8034   4.526   1.231   0.987
 2672SOL     OW 8035   4.574   0.798   1.823
 2672SOL    HW1 8036   4.570   0.874   1.888
 2672SOL    HW2 8037   4.596   0.834   1.732
 2673SOL     OW 8038   4.409   1.012   0.665
 2673SOL    HW1 8039   4.478   0.996   0.735
 2673SOL    HW2 8040   4.336   1.069   0.703
 2674SOL     OW 8041   4.410   1.161   1.803
 2674SOL    HW1 8042   4.470   1.240   1.817
 2674SOL    HW2 8043   4.324   1.192   1.762
 2675SOL     OW 8044   4.059   1.435   1.061
 2675SOL    HW1 8045   3.981   1.404   1.008
 2675SOL    HW2 8046   4.117   1.493   1.004
 2676SOL     OW 8047   4.162   0.392   1.499
 2676SOL    HW1 8048   4.244   0.336   1.508
 2676SOL    HW2 8049   4.081   0.334   1.503
 2677SOL     OW 8050   3.955   1.713   0.483
 2677SOL    HW1 8051   3.989   1.790   0.537
 2677SOL    HW2 8052   3.999   1.713   0.393
 2678SOL     OW 8053   3.954   1.434   0.538
 2678SOL    HW1 8054   3.928   1.530   0.538
 2678SOL    HW2 8055   3.883   1.380   0.583
 2679SOL     OW 8056   3.964   1.091   0.886
 2679SOL    HW1 8057   3.978   1.007   0.938
 2679SOL    HW2 8058   3.909   1.155   0.941
 2680SOL     OW 8059   4.344   1.786   1.439
 2680SOL    HW1 8060   4.252   1.769   1.474
 2680SOL    HW2 8061   4.372   1.878   1.465
 2681SOL     OW 8062   4.330   0.964   0.123
 2681SOL    HW1 8063   4.337   1.048   0.069
 2681SOL    HW2 8064   4.376   0.977   0.211
 2682SOL     OW 8065   3.846   0.643   0.563
 2682SOL    HW1 8066   3.801   0.555   0.580
 2682SOL    HW2 8067   3.845   0.697   0.647
 2683SOL     OW 8068   3.837   0.737   1.597
 2683SOL    HW1 8069   3.925   0.724   1.642
 2683SOL    HW2 8070   3.824   0.834   1.575
 2684SOL     OW 8071   4.337   1.365   0.726
 2684SOL    HW1 8072   4.288   1.278   0.735
 2684SOL    HW2 8073   4.314   1.408   0.639
 2685SOL     OW 8074   4.533   0.004   0.502
 2685SOL    HW1 8075   4.573   0.095   0.493
 2685SOL    HW2 8076   4.433   0.012   0.508
 2686SOL     OW 8077   3.921   0.976   1.264
 2686SOL    HW1 8078   4.010   0.931   1.250
 2686SOL    HW2 8079   3.848   0.911   1.245
 2687SOL     OW 8080   4.041   0.251   1.801
 2687SOL    HW1 8081   4.112   0.322   1.807
 2687SOL    HW2 8082   3.953   0.290   1.829
 2688SOL     OW 8083   4.322   0.729   0.270
 2688SOL    HW1 8084   4.346   0.798   0.202
 2688SOL    HW2 8085   4.244   0.762   0.324
 2689SOL     OW 8086   4.531   0.605   1.465
 2689SOL    HW1 8087   4.484   0.602   1.554
 2689SOL    HW2 8088   4.480   0.550   1.399
 2690SOL     OW 8089   4.715   0.410   1.242
 2690SOL    HW1 8090   4.638   0.444   1.296
 2690SOL    HW2 8091   4.681   0.359   1.163
 2691SOL     OW 8092   3.800   0.811   0.789
 2691SOL    HW1 8093   3.899   0.799   0.798
 2691SOL    HW2 8094   3.776   0.906   0.810
 2692SOL     OW 8095   3.854   1.821   1.571
 2692SOL    HW1 8096   3.844   1.806   1.670
 2692SOL    HW2 8097   3.768   1.857   1.535
 2693SOL     OW 8098   4.589   0.348   0.195
 2693SOL    HW1 8099   4.648   0.411   0.146
 2693SOL    HW2 8100   4.608   0.254   0.166
 2694SOL     OW 8101   4.274   0.196   0.885
 2694SOL    HW1 8102   4.269   0.191   0.985
 2694SOL    HW2 8103   4.276   0.292   0.856
 2695SOL     OW 8104   4.732   1.456   0.477
 2695SOL    HW1 8105   4.686   1.528   0.425
 2695SOL    HW2 8106   4.728   1.476   0.575
 2696SOL     OW 8107   4.075   1.801   0.853
 2696SOL    HW1 8108   4.125   1.715   0.859
 2696SOL    HW2 8109   4.140   1.878   0.850
 2697SOL     OW 8110   4.045   0.943   0.242
 2697SOL    HW1 8111   4.127   0.982   0.200
 2697SOL    HW2 8112   4.018   0.861   0.193
 2698SOL     OW 8113   4.185   1.266   1.727
 2698SOL    HW1 8114   4.135   1.267   1.641
 2698SOL    HW2 8115   4.122   1.248   1.803
 2699SOL     OW 8116   3.926   0.285   1.498
 2699SOL    HW1 8117   3.846   0.345   1.485
 2699SOL    HW2 8118   3.916   0.236   1.584
 2700SOL     OW 8119   4.188   1.743   0.323
 2700SOL    HW1 8120   4.221   1.782   0.409
 2700SOL    HW2 8121   4.264   1.736   0.258
 2701SOL     OW 8122   3.973   1.785   1.241
 2701SOL    HW1 8123   4.030   1.720   1.291
 2701SOL    HW2 8124   3.957   1.752   1.148
 2702SOL     OW 8125   4.106   0.700   0.480
 2702SOL    HW1 8126   4.151   0.610   0.477
 2702SOL    HW2 8127   4.012   0.689   0.513
 2703SOL     OW 8128   4.338   0.122   0.117
 2703SOL    HW1 8129   4.436   0.100   0.124
 2703SOL    HW2 8130   4.307   0.105   0.024
 2704SOL     OW 8131   4.505   0.264   1.749
 2704SOL    HW1 8132   4.572   0.203   1.792
 2704SOL    HW2 8133   4.432   0.283   1.814
 2705SOL     OW 8134   4.527   1.402   0.924
 2705SOL    HW1 8135   4.617   1.416   0.882
 2705SOL    HW2 8136   4.456   1.404   0.853
 2706SOL     OW 8137   4.646   0.503   0.899
 2706SOL    HW1 8138   4.621   0.494   0.803
 2706SOL    HW2 8139   4.694   0.421   0.930
 2707SOL     OW 8140   4.263   0.064   0.512
 2707SOL    HW1 8141   4.182   0.065   0.570
 2707SOL    HW2 8142   4.266   0.147   0.457
 2708SOL     OW 8143   4.021   0.035   0.171
 2708SOL    HW1 8144   4.070   0.119   0.150
 2708SOL    HW2 8145   4.083  -0.030   0.216
 2709SOL     OW 8146   4.951   1.570   0.793
 2709SOL    HW1 8147   4.972   1.644   0.728
 2709SOL    HW2 8148   5.019   1.570   0.866
 2710SOL     OW 8149   4.183   1.152   0.741
 2710SOL    HW1 8150   4.112   1.125   0.806
 2710SOL    HW2 8151   4.157   1.124   0.648
 2711SOL     OW 8152   3.802   0.556   1.386
 2711SOL    HW1 8153   3.894   0.555   1.345
 2711SOL    HW2 8154   3.796   0.630   1.453
 2712SOL     OW 8155   4.285   0.222   1.147
 2712SOL    HW1 8156   4.323   0.138   1.184
 2712SOL    HW2 8157   4.197   0.241   1.191
 2713SOL     OW 8158   4.212   1.385   0.174
 2713SOL    HW1 8159   4.125   1.370   0.221
 2713SOL    HW2 8160   4.195   1.411   0.079
 2714SOL     OW 8161   4.251   0.256   0.328
 2714SOL    HW1 8162   4.278   0.197   0.253
 2714SOL    HW2 8163   4.251   0.351   0.297
 2715SOL     OW 8164   4.639   0.089   1.402
 2715SOL    HW1 8165   4.664   0.069   1.307
 2715SOL    HW2 8166   4.711   0.145   1.444
 2716SOL     OW 8167   4.429   1.050   0.368
 2716SOL    HW1 8168   4.415   1.057   0.467
 2716SOL    HW2 8169   4.513   0.999   0.350
 2717SOL     OW 8170   4.134   0.813   1.251
 2717SOL    HW1 8171   4.220   0.825   1.301
 2717SOL    HW2 8172   4.092   0.726   1.278
 2718SOL     OW 8173   3.788   1.564   1.331
 2718SOL    HW1 8174   3.742   1.646   1.297
 2718SOL    HW2 8175   3.886   1.583   1.340
 2719SOL     OW 8176   4.091   1.100   0.501
 2719SOL    HW1 8177   4.084   1.183   0.445
 2719SOL    HW2 8178   4.095   1.020   0.441
 2720SOL     OW 8179   4.290   0.537   0.865
 2720SOL    HW1 8180   4.302   0.603   0.791
 2720SOL    HW2 8181   4.336   0.571   0.948
 2721SOL     OW 8182   4.078   1.510   1.329
 2721SOL    HW1 8183   4.057   1.466   1.242
 2721SOL    HW2 8184   4.175   1.536   1.332
 2722SOL     OW 8185   4.126   0.751   1.598
 2722SOL    HW1 8186   4.194   0.806   1.551
 2722SOL    HW2 8187   4.166   0.663   1.625
 2723SOL     OW 8188   4.228   0.050   1.740
 2723SOL    HW1 8189   4.186  -0.007   1.670
 2723SOL    HW2 8190   4.162   0.119   1.772
 2724SOL     OW 8191   4.297   0.870   1.029
 2724SOL    HW1 8192   4.341   0.959   1.020
 2724SOL    HW2 8193   4.234   0.870   1.106
 2725SOL     OW 8194   4.933   0.525   0.275
 2725SOL    HW1 8195   4.946   0.441   0.329
 2725SOL    HW2 8196   4.904   0.599   0.335
 2726SOL     OW 8197   4.031   0.213   1.231
 2726SOL    HW1 8198   4.008   0.250   1.321
 2726SOL    HW2 8199   4.001   0.118   1.225
 2727SOL     OW 8200   3.761   1.310   1.282
 2727SOL    HW1 8201   3.814   1.261   1.350
 2727SOL    HW2 8202   3.783   1.408   1.287
 2728SOL     OW 8203   4.456   0.634   1.064
 2728SOL    HW1 8204   4.515   0.608   0.988
 2728SOL    HW2 8205   4.428   0.730   1.053
 2729SOL     OW 8206   4.031   0.063   0.618
 2729SOL    HW1 8207   4.020   0.157   0.651
 2729SOL    HW2 8208   4.026   0.000   0.695
 2730SOL     OW 8209   4.747   0.766   0.966
 2730SOL    HW1 8210   4.762   0.787   1.062
 2730SOL    HW2 8211   4.717   0.671   0.957
 2731SOL     OW 8212   4.704   1.573   1.700
 2731SOL    HW1 8213   4.684   1.617   1.612
 2731SOL    HW2 8214   4.743   1.482   1.684
 2732SOL     OW 8215   4.074   0.898   1.804
 2732SOL    HW1 8216   4.150   0.942   1.852
 2732SOL    HW2 8217   4.109   0.851   1.722
 2733SOL     OW 8218   4.043   0.810   0.949
 2733SOL    HW1 8219   4.136   0.846   0.954
 2733SOL    HW2 8220   4.037   0.725   1.001
 2734SOL     OW 8221   4.063   0.509   1.006
 2734SOL    HW1 8222   4.011   0.426   0.989
 2734SOL    HW2 8223   4.140   0.514   0.942
 2735SOL     OW 8224   3.732   1.326   0.200
 2735SOL    HW1 8225   3.639   1.347   0.169
 2735SOL    HW2 8226   3.742   1.227   0.213
 2736SOL     OW 8227   3.812   1.801   0.927
 2736SOL    HW1 8228   3.770   1.715   0.900
 2736SOL    HW2 8229   3.906   1.804   0.893
 2737SOL     OW 8230   4.228   1.568   0.910
 2737SOL    HW1 8231   4.294   1.642   0.919
 2737SOL    HW2 8232   4.272   1.489   0.868
 2738SOL     OW 8233   4.726   0.796   1.238
 2738SOL    HW1 8234   4.767   0.764   1.324
 2738SOL    HW2 8235   4.630   0.769   1.235
 2739SOL     OW 8236   3.764   0.544   1.114
 2739SOL    HW1 8237   3.849   0.511   1.073
 2739SOL    HW2 8238   3.777   0.559   1.212
 2740SOL     OW 8239   3.913   0.520   1.722
 2740SOL    HW1 8240   3.972   0.480   1.652
 2740SOL    HW2 8241   3.855   0.591   1.681
 2741SOL     OW 8242   4.539   0.572   0.325
 2741SOL    HW1 8243   4.546   0.483   0.279
 2741SOL    HW2 8244   4.445   0.606   0.317
 2742SOL     OW 8245   3.976   1.564   1.744
 2742SOL    HW1 8246   3.946   1.621   1.820
 2742SOL    HW2 8247   3.969   1.467   1.770
 2743SOL     OW 8248   4.395   0.464   1.269
 2743SOL    HW1 8249   4.361   0.375   1.239
 2743SOL    HW2 8250   4.421   0.518   1.189
 2744SOL     OW 8251   4.197   0.500   0.191
 2744SOL    HW1 8252   4.258   0.580   0.195
 2744SOL    HW2 8253   4.102   0.531   0.198
 2745SOL     OW 8254   3.883   1.137   1.466
 2745SOL    HW1 8255   3.905   1.076   1.542
 2745SOL    HW2 8256   3.893   1.088   1.380
 2746SOL     OW 8257   3.807   1.258   1.022
 2746SOL    HW1 8258   3.802   1.257   1.122
 2746SOL    HW2 8259   3.724   1.217   0.984
 2747SOL     OW 8260   4.412   1.662   1.716
 2747SOL    HW1 8261   4.356   1.743   1.725
 2747SOL    HW2 8262   4.464   1.666   1.630
 2748SOL     OW 8263   4.627   0.086   0.133
 2748SOL    HW1 8264   4.678   0.087   0.047
 2748SOL    HW2 8265   4.683   0.044   0.204
 2749SOL     OW 8266   3.854   1.794   1.851
 2749SOL    HW1 8267   3.813   1.720   1.904
 2749SOL    HW2 8268   3.918   1.845   1.909
 2750SOL     OW 8269   4.554   1.273   1.422
 2750SOL    HW1 8270   4.549   1.306   1.517
 2750SOL    HW2 8271   4.468   1.292   1.376
 2751SOL     OW 8272   4.396   1.616   0.154
 2751SOL    HW1 8273   4.405   1.626   0.055
 2751SOL    HW2 8274   4.356   1.527   0.175
 2752SOL     OW 8275   3.987   0.326   0.720
 2752SOL    HW1 8276   3.908   0.377   0.686
 2752SOL    HW2 8277   3.978   0.311   0.818
 2753SOL     OW 8278   4.918   1.612   0.031
 2753SOL    HW1 8279   4.924   1.519   0.068
 2753SOL    HW2 8280   4.859   1.612  -0.049
 2754SOL     OW 8281   4.546   1.002   1.372
 2754SOL    HW1 8282   4.586   1.001   1.280
 2754SOL    HW2 8283   4.556   1.094   1.412
 2755SOL     OW 8284   4.096   1.288   1.490
 2755SOL    HW1 8285   4.083   1.381   1.456
 2755SOL    HW2 8286   4.012   1.236   1.477
 2756SOL     OW 8287   4.314   1.487   0.491
 2756SOL    HW1 8288   4.356   1.429   0.421
 2756SOL    HW2 8289   4.270   1.566   0.447
 2757SOL     OW 8290   3.979   1.348   0.290
 2757SOL    HW1 8291   3.883   1.349   0.263
 2757SOL    HW2 8292   3.991   1.401   0.374
 2758SOL     OW 8293   3.829   1.013   1.726
 2758SOL    HW1 8294   3.752   0.980   1.780
 2758SOL    HW2 8295   3.914   0.983   1.768
 2759SOL     OW 8296   4.396   0.203   1.489
 2759SOL    HW1 8297   4.486   0.187   1.449
 2759SOL    HW2 8298   4.404   0.208   1.588
 2760SOL     OW 8299   4.337   0.842   1.431
 2760SOL    HW1 8300   4.393   0.923   1.414
 2760SOL    HW2 8301   4.396   0.762   1.434
 2761SOL     OW 8302   4.440   0.565   1.708
 2761SOL    HW1 8303   4.459   0.630   1.782
 2761SOL    HW2 8304   4.500   0.485   1.717
 2762SOL     OW 8305   4.114   1.741   1.560
 2762SOL    HW1 8306   4.023   1.782   1.558
 2762SOL    HW2 8307   4.107   1.647   1.592
 2763SOL     OW 8308   4.949   0.325   0.449
 2763SOL    HW1 8309   5.014   0.251   0.438
 2763SOL    HW2 8310   4.969   0.375   0.533
 2764SOL     OW 8311   4.318   0.745   0.652
 2764SOL    HW1 8312   4.368   0.830   0.633
 2764SOL    HW2 8313   4.230   0.747   0.604
 2765SOL     OW 8314   4.385   1.790   0.953
 2765SOL    HW1 8315   4.339   1.878   0.940
 2765SOL    HW2 8316   4.484   1.802   0.946
 2766SOL     OW 8317   4.583   0.956   0.861
 2766SOL    HW1 8318   4.637   0.887   0.909
 2766SOL    HW2 8319   4.551   1.025   0.927
 2767SOL     OW 8320   4.807   0.984   0.087
 2767SOL    HW1 8321   4.784   1.037   0.005
 2767SOL    HW2 8322   4.888   0.928   0.068
 2768SOL     OW 8323   3.945   1.314   1.844
 2768SOL    HW1 8324   3.880   1.241   1.823
 2768SOL    HW2 8325   3.949   1.328   1.942
 2769SOL     OW 8326   3.803   1.240   0.653
 2769SOL    HW1 8327   3.802   1.193   0.741
 2769SOL    HW2 8328   3.885   1.212   0.602
 2770SOL     OW 8329   4.396   1.391   1.624
 2770SOL    HW1 8330   4.318   1.341   1.662
 2770SOL    HW2 8331   4.393   1.486   1.655
 2771SOL     OW 8332   4.152   0.424   0.520
 2771SOL    HW1 8333   4.182   0.352   0.458
 2771SOL    HW2 8334   4.113   0.384   0.603
 2772SOL     OW 8335   4.041   0.547   1.280
 2772SOL    HW1 8336   4.079   0.488   1.352
 2772SOL    HW2 8337   4.081   0.521   1.192
 2773SOL     OW 8338   4.536   1.586   0.687
 2773SOL    HW1 8339   4.568   1.596   0.593
 2773SOL    HW2 8340   4.457   1.524   0.689
 2774SOL     OW 8341   4.494   1.330   0.301
 2774SOL    HW1 8342   4.448   1.243   0.318
 2774SOL    HW2 8343   4.585   1.327   0.342
 2775SOL     OW 8344   4.342   1.567   1.284
 2775SOL    HW1 8345   4.337   1.649   1.341
 2775SOL    HW2 8346   4.431   1.564   1.239
 2776SOL     OW 8347   3.763   1.077   0.300
 2776SOL    HW1 8348   3.862   1.066   0.291
 2776SOL    HW2 8349   3.723   0.991   0.332
 2777SOL     OW 8350   4.599   1.646   0.337
 2777SOL    HW1 8351   4.522   1.611   0.283
 2777SOL    HW2 8352   4.567   1.717   0.399
 2778SOL     OW 8353   3.954   0.628   1.975
 2778SOL    HW1 8354   3.861   0.626   2.012
 2778SOL    HW2 8355   3.955   0.589   1.883
 2779SOL     OW 8356   3.949   0.275   2.858
 2779SOL    HW1 8357   3.984   0.258   2.950
 2779SOL    HW2 8358   3.861   0.230   2.846
 2780SOL     OW 8359   3.743   0.368   2.509
 2780SOL    HW1 8360   3.661   0.411   2.548
 2780SOL    HW2 8361   3.715   0.295   2.446
 2781SOL     OW 8362   4.293   1.275   3.027
 2781SOL    HW1 8363   4.200   1.268   2.990
 2781SOL    HW2 8364   4.304   1.364   3.071
 2782SOL     OW 8365   4.492   1.144   2.885
 2782SOL    HW1 8366   4.414   1.161   2.945
 2782SOL    HW2 8367   4.526   1.231   2.849
 2783SOL     OW 8368   4.574   0.798   3.685
 2783SOL    HW1 8369   4.570   0.874   3.750
 2783SOL    HW2 8370   4.596   0.834   3.594
 2784SOL     OW 8371   4.409   1.012   2.527
 2784SOL    HW1 8372   4.478   0.996   2.597
 2784SOL    HW2 8373   4.336   1.069   2.565
 2785SOL     OW 8374   4.410   1.161   3.665
 2785SOL    HW1 8375   4.470   1.240   3.679
 2785SOL    HW2 8376   4.324   1.192   3.624
 2786SOL     OW 8377   4.059   1.435   2.923
 2786SOL    HW1 8378   3.981   1.404   2.870
 2786SOL    HW2 8379   4.117   1.493   2.866
 2787SOL     OW 8380   4.162   0.392   3.361
 2787SOL    HW1 8381   4.244   0.336   3.370
 2787SOL    HW2 8382   4.081   0.334   3.365
 2788SOL     OW 8383   3.955   1.713   2.345
 2788SOL    HW1 8384   3.989   1.790   2.399
 2788SOL    HW2 8385   3.999   1.713   2.255
 2789SOL     OW 8386   3.954   1.434   2.400
 2789SOL    HW1 8387   3.928   1.530   2.400
 2789SOL    HW2 8388   3.883   1.380   2.445
 2790SOL     OW 8389   3.964   1.091   2.748
 2790SOL    HW1 8390   3.978   1.007   2.800
 2790SOL    HW2 8391   3.909   1.155   2.803
 2791SOL     OW 8392   4.344   1.786   3.301
 2791SOL    HW1 8393   4.252   1.769   3.336
 2791SOL    HW2 8394   4.372   1.878   3.327
 2792SOL     OW 8395   4.330   0.964   1.985
 2792SOL    HW1 8396   4.337   1.048   1.931
 2792SOL    HW2 8397   4.376   0.977   2.073
 2793SOL     OW 8398   3.846   0.643   2.425
 2793SOL    HW1 8399   3.801   0.555   2.442
 2793SOL    HW2 8400   3.845   0.697   2.509
 2794SOL     OW 8401   3.751   1.596   1.979
 2794SOL    HW1 8402   3.732   1.500   2.000
 2794SOL    HW2 8403   3.718   1.654   2.054
 2795SOL     OW 8404   3.837   0.737   3.459
 2795SOL    HW1 8405   3.925   0.724   3.504
 2795SOL    HW2 8406   3.824   0.834   3.437
 2796SOL     OW 8407   4.337   1.365   2.588
 2796SOL    HW1 8408   4.288   1.278   2.597
 2796SOL    HW2 8409   4.314   1.408   2.501
 2797SOL     OW 8410   4.533   0.004   2.364
 2797SOL    HW1 8411   4.573   0.095   2.355
 2797SOL    HW2 8412   4.433   0.012   2.370
 2798SOL     OW 8413   3.921   0.976   3.126
 2798SOL    HW1 8414   4.010   0.931   3.112
 2798SOL    HW2 8415   3.848   0.911   3.107
 2799SOL     OW 8416   4.041   0.251   3.663
 2799SOL    HW1 8417   4.112   0.322   3.669
 2799SOL    HW2 8418   3.953   0.290   3.691
 2800SOL     OW 8419   4.322   0.729   2.132
 2800SOL    HW1 8420   4.346   0.798   2.064
 2800SOL    HW2 8421   4.244   0.762   2.186
 2801SOL     OW 8422   4.531   0.605   3.327
 2801SOL    HW1 8423   4.484   0.602   3.416
 2801SOL    HW2 8424   4.480   0.550   3.261
 2802SOL     OW 8425   4.715   0.410   3.104
 2802SOL    HW1 8426   4.638   0.444   3.158
 2802SOL    HW2 8427   4.681   0.359   3.025
 2803SOL     OW 8428   3.800   0.811   2.651
 2803SOL    HW1 8429   3.899   0.799   2.660
 2803SOL    HW2 8430   3.776   0.906   2.672
 2804SOL     OW 8431   3.854   1.821   3.433
 2804SOL    HW1 8432   3.844   1.806   3.532
 2804SOL    HW2 8433   3.768   1.857   3.397
 2805SOL     OW 8434   4.589   0.348   2.057
 2805SOL    HW1 8435   4.648   0.411   2.008
 2805SOL    HW2 8436   4.608   0.254   2.028
 2806SOL     OW 8437   4.274   0.196   2.747
 2806SOL    HW1 8438   4.269   0.191   2.847
 2806SOL    HW2 8439   4.276   0.292   2.718
 2807SOL     OW 8440   4.732   1.456   2.339
 2807SOL    HW1 8441   4.686   1.528   2.287
 2807SOL    HW2 8442   4.728   1.476   2.437
 2808SOL     OW 8443   4.075   1.801   2.715
 2808SOL    HW1 8444   4.125   1.715   2.721
 2808SOL    HW2 8445   4.140   1.878   2.712
 2809SOL     OW 8446   4.045   0.943   2.104
 2809SOL    HW1 8447   4.127   0.982   2.062
 2809SOL    HW2 8448   4.018   0.861   2.055
 2810SOL     OW 8449   4.185   1.266   3.589
 2810SOL    HW1 8450   4.135   1.267   3.503
 2810SOL    HW2 8451   4.122   1.248   3.665
 2811SOL     OW 8452   3.926   0.285   3.360
 2811SOL    HW1 8453   3.846   0.345   3.347
 2811SOL    HW2 8454   3.916   0.236   3.446
 2812SOL     OW 8455   4.188   1.743   2.185
 2812SOL    HW1 8456   4.221   1.782   2.271
 2812SOL    HW2 8457   4.264   1.736   2.120
 2813SOL     OW 8458   3.973   1.785   3.103
 2813SOL    HW1 8459   4.030   1.720   3.153
 2813SOL    HW2 8460   3.957   1.752   3.010
 2814SOL     OW 8461   4.106   0.700   2.342
 2814SOL    HW1 8462   4.151   0.610   2.339
 2814SOL    HW2 8463   4.012   0.689   2.375
 2815SOL     OW 8464   4.338   0.122   1.979
 2815SOL    HW1 8465   4.436   0.100   1.986
 2815SOL    HW2 8466   4.307   0.105   1.886
 2816SOL     OW 8467   4.505   0.264   3.611
 2816SOL    HW1 8468   4.572   0.203   3.654
 2816SOL    HW2 8469   4.432   0.283   3.676
 2817SOL     OW 8470   4.527   1.402   2.786
 2817SOL    HW1 8471   4.617   1.416   2.744
 2817SOL    HW2 8472   4.456   1.404   2.715
 2818SOL     OW 8473   4.646   0.503   2.761
 2818SOL    HW1 8474   4.621   0.494   2.665
 2818SOL    HW2 8475   4.694   0.421   2.792
 2819SOL     OW 8476   4.263   0.064   2.374
 2819SOL    HW1 8477   4.182   0.065   2.432
 2819SOL    HW2 8478   4.266   0.147   2.319
 2820SOL     OW 8479   4.021   0.035   2.033
 2820SOL    HW1 8480   4.070   0.119   2.012
 2820SOL    HW2 8481   4.083  -0.030   2.078
 2821SOL     OW 8482   4.951   1.570   2.655
 2821SOL    HW1 8483   4.972   1.644   2.590
 2821SOL    HW2 8484   5.019   1.570   2.728
 2822SOL     OW 8485   4.183   1.152   2.603
 2822SOL    HW1 8486   4.112   1.125   2.668
 2822SOL    HW2 8487   4.157   1.124   2.510
 2823SOL     OW 8488   3.802   0.556   3.248
 2823SOL    HW1 8489   3.894   0.555   3.207
 2823SOL    HW2 8490   3.796   0.630   3.315
 2824SOL     OW 8491   4.285   0.222   3.009
 2824SOL    HW1 8492   4.323   0.138   3.046
 2824SOL    HW2 8493   4.197   0.241   3.053
 2825SOL     OW 8494   4.212   1.385   2.036
 2825SOL    HW1 8495   4.125   1.370   2.083
 2825SOL    HW2 8496   4.195   1.411   1.941
 2826SOL     OW 8497   4.251   0.256   2.190
 2826SOL    HW1 8498   4.278   0.197   2.115
 2826SOL    HW2 8499   4.251   0.351   2.159
 2827SOL     OW 8500   4.639   0.089   3.264
 2827SOL    HW1 8501   4.664   0.069   3.169
 2827SOL    HW2 8502   4.711   0.145   3.306
 2828SOL     OW 8503   4.429   1.050   2.230
 2828SOL    HW1 8504   4.415   1.057   2.329
 2828SOL    HW2 8505   4.513   0.999   2.212
 2829SOL     OW 8506   4.134   0.813   3.113
 2829SOL    HW1 8507   4.220   0.825   3.163
 2829SOL    HW2 8508   4.092   0.726   3.140
 2830SOL     OW 8509   3.788   1.564   3.193
 2830SOL    HW1 8510   3.742   1.646   3.159
 2830SOL    HW2 8511   3.886   1.583   3.202
 2831SOL     OW 8512   4.091   1.100   2.363
 2831SOL    HW1 8513   4.084   1.183   2.307
 2831SOL    HW2 8514   4.095   1.020   2.303
 2832SOL     OW 8515   4.290   0.537   2.727
 2832SOL    HW1 8516   4.302   0.603   2.653
 2832SOL    HW2 8517   4.336   0.571   2.810
 2833SOL     OW 8518   4.078   1.510   3.191
 2833SOL    HW1 8519   4.057   1.466   3.104
 2833SOL    HW2 8520   4.175   1.536   3.194
 2834SOL     OW 8521   4.126   0.751   3.460
 2834SOL    HW1 8522   4.194   0.806   3.413
 2834SOL    HW2 8523   4.166   0.663   3.487
 2835SOL     OW 8524   4.228   0.050   3.602
 2835SOL    HW1 8525   4.186  -0.007   3.532
 2835SOL    HW2 8526   4.162   0.119   3.634
 2836SOL     OW 8527   4.297   0.870   2.891
 2836SOL    HW1 8528   4.341   0.959   2.882
 2836SOL    HW2 8529   4.234   0.870   2.968
 2837SOL     OW 8530   4.933   0.525   2.137
 2837SOL    HW1 8531   4.946   0.441   2.191
 2837SOL    HW2 8532   4.904   0.599   2.197
 2838SOL     OW 8533   4.031   0.213   3.093
 2838SOL    HW1 8534   4.008   0.250   3.183
 2838SOL    HW2 8535   4.001   0.118   3.087
 2839SOL     OW 8536   3.761   1.310   3.144
 2839SOL    HW1 8537   3.814   1.261   3.212
 2839SOL    HW2 8538   3.783   1.408   3.149
 2840SOL     OW 8539   4.456   0.634   2.926
 2840SOL    HW1 8540   4.515   0.608   2.850
 2840SOL    HW2 8541   4.428   0.730   2.915
 2841SOL     OW 8542   4.031   0.063   2.480
 2841SOL    HW1 8543   4.020   0.157   2.513
 2841SOL    HW2 8544   4.026   0.000   2.557
 2842SOL     OW 8545   4.747   0.766   2.828
 2842SOL    HW1 8546   4.762   0.787   2.924
 2842SOL    HW2 8547   4.717   0.671   2.819
 2843SOL     OW 8548   4.704   1.573   3.562
 2843SOL    HW1 8549   4.684   1.617   3.474
 2843SOL    HW2 8550   4.743   1.482   3.546
 2844SOL     OW 8551   4.074   0.898   3.666
 2844SOL    HW1 8552   4.150   0.942   3.714
 2844SOL    HW2 8553   4.109   0.851   3.584
 2845SOL     OW 8554   4.043   0.810   2.811
 2845SOL    HW1 8555   4.136   0.846   2.816
 2845SOL    HW2 8556   4.037   0.725   2.863
 2846SOL     OW 8557   4.063   0.509   2.868
 2846SOL    HW1 8558   4.011   0.426   2.851
 2846SOL    HW2 8559   4.140   0.514   2.804
 2847SOL     OW 8560   3.732   1.326   2.062
 2847SOL    HW1 8561   3.639   1.347   2.031
 2847SOL    HW2 8562   3.742   1.227   2.075
 2848SOL     OW 8563   3.812   1.801   2.789
 2848SOL    HW1 8564   3.770   1.715   2.762
 2848SOL    HW2 8565   3.906   1.804   2.755
 2849SOL     OW 8566   4.228   1.568   2.772
 2849SOL    HW1 8567   4.294   1.642   2.781
 2849SOL    HW2 8568   4.272   1.489   2.730
 2850SOL     OW 8569   4.726   0.796   3.100
 2850SOL    HW1 8570   4.767   0.764   3.186
 2850SOL    HW2 8571   4.630   0.769   3.097
 2851SOL     OW 8572   3.764   0.544   2.976
 2851SOL    HW1 8573   3.849   0.511   2.935
 2851SOL    HW2 8574   3.777   0.559   3.074
 2852SOL     OW 8575   3.913   0.520   3.584
 2852SOL    HW1 8576   3.972   0.480   3.514
 2852SOL    HW2 8577   3.855   0.591   3.543
 2853SOL     OW 8578   4.539   0.572   2.187
 2853SOL    HW1 8579   4.546   0.483   2.141
 2853SOL    HW2 8580   4.445   0.606   2.179
 2854SOL     OW 8581   3.976   1.564   3.606
 2854SOL    HW1 8582   3.946   1.621   3.682
 2854SOL    HW2 8583   3.969   1.467   3.632
 2855SOL     OW 8584   4.395   0.464   3.131
 2855SOL    HW1 8585   4.361   0.375   3.101
 2855SOL    HW2 8586   4.421   0.518   3.051
 2856SOL     OW 8587   4.197   0.500   2.053
 2856SOL    HW1 8588   4.258   0.580   2.057
 2856SOL    HW2 8589   4.102   0.531   2.060
 2857SOL     OW 8590   3.883   1.137   3.328
 2857SOL    HW1 8591   3.905   1.076   3.404
 2857SOL    HW2 8592   3.893   1.088   3.242
 2858SOL     OW 8593   3.807   1.258   2.884
 2858SOL    HW1 8594   3.802   1.257   2.984
 2858SOL    HW2 8595   3.724   1.217   2.846
 2859SOL     OW 8596   4.412   1.662   3.578
 2859SOL    HW1 8597   4.356   1.743   3.587
 2859SOL    HW2 8598   4.464   1.666   3.492
 2860SOL     OW 8599   4.627   0.086   1.995
 2860SOL    HW1 8600   4.678   0.087   1.909
 2860SOL    HW2 8601   4.683   0.044   2.066
 2861SOL     OW 8602   3.854   1.794   3.713
 2861SOL    HW1 8603   3.813   1.720   3.766
 2861SOL    HW2 8604   3.918   1.845   3.771
 2862SOL     OW 8605   4.554   1.273   3.284
 2862SOL    HW1 8606   4.549   1.306   3.379
 2862SOL    HW2 8607   4.468   1.292   3.238
 2863SOL     OW 8608   4.396   1.616   2.016
 2863SOL    HW1 8609   4.405   1.626   1.917
 2863SOL    HW2 8610   4.356   1.527   2.037
 2864SOL     OW 8611   3.987   0.326   2.582
 2864SOL    HW1 8612   3.908   0.377   2.548
 2864SOL    HW2 8613   3.978   0.311   2.680
 2865SOL     OW 8614   4.546   1.002   3.234
 2865SOL    HW1 8615   4.586   1.001   3.142
 2865SOL    HW2 8616   4.556   1.094   3.274
 2866SOL     OW 8617   4.096   1.288   3.352
 2866SOL    HW1 8618   4.083   1.381   3.318
 2866SOL    HW2 8619   4.012   1.236   3.339
 2867SOL     OW 8620   4.314   1.487   2.353
 2867SOL    HW1 8621   4.356   1.429   2.283
 2867SOL    HW2 8622   4.270   1.566   2.309
 2868SOL     OW 8623   3.979   1.348   2.152
 2868SOL    HW1 8624   3.883   1.349   2.125
 2868SOL    HW2 8625   3.991   1.401   2.236
 2869SOL     OW 8626   3.829   1.013   3.588
 2869SOL    HW1 8627   3.752   0.980   3.642
 2869SOL    HW2 8628   3.914   0.983   3.630
 2870SOL     OW 8629   4.396   0.203   3.351
 2870SOL    HW1 8630   4.486   0.187   3.311
 2870SOL    HW2 8631   4.404   0.208   3.450
 2871SOL     OW 8632   3.799   0.345   1.895
 2871SOL    HW1 8633   3.707   0.317   1.866
 2871SOL    HW2 8634   3.830   0.422   1.839
 2872SOL     OW 8635   3.796   0.166   2.180
 2872SOL    HW1 8636   3.779   0.249   2.126
 2872SOL    HW2 8637   3.886   0.129   2.158
 2873SOL     OW 8638   4.337   0.842   3.293
 2873SOL    HW1 8639   4.393   0.923   3.276
 2873SOL    HW2 8640   4.396   0.762   3.296
 2874SOL     OW 8641   4.440   0.565   3.570
 2874SOL    HW1 8642   4.459   0.630   3.644
 2874SOL    HW2 8643   4.500   0.485   3.579
 2875SOL     OW 8644   4.114   1.741   3.422
 2875SOL    HW1 8645   4.023   1.782   3.420
 2875SOL    HW2 8646   4.107   1.647   3.454
 2876SOL     OW 8647   4.949   0.325   2.311
 2876SOL    HW1 8648   5.014   0.251   2.300
 2876SOL    HW2 8649   4.969   0.375   2.395
 2877SOL     OW 8650   4.318   0.745   2.514
 2877SOL    HW1 8651   4.368   0.830   2.495
 2877SOL    HW2 8652   4.230   0.747   2.466
 2878SOL     OW 8653   4.385   1.790   2.815
 2878SOL    HW1 8654   4.339   1.878   2.802
 2878SOL    HW2 8655   4.484   1.802   2.808
 2879SOL     OW 8656   4.583   0.956   2.723
 2879SOL    HW1 8657   4.637   0.887   2.771
 2879SOL    HW2 8658   4.551   1.025   2.789
 2880SOL     OW 8659   3.945   1.314   3.706
 2880SOL    HW1 8660   3.880   1.241   3.685
 2880SOL    HW2 8661   3.949   1.328   3.804
 2881SOL     OW 8662   3.803   1.240   2.515
 2881SOL    HW1 8663   3.802   1.193   2.603
 2881SOL    HW2 8664   3.885   1.212   2.464
 2882SOL     OW 8665   4.396   1.391   3.486
 2882SOL    HW1 8666   4.318   1.341   3.524
 2882SOL    HW2 8667   4.393   1.486   3.517
 2883SOL     OW 8668   4.152   0.424   2.382
 2883SOL    HW1 8669   4.182   0.352   2.320
 2883SOL    HW2 8670   4.113   0.384   2.465
 2884SOL     OW 8671   4.041   0.547   3.142
 2884SOL    HW1 8672   4.079   0.488   3.214
 2884SOL    HW2 8673   4.081   0.521   3.054
 2885SOL     OW 8674   4.536   1.586   2.549
 2885SOL    HW1 8675   4.568   1.596   2.455
 2885SOL    HW2 8676   4.457   1.524   2.551
 2886SOL     OW 8677   4.494   1.330   2.163
 2886SOL    HW1 8678   4.448   1.243   2.180
 2886SOL    HW2 8679   4.585   1.327   2.204
 2887SOL     OW 8680   4.342   1.567   3.146
 2887SOL    HW1 8681   4.337   1.649   3.203
 2887SOL    HW2 8682   4.431   1.564   3.101
 2888SOL     OW 8683   3.763   1.077   2.162
 2888SOL    HW1 8684   3.862   1.066   2.153
 2888SOL    HW2 8685   3.723   0.991   2.194
 2889SOL     OW 8686   4.599   1.646   2.199
 2889SOL    HW1 8687   4.522   1.611   2.145
 2889SOL    HW2 8688   4.567   1.717   2.261
 2890SOL     OW 8689   3.954   0.628   3.837
 2890SOL    HW1 8690   3.861   0.626   3.874
 2890SOL    HW2 8691   3.955   0.589   3.745
 2891SOL     OW 8692   3.949   0.275   4.720
 2891SOL    HW1 8693   3.984   0.258   4.812
 2891SOL    HW2 8694   3.861   0.230   4.708
 2892SOL     OW 8695   3.743   0.368   4.371
 2892SOL    HW1 8696   3.661   0.411   4.410
 2892SOL    HW2 8697   3.715   0.295   4.308
 2893SOL     OW 8698   4.492   1.144   4.747
 2893SOL    HW1 8699   4.414   1.161   4.807
 2893SOL    HW2 8700   4.526   1.231   4.711
 2894SOL     OW 8701   4.409   1.012   4.389
 2894SOL    HW1 8702   4.478   0.996   4.459
 2894SOL    HW2 8703   4.336   1.069   4.427
 2895SOL     OW 8704   3.955   1.713   4.207
 2895SOL    HW1 8705   3.989   1.790   4.261
 2895SOL    HW2 8706   3.999   1.713   4.117
 2896SOL     OW 8707   3.954   1.434   4.262
 2896SOL    HW1 8708   3.928   1.530   4.262
 2896SOL    HW2 8709   3.883   1.380   4.307
 2897SOL     OW 8710   3.964   1.091   4.610
 2897SOL    HW1 8711   3.978   1.007   4.662
 2897SOL    HW2 8712   3.909   1.155   4.665
 2898SOL     OW 8713   4.330   0.964   3.847
 2898SOL    HW1 8714   4.337   1.048   3.793
 2898SOL    HW2 8715   4.376   0.977   3.935
 2899SOL     OW 8716   3.846   0.643   4.287
 2899SOL    HW1 8717   3.801   0.555   4.304
 2899SOL    HW2 8718   3.845   0.697   4.371
 2900SOL     OW 8719   3.751   1.596   3.841
 2900SOL    HW1 8720   3.732   1.500   3.862
 2900SOL    HW2 8721   3.718   1.654   3.916
 2901SOL     OW 8722   4.337   1.365   4.450
 2901SOL    HW1 8723   4.288   1.278   4.459
 2901SOL    HW2 8724   4.314   1.408   4.363
 2902SOL     OW 8725   4.533   0.004   4.226
 2902SOL    HW1 8726   4.573   0.095   4.217
 2902SOL    HW2 8727   4.433   0.012   4.232
 2903SOL     OW 8728   4.322   0.729   3.994
 2903SOL    HW1 8729   4.346   0.798   3.926
 2903SOL    HW2 8730   4.244   0.762   4.048
 2904SOL     OW 8731   3.800   0.811   4.513
 2904SOL    HW1 8732   3.899   0.799   4.522
 2904SOL    HW2 8733   3.776   0.906   4.534
 2905SOL     OW 8734   4.589   0.348   3.919
 2905SOL    HW1 8735   4.648   0.411   3.870
 2905SOL    HW2 8736   4.608   0.254   3.890
 2906SOL     OW 8737   4.732   1.456   4.201
 2906SOL    HW1 8738   4.686   1.528   4.149
 2906SOL    HW2 8739   4.728   1.476   4.299
 2907SOL     OW 8740   4.075   1.801   4.577
 2907SOL    HW1 8741   4.125   1.715   4.583
 2907SOL    HW2 8742   4.140   1.878   4.574
 2908SOL     OW 8743   4.045   0.943   3.966
 2908SOL    HW1 8744   4.127   0.982   3.924
 2908SOL    HW2 8745   4.018   0.861   3.917
 2909SOL     OW 8746   4.188   1.743   4.047
 2909SOL    HW1 8747   4.221   1.782   4.133
 2909SOL    HW2 8748   4.264   1.736   3.982
 2910SOL     OW 8749   4.106   0.700   4.204
 2910SOL    HW1 8750   4.151   0.610   4.201
 2910SOL    HW2 8751   4.012   0.689   4.237
 2911SOL     OW 8752   4.338   0.122   3.841
 2911SOL    HW1 8753   4.436   0.100   3.848
 2911SOL    HW2 8754   4.307   0.105   3.748
 2912SOL     OW 8755   4.527   1.402   4.648
 2912SOL    HW1 8756   4.617   1.416   4.606
 2912SOL    HW2 8757   4.456   1.404   4.577
 2913SOL     OW 8758   4.263   0.064   4.236
 2913SOL    HW1 8759   4.182   0.065   4.294
 2913SOL    HW2 8760   4.266   0.147   4.181
 2914SOL     OW 8761   4.021   0.035   3.895
 2914SOL    HW1 8762   4.070   0.119   3.874
 2914SOL    HW2 8763   4.083  -0.030   3.940
 2915SOL     OW 8764   4.951   1.570   4.517
 2915SOL    HW1 8765   4.972   1.644   4.452
 2915SOL    HW2 8766   5.019   1.570   4.590
 2916SOL     OW 8767   4.183   1.152   4.465
 2916SOL    HW1 8768   4.112   1.125   4.530
 2916SOL    HW2 8769   4.157   1.124   4.372
 2917SOL     OW 8770   4.212   1.385   3.898
 2917SOL    HW1 8771   4.125   1.370   3.945
 2917SOL    HW2 8772   4.195   1.411   3.803
 2918SOL     OW 8773   4.251   0.256   4.052
 2918SOL    HW1 8774   4.278   0.197   3.977
 2918SOL    HW2 8775   4.251   0.351   4.021
 2919SOL     OW 8776   4.429   1.050   4.092
 2919SOL    HW1 8777   4.415   1.057   4.191
 2919SOL    HW2 8778   4.513   0.999   4.074
 2920SOL     OW 8779   4.091   1.100   4.225
 2920SOL    HW1 8780   4.084   1.183   4.169
 2920SOL    HW2 8781   4.095   1.020   4.165
 2921SOL     OW 8782   4.290   0.537   4.589
 2921SOL    HW1 8783   4.302   0.603   4.515
 2921SOL    HW2 8784   4.336   0.571   4.672
 2922SOL     OW 8785   4.933   0.525   3.999
 2922SOL    HW1 8786   4.946   0.441   4.053
 2922SOL    HW2 8787   4.904   0.599   4.059
 2923SOL     OW 8788   4.456   0.634   4.788
 2923SOL    HW1 8789   4.515   0.608   4.712
 2923SOL    HW2 8790   4.428   0.730   4.777
 2924SOL     OW 8791   4.031   0.063   4.342
 2924SOL    HW1 8792   4.020   0.157   4.375
 2924SOL    HW2 8793   4.026   0.000   4.419
 2925SOL     OW 8794   4.747   0.766   4.690
 2925SOL    HW1 8795   4.762   0.787   4.786
 2925SOL    HW2 8796   4.717   0.671   4.681
 2926SOL     OW 8797   4.043   0.810   4.673
 2926SOL    HW1 8798   4.136   0.846   4.678
 2926SOL    HW2 8799   4.037   0.725   4.725
 2927SOL     OW 8800   3.732   1.326   3.924
 2927SOL    HW1 8801   3.639   1.347   3.893
 2927SOL    HW2 8802   3.742   1.227   3.937
 2928SOL     OW 8803   3.812   1.801   4.651
 2928SOL    HW1 8804   3.770   1.715   4.624
 2928SOL    HW2 8805   3.906   1.804   4.617
 2929SOL     OW 8806   4.228   1.568   4.634
 2929SOL    HW1 8807   4.294   1.642   4.643
 2929SOL    HW2 8808   4.272   1.489   4.592
 2930SOL     OW 8809   4.726   0.796   4.962
 2930SOL    HW1 8810   4.767   0.764   5.048
 2930SOL    HW2 8811   4.630   0.769   4.959
 2931SOL     OW 8812   4.539   0.572   4.049
 2931SOL    HW1 8813   4.546   0.483   4.003
 2931SOL    HW2 8814   4.445   0.606   4.041
 2932SOL     OW 8815   4.197   0.500   3.915
 2932SOL    HW1 8816   4.258   0.580   3.919
 2932SOL    HW2 8817   4.102   0.531   3.922
 2933SOL     OW 8818   4.627   0.086   3.857
 2933SOL    HW1 8819   4.678   0.087   3.771
 2933SOL    HW2 8820   4.683   0.044   3.928
 2934SOL     OW 8821   4.396   1.616   3.878
 2934SOL    HW1 8822   4.405   1.626   3.779
 2934SOL    HW2 8823   4.356   1.527   3.899
 2935SOL     OW 8824   3.987   0.326   4.444
 2935SOL    HW1 8825   3.908   0.377   4.410
 2935SOL    HW2 8826   3.978   0.311   4.542
 2936SOL     OW 8827   4.314   1.487   4.215
 2936SOL    HW1 8828   4.356   1.429   4.145
 2936SOL    HW2 8829   4.270   1.566   4.171
 2937SOL     OW 8830   3.979   1.348   4.014
 2937SOL    HW1 8831   3.883   1.349   3.987
 2937SOL    HW2 8832   3.991   1.401   4.098
 2938SOL     OW 8833   3.799   0.345   3.757
 2938SOL    HW1 8834   3.707   0.317   3.728
 2938SOL    HW2 8835   3.830   0.422   3.701
 2939SOL     OW 8836   3.796   0.166   4.042
 2939SOL    HW1 8837   3.779   0.249   3.988
 2939SOL    HW2 8838   3.886   0.129   4.020
 2940SOL     OW 8839   4.949   0.325   4.173
 2940SOL    HW1 8840   5.014   0.251   4.162
 2940SOL    HW2 8841   4.969   0.375   4.257
 2941SOL     OW 8842   4.318   0.745   4.376
 2941SOL    HW1 8843   4.368   0.830   4.357
 2941SOL    HW2 8844   4.230   0.747   4.328
 2942SOL     OW 8845   4.385   1.790   4.677
 2942SOL    HW1 8846   4.339   1.878   4.664
 2942SOL    HW2 8847   4.484   1.802   4.670
 2943SOL     OW 8848   4.583   0.956   4.585
 2943SOL    HW1 8849   4.637   0.887   4.633
 2943SOL    HW2 8850   4.551   1.025   4.651
 2944SOL     OW 8851   3.803   1.240   4.377
 2944SOL    HW1 8852   3.802   1.193   4.465
 2944SOL    HW2 8853   3.885   1.212   4.326
 2945SOL     OW 8854   4.152   0.424   4.244
 2945SOL    HW1 8855   4.182   0.352   4.182
 2945SOL    HW2 8856   4.113   0.384   4.327
 2946SOL     OW 8857   4.536   1.586   4.411
 2946SOL    HW1 8858   4.568   1.596   4.317
 2946SOL    HW2 8859   4.457   1.524   4.413
 2947SOL     OW 8860   4.494   1.330   4.025
 2947SOL    HW1 8861   4.448   1.243   4.042
 2947SOL    HW2 8862   4.585   1.327   4.066
 2948SOL     OW 8863   3.763   1.077   4.024
 2948SOL    HW1 8864   3.862   1.066   4.015
 2948SOL    HW2 8865   3.723   0.991   4.056
 2949SOL     OW 8866   4.599   1.646   4.061
 2949SOL    HW1 8867   4.522   1.611   4.007
 2949SOL    HW2 8868   4.567   1.717   4.123
 2950SOL     OW 8869   3.954   2.490   0.113
 2950SOL    HW1 8870   3.861   2.488   0.150
 2950SOL    HW2 8871   3.955   2.451   0.021
 2951SOL     OW 8872   3.949   2.137   0.996
 2951SOL    HW1 8873   3.984   2.120   1.088
 2951SOL    HW2 8874   3.861   2.092   0.984
 2952SOL     OW 8875   3.743   2.230   0.647
 2952SOL    HW1 8876   3.661   2.273   0.686
 2952SOL    HW2 8877   3.715   2.157   0.584
 2953SOL     OW 8878   4.293   3.137   1.165
 2953SOL    HW1 8879   4.200   3.130   1.128
 2953SOL    HW2 8880   4.304   3.226   1.209
 2954SOL     OW 8881   4.492   3.006   1.023
 2954SOL    HW1 8882   4.414   3.023   1.083
 2954SOL    HW2 8883   4.526   3.093   0.987
 2955SOL     OW 8884   4.574   2.660   1.823
 2955SOL    HW1 8885   4.570   2.736   1.888
 2955SOL    HW2 8886   4.596   2.696   1.732
 2956SOL     OW 8887   4.409   2.874   0.665
 2956SOL    HW1 8888   4.478   2.858   0.735
 2956SOL    HW2 8889   4.336   2.931   0.703
 2957SOL     OW 8890   4.410   3.023   1.803
 2957SOL    HW1 8891   4.470   3.102   1.817
 2957SOL    HW2 8892   4.324   3.054   1.762
 2958SOL     OW 8893   4.059   3.297   1.061
 2958SOL    HW1 8894   3.981   3.266   1.008
 2958SOL    HW2 8895   4.117   3.355   1.004
 2959SOL     OW 8896   4.162   2.254   1.499
 2959SOL    HW1 8897   4.244   2.198   1.508
 2959SOL    HW2 8898   4.081   2.196   1.503
 2960SOL     OW 8899   3.955   3.575   0.483
 2960SOL    HW1 8900   3.989   3.652   0.537
 2960SOL    HW2 8901   3.999   3.575   0.393
 2961SOL     OW 8902   3.954   3.296   0.538
 2961SOL    HW1 8903   3.928   3.392   0.538
 2961SOL    HW2 8904   3.883   3.242   0.583
 2962SOL     OW 8905   3.964   2.953   0.886
 2962SOL    HW1 8906   3.978   2.869   0.938
 2962SOL    HW2 8907   3.909   3.017   0.941
 2963SOL     OW 8908   4.344   3.648   1.439
 2963SOL    HW1 8909   4.252   3.631   1.474
 2963SOL    HW2 8910   4.372   3.740   1.465
 2964SOL     OW 8911   4.330   2.826   0.123
 2964SOL    HW1 8912   4.337   2.910   0.069
 2964SOL    HW2 8913   4.376   2.839   0.211
 2965SOL     OW 8914   3.846   2.505   0.563
 2965SOL    HW1 8915   3.801   2.417   0.580
 2965SOL    HW2 8916   3.845   2.559   0.647
 2966SOL     OW 8917   3.837   2.599   1.597
 2966SOL    HW1 8918   3.925   2.586   1.642
 2966SOL    HW2 8919   3.824   2.696   1.575
 2967SOL     OW 8920   4.337   3.227   0.726
 2967SOL    HW1 8921   4.288   3.140   0.735
 2967SOL    HW2 8922   4.314   3.270   0.639
 2968SOL     OW 8923   4.533   1.866   0.502
 2968SOL    HW1 8924   4.573   1.957   0.493
 2968SOL    HW2 8925   4.433   1.874   0.508
 2969SOL     OW 8926   3.921   2.838   1.264
 2969SOL    HW1 8927   4.010   2.793   1.250
 2969SOL    HW2 8928   3.848   2.773   1.245
 2970SOL     OW 8929   4.041   2.113   1.801
 2970SOL    HW1 8930   4.112   2.184   1.807
 2970SOL    HW2 8931   3.953   2.152   1.829
 2971SOL     OW 8932   4.322   2.591   0.270
 2971SOL    HW1 8933   4.346   2.660   0.202
 2971SOL    HW2 8934   4.244   2.624   0.324
 2972SOL     OW 8935   4.531   2.467   1.465
 2972SOL    HW1 8936   4.484   2.464   1.554
 2972SOL    HW2 8937   4.480   2.412   1.399
 2973SOL     OW 8938   4.715   2.272   1.242
 2973SOL    HW1 8939   4.638   2.306   1.296
 2973SOL    HW2 8940   4.681   2.221   1.163
 2974SOL     OW 8941   3.800   2.673   0.789
 2974SOL    HW1 8942   3.899   2.661   0.798
 2974SOL    HW2 8943   3.776   2.768   0.810
 2975SOL     OW 8944   3.854   3.683   1.571
 2975SOL    HW1 8945   3.844   3.668   1.670
 2975SOL    HW2 8946   3.768   3.719   1.535
 2976SOL     OW 8947   4.589   2.210   0.195
 2976SOL    HW1 8948   4.648   2.273   0.146
 2976SOL    HW2 8949   4.608   2.116   0.166
 2977SOL     OW 8950   4.274   2.058   0.885
 2977SOL    HW1 8951   4.269   2.053   0.985
 2977SOL    HW2 8952   4.276   2.154   0.856
 2978SOL     OW 8953   4.732   3.318   0.477
 2978SOL    HW1 8954   4.686   3.390   0.425
 2978SOL    HW2 8955   4.728   3.338   0.575
 2979SOL     OW 8956   4.075   3.663   0.853
 2979SOL    HW1 8957   4.125   3.577   0.859
 2979SOL    HW2 8958   4.140   3.740   0.850
 2980SOL     OW 8959   4.045   2.805   0.242
 2980SOL    HW1 8960   4.127   2.844   0.200
 2980SOL    HW2 8961   4.018   2.723   0.193
 2981SOL     OW 8962   4.185   3.128   1.727
 2981SOL    HW1 8963   4.135   3.129   1.641
 2981SOL    HW2 8964   4.122   3.110   1.803
 2982SOL     OW 8965   3.926   2.147   1.498
 2982SOL    HW1 8966   3.846   2.207   1.485
 2982SOL    HW2 8967   3.916   2.098   1.584
 2983SOL     OW 8968   4.188   3.605   0.323
 2983SOL    HW1 8969   4.221   3.644   0.409
 2983SOL    HW2 8970   4.264   3.598   0.258
 2984SOL     OW 8971   3.973   3.647   1.241
 2984SOL    HW1 8972   4.030   3.582   1.291
 2984SOL    HW2 8973   3.957   3.614   1.148
 2985SOL     OW 8974   4.106   2.562   0.480
 2985SOL    HW1 8975   4.151   2.472   0.477
 2985SOL    HW2 8976   4.012   2.551   0.513
 2986SOL     OW 8977   4.505   2.126   1.749
 2986SOL    HW1 8978   4.572   2.065   1.792
 2986SOL    HW2 8979   4.432   2.145   1.814
 2987SOL     OW 8980   4.527   3.264   0.924
 2987SOL    HW1 8981   4.617   3.278   0.882
 2987SOL    HW2 8982   4.456   3.266   0.853
 2988SOL     OW 8983   4.646   2.365   0.899
 2988SOL    HW1 8984   4.621   2.356   0.803
 2988SOL    HW2 8985   4.694   2.283   0.930
 2989SOL     OW 8986   4.263   1.926   0.512
 2989SOL    HW1 8987   4.182   1.927   0.570
 2989SOL    HW2 8988   4.266   2.009   0.457
 2990SOL     OW 8989   4.021   1.897   0.171
 2990SOL    HW1 8990   4.070   1.981   0.150
 2990SOL    HW2 8991   4.083   1.832   0.216
 2991SOL     OW 8992   4.951   3.432   0.793
 2991SOL    HW1 8993   4.972   3.506   0.728
 2991SOL    HW2 8994   5.019   3.432   0.866
 2992SOL     OW 8995   4.183   3.014   0.741
 2992SOL    HW1 8996   4.112   2.987   0.806
 2992SOL    HW2 8997   4.157   2.986   0.648
 2993SOL     OW 8998   3.802   2.418   1.386
 2993SOL    HW1 8999   3.894   2.417   1.345
 2993SOL    HW2 9000   3.796   2.492   1.453
 2994SOL     OW 9001   4.285   2.084   1.147
 2994SOL    HW1 9002   4.323   2.000   1.184
 2994SOL    HW2 9003   4.197   2.103   1.191
 2995SOL     OW 9004   4.212   3.247   0.174
 2995SOL    HW1 9005   4.125   3.232   0.221
 2995SOL    HW2 9006   4.195   3.273   0.079
 2996SOL     OW 9007   4.251   2.118   0.328
 2996SOL    HW1 9008   4.278   2.059   0.253
 2996SOL    HW2 9009   4.251   2.213   0.297
 2997SOL     OW 9010   4.639   1.951   1.402
 2997SOL    HW1 9011   4.664   1.931   1.307
 2997SOL    HW2 9012   4.711   2.007   1.444
 2998SOL     OW 9013   4.429   2.912   0.368
 2998SOL    HW1 9014   4.415   2.919   0.467
 2998SOL    HW2 9015   4.513   2.861   0.350
 2999SOL     OW 9016   4.134   2.675   1.251
 2999SOL    HW1 9017   4.220   2.687   1.301
 2999SOL    HW2 9018   4.092   2.588   1.278
 3000SOL     OW 9019   3.788   3.426   1.331
 3000SOL    HW1 9020   3.742   3.508   1.297
 3000SOL    HW2 9021   3.886   3.445   1.340
 3001SOL     OW 9022   4.091   2.962   0.501
 3001SOL    HW1 9023   4.084   3.045   0.445
 3001SOL    HW2 9024   4.095   2.882   0.441
 3002SOL     OW 9025   4.290   2.399   0.865
 3002SOL    HW1 9026   4.302   2.465   0.791
 3002SOL    HW2 9027   4.336   2.433   0.948
 3003SOL     OW 9028   4.078   3.372   1.329
 3003SOL    HW1 9029   4.057   3.328   1.242
 3003SOL    HW2 9030   4.175   3.398   1.332
 3004SOL     OW 9031   4.126   2.613   1.598
 3004SOL    HW1 9032   4.194   2.668   1.551
 3004SOL    HW2 9033   4.166   2.525   1.625
 3005SOL     OW 9034   4.228   1.912   1.740
 3005SOL    HW1 9035   4.186   1.855   1.670
 3005SOL    HW2 9036   4.162   1.981   1.772
 3006SOL     OW 9037   4.297   2.732   1.029
 3006SOL    HW1 9038   4.341   2.821   1.020
 3006SOL    HW2 9039   4.234   2.732   1.106
 3007SOL     OW 9040   4.933   2.387   0.275
 3007SOL    HW1 9041   4.946   2.303   0.329
 3007SOL    HW2 9042   4.904   2.461   0.335
 3008SOL     OW 9043   4.031   2.075   1.231
 3008SOL    HW1 9044   4.008   2.112   1.321
 3008SOL    HW2 9045   4.001   1.980   1.225
 3009SOL     OW 9046   3.761   3.172   1.282
 3009SOL    HW1 9047   3.814   3.123   1.350
 3009SOL    HW2 9048   3.783   3.270   1.287
 3010SOL     OW 9049   4.456   2.496   1.064
 3010SOL    HW1 9050   4.515   2.470   0.988
 3010SOL    HW2 9051   4.428   2.592   1.053
 3011SOL     OW 9052   4.031   1.925   0.618
 3011SOL    HW1 9053   4.020   2.019   0.651
 3011SOL    HW2 9054   4.026   1.862   0.695
 3012SOL     OW 9055   4.747   2.628   0.966
 3012SOL    HW1 9056   4.762   2.649   1.062
 3012SOL    HW2 9057   4.717   2.533   0.957
 3013SOL     OW 9058   4.704   3.435   1.700
 3013SOL    HW1 9059   4.684   3.479   1.612
 3013SOL    HW2 9060   4.743   3.344   1.684
 3014SOL     OW 9061   4.074   2.760   1.804
 3014SOL    HW1 9062   4.150   2.804   1.852
 3014SOL    HW2 9063   4.109   2.713   1.722
 3015SOL     OW 9064   4.043   2.672   0.949
 3015SOL    HW1 9065   4.136   2.708   0.954
 3015SOL    HW2 9066   4.037   2.587   1.001
 3016SOL     OW 9067   4.063   2.371   1.006
 3016SOL    HW1 9068   4.011   2.288   0.989
 3016SOL    HW2 9069   4.140   2.376   0.942
 3017SOL     OW 9070   3.732   3.188   0.200
 3017SOL    HW1 9071   3.639   3.209   0.169
 3017SOL    HW2 9072   3.742   3.089   0.213
 3018SOL     OW 9073   3.812   3.663   0.927
 3018SOL    HW1 9074   3.770   3.577   0.900
 3018SOL    HW2 9075   3.906   3.666   0.893
 3019SOL     OW 9076   4.228   3.430   0.910
 3019SOL    HW1 9077   4.294   3.504   0.919
 3019SOL    HW2 9078   4.272   3.351   0.868
 3020SOL     OW 9079   4.726   2.658   1.238
 3020SOL    HW1 9080   4.767   2.626   1.324
 3020SOL    HW2 9081   4.630   2.631   1.235
 3021SOL     OW 9082   3.764   2.406   1.114
 3021SOL    HW1 9083   3.849   2.373   1.073
 3021SOL    HW2 9084   3.777   2.421   1.212
 3022SOL     OW 9085   3.913   2.382   1.722
 3022SOL    HW1 9086   3.972   2.342   1.652
 3022SOL    HW2 9087   3.855   2.453   1.681
 3023SOL     OW 9088   4.539   2.434   0.325
 3023SOL    HW1 9089   4.546   2.345   0.279
 3023SOL    HW2 9090   4.445   2.468   0.317
 3024SOL     OW 9091   3.976   3.426   1.744
 3024SOL    HW1 9092   3.946   3.483   1.820
 3024SOL    HW2 9093   3.969   3.329   1.770
 3025SOL     OW 9094   4.395   2.326   1.269
 3025SOL    HW1 9095   4.361   2.237   1.239
 3025SOL    HW2 9096   4.421   2.380   1.189
 3026SOL     OW 9097   4.197   2.362   0.191
 3026SOL    HW1 9098   4.258   2.442   0.195
 3026SOL    HW2 9099   4.102   2.393   0.198
 3027SOL     OW 9100   3.883   2.999   1.466
 3027SOL    HW1 9101   3.905   2.938   1.542
 3027SOL    HW2 9102   3.893   2.950   1.380
 3028SOL     OW 9103   3.807   3.120   1.022
 3028SOL    HW1 9104   3.802   3.119   1.122
 3028SOL    HW2 9105   3.724   3.079   0.984
 3029SOL     OW 9106   4.412   3.524   1.716
 3029SOL    HW1 9107   4.356   3.605   1.725
 3029SOL    HW2 9108   4.464   3.528   1.630
 3030SOL     OW 9109   4.627   1.948   0.133
 3030SOL    HW1 9110   4.678   1.949   0.047
 3030SOL    HW2 9111   4.683   1.906   0.204
 3031SOL     OW 9112   3.854   3.656   1.851
 3031SOL    HW1 9113   3.813   3.582   1.904
 3031SOL    HW2 9114   3.918   3.707   1.909
 3032SOL     OW 9115   4.554   3.135   1.422
 3032SOL    HW1 9116   4.549   3.168   1.517
 3032SOL    HW2 9117   4.468   3.154   1.376
 3033SOL     OW 9118   4.396   3.478   0.154
 3033SOL    HW1 9119   4.405   3.488   0.055
 3033SOL    HW2 9120   4.356   3.389   0.175
 3034SOL     OW 9121   3.987   2.188   0.720
 3034SOL    HW1 9122   3.908   2.239   0.686
 3034SOL    HW2 9123   3.978   2.173   0.818
 3035SOL     OW 9124   4.918   3.474   0.031
 3035SOL    HW1 9125   4.924   3.381   0.068
 3035SOL    HW2 9126   4.859   3.474  -0.049
 3036SOL     OW 9127   4.546   2.864   1.372
 3036SOL    HW1 9128   4.586   2.863   1.280
 3036SOL    HW2 9129   4.556   2.956   1.412
 3037SOL     OW 9130   4.096   3.150   1.490
 3037SOL    HW1 9131   4.083   3.243   1.456
 3037SOL    HW2 9132   4.012   3.098   1.477
 3038SOL     OW 9133   4.314   3.349   0.491
 3038SOL    HW1 9134   4.356   3.291   0.421
 3038SOL    HW2 9135   4.270   3.428   0.447
 3039SOL     OW 9136   3.979   3.210   0.290
 3039SOL    HW1 9137   3.883   3.211   0.263
 3039SOL    HW2 9138   3.991   3.263   0.374
 3040SOL     OW 9139   3.829   2.875   1.726
 3040SOL    HW1 9140   3.752   2.842   1.780
 3040SOL    HW2 9141   3.914   2.845   1.768
 3041SOL     OW 9142   4.396   2.065   1.489
 3041SOL    HW1 9143   4.486   2.049   1.449
 3041SOL    HW2 9144   4.404   2.070   1.588
 3042SOL     OW 9145   3.796   2.028   0.318
 3042SOL    HW1 9146   3.779   2.111   0.264
 3042SOL    HW2 9147   3.886   1.991   0.296
 3043SOL     OW 9148   4.337   2.704   1.431
 3043SOL    HW1 9149   4.393   2.785   1.414
 3043SOL    HW2 9150   4.396   2.624   1.434
 3044SOL     OW 9151   4.440   2.427   1.708
 3044SOL    HW1 9152   4.459   2.492   1.782
 3044SOL    HW2 9153   4.500   2.347   1.717
 3045SOL     OW 9154   4.114   3.603   1.560
 3045SOL    HW1 9155   4.023   3.644   1.558
 3045SOL    HW2 9156   4.107   3.509   1.592
 3046SOL     OW 9157   4.949   2.187   0.449
 3046SOL    HW1 9158   5.014   2.113   0.438
 3046SOL    HW2 9159   4.969   2.237   0.533
 3047SOL     OW 9160   4.318   2.607   0.652
 3047SOL    HW1 9161   4.368   2.692   0.633
 3047SOL    HW2 9162   4.230   2.609   0.604
 3048SOL     OW 9163   4.385   3.652   0.953
 3048SOL    HW1 9164   4.339   3.740   0.940
 3048SOL    HW2 9165   4.484   3.664   0.946
 3049SOL     OW 9166   4.583   2.818   0.861
 3049SOL    HW1 9167   4.637   2.749   0.909
 3049SOL    HW2 9168   4.551   2.887   0.927
 3050SOL     OW 9169   4.807   2.846   0.087
 3050SOL    HW1 9170   4.784   2.899   0.005
 3050SOL    HW2 9171   4.888   2.790   0.068
 3051SOL     OW 9172   3.945   3.176   1.844
 3051SOL    HW1 9173   3.880   3.103   1.823
 3051SOL    HW2 9174   3.949   3.190   1.942
 3052SOL     OW 9175   3.803   3.102   0.653
 3052SOL    HW1 9176   3.802   3.055   0.741
 3052SOL    HW2 9177   3.885   3.074   0.602
 3053SOL     OW 9178   4.396   3.253   1.624
 3053SOL    HW1 9179   4.318   3.203   1.662
 3053SOL    HW2 9180   4.393   3.348   1.655
 3054SOL     OW 9181   4.152   2.286   0.520
 3054SOL    HW1 9182   4.182   2.214   0.458
 3054SOL    HW2 9183   4.113   2.246   0.603
 3055SOL     OW 9184   4.041   2.409   1.280
 3055SOL    HW1 9185   4.079   2.350   1.352
 3055SOL    HW2 9186   4.081   2.383   1.192
 3056SOL     OW 9187   4.536   3.448   0.687
 3056SOL    HW1 9188   4.568   3.458   0.593
 3056SOL    HW2 9189   4.457   3.386   0.689
 3057SOL     OW 9190   4.725   1.896   1.154
 3057SOL    HW1 9191   4.662   1.824   1.123
 3057SOL    HW2 9192   4.818   1.860   1.154
 3058SOL     OW 9193   4.494   3.192   0.301
 3058SOL    HW1 9194   4.448   3.105   0.318
 3058SOL    HW2 9195   4.585   3.189   0.342
 3059SOL     OW 9196   4.342   3.429   1.284
 3059SOL    HW1 9197   4.337   3.511   1.341
 3059SOL    HW2 9198   4.431   3.426   1.239
 3060SOL     OW 9199   3.763   2.939   0.300
 3060SOL    HW1 9200   3.862   2.928   0.291
 3060SOL    HW2 9201   3.723   2.853   0.332
 3061SOL     OW 9202   4.599   3.508   0.337
 3061SOL    HW1 9203   4.522   3.473   0.283
 3061SOL    HW2 9204   4.567   3.579   0.399
 3062SOL     OW 9205   3.954   2.490   1.975
 3062SOL    HW1 9206   3.861   2.488   2.012
 3062SOL    HW2 9207   3.955   2.451   1.883
 3063SOL     OW 9208   3.949   2.137   2.858
 3063SOL    HW1 9209   3.984   2.120   2.950
 3063SOL    HW2 9210   3.861   2.092   2.846
 3064SOL     OW 9211   3.743   2.230   2.509
 3064SOL    HW1 9212   3.661   2.273   2.548
 3064SOL    HW2 9213   3.715   2.157   2.446
 3065SOL     OW 9214   4.293   3.137   3.027
 3065SOL    HW1 9215   4.200   3.130   2.990
 3065SOL    HW2 9216   4.304   3.226   3.071
 3066SOL     OW 9217   4.492   3.006   2.885
 3066SOL    HW1 9218   4.414   3.023   2.945
 3066SOL    HW2 9219   4.526   3.093   2.849
 3067SOL     OW 9220   4.574   2.660   3.685
 3067SOL    HW1 9221   4.570   2.736   3.750
 3067SOL    HW2 9222   4.596   2.696   3.594
 3068SOL     OW 9223   4.409   2.874   2.527
 3068SOL    HW1 9224   4.478   2.858   2.597
 3068SOL    HW2 9225   4.336   2.931   2.565
 3069SOL     OW 9226   4.410   3.023   3.665
 3069SOL    HW1 9227   4.470   3.102   3.679
 3069SOL    HW2 9228   4.324   3.054   3.624
 3070SOL     OW 9229   4.059   3.297   2.923
 3070SOL    HW1 9230   3.981   3.266   2.870
 3070SOL    HW2 9231   4.117   3.355   2.866
 3071SOL     OW 9232   4.162   2.254   3.361
 3071SOL    HW1 9233   4.244   2.198   3.370
 3071SOL    HW2 9234   4.081   2.196   3.365
 3072SOL     OW 9235   3.955   3.575   2.345
 3072SOL    HW1 9236   3.989   3.652   2.399
 3072SOL    HW2 9237   3.999   3.575   2.255
 3073SOL     OW 9238   3.954   3.296   2.400
 3073SOL    HW1 9239   3.928   3.392   2.400
 3073SOL    HW2 9240   3.883   3.242   2.445
 3074SOL     OW 9241   3.964   2.953   2.748
 3074SOL    HW1 9242   3.978   2.869   2.800
 3074SOL    HW2 9243   3.909   3.017   2.803
 3075SOL     OW 9244   4.344   3.648   3.301
 3075SOL    HW1 9245   4.252   3.631   3.336
 3075SOL    HW2 9246   4.372   3.740   3.327
 3076SOL     OW 9247   4.330   2.826   1.985
 3076SOL    HW1 9248   4.337   2.910   1.931
 3076SOL    HW2 9249   4.376   2.839   2.073
 3077SOL     OW 9250   3.846   2.505   2.425
 3077SOL    HW1 9251   3.801   2.417   2.442
 3077SOL    HW2 9252   3.845   2.559   2.509
 3078SOL     OW 9253   3.751   3.458   1.979
 3078SOL    HW1 9254   3.732   3.362   2.000
 3078SOL    HW2 9255   3.718   3.516   2.054
 3079SOL     OW 9256   3.837   2.599   3.459
 3079SOL    HW1 9257   3.925   2.586   3.504
 3079SOL    HW2 9258   3.824   2.696   3.437
 3080SOL     OW 9259   4.337   3.227   2.588
 3080SOL    HW1 9260   4.288   3.140   2.597
 3080SOL    HW2 9261   4.314   3.270   2.501
 3081SOL     OW 9262   4.533   1.866   2.364
 3081SOL    HW1 9263   4.573   1.957   2.355
 3081SOL    HW2 9264   4.433   1.874   2.370
 3082SOL     OW 9265   3.921   2.838   3.126
 3082SOL    HW1 9266   4.010   2.793   3.112
 3082SOL    HW2 9267   3.848   2.773   3.107
 3083SOL     OW 9268   4.041   2.113   3.663
 3083SOL    HW1 9269   4.112   2.184   3.669
 3083SOL    HW2 9270   3.953   2.152   3.691
 3084SOL     OW 9271   4.322   2.591   2.132
 3084SOL    HW1 9272   4.346   2.660   2.064
 3084SOL    HW2 9273   4.244   2.624   2.186
 3085SOL     OW 9274   4.531   2.467   3.327
 3085SOL    HW1 9275   4.484   2.464   3.416
 3085SOL    HW2 9276   4.480   2.412   3.261
 3086SOL     OW 9277   4.715   2.272   3.104
 3086SOL    HW1 9278   4.638   2.306   3.158
 3086SOL    HW2 9279   4.681   2.221   3.025
 3087SOL     OW 9280   3.800   2.673   2.651
 3087SOL    HW1 9281   3.899   2.661   2.660
 3087SOL    HW2 9282   3.776   2.768   2.672
 3088SOL     OW 9283   3.854   3.683   3.433
 3088SOL    HW1 9284   3.844   3.668   3.532
 3088SOL    HW2 9285   3.768   3.719   3.397
 3089SOL     OW 9286   4.589   2.210   2.057
 3089SOL    HW1 9287   4.648   2.273   2.008
 3089SOL    HW2 9288   4.608   2.116   2.028
 3090SOL     OW 9289   4.274   2.058   2.747
 3090SOL    HW1 9290   4.269   2.053   2.847
 3090SOL    HW2 9291   4.276   2.154   2.718
 3091SOL     OW 9292   4.732   3.318   2.339
 3091SOL    HW1 9293   4.686   3.390   2.287
 3091SOL    HW2 9294   4.728   3.338   2.437
 3092SOL     OW 9295   4.075   3.663   2.715
 3092SOL    HW1 9296   4.125   3.577   2.721
 3092SOL    HW2 9297   4.140   3.740   2.712
 3093SOL     OW 9298   4.045   2.805   2.104
 3093SOL    HW1 9299   4.127   2.844   2.062
 3093SOL    HW2 9300   4.018   2.723   2.055
 3094SOL     OW 9301   4.185   3.128   3.589
 3094SOL    HW1 9302   4.135   3.129   3.503
 3094SOL    HW2 9303   4.122   3.110   3.665
 3095SOL     OW 9304   3.926   2.147   3.360
 3095SOL    HW1 9305   3.846   2.207   3.347
 3095SOL    HW2 9306   3.916   2.098   3.446
 3096SOL     OW 9307   4.188   3.605   2.185
 3096SOL    HW1 9308   4.221   3.644   2.271
 3096SOL    HW2 9309   4.264   3.598   2.120
 3097SOL     OW 9310   3.973   3.647   3.103
 3097SOL    HW1 9311   4.030   3.582   3.153
 3097SOL    HW2 9312   3.957   3.614   3.010
 3098SOL     OW 9313   4.106   2.562   2.342
 3098SOL    HW1 9314   4.151   2.472   2.339
 3098SOL    HW2 9315   4.012   2.551   2.375
 3099SOL     OW 9316   4.338   1.984   1.979
 3099SOL    HW1 9317   4.436   1.962   1.986
 3099SOL    HW2 9318   4.307   1.967   1.886
 3100SOL     OW 9319   4.505   2.126   3.611
 3100SOL    HW1 9320   4.572   2.065   3.654
 3100SOL    HW2 9321   4.432   2.145   3.676
 3101SOL     OW 9322   4.527   3.264   2.786
 3101SOL    HW1 9323   4.617   3.278   2.744
 3101SOL    HW2 9324   4.456   3.266   2.715
 3102SOL     OW 9325   4.646   2.365   2.761
 3102SOL    HW1 9326   4.621   2.356   2.665
 3102SOL    HW2 9327   4.694   2.283   2.792
 3103SOL     OW 9328   4.263   1.926   2.374
 3103SOL    HW1 9329   4.182   1.927   2.432
 3103SOL    HW2 9330   4.266   2.009   2.319
 3104SOL     OW 9331   4.021   1.897   2.033
 3104SOL    HW1 9332   4.070   1.981   2.012
 3104SOL    HW2 9333   4.083   1.832   2.078
 3105SOL     OW 9334   4.951   3.432   2.655
 3105SOL    HW1 9335   4.972   3.506   2.590
 3105SOL    HW2 9336   5.019   3.432   2.728
 3106SOL     OW 9337   4.183   3.014   2.603
 3106SOL    HW1 9338   4.112   2.987   2.668
 3106SOL    HW2 9339   4.157   2.986   2.510
 3107SOL     OW 9340   3.802   2.418   3.248
 3107SOL    HW1 9341   3.894   2.417   3.207
 3107SOL    HW2 9342   3.796   2.492   3.315
 3108SOL     OW 9343   4.285   2.084   3.009
 3108SOL    HW1 9344   4.323   2.000   3.046
 3108SOL    HW2 9345   4.197   2.103   3.053
 3109SOL     OW 9346   4.212   3.247   2.036
 3109SOL    HW1 9347   4.125   3.232   2.083
 3109SOL    HW2 9348   4.195   3.273   1.941
 3110SOL     OW 9349   4.251   2.118   2.190
 3110SOL    HW1 9350   4.278   2.059   2.115
 3110SOL    HW2 9351   4.251   2.213   2.159
 3111SOL     OW 9352   4.639   1.951   3.264
 3111SOL    HW1 9353   4.664   1.931   3.169
 3111SOL    HW2 9354   4.711   2.007   3.306
 3112SOL     OW 9355   4.429   2.912   2.230
 3112SOL    HW1 9356   4.415   2.919   2.329
 3112SOL    HW2 9357   4.513   2.861   2.212
 3113SOL     OW 9358   4.134   2.675   3.113
 3113SOL    HW1 9359   4.220   2.687   3.163
 3113SOL    HW2 9360   4.092   2.588   3.140
 3114SOL     OW 9361   3.788   3.426   3.193
 3114SOL    HW1 9362   3.742   3.508   3.159
 3114SOL    HW2 9363   3.886   3.445   3.202
 3115SOL     OW 9364   4.091   2.962   2.363
 3115SOL    HW1 9365   4.084   3.045   2.307
 3115SOL    HW2 9366   4.095   2.882   2.303
 3116SOL     OW 9367   4.290   2.399   2.727
 3116SOL    HW1 9368   4.302   2.465   2.653
 3116SOL    HW2 9369   4.336   2.433   2.810
 3117SOL     OW 9370   4.078   3.372   3.191
 3117SOL    HW1 9371   4.057   3.328   3.104
 3117SOL    HW2 9372   4.175   3.398   3.194
 3118SOL     OW 9373   4.126   2.613   3.460
 3118SOL    HW1 9374   4.194   2.668   3.413
 3118SOL    HW2 9375   4.166   2.525   3.487
 3119SOL     OW 9376   4.228   1.912   3.602
 3119SOL    HW1 9377   4.186   1.855   3.532
 3119SOL    HW2 9378   4.162   1.981   3.634
 3120SOL     OW 9379   4.297   2.732   2.891
 3120SOL    HW1 9380   4.341   2.821   2.882
 3120SOL    HW2 9381   4.234   2.732   2.968
 3121SOL     OW 9382   4.933   2.387   2.137
 3121SOL    HW1 9383   4.946   2.303   2.191
 3121SOL    HW2 9384   4.904   2.461   2.197
 3122SOL     OW 9385   4.031   2.075   3.093
 3122SOL    HW1 9386   4.008   2.112   3.183
 3122SOL    HW2 9387   4.001   1.980   3.087
 3123SOL     OW 9388   3.761   3.172   3.144
 3123SOL    HW1 9389   3.814   3.123   3.212
 3123SOL    HW2 9390   3.783   3.270   3.149
 3124SOL     OW 9391   4.456   2.496   2.926
 3124SOL    HW1 9392   4.515   2.470   2.850
 3124SOL    HW2 9393   4.428   2.592   2.915
 3125SOL     OW 9394   4.031   1.925   2.480
 3125SOL    HW1 9395   4.020   2.019   2.513
 3125SOL    HW2 9396   4.026   1.862   2.557
 3126SOL     OW 9397   4.747   2.628   2.828
 3126SOL    HW1 9398   4.762   2.649   2.924
 3126SOL    HW2 9399   4.717   2.533   2.819
 3127SOL     OW 9400   4.704   3.435   3.562
 3127SOL    HW1 9401   4.684   3.479   3.474
 3127SOL    HW2 9402   4.743   3.344   3.546
 3128SOL     OW 9403   4.074   2.760   3.666
 3128SOL    HW1 9404   4.150   2.804   3.714
 3128SOL    HW2 9405   4.109   2.713   3.584
 3129SOL     OW 9406   4.043   2.672   2.811
 3129SOL    HW1 9407   4.136   2.708   2.816
 3129SOL    HW2 9408   4.037   2.587   2.863
 3130SOL     OW 9409   4.063   2.371   2.868
 3130SOL    HW1 9410   4.011   2.288   2.851
 3130SOL    HW2 9411   4.140   2.376   2.804
 3131SOL     OW 9412   3.732   3.188   2.062
 3131SOL    HW1 9413   3.639   3.209   2.031
 3131SOL    HW2 9414   3.742   3.089   2.075
 3132SOL     OW 9415   3.812   3.663   2.789
 3132SOL    HW1 9416   3.770   3.577   2.762
 3132SOL    HW2 9417   3.906   3.666   2.755
 3133SOL     OW 9418   4.228   3.430   2.772
 3133SOL    HW1 9419   4.294   3.504   2.781
 3133SOL    HW2 9420   4.272   3.351   2.730
 3134SOL     OW 9421   4.726   2.658   3.100
 3134SOL    HW1 9422   4.767   2.626   3.186
 3134SOL    HW2 9423   4.630   2.631   3.097
 3135SOL     OW 9424   3.764   2.406   2.976
 3135SOL    HW1 9425   3.849   2.373   2.935
 3135SOL    HW2 9426   3.777   2.421   3.074
 3136SOL     OW 9427   3.913   2.382   3.584
 3136SOL    HW1 9428   3.972   2.342   3.514
 3136SOL    HW2 9429   3.855   2.453   3.543
 3137SOL     OW 9430   4.539   2.434   2.187
 3137SOL    HW1 9431   4.546   2.345   2.141
 3137SOL    HW2 9432   4.445   2.468   2.179
 3138SOL     OW 9433   3.976   3.426   3.606
 3138SOL    HW1 9434   3.946   3.483   3.682
 3138SOL    HW2 9435   3.969   3.329   3.632
 3139SOL     OW 9436   4.395   2.326   3.131
 3139SOL    HW1 9437   4.361   2.237   3.101
 3139SOL    HW2 9438   4.421   2.380   3.051
 3140SOL     OW 9439   4.197   2.362   2.053
 3140SOL    HW1 9440   4.258   2.442   2.057
 3140SOL    HW2 9441   4.102   2.393   2.060
 3141SOL     OW 9442   3.883   2.999   3.328
 3141SOL    HW1 9443   3.905   2.938   3.404
 3141SOL    HW2 9444   3.893   2.950   3.242
 3142SOL     OW 9445   3.807   3.120   2.884
 3142SOL    HW1 9446   3.802   3.119   2.984
 3142SOL    HW2 9447   3.724   3.079   2.846
 3143SOL     OW 9448   4.412   3.524   3.578
 3143SOL    HW1 9449   4.356   3.605   3.587
 3143SOL    HW2 9450   4.464   3.528   3.492
 3144SOL     OW 9451   4.627   1.948   1.995
 3144SOL    HW1 9452   4.678   1.949   1.909
 3144SOL    HW2 9453   4.683   1.906   2.066
 3145SOL     OW 9454   3.854   3.656   3.713
 3145SOL    HW1 9455   3.813   3.582   3.766
 3145SOL    HW2 9456   3.918   3.707   3.771
 3146SOL     OW 9457   4.554   3.135   3.284
 3146SOL    HW1 9458   4.549   3.168   3.379
 3146SOL    HW2 9459   4.468   3.154   3.238
 3147SOL     OW 9460   4.396   3.478   2.016
 3147SOL    HW1 9461   4.405   3.488   1.917
 3147SOL    HW2 9462   4.356   3.389   2.037
 3148SOL     OW 9463   3.987   2.188   2.582
 3148SOL    HW1 9464   3.908   2.239   2.548
 3148SOL    HW2 9465   3.978   2.173   2.680
 3149SOL     OW 9466   4.546   2.864   3.234
 3149SOL    HW1 9467   4.586   2.863   3.142
 3149SOL    HW2 9468   4.556   2.956   3.274
 3150SOL     OW 9469   4.096   3.150   3.352
 3150SOL    HW1 9470   4.083   3.243   3.318
 3150SOL    HW2 9471   4.012   3.098   3.339
 3151SOL     OW 9472   4.314   3.349   2.353
 3151SOL    HW1 9473   4.356   3.291   2.283
 3151SOL    HW2 9474   4.270   3.428   2.309
 3152SOL     OW 9475   3.979   3.210   2.152
 3152SOL    HW1 9476   3.883   3.211   2.125
 3152SOL    HW2 9477   3.991   3.263   2.236
 3153SOL     OW 9478   3.829   2.875   3.588
 3153SOL    HW1 9479   3.752   2.842   3.642
 3153SOL    HW2 9480   3.914   2.845   3.630
 3154SOL     OW 9481   4.396   2.065   3.351
 3154SOL    HW1 9482   4.486   2.049   3.311
 3154SOL    HW2 9483   4.404   2.070   3.450
 3155SOL     OW 9484   3.799   2.207   1.895
 3155SOL    HW1 9485   3.707   2.179   1.866
 3155SOL    HW2 9486   3.830   2.284   1.839
 3156SOL     OW 9487   3.796   2.028   2.180
 3156SOL    HW1 9488   3.779   2.111   2.126
 3156SOL    HW2 9489   3.886   1.991   2.158
 3157SOL     OW 9490   4.337   2.704   3.293
 3157SOL    HW1 9491   4.393   2.785   3.276
 3157SOL    HW2 9492   4.396   2.624   3.296
 3158SOL     OW 9493   4.440   2.427   3.570
 3158SOL    HW1 9494   4.459   2.492   3.644
 3158SOL    HW2 9495   4.500   2.347   3.579
 3159SOL     OW 9496   4.114   3.603   3.422
 3159SOL    HW1 9497   4.023   3.644   3.420
 3159SOL    HW2 9498   4.107   3.509   3.454
 3160SOL     OW 9499   4.949   2.187   2.311
 3160SOL    HW1 9500   5.014   2.113   2.300
 3160SOL    HW2 9501   4.969   2.237   2.395
 3161SOL     OW 9502   4.318   2.607   2.514
 3161SOL    HW1 9503   4.368   2.692   2.495
 3161SOL    HW2 9504   4.230   2.609   2.466
 3162SOL     OW 9505   4.385   3.652   2.815
 3162SOL    HW1 9506   4.339   3.740   2.802
 3162SOL    HW2 9507   4.484   3.664   2.808
 3163SOL     OW 9508   4.583   2.818   2.723
 3163SOL    HW1 9509   4.637   2.749   2.771
 3163SOL    HW2 9510   4.551   2.887   2.789
 3164SOL     OW 9511   3.945   3.176   3.706
 3164SOL    HW1 9512   3.880   3.103   3.685
 3164SOL    HW2 9513   3.949   3.190   3.804
 3165SOL     OW 9514   3.803   3.102   2.515
 3165SOL    HW1 9515   3.802   3.055   2.603
 3165SOL    HW2 9516   3.885   3.074   2.464
 3166SOL     OW 9517   4.396   3.253   3.486
 3166SOL    HW1 9518   4.318   3.203   3.524
 3166SOL    HW2 9519   4.393   3.348   3.517
 3167SOL     OW 9520   4.152   2.286   2.382
 3167SOL    HW1 9521   4.182   2.214   2.320
 3167SOL    HW2 9522   4.113   2.246   2.465
 3168SOL     OW 9523   4.041   2.409   3.142
 3168SOL    HW1 9524   4.079   2.350   3.214
 3168SOL    HW2 9525   4.081   2.383   3.054
 3169SOL     OW 9526   4.536   3.448   2.549
 3169SOL    HW1 9527   4.568   3.458   2.455
 3169SOL    HW2 9528   4.457   3.386   2.551
 3170SOL     OW 9529   4.725   1.896   3.016
 3170SOL    HW1 9530   4.662   1.824   2.985
 3170SOL    HW2 9531   4.818   1.860   3.016
 3171SOL     OW 9532   4.494   3.192   2.163
 3171SOL    HW1 9533   4.448   3.105   2.180
 3171SOL    HW2 9534   4.585   3.189   2.204
 3172SOL     OW 9535   4.342   3.429   3.146
 3172SOL    HW1 9536   4.337   3.511   3.203
 3172SOL    HW2 9537   4.431   3.426   3.101
 3173SOL     OW 9538   3.763   2.939   2.162
 3173SOL    HW1 9539   3.862   2.928   2.153
 3173SOL    HW2 9540   3.723   2.853   2.194
 3174SOL     OW 9541   4.599   3.508   2.199
 3174SOL    HW1 9542   4.522   3.473   2.145
 3174SOL    HW2 9543   4.567   3.579   2.261
 3175SOL     OW 9544   3.954   2.490   3.837
 3175SOL    HW1 9545   3.861   2.488   3.874
 3175SOL    HW2 9546   3.955   2.451   3.745
 3176SOL     OW 9547   3.949   2.137   4.720
 3176SOL    HW1 9548   3.984   2.120   4.812
 3176SOL    HW2 9549   3.861   2.092   4.708
 3177SOL     OW 9550   3.743   2.230   4.371
 3177SOL    HW1 9551   3.661   2.273   4.410
 3177SOL    HW2 9552   3.715   2.157   4.308
 3178SOL     OW 9553   4.492   3.006   4.747
 3178SOL    HW1 9554   4.414   3.023   4.807
 3178SOL    HW2 9555   4.526   3.093   4.711
 3179SOL     OW 9556   4.409   2.874   4.389
 3179SOL    HW1 9557   4.478   2.858   4.459
 3179SOL    HW2 9558   4.336   2.931   4.427
 3180SOL     OW 9559   3.955   3.575   4.207
 3180SOL    HW1 9560   3.989   3.652   4.261
 3180SOL    HW2 9561   3.999   3.575   4.117
 3181SOL     OW 9562   3.954   3.296   4.262
 3181SOL    HW1 9563   3.928   3.392   4.262
 3181SOL    HW2 9564   3.883   3.242   4.307
 3182SOL     OW 9565   3.964   2.953   4.610
 3182SOL    HW1 9566   3.978   2.869   4.662
 3182SOL    HW2 9567   3.909   3.017   4.665
 3183SOL     OW 9568   4.330   2.826   3.847
 3183SOL    HW1 9569   4.337   2.910   3.793
 3183SOL    HW2 9570   4.376   2.839   3.935
 3184SOL     OW 9571   3.846   2.505   4.287
 3184SOL    HW1 9572   3.801   2.417   4.304
 3184SOL    HW2 9573   3.845   2.559   4.371
 3185SOL     OW 9574   3.751   3.458   3.841
 3185SOL    HW1 9575   3.732   3.362   3.862
 3185SOL    HW2 9576   3.718   3.516   3.916
 3186SOL     OW 9577   4.337   3.227   4.450
 3186SOL    HW1 9578   4.288   3.140   4.459
 3186SOL    HW2 9579   4.314   3.270   4.363
 3187SOL     OW 9580   4.533   1.866   4.226
 3187SOL    HW1 9581   4.573   1.957   4.217
 3187SOL    HW2 9582   4.433   1.874   4.232
 3188SOL     OW 9583   4.322   2.591   3.994
 3188SOL    HW1 9584   4.346   2.660   3.926
 3188SOL    HW2 9585   4.244   2.624   4.048
 3189SOL     OW 9586   3.800   2.673   4.513
 3189SOL    HW1 9587   3.899   2.661   4.522
 3189SOL    HW2 9588   3.776   2.768   4.534
 3190SOL     OW 9589   4.589   2.210   3.919
 3190SOL    HW1 9590   4.648   2.273   3.870
 3190SOL    HW2 9591   4.608   2.116   3.890
 3191SOL     OW 9592   4.274   2.058   4.609
 3191SOL    HW1 9593   4.269   2.053   4.709
 3191SOL    HW2 9594   4.276   2.154   4.580
 3192SOL     OW 9595   4.732   3.318   4.201
 3192SOL    HW1 9596   4.686   3.390   4.149
 3192SOL    HW2 9597   4.728   3.338   4.299
 3193SOL     OW 9598   4.075   3.663   4.577
 3193SOL    HW1 9599   4.125   3.577   4.583
 3193SOL    HW2 9600   4.140   3.740   4.574
 3194SOL     OW 9601   4.045   2.805   3.966
 3194SOL    HW1 9602   4.127   2.844   3.924
 3194SOL    HW2 9603   4.018   2.723   3.917
 3195SOL     OW 9604   4.188   3.605   4.047
 3195SOL    HW1 9605   4.221   3.644   4.133
 3195SOL    HW2 9606   4.264   3.598   3.982
 3196SOL     OW 9607   4.106   2.562   4.204
 3196SOL    HW1 9608   4.151   2.472   4.201
 3196SOL    HW2 9609   4.012   2.551   4.237
 3197SOL     OW 9610   4.338   1.984   3.841
 3197SOL    HW1 9611   4.436   1.962   3.848
 3197SOL    HW2 9612   4.307   1.967   3.748
 3198SOL     OW 9613   4.527   3.264   4.648
 3198SOL    HW1 9614   4.617   3.278   4.606
 3198SOL    HW2 9615   4.456   3.266   4.577
 3199SOL     OW 9616   4.263   1.926   4.236
 3199SOL    HW1 9617   4.182   1.927   4.294
 3199SOL    HW2 9618   4.266   2.009   4.181
 3200SOL     OW 9619   4.021   1.897   3.895
 3200SOL    HW1 9620   4.070   1.981   3.874
 3200SOL    HW2 9621   4.083   1.832   3.940
 3201SOL     OW 9622   4.951   3.432   4.517
 3201SOL    HW1 9623   4.972   3.506   4.452
 3201SOL    HW2 9624   5.019   3.432   4.590
 3202SOL     OW 9625   4.183   3.014   4.465
 3202SOL    HW1 9626   4.112   2.987   4.530
 3202SOL    HW2 9627   4.157   2.986   4.372
 3203SOL     OW 9628   4.212   3.247   3.898
 3203SOL    HW1 9629   4.125   3.232   3.945
 3203SOL    HW2 9630   4.195   3.273   3.803
 3204SOL     OW 9631   4.251   2.118   4.052
 3204SOL    HW1 9632   4.278   2.059   3.977
 3204SOL    HW2 9633   4.251   2.213   4.021
 3205SOL     OW 9634   4.429   2.912   4.092
 3205SOL    HW1 9635   4.415   2.919   4.191
 3205SOL    HW2 9636   4.513   2.861   4.074
 3206SOL     OW 9637   4.091   2.962   4.225
 3206SOL    HW1 9638   4.084   3.045   4.169
 3206SOL    HW2 9639   4.095   2.882   4.165
 3207SOL     OW 9640   4.290   2.399   4.589
 3207SOL    HW1 9641   4.302   2.465   4.515
 3207SOL    HW2 9642   4.336   2.433   4.672
 3208SOL     OW 9643   4.933   2.387   3.999
 3208SOL    HW1 9644   4.946   2.303   4.053
 3208SOL    HW2 9645   4.904   2.461   4.059
 3209SOL     OW 9646   4.456   2.496   4.788
 3209SOL    HW1 9647   4.515   2.470   4.712
 3209SOL    HW2 9648   4.428   2.592   4.777
 3210SOL     OW 9649   4.031   1.925   4.342
 3210SOL    HW1 9650   4.020   2.019   4.375
 3210SOL    HW2 9651   4.026   1.862   4.419
 3211SOL     OW 9652   4.747   2.628   4.690
 3211SOL    HW1 9653   4.762   2.649   4.786
 3211SOL    HW2 9654   4.717   2.533   4.681
 3212SOL     OW 9655   4.043   2.672   4.673
 3212SOL    HW1 9656   4.136   2.708   4.678
 3212SOL    HW2 9657   4.037   2.587   4.725
 3213SOL     OW 9658   3.732   3.188   3.924
 3213SOL    HW1 9659   3.639   3.209   3.893
 3213SOL    HW2 9660   3.742   3.089   3.937
 3214SOL     OW 9661   3.812   3.663   4.651
 3214SOL    HW1 9662   3.770   3.577   4.624
 3214SOL    HW2 9663   3.906   3.666   4.617
 3215SOL     OW 9664   4.228   3.430   4.634
 3215SOL    HW1 9665   4.294   3.504   4.643
 3215SOL    HW2 9666   4.272   3.351   4.592
 3216SOL     OW 9667   4.726   2.658   4.962
 3216SOL    HW1 9668   4.767   2.626   5.048
 3216SOL    HW2 9669   4.630   2.631   4.959
 3217SOL     OW 9670   4.539   2.434   4.049
 3217SOL    HW1 9671   4.546   2.345   4.003
 3217SOL    HW2 9672   4.445   2.468   4.041
 3218SOL     OW 9673   4.197   2.362   3.915
 3218SOL    HW1 9674   4.258   2.442   3.919
 3218SOL    HW2 9675   4.102   2.393   3.922
 3219SOL     OW 9676   4.627   1.948   3.857
 3219SOL    HW1 9677   4.678   1.949   3.771
 3219SOL    HW2 9678   4.683   1.906   3.928
 3220SOL     OW 9679   4.396   3.478   3.878
 3220SOL    HW1 9680   4.405   3.488   3.779
 3220SOL    HW2 9681   4.356   3.389   3.899
 3221SOL     OW 9682   3.987   2.188   4.444
 3221SOL    HW1 9683   3.908   2.239   4.410
 3221SOL    HW2 9684   3.978   2.173   4.542
 3222SOL     OW 9685   4.314   3.349   4.215
 3222SOL    HW1 9686   4.356   3.291   4.145
 3222SOL    HW2 9687   4.270   3.428   4.171
 3223SOL     OW 9688   3.979   3.210   4.014
 3223SOL    HW1 9689   3.883   3.211   3.987
 3223SOL    HW2 9690   3.991   3.263   4.098
 3224SOL     OW 9691   3.799   2.207   3.757
 3224SOL    HW1 9692   3.707   2.179   3.728
 3224SOL    HW2 9693   3.830   2.284   3.701
 3225SOL     OW 9694   3.796   2.028   4.042
 3225SOL    HW1 9695   3.779   2.111   3.988
 3225SOL    HW2 9696   3.886   1.991   4.020
 3226SOL     OW 9697   4.949   2.187   4.173
 3226SOL    HW1 9698   5.014   2.113   4.162
 3226SOL    HW2 9699   4.969   2.237   4.257
 3227SOL     OW 9700   4.318   2.607   4.376
 3227SOL    HW1 9701   4.368   2.692   4.357
 3227SOL    HW2 9702   4.230   2.609   4.328
 3228SOL     OW 9703   4.385   3.652   4.677
 3228SOL    HW1 9704   4.339   3.740   4.664
 3228SOL    HW2 9705   4.484   3.664   4.670
 3229SOL     OW 9706   4.583   2.818   4.585
 3229SOL    HW1 9707   4.637   2.749   4.633
 3229SOL    HW2 9708   4.551   2.887   4.651
 3230SOL     OW 9709   3.803   3.102   4.377
 3230SOL    HW1 9710   3.802   3.055   4.465
 3230SOL    HW2 9711   3.885   3.074   4.326
 3231SOL     OW 9712   4.152   2.286   4.244
 3231SOL    HW1 9713   4.182   2.214   4.182
 3231SOL    HW2 9714   4.113   2.246   4.327
 3232SOL     OW 9715   4.536   3.448   4.411
 3232SOL    HW1 9716   4.568   3.458   4.317
 3232SOL    HW2 9717   4.457   3.386   4.413
 3233SOL     OW 9718   4.494   3.192   4.025
 3233SOL    HW1 9719   4.448   3.105   4.042
 3233SOL    HW2 9720   4.585   3.189   4.066
 3234SOL     OW 9721   3.763   2.939   4.024
 3234SOL    HW1 9722   3.862   2.928   4.015
 3234SOL    HW2 9723   3.723   2.853   4.056
 3235SOL     OW 9724   4.599   3.508   4.061
 3235SOL    HW1 9725   4.522   3.473   4.007
 3235SOL    HW2 9726   4.567   3.579   4.123
 3236SOL     OW 9727   3.954   4.352   0.113
 3236SOL    HW1 9728   3.861   4.350   0.150
 3236SOL    HW2 9729   3.955   4.313   0.021
 3237SOL     OW 9730   3.949   3.999   0.996
 3237SOL    HW1 9731   3.984   3.982   1.088
 3237SOL    HW2 9732   3.861   3.954   0.984
 3238SOL     OW 9733   3.743   4.092   0.647
 3238SOL    HW1 9734   3.661   4.135   0.686
 3238SOL    HW2 9735   3.715   4.019   0.584
 3239SOL     OW 9736   4.574   4.522   1.823
 3239SOL    HW1 9737   4.570   4.598   1.888
 3239SOL    HW2 9738   4.596   4.558   1.732
 3240SOL     OW 9739   4.409   4.736   0.665
 3240SOL    HW1 9740   4.478   4.720   0.735
 3240SOL    HW2 9741   4.336   4.793   0.703
 3241SOL     OW 9742   4.162   4.116   1.499
 3241SOL    HW1 9743   4.244   4.060   1.508
 3241SOL    HW2 9744   4.081   4.058   1.503
 3242SOL     OW 9745   3.846   4.367   0.563
 3242SOL    HW1 9746   3.801   4.279   0.580
 3242SOL    HW2 9747   3.845   4.421   0.647
 3243SOL     OW 9748   3.837   4.461   1.597
 3243SOL    HW1 9749   3.925   4.448   1.642
 3243SOL    HW2 9750   3.824   4.558   1.575
 3244SOL     OW 9751   4.533   3.728   0.502
 3244SOL    HW1 9752   4.573   3.819   0.493
 3244SOL    HW2 9753   4.433   3.736   0.508
 3245SOL     OW 9754   3.921   4.700   1.264
 3245SOL    HW1 9755   4.010   4.655   1.250
 3245SOL    HW2 9756   3.848   4.635   1.245
 3246SOL     OW 9757   4.041   3.975   1.801
 3246SOL    HW1 9758   4.112   4.046   1.807
 3246SOL    HW2 9759   3.953   4.014   1.829
 3247SOL     OW 9760   4.322   4.453   0.270
 3247SOL    HW1 9761   4.346   4.522   0.202
 3247SOL    HW2 9762   4.244   4.486   0.324
 3248SOL     OW 9763   4.531   4.329   1.465
 3248SOL    HW1 9764   4.484   4.326   1.554
 3248SOL    HW2 9765   4.480   4.274   1.399
 3249SOL     OW 9766   4.715   4.134   1.242
 3249SOL    HW1 9767   4.638   4.168   1.296
 3249SOL    HW2 9768   4.681   4.083   1.163
 3250SOL     OW 9769   3.800   4.535   0.789
 3250SOL    HW1 9770   3.899   4.523   0.798
 3250SOL    HW2 9771   3.776   4.630   0.810
 3251SOL     OW 9772   4.589   4.072   0.195
 3251SOL    HW1 9773   4.648   4.135   0.146
 3251SOL    HW2 9774   4.608   3.978   0.166
 3252SOL     OW 9775   4.274   3.920   0.885
 3252SOL    HW1 9776   4.269   3.915   0.985
 3252SOL    HW2 9777   4.276   4.016   0.856
 3253SOL     OW 9778   3.926   4.009   1.498
 3253SOL    HW1 9779   3.846   4.069   1.485
 3253SOL    HW2 9780   3.916   3.960   1.584
 3254SOL     OW 9781   4.106   4.424   0.480
 3254SOL    HW1 9782   4.151   4.334   0.477
 3254SOL    HW2 9783   4.012   4.413   0.513
 3255SOL     OW 9784   4.505   3.988   1.749
 3255SOL    HW1 9785   4.572   3.927   1.792
 3255SOL    HW2 9786   4.432   4.007   1.814
 3256SOL     OW 9787   4.646   4.227   0.899
 3256SOL    HW1 9788   4.621   4.218   0.803
 3256SOL    HW2 9789   4.694   4.145   0.930
 3257SOL     OW 9790   4.263   3.788   0.512
 3257SOL    HW1 9791   4.182   3.789   0.570
 3257SOL    HW2 9792   4.266   3.871   0.457
 3258SOL     OW 9793   4.021   3.759   0.171
 3258SOL    HW1 9794   4.070   3.843   0.150
 3258SOL    HW2 9795   4.083   3.694   0.216
 3259SOL     OW 9796   3.802   4.280   1.386
 3259SOL    HW1 9797   3.894   4.279   1.345
 3259SOL    HW2 9798   3.796   4.354   1.453
 3260SOL     OW 9799   4.285   3.946   1.147
 3260SOL    HW1 9800   4.323   3.862   1.184
 3260SOL    HW2 9801   4.197   3.965   1.191
 3261SOL     OW 9802   4.251   3.980   0.328
 3261SOL    HW1 9803   4.278   3.921   0.253
 3261SOL    HW2 9804   4.251   4.075   0.297
 3262SOL     OW 9805   4.639   3.813   1.402
 3262SOL    HW1 9806   4.664   3.793   1.307
 3262SOL    HW2 9807   4.711   3.869   1.444
 3263SOL     OW 9808   4.134   4.537   1.251
 3263SOL    HW1 9809   4.220   4.549   1.301
 3263SOL    HW2 9810   4.092   4.450   1.278
 3264SOL     OW 9811   4.290   4.261   0.865
 3264SOL    HW1 9812   4.302   4.327   0.791
 3264SOL    HW2 9813   4.336   4.295   0.948
 3265SOL     OW 9814   4.126   4.475   1.598
 3265SOL    HW1 9815   4.194   4.530   1.551
 3265SOL    HW2 9816   4.166   4.387   1.625
 3266SOL     OW 9817   4.228   3.774   1.740
 3266SOL    HW1 9818   4.186   3.717   1.670
 3266SOL    HW2 9819   4.162   3.843   1.772
 3267SOL     OW 9820   4.297   4.594   1.029
 3267SOL    HW1 9821   4.341   4.683   1.020
 3267SOL    HW2 9822   4.234   4.594   1.106
 3268SOL     OW 9823   4.933   4.249   0.275
 3268SOL    HW1 9824   4.946   4.165   0.329
 3268SOL    HW2 9825   4.904   4.323   0.335
 3269SOL     OW 9826   4.031   3.937   1.231
 3269SOL    HW1 9827   4.008   3.974   1.321
 3269SOL    HW2 9828   4.001   3.842   1.225
 3270SOL     OW 9829   4.456   4.358   1.064
 3270SOL    HW1 9830   4.515   4.332   0.988
 3270SOL    HW2 9831   4.428   4.454   1.053
 3271SOL     OW 9832   4.031   3.787   0.618
 3271SOL    HW1 9833   4.020   3.881   0.651
 3271SOL    HW2 9834   4.026   3.724   0.695
 3272SOL     OW 9835   4.747   4.490   0.966
 3272SOL    HW1 9836   4.762   4.511   1.062
 3272SOL    HW2 9837   4.717   4.395   0.957
 3273SOL     OW 9838   4.074   4.622   1.804
 3273SOL    HW1 9839   4.150   4.666   1.852
 3273SOL    HW2 9840   4.109   4.575   1.722
 3274SOL     OW 9841   4.043   4.534   0.949
 3274SOL    HW1 9842   4.136   4.570   0.954
 3274SOL    HW2 9843   4.037   4.449   1.001
 3275SOL     OW 9844   4.063   4.233   1.006
 3275SOL    HW1 9845   4.011   4.150   0.989
 3275SOL    HW2 9846   4.140   4.238   0.942
 3276SOL     OW 9847   4.726   4.520   1.238
 3276SOL    HW1 9848   4.767   4.488   1.324
 3276SOL    HW2 9849   4.630   4.493   1.235
 3277SOL     OW 9850   3.764   4.268   1.114
 3277SOL    HW1 9851   3.849   4.235   1.073
 3277SOL    HW2 9852   3.777   4.283   1.212
 3278SOL     OW 9853   3.913   4.244   1.722
 3278SOL    HW1 9854   3.972   4.204   1.652
 3278SOL    HW2 9855   3.855   4.315   1.681
 3279SOL     OW 9856   4.539   4.296   0.325
 3279SOL    HW1 9857   4.546   4.207   0.279
 3279SOL    HW2 9858   4.445   4.330   0.317
 3280SOL     OW 9859   4.395   4.188   1.269
 3280SOL    HW1 9860   4.361   4.099   1.239
 3280SOL    HW2 9861   4.421   4.242   1.189
 3281SOL     OW 9862   4.197   4.224   0.191
 3281SOL    HW1 9863   4.258   4.304   0.195
 3281SOL    HW2 9864   4.102   4.255   0.198
 3282SOL     OW 9865   4.627   3.810   0.133
 3282SOL    HW1 9866   4.678   3.811   0.047
 3282SOL    HW2 9867   4.683   3.768   0.204
 3283SOL     OW 9868   3.987   4.050   0.720
 3283SOL    HW1 9869   3.908   4.101   0.686
 3283SOL    HW2 9870   3.978   4.035   0.818
 3284SOL     OW 9871   4.763   4.822   0.696
 3284SOL    HW1 9872   4.693   4.775   0.750
 3284SOL    HW2 9873   4.822   4.754   0.653
 3285SOL     OW 9874   3.829   4.737   1.726
 3285SOL    HW1 9875   3.752   4.704   1.780
 3285SOL    HW2 9876   3.914   4.707   1.768
 3286SOL     OW 9877   4.396   3.927   1.489
 3286SOL    HW1 9878   4.486   3.911   1.449
 3286SOL    HW2 9879   4.404   3.932   1.588
 3287SOL     OW 9880   3.796   3.890   0.318
 3287SOL    HW1 9881   3.779   3.973   0.264
 3287SOL    HW2 9882   3.886   3.853   0.296
 3288SOL     OW 9883   4.337   4.566   1.431
 3288SOL    HW1 9884   4.393   4.647   1.414
 3288SOL    HW2 9885   4.396   4.486   1.434
 3289SOL     OW 9886   4.440   4.289   1.708
 3289SOL    HW1 9887   4.459   4.354   1.782
 3289SOL    HW2 9888   4.500   4.209   1.717
 3290SOL     OW 9889   4.949   4.049   0.449
 3290SOL    HW1 9890   5.014   3.975   0.438
 3290SOL    HW2 9891   4.969   4.099   0.533
 3291SOL     OW 9892   4.318   4.469   0.652
 3291SOL    HW1 9893   4.368   4.554   0.633
 3291SOL    HW2 9894   4.230   4.471   0.604
 3292SOL     OW 9895   4.583   4.680   0.861
 3292SOL    HW1 9896   4.637   4.611   0.909
 3292SOL    HW2 9897   4.551   4.749   0.927
 3293SOL     OW 9898   4.152   4.148   0.520
 3293SOL    HW1 9899   4.182   4.076   0.458
 3293SOL    HW2 9900   4.113   4.108   0.603
 3294SOL     OW 9901   4.041   4.271   1.280
 3294SOL    HW1 9902   4.079   4.212   1.352
 3294SOL    HW2 9903   4.081   4.245   1.192
 3295SOL     OW 9904   4.725   3.758   1.154
 3295SOL    HW1 9905   4.662   3.686   1.123
 3295SOL    HW2 9906   4.818   3.722   1.154
 3296SOL     OW 9907   3.954   4.352   1.975
 3296SOL    HW1 9908   3.861   4.350   2.012
 3296SOL    HW2 9909   3.955   4.313   1.883
 3297SOL     OW 9910   3.949   3.999   2.858
 3297SOL    HW1 9911   3.984   3.982   2.950
 3297SOL    HW2 9912   3.861   3.954   2.846
 3298SOL     OW 9913   3.743   4.092   2.509
 3298SOL    HW1 9914   3.661   4.135   2.548
 3298SOL    HW2 9915   3.715   4.019   2.446
 3299SOL     OW 9916   4.574   4.522   3.685
 3299SOL    HW1 9917   4.570   4.598   3.750
 3299SOL    HW2 9918   4.596   4.558   3.594
 3300SOL     OW 9919   4.409   4.736   2.527
 3300SOL    HW1 9920   4.478   4.720   2.597
 3300SOL    HW2 9921   4.336   4.793   2.565
 3301SOL     OW 9922   4.162   4.116   3.361
 3301SOL    HW1 9923   4.244   4.060   3.370
 3301SOL    HW2 9924   4.081   4.058   3.365
 3302SOL     OW 9925   3.846   4.367   2.425
 3302SOL    HW1 9926   3.801   4.279   2.442
 3302SOL    HW2 9927   3.845   4.421   2.509
 3303SOL     OW 9928   3.837   4.461   3.459
 3303SOL    HW1 9929   3.925   4.448   3.504
 3303SOL    HW2 9930   3.824   4.558   3.437
 3304SOL     OW 9931   4.533   3.728   2.364
 3304SOL    HW1 9932   4.573   3.819   2.355
 3304SOL    HW2 9933   4.433   3.736   2.370
 3305SOL     OW 9934   3.921   4.700   3.126
 3305SOL    HW1 9935   4.010   4.655   3.112
 3305SOL    HW2 9936   3.848   4.635   3.107
 3306SOL     OW 9937   4.041   3.975   3.663
 3306SOL    HW1 9938   4.112   4.046   3.669
 3306SOL    HW2 9939   3.953   4.014   3.691
 3307SOL     OW 9940   4.322   4.453   2.132
 3307SOL    HW1 9941   4.346   4.522   2.064
 3307SOL    HW2 9942   4.244   4.486   2.186
 3308SOL     OW 9943   4.531   4.329   3.327
 3308SOL    HW1 9944   4.484   4.326   3.416
 3308SOL    HW2 9945   4.480   4.274   3.261
 3309SOL     OW 9946   4.715   4.134   3.104
 3309SOL    HW1 9947   4.638   4.168   3.158
 3309SOL    HW2 9948   4.681   4.083   3.025
 3310SOL     OW 9949   3.800   4.535   2.651
 3310SOL    HW1 9950   3.899   4.523   2.660
 3310SOL    HW2 9951   3.776   4.630   2.672
 3311SOL     OW 9952   4.589   4.072   2.057
 3311SOL    HW1 9953   4.648   4.135   2.008
 3311SOL    HW2 9954   4.608   3.978   2.028
 3312SOL     OW 9955   4.274   3.920   2.747
 3312SOL    HW1 9956   4.269   3.915   2.847
 3312SOL    HW2 9957   4.276   4.016   2.718
 3313SOL     OW 9958   3.926   4.009   3.360
 3313SOL    HW1 9959   3.846   4.069   3.347
 3313SOL    HW2 9960   3.916   3.960   3.446
 3314SOL     OW 9961   4.106   4.424   2.342
 3314SOL    HW1 9962   4.151   4.334   2.339
 3314SOL    HW2 9963   4.012   4.413   2.375
 3315SOL     OW 9964   4.338   3.846   1.979
 3315SOL    HW1 9965   4.436   3.824   1.986
 3315SOL    HW2 9966   4.307   3.829   1.886
 3316SOL     OW 9967   4.505   3.988   3.611
 3316SOL    HW1 9968   4.572   3.927   3.654
 3316SOL    HW2 9969   4.432   4.007   3.676
 3317SOL     OW 9970   4.646   4.227   2.761
 3317SOL    HW1 9971   4.621   4.218   2.665
 3317SOL    HW2 9972   4.694   4.145   2.792
 3318SOL     OW 9973   4.263   3.788   2.374
 3318SOL    HW1 9974   4.182   3.789   2.432
 3318SOL    HW2 9975   4.266   3.871   2.319
 3319SOL     OW 9976   4.021   3.759   2.033
 3319SOL    HW1 9977   4.070   3.843   2.012
 3319SOL    HW2 9978   4.083   3.694   2.078
 3320SOL     OW 9979   3.802   4.280   3.248
 3320SOL    HW1 9980   3.894   4.279   3.207
 3320SOL    HW2 9981   3.796   4.354   3.315
 3321SOL     OW 9982   4.285   3.946   3.009
 3321SOL    HW1 9983   4.323   3.862   3.046
 3321SOL    HW2 9984   4.197   3.965   3.053
 3322SOL     OW 9985   4.251   3.980   2.190
 3322SOL    HW1 9986   4.278   3.921   2.115
 3322SOL    HW2 9987   4.251   4.075   2.159
 3323SOL     OW 9988   4.639   3.813   3.264
 3323SOL    HW1 9989   4.664   3.793   3.169
 3323SOL    HW2 9990   4.711   3.869   3.306
 3324SOL     OW 9991   4.134   4.537   3.113
 3324SOL    HW1 9992   4.220   4.549   3.163
 3324SOL    HW2 9993   4.092   4.450   3.140
 3325SOL     OW 9994   4.290   4.261   2.727
 3325SOL    HW1 9995   4.302   4.327   2.653
 3325SOL    HW2 9996   4.336   4.295   2.810
 3326SOL     OW 9997   4.126   4.475   3.460
 3326SOL    HW1 9998   4.194   4.530   3.413
 3326SOL    HW2 9999   4.166   4.387   3.487
 3327SOL     OW10000   4.228   3.774   3.602
 3327SOL    HW110001   4.186   3.717   3.532
 3327SOL    HW210002   4.162   3.843   3.634
 3328SOL     OW10003   4.297   4.594   2.891
 3328SOL    HW110004   4.341   4.683   2.882
 3328SOL    HW210005   4.234   4.594   2.968
 3329SOL     OW10006   4.933   4.249   2.137
 3329SOL    HW110007   4.946   4.165   2.191
 3329SOL    HW210008   4.904   4.323   2.197
 3330SOL     OW10009   4.031   3.937   3.093
 3330SOL    HW110010   4.008   3.974   3.183
 3330SOL    HW210011   4.001   3.842   3.087
 3331SOL     OW10012   4.456   4.358   2.926
 3331SOL    HW110013   4.515   4.332   2.850
 3331SOL    HW210014   4.428   4.454   2.915
 3332SOL     OW10015   4.031   3.787   2.480
 3332SOL    HW110016   4.020   3.881   2.513
 3332SOL    HW210017   4.026   3.724   2.557
 3333SOL     OW10018   4.747   4.490   2.828
 3333SOL    HW110019   4.762   4.511   2.924
 3333SOL    HW210020   4.717   4.395   2.819
 3334SOL     OW10021   4.074   4.622   3.666
 3334SOL    HW110022   4.150   4.666   3.714
 3334SOL    HW210023   4.109   4.575   3.584
 3335SOL     OW10024   4.043   4.534   2.811
 3335SOL    HW110025   4.136   4.570   2.816
 3335SOL    HW210026   4.037   4.449   2.863
 3336SOL     OW10027   4.063   4.233   2.868
 3336SOL    HW110028   4.011   4.150   2.851
 3336SOL    HW210029   4.140   4.238   2.804
 3337SOL     OW10030   4.726   4.520   3.100
 3337SOL    HW110031   4.767   4.488   3.186
 3337SOL    HW210032   4.630   4.493   3.097
 3338SOL     OW10033   3.764   4.268   2.976
 3338SOL    HW110034   3.849   4.235   2.935
 3338SOL    HW210035   3.777   4.283   3.074
 3339SOL     OW10036   3.913   4.244   3.584
 3339SOL    HW110037   3.972   4.204   3.514
 3339SOL    HW210038   3.855   4.315   3.543
 3340SOL     OW10039   4.539   4.296   2.187
 3340SOL    HW110040   4.546   4.207   2.141
 3340SOL    HW210041   4.445   4.330   2.179
 3341SOL     OW10042   4.395   4.188   3.131
 3341SOL    HW110043   4.361   4.099   3.101
 3341SOL    HW210044   4.421   4.242   3.051
 3342SOL     OW10045   4.197   4.224   2.053
 3342SOL    HW110046   4.258   4.304   2.057
 3342SOL    HW210047   4.102   4.255   2.060
 3343SOL     OW10048   4.627   3.810   1.995
 3343SOL    HW110049   4.678   3.811   1.909
 3343SOL    HW210050   4.683   3.768   2.066
 3344SOL     OW10051   3.987   4.050   2.582
 3344SOL    HW110052   3.908   4.101   2.548
 3344SOL    HW210053   3.978   4.035   2.680
 3345SOL     OW10054   4.763   4.822   2.558
 3345SOL    HW110055   4.693   4.775   2.612
 3345SOL    HW210056   4.822   4.754   2.515
 3346SOL     OW10057   3.829   4.737   3.588
 3346SOL    HW110058   3.752   4.704   3.642
 3346SOL    HW210059   3.914   4.707   3.630
 3347SOL     OW10060   4.396   3.927   3.351
 3347SOL    HW110061   4.486   3.911   3.311
 3347SOL    HW210062   4.404   3.932   3.450
 3348SOL     OW10063   3.799   4.069   1.895
 3348SOL    HW110064   3.707   4.041   1.866
 3348SOL    HW210065   3.830   4.146   1.839
 3349SOL     OW10066   3.796   3.890   2.180
 3349SOL    HW110067   3.779   3.973   2.126
 3349SOL    HW210068   3.886   3.853   2.158
 3350SOL     OW10069   4.337   4.566   3.293
 3350SOL    HW110070   4.393   4.647   3.276
 3350SOL    HW210071   4.396   4.486   3.296
 3351SOL     OW10072   4.440   4.289   3.570
 3351SOL    HW110073   4.459   4.354   3.644
 3351SOL    HW210074   4.500   4.209   3.579
 3352SOL     OW10075   4.949   4.049   2.311
 3352SOL    HW110076   5.014   3.975   2.300
 3352SOL    HW210077   4.969   4.099   2.395
 3353SOL     OW10078   4.318   4.469   2.514
 3353SOL    HW110079   4.368   4.554   2.495
 3353SOL    HW210080   4.230   4.471   2.466
 3354SOL     OW10081   4.583   4.680   2.723
 3354SOL    HW110082   4.637   4.611   2.771
 3354SOL    HW210083   4.551   4.749   2.789
 3355SOL     OW10084   4.152   4.148   2.382
 3355SOL    HW110085   4.182   4.076   2.320
 3355SOL    HW210086   4.113   4.108   2.465
 3356SOL     OW10087   4.041   4.271   3.142
 3356SOL    HW110088   4.079   4.212   3.214
 3356SOL    HW210089   4.081   4.245   3.054
 3357SOL     OW10090   4.725   3.758   3.016
 3357SOL    HW110091   4.662   3.686   2.985
 3357SOL    HW210092   4.818   3.722   3.016
 3358SOL     OW10093   3.954   4.352   3.837
 3358SOL    HW110094   3.861   4.350   3.874
 3358SOL    HW210095   3.955   4.313   3.745
 3359SOL     OW10096   3.949   3.999   4.720
 3359SOL    HW110097   3.984   3.982   4.812
 3359SOL    HW210098   3.861   3.954   4.708
 3360SOL     OW10099   3.743   4.092   4.371
 3360SOL    HW110100   3.661   4.135   4.410
 3360SOL    HW210101   3.715   4.019   4.308
 3361SOL     OW10102   4.409   4.736   4.389
 3361SOL    HW110103   4.478   4.720   4.459
 3361SOL    HW210104   4.336   4.793   4.427
 3362SOL     OW10105   3.846   4.367   4.287
 3362SOL    HW110106   3.801   4.279   4.304
 3362SOL    HW210107   3.845   4.421   4.371
 3363SOL     OW10108   4.533   3.728   4.226
 3363SOL    HW110109   4.573   3.819   4.217
 3363SOL    HW210110   4.433   3.736   4.232
 3364SOL     OW10111   4.322   4.453   3.994
 3364SOL    HW110112   4.346   4.522   3.926
 3364SOL    HW210113   4.244   4.486   4.048
 3365SOL     OW10114   3.800   4.535   4.513
 3365SOL    HW110115   3.899   4.523   4.522
 3365SOL    HW210116   3.776   4.630   4.534
 3366SOL     OW10117   4.589   4.072   3.919
 3366SOL    HW110118   4.648   4.135   3.870
 3366SOL    HW210119   4.608   3.978   3.890
 3367SOL     OW10120   4.274   3.920   4.609
 3367SOL    HW110121   4.269   3.915   4.709
 3367SOL    HW210122   4.276   4.016   4.580
 3368SOL     OW10123   4.106   4.424   4.204
 3368SOL    HW110124   4.151   4.334   4.201
 3368SOL    HW210125   4.012   4.413   4.237
 3369SOL     OW10126   4.338   3.846   3.841
 3369SOL    HW110127   4.436   3.824   3.848
 3369SOL    HW210128   4.307   3.829   3.748
 3370SOL     OW10129   4.263   3.788   4.236
 3370SOL    HW110130   4.182   3.789   4.294
 3370SOL    HW210131   4.266   3.871   4.181
 3371SOL     OW10132   4.021   3.759   3.895
 3371SOL    HW110133   4.070   3.843   3.874
 3371SOL    HW210134   4.083   3.694   3.940
 3372SOL     OW10135   4.251   3.980   4.052
 3372SOL    HW110136   4.278   3.921   3.977
 3372SOL    HW210137   4.251   4.075   4.021
 3373SOL     OW10138   4.290   4.261   4.589
 3373SOL    HW110139   4.302   4.327   4.515
 3373SOL    HW210140   4.336   4.295   4.672
 3374SOL     OW10141   4.933   4.249   3.999
 3374SOL    HW110142   4.946   4.165   4.053
 3374SOL    HW210143   4.904   4.323   4.059
 3375SOL     OW10144   4.456   4.358   4.788
 3375SOL    HW110145   4.515   4.332   4.712
 3375SOL    HW210146   4.428   4.454   4.777
 3376SOL     OW10147   4.031   3.787   4.342
 3376SOL    HW110148   4.020   3.881   4.375
 3376SOL    HW210149   4.026   3.724   4.419
 3377SOL     OW10150   4.747   4.490   4.690
 3377SOL    HW110151   4.762   4.511   4.786
 3377SOL    HW210152   4.717   4.395   4.681
 3378SOL     OW10153   4.043   4.534   4.673
 3378SOL    HW110154   4.136   4.570   4.678
 3378SOL    HW210155   4.037   4.449   4.725
 3379SOL     OW10156   4.726   4.520   4.962
 3379SOL    HW110157   4.767   4.488   5.048
 3379SOL    HW210158   4.630   4.493   4.959
 3380SOL     OW10159   4.539   4.296   4.049
 3380SOL    HW110160   4.546   4.207   4.003
 3380SOL    HW210161   4.445   4.330   4.041
 3381SOL     OW10162   4.197   4.224   3.915
 3381SOL    HW110163   4.258   4.304   3.919
 3381SOL    HW210164   4.102   4.255   3.922
 3382SOL     OW10165   4.627   3.810   3.857
 3382SOL    HW110166   4.678   3.811   3.771
 3382SOL    HW210167   4.683   3.768   3.928
 3383SOL     OW10168   3.987   4.050   4.444
 3383SOL    HW110169   3.908   4.101   4.410
 3383SOL    HW210170   3.978   4.035   4.542
 3384SOL     OW10171   4.763   4.822   4.420
 3384SOL    HW110172   4.693   4.775   4.474
 3384SOL    HW210173   4.822   4.754   4.377
 3385SOL     OW10174   3.799   4.069   3.757
 3385SOL    HW110175   3.707   4.041   3.728
 3385SOL    HW210176   3.830   4.146   3.701
 3386SOL     OW10177   3.796   3.890   4.042
 3386SOL    HW110178   3.779   3.973   3.988
 3386SOL    HW210179   3.886   3.853   4.020
 3387SOL     OW10180   4.949   4.049   4.173
 3387SOL    HW110181   5.014   3.975   4.162
 3387SOL    HW210182   4.969   4.099   4.257
 3388SOL     OW10183   4.318   4.469   4.376
 3388SOL    HW110184   4.368   4.554   4.357
 3388SOL    HW210185   4.230   4.471   4.328
 3389SOL     OW10186   4.583   4.680   4.585
 3389SOL    HW110187   4.637   4.611   4.633
 3389SOL    HW210188   4.551   4.749   4.651
 3390SOL     OW10189   4.152   4.148   4.244
 3390SOL    HW110190   4.182   4.076   4.182
 3390SOL    HW210191   4.113   4.108   4.327
   4.70929   4.70929   4.70929
