; mobley_2929847_GMX_OPLS.top created by acpype (v: 2023.10.27) on Thu May 21 00:03:56 2026

; Include forcefield parameters
#include "ffoplsaa.itp"

; Include mobley_2929847_GMX.itp topology
#include "mobley_2929847_GMX.itp"

; Ligand position restraints
#ifdef POSRES_LIG
#include "posre_mobley_2929847.itp"
#endif

[ system ]
 mobley_2929847

[ molecules ]
; Compound        nmols
 mobley_2929847   1     
