3_methylbutanoic_acid
    17
  -2.8820000  -1.5800000  -0.6670000   0.0230000  -1.0820000  -0.1670000
   0.3920000  -0.8160000  -2.6290000  -1.9630000  -0.9780000  -1.7030000
  -0.5050000  -1.4420000  -1.5570000  -3.5150000  -0.9660000   0.1790000
  -2.9440000  -2.9270000  -0.8230000  -0.5800000  -1.5590000   0.6130000
   0.0000000   0.0000000  -0.0000000   1.0560000  -1.4230000  -0.0430000
   0.3870000   0.2780000  -2.5620000   1.4260000  -1.1550000  -2.5130000
   0.0640000  -1.0940000  -3.6350000  -2.3360000  -1.2380000  -2.7010000
  -2.0240000   0.1110000  -1.5850000  -0.4570000  -2.5330000  -1.6650000
  -3.5550000  -3.3420000  -0.1770000
