; mobley_2929847_GMX_OPLS.itp created by acpype (v: 2023.10.27) on Thu May 21 00:03:56 2026

; For OPLS atomtypes manual fine tuning
; AC_at:OPLS_at:OPLScode: Possible_Alternatives (see ffoplsaa.atp and ffoplsaanb.itp)
; c:C:opls_235: ['271']
; c3:CT:opls_135: ['136', '137', '149', '157', '158', '206', '209', '210', '223B', '224B', '245', '246', '274', '283', '284', '285', '292', '292B', '293B', '296', '307', '308', '505']
; o:O:opls_236: ['272']
; oh:OH:opls_154: ['167']
; hc:HC:opls_140: []
; ho:HO:opls_155: ['168']

[ moleculetype ]
;name            nrexcl
 mobley_2929847   3

[ atoms ]
;   nr  type  resi  res  atom  cgnr     charge      mass       ; qtot   bond_type
     1 opls_235     1   MOL    C1    1     0.635098     12.01100 ; qtot  0.635  C   
     2 opls_135     1   MOL    C2    2    -0.098100     12.01100 ; qtot  0.537  CT  
     3 opls_135     1   MOL    C3    3    -0.098100     12.01100 ; qtot  0.439  CT  
     4 opls_135     1   MOL    C4    4    -0.126400     12.01100 ; qtot  0.312  CT  
     5 opls_135     1   MOL    C5    5    -0.058700     12.01100 ; qtot  0.254  CT  
     6 opls_236     1   MOL    O1    6    -0.553000     15.99940 ; qtot -0.299  O   
     7 opls_154     1   MOL    O2    7    -0.611100     15.99940 ; qtot -0.910  OH  
     8 opls_140     1   MOL    H1    8     0.041867      1.00800 ; qtot -0.868  HC  
     9 opls_140     1   MOL    H2    9     0.041867      1.00800 ; qtot -0.827  HC  
    10 opls_140     1   MOL    H3   10     0.041867      1.00800 ; qtot -0.785  HC  
    11 opls_140     1   MOL    H4   11     0.041867      1.00800 ; qtot -0.743  HC  
    12 opls_140     1   MOL    H5   12     0.041867      1.00800 ; qtot -0.701  HC  
    13 opls_140     1   MOL    H6   13     0.041867      1.00800 ; qtot -0.659  HC  
    14 opls_140     1   MOL    H7   14     0.079700      1.00800 ; qtot -0.579  HC  
    15 opls_140     1   MOL    H8   15     0.079700      1.00800 ; qtot -0.500  HC  
    16 opls_140     1   MOL    H9   16     0.056700      1.00800 ; qtot -0.443  HC  
    17 opls_155     1   MOL   H10   17     0.443000      1.00800 ; qtot  0.000  HO  

[ bonds ]
;   ai     aj funct   r             k
     1      4   1 ;    1.5270e-01    1.9652e+05 ;     C1 - C4          C - CT    
     1      6   1 ;    1.2190e-01    4.9421e+05 ;     C1 - O1          C - O     
     1      7   1 ;    1.3556e-01    3.0064e+05 ;     C1 - O2          C - OH    
     2      5   1 ;    1.5354e-01    1.9154e+05 ;     C2 - C5         CT - CT    
     2      8   1 ;    1.0962e-01    2.8891e+05 ;     C2 - H1         CT - HC    
     2      9   1 ;    1.0962e-01    2.8891e+05 ;     C2 - H2         CT - HC    
     2     10   1 ;    1.0962e-01    2.8891e+05 ;     C2 - H3         CT - HC    
     3      5   1 ;    1.5354e-01    1.9154e+05 ;     C3 - C5         CT - CT    
     3     11   1 ;    1.0962e-01    2.8891e+05 ;     C3 - H4         CT - HC    
     3     12   1 ;    1.0962e-01    2.8891e+05 ;     C3 - H5         CT - HC    
     3     13   1 ;    1.0962e-01    2.8891e+05 ;     C3 - H6         CT - HC    
     4      5   1 ;    1.5354e-01    1.9154e+05 ;     C4 - C5         CT - CT    
     4     14   1 ;    1.0962e-01    2.8891e+05 ;     C4 - H7         CT - HC    
     4     15   1 ;    1.0962e-01    2.8891e+05 ;     C4 - H8         CT - HC    
     5     16   1 ;    1.0962e-01    2.8891e+05 ;     C5 - H9         CT - HC    
     7     17   1 ;    9.7250e-02    4.4811e+05 ;     O2 - H10        OH - HO    

[ pairs ]
;   ai     aj    funct
     1      2      1 ;     C1 - C2    
     1      3      1 ;     C1 - C3    
     1     16      1 ;     C1 - H9    
     2     11      1 ;     C2 - H4    
     2     12      1 ;     C2 - H5    
     2     13      1 ;     C2 - H6    
     2     14      1 ;     C2 - H7    
     2     15      1 ;     C2 - H8    
     3      8      1 ;     C3 - H1    
     3      9      1 ;     C3 - H2    
     3     10      1 ;     C3 - H3    
     3     14      1 ;     C3 - H7    
     3     15      1 ;     C3 - H8    
     4      8      1 ;     C4 - H1    
     4      9      1 ;     C4 - H2    
     4     10      1 ;     C4 - H3    
     4     11      1 ;     C4 - H4    
     4     12      1 ;     C4 - H5    
     4     13      1 ;     C4 - H6    
     4     17      1 ;     C4 - H10   
     6      5      1 ;     O1 - C5    
     6     14      1 ;     O1 - H7    
     6     15      1 ;     O1 - H8    
     6     17      1 ;     O1 - H10   
     7      5      1 ;     O2 - C5    
     7     14      1 ;     O2 - H7    
     7     15      1 ;     O2 - H8    
     8     16      1 ;     H1 - H9    
     9     16      1 ;     H2 - H9    
    10     16      1 ;     H3 - H9    
    11     16      1 ;     H4 - H9    
    12     16      1 ;     H5 - H9    
    13     16      1 ;     H6 - H9    
    14     16      1 ;     H7 - H9    
    15     16      1 ;     H8 - H9    

[ angles ]
;   ai     aj     ak    funct   theta         cth
     1      4      5      1 ;    1.1143e+02    5.0509e+02 ;     C1 - C4   - C5        C -   CT - CT  
     1      4     14      1 ;    1.0895e+02    3.6510e+02 ;     C1 - C4   - H7        C -   CT - HC  
     1      4     15      1 ;    1.0895e+02    3.6510e+02 ;     C1 - C4   - H8        C -   CT - HC  
     1      7     17      1 ;    1.0654e+02    5.7287e+02 ;     C1 - O2   - H10       C -   OH - HO  
     2      5      3      1 ;    1.1263e+02    5.0099e+02 ;     C2 - C5   - C3       CT -   CT - CT  
     2      5      4      1 ;    1.1263e+02    5.0099e+02 ;     C2 - C5   - C4       CT -   CT - CT  
     2      5     16      1 ;    1.0968e+02    3.6208e+02 ;     C2 - C5   - H9       CT -   CT - HC  
     3      5      4      1 ;    1.1263e+02    5.0099e+02 ;     C3 - C5   - C4       CT -   CT - CT  
     3      5     16      1 ;    1.0968e+02    3.6208e+02 ;     C3 - C5   - H9       CT -   CT - HC  
     4      1      6      1 ;    1.2290e+02    6.3973e+02 ;     C4 - C1   - O1       CT -    C - O   
     4      1      7      1 ;    1.1274e+02    6.4785e+02 ;     C4 - C1   - O2       CT -    C - OH  
     4      5     16      1 ;    1.0968e+02    3.6208e+02 ;     C4 - C5   - H9       CT -   CT - HC  
     5      2      8      1 ;    1.0968e+02    3.6208e+02 ;     C5 - C2   - H1       CT -   CT - HC  
     5      2      9      1 ;    1.0968e+02    3.6208e+02 ;     C5 - C2   - H2       CT -   CT - HC  
     5      2     10      1 ;    1.0968e+02    3.6208e+02 ;     C5 - C2   - H3       CT -   CT - HC  
     5      3     11      1 ;    1.0968e+02    3.6208e+02 ;     C5 - C3   - H4       CT -   CT - HC  
     5      3     12      1 ;    1.0968e+02    3.6208e+02 ;     C5 - C3   - H5       CT -   CT - HC  
     5      3     13      1 ;    1.0968e+02    3.6208e+02 ;     C5 - C3   - H6       CT -   CT - HC  
     5      4     14      1 ;    1.0968e+02    3.6208e+02 ;     C5 - C4   - H7       CT -   CT - HC  
     5      4     15      1 ;    1.0968e+02    3.6208e+02 ;     C5 - C4   - H8       CT -   CT - HC  
     6      1      7      1 ;    1.2209e+02    8.5379e+02 ;     O1 - C1   - O2        O -    C - OH  
     8      2      9      1 ;    1.0773e+02    2.9957e+02 ;     H1 - C2   - H2       HC -   CT - HC  
     8      2     10      1 ;    1.0773e+02    2.9957e+02 ;     H1 - C2   - H3       HC -   CT - HC  
     9      2     10      1 ;    1.0773e+02    2.9957e+02 ;     H2 - C2   - H3       HC -   CT - HC  
    11      3     12      1 ;    1.0773e+02    2.9957e+02 ;     H4 - C3   - H5       HC -   CT - HC  
    11      3     13      1 ;    1.0773e+02    2.9957e+02 ;     H4 - C3   - H6       HC -   CT - HC  
    12      3     13      1 ;    1.0773e+02    2.9957e+02 ;     H5 - C3   - H6       HC -   CT - HC  
    14      4     15      1 ;    1.0773e+02    2.9957e+02 ;     H7 - C4   - H8       HC -   CT - HC  

[ dihedrals ] ; propers
; for gromacs 4.5 or higher, using funct 9
;    i      j      k      l   func   phase     kd      pn
     1      4      5      2      9 ;     0.00   0.00000   0 ;     C1-    C4-    C5-    C2
     1      4      5      2      9 ;     0.00   0.16736   2 ;     C1-    C4-    C5-    C2
     1      4      5      2      9 ;   180.00   1.92464   1 ;     C1-    C4-    C5-    C2
     1      4      5      3      9 ;     0.00   0.00000   0 ;     C1-    C4-    C5-    C3
     1      4      5      3      9 ;     0.00   0.16736   2 ;     C1-    C4-    C5-    C3
     1      4      5      3      9 ;   180.00   1.92464   1 ;     C1-    C4-    C5-    C3
     1      4      5     16      9 ;     0.00   0.65084   3 ;     C1-    C4-    C5-    H9
     2      5      3     11      9 ;     0.00   0.54392   3 ;     C2-    C5-    C3-    H4
     2      5      3     12      9 ;     0.00   0.54392   3 ;     C2-    C5-    C3-    H5
     2      5      3     13      9 ;     0.00   0.54392   3 ;     C2-    C5-    C3-    H6
     2      5      4     14      9 ;     0.00   0.54392   3 ;     C2-    C5-    C4-    H7
     2      5      4     15      9 ;     0.00   0.54392   3 ;     C2-    C5-    C4-    H8
     3      5      2      8      9 ;     0.00   0.54392   3 ;     C3-    C5-    C2-    H1
     3      5      2      9      9 ;     0.00   0.54392   3 ;     C3-    C5-    C2-    H2
     3      5      2     10      9 ;     0.00   0.54392   3 ;     C3-    C5-    C2-    H3
     3      5      4     14      9 ;     0.00   0.54392   3 ;     C3-    C5-    C4-    H7
     3      5      4     15      9 ;     0.00   0.54392   3 ;     C3-    C5-    C4-    H8
     4      1      7     17      9 ;   180.00   7.53120   2 ;     C4-    C1-    O2-   H10
     4      5      2      8      9 ;     0.00   0.54392   3 ;     C4-    C5-    C2-    H1
     4      5      2      9      9 ;     0.00   0.54392   3 ;     C4-    C5-    C2-    H2
     4      5      2     10      9 ;     0.00   0.54392   3 ;     C4-    C5-    C2-    H3
     4      5      3     11      9 ;     0.00   0.54392   3 ;     C4-    C5-    C3-    H4
     4      5      3     12      9 ;     0.00   0.54392   3 ;     C4-    C5-    C3-    H5
     4      5      3     13      9 ;     0.00   0.54392   3 ;     C4-    C5-    C3-    H6
     6      1      4      5      9 ;     0.00   2.84512   1 ;     O1-    C1-    C4-    C5
     6      1      4      5      9 ;   180.00   0.83680   2 ;     O1-    C1-    C4-    C5
     6      1      4      5      9 ;   180.00   1.84096   3 ;     O1-    C1-    C4-    C5
     6      1      4     14      9 ;     0.00  16.86152   1 ;     O1-    C1-    C4-    H7
     6      1      4     14      9 ;   180.00  15.31344   2 ;     O1-    C1-    C4-    H7
     6      1      4     15      9 ;     0.00  16.86152   1 ;     O1-    C1-    C4-    H8
     6      1      4     15      9 ;   180.00  15.31344   2 ;     O1-    C1-    C4-    H8
     6      1      7     17      9 ;     0.00   7.94960   1 ;     O1-    C1-    O2-   H10
     6      1      7     17      9 ;   180.00   9.62320   2 ;     O1-    C1-    O2-   H10
     7      1      4      5      9 ;   180.00   0.00000   2 ;     O2-    C1-    C4-    C5
     7      1      4     14      9 ;   180.00   0.00000   2 ;     O2-    C1-    C4-    H7
     7      1      4     15      9 ;   180.00   0.00000   2 ;     O2-    C1-    C4-    H8
     8      2      5     16      9 ;     0.00   0.50208   3 ;     H1-    C2-    C5-    H9
     9      2      5     16      9 ;     0.00   0.50208   3 ;     H2-    C2-    C5-    H9
    10      2      5     16      9 ;     0.00   0.50208   3 ;     H3-    C2-    C5-    H9
    11      3      5     16      9 ;     0.00   0.50208   3 ;     H4-    C3-    C5-    H9
    12      3      5     16      9 ;     0.00   0.50208   3 ;     H5-    C3-    C5-    H9
    13      3      5     16      9 ;     0.00   0.50208   3 ;     H6-    C3-    C5-    H9
    14      4      5     16      9 ;     0.00   0.50208   3 ;     H7-    C4-    C5-    H9
    15      4      5     16      9 ;     0.00   0.50208   3 ;     H8-    C4-    C5-    H9

[ dihedrals ] ; impropers
; treated as propers in GROMACS to use correct AMBER analytical function
;    i      j      k      l   func   phase     kd      pn
     7      1      6      4      4 ;   180.00   4.60240   2 ;     O2-    C1-    O1-    C4
