mobley_2929847_GMX.gro created by acpype (v: 2023.10.27) on Thu May 21 00:03:56 2026
 17
    1  MOL   C1    1  -0.288  -0.158  -0.067
    1  MOL   C2    2   0.002  -0.108  -0.017
    1  MOL   C3    3   0.039  -0.082  -0.263
    1  MOL   C4    4  -0.196  -0.098  -0.170
    1  MOL   C5    5  -0.051  -0.144  -0.156
    1  MOL   O1    6  -0.352  -0.097   0.018
    1  MOL   O2    7  -0.294  -0.293  -0.082
    1  MOL   H1    8  -0.058  -0.156   0.061
    1  MOL   H2    9   0.000   0.000  -0.000
    1  MOL   H3   10   0.106  -0.142  -0.004
    1  MOL   H4   11   0.039   0.028  -0.256
    1  MOL   H5   12   0.143  -0.116  -0.251
    1  MOL   H6   13   0.006  -0.109  -0.363
    1  MOL   H7   14  -0.234  -0.124  -0.270
    1  MOL   H8   15  -0.202   0.011  -0.159
    1  MOL   H9   16  -0.046  -0.253  -0.167
    1  MOL  H10   17  -0.356  -0.334  -0.018
    9.96200     7.24000     8.49600
