; mobley_1857976_GMX_OPLS.top created by acpype (v: 2023.10.27) on Wed May 20 23:48:21 2026

; Include forcefield parameters
#include "ffoplsaa.itp"

; Include mobley_1857976_GMX.itp topology
#include "mobley_1857976_GMX.itp"

; Ligand position restraints
#ifdef POSRES_LIG
#include "posre_mobley_1857976.itp"
#endif

[ system ]
 mobley_1857976

[ molecules ]
; Compound        nmols
 mobley_1857976   1     
