12_dichloroethane
     8
  -0.3490000   0.4170000  -0.9490000  -1.3750000  -0.5100000  -1.5790000
   1.0830000   0.6230000  -1.9860000  -1.9770000   0.1240000  -3.1300000
  -0.7690000   1.4090000  -0.7520000   0.0000000   0.0000000   0.0000000
  -2.2400000  -0.6140000  -0.9180000  -0.9600000  -1.5070000  -1.7580000
