mobley_1857976_GMX.gro created by acpype (v: 2023.10.27) on Wed May 20 23:48:21 2026
 8
    1  MOL   C1    1  -0.035   0.042  -0.095
    1  MOL   C2    2  -0.138  -0.051  -0.158
    1  MOL  CL1    3   0.108   0.062  -0.199
    1  MOL  CL2    4  -0.198   0.012  -0.313
    1  MOL   H1    5  -0.077   0.141  -0.075
    1  MOL   H2    6   0.000   0.000   0.000
    1  MOL   H3    7  -0.224  -0.061  -0.092
    1  MOL   H4    8  -0.096  -0.151  -0.176
    6.64600     5.83200     6.26000
