; mobley_7326982_GMX_OPLS.top created by acpype (v: 2023.10.27) on Wed May 20 23:56:23 2026

; Include forcefield parameters
#include "ffoplsaa.itp"

; Include mobley_7326982_GMX.itp topology
#include "mobley_7326982_GMX.itp"

; Ligand position restraints
#ifdef POSRES_LIG
#include "posre_mobley_7326982.itp"
#endif

[ system ]
 mobley_7326982

[ molecules ]
; Compound        nmols
 mobley_7326982   1     
