; mobley_7326982_GMX.itp created by acpype (v: 2023.10.27) on Wed May 20 23:56:23 2026

[ atomtypes ]
;name   bond_type     mass     charge   ptype   sigma         epsilon       Amb
 c3       c3          0.00000  0.00000   A     3.39771e-01   4.51035e-01 ; 1.91  0.1078
 oh       oh          0.00000  0.00000   A     3.24287e-01   3.89112e-01 ; 1.82  0.0930
 hc       hc          0.00000  0.00000   A     2.60018e-01   8.70272e-02 ; 1.46  0.0208
 h1       h1          0.00000  0.00000   A     2.42200e-01   8.70272e-02 ; 1.36  0.0208
 ho       ho          0.00000  0.00000   A     5.37925e-02   1.96648e-02 ; 0.30  0.0047

[ moleculetype ]
;name            nrexcl
 mobley_7326982   3

[ atoms ]
;   nr  type  resi  res  atom  cgnr     charge      mass       ; qtot   bond_type
     1   c3     1   MOL    C1    1    -0.129100     12.01000 ; qtot -0.129
     2   c3     1   MOL    C2    2    -0.129100     12.01000 ; qtot -0.258
     3   c3     1   MOL    C3    3     0.135100     12.01000 ; qtot -0.123
     4   oh     1   MOL    O1    4    -0.599802     16.00000 ; qtot -0.723
     5   hc     1   MOL    H1    5     0.042367      1.00800 ; qtot -0.681
     6   hc     1   MOL    H2    6     0.042367      1.00800 ; qtot -0.638
     7   hc     1   MOL    H3    7     0.042367      1.00800 ; qtot -0.596
     8   hc     1   MOL    H4    8     0.042367      1.00800 ; qtot -0.553
     9   hc     1   MOL    H5    9     0.042367      1.00800 ; qtot -0.511
    10   hc     1   MOL    H6   10     0.042367      1.00800 ; qtot -0.469
    11   h1     1   MOL    H7   11     0.073700      1.00800 ; qtot -0.395
    12   ho     1   MOL    H8   12     0.395000      1.00800 ; qtot 0.000

[ bonds ]
;   ai     aj funct   r             k
     1      3   1    1.5354e-01    1.9154e+05 ;     C1 - C3    
     1      5   1    1.0962e-01    2.8891e+05 ;     C1 - H1    
     1      6   1    1.0962e-01    2.8891e+05 ;     C1 - H2    
     1      7   1    1.0962e-01    2.8891e+05 ;     C1 - H3    
     2      3   1    1.5354e-01    1.9154e+05 ;     C2 - C3    
     2      8   1    1.0962e-01    2.8891e+05 ;     C2 - H4    
     2      9   1    1.0962e-01    2.8891e+05 ;     C2 - H5    
     2     10   1    1.0962e-01    2.8891e+05 ;     C2 - H6    
     3      4   1    1.4242e-01    2.3861e+05 ;     C3 - O1    
     3     11   1    1.0969e-01    2.8804e+05 ;     C3 - H7    
     4     12   1    9.7250e-02    4.4811e+05 ;     O1 - H8    

[ pairs ]
;   ai     aj    funct
     1      8      1 ;     C1 - H4    
     1      9      1 ;     C1 - H5    
     1     10      1 ;     C1 - H6    
     1     12      1 ;     C1 - H8    
     2     12      1 ;     C2 - H8    
     4      8      1 ;     O1 - H4    
     4      9      1 ;     O1 - H5    
     4     10      1 ;     O1 - H6    
     5      2      1 ;     H1 - C2    
     5      4      1 ;     H1 - O1    
     5     11      1 ;     H1 - H7    
     6      2      1 ;     H2 - C2    
     6      4      1 ;     H2 - O1    
     6     11      1 ;     H2 - H7    
     7      2      1 ;     H3 - C2    
     7      4      1 ;     H3 - O1    
     7     11      1 ;     H3 - H7    
     8     11      1 ;     H4 - H7    
     9     11      1 ;     H5 - H7    
    10     11      1 ;     H6 - H7    
    11     12      1 ;     H7 - H8    

[ angles ]
;   ai     aj     ak    funct   theta         cth
     1      3      2      1    1.1263e+02    5.0099e+02 ;     C1 - C3     - C2    
     1      3      4      1    1.0966e+02    6.4258e+02 ;     C1 - C3     - O1    
     1      3     11      1    1.0959e+02    3.6217e+02 ;     C1 - C3     - H7    
     2      3      4      1    1.0966e+02    6.4258e+02 ;     C2 - C3     - O1    
     2      3     11      1    1.0959e+02    3.6217e+02 ;     C2 - C3     - H7    
     3      1      5      1    1.0968e+02    3.6208e+02 ;     C3 - C1     - H1    
     3      1      6      1    1.0968e+02    3.6208e+02 ;     C3 - C1     - H2    
     3      1      7      1    1.0968e+02    3.6208e+02 ;     C3 - C1     - H3    
     3      2      8      1    1.0968e+02    3.6208e+02 ;     C3 - C2     - H4    
     3      2      9      1    1.0968e+02    3.6208e+02 ;     C3 - C2     - H5    
     3      2     10      1    1.0968e+02    3.6208e+02 ;     C3 - C2     - H6    
     3      4     12      1    1.0739e+02    5.4501e+02 ;     C3 - O1     - H8    
     4      3     11      1    1.1038e+02    4.7103e+02 ;     O1 - C3     - H7    
     5      1      6      1    1.0773e+02    2.9957e+02 ;     H1 - C1     - H2    
     5      1      7      1    1.0773e+02    2.9957e+02 ;     H1 - C1     - H3    
     6      1      7      1    1.0773e+02    2.9957e+02 ;     H2 - C1     - H3    
     8      2      9      1    1.0773e+02    2.9957e+02 ;     H4 - C2     - H5    
     8      2     10      1    1.0773e+02    2.9957e+02 ;     H4 - C2     - H6    
     9      2     10      1    1.0773e+02    2.9957e+02 ;     H5 - C2     - H6    

[ dihedrals ] ; propers
; for gromacs 4.5 or higher, using funct 9
;    i      j      k      l   func   phase     kd      pn
     1      3      2      8      9     0.00   0.54392   3 ;     C1-    C3-    C2-    H4
     1      3      2      9      9     0.00   0.54392   3 ;     C1-    C3-    C2-    H5
     1      3      2     10      9     0.00   0.54392   3 ;     C1-    C3-    C2-    H6
     1      3      4     12      9     0.00   0.25104   3 ;     C1-    C3-    O1-    H8
     2      3      4     12      9     0.00   0.25104   3 ;     C2-    C3-    O1-    H8
     4      3      2      8      9     0.00   0.37656   3 ;     O1-    C3-    C2-    H4
     4      3      2      9      9     0.00   0.37656   3 ;     O1-    C3-    C2-    H5
     4      3      2     10      9     0.00   0.37656   3 ;     O1-    C3-    C2-    H6
     5      1      3      2      9     0.00   0.54392   3 ;     H1-    C1-    C3-    C2
     5      1      3      4      9     0.00   0.37656   3 ;     H1-    C1-    C3-    O1
     5      1      3     11      9     0.00   0.65084   3 ;     H1-    C1-    C3-    H7
     6      1      3      2      9     0.00   0.54392   3 ;     H2-    C1-    C3-    C2
     6      1      3      4      9     0.00   0.37656   3 ;     H2-    C1-    C3-    O1
     6      1      3     11      9     0.00   0.65084   3 ;     H2-    C1-    C3-    H7
     7      1      3      2      9     0.00   0.54392   3 ;     H3-    C1-    C3-    C2
     7      1      3      4      9     0.00   0.37656   3 ;     H3-    C1-    C3-    O1
     7      1      3     11      9     0.00   0.65084   3 ;     H3-    C1-    C3-    H7
     8      2      3     11      9     0.00   0.65084   3 ;     H4-    C2-    C3-    H7
     9      2      3     11      9     0.00   0.65084   3 ;     H5-    C2-    C3-    H7
    10      2      3     11      9     0.00   0.65084   3 ;     H6-    C2-    C3-    H7
    11      3      4     12      9     0.00   0.51463   3 ;     H7-    C3-    O1-    H8
