mobley_7326982_GMX.gro created by acpype (v: 2023.10.27) on Wed May 20 23:56:23 2026
 12
    1  MOL   C1    1   0.108   0.005   0.020
    1  MOL   C2    2   0.284   0.104   0.170
    1  MOL   C3    3   0.135   0.092   0.141
    1  MOL   O1    4   0.081   0.222   0.119
    1  MOL   H1    5   0.145  -0.097   0.034
    1  MOL   H2    6   0.000   0.000   0.000
    1  MOL   H3    7   0.154   0.047  -0.070
    1  MOL   H4    8   0.329   0.006   0.190
    1  MOL   H5    9   0.301   0.169   0.256
    1  MOL   H6   10   0.337   0.150   0.085
    1  MOL   H7   11   0.085   0.050   0.229
    1  MOL   H8   12   0.113   0.251   0.033
    6.74000     6.95400     6.53400
