mobley_9733743_GMX.gro created by acpype (v: 2023.10.27) on Wed May 20 23:44:04 2026
   16
    1MOL     C1    1   2.354   2.154   2.483
    1MOL     C2    2   2.396   2.285   2.417
    1MOL     C3    3   2.304   2.320   2.300
    1MOL     C4    4   2.344   2.454   2.237
    1MOL     N1    5   2.256   2.485   2.124
    1MOL     H1    6   2.421   2.130   2.566
    1MOL     H2    7   2.252   2.160   2.522
    1MOL     H3    8   2.358   2.071   2.411
    1MOL     H4    9   2.393   2.365   2.492
    1MOL     H5   10   2.499   2.276   2.382
    1MOL     H6   11   2.308   2.241   2.225
    1MOL     H7   12   2.200   2.326   2.336
    1MOL     H8   13   2.338   2.534   2.311
    1MOL     H9   14   2.447   2.449   2.201
    1MOL    H10   15   2.233   2.584   2.126
    1MOL    H11   16   2.168   2.435   2.136
   4.65959   4.65959   4.65959
