mobley_3546460_GMX.gro created by acpype (v: 2023.10.27) on Wed May 20 23:50:17 2026
   21
    1MOL     C1    1   2.660   2.408   2.182
    1MOL     C2    2   2.596   2.355   2.309
    1MOL     C3    3   2.470   2.433   2.345
    1MOL     C4    4   2.405   2.389   2.476
    1MOL     C5    5   2.277   2.465   2.510
    1MOL     C6    6   2.219   2.420   2.643
    1MOL     O1    7   2.100   2.493   2.669
    1MOL     H1    8   2.751   2.351   2.158
    1MOL     H2    9   2.592   2.400   2.097
    1MOL     H3   10   2.689   2.513   2.193
    1MOL     H4   11   2.669   2.363   2.391
    1MOL     H5   12   2.573   2.249   2.295
    1MOL     H6   13   2.397   2.424   2.263
    1MOL     H7   14   2.495   2.540   2.353
    1MOL     H8   15   2.478   2.404   2.557
    1MOL     H9   16   2.384   2.281   2.472
    1MOL    H10   17   2.202   2.451   2.432
    1MOL    H11   18   2.297   2.573   2.514
    1MOL    H12   19   2.194   2.313   2.641
    1MOL    H13   20   2.289   2.438   2.725
    1MOL    H14   21   2.086   2.551   2.592
   4.83969   4.83969   4.83969
