; mobley_3425174_GMX_OPLS.itp created by acpype (v: 2023.10.27) on Wed May 20 23:53:41 2026

; For OPLS atomtypes manual fine tuning
; AC_at:OPLS_at:OPLScode: Possible_Alternatives (see ffoplsaa.atp and ffoplsaanb.itp)
; c3:CT:opls_135: ['136', '137', '149', '157', '158', '206', '209', '210', '223B', '224B', '245', '246', '274', '283', '284', '285', '292', '292B', '293B', '296', '307', '308', '505']
; f:x:opls_x: []
; cl:x:opls_x: []
; h2:x:opls_x: []

[ moleculetype ]
;name            nrexcl
 mobley_3425174   3

[ atoms ]
;   nr  type  resi  res  atom  cgnr     charge      mass       ; qtot   bond_type
     1 opls_135     1   MOL    C1    1     0.270300     12.01100 ; qtot  0.270  CT  
     2 opls_x     1   MOL    F1    2    -0.214300      0.00000 ; qtot  0.056  x   
     3 opls_x     1   MOL   CL1    3    -0.203400      0.00000 ; qtot -0.147  x   
     4 opls_x     1   MOL    H1    4     0.073700      0.00000 ; qtot -0.074  x   
     5 opls_x     1   MOL    H2    5     0.073700      0.00000 ; qtot  0.000  x   

[ bonds ]
;   ai     aj funct   r             k
     1      2   1 ;    1.3512e-01    2.7973e+05 ;     C1 - F1         CT - x     
     1      3   1 ;    1.8092e-01    1.3724e+05 ;     C1 - CL1        CT - x     
     1      4   1 ;    1.0950e-01    2.9039e+05 ;     C1 - H1         CT - x     
     1      5   1 ;    1.0950e-01    2.9039e+05 ;     C1 - H2         CT - x     

[ angles ]
;   ai     aj     ak    funct   theta         cth
     2      1      3      1 ;    1.0914e+02    6.8216e+02 ;     F1 - C1   - CL1       x -   CT - x   
     2      1      4      1 ;    1.0907e+02    5.0032e+02 ;     F1 - C1   - H1        x -   CT - x   
     2      1      5      1 ;    1.0907e+02    5.0032e+02 ;     F1 - C1   - H2        x -   CT - x   
     3      1      4      1 ;    1.0706e+02    3.6133e+02 ;    CL1 - C1   - H1        x -   CT - x   
     3      1      5      1 ;    1.0706e+02    3.6133e+02 ;    CL1 - C1   - H2        x -   CT - x   
     4      1      5      1 ;    1.0951e+02    2.9748e+02 ;     H1 - C1   - H2        x -   CT - x   
