mobley_3425174_GMX.gro created by acpype (v: 2023.10.27) on Wed May 20 23:53:41 2026
 5
    1  MOL   C1    1  -0.052   0.096   0.003
    1  MOL   F1    2  -0.131   0.106  -0.108
    1  MOL  CL1    3  -0.152   0.104   0.148
    1  MOL   H1    4   0.019   0.178   0.003
    1  MOL   H2    5   0.000   0.000  -0.000
    3.43800     3.56400     5.10800
