%VERSION  VERSION_STAMP = V0001.000  DATE = 05/20/26  23:44:42                  
%FLAG TITLE                                                                     
%FORMAT(20a4)                                                                   
1,2,4,5-tetrachloro-3-(3,4-dich                                                 
%FLAG POINTERS                                                                  
%FORMAT(10I8)                                                                   
      22       3       4      19       8      28      19      45       0       0
     110       1      19      28      45       5       8       3       4       0
       0       0       0       0       0       0       0       0      22       0
       0
%FLAG ATOM_NAME                                                                 
%FORMAT(20a4)                                                                   
C1  C2  C3  C4  C5  C6  C7  C8  C9  C10 C11 C12 Cl1 Cl2 Cl3 Cl4 Cl5 Cl6 H1  H2  
H3  H4  
%FLAG CHARGE                                                                    
%FORMAT(5E16.8)                                                                 
 -1.67645160E+00 -2.18667600E+00 -1.60356240E+00 -1.89511920E+00 -8.20003500E-01
 -3.28001400E-01  4.99291020E-01  2.62401120E-01  3.35290320E-01  3.35290320E-01
  6.08624820E-01  6.08624820E-01 -1.15529382E+00 -1.15529382E+00 -9.18403920E-01
 -9.18403920E-01 -7.72625520E-01 -7.72625520E-01  2.71512270E+00  2.82445650E+00
  2.89734570E+00  3.11601330E+00
%FLAG ATOMIC_NUMBER                                                             
%FORMAT(10I8)                                                                   
       6       6       6       6       6       6       6       6       6       6
       6       6      17      17      17      17      17      17       1       1
       1       1
%FLAG MASS                                                                      
%FORMAT(5E16.8)                                                                 
  1.20100000E+01  1.20100000E+01  1.20100000E+01  1.20100000E+01  1.20100000E+01
  1.20100000E+01  1.20100000E+01  1.20100000E+01  1.20100000E+01  1.20100000E+01
  1.20100000E+01  1.20100000E+01  3.54500000E+01  3.54500000E+01  3.54500000E+01
  3.54500000E+01  3.54500000E+01  3.54500000E+01  1.00800000E+00  1.00800000E+00
  1.00800000E+00  1.00800000E+00
%FLAG ATOM_TYPE_INDEX                                                           
%FORMAT(10I8)                                                                   
       1       1       1       1       1       1       1       1       1       1
       1       1       2       2       2       2       2       2       3       3
       3       3
%FLAG NUMBER_EXCLUDED_ATOMS                                                     
%FORMAT(10I8)                                                                   
      12       9      10      10      13      11       6       4       7       6
       5       4       2       1       2       2       1       1       1       1
       1       1
%FLAG NONBONDED_PARM_INDEX                                                      
%FORMAT(10I8)                                                                   
       1       2       4       2       3       5       4       5       6
%FLAG RESIDUE_LABEL                                                             
%FORMAT(20a4)                                                                   
MOL 
%FLAG RESIDUE_POINTER                                                           
%FORMAT(10I8)                                                                   
       1
%FLAG BOND_FORCE_CONSTANT                                                       
%FORMAT(5E16.8)                                                                 
  3.54250000E+02  3.46070000E+02  3.60690000E+02  2.69370000E+02  1.87980000E+02
%FLAG BOND_EQUIL_VALUE                                                          
%FORMAT(5E16.8)                                                                 
  1.39860000E+00  1.40560000E+00  1.08600000E+00  1.48290000E+00  1.75720000E+00
%FLAG ANGLE_FORCE_CONSTANT                                                      
%FORMAT(5E16.8)                                                                 
  6.36700000E+01  4.49000000E+01  6.37900000E+01  6.13000000E+01  6.33300000E+01
  6.40600000E+01  4.47300000E+01  6.37000000E+01
%FLAG ANGLE_EQUIL_VALUE                                                         
%FORMAT(5E16.8)                                                                 
  2.09474507E+00  2.09230160E+00  2.06664525E+00  2.11359463E+00  2.10713691E+00
  2.08357495E+00  2.09125441E+00  2.10207545E+00
%FLAG DIHEDRAL_FORCE_CONSTANT                                                   
%FORMAT(5E16.8)                                                                 
  3.62500000E+00  7.65000000E-01  1.10000000E+00
%FLAG DIHEDRAL_PERIODICITY                                                      
%FORMAT(5E16.8)                                                                 
  2.00000000E+00  2.00000000E+00  2.00000000E+00
%FLAG DIHEDRAL_PHASE                                                            
%FORMAT(5E16.8)                                                                 
  3.14159400E+00  3.14159400E+00  3.14159400E+00
%FLAG SCEE_SCALE_FACTOR                                                         
%FORMAT(5E16.8)                                                                 
  1.20000000E+00  1.20000000E+00  0.00000000E+00
%FLAG SCNB_SCALE_FACTOR                                                         
%FORMAT(5E16.8)                                                                 
  2.00000000E+00  2.00000000E+00  0.00000000E+00
%FLAG SOLTY                                                                     
%FORMAT(5E16.8)                                                                 
  0.00000000E+00  0.00000000E+00  0.00000000E+00  0.00000000E+00
%FLAG LENNARD_JONES_ACOEF                                                       
%FORMAT(5E16.8)                                                                 
  6.96551276E+05  1.49062160E+06  3.17107030E+06  7.52549148E+04  1.66104821E+05
  6.90855956E+03
%FLAG LENNARD_JONES_BCOEF                                                       
%FORMAT(5E16.8)                                                                 
  5.24668528E+02  9.81118883E+02  1.82923847E+03  1.09570372E+02  2.08087638E+02
  2.10929191E+01
%FLAG BONDS_INC_HYDROGEN                                                        
%FORMAT(10I8)                                                                   
       0      54       3       3      57       3       6      60       3       9
      63       3
%FLAG BONDS_WITHOUT_HYDROGEN                                                    
%FORMAT(10I8)                                                                   
       0       3       1       0      12       2       3      18       1       6
      12       2       6      21       1       9      24       1       9      27
       1      12      15       4      15      30       2      15      33       2
      18      21       1      18      36       5      21      39       5      24
      30       1      24      42       5      27      33       1      27      45
       5      30      48       5      33      51       5
%FLAG ANGLES_INC_HYDROGEN                                                       
%FORMAT(10I8)                                                                   
       0       3      57       2       3       0      54       2      12       0
      54       7      12       6      60       7      18       3      57       2
      21       6      60       2      24       9      63       2      27       9
      63       2
%FLAG ANGLES_WITHOUT_HYDROGEN                                                   
%FORMAT(10I8)                                                                   
       0       3      18       1       0      12       6       3       0      12
      15       4       3       0      12       5       3      18      21       1
       3      18      36       6       6      12      15       4       6      21
      18       1       6      21      39       6       9      24      30       1
       9      24      42       6       9      27      33       1       9      27
      45       6      12       6      21       5      12      15      30       4
      12      15      33       4      15      30      24       5      15      30
      48       8      15      33      27       5      15      33      51       8
      18      21      39       6      21      18      36       6      24       9
      27       1      24      30      48       6      27      33      51       6
      30      15      33       3      30      24      42       6      33      27
      45       6
%FLAG DIHEDRALS_INC_HYDROGEN                                                    
%FORMAT(10I8)                                                                   
       0      12       6      60       1      54       0      12       6       1
      12       0       3      57       1      54       0      12      15       1
      15      12       6      60       1      54       0       3      18       1
      18      21       6      60       1      21      18       3      57       1
      30      24       9      63       1      33      27       9      63       1
      36      18       3      57       1      39      21       6      60       1
      42      24       9      63       1      45      27       9      63       1
      54       0       3      57       1      54       0     -12      -3       3
       0      18      -3     -57       3      21      12      -6     -60       3
      24      27      -9     -63       3
%FLAG DIHEDRALS_WITHOUT_HYDROGEN                                                
%FORMAT(10I8)                                                                   
       0       3      18      21       1       0       3      18      36       1
       0      12      -6      21       1       0      12      15      30       2
       0      12      15      33       2       3       0      12       6       1
       3       0      12      15       1       3      18     -21       6       1
       3      18      21      39       1       6      12      15      30       2
       6      12      15      33       2       6      21      18      36       1
       9      24      30      15       1       9      24      30      48       1
       9      27     -33      15       1       9      27      33      51       1
      12       0       3      18       1      12       6     -21      18       1
      12       6      21      39       1      12      15      30      24       1
      12      15      30      48       1      12      15      33      27       1
      12      15      33      51       1      15      12       6      21       1
      15      30      24      42       1      15      33      27      45       1
      24       9      27      33       1      24       9      27      45       1
      24      30     -15      33       1      27       9      24      30       1
      27       9      24      42       1      27      33     -15      30       1
      30      15      33      51       1      33      15      30      48       1
      36      18      21      39       1      42      24      30      48       1
      45      27      33      51       1       0       6     -12     -15       3
      30      33     -15     -12       3       3      21     -18     -36       3
       6      18     -21     -39       3       9      30     -24     -42       3
       9      33     -27     -45       3      24      48     -30     -15       3
      27      51     -33     -15       3
%FLAG EXCLUDED_ATOMS_LIST                                                       
%FORMAT(10I8)                                                                   
       2       3       5       6       7       8      11      12      13      19
      20      21       3       5       6       7       8      13      14      19
      20       5       6       7       8      11      12      13      14      19
      21       6       9      10      11      12      15      16      17      18
      22       6       7       8       9      10      11      12      14      17
      18      19      20      21       8       9      10      11      12      15
      16      17      18      19      21       8      13      14      19      20
      21      13      14      20      21      10      11      12      15      16
      17      22      11      12      15      16      18      22      12      15
      17      18      22      16      17      18      22      14      20      21
      17      22      18      22       0       0      20       0       0       0
%FLAG HBOND_ACOEF                                                               
%FORMAT(5E16.8)                                                                 

%FLAG HBOND_BCOEF                                                               
%FORMAT(5E16.8)                                                                 

%FLAG HBCUT                                                                     
%FORMAT(5E16.8)                                                                 

%FLAG AMBER_ATOM_TYPE                                                           
%FORMAT(20a4)                                                                   
ca  ca  ca  ca  cp  cp  ca  ca  ca  ca  ca  ca  cl  cl  cl  cl  cl  cl  ha  ha  
ha  ha  
%FLAG TREE_CHAIN_CLASSIFICATION                                                 
%FORMAT(20a4)                                                                   
BLA BLA BLA BLA BLA BLA BLA BLA BLA BLA BLA BLA BLA BLA BLA BLA BLA BLA BLA BLA 
BLA BLA 
%FLAG JOIN_ARRAY                                                                
%FORMAT(10I8)                                                                   
       0       0       0       0       0       0       0       0       0       0
       0       0       0       0       0       0       0       0       0       0
       0       0
%FLAG IROTAT                                                                    
%FORMAT(10I8)                                                                   
       0       0       0       0       0       0       0       0       0       0
       0       0       0       0       0       0       0       0       0       0
       0       0
%FLAG RADIUS_SET                                                                
%FORMAT(1a80)                                                                   
modified Bondi radii (mbondi)                                                   
%FLAG RADII                                                                     
%FORMAT(5E16.8)                                                                 
  1.70000000E+00  1.70000000E+00  1.70000000E+00  1.70000000E+00  1.70000000E+00
  1.70000000E+00  1.70000000E+00  1.70000000E+00  1.70000000E+00  1.70000000E+00
  1.70000000E+00  1.70000000E+00  1.70000000E+00  1.70000000E+00  1.70000000E+00
  1.70000000E+00  1.70000000E+00  1.70000000E+00  1.30000000E+00  1.30000000E+00
  1.30000000E+00  1.30000000E+00
%FLAG SCREEN                                                                    
%FORMAT(5E16.8)                                                                 
  7.20000000E-01  7.20000000E-01  7.20000000E-01  7.20000000E-01  7.20000000E-01
  7.20000000E-01  7.20000000E-01  7.20000000E-01  7.20000000E-01  7.20000000E-01
  7.20000000E-01  7.20000000E-01  8.00000000E-01  8.00000000E-01  8.00000000E-01
  8.00000000E-01  8.00000000E-01  8.00000000E-01  8.50000000E-01  8.50000000E-01
  8.50000000E-01  8.50000000E-01
%FLAG IPOL                                                                      
%FORMAT(1I8)                                                                    
       0
