; mobley_8311303_GMX_OPLS.top created by acpype (v: 2023.10.27) on Wed May 20 23:44:41 2026

; Include forcefield parameters
#include "ffoplsaa.itp"

; Include mobley_8311303_GMX.itp topology
#include "mobley_8311303_GMX.itp"

; Ligand position restraints
#ifdef POSRES_LIG
#include "posre_mobley_8311303.itp"
#endif

[ system ]
 mobley_8311303

[ molecules ]
; Compound        nmols
 mobley_8311303   1     
