1,2,4,5-tetrachloro-3-(3,4-dich
    22
   1.8850000  -1.0360000  -0.1120000   0.8070000  -0.4630000   0.5610000
   2.8780000  -1.6520000   2.0020000   6.1970000  -3.3700000  -1.4390000
   2.9210000  -1.6310000   0.6080000   4.0400000  -2.2250000  -0.0910000
   0.7640000  -0.4840000   1.9550000   1.8000000  -1.0790000   2.6760000
   6.2400000  -2.0260000  -1.0680000   5.0750000  -4.1410000  -1.1360000
   5.1620000  -1.4540000  -0.3940000   3.9960000  -3.5690000  -0.4620000
  -0.5980000   0.2460000   2.7310000   1.8050000  -1.1320000   4.4040000
   7.6660000  -1.1340000  -1.4780000   5.0940000  -5.8000000  -1.6290000
   5.2210000   0.2240000   0.0680000   2.5970000  -4.5350000  -0.0870000
   1.9030000  -1.0140000  -1.2000000   0.0080000  -0.0050000  -0.0170000
   3.6870000  -2.1180000   2.5630000   7.0390000  -3.8170000  -1.9650000
