mobley_6456034_GMX.gro created by acpype (v: 2023.10.27) on Thu May 21 00:02:32 2026
   26
    1MOL     C1    1   2.407   2.509   2.565
    1MOL     C2    2   2.401   2.340   2.748
    1MOL     C3    3   2.208   2.498   2.717
    1MOL     C4    4   2.461   2.385   2.168
    1MOL     C5    5   2.681   2.504   2.163
    1MOL     C6    6   2.539   2.516   2.369
    1MOL     C7    7   2.317   2.418   2.647
    1MOL     C8    8   2.581   2.429   2.251
    1MOL     O1    9   2.434   2.625   2.595
    1MOL     O2   10   2.452   2.442   2.455
    1MOL     H1   11   2.338   2.273   2.807
    1MOL     H2   12   2.453   2.408   2.816
    1MOL     H3   13   2.477   2.280   2.697
    1MOL     H4   14   2.139   2.432   2.772
    1MOL     H5   15   2.149   2.556   2.645
    1MOL     H6   16   2.250   2.569   2.789
    1MOL     H7   17   2.492   2.322   2.083
    1MOL     H8   18   2.407   2.471   2.127
    1MOL     H9   19   2.391   2.326   2.228
    1MOL    H10   20   2.715   2.441   2.080
    1MOL    H11   21   2.770   2.532   2.221
    1MOL    H12   22   2.638   2.595   2.121
    1MOL    H13   23   2.626   2.547   2.427
    1MOL    H14   24   2.486   2.606   2.335
    1MOL    H15   25   2.268   2.348   2.578
    1MOL    H16   26   2.629   2.338   2.290
   4.90040   4.90040   4.90040
