mobley_6456034_GMX.gro created by acpype (v: 2023.10.27) on Thu May 21 00:02:32 2026
11570
    1MOL     C1    1   2.407   2.509   2.565
    1MOL     C2    2   2.401   2.340   2.748
    1MOL     C3    3   2.208   2.498   2.717
    1MOL     C4    4   2.461   2.385   2.168
    1MOL     C5    5   2.681   2.504   2.163
    1MOL     C6    6   2.539   2.516   2.369
    1MOL     C7    7   2.317   2.418   2.647
    1MOL     C8    8   2.581   2.429   2.251
    1MOL     O1    9   2.434   2.625   2.595
    1MOL     O2   10   2.452   2.442   2.455
    1MOL     H1   11   2.338   2.273   2.807
    1MOL     H2   12   2.453   2.408   2.816
    1MOL     H3   13   2.477   2.280   2.697
    1MOL     H4   14   2.139   2.432   2.772
    1MOL     H5   15   2.149   2.556   2.645
    1MOL     H6   16   2.250   2.569   2.789
    1MOL     H7   17   2.492   2.322   2.083
    1MOL     H8   18   2.407   2.471   2.127
    1MOL     H9   19   2.391   2.326   2.228
    1MOL    H10   20   2.715   2.441   2.080
    1MOL    H11   21   2.770   2.532   2.221
    1MOL    H12   22   2.638   2.595   2.121
    1MOL    H13   23   2.626   2.547   2.427
    1MOL    H14   24   2.486   2.606   2.335
    1MOL    H15   25   2.268   2.348   2.578
    1MOL    H16   26   2.629   2.338   2.290
    2SOL     OW   27   0.230   0.628   0.113
    2SOL    HW1   28   0.137   0.626   0.150
    2SOL    HW2   29   0.231   0.589   0.021
    3SOL     OW   30   0.225   0.275   0.996
    3SOL    HW1   31   0.260   0.258   1.088
    3SOL    HW2   32   0.137   0.230   0.984
    4SOL     OW   33   0.019   0.368   0.647
    4SOL    HW1   34  -0.063   0.411   0.686
    4SOL    HW2   35  -0.009   0.295   0.584
    5SOL     OW   36   0.569   1.275   1.165
    5SOL    HW1   37   0.476   1.268   1.128
    5SOL    HW2   38   0.580   1.364   1.209
    6SOL     OW   39   1.555   1.511   0.703
    6SOL    HW1   40   1.498   1.495   0.784
    6SOL    HW2   41   1.496   1.521   0.623
    7SOL     OW   42   1.135   0.703   0.717
    7SOL    HW1   43   1.192   0.781   0.692
    7SOL    HW2   44   1.075   0.729   0.793
    8SOL     OW   45   1.755   0.607   0.231
    8SOL    HW1   46   1.743   0.594   0.132
    8SOL    HW2   47   1.725   0.526   0.280
    9SOL     OW   48   0.768   1.144   1.023
    9SOL    HW1   49   0.690   1.161   1.083
    9SOL    HW2   50   0.802   1.231   0.987
   10SOL     OW   51   0.850   0.798   1.823
   10SOL    HW1   52   0.846   0.874   1.888
   10SOL    HW2   53   0.872   0.834   1.732
   11SOL     OW   54   0.685   1.012   0.665
   11SOL    HW1   55   0.754   0.996   0.735
   11SOL    HW2   56   0.612   1.069   0.703
   12SOL     OW   57   0.686   1.161   1.803
   12SOL    HW1   58   0.746   1.240   1.817
   12SOL    HW2   59   0.600   1.192   1.762
   13SOL     OW   60   0.335   1.435   1.061
   13SOL    HW1   61   0.257   1.404   1.008
   13SOL    HW2   62   0.393   1.493   1.004
   14SOL     OW   63   1.460   1.505   1.339
   14SOL    HW1   64   1.484   1.599   1.365
   14SOL    HW2   65   1.444   1.451   1.421
   15SOL     OW   66   0.438   0.392   1.499
   15SOL    HW1   67   0.520   0.336   1.508
   15SOL    HW2   68   0.357   0.334   1.503
   16SOL     OW   69   1.603   0.447   0.737
   16SOL    HW1   70   1.529   0.493   0.687
   16SOL    HW2   71   1.654   0.515   0.790
   17SOL     OW   72   0.231   1.713   0.483
   17SOL    HW1   73   0.265   1.790   0.537
   17SOL    HW2   74   0.275   1.713   0.393
   18SOL     OW   75   1.127   1.341   1.690
   18SOL    HW1   76   1.174   1.341   1.778
   18SOL    HW2   77   1.079   1.254   1.679
   19SOL     OW   78   0.230   1.434   0.538
   19SOL    HW1   79   0.204   1.530   0.538
   19SOL    HW2   80   0.159   1.380   0.583
   20SOL     OW   81   0.240   1.091   0.886
   20SOL    HW1   82   0.254   1.007   0.938
   20SOL    HW2   83   0.185   1.155   0.941
   21SOL     OW   84   0.620   1.786   1.439
   21SOL    HW1   85   0.528   1.769   1.474
   21SOL    HW2   86   0.648   1.878   1.465
   22SOL     OW   87   0.606   0.964   0.123
   22SOL    HW1   88   0.613   1.048   0.069
   22SOL    HW2   89   0.652   0.977   0.211
   23SOL     OW   90   1.594   0.114   1.480
   23SOL    HW1   91   1.576   0.181   1.408
   23SOL    HW2   92   1.591   0.160   1.569
   24SOL     OW   93   0.122   0.643   0.563
   24SOL    HW1   94   0.077   0.555   0.580
   24SOL    HW2   95   0.121   0.697   0.647
   25SOL     OW   96   1.842   1.767   0.359
   25SOL    HW1   97   1.896   1.738   0.439
   25SOL    HW2   98   1.872   1.857   0.330
   26SOL     OW   99   0.027   1.596   0.117
   26SOL    HW1  100   0.008   1.500   0.138
   26SOL    HW2  101  -0.006   1.654   0.192
   27SOL     OW  102   1.689   0.922   0.612
   27SOL    HW1  103   1.784   0.893   0.620
   27SOL    HW2  104   1.681   0.987   0.537
   28SOL     OW  105   1.641   1.108   0.432
   28SOL    HW1  106   1.727   1.110   0.380
   28SOL    HW2  107   1.655   1.155   0.520
   29SOL     OW  108   0.113   0.737   1.597
   29SOL    HW1  109   0.201   0.724   1.642
   29SOL    HW2  110   0.100   0.834   1.575
   30SOL     OW  111   0.613   1.365   0.726
   30SOL    HW1  112   0.564   1.278   0.735
   30SOL    HW2  113   0.590   1.408   0.639
   31SOL     OW  114   1.293   1.228   1.423
   31SOL    HW1  115   1.330   1.155   1.365
   31SOL    HW2  116   1.345   1.233   1.508
   32SOL     OW  117   0.809   0.004   0.502
   32SOL    HW1  118   0.849   0.095   0.493
   32SOL    HW2  119   0.709   0.012   0.508
   33SOL     OW  120   0.197   0.976   1.264
   33SOL    HW1  121   0.286   0.931   1.250
   33SOL    HW2  122   0.124   0.911   1.245
   34SOL     OW  123   1.525   0.999   0.190
   34SOL    HW1  124   1.462   0.923   0.203
   34SOL    HW2  125   1.573   1.017   0.276
   35SOL     OW  126   1.187   1.792   1.616
   35SOL    HW1  127   1.211   1.852   1.540
   35SOL    HW2  128   1.194   1.697   1.586
   36SOL     OW  129   0.317   0.251   1.801
   36SOL    HW1  130   0.388   0.322   1.807
   36SOL    HW2  131   0.229   0.290   1.829
   37SOL     OW  132   1.466   1.417   0.953
   37SOL    HW1  133   1.407   1.423   1.033
   37SOL    HW2  134   1.451   1.329   0.907
   38SOL     OW  135   1.667   1.714   0.572
   38SOL    HW1  136   1.626   1.691   0.484
   38SOL    HW2  137   1.649   1.640   0.637
   39SOL     OW  138   0.598   0.729   0.270
   39SOL    HW1  139   0.622   0.798   0.202
   39SOL    HW2  140   0.520   0.762   0.324
   40SOL     OW  141   1.281   0.345   0.944
   40SOL    HW1  142   1.195   0.295   0.931
   40SOL    HW2  143   1.343   0.291   1.000
   41SOL     OW  144   1.576   1.662   0.307
   41SOL    HW1  145   1.665   1.708   0.310
   41SOL    HW2  146   1.555   1.638   0.212
   42SOL     OW  147   0.807   0.605   1.465
   42SOL    HW1  148   0.760   0.602   1.554
   42SOL    HW2  149   0.756   0.550   1.399
   43SOL     OW  150   1.394   0.469   1.674
   43SOL    HW1  151   1.374   0.512   1.762
   43SOL    HW2  152   1.472   0.407   1.683
   44SOL     OW  153   0.973   0.890   1.572
   44SOL    HW1  154   1.019   0.806   1.543
   44SOL    HW2  155   0.917   0.924   1.497
   45SOL     OW  156   0.991   0.410   1.242
   45SOL    HW1  157   0.914   0.444   1.296
   45SOL    HW2  158   0.957   0.359   1.163
   46SOL     OW  159   1.041   0.701   0.429
   46SOL    HW1  160   1.067   0.697   0.525
   46SOL    HW2  161   0.956   0.650   0.415
   47SOL     OW  162   0.076   0.811   0.789
   47SOL    HW1  163   0.175   0.799   0.798
   47SOL    HW2  164   0.052   0.906   0.810
   48SOL     OW  165   0.130   1.821   1.571
   48SOL    HW1  166   0.120   1.806   1.670
   48SOL    HW2  167   0.044   1.857   1.535
   49SOL     OW  168   0.865   0.348   0.195
   49SOL    HW1  169   0.924   0.411   0.146
   49SOL    HW2  170   0.884   0.254   0.166
   50SOL     OW  171   1.719   0.585   1.831
   50SOL    HW1  172   1.693   0.674   1.795
   50SOL    HW2  173   1.717   0.517   1.758
   51SOL     OW  174   1.362   1.144   0.545
   51SOL    HW1  175   1.445   1.115   0.497
   51SOL    HW2  176   1.313   1.211   0.489
   52SOL     OW  177   0.550   0.196   0.885
   52SOL    HW1  178   0.545   0.191   0.985
   52SOL    HW2  179   0.552   0.292   0.856
   53SOL     OW  180   1.008   1.456   0.477
   53SOL    HW1  181   0.962   1.528   0.425
   53SOL    HW2  182   1.004   1.476   0.575
   54SOL     OW  183   0.351   1.801   0.853
   54SOL    HW1  184   0.401   1.715   0.859
   54SOL    HW2  185   0.416   1.878   0.850
   55SOL     OW  186   1.795   1.066   0.873
   55SOL    HW1  187   1.733   1.051   0.797
   55SOL    HW2  188   1.743   1.077   0.958
   56SOL     OW  189   1.227   1.550   1.506
   56SOL    HW1  190   1.233   1.473   1.570
   56SOL    HW2  191   1.175   1.524   1.426
   57SOL     OW  192   0.321   0.943   0.242
   57SOL    HW1  193   0.403   0.982   0.200
   57SOL    HW2  194   0.294   0.861   0.193
   58SOL     OW  195   1.458   0.735   0.728
   58SOL    HW1  196   1.453   0.670   0.803
   58SOL    HW2  197   1.538   0.794   0.741
   59SOL     OW  198   0.461   1.266   1.727
   59SOL    HW1  199   0.411   1.267   1.641
   59SOL    HW2  200   0.398   1.248   1.803
   60SOL     OW  201   1.111   1.776   0.237
   60SOL    HW1  202   1.051   1.714   0.287
   60SOL    HW2  203   1.142   1.732   0.152
   61SOL     OW  204   0.202   0.285   1.498
   61SOL    HW1  205   0.122   0.345   1.485
   61SOL    HW2  206   0.192   0.236   1.584
   62SOL     OW  207   1.632   1.377   0.081
   62SOL    HW1  208   1.600   1.471   0.071
   62SOL    HW2  209   1.556   1.314   0.069
   63SOL     OW  210   0.464   1.743   0.323
   63SOL    HW1  211   0.497   1.782   0.409
   63SOL    HW2  212   0.540   1.736   0.258
   64SOL     OW  213   1.400   0.107   0.426
   64SOL    HW1  214   1.376   0.070   0.336
   64SOL    HW2  215   1.499   0.123   0.430
   65SOL     OW  216   0.249   1.785   1.241
   65SOL    HW1  217   0.306   1.720   1.291
   65SOL    HW2  218   0.233   1.752   1.148
   66SOL     OW  219   0.940   1.698   0.904
   66SOL    HW1  220   1.020   1.641   0.925
   66SOL    HW2  221   0.891   1.658   0.827
   67SOL     OW  222   0.382   0.700   0.480
   67SOL    HW1  223   0.427   0.610   0.477
   67SOL    HW2  224   0.288   0.689   0.513
   68SOL     OW  225   1.547   0.222   1.729
   68SOL    HW1  226   1.542   0.259   1.821
   68SOL    HW2  227   1.475   0.153   1.717
   69SOL     OW  228   0.614   0.122   0.117
   69SOL    HW1  229   0.712   0.100   0.124
   69SOL    HW2  230   0.583   0.105   0.024
   70SOL     OW  231   0.781   0.264   1.749
   70SOL    HW1  232   0.848   0.203   1.792
   70SOL    HW2  233   0.708   0.283   1.814
   71SOL     OW  234   0.888   1.514   1.195
   71SOL    HW1  235   0.865   1.489   1.101
   71SOL    HW2  236   0.949   1.445   1.234
   72SOL     OW  237   1.351   0.590   1.433
   72SOL    HW1  238   1.379   0.547   1.518
   72SOL    HW2  239   1.376   0.686   1.434
   73SOL     OW  240   0.803   1.402   0.924
   73SOL    HW1  241   0.893   1.416   0.882
   73SOL    HW2  242   0.732   1.404   0.853
   74SOL     OW  243   0.922   0.503   0.899
   74SOL    HW1  244   0.897   0.494   0.803
   74SOL    HW2  245   0.970   0.421   0.930
   75SOL     OW  246   0.539   0.064   0.512
   75SOL    HW1  247   0.458   0.065   0.570
   75SOL    HW2  248   0.542   0.147   0.457
   76SOL     OW  249   1.434   1.188   0.041
   76SOL    HW1  250   1.466   1.112   0.098
   76SOL    HW2  251   1.342   1.215   0.071
   77SOL     OW  252   0.297   0.035   0.171
   77SOL    HW1  253   0.346   0.119   0.150
   77SOL    HW2  254   0.359  -0.030   0.216
   78SOL     OW  255   0.935   0.236   0.480
   78SOL    HW1  256   0.887   0.277   0.402
   78SOL    HW2  257   1.034   0.234   0.461
   79SOL     OW  258   1.076   0.683   1.464
   79SOL    HW1  259   0.996   0.622   1.467
   79SOL    HW2  260   1.157   0.630   1.440
   80SOL     OW  261   1.227   1.570   0.793
   80SOL    HW1  262   1.248   1.644   0.728
   80SOL    HW2  263   1.295   1.570   0.866
   81SOL     OW  264   0.459   1.152   0.741
   81SOL    HW1  265   0.388   1.125   0.806
   81SOL    HW2  266   0.433   1.124   0.648
   82SOL     OW  267   1.271   1.797   0.591
   82SOL    HW1  268   1.315   1.861   0.527
   82SOL    HW2  269   1.221   1.849   0.661
   83SOL     OW  270   1.032   0.549   0.016
   83SOL    HW1  271   0.991   0.631  -0.023
   83SOL    HW2  272   1.096   0.575   0.089
   84SOL     OW  273   0.078   0.556   1.386
   84SOL    HW1  274   0.170   0.555   1.345
   84SOL    HW2  275   0.072   0.630   1.453
   85SOL     OW  276   0.561   0.222   1.147
   85SOL    HW1  277   0.599   0.138   1.184
   85SOL    HW2  278   0.473   0.241   1.191
   86SOL     OW  279   0.866   0.454   0.642
   86SOL    HW1  280   0.834   0.526   0.580
   86SOL    HW2  281   0.890   0.373   0.589
   87SOL     OW  282   1.017   0.039   0.753
   87SOL    HW1  283   0.945   0.044   0.684
   87SOL    HW2  284   0.993  -0.030   0.822
   88SOL     OW  285   1.429   1.173   0.867
   88SOL    HW1  286   1.374   1.089   0.860
   88SOL    HW2  287   1.455   1.202   0.775
   89SOL     OW  288   1.466   0.590   0.992
   89SOL    HW1  289   1.436   0.495   0.999
   89SOL    HW2  290   1.539   0.606   1.058
   90SOL     OW  291   1.857   0.833   0.377
   90SOL    HW1  292   1.899   0.769   0.441
   90SOL    HW2  293   1.819   0.782   0.299
   91SOL     OW  294   0.488   1.385   0.174
   91SOL    HW1  295   0.401   1.370   0.221
   91SOL    HW2  296   0.471   1.411   0.079
   92SOL     OW  297   1.664   1.280   0.657
   92SOL    HW1  298   1.763   1.288   0.671
   92SOL    HW2  299   1.619   1.364   0.688
   93SOL     OW  300   1.390   0.575   0.078
   93SOL    HW1  301   1.336   0.554   0.159
   93SOL    HW2  302   1.481   0.534   0.087
   94SOL     OW  303   0.527   0.256   0.328
   94SOL    HW1  304   0.554   0.197   0.253
   94SOL    HW2  305   0.527   0.351   0.297
   95SOL     OW  306   1.754   1.223   1.588
   95SOL    HW1  307   1.845   1.184   1.575
   95SOL    HW2  308   1.762   1.319   1.612
   96SOL     OW  309   1.064   1.347   1.340
   96SOL    HW1  310   0.984   1.324   1.395
   96SOL    HW2  311   1.147   1.321   1.389
   97SOL     OW  312   1.592   1.629   1.625
   97SOL    HW1  313   1.619   1.663   1.535
   97SOL    HW2  314   1.671   1.591   1.671
   98SOL     OW  315   1.111   1.195   1.100
   98SOL    HW1  316   1.071   1.239   1.181
   98SOL    HW2  317   1.070   1.232   1.017
   99SOL     OW  318   1.638   1.099   1.079
   99SOL    HW1  319   1.643   1.180   1.138
   99SOL    HW2  320   1.552   1.101   1.028
  100SOL     OW  321   0.915   0.089   1.402
  100SOL    HW1  322   0.940   0.069   1.307
  100SOL    HW2  323   0.987   0.145   1.444
  101SOL     OW  324   0.980   1.116   1.719
  101SOL    HW1  325   0.881   1.122   1.729
  101SOL    HW2  326   1.003   1.036   1.663
  102SOL     OW  327   0.705   1.050   0.368
  102SOL    HW1  328   0.691   1.057   0.467
  102SOL    HW2  329   0.789   0.999   0.350
  103SOL     OW  330   0.410   0.813   1.251
  103SOL    HW1  331   0.496   0.825   1.301
  103SOL    HW2  332   0.368   0.726   1.278
  104SOL     OW  333   1.274   0.386   1.262
  104SOL    HW1  334   1.295   0.460   1.326
  104SOL    HW2  335   1.185   0.403   1.219
  105SOL     OW  336   0.064   1.564   1.331
  105SOL    HW1  337   0.018   1.646   1.297
  105SOL    HW2  338   0.162   1.583   1.340
  106SOL     OW  339   0.367   1.100   0.501
  106SOL    HW1  340   0.360   1.183   0.445
  106SOL    HW2  341   0.371   1.020   0.441
  107SOL     OW  342   0.566   0.537   0.865
  107SOL    HW1  343   0.578   0.603   0.791
  107SOL    HW2  344   0.612   0.571   0.948
  108SOL     OW  345   1.252   1.348   0.388
  108SOL    HW1  346   1.302   1.425   0.428
  108SOL    HW2  347   1.157   1.350   0.420
  109SOL     OW  348   1.272   1.445   1.142
  109SOL    HW1  349   1.319   1.458   1.229
  109SOL    HW2  350   1.206   1.371   1.151
  110SOL     OW  351   1.582   0.639   0.472
  110SOL    HW1  352   1.551   0.700   0.545
  110SOL    HW2  353   1.632   0.691   0.403
  111SOL     OW  354   0.354   1.510   1.329
  111SOL    HW1  355   0.333   1.466   1.242
  111SOL    HW2  356   0.451   1.536   1.332
  112SOL     OW  357   0.402   0.751   1.598
  112SOL    HW1  358   0.470   0.806   1.551
  112SOL    HW2  359   0.442   0.663   1.625
  113SOL     OW  360   1.587   0.779   1.670
  113SOL    HW1  361   1.495   0.817   1.665
  113SOL    HW2  362   1.647   0.826   1.605
  114SOL     OW  363   1.013   0.105   1.770
  114SOL    HW1  364   1.019   0.190   1.718
  114SOL    HW2  365   1.045   0.029   1.713
  115SOL     OW  366   0.504   0.050   1.740
  115SOL    HW1  367   0.462  -0.007   1.670
  115SOL    HW2  368   0.438   0.119   1.772
  116SOL     OW  369   0.573   0.870   1.029
  116SOL    HW1  370   0.617   0.959   1.020
  116SOL    HW2  371   0.510   0.870   1.106
  117SOL     OW  372   1.360   0.862   1.045
  117SOL    HW1  373   1.285   0.862   0.979
  117SOL    HW2  374   1.397   0.770   1.054
  118SOL     OW  375   1.209   0.525   0.275
  118SOL    HW1  376   1.222   0.441   0.329
  118SOL    HW2  377   1.180   0.599   0.335
  119SOL     OW  378   0.307   0.213   1.231
  119SOL    HW1  379   0.284   0.250   1.321
  119SOL    HW2  380   0.277   0.118   1.225
  120SOL     OW  381   0.037   1.310   1.282
  120SOL    HW1  382   0.090   1.261   1.350
  120SOL    HW2  383   0.059   1.408   1.287
  121SOL     OW  384   0.732   0.634   1.064
  121SOL    HW1  385   0.791   0.608   0.988
  121SOL    HW2  386   0.704   0.730   1.053
  122SOL     OW  387   1.728   0.935   1.854
  122SOL    HW1  388   1.682   0.928   1.765
  122SOL    HW2  389   1.666   0.979   1.920
  123SOL     OW  390   0.307   0.063   0.618
  123SOL    HW1  391   0.296   0.157   0.651
  123SOL    HW2  392   0.302   0.000   0.695
  124SOL     OW  393   1.622   0.367   0.374
  124SOL    HW1  394   1.624   0.291   0.438
  124SOL    HW2  395   1.574   0.444   0.414
  125SOL     OW  396   1.023   0.766   0.966
  125SOL    HW1  397   1.038   0.787   1.062
  125SOL    HW2  398   0.993   0.671   0.957
  126SOL     OW  399   0.980   1.573   1.700
  126SOL    HW1  400   0.960   1.617   1.612
  126SOL    HW2  401   1.019   1.482   1.684
  127SOL     OW  402   1.859   1.518   1.605
  127SOL    HW1  403   1.873   1.545   1.510
  127SOL    HW2  404   1.942   1.540   1.658
  128SOL     OW  405   0.350   0.898   1.804
  128SOL    HW1  406   0.426   0.942   1.852
  128SOL    HW2  407   0.385   0.851   1.722
  129SOL     OW  408   1.540   0.274   0.125
  129SOL    HW1  409   1.479   0.199   0.148
  129SOL    HW2  410   1.562   0.326   0.208
  130SOL     OW  411   1.303   0.838   0.042
  130SOL    HW1  412   1.337   0.745   0.057
  130SOL    HW2  413   1.321   0.865  -0.053
  131SOL     OW  414   1.068   1.333   0.849
  131SOL    HW1  415   1.075   1.249   0.794
  131SOL    HW2  416   1.130   1.402   0.813
  132SOL     OW  417   0.319   0.810   0.949
  132SOL    HW1  418   0.412   0.846   0.954
  132SOL    HW2  419   0.313   0.725   1.001
  133SOL     OW  420   0.339   0.509   1.006
  133SOL    HW1  421   0.287   0.426   0.989
  133SOL    HW2  422   0.416   0.514   0.942
  134SOL     OW  423   1.138   0.380   1.678
  134SOL    HW1  424   1.093   0.443   1.742
  134SOL    HW2  425   1.231   0.411   1.661
  135SOL     OW  426   1.160   0.207   1.477
  135SOL    HW1  427   1.160   0.271   1.554
  135SOL    HW2  428   1.188   0.255   1.394
  136SOL     OW  429   0.008   1.326   0.200
  136SOL    HW1  430  -0.085   1.347   0.169
  136SOL    HW2  431   0.018   1.227   0.213
  137SOL     OW  432   0.088   1.801   0.927
  137SOL    HW1  433   0.046   1.715   0.900
  137SOL    HW2  434   0.182   1.804   0.893
  138SOL     OW  435   0.504   1.568   0.910
  138SOL    HW1  436   0.570   1.642   0.919
  138SOL    HW2  437   0.548   1.489   0.868
  139SOL     OW  438   1.002   0.796   1.238
  139SOL    HW1  439   1.043   0.764   1.324
  139SOL    HW2  440   0.906   0.769   1.235
  140SOL     OW  441   0.040   0.544   1.114
  140SOL    HW1  442   0.125   0.511   1.073
  140SOL    HW2  443   0.053   0.559   1.212
  141SOL     OW  444   0.189   0.520   1.722
  141SOL    HW1  445   0.248   0.480   1.652
  141SOL    HW2  446   0.131   0.591   1.681
  142SOL     OW  447   1.369   0.950   1.660
  142SOL    HW1  448   1.408   1.039   1.680
  142SOL    HW2  449   1.379   0.930   1.563
  143SOL     OW  450   0.815   0.572   0.325
  143SOL    HW1  451   0.822   0.483   0.279
  143SOL    HW2  452   0.721   0.606   0.317
  144SOL     OW  453   1.657   0.604   1.206
  144SOL    HW1  454   1.619   0.535   1.268
  144SOL    HW2  455   1.739   0.568   1.162
  145SOL     OW  456   0.252   1.564   1.744
  145SOL    HW1  457   0.222   1.621   1.820
  145SOL    HW2  458   0.245   1.467   1.770
  146SOL     OW  459   0.671   0.464   1.269
  146SOL    HW1  460   0.637   0.375   1.239
  146SOL    HW2  461   0.697   0.518   1.189
  147SOL     OW  462   0.930   1.678   1.465
  147SOL    HW1  463   0.906   1.660   1.370
  147SOL    HW2  464   0.960   1.772   1.475
  148SOL     OW  465   0.473   0.500   0.191
  148SOL    HW1  466   0.534   0.580   0.195
  148SOL    HW2  467   0.378   0.531   0.198
  149SOL     OW  468   0.159   1.137   1.466
  149SOL    HW1  469   0.181   1.076   1.542
  149SOL    HW2  470   0.169   1.088   1.380
  150SOL     OW  471   1.347   1.059   1.234
  150SOL    HW1  472   1.371   0.996   1.160
  150SOL    HW2  473   1.257   1.099   1.216
  151SOL     OW  474   1.302   0.855   0.309
  151SOL    HW1  475   1.216   0.824   0.351
  151SOL    HW2  476   1.298   0.841   0.210
  152SOL     OW  477   1.759   1.747   1.154
  152SOL    HW1  478   1.820   1.777   1.081
  152SOL    HW2  479   1.721   1.658   1.132
  153SOL     OW  480   1.252   1.731   1.128
  153SOL    HW1  481   1.336   1.736   1.074
  153SOL    HW2  482   1.229   1.635   1.146
  154SOL     OW  483   0.083   1.258   1.022
  154SOL    HW1  484   0.078   1.257   1.122
  154SOL    HW2  485   0.000   1.217   0.984
  155SOL     OW  486   0.688   1.662   1.716
  155SOL    HW1  487   0.632   1.743   1.725
  155SOL    HW2  488   0.740   1.666   1.630
  156SOL     OW  489   0.903   0.086   0.133
  156SOL    HW1  490   0.954   0.087   0.047
  156SOL    HW2  491   0.959   0.044   0.204
  157SOL     OW  492   1.726   0.135   0.523
  157SOL    HW1  493   1.799   0.118   0.456
  157SOL    HW2  494   1.695   0.048   0.561
  158SOL     OW  495   1.388   1.573   0.477
  158SOL    HW1  496   1.455   1.585   0.403
  158SOL    HW2  497   1.348   1.662   0.500
  159SOL     OW  498   0.130   1.794   1.851
  159SOL    HW1  499   0.089   1.720   1.904
  159SOL    HW2  500   0.194   1.845   1.909
  160SOL     OW  501   1.280   0.927   0.672
  160SOL    HW1  502   1.340   0.846   0.674
  160SOL    HW2  503   1.320   0.996   0.612
  161SOL     OW  504   0.830   1.273   1.422
  161SOL    HW1  505   0.825   1.306   1.517
  161SOL    HW2  506   0.744   1.292   1.376
  162SOL     OW  507   0.672   1.616   0.154
  162SOL    HW1  508   0.681   1.626   0.055
  162SOL    HW2  509   0.632   1.527   0.175
  163SOL     OW  510   1.650   1.720   1.394
  163SOL    HW1  511   1.703   1.730   1.310
  163SOL    HW2  512   1.623   1.810   1.428
  164SOL     OW  513   1.841   0.175   0.963
  164SOL    HW1  514   1.880   0.090   0.927
  164SOL    HW2  515   1.743   0.177   0.944
  165SOL     OW  516   0.263   0.326   0.720
  165SOL    HW1  517   0.184   0.377   0.686
  165SOL    HW2  518   0.254   0.311   0.818
  166SOL     OW  519   1.194   1.612   0.031
  166SOL    HW1  520   1.200   1.519   0.068
  166SOL    HW2  521   1.135   1.612  -0.049
  167SOL     OW  522   0.822   1.002   1.372
  167SOL    HW1  523   0.862   1.001   1.280
  167SOL    HW2  524   0.832   1.094   1.412
  168SOL     OW  525   0.916   0.910   0.291
  168SOL    HW1  526   0.979   0.948   0.223
  168SOL    HW2  527   0.956   0.827   0.330
  169SOL     OW  528   1.504   1.607   0.044
  169SOL    HW1  529   1.412   1.644   0.051
  169SOL    HW2  530   1.542   1.627  -0.046
  170SOL     OW  531   0.372   1.288   1.490
  170SOL    HW1  532   0.359   1.381   1.456
  170SOL    HW2  533   0.288   1.236   1.477
  171SOL     OW  534   1.614   1.292   1.289
  171SOL    HW1  535   1.674   1.295   1.369
  171SOL    HW2  536   1.539   1.356   1.302
  172SOL     OW  537   1.039   1.098   0.696
  172SOL    HW1  538   0.969   1.051   0.750
  172SOL    HW2  539   1.098   1.030   0.653
  173SOL     OW  540   1.014   0.236   0.971
  173SOL    HW1  541   1.006   0.200   0.878
  173SOL    HW2  542   1.012   0.160   1.036
  174SOL     OW  543   0.590   1.487   0.491
  174SOL    HW1  544   0.632   1.429   0.421
  174SOL    HW2  545   0.546   1.566   0.447
  175SOL     OW  546   1.709   0.385   1.381
  175SOL    HW1  547   1.782   0.454   1.385
  175SOL    HW2  548   1.737   0.310   1.322
  176SOL     OW  549   0.255   1.348   0.290
  176SOL    HW1  550   0.159   1.349   0.263
  176SOL    HW2  551   0.267   1.401   0.374
  177SOL     OW  552   0.105   1.013   1.726
  177SOL    HW1  553   0.028   0.980   1.780
  177SOL    HW2  554   0.190   0.983   1.768
  178SOL     OW  555   0.672   0.203   1.489
  178SOL    HW1  556   0.762   0.187   1.449
  178SOL    HW2  557   0.680   0.208   1.588
  179SOL     OW  558   0.075   0.345   0.033
  179SOL    HW1  559  -0.017   0.317   0.004
  179SOL    HW2  560   0.106   0.422  -0.023
  180SOL     OW  561   1.440   0.856   1.398
  180SOL    HW1  562   1.383   0.908   1.335
  180SOL    HW2  563   1.536   0.868   1.374
  181SOL     OW  564   0.072   0.166   0.318
  181SOL    HW1  565   0.055   0.249   0.264
  181SOL    HW2  566   0.162   0.129   0.296
  182SOL     OW  567   1.183   1.335   0.119
  182SOL    HW1  568   1.084   1.324   0.121
  182SOL    HW2  569   1.217   1.350   0.212
  183SOL     OW  570   0.613   0.842   1.431
  183SOL    HW1  571   0.669   0.923   1.414
  183SOL    HW2  572   0.672   0.762   1.434
  184SOL     OW  573   1.493   1.767   0.959
  184SOL    HW1  574   1.526   1.831   0.890
  184SOL    HW2  575   1.559   1.761   1.034
  185SOL     OW  576   0.716   0.565   1.708
  185SOL    HW1  577   0.735   0.630   1.782
  185SOL    HW2  578   0.776   0.485   1.717
  186SOL     OW  579   1.450   1.220   1.633
  186SOL    HW1  580   1.441   1.210   1.732
  186SOL    HW2  581   1.546   1.213   1.607
  187SOL     OW  582   0.390   1.741   1.560
  187SOL    HW1  583   0.299   1.782   1.558
  187SOL    HW2  584   0.383   1.647   1.592
  188SOL     OW  585   1.674   0.883   1.254
  188SOL    HW1  586   1.647   0.794   1.217
  188SOL    HW2  587   1.675   0.951   1.181
  189SOL     OW  588   1.225   0.325   0.449
  189SOL    HW1  589   1.290   0.251   0.438
  189SOL    HW2  590   1.245   0.375   0.533
  190SOL     OW  591   0.594   0.745   0.652
  190SOL    HW1  592   0.644   0.830   0.633
  190SOL    HW2  593   0.506   0.747   0.604
  191SOL     OW  594   1.777   0.342   1.642
  191SOL    HW1  595   1.760   0.373   1.548
  191SOL    HW2  596   1.693   0.305   1.680
  192SOL     OW  597   1.730   0.934   1.517
  192SOL    HW1  598   1.768   1.025   1.532
  192SOL    HW2  599   1.722   0.917   1.418
  193SOL     OW  600   0.859   1.374   0.016
  193SOL    HW1  601   0.813   1.389   0.104
  193SOL    HW2  602   0.903   1.459  -0.014
  194SOL     OW  603   0.661   1.790   0.953
  194SOL    HW1  604   0.615   1.878   0.940
  194SOL    HW2  605   0.760   1.802   0.946
  195SOL     OW  606   0.859   0.956   0.861
  195SOL    HW1  607   0.913   0.887   0.909
  195SOL    HW2  608   0.827   1.025   0.927
  196SOL     OW  609   1.083   0.984   0.087
  196SOL    HW1  610   1.060   1.037   0.005
  196SOL    HW2  611   1.164   0.928   0.068
  197SOL     OW  612   1.861   1.569   0.851
  197SOL    HW1  613   1.790   1.557   0.781
  197SOL    HW2  614   1.862   1.490   0.911
  198SOL     OW  615   0.221   1.314   1.844
  198SOL    HW1  616   0.156   1.241   1.823
  198SOL    HW2  617   0.225   1.328   1.942
  199SOL     OW  618   0.079   1.240   0.653
  199SOL    HW1  619   0.078   1.193   0.741
  199SOL    HW2  620   0.161   1.212   0.602
  200SOL     OW  621   0.672   1.391   1.624
  200SOL    HW1  622   0.594   1.341   1.662
  200SOL    HW2  623   0.669   1.486   1.655
  201SOL     OW  624   1.824   0.192   1.227
  201SOL    HW1  625   1.820   0.102   1.271
  201SOL    HW2  626   1.827   0.181   1.128
  202SOL     OW  627   0.428   0.424   0.520
  202SOL    HW1  628   0.458   0.352   0.458
  202SOL    HW2  629   0.389   0.384   0.603
  203SOL     OW  630   1.705   1.487   1.104
  203SOL    HW1  631   1.612   1.462   1.077
  203SOL    HW2  632   1.731   1.437   1.186
  204SOL     OW  633   0.317   0.547   1.280
  204SOL    HW1  634   0.355   0.488   1.352
  204SOL    HW2  635   0.357   0.521   1.192
  205SOL     OW  636   0.812   1.586   0.687
  205SOL    HW1  637   0.844   1.596   0.593
  205SOL    HW2  638   0.733   1.524   0.689
  206SOL     OW  639   1.424   0.214   1.112
  206SOL    HW1  640   1.476   0.149   1.167
  206SOL    HW2  641   1.375   0.277   1.173
  207SOL     OW  642   1.001   0.034   1.154
  207SOL    HW1  643   0.938  -0.038   1.123
  207SOL    HW2  644   1.094  -0.002   1.154
  208SOL     OW  645   0.770   1.330   0.301
  208SOL    HW1  646   0.724   1.243   0.318
  208SOL    HW2  647   0.861   1.327   0.342
  209SOL     OW  648   0.618   1.567   1.284
  209SOL    HW1  649   0.613   1.649   1.341
  209SOL    HW2  650   0.707   1.564   1.239
  210SOL     OW  651   1.352   0.052   0.168
  210SOL    HW1  652   1.387   0.011   0.084
  210SOL    HW2  653   1.262   0.014   0.188
  211SOL     OW  654   1.300   0.453   0.691
  211SOL    HW1  655   1.241   0.533   0.695
  211SOL    HW2  656   1.315   0.418   0.784
  212SOL     OW  657   1.593   0.221   0.882
  212SOL    HW1  658   1.509   0.220   0.936
  212SOL    HW2  659   1.595   0.304   0.826
  213SOL     OW  660   0.039   1.077   0.300
  213SOL    HW1  661   0.138   1.066   0.291
  213SOL    HW2  662  -0.001   0.991   0.332
  214SOL     OW  663   0.875   1.646   0.337
  214SOL    HW1  664   0.798   1.611   0.283
  214SOL    HW2  665   0.843   1.717   0.399
  215SOL     OW  666   0.230   0.628   1.975
  215SOL    HW1  667   0.137   0.626   2.012
  215SOL    HW2  668   0.231   0.589   1.883
  216SOL     OW  669   0.225   0.275   2.858
  216SOL    HW1  670   0.260   0.258   2.950
  216SOL    HW2  671   0.137   0.230   2.846
  217SOL     OW  672   0.019   0.368   2.509
  217SOL    HW1  673  -0.063   0.411   2.548
  217SOL    HW2  674  -0.009   0.295   2.446
  218SOL     OW  675   0.569   1.275   3.027
  218SOL    HW1  676   0.476   1.268   2.990
  218SOL    HW2  677   0.580   1.364   3.071
  219SOL     OW  678   1.555   1.511   2.565
  219SOL    HW1  679   1.498   1.495   2.646
  219SOL    HW2  680   1.496   1.521   2.485
  220SOL     OW  681   1.135   0.703   2.579
  220SOL    HW1  682   1.192   0.781   2.554
  220SOL    HW2  683   1.075   0.729   2.655
  221SOL     OW  684   1.755   0.607   2.093
  221SOL    HW1  685   1.743   0.594   1.994
  221SOL    HW2  686   1.725   0.526   2.142
  222SOL     OW  687   0.768   1.144   2.885
  222SOL    HW1  688   0.690   1.161   2.945
  222SOL    HW2  689   0.802   1.231   2.849
  223SOL     OW  690   0.850   0.798   3.685
  223SOL    HW1  691   0.846   0.874   3.750
  223SOL    HW2  692   0.872   0.834   3.594
  224SOL     OW  693   0.685   1.012   2.527
  224SOL    HW1  694   0.754   0.996   2.597
  224SOL    HW2  695   0.612   1.069   2.565
  225SOL     OW  696   0.686   1.161   3.665
  225SOL    HW1  697   0.746   1.240   3.679
  225SOL    HW2  698   0.600   1.192   3.624
  226SOL     OW  699   0.335   1.435   2.923
  226SOL    HW1  700   0.257   1.404   2.870
  226SOL    HW2  701   0.393   1.493   2.866
  227SOL     OW  702   1.460   1.505   3.201
  227SOL    HW1  703   1.484   1.599   3.227
  227SOL    HW2  704   1.444   1.451   3.283
  228SOL     OW  705   0.438   0.392   3.361
  228SOL    HW1  706   0.520   0.336   3.370
  228SOL    HW2  707   0.357   0.334   3.365
  229SOL     OW  708   1.603   0.447   2.599
  229SOL    HW1  709   1.529   0.493   2.549
  229SOL    HW2  710   1.654   0.515   2.652
  230SOL     OW  711   0.231   1.713   2.345
  230SOL    HW1  712   0.265   1.790   2.399
  230SOL    HW2  713   0.275   1.713   2.255
  231SOL     OW  714   1.127   1.341   3.552
  231SOL    HW1  715   1.174   1.341   3.640
  231SOL    HW2  716   1.079   1.254   3.541
  232SOL     OW  717   0.230   1.434   2.400
  232SOL    HW1  718   0.204   1.530   2.400
  232SOL    HW2  719   0.159   1.380   2.445
  233SOL     OW  720   0.240   1.091   2.748
  233SOL    HW1  721   0.254   1.007   2.800
  233SOL    HW2  722   0.185   1.155   2.803
  234SOL     OW  723   0.620   1.786   3.301
  234SOL    HW1  724   0.528   1.769   3.336
  234SOL    HW2  725   0.648   1.878   3.327
  235SOL     OW  726   0.606   0.964   1.985
  235SOL    HW1  727   0.613   1.048   1.931
  235SOL    HW2  728   0.652   0.977   2.073
  236SOL     OW  729   1.594   0.114   3.342
  236SOL    HW1  730   1.576   0.181   3.270
  236SOL    HW2  731   1.591   0.160   3.431
  237SOL     OW  732   0.122   0.643   2.425
  237SOL    HW1  733   0.077   0.555   2.442
  237SOL    HW2  734   0.121   0.697   2.509
  238SOL     OW  735   1.842   1.767   2.221
  238SOL    HW1  736   1.896   1.738   2.301
  238SOL    HW2  737   1.872   1.857   2.192
  239SOL     OW  738   0.027   1.596   1.979
  239SOL    HW1  739   0.008   1.500   2.000
  239SOL    HW2  740  -0.006   1.654   2.054
  240SOL     OW  741   1.689   0.922   2.474
  240SOL    HW1  742   1.784   0.893   2.482
  240SOL    HW2  743   1.681   0.987   2.399
  241SOL     OW  744   1.641   1.108   2.294
  241SOL    HW1  745   1.727   1.110   2.242
  241SOL    HW2  746   1.655   1.155   2.382
  242SOL     OW  747   0.113   0.737   3.459
  242SOL    HW1  748   0.201   0.724   3.504
  242SOL    HW2  749   0.100   0.834   3.437
  243SOL     OW  750   0.613   1.365   2.588
  243SOL    HW1  751   0.564   1.278   2.597
  243SOL    HW2  752   0.590   1.408   2.501
  244SOL     OW  753   1.293   1.228   3.285
  244SOL    HW1  754   1.330   1.155   3.227
  244SOL    HW2  755   1.345   1.233   3.370
  245SOL     OW  756   0.809   0.004   2.364
  245SOL    HW1  757   0.849   0.095   2.355
  245SOL    HW2  758   0.709   0.012   2.370
  246SOL     OW  759   0.197   0.976   3.126
  246SOL    HW1  760   0.286   0.931   3.112
  246SOL    HW2  761   0.124   0.911   3.107
  247SOL     OW  762   1.525   0.999   2.052
  247SOL    HW1  763   1.462   0.923   2.065
  247SOL    HW2  764   1.573   1.017   2.138
  248SOL     OW  765   1.187   1.792   3.478
  248SOL    HW1  766   1.211   1.852   3.402
  248SOL    HW2  767   1.194   1.697   3.448
  249SOL     OW  768   0.317   0.251   3.663
  249SOL    HW1  769   0.388   0.322   3.669
  249SOL    HW2  770   0.229   0.290   3.691
  250SOL     OW  771   1.466   1.417   2.815
  250SOL    HW1  772   1.407   1.423   2.895
  250SOL    HW2  773   1.451   1.329   2.769
  251SOL     OW  774   1.667   1.714   2.434
  251SOL    HW1  775   1.626   1.691   2.346
  251SOL    HW2  776   1.649   1.640   2.499
  252SOL     OW  777   0.598   0.729   2.132
  252SOL    HW1  778   0.622   0.798   2.064
  252SOL    HW2  779   0.520   0.762   2.186
  253SOL     OW  780   1.281   0.345   2.806
  253SOL    HW1  781   1.195   0.295   2.793
  253SOL    HW2  782   1.343   0.291   2.862
  254SOL     OW  783   1.576   1.662   2.169
  254SOL    HW1  784   1.665   1.708   2.172
  254SOL    HW2  785   1.555   1.638   2.074
  255SOL     OW  786   0.807   0.605   3.327
  255SOL    HW1  787   0.760   0.602   3.416
  255SOL    HW2  788   0.756   0.550   3.261
  256SOL     OW  789   1.394   0.469   3.536
  256SOL    HW1  790   1.374   0.512   3.624
  256SOL    HW2  791   1.472   0.407   3.545
  257SOL     OW  792   0.973   0.890   3.434
  257SOL    HW1  793   1.019   0.806   3.405
  257SOL    HW2  794   0.917   0.924   3.359
  258SOL     OW  795   0.991   0.410   3.104
  258SOL    HW1  796   0.914   0.444   3.158
  258SOL    HW2  797   0.957   0.359   3.025
  259SOL     OW  798   1.041   0.701   2.291
  259SOL    HW1  799   1.067   0.697   2.387
  259SOL    HW2  800   0.956   0.650   2.277
  260SOL     OW  801   0.076   0.811   2.651
  260SOL    HW1  802   0.175   0.799   2.660
  260SOL    HW2  803   0.052   0.906   2.672
  261SOL     OW  804   0.130   1.821   3.433
  261SOL    HW1  805   0.120   1.806   3.532
  261SOL    HW2  806   0.044   1.857   3.397
  262SOL     OW  807   0.865   0.348   2.057
  262SOL    HW1  808   0.924   0.411   2.008
  262SOL    HW2  809   0.884   0.254   2.028
  263SOL     OW  810   1.719   0.585   3.693
  263SOL    HW1  811   1.693   0.674   3.657
  263SOL    HW2  812   1.717   0.517   3.620
  264SOL     OW  813   1.362   1.144   2.407
  264SOL    HW1  814   1.445   1.115   2.359
  264SOL    HW2  815   1.313   1.211   2.351
  265SOL     OW  816   0.550   0.196   2.747
  265SOL    HW1  817   0.545   0.191   2.847
  265SOL    HW2  818   0.552   0.292   2.718
  266SOL     OW  819   1.008   1.456   2.339
  266SOL    HW1  820   0.962   1.528   2.287
  266SOL    HW2  821   1.004   1.476   2.437
  267SOL     OW  822   0.351   1.801   2.715
  267SOL    HW1  823   0.401   1.715   2.721
  267SOL    HW2  824   0.416   1.878   2.712
  268SOL     OW  825   1.795   1.066   2.735
  268SOL    HW1  826   1.733   1.051   2.659
  268SOL    HW2  827   1.743   1.077   2.820
  269SOL     OW  828   1.227   1.550   3.368
  269SOL    HW1  829   1.233   1.473   3.432
  269SOL    HW2  830   1.175   1.524   3.288
  270SOL     OW  831   0.321   0.943   2.104
  270SOL    HW1  832   0.403   0.982   2.062
  270SOL    HW2  833   0.294   0.861   2.055
  271SOL     OW  834   1.458   0.735   2.590
  271SOL    HW1  835   1.453   0.670   2.665
  271SOL    HW2  836   1.538   0.794   2.603
  272SOL     OW  837   0.461   1.266   3.589
  272SOL    HW1  838   0.411   1.267   3.503
  272SOL    HW2  839   0.398   1.248   3.665
  273SOL     OW  840   1.111   1.776   2.099
  273SOL    HW1  841   1.051   1.714   2.149
  273SOL    HW2  842   1.142   1.732   2.014
  274SOL     OW  843   0.202   0.285   3.360
  274SOL    HW1  844   0.122   0.345   3.347
  274SOL    HW2  845   0.192   0.236   3.446
  275SOL     OW  846   1.632   1.377   1.943
  275SOL    HW1  847   1.600   1.471   1.933
  275SOL    HW2  848   1.556   1.314   1.931
  276SOL     OW  849   0.464   1.743   2.185
  276SOL    HW1  850   0.497   1.782   2.271
  276SOL    HW2  851   0.540   1.736   2.120
  277SOL     OW  852   1.400   0.107   2.288
  277SOL    HW1  853   1.376   0.070   2.198
  277SOL    HW2  854   1.499   0.123   2.292
  278SOL     OW  855   0.249   1.785   3.103
  278SOL    HW1  856   0.306   1.720   3.153
  278SOL    HW2  857   0.233   1.752   3.010
  279SOL     OW  858   0.940   1.698   2.766
  279SOL    HW1  859   1.020   1.641   2.787
  279SOL    HW2  860   0.891   1.658   2.689
  280SOL     OW  861   0.382   0.700   2.342
  280SOL    HW1  862   0.427   0.610   2.339
  280SOL    HW2  863   0.288   0.689   2.375
  281SOL     OW  864   1.547   0.222   3.591
  281SOL    HW1  865   1.542   0.259   3.683
  281SOL    HW2  866   1.475   0.153   3.579
  282SOL     OW  867   0.614   0.122   1.979
  282SOL    HW1  868   0.712   0.100   1.986
  282SOL    HW2  869   0.583   0.105   1.886
  283SOL     OW  870   0.781   0.264   3.611
  283SOL    HW1  871   0.848   0.203   3.654
  283SOL    HW2  872   0.708   0.283   3.676
  284SOL     OW  873   0.888   1.514   3.057
  284SOL    HW1  874   0.865   1.489   2.963
  284SOL    HW2  875   0.949   1.445   3.096
  285SOL     OW  876   1.351   0.590   3.295
  285SOL    HW1  877   1.379   0.547   3.380
  285SOL    HW2  878   1.376   0.686   3.296
  286SOL     OW  879   0.803   1.402   2.786
  286SOL    HW1  880   0.893   1.416   2.744
  286SOL    HW2  881   0.732   1.404   2.715
  287SOL     OW  882   0.922   0.503   2.761
  287SOL    HW1  883   0.897   0.494   2.665
  287SOL    HW2  884   0.970   0.421   2.792
  288SOL     OW  885   0.539   0.064   2.374
  288SOL    HW1  886   0.458   0.065   2.432
  288SOL    HW2  887   0.542   0.147   2.319
  289SOL     OW  888   1.434   1.188   1.903
  289SOL    HW1  889   1.466   1.112   1.960
  289SOL    HW2  890   1.342   1.215   1.933
  290SOL     OW  891   0.297   0.035   2.033
  290SOL    HW1  892   0.346   0.119   2.012
  290SOL    HW2  893   0.359  -0.030   2.078
  291SOL     OW  894   0.935   0.236   2.342
  291SOL    HW1  895   0.887   0.277   2.264
  291SOL    HW2  896   1.034   0.234   2.323
  292SOL     OW  897   1.076   0.683   3.326
  292SOL    HW1  898   0.996   0.622   3.329
  292SOL    HW2  899   1.157   0.630   3.302
  293SOL     OW  900   1.227   1.570   2.655
  293SOL    HW1  901   1.248   1.644   2.590
  293SOL    HW2  902   1.295   1.570   2.728
  294SOL     OW  903   0.459   1.152   2.603
  294SOL    HW1  904   0.388   1.125   2.668
  294SOL    HW2  905   0.433   1.124   2.510
  295SOL     OW  906   1.271   1.797   2.453
  295SOL    HW1  907   1.315   1.861   2.389
  295SOL    HW2  908   1.221   1.849   2.523
  296SOL     OW  909   1.032   0.549   1.878
  296SOL    HW1  910   0.991   0.631   1.839
  296SOL    HW2  911   1.096   0.575   1.951
  297SOL     OW  912   0.078   0.556   3.248
  297SOL    HW1  913   0.170   0.555   3.207
  297SOL    HW2  914   0.072   0.630   3.315
  298SOL     OW  915   0.561   0.222   3.009
  298SOL    HW1  916   0.599   0.138   3.046
  298SOL    HW2  917   0.473   0.241   3.053
  299SOL     OW  918   0.866   0.454   2.504
  299SOL    HW1  919   0.834   0.526   2.442
  299SOL    HW2  920   0.890   0.373   2.451
  300SOL     OW  921   1.017   0.039   2.615
  300SOL    HW1  922   0.945   0.044   2.546
  300SOL    HW2  923   0.993  -0.030   2.684
  301SOL     OW  924   1.429   1.173   2.729
  301SOL    HW1  925   1.374   1.089   2.722
  301SOL    HW2  926   1.455   1.202   2.637
  302SOL     OW  927   1.466   0.590   2.854
  302SOL    HW1  928   1.436   0.495   2.861
  302SOL    HW2  929   1.539   0.606   2.920
  303SOL     OW  930   1.857   0.833   2.239
  303SOL    HW1  931   1.899   0.769   2.303
  303SOL    HW2  932   1.819   0.782   2.161
  304SOL     OW  933   0.488   1.385   2.036
  304SOL    HW1  934   0.401   1.370   2.083
  304SOL    HW2  935   0.471   1.411   1.941
  305SOL     OW  936   1.664   1.280   2.519
  305SOL    HW1  937   1.763   1.288   2.533
  305SOL    HW2  938   1.619   1.364   2.550
  306SOL     OW  939   1.390   0.575   1.940
  306SOL    HW1  940   1.336   0.554   2.021
  306SOL    HW2  941   1.481   0.534   1.949
  307SOL     OW  942   0.527   0.256   2.190
  307SOL    HW1  943   0.554   0.197   2.115
  307SOL    HW2  944   0.527   0.351   2.159
  308SOL     OW  945   1.754   1.223   3.450
  308SOL    HW1  946   1.845   1.184   3.437
  308SOL    HW2  947   1.762   1.319   3.474
  309SOL     OW  948   1.064   1.347   3.202
  309SOL    HW1  949   0.984   1.324   3.257
  309SOL    HW2  950   1.147   1.321   3.251
  310SOL     OW  951   1.592   1.629   3.487
  310SOL    HW1  952   1.619   1.663   3.397
  310SOL    HW2  953   1.671   1.591   3.533
  311SOL     OW  954   1.111   1.195   2.962
  311SOL    HW1  955   1.071   1.239   3.043
  311SOL    HW2  956   1.070   1.232   2.879
  312SOL     OW  957   1.638   1.099   2.941
  312SOL    HW1  958   1.643   1.180   3.000
  312SOL    HW2  959   1.552   1.101   2.890
  313SOL     OW  960   0.915   0.089   3.264
  313SOL    HW1  961   0.940   0.069   3.169
  313SOL    HW2  962   0.987   0.145   3.306
  314SOL     OW  963   0.980   1.116   3.581
  314SOL    HW1  964   0.881   1.122   3.591
  314SOL    HW2  965   1.003   1.036   3.525
  315SOL     OW  966   0.705   1.050   2.230
  315SOL    HW1  967   0.691   1.057   2.329
  315SOL    HW2  968   0.789   0.999   2.212
  316SOL     OW  969   0.410   0.813   3.113
  316SOL    HW1  970   0.496   0.825   3.163
  316SOL    HW2  971   0.368   0.726   3.140
  317SOL     OW  972   1.274   0.386   3.124
  317SOL    HW1  973   1.295   0.460   3.188
  317SOL    HW2  974   1.185   0.403   3.081
  318SOL     OW  975   0.064   1.564   3.193
  318SOL    HW1  976   0.018   1.646   3.159
  318SOL    HW2  977   0.162   1.583   3.202
  319SOL     OW  978   0.367   1.100   2.363
  319SOL    HW1  979   0.360   1.183   2.307
  319SOL    HW2  980   0.371   1.020   2.303
  320SOL     OW  981   0.566   0.537   2.727
  320SOL    HW1  982   0.578   0.603   2.653
  320SOL    HW2  983   0.612   0.571   2.810
  321SOL     OW  984   1.252   1.348   2.250
  321SOL    HW1  985   1.302   1.425   2.290
  321SOL    HW2  986   1.157   1.350   2.282
  322SOL     OW  987   1.272   1.445   3.004
  322SOL    HW1  988   1.319   1.458   3.091
  322SOL    HW2  989   1.206   1.371   3.013
  323SOL     OW  990   1.582   0.639   2.334
  323SOL    HW1  991   1.551   0.700   2.407
  323SOL    HW2  992   1.632   0.691   2.265
  324SOL     OW  993   0.354   1.510   3.191
  324SOL    HW1  994   0.333   1.466   3.104
  324SOL    HW2  995   0.451   1.536   3.194
  325SOL     OW  996   0.402   0.751   3.460
  325SOL    HW1  997   0.470   0.806   3.413
  325SOL    HW2  998   0.442   0.663   3.487
  326SOL     OW  999   1.587   0.779   3.532
  326SOL    HW1 1000   1.495   0.817   3.527
  326SOL    HW2 1001   1.647   0.826   3.467
  327SOL     OW 1002   1.013   0.105   3.632
  327SOL    HW1 1003   1.019   0.190   3.580
  327SOL    HW2 1004   1.045   0.029   3.575
  328SOL     OW 1005   0.504   0.050   3.602
  328SOL    HW1 1006   0.462  -0.007   3.532
  328SOL    HW2 1007   0.438   0.119   3.634
  329SOL     OW 1008   0.573   0.870   2.891
  329SOL    HW1 1009   0.617   0.959   2.882
  329SOL    HW2 1010   0.510   0.870   2.968
  330SOL     OW 1011   1.360   0.862   2.907
  330SOL    HW1 1012   1.285   0.862   2.841
  330SOL    HW2 1013   1.397   0.770   2.916
  331SOL     OW 1014   1.209   0.525   2.137
  331SOL    HW1 1015   1.222   0.441   2.191
  331SOL    HW2 1016   1.180   0.599   2.197
  332SOL     OW 1017   0.307   0.213   3.093
  332SOL    HW1 1018   0.284   0.250   3.183
  332SOL    HW2 1019   0.277   0.118   3.087
  333SOL     OW 1020   0.037   1.310   3.144
  333SOL    HW1 1021   0.090   1.261   3.212
  333SOL    HW2 1022   0.059   1.408   3.149
  334SOL     OW 1023   0.732   0.634   2.926
  334SOL    HW1 1024   0.791   0.608   2.850
  334SOL    HW2 1025   0.704   0.730   2.915
  335SOL     OW 1026   1.728   0.935   3.716
  335SOL    HW1 1027   1.682   0.928   3.627
  335SOL    HW2 1028   1.666   0.979   3.782
  336SOL     OW 1029   0.307   0.063   2.480
  336SOL    HW1 1030   0.296   0.157   2.513
  336SOL    HW2 1031   0.302   0.000   2.557
  337SOL     OW 1032   1.622   0.367   2.236
  337SOL    HW1 1033   1.624   0.291   2.300
  337SOL    HW2 1034   1.574   0.444   2.276
  338SOL     OW 1035   1.023   0.766   2.828
  338SOL    HW1 1036   1.038   0.787   2.924
  338SOL    HW2 1037   0.993   0.671   2.819
  339SOL     OW 1038   0.980   1.573   3.562
  339SOL    HW1 1039   0.960   1.617   3.474
  339SOL    HW2 1040   1.019   1.482   3.546
  340SOL     OW 1041   1.859   1.518   3.467
  340SOL    HW1 1042   1.873   1.545   3.372
  340SOL    HW2 1043   1.942   1.540   3.520
  341SOL     OW 1044   0.350   0.898   3.666
  341SOL    HW1 1045   0.426   0.942   3.714
  341SOL    HW2 1046   0.385   0.851   3.584
  342SOL     OW 1047   1.540   0.274   1.987
  342SOL    HW1 1048   1.479   0.199   2.010
  342SOL    HW2 1049   1.562   0.326   2.070
  343SOL     OW 1050   1.303   0.838   1.904
  343SOL    HW1 1051   1.337   0.745   1.919
  343SOL    HW2 1052   1.321   0.865   1.809
  344SOL     OW 1053   1.068   1.333   2.711
  344SOL    HW1 1054   1.075   1.249   2.656
  344SOL    HW2 1055   1.130   1.402   2.675
  345SOL     OW 1056   0.319   0.810   2.811
  345SOL    HW1 1057   0.412   0.846   2.816
  345SOL    HW2 1058   0.313   0.725   2.863
  346SOL     OW 1059   0.339   0.509   2.868
  346SOL    HW1 1060   0.287   0.426   2.851
  346SOL    HW2 1061   0.416   0.514   2.804
  347SOL     OW 1062   1.138   0.380   3.540
  347SOL    HW1 1063   1.093   0.443   3.604
  347SOL    HW2 1064   1.231   0.411   3.523
  348SOL     OW 1065   1.160   0.207   3.339
  348SOL    HW1 1066   1.160   0.271   3.416
  348SOL    HW2 1067   1.188   0.255   3.256
  349SOL     OW 1068   0.008   1.326   2.062
  349SOL    HW1 1069  -0.085   1.347   2.031
  349SOL    HW2 1070   0.018   1.227   2.075
  350SOL     OW 1071   0.088   1.801   2.789
  350SOL    HW1 1072   0.046   1.715   2.762
  350SOL    HW2 1073   0.182   1.804   2.755
  351SOL     OW 1074   0.504   1.568   2.772
  351SOL    HW1 1075   0.570   1.642   2.781
  351SOL    HW2 1076   0.548   1.489   2.730
  352SOL     OW 1077   1.002   0.796   3.100
  352SOL    HW1 1078   1.043   0.764   3.186
  352SOL    HW2 1079   0.906   0.769   3.097
  353SOL     OW 1080   0.040   0.544   2.976
  353SOL    HW1 1081   0.125   0.511   2.935
  353SOL    HW2 1082   0.053   0.559   3.074
  354SOL     OW 1083   0.189   0.520   3.584
  354SOL    HW1 1084   0.248   0.480   3.514
  354SOL    HW2 1085   0.131   0.591   3.543
  355SOL     OW 1086   1.369   0.950   3.522
  355SOL    HW1 1087   1.408   1.039   3.542
  355SOL    HW2 1088   1.379   0.930   3.425
  356SOL     OW 1089   0.815   0.572   2.187
  356SOL    HW1 1090   0.822   0.483   2.141
  356SOL    HW2 1091   0.721   0.606   2.179
  357SOL     OW 1092   1.657   0.604   3.068
  357SOL    HW1 1093   1.619   0.535   3.130
  357SOL    HW2 1094   1.739   0.568   3.024
  358SOL     OW 1095   0.252   1.564   3.606
  358SOL    HW1 1096   0.222   1.621   3.682
  358SOL    HW2 1097   0.245   1.467   3.632
  359SOL     OW 1098   0.671   0.464   3.131
  359SOL    HW1 1099   0.637   0.375   3.101
  359SOL    HW2 1100   0.697   0.518   3.051
  360SOL     OW 1101   0.930   1.678   3.327
  360SOL    HW1 1102   0.906   1.660   3.232
  360SOL    HW2 1103   0.960   1.772   3.337
  361SOL     OW 1104   0.473   0.500   2.053
  361SOL    HW1 1105   0.534   0.580   2.057
  361SOL    HW2 1106   0.378   0.531   2.060
  362SOL     OW 1107   0.159   1.137   3.328
  362SOL    HW1 1108   0.181   1.076   3.404
  362SOL    HW2 1109   0.169   1.088   3.242
  363SOL     OW 1110   1.347   1.059   3.096
  363SOL    HW1 1111   1.371   0.996   3.022
  363SOL    HW2 1112   1.257   1.099   3.078
  364SOL     OW 1113   1.302   0.855   2.171
  364SOL    HW1 1114   1.216   0.824   2.213
  364SOL    HW2 1115   1.298   0.841   2.072
  365SOL     OW 1116   1.759   1.747   3.016
  365SOL    HW1 1117   1.820   1.777   2.943
  365SOL    HW2 1118   1.721   1.658   2.994
  366SOL     OW 1119   1.252   1.731   2.990
  366SOL    HW1 1120   1.336   1.736   2.936
  366SOL    HW2 1121   1.229   1.635   3.008
  367SOL     OW 1122   0.083   1.258   2.884
  367SOL    HW1 1123   0.078   1.257   2.984
  367SOL    HW2 1124   0.000   1.217   2.846
  368SOL     OW 1125   0.688   1.662   3.578
  368SOL    HW1 1126   0.632   1.743   3.587
  368SOL    HW2 1127   0.740   1.666   3.492
  369SOL     OW 1128   1.726   0.135   2.385
  369SOL    HW1 1129   1.799   0.118   2.318
  369SOL    HW2 1130   1.695   0.048   2.423
  370SOL     OW 1131   1.388   1.573   2.339
  370SOL    HW1 1132   1.455   1.585   2.265
  370SOL    HW2 1133   1.348   1.662   2.362
  371SOL     OW 1134   0.130   1.794   3.713
  371SOL    HW1 1135   0.089   1.720   3.766
  371SOL    HW2 1136   0.194   1.845   3.771
  372SOL     OW 1137   1.280   0.927   2.534
  372SOL    HW1 1138   1.340   0.846   2.536
  372SOL    HW2 1139   1.320   0.996   2.474
  373SOL     OW 1140   0.830   1.273   3.284
  373SOL    HW1 1141   0.825   1.306   3.379
  373SOL    HW2 1142   0.744   1.292   3.238
  374SOL     OW 1143   0.672   1.616   2.016
  374SOL    HW1 1144   0.681   1.626   1.917
  374SOL    HW2 1145   0.632   1.527   2.037
  375SOL     OW 1146   1.650   1.720   3.256
  375SOL    HW1 1147   1.703   1.730   3.172
  375SOL    HW2 1148   1.623   1.810   3.290
  376SOL     OW 1149   1.841   0.175   2.825
  376SOL    HW1 1150   1.880   0.090   2.789
  376SOL    HW2 1151   1.743   0.177   2.806
  377SOL     OW 1152   0.263   0.326   2.582
  377SOL    HW1 1153   0.184   0.377   2.548
  377SOL    HW2 1154   0.254   0.311   2.680
  378SOL     OW 1155   1.194   1.612   1.893
  378SOL    HW1 1156   1.200   1.519   1.930
  378SOL    HW2 1157   1.135   1.612   1.813
  379SOL     OW 1158   0.822   1.002   3.234
  379SOL    HW1 1159   0.862   1.001   3.142
  379SOL    HW2 1160   0.832   1.094   3.274
  380SOL     OW 1161   0.916   0.910   2.153
  380SOL    HW1 1162   0.979   0.948   2.085
  380SOL    HW2 1163   0.956   0.827   2.192
  381SOL     OW 1164   1.504   1.607   1.906
  381SOL    HW1 1165   1.412   1.644   1.913
  381SOL    HW2 1166   1.542   1.627   1.816
  382SOL     OW 1167   0.372   1.288   3.352
  382SOL    HW1 1168   0.359   1.381   3.318
  382SOL    HW2 1169   0.288   1.236   3.339
  383SOL     OW 1170   1.614   1.292   3.151
  383SOL    HW1 1171   1.674   1.295   3.231
  383SOL    HW2 1172   1.539   1.356   3.164
  384SOL     OW 1173   1.039   1.098   2.558
  384SOL    HW1 1174   0.969   1.051   2.612
  384SOL    HW2 1175   1.098   1.030   2.515
  385SOL     OW 1176   1.014   0.236   2.833
  385SOL    HW1 1177   1.006   0.200   2.740
  385SOL    HW2 1178   1.012   0.160   2.898
  386SOL     OW 1179   0.590   1.487   2.353
  386SOL    HW1 1180   0.632   1.429   2.283
  386SOL    HW2 1181   0.546   1.566   2.309
  387SOL     OW 1182   1.709   0.385   3.243
  387SOL    HW1 1183   1.782   0.454   3.247
  387SOL    HW2 1184   1.737   0.310   3.184
  388SOL     OW 1185   0.255   1.348   2.152
  388SOL    HW1 1186   0.159   1.349   2.125
  388SOL    HW2 1187   0.267   1.401   2.236
  389SOL     OW 1188   0.105   1.013   3.588
  389SOL    HW1 1189   0.028   0.980   3.642
  389SOL    HW2 1190   0.190   0.983   3.630
  390SOL     OW 1191   0.672   0.203   3.351
  390SOL    HW1 1192   0.762   0.187   3.311
  390SOL    HW2 1193   0.680   0.208   3.450
  391SOL     OW 1194   0.075   0.345   1.895
  391SOL    HW1 1195  -0.017   0.317   1.866
  391SOL    HW2 1196   0.106   0.422   1.839
  392SOL     OW 1197   1.440   0.856   3.260
  392SOL    HW1 1198   1.383   0.908   3.197
  392SOL    HW2 1199   1.536   0.868   3.236
  393SOL     OW 1200   0.072   0.166   2.180
  393SOL    HW1 1201   0.055   0.249   2.126
  393SOL    HW2 1202   0.162   0.129   2.158
  394SOL     OW 1203   1.183   1.335   1.981
  394SOL    HW1 1204   1.084   1.324   1.983
  394SOL    HW2 1205   1.217   1.350   2.074
  395SOL     OW 1206   0.613   0.842   3.293
  395SOL    HW1 1207   0.669   0.923   3.276
  395SOL    HW2 1208   0.672   0.762   3.296
  396SOL     OW 1209   1.493   1.767   2.821
  396SOL    HW1 1210   1.526   1.831   2.752
  396SOL    HW2 1211   1.559   1.761   2.896
  397SOL     OW 1212   0.716   0.565   3.570
  397SOL    HW1 1213   0.735   0.630   3.644
  397SOL    HW2 1214   0.776   0.485   3.579
  398SOL     OW 1215   1.450   1.220   3.495
  398SOL    HW1 1216   1.441   1.210   3.594
  398SOL    HW2 1217   1.546   1.213   3.469
  399SOL     OW 1218   0.390   1.741   3.422
  399SOL    HW1 1219   0.299   1.782   3.420
  399SOL    HW2 1220   0.383   1.647   3.454
  400SOL     OW 1221   1.674   0.883   3.116
  400SOL    HW1 1222   1.647   0.794   3.079
  400SOL    HW2 1223   1.675   0.951   3.043
  401SOL     OW 1224   1.225   0.325   2.311
  401SOL    HW1 1225   1.290   0.251   2.300
  401SOL    HW2 1226   1.245   0.375   2.395
  402SOL     OW 1227   0.594   0.745   2.514
  402SOL    HW1 1228   0.644   0.830   2.495
  402SOL    HW2 1229   0.506   0.747   2.466
  403SOL     OW 1230   1.777   0.342   3.504
  403SOL    HW1 1231   1.760   0.373   3.410
  403SOL    HW2 1232   1.693   0.305   3.542
  404SOL     OW 1233   1.730   0.934   3.379
  404SOL    HW1 1234   1.768   1.025   3.394
  404SOL    HW2 1235   1.722   0.917   3.280
  405SOL     OW 1236   0.859   1.374   1.878
  405SOL    HW1 1237   0.813   1.389   1.966
  405SOL    HW2 1238   0.903   1.459   1.848
  406SOL     OW 1239   0.661   1.790   2.815
  406SOL    HW1 1240   0.615   1.878   2.802
  406SOL    HW2 1241   0.760   1.802   2.808
  407SOL     OW 1242   0.859   0.956   2.723
  407SOL    HW1 1243   0.913   0.887   2.771
  407SOL    HW2 1244   0.827   1.025   2.789
  408SOL     OW 1245   1.083   0.984   1.949
  408SOL    HW1 1246   1.060   1.037   1.867
  408SOL    HW2 1247   1.164   0.928   1.930
  409SOL     OW 1248   1.861   1.569   2.713
  409SOL    HW1 1249   1.790   1.557   2.643
  409SOL    HW2 1250   1.862   1.490   2.773
  410SOL     OW 1251   0.221   1.314   3.706
  410SOL    HW1 1252   0.156   1.241   3.685
  410SOL    HW2 1253   0.225   1.328   3.804
  411SOL     OW 1254   0.079   1.240   2.515
  411SOL    HW1 1255   0.078   1.193   2.603
  411SOL    HW2 1256   0.161   1.212   2.464
  412SOL     OW 1257   0.672   1.391   3.486
  412SOL    HW1 1258   0.594   1.341   3.524
  412SOL    HW2 1259   0.669   1.486   3.517
  413SOL     OW 1260   1.824   0.192   3.089
  413SOL    HW1 1261   1.820   0.102   3.133
  413SOL    HW2 1262   1.827   0.181   2.990
  414SOL     OW 1263   0.428   0.424   2.382
  414SOL    HW1 1264   0.458   0.352   2.320
  414SOL    HW2 1265   0.389   0.384   2.465
  415SOL     OW 1266   1.705   1.487   2.966
  415SOL    HW1 1267   1.612   1.462   2.939
  415SOL    HW2 1268   1.731   1.437   3.048
  416SOL     OW 1269   0.317   0.547   3.142
  416SOL    HW1 1270   0.355   0.488   3.214
  416SOL    HW2 1271   0.357   0.521   3.054
  417SOL     OW 1272   0.812   1.586   2.549
  417SOL    HW1 1273   0.844   1.596   2.455
  417SOL    HW2 1274   0.733   1.524   2.551
  418SOL     OW 1275   1.424   0.214   2.974
  418SOL    HW1 1276   1.476   0.149   3.029
  418SOL    HW2 1277   1.375   0.277   3.035
  419SOL     OW 1278   1.001   0.034   3.016
  419SOL    HW1 1279   0.938  -0.038   2.985
  419SOL    HW2 1280   1.094  -0.002   3.016
  420SOL     OW 1281   0.770   1.330   2.163
  420SOL    HW1 1282   0.724   1.243   2.180
  420SOL    HW2 1283   0.861   1.327   2.204
  421SOL     OW 1284   0.618   1.567   3.146
  421SOL    HW1 1285   0.613   1.649   3.203
  421SOL    HW2 1286   0.707   1.564   3.101
  422SOL     OW 1287   1.352   0.052   2.030
  422SOL    HW1 1288   1.387   0.011   1.946
  422SOL    HW2 1289   1.262   0.014   2.050
  423SOL     OW 1290   1.300   0.453   2.553
  423SOL    HW1 1291   1.241   0.533   2.557
  423SOL    HW2 1292   1.315   0.418   2.646
  424SOL     OW 1293   1.593   0.221   2.744
  424SOL    HW1 1294   1.509   0.220   2.798
  424SOL    HW2 1295   1.595   0.304   2.688
  425SOL     OW 1296   0.039   1.077   2.162
  425SOL    HW1 1297   0.138   1.066   2.153
  425SOL    HW2 1298  -0.001   0.991   2.194
  426SOL     OW 1299   0.875   1.646   2.199
  426SOL    HW1 1300   0.798   1.611   2.145
  426SOL    HW2 1301   0.843   1.717   2.261
  427SOL     OW 1302   0.230   0.628   3.837
  427SOL    HW1 1303   0.137   0.626   3.874
  427SOL    HW2 1304   0.231   0.589   3.745
  428SOL     OW 1305   0.225   0.275   4.720
  428SOL    HW1 1306   0.260   0.258   4.812
  428SOL    HW2 1307   0.137   0.230   4.708
  429SOL     OW 1308   0.019   0.368   4.371
  429SOL    HW1 1309  -0.063   0.411   4.410
  429SOL    HW2 1310  -0.009   0.295   4.308
  430SOL     OW 1311   1.555   1.511   4.427
  430SOL    HW1 1312   1.498   1.495   4.508
  430SOL    HW2 1313   1.496   1.521   4.347
  431SOL     OW 1314   1.135   0.703   4.441
  431SOL    HW1 1315   1.192   0.781   4.416
  431SOL    HW2 1316   1.075   0.729   4.517
  432SOL     OW 1317   1.755   0.607   3.955
  432SOL    HW1 1318   1.743   0.594   3.856
  432SOL    HW2 1319   1.725   0.526   4.004
  433SOL     OW 1320   0.768   1.144   4.747
  433SOL    HW1 1321   0.690   1.161   4.807
  433SOL    HW2 1322   0.802   1.231   4.711
  434SOL     OW 1323   0.685   1.012   4.389
  434SOL    HW1 1324   0.754   0.996   4.459
  434SOL    HW2 1325   0.612   1.069   4.427
  435SOL     OW 1326   0.335   1.435   4.785
  435SOL    HW1 1327   0.257   1.404   4.732
  435SOL    HW2 1328   0.393   1.493   4.728
  436SOL     OW 1329   1.603   0.447   4.461
  436SOL    HW1 1330   1.529   0.493   4.411
  436SOL    HW2 1331   1.654   0.515   4.514
  437SOL     OW 1332   0.231   1.713   4.207
  437SOL    HW1 1333   0.265   1.790   4.261
  437SOL    HW2 1334   0.275   1.713   4.117
  438SOL     OW 1335   0.230   1.434   4.262
  438SOL    HW1 1336   0.204   1.530   4.262
  438SOL    HW2 1337   0.159   1.380   4.307
  439SOL     OW 1338   0.240   1.091   4.610
  439SOL    HW1 1339   0.254   1.007   4.662
  439SOL    HW2 1340   0.185   1.155   4.665
  440SOL     OW 1341   0.606   0.964   3.847
  440SOL    HW1 1342   0.613   1.048   3.793
  440SOL    HW2 1343   0.652   0.977   3.935
  441SOL     OW 1344   0.122   0.643   4.287
  441SOL    HW1 1345   0.077   0.555   4.304
  441SOL    HW2 1346   0.121   0.697   4.371
  442SOL     OW 1347   1.842   1.767   4.083
  442SOL    HW1 1348   1.896   1.738   4.163
  442SOL    HW2 1349   1.872   1.857   4.054
  443SOL     OW 1350   0.027   1.596   3.841
  443SOL    HW1 1351   0.008   1.500   3.862
  443SOL    HW2 1352  -0.006   1.654   3.916
  444SOL     OW 1353   1.689   0.922   4.336
  444SOL    HW1 1354   1.784   0.893   4.344
  444SOL    HW2 1355   1.681   0.987   4.261
  445SOL     OW 1356   1.641   1.108   4.156
  445SOL    HW1 1357   1.727   1.110   4.104
  445SOL    HW2 1358   1.655   1.155   4.244
  446SOL     OW 1359   0.613   1.365   4.450
  446SOL    HW1 1360   0.564   1.278   4.459
  446SOL    HW2 1361   0.590   1.408   4.363
  447SOL     OW 1362   0.809   0.004   4.226
  447SOL    HW1 1363   0.849   0.095   4.217
  447SOL    HW2 1364   0.709   0.012   4.232
  448SOL     OW 1365   0.197   0.976   4.988
  448SOL    HW1 1366   0.286   0.931   4.974
  448SOL    HW2 1367   0.124   0.911   4.969
  449SOL     OW 1368   1.525   0.999   3.914
  449SOL    HW1 1369   1.462   0.923   3.927
  449SOL    HW2 1370   1.573   1.017   4.000
  450SOL     OW 1371   1.466   1.417   4.677
  450SOL    HW1 1372   1.407   1.423   4.757
  450SOL    HW2 1373   1.451   1.329   4.631
  451SOL     OW 1374   1.667   1.714   4.296
  451SOL    HW1 1375   1.626   1.691   4.208
  451SOL    HW2 1376   1.649   1.640   4.361
  452SOL     OW 1377   0.598   0.729   3.994
  452SOL    HW1 1378   0.622   0.798   3.926
  452SOL    HW2 1379   0.520   0.762   4.048
  453SOL     OW 1380   1.281   0.345   4.668
  453SOL    HW1 1381   1.195   0.295   4.655
  453SOL    HW2 1382   1.343   0.291   4.724
  454SOL     OW 1383   1.576   1.662   4.031
  454SOL    HW1 1384   1.665   1.708   4.034
  454SOL    HW2 1385   1.555   1.638   3.936
  455SOL     OW 1386   1.041   0.701   4.153
  455SOL    HW1 1387   1.067   0.697   4.249
  455SOL    HW2 1388   0.956   0.650   4.139
  456SOL     OW 1389   0.076   0.811   4.513
  456SOL    HW1 1390   0.175   0.799   4.522
  456SOL    HW2 1391   0.052   0.906   4.534
  457SOL     OW 1392   0.865   0.348   3.919
  457SOL    HW1 1393   0.924   0.411   3.870
  457SOL    HW2 1394   0.884   0.254   3.890
  458SOL     OW 1395   1.362   1.144   4.269
  458SOL    HW1 1396   1.445   1.115   4.221
  458SOL    HW2 1397   1.313   1.211   4.213
  459SOL     OW 1398   0.550   0.196   4.609
  459SOL    HW1 1399   0.545   0.191   4.709
  459SOL    HW2 1400   0.552   0.292   4.580
  460SOL     OW 1401   1.008   1.456   4.201
  460SOL    HW1 1402   0.962   1.528   4.149
  460SOL    HW2 1403   1.004   1.476   4.299
  461SOL     OW 1404   0.351   1.801   4.577
  461SOL    HW1 1405   0.401   1.715   4.583
  461SOL    HW2 1406   0.416   1.878   4.574
  462SOL     OW 1407   1.795   1.066   4.597
  462SOL    HW1 1408   1.733   1.051   4.521
  462SOL    HW2 1409   1.743   1.077   4.682
  463SOL     OW 1410   0.321   0.943   3.966
  463SOL    HW1 1411   0.403   0.982   3.924
  463SOL    HW2 1412   0.294   0.861   3.917
  464SOL     OW 1413   1.458   0.735   4.452
  464SOL    HW1 1414   1.453   0.670   4.527
  464SOL    HW2 1415   1.538   0.794   4.465
  465SOL     OW 1416   1.111   1.776   3.961
  465SOL    HW1 1417   1.051   1.714   4.011
  465SOL    HW2 1418   1.142   1.732   3.876
  466SOL     OW 1419   1.632   1.377   3.805
  466SOL    HW1 1420   1.600   1.471   3.795
  466SOL    HW2 1421   1.556   1.314   3.793
  467SOL     OW 1422   0.464   1.743   4.047
  467SOL    HW1 1423   0.497   1.782   4.133
  467SOL    HW2 1424   0.540   1.736   3.982
  468SOL     OW 1425   1.400   0.107   4.150
  468SOL    HW1 1426   1.376   0.070   4.060
  468SOL    HW2 1427   1.499   0.123   4.154
  469SOL     OW 1428   0.249   1.785   4.965
  469SOL    HW1 1429   0.306   1.720   5.015
  469SOL    HW2 1430   0.233   1.752   4.872
  470SOL     OW 1431   0.940   1.698   4.628
  470SOL    HW1 1432   1.020   1.641   4.649
  470SOL    HW2 1433   0.891   1.658   4.551
  471SOL     OW 1434   0.382   0.700   4.204
  471SOL    HW1 1435   0.427   0.610   4.201
  471SOL    HW2 1436   0.288   0.689   4.237
  472SOL     OW 1437   0.614   0.122   3.841
  472SOL    HW1 1438   0.712   0.100   3.848
  472SOL    HW2 1439   0.583   0.105   3.748
  473SOL     OW 1440   0.803   1.402   4.648
  473SOL    HW1 1441   0.893   1.416   4.606
  473SOL    HW2 1442   0.732   1.404   4.577
  474SOL     OW 1443   0.922   0.503   4.623
  474SOL    HW1 1444   0.897   0.494   4.527
  474SOL    HW2 1445   0.970   0.421   4.654
  475SOL     OW 1446   0.539   0.064   4.236
  475SOL    HW1 1447   0.458   0.065   4.294
  475SOL    HW2 1448   0.542   0.147   4.181
  476SOL     OW 1449   1.434   1.188   3.765
  476SOL    HW1 1450   1.466   1.112   3.822
  476SOL    HW2 1451   1.342   1.215   3.795
  477SOL     OW 1452   0.297   0.035   3.895
  477SOL    HW1 1453   0.346   0.119   3.874
  477SOL    HW2 1454   0.359  -0.030   3.940
  478SOL     OW 1455   0.935   0.236   4.204
  478SOL    HW1 1456   0.887   0.277   4.126
  478SOL    HW2 1457   1.034   0.234   4.185
  479SOL     OW 1458   1.227   1.570   4.517
  479SOL    HW1 1459   1.248   1.644   4.452
  479SOL    HW2 1460   1.295   1.570   4.590
  480SOL     OW 1461   0.459   1.152   4.465
  480SOL    HW1 1462   0.388   1.125   4.530
  480SOL    HW2 1463   0.433   1.124   4.372
  481SOL     OW 1464   1.271   1.797   4.315
  481SOL    HW1 1465   1.315   1.861   4.251
  481SOL    HW2 1466   1.221   1.849   4.385
  482SOL     OW 1467   1.032   0.549   3.740
  482SOL    HW1 1468   0.991   0.631   3.701
  482SOL    HW2 1469   1.096   0.575   3.813
  483SOL     OW 1470   0.866   0.454   4.366
  483SOL    HW1 1471   0.834   0.526   4.304
  483SOL    HW2 1472   0.890   0.373   4.313
  484SOL     OW 1473   1.017   0.039   4.477
  484SOL    HW1 1474   0.945   0.044   4.408
  484SOL    HW2 1475   0.993  -0.030   4.546
  485SOL     OW 1476   1.429   1.173   4.591
  485SOL    HW1 1477   1.374   1.089   4.584
  485SOL    HW2 1478   1.455   1.202   4.499
  486SOL     OW 1479   1.466   0.590   4.716
  486SOL    HW1 1480   1.436   0.495   4.723
  486SOL    HW2 1481   1.539   0.606   4.782
  487SOL     OW 1482   1.857   0.833   4.101
  487SOL    HW1 1483   1.899   0.769   4.165
  487SOL    HW2 1484   1.819   0.782   4.023
  488SOL     OW 1485   0.488   1.385   3.898
  488SOL    HW1 1486   0.401   1.370   3.945
  488SOL    HW2 1487   0.471   1.411   3.803
  489SOL     OW 1488   1.664   1.280   4.381
  489SOL    HW1 1489   1.763   1.288   4.395
  489SOL    HW2 1490   1.619   1.364   4.412
  490SOL     OW 1491   1.390   0.575   3.802
  490SOL    HW1 1492   1.336   0.554   3.883
  490SOL    HW2 1493   1.481   0.534   3.811
  491SOL     OW 1494   0.527   0.256   4.052
  491SOL    HW1 1495   0.554   0.197   3.977
  491SOL    HW2 1496   0.527   0.351   4.021
  492SOL     OW 1497   1.111   1.195   4.824
  492SOL    HW1 1498   1.071   1.239   4.905
  492SOL    HW2 1499   1.070   1.232   4.741
  493SOL     OW 1500   1.638   1.099   4.803
  493SOL    HW1 1501   1.643   1.180   4.862
  493SOL    HW2 1502   1.552   1.101   4.752
  494SOL     OW 1503   0.705   1.050   4.092
  494SOL    HW1 1504   0.691   1.057   4.191
  494SOL    HW2 1505   0.789   0.999   4.074
  495SOL     OW 1506   0.410   0.813   4.975
  495SOL    HW1 1507   0.496   0.825   5.025
  495SOL    HW2 1508   0.368   0.726   5.002
  496SOL     OW 1509   0.367   1.100   4.225
  496SOL    HW1 1510   0.360   1.183   4.169
  496SOL    HW2 1511   0.371   1.020   4.165
  497SOL     OW 1512   0.566   0.537   4.589
  497SOL    HW1 1513   0.578   0.603   4.515
  497SOL    HW2 1514   0.612   0.571   4.672
  498SOL     OW 1515   1.252   1.348   4.112
  498SOL    HW1 1516   1.302   1.425   4.152
  498SOL    HW2 1517   1.157   1.350   4.144
  499SOL     OW 1518   1.582   0.639   4.196
  499SOL    HW1 1519   1.551   0.700   4.269
  499SOL    HW2 1520   1.632   0.691   4.127
  500SOL     OW 1521   0.354   1.510   5.053
  500SOL    HW1 1522   0.333   1.466   4.966
  500SOL    HW2 1523   0.451   1.536   5.056
  501SOL     OW 1524   0.573   0.870   4.753
  501SOL    HW1 1525   0.617   0.959   4.744
  501SOL    HW2 1526   0.510   0.870   4.830
  502SOL     OW 1527   1.209   0.525   3.999
  502SOL    HW1 1528   1.222   0.441   4.053
  502SOL    HW2 1529   1.180   0.599   4.059
  503SOL     OW 1530   0.732   0.634   4.788
  503SOL    HW1 1531   0.791   0.608   4.712
  503SOL    HW2 1532   0.704   0.730   4.777
  504SOL     OW 1533   0.307   0.063   4.342
  504SOL    HW1 1534   0.296   0.157   4.375
  504SOL    HW2 1535   0.302   0.000   4.419
  505SOL     OW 1536   1.622   0.367   4.098
  505SOL    HW1 1537   1.624   0.291   4.162
  505SOL    HW2 1538   1.574   0.444   4.138
  506SOL     OW 1539   1.023   0.766   4.690
  506SOL    HW1 1540   1.038   0.787   4.786
  506SOL    HW2 1541   0.993   0.671   4.681
  507SOL     OW 1542   1.540   0.274   3.849
  507SOL    HW1 1543   1.479   0.199   3.872
  507SOL    HW2 1544   1.562   0.326   3.932
  508SOL     OW 1545   1.303   0.838   3.766
  508SOL    HW1 1546   1.337   0.745   3.781
  508SOL    HW2 1547   1.321   0.865   3.671
  509SOL     OW 1548   1.068   1.333   4.573
  509SOL    HW1 1549   1.075   1.249   4.518
  509SOL    HW2 1550   1.130   1.402   4.537
  510SOL     OW 1551   0.319   0.810   4.673
  510SOL    HW1 1552   0.412   0.846   4.678
  510SOL    HW2 1553   0.313   0.725   4.725
  511SOL     OW 1554   0.339   0.509   4.730
  511SOL    HW1 1555   0.287   0.426   4.713
  511SOL    HW2 1556   0.416   0.514   4.666
  512SOL     OW 1557   0.008   1.326   3.924
  512SOL    HW1 1558  -0.085   1.347   3.893
  512SOL    HW2 1559   0.018   1.227   3.937
  513SOL     OW 1560   0.088   1.801   4.651
  513SOL    HW1 1561   0.046   1.715   4.624
  513SOL    HW2 1562   0.182   1.804   4.617
  514SOL     OW 1563   0.504   1.568   4.634
  514SOL    HW1 1564   0.570   1.642   4.643
  514SOL    HW2 1565   0.548   1.489   4.592
  515SOL     OW 1566   1.002   0.796   4.962
  515SOL    HW1 1567   1.043   0.764   5.048
  515SOL    HW2 1568   0.906   0.769   4.959
  516SOL     OW 1569   0.815   0.572   4.049
  516SOL    HW1 1570   0.822   0.483   4.003
  516SOL    HW2 1571   0.721   0.606   4.041
  517SOL     OW 1572   0.671   0.464   4.993
  517SOL    HW1 1573   0.637   0.375   4.963
  517SOL    HW2 1574   0.697   0.518   4.913
  518SOL     OW 1575   0.473   0.500   3.915
  518SOL    HW1 1576   0.534   0.580   3.919
  518SOL    HW2 1577   0.378   0.531   3.922
  519SOL     OW 1578   1.302   0.855   4.033
  519SOL    HW1 1579   1.216   0.824   4.075
  519SOL    HW2 1580   1.298   0.841   3.934
  520SOL     OW 1581   1.759   1.747   4.878
  520SOL    HW1 1582   1.820   1.777   4.805
  520SOL    HW2 1583   1.721   1.658   4.856
  521SOL     OW 1584   0.083   1.258   4.746
  521SOL    HW1 1585   0.078   1.257   4.846
  521SOL    HW2 1586   0.000   1.217   4.708
  522SOL     OW 1587   1.726   0.135   4.247
  522SOL    HW1 1588   1.799   0.118   4.180
  522SOL    HW2 1589   1.695   0.048   4.285
  523SOL     OW 1590   1.388   1.573   4.201
  523SOL    HW1 1591   1.455   1.585   4.127
  523SOL    HW2 1592   1.348   1.662   4.224
  524SOL     OW 1593   1.280   0.927   4.396
  524SOL    HW1 1594   1.340   0.846   4.398
  524SOL    HW2 1595   1.320   0.996   4.336
  525SOL     OW 1596   0.672   1.616   3.878
  525SOL    HW1 1597   0.681   1.626   3.779
  525SOL    HW2 1598   0.632   1.527   3.899
  526SOL     OW 1599   1.841   0.175   4.687
  526SOL    HW1 1600   1.880   0.090   4.651
  526SOL    HW2 1601   1.743   0.177   4.668
  527SOL     OW 1602   0.263   0.326   4.444
  527SOL    HW1 1603   0.184   0.377   4.410
  527SOL    HW2 1604   0.254   0.311   4.542
  528SOL     OW 1605   1.194   1.612   3.755
  528SOL    HW1 1606   1.200   1.519   3.792
  528SOL    HW2 1607   1.135   1.612   3.675
  529SOL     OW 1608   0.916   0.910   4.015
  529SOL    HW1 1609   0.979   0.948   3.947
  529SOL    HW2 1610   0.956   0.827   4.054
  530SOL     OW 1611   1.504   1.607   3.768
  530SOL    HW1 1612   1.412   1.644   3.775
  530SOL    HW2 1613   1.542   1.627   3.678
  531SOL     OW 1614   1.039   1.098   4.420
  531SOL    HW1 1615   0.969   1.051   4.474
  531SOL    HW2 1616   1.098   1.030   4.377
  532SOL     OW 1617   1.014   0.236   4.695
  532SOL    HW1 1618   1.006   0.200   4.602
  532SOL    HW2 1619   1.012   0.160   4.760
  533SOL     OW 1620   0.590   1.487   4.215
  533SOL    HW1 1621   0.632   1.429   4.145
  533SOL    HW2 1622   0.546   1.566   4.171
  534SOL     OW 1623   0.255   1.348   4.014
  534SOL    HW1 1624   0.159   1.349   3.987
  534SOL    HW2 1625   0.267   1.401   4.098
  535SOL     OW 1626   0.075   0.345   3.757
  535SOL    HW1 1627  -0.017   0.317   3.728
  535SOL    HW2 1628   0.106   0.422   3.701
  536SOL     OW 1629   0.072   0.166   4.042
  536SOL    HW1 1630   0.055   0.249   3.988
  536SOL    HW2 1631   0.162   0.129   4.020
  537SOL     OW 1632   1.183   1.335   3.843
  537SOL    HW1 1633   1.084   1.324   3.845
  537SOL    HW2 1634   1.217   1.350   3.936
  538SOL     OW 1635   1.493   1.767   4.683
  538SOL    HW1 1636   1.526   1.831   4.614
  538SOL    HW2 1637   1.559   1.761   4.758
  539SOL     OW 1638   1.674   0.883   4.978
  539SOL    HW1 1639   1.647   0.794   4.941
  539SOL    HW2 1640   1.675   0.951   4.905
  540SOL     OW 1641   1.225   0.325   4.173
  540SOL    HW1 1642   1.290   0.251   4.162
  540SOL    HW2 1643   1.245   0.375   4.257
  541SOL     OW 1644   0.594   0.745   4.376
  541SOL    HW1 1645   0.644   0.830   4.357
  541SOL    HW2 1646   0.506   0.747   4.328
  542SOL     OW 1647   0.859   1.374   3.740
  542SOL    HW1 1648   0.813   1.389   3.828
  542SOL    HW2 1649   0.903   1.459   3.710
  543SOL     OW 1650   0.661   1.790   4.677
  543SOL    HW1 1651   0.615   1.878   4.664
  543SOL    HW2 1652   0.760   1.802   4.670
  544SOL     OW 1653   0.859   0.956   4.585
  544SOL    HW1 1654   0.913   0.887   4.633
  544SOL    HW2 1655   0.827   1.025   4.651
  545SOL     OW 1656   1.083   0.984   3.811
  545SOL    HW1 1657   1.060   1.037   3.729
  545SOL    HW2 1658   1.164   0.928   3.792
  546SOL     OW 1659   1.861   1.569   4.575
  546SOL    HW1 1660   1.790   1.557   4.505
  546SOL    HW2 1661   1.862   1.490   4.635
  547SOL     OW 1662   0.079   1.240   4.377
  547SOL    HW1 1663   0.078   1.193   4.465
  547SOL    HW2 1664   0.161   1.212   4.326
  548SOL     OW 1665   1.824   0.192   4.951
  548SOL    HW1 1666   1.820   0.102   4.995
  548SOL    HW2 1667   1.827   0.181   4.852
  549SOL     OW 1668   0.428   0.424   4.244
  549SOL    HW1 1669   0.458   0.352   4.182
  549SOL    HW2 1670   0.389   0.384   4.327
  550SOL     OW 1671   0.812   1.586   4.411
  550SOL    HW1 1672   0.844   1.596   4.317
  550SOL    HW2 1673   0.733   1.524   4.413
  551SOL     OW 1674   1.424   0.214   4.836
  551SOL    HW1 1675   1.476   0.149   4.891
  551SOL    HW2 1676   1.375   0.277   4.897
  552SOL     OW 1677   0.770   1.330   4.025
  552SOL    HW1 1678   0.724   1.243   4.042
  552SOL    HW2 1679   0.861   1.327   4.066
  553SOL     OW 1680   1.352   0.052   3.892
  553SOL    HW1 1681   1.387   0.011   3.808
  553SOL    HW2 1682   1.262   0.014   3.912
  554SOL     OW 1683   1.300   0.453   4.415
  554SOL    HW1 1684   1.241   0.533   4.419
  554SOL    HW2 1685   1.315   0.418   4.508
  555SOL     OW 1686   1.593   0.221   4.606
  555SOL    HW1 1687   1.509   0.220   4.660
  555SOL    HW2 1688   1.595   0.304   4.550
  556SOL     OW 1689   0.039   1.077   4.024
  556SOL    HW1 1690   0.138   1.066   4.015
  556SOL    HW2 1691  -0.001   0.991   4.056
  557SOL     OW 1692   0.875   1.646   4.061
  557SOL    HW1 1693   0.798   1.611   4.007
  557SOL    HW2 1694   0.843   1.717   4.123
  558SOL     OW 1695   0.230   2.490   0.113
  558SOL    HW1 1696   0.137   2.488   0.150
  558SOL    HW2 1697   0.231   2.451   0.021
  559SOL     OW 1698   0.225   2.137   0.996
  559SOL    HW1 1699   0.260   2.120   1.088
  559SOL    HW2 1700   0.137   2.092   0.984
  560SOL     OW 1701   0.019   2.230   0.647
  560SOL    HW1 1702  -0.063   2.273   0.686
  560SOL    HW2 1703  -0.009   2.157   0.584
  561SOL     OW 1704   0.569   3.137   1.165
  561SOL    HW1 1705   0.476   3.130   1.128
  561SOL    HW2 1706   0.580   3.226   1.209
  562SOL     OW 1707   1.555   3.373   0.703
  562SOL    HW1 1708   1.498   3.357   0.784
  562SOL    HW2 1709   1.496   3.383   0.623
  563SOL     OW 1710   1.135   2.565   0.717
  563SOL    HW1 1711   1.192   2.643   0.692
  563SOL    HW2 1712   1.075   2.591   0.793
  564SOL     OW 1713   1.755   2.469   0.231
  564SOL    HW1 1714   1.743   2.456   0.132
  564SOL    HW2 1715   1.725   2.388   0.280
  565SOL     OW 1716   0.768   3.006   1.023
  565SOL    HW1 1717   0.690   3.023   1.083
  565SOL    HW2 1718   0.802   3.093   0.987
  566SOL     OW 1719   0.850   2.660   1.823
  566SOL    HW1 1720   0.846   2.736   1.888
  566SOL    HW2 1721   0.872   2.696   1.732
  567SOL     OW 1722   0.685   2.874   0.665
  567SOL    HW1 1723   0.754   2.858   0.735
  567SOL    HW2 1724   0.612   2.931   0.703
  568SOL     OW 1725   0.686   3.023   1.803
  568SOL    HW1 1726   0.746   3.102   1.817
  568SOL    HW2 1727   0.600   3.054   1.762
  569SOL     OW 1728   0.335   3.297   1.061
  569SOL    HW1 1729   0.257   3.266   1.008
  569SOL    HW2 1730   0.393   3.355   1.004
  570SOL     OW 1731   1.460   3.367   1.339
  570SOL    HW1 1732   1.484   3.461   1.365
  570SOL    HW2 1733   1.444   3.313   1.421
  571SOL     OW 1734   0.438   2.254   1.499
  571SOL    HW1 1735   0.520   2.198   1.508
  571SOL    HW2 1736   0.357   2.196   1.503
  572SOL     OW 1737   1.603   2.309   0.737
  572SOL    HW1 1738   1.529   2.355   0.687
  572SOL    HW2 1739   1.654   2.377   0.790
  573SOL     OW 1740   0.231   3.575   0.483
  573SOL    HW1 1741   0.265   3.652   0.537
  573SOL    HW2 1742   0.275   3.575   0.393
  574SOL     OW 1743   1.127   3.203   1.690
  574SOL    HW1 1744   1.174   3.203   1.778
  574SOL    HW2 1745   1.079   3.116   1.679
  575SOL     OW 1746   0.230   3.296   0.538
  575SOL    HW1 1747   0.204   3.392   0.538
  575SOL    HW2 1748   0.159   3.242   0.583
  576SOL     OW 1749   0.240   2.953   0.886
  576SOL    HW1 1750   0.254   2.869   0.938
  576SOL    HW2 1751   0.185   3.017   0.941
  577SOL     OW 1752   0.620   3.648   1.439
  577SOL    HW1 1753   0.528   3.631   1.474
  577SOL    HW2 1754   0.648   3.740   1.465
  578SOL     OW 1755   0.606   2.826   0.123
  578SOL    HW1 1756   0.613   2.910   0.069
  578SOL    HW2 1757   0.652   2.839   0.211
  579SOL     OW 1758   1.594   1.976   1.480
  579SOL    HW1 1759   1.576   2.043   1.408
  579SOL    HW2 1760   1.591   2.022   1.569
  580SOL     OW 1761   0.122   2.505   0.563
  580SOL    HW1 1762   0.077   2.417   0.580
  580SOL    HW2 1763   0.121   2.559   0.647
  581SOL     OW 1764   1.842   3.629   0.359
  581SOL    HW1 1765   1.896   3.600   0.439
  581SOL    HW2 1766   1.872   3.719   0.330
  582SOL     OW 1767   0.027   3.458   0.117
  582SOL    HW1 1768   0.008   3.362   0.138
  582SOL    HW2 1769  -0.006   3.516   0.192
  583SOL     OW 1770   1.689   2.784   0.612
  583SOL    HW1 1771   1.784   2.755   0.620
  583SOL    HW2 1772   1.681   2.849   0.537
  584SOL     OW 1773   1.641   2.970   0.432
  584SOL    HW1 1774   1.727   2.972   0.380
  584SOL    HW2 1775   1.655   3.017   0.520
  585SOL     OW 1776   0.113   2.599   1.597
  585SOL    HW1 1777   0.201   2.586   1.642
  585SOL    HW2 1778   0.100   2.696   1.575
  586SOL     OW 1779   0.613   3.227   0.726
  586SOL    HW1 1780   0.564   3.140   0.735
  586SOL    HW2 1781   0.590   3.270   0.639
  587SOL     OW 1782   1.293   3.090   1.423
  587SOL    HW1 1783   1.330   3.017   1.365
  587SOL    HW2 1784   1.345   3.095   1.508
  588SOL     OW 1785   0.809   1.866   0.502
  588SOL    HW1 1786   0.849   1.957   0.493
  588SOL    HW2 1787   0.709   1.874   0.508
  589SOL     OW 1788   0.197   2.838   1.264
  589SOL    HW1 1789   0.286   2.793   1.250
  589SOL    HW2 1790   0.124   2.773   1.245
  590SOL     OW 1791   1.525   2.861   0.190
  590SOL    HW1 1792   1.462   2.785   0.203
  590SOL    HW2 1793   1.573   2.879   0.276
  591SOL     OW 1794   1.187   3.654   1.616
  591SOL    HW1 1795   1.211   3.714   1.540
  591SOL    HW2 1796   1.194   3.559   1.586
  592SOL     OW 1797   0.317   2.113   1.801
  592SOL    HW1 1798   0.388   2.184   1.807
  592SOL    HW2 1799   0.229   2.152   1.829
  593SOL     OW 1800   1.466   3.279   0.953
  593SOL    HW1 1801   1.407   3.285   1.033
  593SOL    HW2 1802   1.451   3.191   0.907
  594SOL     OW 1803   1.667   3.576   0.572
  594SOL    HW1 1804   1.626   3.553   0.484
  594SOL    HW2 1805   1.649   3.502   0.637
  595SOL     OW 1806   0.598   2.591   0.270
  595SOL    HW1 1807   0.622   2.660   0.202
  595SOL    HW2 1808   0.520   2.624   0.324
  596SOL     OW 1809   1.281   2.207   0.944
  596SOL    HW1 1810   1.195   2.157   0.931
  596SOL    HW2 1811   1.343   2.153   1.000
  597SOL     OW 1812   1.576   3.524   0.307
  597SOL    HW1 1813   1.665   3.570   0.310
  597SOL    HW2 1814   1.555   3.500   0.212
  598SOL     OW 1815   0.807   2.467   1.465
  598SOL    HW1 1816   0.760   2.464   1.554
  598SOL    HW2 1817   0.756   2.412   1.399
  599SOL     OW 1818   1.394   2.331   1.674
  599SOL    HW1 1819   1.374   2.374   1.762
  599SOL    HW2 1820   1.472   2.269   1.683
  600SOL     OW 1821   0.973   2.752   1.572
  600SOL    HW1 1822   1.019   2.668   1.543
  600SOL    HW2 1823   0.917   2.786   1.497
  601SOL     OW 1824   0.991   2.272   1.242
  601SOL    HW1 1825   0.914   2.306   1.296
  601SOL    HW2 1826   0.957   2.221   1.163
  602SOL     OW 1827   1.041   2.563   0.429
  602SOL    HW1 1828   1.067   2.559   0.525
  602SOL    HW2 1829   0.956   2.512   0.415
  603SOL     OW 1830   0.076   2.673   0.789
  603SOL    HW1 1831   0.175   2.661   0.798
  603SOL    HW2 1832   0.052   2.768   0.810
  604SOL     OW 1833   0.130   3.683   1.571
  604SOL    HW1 1834   0.120   3.668   1.670
  604SOL    HW2 1835   0.044   3.719   1.535
  605SOL     OW 1836   0.865   2.210   0.195
  605SOL    HW1 1837   0.924   2.273   0.146
  605SOL    HW2 1838   0.884   2.116   0.166
  606SOL     OW 1839   1.719   2.447   1.831
  606SOL    HW1 1840   1.693   2.536   1.795
  606SOL    HW2 1841   1.717   2.379   1.758
  607SOL     OW 1842   1.362   3.006   0.545
  607SOL    HW1 1843   1.445   2.977   0.497
  607SOL    HW2 1844   1.313   3.073   0.489
  608SOL     OW 1845   0.550   2.058   0.885
  608SOL    HW1 1846   0.545   2.053   0.985
  608SOL    HW2 1847   0.552   2.154   0.856
  609SOL     OW 1848   1.008   3.318   0.477
  609SOL    HW1 1849   0.962   3.390   0.425
  609SOL    HW2 1850   1.004   3.338   0.575
  610SOL     OW 1851   0.351   3.663   0.853
  610SOL    HW1 1852   0.401   3.577   0.859
  610SOL    HW2 1853   0.416   3.740   0.850
  611SOL     OW 1854   1.795   2.928   0.873
  611SOL    HW1 1855   1.733   2.913   0.797
  611SOL    HW2 1856   1.743   2.939   0.958
  612SOL     OW 1857   1.227   3.412   1.506
  612SOL    HW1 1858   1.233   3.335   1.570
  612SOL    HW2 1859   1.175   3.386   1.426
  613SOL     OW 1860   0.321   2.805   0.242
  613SOL    HW1 1861   0.403   2.844   0.200
  613SOL    HW2 1862   0.294   2.723   0.193
  614SOL     OW 1863   1.458   2.597   0.728
  614SOL    HW1 1864   1.453   2.532   0.803
  614SOL    HW2 1865   1.538   2.656   0.741
  615SOL     OW 1866   0.461   3.128   1.727
  615SOL    HW1 1867   0.411   3.129   1.641
  615SOL    HW2 1868   0.398   3.110   1.803
  616SOL     OW 1869   1.111   3.638   0.237
  616SOL    HW1 1870   1.051   3.576   0.287
  616SOL    HW2 1871   1.142   3.594   0.152
  617SOL     OW 1872   0.202   2.147   1.498
  617SOL    HW1 1873   0.122   2.207   1.485
  617SOL    HW2 1874   0.192   2.098   1.584
  618SOL     OW 1875   1.632   3.239   0.081
  618SOL    HW1 1876   1.600   3.333   0.071
  618SOL    HW2 1877   1.556   3.176   0.069
  619SOL     OW 1878   0.464   3.605   0.323
  619SOL    HW1 1879   0.497   3.644   0.409
  619SOL    HW2 1880   0.540   3.598   0.258
  620SOL     OW 1881   1.400   1.969   0.426
  620SOL    HW1 1882   1.376   1.932   0.336
  620SOL    HW2 1883   1.499   1.985   0.430
  621SOL     OW 1884   0.249   3.647   1.241
  621SOL    HW1 1885   0.306   3.582   1.291
  621SOL    HW2 1886   0.233   3.614   1.148
  622SOL     OW 1887   0.940   3.560   0.904
  622SOL    HW1 1888   1.020   3.503   0.925
  622SOL    HW2 1889   0.891   3.520   0.827
  623SOL     OW 1890   0.382   2.562   0.480
  623SOL    HW1 1891   0.427   2.472   0.477
  623SOL    HW2 1892   0.288   2.551   0.513
  624SOL     OW 1893   1.547   2.084   1.729
  624SOL    HW1 1894   1.542   2.121   1.821
  624SOL    HW2 1895   1.475   2.015   1.717
  625SOL     OW 1896   0.614   1.984   0.117
  625SOL    HW1 1897   0.712   1.962   0.124
  625SOL    HW2 1898   0.583   1.967   0.024
  626SOL     OW 1899   0.781   2.126   1.749
  626SOL    HW1 1900   0.848   2.065   1.792
  626SOL    HW2 1901   0.708   2.145   1.814
  627SOL     OW 1902   0.888   3.376   1.195
  627SOL    HW1 1903   0.865   3.351   1.101
  627SOL    HW2 1904   0.949   3.307   1.234
  628SOL     OW 1905   1.351   2.452   1.433
  628SOL    HW1 1906   1.379   2.409   1.518
  628SOL    HW2 1907   1.376   2.548   1.434
  629SOL     OW 1908   0.803   3.264   0.924
  629SOL    HW1 1909   0.893   3.278   0.882
  629SOL    HW2 1910   0.732   3.266   0.853
  630SOL     OW 1911   0.922   2.365   0.899
  630SOL    HW1 1912   0.897   2.356   0.803
  630SOL    HW2 1913   0.970   2.283   0.930
  631SOL     OW 1914   0.539   1.926   0.512
  631SOL    HW1 1915   0.458   1.927   0.570
  631SOL    HW2 1916   0.542   2.009   0.457
  632SOL     OW 1917   1.434   3.050   0.041
  632SOL    HW1 1918   1.466   2.974   0.098
  632SOL    HW2 1919   1.342   3.077   0.071
  633SOL     OW 1920   0.935   2.098   0.480
  633SOL    HW1 1921   0.887   2.139   0.402
  633SOL    HW2 1922   1.034   2.096   0.461
  634SOL     OW 1923   1.076   2.545   1.464
  634SOL    HW1 1924   0.996   2.484   1.467
  634SOL    HW2 1925   1.157   2.492   1.440
  635SOL     OW 1926   1.227   3.432   0.793
  635SOL    HW1 1927   1.248   3.506   0.728
  635SOL    HW2 1928   1.295   3.432   0.866
  636SOL     OW 1929   0.459   3.014   0.741
  636SOL    HW1 1930   0.388   2.987   0.806
  636SOL    HW2 1931   0.433   2.986   0.648
  637SOL     OW 1932   1.271   3.659   0.591
  637SOL    HW1 1933   1.315   3.723   0.527
  637SOL    HW2 1934   1.221   3.711   0.661
  638SOL     OW 1935   1.032   2.411   0.016
  638SOL    HW1 1936   0.991   2.493  -0.023
  638SOL    HW2 1937   1.096   2.437   0.089
  639SOL     OW 1938   0.078   2.418   1.386
  639SOL    HW1 1939   0.170   2.417   1.345
  639SOL    HW2 1940   0.072   2.492   1.453
  640SOL     OW 1941   0.561   2.084   1.147
  640SOL    HW1 1942   0.599   2.000   1.184
  640SOL    HW2 1943   0.473   2.103   1.191
  641SOL     OW 1944   0.866   2.316   0.642
  641SOL    HW1 1945   0.834   2.388   0.580
  641SOL    HW2 1946   0.890   2.235   0.589
  642SOL     OW 1947   1.017   1.901   0.753
  642SOL    HW1 1948   0.945   1.906   0.684
  642SOL    HW2 1949   0.993   1.832   0.822
  643SOL     OW 1950   1.429   3.035   0.867
  643SOL    HW1 1951   1.374   2.951   0.860
  643SOL    HW2 1952   1.455   3.064   0.775
  644SOL     OW 1953   1.466   2.452   0.992
  644SOL    HW1 1954   1.436   2.357   0.999
  644SOL    HW2 1955   1.539   2.468   1.058
  645SOL     OW 1956   1.857   2.695   0.377
  645SOL    HW1 1957   1.899   2.631   0.441
  645SOL    HW2 1958   1.819   2.644   0.299
  646SOL     OW 1959   0.488   3.247   0.174
  646SOL    HW1 1960   0.401   3.232   0.221
  646SOL    HW2 1961   0.471   3.273   0.079
  647SOL     OW 1962   1.664   3.142   0.657
  647SOL    HW1 1963   1.763   3.150   0.671
  647SOL    HW2 1964   1.619   3.226   0.688
  648SOL     OW 1965   1.390   2.437   0.078
  648SOL    HW1 1966   1.336   2.416   0.159
  648SOL    HW2 1967   1.481   2.396   0.087
  649SOL     OW 1968   0.527   2.118   0.328
  649SOL    HW1 1969   0.554   2.059   0.253
  649SOL    HW2 1970   0.527   2.213   0.297
  650SOL     OW 1971   1.754   3.085   1.588
  650SOL    HW1 1972   1.845   3.046   1.575
  650SOL    HW2 1973   1.762   3.181   1.612
  651SOL     OW 1974   1.064   3.209   1.340
  651SOL    HW1 1975   0.984   3.186   1.395
  651SOL    HW2 1976   1.147   3.183   1.389
  652SOL     OW 1977   1.592   3.491   1.625
  652SOL    HW1 1978   1.619   3.525   1.535
  652SOL    HW2 1979   1.671   3.453   1.671
  653SOL     OW 1980   1.111   3.057   1.100
  653SOL    HW1 1981   1.071   3.101   1.181
  653SOL    HW2 1982   1.070   3.094   1.017
  654SOL     OW 1983   1.638   2.961   1.079
  654SOL    HW1 1984   1.643   3.042   1.138
  654SOL    HW2 1985   1.552   2.963   1.028
  655SOL     OW 1986   0.915   1.951   1.402
  655SOL    HW1 1987   0.940   1.931   1.307
  655SOL    HW2 1988   0.987   2.007   1.444
  656SOL     OW 1989   0.980   2.978   1.719
  656SOL    HW1 1990   0.881   2.984   1.729
  656SOL    HW2 1991   1.003   2.898   1.663
  657SOL     OW 1992   0.705   2.912   0.368
  657SOL    HW1 1993   0.691   2.919   0.467
  657SOL    HW2 1994   0.789   2.861   0.350
  658SOL     OW 1995   0.410   2.675   1.251
  658SOL    HW1 1996   0.496   2.687   1.301
  658SOL    HW2 1997   0.368   2.588   1.278
  659SOL     OW 1998   1.274   2.248   1.262
  659SOL    HW1 1999   1.295   2.322   1.326
  659SOL    HW2 2000   1.185   2.265   1.219
  660SOL     OW 2001   0.064   3.426   1.331
  660SOL    HW1 2002   0.018   3.508   1.297
  660SOL    HW2 2003   0.162   3.445   1.340
  661SOL     OW 2004   0.367   2.962   0.501
  661SOL    HW1 2005   0.360   3.045   0.445
  661SOL    HW2 2006   0.371   2.882   0.441
  662SOL     OW 2007   0.566   2.399   0.865
  662SOL    HW1 2008   0.578   2.465   0.791
  662SOL    HW2 2009   0.612   2.433   0.948
  663SOL     OW 2010   1.252   3.210   0.388
  663SOL    HW1 2011   1.302   3.287   0.428
  663SOL    HW2 2012   1.157   3.212   0.420
  664SOL     OW 2013   1.272   3.307   1.142
  664SOL    HW1 2014   1.319   3.320   1.229
  664SOL    HW2 2015   1.206   3.233   1.151
  665SOL     OW 2016   1.582   2.501   0.472
  665SOL    HW1 2017   1.551   2.562   0.545
  665SOL    HW2 2018   1.632   2.553   0.403
  666SOL     OW 2019   0.354   3.372   1.329
  666SOL    HW1 2020   0.333   3.328   1.242
  666SOL    HW2 2021   0.451   3.398   1.332
  667SOL     OW 2022   0.402   2.613   1.598
  667SOL    HW1 2023   0.470   2.668   1.551
  667SOL    HW2 2024   0.442   2.525   1.625
  668SOL     OW 2025   1.587   2.641   1.670
  668SOL    HW1 2026   1.495   2.679   1.665
  668SOL    HW2 2027   1.647   2.688   1.605
  669SOL     OW 2028   1.013   1.967   1.770
  669SOL    HW1 2029   1.019   2.052   1.718
  669SOL    HW2 2030   1.045   1.891   1.713
  670SOL     OW 2031   0.504   1.912   1.740
  670SOL    HW1 2032   0.462   1.855   1.670
  670SOL    HW2 2033   0.438   1.981   1.772
  671SOL     OW 2034   0.573   2.732   1.029
  671SOL    HW1 2035   0.617   2.821   1.020
  671SOL    HW2 2036   0.510   2.732   1.106
  672SOL     OW 2037   1.360   2.724   1.045
  672SOL    HW1 2038   1.285   2.724   0.979
  672SOL    HW2 2039   1.397   2.632   1.054
  673SOL     OW 2040   1.209   2.387   0.275
  673SOL    HW1 2041   1.222   2.303   0.329
  673SOL    HW2 2042   1.180   2.461   0.335
  674SOL     OW 2043   0.307   2.075   1.231
  674SOL    HW1 2044   0.284   2.112   1.321
  674SOL    HW2 2045   0.277   1.980   1.225
  675SOL     OW 2046   0.037   3.172   1.282
  675SOL    HW1 2047   0.090   3.123   1.350
  675SOL    HW2 2048   0.059   3.270   1.287
  676SOL     OW 2049   0.732   2.496   1.064
  676SOL    HW1 2050   0.791   2.470   0.988
  676SOL    HW2 2051   0.704   2.592   1.053
  677SOL     OW 2052   1.728   2.797   1.854
  677SOL    HW1 2053   1.682   2.790   1.765
  677SOL    HW2 2054   1.666   2.841   1.920
  678SOL     OW 2055   0.307   1.925   0.618
  678SOL    HW1 2056   0.296   2.019   0.651
  678SOL    HW2 2057   0.302   1.862   0.695
  679SOL     OW 2058   1.622   2.229   0.374
  679SOL    HW1 2059   1.624   2.153   0.438
  679SOL    HW2 2060   1.574   2.306   0.414
  680SOL     OW 2061   1.023   2.628   0.966
  680SOL    HW1 2062   1.038   2.649   1.062
  680SOL    HW2 2063   0.993   2.533   0.957
  681SOL     OW 2064   0.980   3.435   1.700
  681SOL    HW1 2065   0.960   3.479   1.612
  681SOL    HW2 2066   1.019   3.344   1.684
  682SOL     OW 2067   1.859   3.380   1.605
  682SOL    HW1 2068   1.873   3.407   1.510
  682SOL    HW2 2069   1.942   3.402   1.658
  683SOL     OW 2070   0.350   2.760   1.804
  683SOL    HW1 2071   0.426   2.804   1.852
  683SOL    HW2 2072   0.385   2.713   1.722
  684SOL     OW 2073   1.540   2.136   0.125
  684SOL    HW1 2074   1.479   2.061   0.148
  684SOL    HW2 2075   1.562   2.188   0.208
  685SOL     OW 2076   1.303   2.700   0.042
  685SOL    HW1 2077   1.337   2.607   0.057
  685SOL    HW2 2078   1.321   2.727  -0.053
  686SOL     OW 2079   1.068   3.195   0.849
  686SOL    HW1 2080   1.075   3.111   0.794
  686SOL    HW2 2081   1.130   3.264   0.813
  687SOL     OW 2082   0.319   2.672   0.949
  687SOL    HW1 2083   0.412   2.708   0.954
  687SOL    HW2 2084   0.313   2.587   1.001
  688SOL     OW 2085   0.339   2.371   1.006
  688SOL    HW1 2086   0.287   2.288   0.989
  688SOL    HW2 2087   0.416   2.376   0.942
  689SOL     OW 2088   1.138   2.242   1.678
  689SOL    HW1 2089   1.093   2.305   1.742
  689SOL    HW2 2090   1.231   2.273   1.661
  690SOL     OW 2091   1.160   2.069   1.477
  690SOL    HW1 2092   1.160   2.133   1.554
  690SOL    HW2 2093   1.188   2.117   1.394
  691SOL     OW 2094   0.008   3.188   0.200
  691SOL    HW1 2095  -0.085   3.209   0.169
  691SOL    HW2 2096   0.018   3.089   0.213
  692SOL     OW 2097   0.088   3.663   0.927
  692SOL    HW1 2098   0.046   3.577   0.900
  692SOL    HW2 2099   0.182   3.666   0.893
  693SOL     OW 2100   0.504   3.430   0.910
  693SOL    HW1 2101   0.570   3.504   0.919
  693SOL    HW2 2102   0.548   3.351   0.868
  694SOL     OW 2103   1.002   2.658   1.238
  694SOL    HW1 2104   1.043   2.626   1.324
  694SOL    HW2 2105   0.906   2.631   1.235
  695SOL     OW 2106   0.040   2.406   1.114
  695SOL    HW1 2107   0.125   2.373   1.073
  695SOL    HW2 2108   0.053   2.421   1.212
  696SOL     OW 2109   0.189   2.382   1.722
  696SOL    HW1 2110   0.248   2.342   1.652
  696SOL    HW2 2111   0.131   2.453   1.681
  697SOL     OW 2112   1.369   2.812   1.660
  697SOL    HW1 2113   1.408   2.901   1.680
  697SOL    HW2 2114   1.379   2.792   1.563
  698SOL     OW 2115   0.815   2.434   0.325
  698SOL    HW1 2116   0.822   2.345   0.279
  698SOL    HW2 2117   0.721   2.468   0.317
  699SOL     OW 2118   1.657   2.466   1.206
  699SOL    HW1 2119   1.619   2.397   1.268
  699SOL    HW2 2120   1.739   2.430   1.162
  700SOL     OW 2121   0.252   3.426   1.744
  700SOL    HW1 2122   0.222   3.483   1.820
  700SOL    HW2 2123   0.245   3.329   1.770
  701SOL     OW 2124   0.671   2.326   1.269
  701SOL    HW1 2125   0.637   2.237   1.239
  701SOL    HW2 2126   0.697   2.380   1.189
  702SOL     OW 2127   0.930   3.540   1.465
  702SOL    HW1 2128   0.906   3.522   1.370
  702SOL    HW2 2129   0.960   3.634   1.475
  703SOL     OW 2130   0.473   2.362   0.191
  703SOL    HW1 2131   0.534   2.442   0.195
  703SOL    HW2 2132   0.378   2.393   0.198
  704SOL     OW 2133   0.159   2.999   1.466
  704SOL    HW1 2134   0.181   2.938   1.542
  704SOL    HW2 2135   0.169   2.950   1.380
  705SOL     OW 2136   1.347   2.921   1.234
  705SOL    HW1 2137   1.371   2.858   1.160
  705SOL    HW2 2138   1.257   2.961   1.216
  706SOL     OW 2139   1.302   2.717   0.309
  706SOL    HW1 2140   1.216   2.686   0.351
  706SOL    HW2 2141   1.298   2.703   0.210
  707SOL     OW 2142   1.759   3.609   1.154
  707SOL    HW1 2143   1.820   3.639   1.081
  707SOL    HW2 2144   1.721   3.520   1.132
  708SOL     OW 2145   1.252   3.593   1.128
  708SOL    HW1 2146   1.336   3.598   1.074
  708SOL    HW2 2147   1.229   3.497   1.146
  709SOL     OW 2148   0.083   3.120   1.022
  709SOL    HW1 2149   0.078   3.119   1.122
  709SOL    HW2 2150   0.000   3.079   0.984
  710SOL     OW 2151   0.688   3.524   1.716
  710SOL    HW1 2152   0.632   3.605   1.725
  710SOL    HW2 2153   0.740   3.528   1.630
  711SOL     OW 2154   0.903   1.948   0.133
  711SOL    HW1 2155   0.954   1.949   0.047
  711SOL    HW2 2156   0.959   1.906   0.204
  712SOL     OW 2157   1.726   1.997   0.523
  712SOL    HW1 2158   1.799   1.980   0.456
  712SOL    HW2 2159   1.695   1.910   0.561
  713SOL     OW 2160   1.388   3.435   0.477
  713SOL    HW1 2161   1.455   3.447   0.403
  713SOL    HW2 2162   1.348   3.524   0.500
  714SOL     OW 2163   0.130   3.656   1.851
  714SOL    HW1 2164   0.089   3.582   1.904
  714SOL    HW2 2165   0.194   3.707   1.909
  715SOL     OW 2166   1.280   2.789   0.672
  715SOL    HW1 2167   1.340   2.708   0.674
  715SOL    HW2 2168   1.320   2.858   0.612
  716SOL     OW 2169   0.830   3.135   1.422
  716SOL    HW1 2170   0.825   3.168   1.517
  716SOL    HW2 2171   0.744   3.154   1.376
  717SOL     OW 2172   0.672   3.478   0.154
  717SOL    HW1 2173   0.681   3.488   0.055
  717SOL    HW2 2174   0.632   3.389   0.175
  718SOL     OW 2175   1.650   3.582   1.394
  718SOL    HW1 2176   1.703   3.592   1.310
  718SOL    HW2 2177   1.623   3.672   1.428
  719SOL     OW 2178   1.841   2.037   0.963
  719SOL    HW1 2179   1.880   1.952   0.927
  719SOL    HW2 2180   1.743   2.039   0.944
  720SOL     OW 2181   0.263   2.188   0.720
  720SOL    HW1 2182   0.184   2.239   0.686
  720SOL    HW2 2183   0.254   2.173   0.818
  721SOL     OW 2184   1.194   3.474   0.031
  721SOL    HW1 2185   1.200   3.381   0.068
  721SOL    HW2 2186   1.135   3.474  -0.049
  722SOL     OW 2187   0.822   2.864   1.372
  722SOL    HW1 2188   0.862   2.863   1.280
  722SOL    HW2 2189   0.832   2.956   1.412
  723SOL     OW 2190   0.916   2.772   0.291
  723SOL    HW1 2191   0.979   2.810   0.223
  723SOL    HW2 2192   0.956   2.689   0.330
  724SOL     OW 2193   1.504   3.469   0.044
  724SOL    HW1 2194   1.412   3.506   0.051
  724SOL    HW2 2195   1.542   3.489  -0.046
  725SOL     OW 2196   0.372   3.150   1.490
  725SOL    HW1 2197   0.359   3.243   1.456
  725SOL    HW2 2198   0.288   3.098   1.477
  726SOL     OW 2199   1.614   3.154   1.289
  726SOL    HW1 2200   1.674   3.157   1.369
  726SOL    HW2 2201   1.539   3.218   1.302
  727SOL     OW 2202   1.039   2.960   0.696
  727SOL    HW1 2203   0.969   2.913   0.750
  727SOL    HW2 2204   1.098   2.892   0.653
  728SOL     OW 2205   1.014   2.098   0.971
  728SOL    HW1 2206   1.006   2.062   0.878
  728SOL    HW2 2207   1.012   2.022   1.036
  729SOL     OW 2208   0.590   3.349   0.491
  729SOL    HW1 2209   0.632   3.291   0.421
  729SOL    HW2 2210   0.546   3.428   0.447
  730SOL     OW 2211   1.709   2.247   1.381
  730SOL    HW1 2212   1.782   2.316   1.385
  730SOL    HW2 2213   1.737   2.172   1.322
  731SOL     OW 2214   0.255   3.210   0.290
  731SOL    HW1 2215   0.159   3.211   0.263
  731SOL    HW2 2216   0.267   3.263   0.374
  732SOL     OW 2217   0.105   2.875   1.726
  732SOL    HW1 2218   0.028   2.842   1.780
  732SOL    HW2 2219   0.190   2.845   1.768
  733SOL     OW 2220   0.672   2.065   1.489
  733SOL    HW1 2221   0.762   2.049   1.449
  733SOL    HW2 2222   0.680   2.070   1.588
  734SOL     OW 2223   0.075   2.207   0.033
  734SOL    HW1 2224  -0.017   2.179   0.004
  734SOL    HW2 2225   0.106   2.284  -0.023
  735SOL     OW 2226   1.440   2.718   1.398
  735SOL    HW1 2227   1.383   2.770   1.335
  735SOL    HW2 2228   1.536   2.730   1.374
  736SOL     OW 2229   0.072   2.028   0.318
  736SOL    HW1 2230   0.055   2.111   0.264
  736SOL    HW2 2231   0.162   1.991   0.296
  737SOL     OW 2232   1.183   3.197   0.119
  737SOL    HW1 2233   1.084   3.186   0.121
  737SOL    HW2 2234   1.217   3.212   0.212
  738SOL     OW 2235   0.613   2.704   1.431
  738SOL    HW1 2236   0.669   2.785   1.414
  738SOL    HW2 2237   0.672   2.624   1.434
  739SOL     OW 2238   1.493   3.629   0.959
  739SOL    HW1 2239   1.526   3.693   0.890
  739SOL    HW2 2240   1.559   3.623   1.034
  740SOL     OW 2241   0.716   2.427   1.708
  740SOL    HW1 2242   0.735   2.492   1.782
  740SOL    HW2 2243   0.776   2.347   1.717
  741SOL     OW 2244   1.450   3.082   1.633
  741SOL    HW1 2245   1.441   3.072   1.732
  741SOL    HW2 2246   1.546   3.075   1.607
  742SOL     OW 2247   0.390   3.603   1.560
  742SOL    HW1 2248   0.299   3.644   1.558
  742SOL    HW2 2249   0.383   3.509   1.592
  743SOL     OW 2250   1.674   2.745   1.254
  743SOL    HW1 2251   1.647   2.656   1.217
  743SOL    HW2 2252   1.675   2.813   1.181
  744SOL     OW 2253   1.225   2.187   0.449
  744SOL    HW1 2254   1.290   2.113   0.438
  744SOL    HW2 2255   1.245   2.237   0.533
  745SOL     OW 2256   0.594   2.607   0.652
  745SOL    HW1 2257   0.644   2.692   0.633
  745SOL    HW2 2258   0.506   2.609   0.604
  746SOL     OW 2259   1.777   2.204   1.642
  746SOL    HW1 2260   1.760   2.235   1.548
  746SOL    HW2 2261   1.693   2.167   1.680
  747SOL     OW 2262   1.730   2.796   1.517
  747SOL    HW1 2263   1.768   2.887   1.532
  747SOL    HW2 2264   1.722   2.779   1.418
  748SOL     OW 2265   0.859   3.236   0.016
  748SOL    HW1 2266   0.813   3.251   0.104
  748SOL    HW2 2267   0.903   3.321  -0.014
  749SOL     OW 2268   0.661   3.652   0.953
  749SOL    HW1 2269   0.615   3.740   0.940
  749SOL    HW2 2270   0.760   3.664   0.946
  750SOL     OW 2271   0.859   2.818   0.861
  750SOL    HW1 2272   0.913   2.749   0.909
  750SOL    HW2 2273   0.827   2.887   0.927
  751SOL     OW 2274   1.083   2.846   0.087
  751SOL    HW1 2275   1.060   2.899   0.005
  751SOL    HW2 2276   1.164   2.790   0.068
  752SOL     OW 2277   1.861   3.431   0.851
  752SOL    HW1 2278   1.790   3.419   0.781
  752SOL    HW2 2279   1.862   3.352   0.911
  753SOL     OW 2280   0.221   3.176   1.844
  753SOL    HW1 2281   0.156   3.103   1.823
  753SOL    HW2 2282   0.225   3.190   1.942
  754SOL     OW 2283   0.079   3.102   0.653
  754SOL    HW1 2284   0.078   3.055   0.741
  754SOL    HW2 2285   0.161   3.074   0.602
  755SOL     OW 2286   0.672   3.253   1.624
  755SOL    HW1 2287   0.594   3.203   1.662
  755SOL    HW2 2288   0.669   3.348   1.655
  756SOL     OW 2289   1.824   2.054   1.227
  756SOL    HW1 2290   1.820   1.964   1.271
  756SOL    HW2 2291   1.827   2.043   1.128
  757SOL     OW 2292   0.428   2.286   0.520
  757SOL    HW1 2293   0.458   2.214   0.458
  757SOL    HW2 2294   0.389   2.246   0.603
  758SOL     OW 2295   1.705   3.349   1.104
  758SOL    HW1 2296   1.612   3.324   1.077
  758SOL    HW2 2297   1.731   3.299   1.186
  759SOL     OW 2298   0.317   2.409   1.280
  759SOL    HW1 2299   0.355   2.350   1.352
  759SOL    HW2 2300   0.357   2.383   1.192
  760SOL     OW 2301   0.812   3.448   0.687
  760SOL    HW1 2302   0.844   3.458   0.593
  760SOL    HW2 2303   0.733   3.386   0.689
  761SOL     OW 2304   1.424   2.076   1.112
  761SOL    HW1 2305   1.476   2.011   1.167
  761SOL    HW2 2306   1.375   2.139   1.173
  762SOL     OW 2307   1.001   1.896   1.154
  762SOL    HW1 2308   0.938   1.824   1.123
  762SOL    HW2 2309   1.094   1.860   1.154
  763SOL     OW 2310   0.770   3.192   0.301
  763SOL    HW1 2311   0.724   3.105   0.318
  763SOL    HW2 2312   0.861   3.189   0.342
  764SOL     OW 2313   0.618   3.429   1.284
  764SOL    HW1 2314   0.613   3.511   1.341
  764SOL    HW2 2315   0.707   3.426   1.239
  765SOL     OW 2316   1.352   1.914   0.168
  765SOL    HW1 2317   1.387   1.873   0.084
  765SOL    HW2 2318   1.262   1.876   0.188
  766SOL     OW 2319   1.300   2.315   0.691
  766SOL    HW1 2320   1.241   2.395   0.695
  766SOL    HW2 2321   1.315   2.280   0.784
  767SOL     OW 2322   1.593   2.083   0.882
  767SOL    HW1 2323   1.509   2.082   0.936
  767SOL    HW2 2324   1.595   2.166   0.826
  768SOL     OW 2325   0.039   2.939   0.300
  768SOL    HW1 2326   0.138   2.928   0.291
  768SOL    HW2 2327  -0.001   2.853   0.332
  769SOL     OW 2328   0.875   3.508   0.337
  769SOL    HW1 2329   0.798   3.473   0.283
  769SOL    HW2 2330   0.843   3.579   0.399
  770SOL     OW 2331   0.230   2.490   1.975
  770SOL    HW1 2332   0.137   2.488   2.012
  770SOL    HW2 2333   0.231   2.451   1.883
  771SOL     OW 2334   0.225   2.137   2.858
  771SOL    HW1 2335   0.260   2.120   2.950
  771SOL    HW2 2336   0.137   2.092   2.846
  772SOL     OW 2337   0.019   2.230   2.509
  772SOL    HW1 2338  -0.063   2.273   2.548
  772SOL    HW2 2339  -0.009   2.157   2.446
  773SOL     OW 2340   0.569   3.137   3.027
  773SOL    HW1 2341   0.476   3.130   2.990
  773SOL    HW2 2342   0.580   3.226   3.071
  774SOL     OW 2343   1.555   3.373   2.565
  774SOL    HW1 2344   1.498   3.357   2.646
  774SOL    HW2 2345   1.496   3.383   2.485
  775SOL     OW 2346   1.135   2.565   2.579
  775SOL    HW1 2347   1.192   2.643   2.554
  775SOL    HW2 2348   1.075   2.591   2.655
  776SOL     OW 2349   1.755   2.469   2.093
  776SOL    HW1 2350   1.743   2.456   1.994
  776SOL    HW2 2351   1.725   2.388   2.142
  777SOL     OW 2352   0.768   3.006   2.885
  777SOL    HW1 2353   0.690   3.023   2.945
  777SOL    HW2 2354   0.802   3.093   2.849
  778SOL     OW 2355   0.850   2.660   3.685
  778SOL    HW1 2356   0.846   2.736   3.750
  778SOL    HW2 2357   0.872   2.696   3.594
  779SOL     OW 2358   0.685   2.874   2.527
  779SOL    HW1 2359   0.754   2.858   2.597
  779SOL    HW2 2360   0.612   2.931   2.565
  780SOL     OW 2361   0.686   3.023   3.665
  780SOL    HW1 2362   0.746   3.102   3.679
  780SOL    HW2 2363   0.600   3.054   3.624
  781SOL     OW 2364   0.335   3.297   2.923
  781SOL    HW1 2365   0.257   3.266   2.870
  781SOL    HW2 2366   0.393   3.355   2.866
  782SOL     OW 2367   1.460   3.367   3.201
  782SOL    HW1 2368   1.484   3.461   3.227
  782SOL    HW2 2369   1.444   3.313   3.283
  783SOL     OW 2370   0.438   2.254   3.361
  783SOL    HW1 2371   0.520   2.198   3.370
  783SOL    HW2 2372   0.357   2.196   3.365
  784SOL     OW 2373   1.603   2.309   2.599
  784SOL    HW1 2374   1.529   2.355   2.549
  784SOL    HW2 2375   1.654   2.377   2.652
  785SOL     OW 2376   0.231   3.575   2.345
  785SOL    HW1 2377   0.265   3.652   2.399
  785SOL    HW2 2378   0.275   3.575   2.255
  786SOL     OW 2379   1.127   3.203   3.552
  786SOL    HW1 2380   1.174   3.203   3.640
  786SOL    HW2 2381   1.079   3.116   3.541
  787SOL     OW 2382   0.230   3.296   2.400
  787SOL    HW1 2383   0.204   3.392   2.400
  787SOL    HW2 2384   0.159   3.242   2.445
  788SOL     OW 2385   0.240   2.953   2.748
  788SOL    HW1 2386   0.254   2.869   2.800
  788SOL    HW2 2387   0.185   3.017   2.803
  789SOL     OW 2388   0.620   3.648   3.301
  789SOL    HW1 2389   0.528   3.631   3.336
  789SOL    HW2 2390   0.648   3.740   3.327
  790SOL     OW 2391   0.606   2.826   1.985
  790SOL    HW1 2392   0.613   2.910   1.931
  790SOL    HW2 2393   0.652   2.839   2.073
  791SOL     OW 2394   1.594   1.976   3.342
  791SOL    HW1 2395   1.576   2.043   3.270
  791SOL    HW2 2396   1.591   2.022   3.431
  792SOL     OW 2397   0.122   2.505   2.425
  792SOL    HW1 2398   0.077   2.417   2.442
  792SOL    HW2 2399   0.121   2.559   2.509
  793SOL     OW 2400   1.842   3.629   2.221
  793SOL    HW1 2401   1.896   3.600   2.301
  793SOL    HW2 2402   1.872   3.719   2.192
  794SOL     OW 2403   0.027   3.458   1.979
  794SOL    HW1 2404   0.008   3.362   2.000
  794SOL    HW2 2405  -0.006   3.516   2.054
  795SOL     OW 2406   1.689   2.784   2.474
  795SOL    HW1 2407   1.784   2.755   2.482
  795SOL    HW2 2408   1.681   2.849   2.399
  796SOL     OW 2409   1.641   2.970   2.294
  796SOL    HW1 2410   1.727   2.972   2.242
  796SOL    HW2 2411   1.655   3.017   2.382
  797SOL     OW 2412   0.113   2.599   3.459
  797SOL    HW1 2413   0.201   2.586   3.504
  797SOL    HW2 2414   0.100   2.696   3.437
  798SOL     OW 2415   0.613   3.227   2.588
  798SOL    HW1 2416   0.564   3.140   2.597
  798SOL    HW2 2417   0.590   3.270   2.501
  799SOL     OW 2418   1.293   3.090   3.285
  799SOL    HW1 2419   1.330   3.017   3.227
  799SOL    HW2 2420   1.345   3.095   3.370
  800SOL     OW 2421   0.809   1.866   2.364
  800SOL    HW1 2422   0.849   1.957   2.355
  800SOL    HW2 2423   0.709   1.874   2.370
  801SOL     OW 2424   0.197   2.838   3.126
  801SOL    HW1 2425   0.286   2.793   3.112
  801SOL    HW2 2426   0.124   2.773   3.107
  802SOL     OW 2427   1.525   2.861   2.052
  802SOL    HW1 2428   1.462   2.785   2.065
  802SOL    HW2 2429   1.573   2.879   2.138
  803SOL     OW 2430   1.187   3.654   3.478
  803SOL    HW1 2431   1.211   3.714   3.402
  803SOL    HW2 2432   1.194   3.559   3.448
  804SOL     OW 2433   0.317   2.113   3.663
  804SOL    HW1 2434   0.388   2.184   3.669
  804SOL    HW2 2435   0.229   2.152   3.691
  805SOL     OW 2436   1.466   3.279   2.815
  805SOL    HW1 2437   1.407   3.285   2.895
  805SOL    HW2 2438   1.451   3.191   2.769
  806SOL     OW 2439   1.667   3.576   2.434
  806SOL    HW1 2440   1.626   3.553   2.346
  806SOL    HW2 2441   1.649   3.502   2.499
  807SOL     OW 2442   0.598   2.591   2.132
  807SOL    HW1 2443   0.622   2.660   2.064
  807SOL    HW2 2444   0.520   2.624   2.186
  808SOL     OW 2445   1.281   2.207   2.806
  808SOL    HW1 2446   1.195   2.157   2.793
  808SOL    HW2 2447   1.343   2.153   2.862
  809SOL     OW 2448   1.576   3.524   2.169
  809SOL    HW1 2449   1.665   3.570   2.172
  809SOL    HW2 2450   1.555   3.500   2.074
  810SOL     OW 2451   0.807   2.467   3.327
  810SOL    HW1 2452   0.760   2.464   3.416
  810SOL    HW2 2453   0.756   2.412   3.261
  811SOL     OW 2454   1.394   2.331   3.536
  811SOL    HW1 2455   1.374   2.374   3.624
  811SOL    HW2 2456   1.472   2.269   3.545
  812SOL     OW 2457   0.973   2.752   3.434
  812SOL    HW1 2458   1.019   2.668   3.405
  812SOL    HW2 2459   0.917   2.786   3.359
  813SOL     OW 2460   0.991   2.272   3.104
  813SOL    HW1 2461   0.914   2.306   3.158
  813SOL    HW2 2462   0.957   2.221   3.025
  814SOL     OW 2463   1.041   2.563   2.291
  814SOL    HW1 2464   1.067   2.559   2.387
  814SOL    HW2 2465   0.956   2.512   2.277
  815SOL     OW 2466   0.076   2.673   2.651
  815SOL    HW1 2467   0.175   2.661   2.660
  815SOL    HW2 2468   0.052   2.768   2.672
  816SOL     OW 2469   0.130   3.683   3.433
  816SOL    HW1 2470   0.120   3.668   3.532
  816SOL    HW2 2471   0.044   3.719   3.397
  817SOL     OW 2472   0.865   2.210   2.057
  817SOL    HW1 2473   0.924   2.273   2.008
  817SOL    HW2 2474   0.884   2.116   2.028
  818SOL     OW 2475   1.719   2.447   3.693
  818SOL    HW1 2476   1.693   2.536   3.657
  818SOL    HW2 2477   1.717   2.379   3.620
  819SOL     OW 2478   1.362   3.006   2.407
  819SOL    HW1 2479   1.445   2.977   2.359
  819SOL    HW2 2480   1.313   3.073   2.351
  820SOL     OW 2481   0.550   2.058   2.747
  820SOL    HW1 2482   0.545   2.053   2.847
  820SOL    HW2 2483   0.552   2.154   2.718
  821SOL     OW 2484   1.008   3.318   2.339
  821SOL    HW1 2485   0.962   3.390   2.287
  821SOL    HW2 2486   1.004   3.338   2.437
  822SOL     OW 2487   0.351   3.663   2.715
  822SOL    HW1 2488   0.401   3.577   2.721
  822SOL    HW2 2489   0.416   3.740   2.712
  823SOL     OW 2490   1.795   2.928   2.735
  823SOL    HW1 2491   1.733   2.913   2.659
  823SOL    HW2 2492   1.743   2.939   2.820
  824SOL     OW 2493   1.227   3.412   3.368
  824SOL    HW1 2494   1.233   3.335   3.432
  824SOL    HW2 2495   1.175   3.386   3.288
  825SOL     OW 2496   0.321   2.805   2.104
  825SOL    HW1 2497   0.403   2.844   2.062
  825SOL    HW2 2498   0.294   2.723   2.055
  826SOL     OW 2499   1.458   2.597   2.590
  826SOL    HW1 2500   1.453   2.532   2.665
  826SOL    HW2 2501   1.538   2.656   2.603
  827SOL     OW 2502   0.461   3.128   3.589
  827SOL    HW1 2503   0.411   3.129   3.503
  827SOL    HW2 2504   0.398   3.110   3.665
  828SOL     OW 2505   1.111   3.638   2.099
  828SOL    HW1 2506   1.051   3.576   2.149
  828SOL    HW2 2507   1.142   3.594   2.014
  829SOL     OW 2508   0.202   2.147   3.360
  829SOL    HW1 2509   0.122   2.207   3.347
  829SOL    HW2 2510   0.192   2.098   3.446
  830SOL     OW 2511   1.632   3.239   1.943
  830SOL    HW1 2512   1.600   3.333   1.933
  830SOL    HW2 2513   1.556   3.176   1.931
  831SOL     OW 2514   0.464   3.605   2.185
  831SOL    HW1 2515   0.497   3.644   2.271
  831SOL    HW2 2516   0.540   3.598   2.120
  832SOL     OW 2517   1.400   1.969   2.288
  832SOL    HW1 2518   1.376   1.932   2.198
  832SOL    HW2 2519   1.499   1.985   2.292
  833SOL     OW 2520   0.249   3.647   3.103
  833SOL    HW1 2521   0.306   3.582   3.153
  833SOL    HW2 2522   0.233   3.614   3.010
  834SOL     OW 2523   0.940   3.560   2.766
  834SOL    HW1 2524   1.020   3.503   2.787
  834SOL    HW2 2525   0.891   3.520   2.689
  835SOL     OW 2526   0.382   2.562   2.342
  835SOL    HW1 2527   0.427   2.472   2.339
  835SOL    HW2 2528   0.288   2.551   2.375
  836SOL     OW 2529   1.547   2.084   3.591
  836SOL    HW1 2530   1.542   2.121   3.683
  836SOL    HW2 2531   1.475   2.015   3.579
  837SOL     OW 2532   0.614   1.984   1.979
  837SOL    HW1 2533   0.712   1.962   1.986
  837SOL    HW2 2534   0.583   1.967   1.886
  838SOL     OW 2535   0.781   2.126   3.611
  838SOL    HW1 2536   0.848   2.065   3.654
  838SOL    HW2 2537   0.708   2.145   3.676
  839SOL     OW 2538   0.888   3.376   3.057
  839SOL    HW1 2539   0.865   3.351   2.963
  839SOL    HW2 2540   0.949   3.307   3.096
  840SOL     OW 2541   1.351   2.452   3.295
  840SOL    HW1 2542   1.379   2.409   3.380
  840SOL    HW2 2543   1.376   2.548   3.296
  841SOL     OW 2544   0.803   3.264   2.786
  841SOL    HW1 2545   0.893   3.278   2.744
  841SOL    HW2 2546   0.732   3.266   2.715
  842SOL     OW 2547   0.922   2.365   2.761
  842SOL    HW1 2548   0.897   2.356   2.665
  842SOL    HW2 2549   0.970   2.283   2.792
  843SOL     OW 2550   0.539   1.926   2.374
  843SOL    HW1 2551   0.458   1.927   2.432
  843SOL    HW2 2552   0.542   2.009   2.319
  844SOL     OW 2553   1.434   3.050   1.903
  844SOL    HW1 2554   1.466   2.974   1.960
  844SOL    HW2 2555   1.342   3.077   1.933
  845SOL     OW 2556   0.297   1.897   2.033
  845SOL    HW1 2557   0.346   1.981   2.012
  845SOL    HW2 2558   0.359   1.832   2.078
  846SOL     OW 2559   0.935   2.098   2.342
  846SOL    HW1 2560   0.887   2.139   2.264
  846SOL    HW2 2561   1.034   2.096   2.323
  847SOL     OW 2562   1.076   2.545   3.326
  847SOL    HW1 2563   0.996   2.484   3.329
  847SOL    HW2 2564   1.157   2.492   3.302
  848SOL     OW 2565   1.227   3.432   2.655
  848SOL    HW1 2566   1.248   3.506   2.590
  848SOL    HW2 2567   1.295   3.432   2.728
  849SOL     OW 2568   0.459   3.014   2.603
  849SOL    HW1 2569   0.388   2.987   2.668
  849SOL    HW2 2570   0.433   2.986   2.510
  850SOL     OW 2571   1.271   3.659   2.453
  850SOL    HW1 2572   1.315   3.723   2.389
  850SOL    HW2 2573   1.221   3.711   2.523
  851SOL     OW 2574   1.032   2.411   1.878
  851SOL    HW1 2575   0.991   2.493   1.839
  851SOL    HW2 2576   1.096   2.437   1.951
  852SOL     OW 2577   0.078   2.418   3.248
  852SOL    HW1 2578   0.170   2.417   3.207
  852SOL    HW2 2579   0.072   2.492   3.315
  853SOL     OW 2580   0.561   2.084   3.009
  853SOL    HW1 2581   0.599   2.000   3.046
  853SOL    HW2 2582   0.473   2.103   3.053
  854SOL     OW 2583   0.866   2.316   2.504
  854SOL    HW1 2584   0.834   2.388   2.442
  854SOL    HW2 2585   0.890   2.235   2.451
  855SOL     OW 2586   1.017   1.901   2.615
  855SOL    HW1 2587   0.945   1.906   2.546
  855SOL    HW2 2588   0.993   1.832   2.684
  856SOL     OW 2589   1.429   3.035   2.729
  856SOL    HW1 2590   1.374   2.951   2.722
  856SOL    HW2 2591   1.455   3.064   2.637
  857SOL     OW 2592   1.466   2.452   2.854
  857SOL    HW1 2593   1.436   2.357   2.861
  857SOL    HW2 2594   1.539   2.468   2.920
  858SOL     OW 2595   1.857   2.695   2.239
  858SOL    HW1 2596   1.899   2.631   2.303
  858SOL    HW2 2597   1.819   2.644   2.161
  859SOL     OW 2598   0.488   3.247   2.036
  859SOL    HW1 2599   0.401   3.232   2.083
  859SOL    HW2 2600   0.471   3.273   1.941
  860SOL     OW 2601   1.664   3.142   2.519
  860SOL    HW1 2602   1.763   3.150   2.533
  860SOL    HW2 2603   1.619   3.226   2.550
  861SOL     OW 2604   1.390   2.437   1.940
  861SOL    HW1 2605   1.336   2.416   2.021
  861SOL    HW2 2606   1.481   2.396   1.949
  862SOL     OW 2607   0.527   2.118   2.190
  862SOL    HW1 2608   0.554   2.059   2.115
  862SOL    HW2 2609   0.527   2.213   2.159
  863SOL     OW 2610   1.754   3.085   3.450
  863SOL    HW1 2611   1.845   3.046   3.437
  863SOL    HW2 2612   1.762   3.181   3.474
  864SOL     OW 2613   1.064   3.209   3.202
  864SOL    HW1 2614   0.984   3.186   3.257
  864SOL    HW2 2615   1.147   3.183   3.251
  865SOL     OW 2616   1.592   3.491   3.487
  865SOL    HW1 2617   1.619   3.525   3.397
  865SOL    HW2 2618   1.671   3.453   3.533
  866SOL     OW 2619   1.111   3.057   2.962
  866SOL    HW1 2620   1.071   3.101   3.043
  866SOL    HW2 2621   1.070   3.094   2.879
  867SOL     OW 2622   1.638   2.961   2.941
  867SOL    HW1 2623   1.643   3.042   3.000
  867SOL    HW2 2624   1.552   2.963   2.890
  868SOL     OW 2625   0.915   1.951   3.264
  868SOL    HW1 2626   0.940   1.931   3.169
  868SOL    HW2 2627   0.987   2.007   3.306
  869SOL     OW 2628   0.980   2.978   3.581
  869SOL    HW1 2629   0.881   2.984   3.591
  869SOL    HW2 2630   1.003   2.898   3.525
  870SOL     OW 2631   0.705   2.912   2.230
  870SOL    HW1 2632   0.691   2.919   2.329
  870SOL    HW2 2633   0.789   2.861   2.212
  871SOL     OW 2634   0.410   2.675   3.113
  871SOL    HW1 2635   0.496   2.687   3.163
  871SOL    HW2 2636   0.368   2.588   3.140
  872SOL     OW 2637   1.274   2.248   3.124
  872SOL    HW1 2638   1.295   2.322   3.188
  872SOL    HW2 2639   1.185   2.265   3.081
  873SOL     OW 2640   0.064   3.426   3.193
  873SOL    HW1 2641   0.018   3.508   3.159
  873SOL    HW2 2642   0.162   3.445   3.202
  874SOL     OW 2643   0.367   2.962   2.363
  874SOL    HW1 2644   0.360   3.045   2.307
  874SOL    HW2 2645   0.371   2.882   2.303
  875SOL     OW 2646   0.566   2.399   2.727
  875SOL    HW1 2647   0.578   2.465   2.653
  875SOL    HW2 2648   0.612   2.433   2.810
  876SOL     OW 2649   1.252   3.210   2.250
  876SOL    HW1 2650   1.302   3.287   2.290
  876SOL    HW2 2651   1.157   3.212   2.282
  877SOL     OW 2652   1.272   3.307   3.004
  877SOL    HW1 2653   1.319   3.320   3.091
  877SOL    HW2 2654   1.206   3.233   3.013
  878SOL     OW 2655   1.582   2.501   2.334
  878SOL    HW1 2656   1.551   2.562   2.407
  878SOL    HW2 2657   1.632   2.553   2.265
  879SOL     OW 2658   0.354   3.372   3.191
  879SOL    HW1 2659   0.333   3.328   3.104
  879SOL    HW2 2660   0.451   3.398   3.194
  880SOL     OW 2661   0.402   2.613   3.460
  880SOL    HW1 2662   0.470   2.668   3.413
  880SOL    HW2 2663   0.442   2.525   3.487
  881SOL     OW 2664   1.587   2.641   3.532
  881SOL    HW1 2665   1.495   2.679   3.527
  881SOL    HW2 2666   1.647   2.688   3.467
  882SOL     OW 2667   1.013   1.967   3.632
  882SOL    HW1 2668   1.019   2.052   3.580
  882SOL    HW2 2669   1.045   1.891   3.575
  883SOL     OW 2670   0.504   1.912   3.602
  883SOL    HW1 2671   0.462   1.855   3.532
  883SOL    HW2 2672   0.438   1.981   3.634
  884SOL     OW 2673   0.573   2.732   2.891
  884SOL    HW1 2674   0.617   2.821   2.882
  884SOL    HW2 2675   0.510   2.732   2.968
  885SOL     OW 2676   1.360   2.724   2.907
  885SOL    HW1 2677   1.285   2.724   2.841
  885SOL    HW2 2678   1.397   2.632   2.916
  886SOL     OW 2679   1.209   2.387   2.137
  886SOL    HW1 2680   1.222   2.303   2.191
  886SOL    HW2 2681   1.180   2.461   2.197
  887SOL     OW 2682   0.307   2.075   3.093
  887SOL    HW1 2683   0.284   2.112   3.183
  887SOL    HW2 2684   0.277   1.980   3.087
  888SOL     OW 2685   0.037   3.172   3.144
  888SOL    HW1 2686   0.090   3.123   3.212
  888SOL    HW2 2687   0.059   3.270   3.149
  889SOL     OW 2688   0.732   2.496   2.926
  889SOL    HW1 2689   0.791   2.470   2.850
  889SOL    HW2 2690   0.704   2.592   2.915
  890SOL     OW 2691   1.728   2.797   3.716
  890SOL    HW1 2692   1.682   2.790   3.627
  890SOL    HW2 2693   1.666   2.841   3.782
  891SOL     OW 2694   0.307   1.925   2.480
  891SOL    HW1 2695   0.296   2.019   2.513
  891SOL    HW2 2696   0.302   1.862   2.557
  892SOL     OW 2697   1.622   2.229   2.236
  892SOL    HW1 2698   1.624   2.153   2.300
  892SOL    HW2 2699   1.574   2.306   2.276
  893SOL     OW 2700   1.023   2.628   2.828
  893SOL    HW1 2701   1.038   2.649   2.924
  893SOL    HW2 2702   0.993   2.533   2.819
  894SOL     OW 2703   0.980   3.435   3.562
  894SOL    HW1 2704   0.960   3.479   3.474
  894SOL    HW2 2705   1.019   3.344   3.546
  895SOL     OW 2706   1.859   3.380   3.467
  895SOL    HW1 2707   1.873   3.407   3.372
  895SOL    HW2 2708   1.942   3.402   3.520
  896SOL     OW 2709   0.350   2.760   3.666
  896SOL    HW1 2710   0.426   2.804   3.714
  896SOL    HW2 2711   0.385   2.713   3.584
  897SOL     OW 2712   1.540   2.136   1.987
  897SOL    HW1 2713   1.479   2.061   2.010
  897SOL    HW2 2714   1.562   2.188   2.070
  898SOL     OW 2715   1.303   2.700   1.904
  898SOL    HW1 2716   1.337   2.607   1.919
  898SOL    HW2 2717   1.321   2.727   1.809
  899SOL     OW 2718   1.068   3.195   2.711
  899SOL    HW1 2719   1.075   3.111   2.656
  899SOL    HW2 2720   1.130   3.264   2.675
  900SOL     OW 2721   0.319   2.672   2.811
  900SOL    HW1 2722   0.412   2.708   2.816
  900SOL    HW2 2723   0.313   2.587   2.863
  901SOL     OW 2724   0.339   2.371   2.868
  901SOL    HW1 2725   0.287   2.288   2.851
  901SOL    HW2 2726   0.416   2.376   2.804
  902SOL     OW 2727   1.138   2.242   3.540
  902SOL    HW1 2728   1.093   2.305   3.604
  902SOL    HW2 2729   1.231   2.273   3.523
  903SOL     OW 2730   1.160   2.069   3.339
  903SOL    HW1 2731   1.160   2.133   3.416
  903SOL    HW2 2732   1.188   2.117   3.256
  904SOL     OW 2733   0.008   3.188   2.062
  904SOL    HW1 2734  -0.085   3.209   2.031
  904SOL    HW2 2735   0.018   3.089   2.075
  905SOL     OW 2736   0.088   3.663   2.789
  905SOL    HW1 2737   0.046   3.577   2.762
  905SOL    HW2 2738   0.182   3.666   2.755
  906SOL     OW 2739   0.504   3.430   2.772
  906SOL    HW1 2740   0.570   3.504   2.781
  906SOL    HW2 2741   0.548   3.351   2.730
  907SOL     OW 2742   1.002   2.658   3.100
  907SOL    HW1 2743   1.043   2.626   3.186
  907SOL    HW2 2744   0.906   2.631   3.097
  908SOL     OW 2745   0.040   2.406   2.976
  908SOL    HW1 2746   0.125   2.373   2.935
  908SOL    HW2 2747   0.053   2.421   3.074
  909SOL     OW 2748   0.189   2.382   3.584
  909SOL    HW1 2749   0.248   2.342   3.514
  909SOL    HW2 2750   0.131   2.453   3.543
  910SOL     OW 2751   1.369   2.812   3.522
  910SOL    HW1 2752   1.408   2.901   3.542
  910SOL    HW2 2753   1.379   2.792   3.425
  911SOL     OW 2754   0.815   2.434   2.187
  911SOL    HW1 2755   0.822   2.345   2.141
  911SOL    HW2 2756   0.721   2.468   2.179
  912SOL     OW 2757   1.657   2.466   3.068
  912SOL    HW1 2758   1.619   2.397   3.130
  912SOL    HW2 2759   1.739   2.430   3.024
  913SOL     OW 2760   0.252   3.426   3.606
  913SOL    HW1 2761   0.222   3.483   3.682
  913SOL    HW2 2762   0.245   3.329   3.632
  914SOL     OW 2763   0.671   2.326   3.131
  914SOL    HW1 2764   0.637   2.237   3.101
  914SOL    HW2 2765   0.697   2.380   3.051
  915SOL     OW 2766   0.930   3.540   3.327
  915SOL    HW1 2767   0.906   3.522   3.232
  915SOL    HW2 2768   0.960   3.634   3.337
  916SOL     OW 2769   0.473   2.362   2.053
  916SOL    HW1 2770   0.534   2.442   2.057
  916SOL    HW2 2771   0.378   2.393   2.060
  917SOL     OW 2772   0.159   2.999   3.328
  917SOL    HW1 2773   0.181   2.938   3.404
  917SOL    HW2 2774   0.169   2.950   3.242
  918SOL     OW 2775   1.347   2.921   3.096
  918SOL    HW1 2776   1.371   2.858   3.022
  918SOL    HW2 2777   1.257   2.961   3.078
  919SOL     OW 2778   1.302   2.717   2.171
  919SOL    HW1 2779   1.216   2.686   2.213
  919SOL    HW2 2780   1.298   2.703   2.072
  920SOL     OW 2781   1.759   3.609   3.016
  920SOL    HW1 2782   1.820   3.639   2.943
  920SOL    HW2 2783   1.721   3.520   2.994
  921SOL     OW 2784   1.252   3.593   2.990
  921SOL    HW1 2785   1.336   3.598   2.936
  921SOL    HW2 2786   1.229   3.497   3.008
  922SOL     OW 2787   0.083   3.120   2.884
  922SOL    HW1 2788   0.078   3.119   2.984
  922SOL    HW2 2789   0.000   3.079   2.846
  923SOL     OW 2790   0.688   3.524   3.578
  923SOL    HW1 2791   0.632   3.605   3.587
  923SOL    HW2 2792   0.740   3.528   3.492
  924SOL     OW 2793   1.726   1.997   2.385
  924SOL    HW1 2794   1.799   1.980   2.318
  924SOL    HW2 2795   1.695   1.910   2.423
  925SOL     OW 2796   1.388   3.435   2.339
  925SOL    HW1 2797   1.455   3.447   2.265
  925SOL    HW2 2798   1.348   3.524   2.362
  926SOL     OW 2799   0.130   3.656   3.713
  926SOL    HW1 2800   0.089   3.582   3.766
  926SOL    HW2 2801   0.194   3.707   3.771
  927SOL     OW 2802   1.280   2.789   2.534
  927SOL    HW1 2803   1.340   2.708   2.536
  927SOL    HW2 2804   1.320   2.858   2.474
  928SOL     OW 2805   0.830   3.135   3.284
  928SOL    HW1 2806   0.825   3.168   3.379
  928SOL    HW2 2807   0.744   3.154   3.238
  929SOL     OW 2808   0.672   3.478   2.016
  929SOL    HW1 2809   0.681   3.488   1.917
  929SOL    HW2 2810   0.632   3.389   2.037
  930SOL     OW 2811   1.650   3.582   3.256
  930SOL    HW1 2812   1.703   3.592   3.172
  930SOL    HW2 2813   1.623   3.672   3.290
  931SOL     OW 2814   1.841   2.037   2.825
  931SOL    HW1 2815   1.880   1.952   2.789
  931SOL    HW2 2816   1.743   2.039   2.806
  932SOL     OW 2817   0.263   2.188   2.582
  932SOL    HW1 2818   0.184   2.239   2.548
  932SOL    HW2 2819   0.254   2.173   2.680
  933SOL     OW 2820   1.194   3.474   1.893
  933SOL    HW1 2821   1.200   3.381   1.930
  933SOL    HW2 2822   1.135   3.474   1.813
  934SOL     OW 2823   0.822   2.864   3.234
  934SOL    HW1 2824   0.862   2.863   3.142
  934SOL    HW2 2825   0.832   2.956   3.274
  935SOL     OW 2826   0.916   2.772   2.153
  935SOL    HW1 2827   0.979   2.810   2.085
  935SOL    HW2 2828   0.956   2.689   2.192
  936SOL     OW 2829   1.504   3.469   1.906
  936SOL    HW1 2830   1.412   3.506   1.913
  936SOL    HW2 2831   1.542   3.489   1.816
  937SOL     OW 2832   0.372   3.150   3.352
  937SOL    HW1 2833   0.359   3.243   3.318
  937SOL    HW2 2834   0.288   3.098   3.339
  938SOL     OW 2835   1.614   3.154   3.151
  938SOL    HW1 2836   1.674   3.157   3.231
  938SOL    HW2 2837   1.539   3.218   3.164
  939SOL     OW 2838   1.039   2.960   2.558
  939SOL    HW1 2839   0.969   2.913   2.612
  939SOL    HW2 2840   1.098   2.892   2.515
  940SOL     OW 2841   1.014   2.098   2.833
  940SOL    HW1 2842   1.006   2.062   2.740
  940SOL    HW2 2843   1.012   2.022   2.898
  941SOL     OW 2844   0.590   3.349   2.353
  941SOL    HW1 2845   0.632   3.291   2.283
  941SOL    HW2 2846   0.546   3.428   2.309
  942SOL     OW 2847   1.709   2.247   3.243
  942SOL    HW1 2848   1.782   2.316   3.247
  942SOL    HW2 2849   1.737   2.172   3.184
  943SOL     OW 2850   0.255   3.210   2.152
  943SOL    HW1 2851   0.159   3.211   2.125
  943SOL    HW2 2852   0.267   3.263   2.236
  944SOL     OW 2853   0.105   2.875   3.588
  944SOL    HW1 2854   0.028   2.842   3.642
  944SOL    HW2 2855   0.190   2.845   3.630
  945SOL     OW 2856   0.672   2.065   3.351
  945SOL    HW1 2857   0.762   2.049   3.311
  945SOL    HW2 2858   0.680   2.070   3.450
  946SOL     OW 2859   0.075   2.207   1.895
  946SOL    HW1 2860  -0.017   2.179   1.866
  946SOL    HW2 2861   0.106   2.284   1.839
  947SOL     OW 2862   1.440   2.718   3.260
  947SOL    HW1 2863   1.383   2.770   3.197
  947SOL    HW2 2864   1.536   2.730   3.236
  948SOL     OW 2865   0.072   2.028   2.180
  948SOL    HW1 2866   0.055   2.111   2.126
  948SOL    HW2 2867   0.162   1.991   2.158
  949SOL     OW 2868   1.183   3.197   1.981
  949SOL    HW1 2869   1.084   3.186   1.983
  949SOL    HW2 2870   1.217   3.212   2.074
  950SOL     OW 2871   0.613   2.704   3.293
  950SOL    HW1 2872   0.669   2.785   3.276
  950SOL    HW2 2873   0.672   2.624   3.296
  951SOL     OW 2874   1.493   3.629   2.821
  951SOL    HW1 2875   1.526   3.693   2.752
  951SOL    HW2 2876   1.559   3.623   2.896
  952SOL     OW 2877   0.716   2.427   3.570
  952SOL    HW1 2878   0.735   2.492   3.644
  952SOL    HW2 2879   0.776   2.347   3.579
  953SOL     OW 2880   1.450   3.082   3.495
  953SOL    HW1 2881   1.441   3.072   3.594
  953SOL    HW2 2882   1.546   3.075   3.469
  954SOL     OW 2883   0.390   3.603   3.422
  954SOL    HW1 2884   0.299   3.644   3.420
  954SOL    HW2 2885   0.383   3.509   3.454
  955SOL     OW 2886   1.674   2.745   3.116
  955SOL    HW1 2887   1.647   2.656   3.079
  955SOL    HW2 2888   1.675   2.813   3.043
  956SOL     OW 2889   1.225   2.187   2.311
  956SOL    HW1 2890   1.290   2.113   2.300
  956SOL    HW2 2891   1.245   2.237   2.395
  957SOL     OW 2892   0.594   2.607   2.514
  957SOL    HW1 2893   0.644   2.692   2.495
  957SOL    HW2 2894   0.506   2.609   2.466
  958SOL     OW 2895   1.777   2.204   3.504
  958SOL    HW1 2896   1.760   2.235   3.410
  958SOL    HW2 2897   1.693   2.167   3.542
  959SOL     OW 2898   1.730   2.796   3.379
  959SOL    HW1 2899   1.768   2.887   3.394
  959SOL    HW2 2900   1.722   2.779   3.280
  960SOL     OW 2901   0.859   3.236   1.878
  960SOL    HW1 2902   0.813   3.251   1.966
  960SOL    HW2 2903   0.903   3.321   1.848
  961SOL     OW 2904   0.661   3.652   2.815
  961SOL    HW1 2905   0.615   3.740   2.802
  961SOL    HW2 2906   0.760   3.664   2.808
  962SOL     OW 2907   0.859   2.818   2.723
  962SOL    HW1 2908   0.913   2.749   2.771
  962SOL    HW2 2909   0.827   2.887   2.789
  963SOL     OW 2910   1.083   2.846   1.949
  963SOL    HW1 2911   1.060   2.899   1.867
  963SOL    HW2 2912   1.164   2.790   1.930
  964SOL     OW 2913   1.861   3.431   2.713
  964SOL    HW1 2914   1.790   3.419   2.643
  964SOL    HW2 2915   1.862   3.352   2.773
  965SOL     OW 2916   0.221   3.176   3.706
  965SOL    HW1 2917   0.156   3.103   3.685
  965SOL    HW2 2918   0.225   3.190   3.804
  966SOL     OW 2919   0.079   3.102   2.515
  966SOL    HW1 2920   0.078   3.055   2.603
  966SOL    HW2 2921   0.161   3.074   2.464
  967SOL     OW 2922   0.672   3.253   3.486
  967SOL    HW1 2923   0.594   3.203   3.524
  967SOL    HW2 2924   0.669   3.348   3.517
  968SOL     OW 2925   1.824   2.054   3.089
  968SOL    HW1 2926   1.820   1.964   3.133
  968SOL    HW2 2927   1.827   2.043   2.990
  969SOL     OW 2928   0.428   2.286   2.382
  969SOL    HW1 2929   0.458   2.214   2.320
  969SOL    HW2 2930   0.389   2.246   2.465
  970SOL     OW 2931   1.705   3.349   2.966
  970SOL    HW1 2932   1.612   3.324   2.939
  970SOL    HW2 2933   1.731   3.299   3.048
  971SOL     OW 2934   0.317   2.409   3.142
  971SOL    HW1 2935   0.355   2.350   3.214
  971SOL    HW2 2936   0.357   2.383   3.054
  972SOL     OW 2937   0.812   3.448   2.549
  972SOL    HW1 2938   0.844   3.458   2.455
  972SOL    HW2 2939   0.733   3.386   2.551
  973SOL     OW 2940   1.424   2.076   2.974
  973SOL    HW1 2941   1.476   2.011   3.029
  973SOL    HW2 2942   1.375   2.139   3.035
  974SOL     OW 2943   1.001   1.896   3.016
  974SOL    HW1 2944   0.938   1.824   2.985
  974SOL    HW2 2945   1.094   1.860   3.016
  975SOL     OW 2946   0.770   3.192   2.163
  975SOL    HW1 2947   0.724   3.105   2.180
  975SOL    HW2 2948   0.861   3.189   2.204
  976SOL     OW 2949   0.618   3.429   3.146
  976SOL    HW1 2950   0.613   3.511   3.203
  976SOL    HW2 2951   0.707   3.426   3.101
  977SOL     OW 2952   1.352   1.914   2.030
  977SOL    HW1 2953   1.387   1.873   1.946
  977SOL    HW2 2954   1.262   1.876   2.050
  978SOL     OW 2955   1.300   2.315   2.553
  978SOL    HW1 2956   1.241   2.395   2.557
  978SOL    HW2 2957   1.315   2.280   2.646
  979SOL     OW 2958   1.593   2.083   2.744
  979SOL    HW1 2959   1.509   2.082   2.798
  979SOL    HW2 2960   1.595   2.166   2.688
  980SOL     OW 2961   0.039   2.939   2.162
  980SOL    HW1 2962   0.138   2.928   2.153
  980SOL    HW2 2963  -0.001   2.853   2.194
  981SOL     OW 2964   0.875   3.508   2.199
  981SOL    HW1 2965   0.798   3.473   2.145
  981SOL    HW2 2966   0.843   3.579   2.261
  982SOL     OW 2967   0.230   2.490   3.837
  982SOL    HW1 2968   0.137   2.488   3.874
  982SOL    HW2 2969   0.231   2.451   3.745
  983SOL     OW 2970   0.225   2.137   4.720
  983SOL    HW1 2971   0.260   2.120   4.812
  983SOL    HW2 2972   0.137   2.092   4.708
  984SOL     OW 2973   0.019   2.230   4.371
  984SOL    HW1 2974  -0.063   2.273   4.410
  984SOL    HW2 2975  -0.009   2.157   4.308
  985SOL     OW 2976   1.555   3.373   4.427
  985SOL    HW1 2977   1.498   3.357   4.508
  985SOL    HW2 2978   1.496   3.383   4.347
  986SOL     OW 2979   1.135   2.565   4.441
  986SOL    HW1 2980   1.192   2.643   4.416
  986SOL    HW2 2981   1.075   2.591   4.517
  987SOL     OW 2982   1.755   2.469   3.955
  987SOL    HW1 2983   1.743   2.456   3.856
  987SOL    HW2 2984   1.725   2.388   4.004
  988SOL     OW 2985   0.768   3.006   4.747
  988SOL    HW1 2986   0.690   3.023   4.807
  988SOL    HW2 2987   0.802   3.093   4.711
  989SOL     OW 2988   0.685   2.874   4.389
  989SOL    HW1 2989   0.754   2.858   4.459
  989SOL    HW2 2990   0.612   2.931   4.427
  990SOL     OW 2991   0.335   3.297   4.785
  990SOL    HW1 2992   0.257   3.266   4.732
  990SOL    HW2 2993   0.393   3.355   4.728
  991SOL     OW 2994   1.603   2.309   4.461
  991SOL    HW1 2995   1.529   2.355   4.411
  991SOL    HW2 2996   1.654   2.377   4.514
  992SOL     OW 2997   0.231   3.575   4.207
  992SOL    HW1 2998   0.265   3.652   4.261
  992SOL    HW2 2999   0.275   3.575   4.117
  993SOL     OW 3000   0.230   3.296   4.262
  993SOL    HW1 3001   0.204   3.392   4.262
  993SOL    HW2 3002   0.159   3.242   4.307
  994SOL     OW 3003   0.240   2.953   4.610
  994SOL    HW1 3004   0.254   2.869   4.662
  994SOL    HW2 3005   0.185   3.017   4.665
  995SOL     OW 3006   0.606   2.826   3.847
  995SOL    HW1 3007   0.613   2.910   3.793
  995SOL    HW2 3008   0.652   2.839   3.935
  996SOL     OW 3009   0.122   2.505   4.287
  996SOL    HW1 3010   0.077   2.417   4.304
  996SOL    HW2 3011   0.121   2.559   4.371
  997SOL     OW 3012   1.842   3.629   4.083
  997SOL    HW1 3013   1.896   3.600   4.163
  997SOL    HW2 3014   1.872   3.719   4.054
  998SOL     OW 3015   0.027   3.458   3.841
  998SOL    HW1 3016   0.008   3.362   3.862
  998SOL    HW2 3017  -0.006   3.516   3.916
  999SOL     OW 3018   1.689   2.784   4.336
  999SOL    HW1 3019   1.784   2.755   4.344
  999SOL    HW2 3020   1.681   2.849   4.261
 1000SOL     OW 3021   1.641   2.970   4.156
 1000SOL    HW1 3022   1.727   2.972   4.104
 1000SOL    HW2 3023   1.655   3.017   4.244
 1001SOL     OW 3024   0.613   3.227   4.450
 1001SOL    HW1 3025   0.564   3.140   4.459
 1001SOL    HW2 3026   0.590   3.270   4.363
 1002SOL     OW 3027   0.809   1.866   4.226
 1002SOL    HW1 3028   0.849   1.957   4.217
 1002SOL    HW2 3029   0.709   1.874   4.232
 1003SOL     OW 3030   0.197   2.838   4.988
 1003SOL    HW1 3031   0.286   2.793   4.974
 1003SOL    HW2 3032   0.124   2.773   4.969
 1004SOL     OW 3033   1.525   2.861   3.914
 1004SOL    HW1 3034   1.462   2.785   3.927
 1004SOL    HW2 3035   1.573   2.879   4.000
 1005SOL     OW 3036   1.466   3.279   4.677
 1005SOL    HW1 3037   1.407   3.285   4.757
 1005SOL    HW2 3038   1.451   3.191   4.631
 1006SOL     OW 3039   1.667   3.576   4.296
 1006SOL    HW1 3040   1.626   3.553   4.208
 1006SOL    HW2 3041   1.649   3.502   4.361
 1007SOL     OW 3042   0.598   2.591   3.994
 1007SOL    HW1 3043   0.622   2.660   3.926
 1007SOL    HW2 3044   0.520   2.624   4.048
 1008SOL     OW 3045   1.281   2.207   4.668
 1008SOL    HW1 3046   1.195   2.157   4.655
 1008SOL    HW2 3047   1.343   2.153   4.724
 1009SOL     OW 3048   1.576   3.524   4.031
 1009SOL    HW1 3049   1.665   3.570   4.034
 1009SOL    HW2 3050   1.555   3.500   3.936
 1010SOL     OW 3051   1.041   2.563   4.153
 1010SOL    HW1 3052   1.067   2.559   4.249
 1010SOL    HW2 3053   0.956   2.512   4.139
 1011SOL     OW 3054   0.076   2.673   4.513
 1011SOL    HW1 3055   0.175   2.661   4.522
 1011SOL    HW2 3056   0.052   2.768   4.534
 1012SOL     OW 3057   0.865   2.210   3.919
 1012SOL    HW1 3058   0.924   2.273   3.870
 1012SOL    HW2 3059   0.884   2.116   3.890
 1013SOL     OW 3060   1.362   3.006   4.269
 1013SOL    HW1 3061   1.445   2.977   4.221
 1013SOL    HW2 3062   1.313   3.073   4.213
 1014SOL     OW 3063   0.550   2.058   4.609
 1014SOL    HW1 3064   0.545   2.053   4.709
 1014SOL    HW2 3065   0.552   2.154   4.580
 1015SOL     OW 3066   1.008   3.318   4.201
 1015SOL    HW1 3067   0.962   3.390   4.149
 1015SOL    HW2 3068   1.004   3.338   4.299
 1016SOL     OW 3069   0.351   3.663   4.577
 1016SOL    HW1 3070   0.401   3.577   4.583
 1016SOL    HW2 3071   0.416   3.740   4.574
 1017SOL     OW 3072   1.795   2.928   4.597
 1017SOL    HW1 3073   1.733   2.913   4.521
 1017SOL    HW2 3074   1.743   2.939   4.682
 1018SOL     OW 3075   0.321   2.805   3.966
 1018SOL    HW1 3076   0.403   2.844   3.924
 1018SOL    HW2 3077   0.294   2.723   3.917
 1019SOL     OW 3078   1.458   2.597   4.452
 1019SOL    HW1 3079   1.453   2.532   4.527
 1019SOL    HW2 3080   1.538   2.656   4.465
 1020SOL     OW 3081   1.111   3.638   3.961
 1020SOL    HW1 3082   1.051   3.576   4.011
 1020SOL    HW2 3083   1.142   3.594   3.876
 1021SOL     OW 3084   1.632   3.239   3.805
 1021SOL    HW1 3085   1.600   3.333   3.795
 1021SOL    HW2 3086   1.556   3.176   3.793
 1022SOL     OW 3087   0.464   3.605   4.047
 1022SOL    HW1 3088   0.497   3.644   4.133
 1022SOL    HW2 3089   0.540   3.598   3.982
 1023SOL     OW 3090   1.400   1.969   4.150
 1023SOL    HW1 3091   1.376   1.932   4.060
 1023SOL    HW2 3092   1.499   1.985   4.154
 1024SOL     OW 3093   0.249   3.647   4.965
 1024SOL    HW1 3094   0.306   3.582   5.015
 1024SOL    HW2 3095   0.233   3.614   4.872
 1025SOL     OW 3096   0.940   3.560   4.628
 1025SOL    HW1 3097   1.020   3.503   4.649
 1025SOL    HW2 3098   0.891   3.520   4.551
 1026SOL     OW 3099   0.382   2.562   4.204
 1026SOL    HW1 3100   0.427   2.472   4.201
 1026SOL    HW2 3101   0.288   2.551   4.237
 1027SOL     OW 3102   0.614   1.984   3.841
 1027SOL    HW1 3103   0.712   1.962   3.848
 1027SOL    HW2 3104   0.583   1.967   3.748
 1028SOL     OW 3105   0.803   3.264   4.648
 1028SOL    HW1 3106   0.893   3.278   4.606
 1028SOL    HW2 3107   0.732   3.266   4.577
 1029SOL     OW 3108   0.922   2.365   4.623
 1029SOL    HW1 3109   0.897   2.356   4.527
 1029SOL    HW2 3110   0.970   2.283   4.654
 1030SOL     OW 3111   0.539   1.926   4.236
 1030SOL    HW1 3112   0.458   1.927   4.294
 1030SOL    HW2 3113   0.542   2.009   4.181
 1031SOL     OW 3114   1.434   3.050   3.765
 1031SOL    HW1 3115   1.466   2.974   3.822
 1031SOL    HW2 3116   1.342   3.077   3.795
 1032SOL     OW 3117   0.297   1.897   3.895
 1032SOL    HW1 3118   0.346   1.981   3.874
 1032SOL    HW2 3119   0.359   1.832   3.940
 1033SOL     OW 3120   0.935   2.098   4.204
 1033SOL    HW1 3121   0.887   2.139   4.126
 1033SOL    HW2 3122   1.034   2.096   4.185
 1034SOL     OW 3123   1.227   3.432   4.517
 1034SOL    HW1 3124   1.248   3.506   4.452
 1034SOL    HW2 3125   1.295   3.432   4.590
 1035SOL     OW 3126   0.459   3.014   4.465
 1035SOL    HW1 3127   0.388   2.987   4.530
 1035SOL    HW2 3128   0.433   2.986   4.372
 1036SOL     OW 3129   1.271   3.659   4.315
 1036SOL    HW1 3130   1.315   3.723   4.251
 1036SOL    HW2 3131   1.221   3.711   4.385
 1037SOL     OW 3132   1.032   2.411   3.740
 1037SOL    HW1 3133   0.991   2.493   3.701
 1037SOL    HW2 3134   1.096   2.437   3.813
 1038SOL     OW 3135   0.866   2.316   4.366
 1038SOL    HW1 3136   0.834   2.388   4.304
 1038SOL    HW2 3137   0.890   2.235   4.313
 1039SOL     OW 3138   1.017   1.901   4.477
 1039SOL    HW1 3139   0.945   1.906   4.408
 1039SOL    HW2 3140   0.993   1.832   4.546
 1040SOL     OW 3141   1.429   3.035   4.591
 1040SOL    HW1 3142   1.374   2.951   4.584
 1040SOL    HW2 3143   1.455   3.064   4.499
 1041SOL     OW 3144   1.466   2.452   4.716
 1041SOL    HW1 3145   1.436   2.357   4.723
 1041SOL    HW2 3146   1.539   2.468   4.782
 1042SOL     OW 3147   1.857   2.695   4.101
 1042SOL    HW1 3148   1.899   2.631   4.165
 1042SOL    HW2 3149   1.819   2.644   4.023
 1043SOL     OW 3150   0.488   3.247   3.898
 1043SOL    HW1 3151   0.401   3.232   3.945
 1043SOL    HW2 3152   0.471   3.273   3.803
 1044SOL     OW 3153   1.664   3.142   4.381
 1044SOL    HW1 3154   1.763   3.150   4.395
 1044SOL    HW2 3155   1.619   3.226   4.412
 1045SOL     OW 3156   1.390   2.437   3.802
 1045SOL    HW1 3157   1.336   2.416   3.883
 1045SOL    HW2 3158   1.481   2.396   3.811
 1046SOL     OW 3159   0.527   2.118   4.052
 1046SOL    HW1 3160   0.554   2.059   3.977
 1046SOL    HW2 3161   0.527   2.213   4.021
 1047SOL     OW 3162   1.111   3.057   4.824
 1047SOL    HW1 3163   1.071   3.101   4.905
 1047SOL    HW2 3164   1.070   3.094   4.741
 1048SOL     OW 3165   1.638   2.961   4.803
 1048SOL    HW1 3166   1.643   3.042   4.862
 1048SOL    HW2 3167   1.552   2.963   4.752
 1049SOL     OW 3168   0.705   2.912   4.092
 1049SOL    HW1 3169   0.691   2.919   4.191
 1049SOL    HW2 3170   0.789   2.861   4.074
 1050SOL     OW 3171   0.410   2.675   4.975
 1050SOL    HW1 3172   0.496   2.687   5.025
 1050SOL    HW2 3173   0.368   2.588   5.002
 1051SOL     OW 3174   0.367   2.962   4.225
 1051SOL    HW1 3175   0.360   3.045   4.169
 1051SOL    HW2 3176   0.371   2.882   4.165
 1052SOL     OW 3177   0.566   2.399   4.589
 1052SOL    HW1 3178   0.578   2.465   4.515
 1052SOL    HW2 3179   0.612   2.433   4.672
 1053SOL     OW 3180   1.252   3.210   4.112
 1053SOL    HW1 3181   1.302   3.287   4.152
 1053SOL    HW2 3182   1.157   3.212   4.144
 1054SOL     OW 3183   1.582   2.501   4.196
 1054SOL    HW1 3184   1.551   2.562   4.269
 1054SOL    HW2 3185   1.632   2.553   4.127
 1055SOL     OW 3186   0.354   3.372   5.053
 1055SOL    HW1 3187   0.333   3.328   4.966
 1055SOL    HW2 3188   0.451   3.398   5.056
 1056SOL     OW 3189   0.573   2.732   4.753
 1056SOL    HW1 3190   0.617   2.821   4.744
 1056SOL    HW2 3191   0.510   2.732   4.830
 1057SOL     OW 3192   1.209   2.387   3.999
 1057SOL    HW1 3193   1.222   2.303   4.053
 1057SOL    HW2 3194   1.180   2.461   4.059
 1058SOL     OW 3195   0.307   2.075   4.955
 1058SOL    HW1 3196   0.284   2.112   5.045
 1058SOL    HW2 3197   0.277   1.980   4.949
 1059SOL     OW 3198   0.732   2.496   4.788
 1059SOL    HW1 3199   0.791   2.470   4.712
 1059SOL    HW2 3200   0.704   2.592   4.777
 1060SOL     OW 3201   0.307   1.925   4.342
 1060SOL    HW1 3202   0.296   2.019   4.375
 1060SOL    HW2 3203   0.302   1.862   4.419
 1061SOL     OW 3204   1.622   2.229   4.098
 1061SOL    HW1 3205   1.624   2.153   4.162
 1061SOL    HW2 3206   1.574   2.306   4.138
 1062SOL     OW 3207   1.023   2.628   4.690
 1062SOL    HW1 3208   1.038   2.649   4.786
 1062SOL    HW2 3209   0.993   2.533   4.681
 1063SOL     OW 3210   1.540   2.136   3.849
 1063SOL    HW1 3211   1.479   2.061   3.872
 1063SOL    HW2 3212   1.562   2.188   3.932
 1064SOL     OW 3213   1.303   2.700   3.766
 1064SOL    HW1 3214   1.337   2.607   3.781
 1064SOL    HW2 3215   1.321   2.727   3.671
 1065SOL     OW 3216   1.068   3.195   4.573
 1065SOL    HW1 3217   1.075   3.111   4.518
 1065SOL    HW2 3218   1.130   3.264   4.537
 1066SOL     OW 3219   0.319   2.672   4.673
 1066SOL    HW1 3220   0.412   2.708   4.678
 1066SOL    HW2 3221   0.313   2.587   4.725
 1067SOL     OW 3222   0.339   2.371   4.730
 1067SOL    HW1 3223   0.287   2.288   4.713
 1067SOL    HW2 3224   0.416   2.376   4.666
 1068SOL     OW 3225   0.008   3.188   3.924
 1068SOL    HW1 3226  -0.085   3.209   3.893
 1068SOL    HW2 3227   0.018   3.089   3.937
 1069SOL     OW 3228   0.088   3.663   4.651
 1069SOL    HW1 3229   0.046   3.577   4.624
 1069SOL    HW2 3230   0.182   3.666   4.617
 1070SOL     OW 3231   0.504   3.430   4.634
 1070SOL    HW1 3232   0.570   3.504   4.643
 1070SOL    HW2 3233   0.548   3.351   4.592
 1071SOL     OW 3234   1.002   2.658   4.962
 1071SOL    HW1 3235   1.043   2.626   5.048
 1071SOL    HW2 3236   0.906   2.631   4.959
 1072SOL     OW 3237   0.815   2.434   4.049
 1072SOL    HW1 3238   0.822   2.345   4.003
 1072SOL    HW2 3239   0.721   2.468   4.041
 1073SOL     OW 3240   0.671   2.326   4.993
 1073SOL    HW1 3241   0.637   2.237   4.963
 1073SOL    HW2 3242   0.697   2.380   4.913
 1074SOL     OW 3243   0.473   2.362   3.915
 1074SOL    HW1 3244   0.534   2.442   3.919
 1074SOL    HW2 3245   0.378   2.393   3.922
 1075SOL     OW 3246   1.302   2.717   4.033
 1075SOL    HW1 3247   1.216   2.686   4.075
 1075SOL    HW2 3248   1.298   2.703   3.934
 1076SOL     OW 3249   1.759   3.609   4.878
 1076SOL    HW1 3250   1.820   3.639   4.805
 1076SOL    HW2 3251   1.721   3.520   4.856
 1077SOL     OW 3252   0.083   3.120   4.746
 1077SOL    HW1 3253   0.078   3.119   4.846
 1077SOL    HW2 3254   0.000   3.079   4.708
 1078SOL     OW 3255   1.726   1.997   4.247
 1078SOL    HW1 3256   1.799   1.980   4.180
 1078SOL    HW2 3257   1.695   1.910   4.285
 1079SOL     OW 3258   1.388   3.435   4.201
 1079SOL    HW1 3259   1.455   3.447   4.127
 1079SOL    HW2 3260   1.348   3.524   4.224
 1080SOL     OW 3261   1.280   2.789   4.396
 1080SOL    HW1 3262   1.340   2.708   4.398
 1080SOL    HW2 3263   1.320   2.858   4.336
 1081SOL     OW 3264   0.672   3.478   3.878
 1081SOL    HW1 3265   0.681   3.488   3.779
 1081SOL    HW2 3266   0.632   3.389   3.899
 1082SOL     OW 3267   1.841   2.037   4.687
 1082SOL    HW1 3268   1.880   1.952   4.651
 1082SOL    HW2 3269   1.743   2.039   4.668
 1083SOL     OW 3270   0.263   2.188   4.444
 1083SOL    HW1 3271   0.184   2.239   4.410
 1083SOL    HW2 3272   0.254   2.173   4.542
 1084SOL     OW 3273   1.194   3.474   3.755
 1084SOL    HW1 3274   1.200   3.381   3.792
 1084SOL    HW2 3275   1.135   3.474   3.675
 1085SOL     OW 3276   0.916   2.772   4.015
 1085SOL    HW1 3277   0.979   2.810   3.947
 1085SOL    HW2 3278   0.956   2.689   4.054
 1086SOL     OW 3279   1.504   3.469   3.768
 1086SOL    HW1 3280   1.412   3.506   3.775
 1086SOL    HW2 3281   1.542   3.489   3.678
 1087SOL     OW 3282   1.039   2.960   4.420
 1087SOL    HW1 3283   0.969   2.913   4.474
 1087SOL    HW2 3284   1.098   2.892   4.377
 1088SOL     OW 3285   1.014   2.098   4.695
 1088SOL    HW1 3286   1.006   2.062   4.602
 1088SOL    HW2 3287   1.012   2.022   4.760
 1089SOL     OW 3288   0.590   3.349   4.215
 1089SOL    HW1 3289   0.632   3.291   4.145
 1089SOL    HW2 3290   0.546   3.428   4.171
 1090SOL     OW 3291   0.255   3.210   4.014
 1090SOL    HW1 3292   0.159   3.211   3.987
 1090SOL    HW2 3293   0.267   3.263   4.098
 1091SOL     OW 3294   0.075   2.207   3.757
 1091SOL    HW1 3295  -0.017   2.179   3.728
 1091SOL    HW2 3296   0.106   2.284   3.701
 1092SOL     OW 3297   0.072   2.028   4.042
 1092SOL    HW1 3298   0.055   2.111   3.988
 1092SOL    HW2 3299   0.162   1.991   4.020
 1093SOL     OW 3300   1.183   3.197   3.843
 1093SOL    HW1 3301   1.084   3.186   3.845
 1093SOL    HW2 3302   1.217   3.212   3.936
 1094SOL     OW 3303   1.493   3.629   4.683
 1094SOL    HW1 3304   1.526   3.693   4.614
 1094SOL    HW2 3305   1.559   3.623   4.758
 1095SOL     OW 3306   1.674   2.745   4.978
 1095SOL    HW1 3307   1.647   2.656   4.941
 1095SOL    HW2 3308   1.675   2.813   4.905
 1096SOL     OW 3309   1.225   2.187   4.173
 1096SOL    HW1 3310   1.290   2.113   4.162
 1096SOL    HW2 3311   1.245   2.237   4.257
 1097SOL     OW 3312   0.594   2.607   4.376
 1097SOL    HW1 3313   0.644   2.692   4.357
 1097SOL    HW2 3314   0.506   2.609   4.328
 1098SOL     OW 3315   0.859   3.236   3.740
 1098SOL    HW1 3316   0.813   3.251   3.828
 1098SOL    HW2 3317   0.903   3.321   3.710
 1099SOL     OW 3318   0.661   3.652   4.677
 1099SOL    HW1 3319   0.615   3.740   4.664
 1099SOL    HW2 3320   0.760   3.664   4.670
 1100SOL     OW 3321   0.859   2.818   4.585
 1100SOL    HW1 3322   0.913   2.749   4.633
 1100SOL    HW2 3323   0.827   2.887   4.651
 1101SOL     OW 3324   1.083   2.846   3.811
 1101SOL    HW1 3325   1.060   2.899   3.729
 1101SOL    HW2 3326   1.164   2.790   3.792
 1102SOL     OW 3327   1.861   3.431   4.575
 1102SOL    HW1 3328   1.790   3.419   4.505
 1102SOL    HW2 3329   1.862   3.352   4.635
 1103SOL     OW 3330   0.079   3.102   4.377
 1103SOL    HW1 3331   0.078   3.055   4.465
 1103SOL    HW2 3332   0.161   3.074   4.326
 1104SOL     OW 3333   1.824   2.054   4.951
 1104SOL    HW1 3334   1.820   1.964   4.995
 1104SOL    HW2 3335   1.827   2.043   4.852
 1105SOL     OW 3336   0.428   2.286   4.244
 1105SOL    HW1 3337   0.458   2.214   4.182
 1105SOL    HW2 3338   0.389   2.246   4.327
 1106SOL     OW 3339   0.812   3.448   4.411
 1106SOL    HW1 3340   0.844   3.458   4.317
 1106SOL    HW2 3341   0.733   3.386   4.413
 1107SOL     OW 3342   1.424   2.076   4.836
 1107SOL    HW1 3343   1.476   2.011   4.891
 1107SOL    HW2 3344   1.375   2.139   4.897
 1108SOL     OW 3345   0.770   3.192   4.025
 1108SOL    HW1 3346   0.724   3.105   4.042
 1108SOL    HW2 3347   0.861   3.189   4.066
 1109SOL     OW 3348   1.352   1.914   3.892
 1109SOL    HW1 3349   1.387   1.873   3.808
 1109SOL    HW2 3350   1.262   1.876   3.912
 1110SOL     OW 3351   1.300   2.315   4.415
 1110SOL    HW1 3352   1.241   2.395   4.419
 1110SOL    HW2 3353   1.315   2.280   4.508
 1111SOL     OW 3354   1.593   2.083   4.606
 1111SOL    HW1 3355   1.509   2.082   4.660
 1111SOL    HW2 3356   1.595   2.166   4.550
 1112SOL     OW 3357   0.039   2.939   4.024
 1112SOL    HW1 3358   0.138   2.928   4.015
 1112SOL    HW2 3359  -0.001   2.853   4.056
 1113SOL     OW 3360   0.875   3.508   4.061
 1113SOL    HW1 3361   0.798   3.473   4.007
 1113SOL    HW2 3362   0.843   3.579   4.123
 1114SOL     OW 3363   0.230   4.352   0.113
 1114SOL    HW1 3364   0.137   4.350   0.150
 1114SOL    HW2 3365   0.231   4.313   0.021
 1115SOL     OW 3366   0.225   3.999   0.996
 1115SOL    HW1 3367   0.260   3.982   1.088
 1115SOL    HW2 3368   0.137   3.954   0.984
 1116SOL     OW 3369   0.019   4.092   0.647
 1116SOL    HW1 3370  -0.063   4.135   0.686
 1116SOL    HW2 3371  -0.009   4.019   0.584
 1117SOL     OW 3372   1.135   4.427   0.717
 1117SOL    HW1 3373   1.192   4.505   0.692
 1117SOL    HW2 3374   1.075   4.453   0.793
 1118SOL     OW 3375   1.755   4.331   0.231
 1118SOL    HW1 3376   1.743   4.318   0.132
 1118SOL    HW2 3377   1.725   4.250   0.280
 1119SOL     OW 3378   0.768   4.868   1.023
 1119SOL    HW1 3379   0.690   4.885   1.083
 1119SOL    HW2 3380   0.802   4.955   0.987
 1120SOL     OW 3381   0.850   4.522   1.823
 1120SOL    HW1 3382   0.846   4.598   1.888
 1120SOL    HW2 3383   0.872   4.558   1.732
 1121SOL     OW 3384   0.685   4.736   0.665
 1121SOL    HW1 3385   0.754   4.720   0.735
 1121SOL    HW2 3386   0.612   4.793   0.703
 1122SOL     OW 3387   0.438   4.116   1.499
 1122SOL    HW1 3388   0.520   4.060   1.508
 1122SOL    HW2 3389   0.357   4.058   1.503
 1123SOL     OW 3390   1.603   4.171   0.737
 1123SOL    HW1 3391   1.529   4.217   0.687
 1123SOL    HW2 3392   1.654   4.239   0.790
 1124SOL     OW 3393   0.230   5.158   0.538
 1124SOL    HW1 3394   0.204   5.254   0.538
 1124SOL    HW2 3395   0.159   5.104   0.583
 1125SOL     OW 3396   0.240   4.815   0.886
 1125SOL    HW1 3397   0.254   4.731   0.938
 1125SOL    HW2 3398   0.185   4.879   0.941
 1126SOL     OW 3399   0.606   4.688   0.123
 1126SOL    HW1 3400   0.613   4.772   0.069
 1126SOL    HW2 3401   0.652   4.701   0.211
 1127SOL     OW 3402   1.594   3.838   1.480
 1127SOL    HW1 3403   1.576   3.905   1.408
 1127SOL    HW2 3404   1.591   3.884   1.569
 1128SOL     OW 3405   0.122   4.367   0.563
 1128SOL    HW1 3406   0.077   4.279   0.580
 1128SOL    HW2 3407   0.121   4.421   0.647
 1129SOL     OW 3408   1.689   4.646   0.612
 1129SOL    HW1 3409   1.784   4.617   0.620
 1129SOL    HW2 3410   1.681   4.711   0.537
 1130SOL     OW 3411   0.113   4.461   1.597
 1130SOL    HW1 3412   0.201   4.448   1.642
 1130SOL    HW2 3413   0.100   4.558   1.575
 1131SOL     OW 3414   1.293   4.952   1.423
 1131SOL    HW1 3415   1.330   4.879   1.365
 1131SOL    HW2 3416   1.345   4.957   1.508
 1132SOL     OW 3417   0.809   3.728   0.502
 1132SOL    HW1 3418   0.849   3.819   0.493
 1132SOL    HW2 3419   0.709   3.736   0.508
 1133SOL     OW 3420   0.197   4.700   1.264
 1133SOL    HW1 3421   0.286   4.655   1.250
 1133SOL    HW2 3422   0.124   4.635   1.245
 1134SOL     OW 3423   1.525   4.723   0.190
 1134SOL    HW1 3424   1.462   4.647   0.203
 1134SOL    HW2 3425   1.573   4.741   0.276
 1135SOL     OW 3426   0.317   3.975   1.801
 1135SOL    HW1 3427   0.388   4.046   1.807
 1135SOL    HW2 3428   0.229   4.014   1.829
 1136SOL     OW 3429   0.598   4.453   0.270
 1136SOL    HW1 3430   0.622   4.522   0.202
 1136SOL    HW2 3431   0.520   4.486   0.324
 1137SOL     OW 3432   1.281   4.069   0.944
 1137SOL    HW1 3433   1.195   4.019   0.931
 1137SOL    HW2 3434   1.343   4.015   1.000
 1138SOL     OW 3435   0.807   4.329   1.465
 1138SOL    HW1 3436   0.760   4.326   1.554
 1138SOL    HW2 3437   0.756   4.274   1.399
 1139SOL     OW 3438   1.394   4.193   1.674
 1139SOL    HW1 3439   1.374   4.236   1.762
 1139SOL    HW2 3440   1.472   4.131   1.683
 1140SOL     OW 3441   0.973   4.614   1.572
 1140SOL    HW1 3442   1.019   4.530   1.543
 1140SOL    HW2 3443   0.917   4.648   1.497
 1141SOL     OW 3444   0.991   4.134   1.242
 1141SOL    HW1 3445   0.914   4.168   1.296
 1141SOL    HW2 3446   0.957   4.083   1.163
 1142SOL     OW 3447   1.041   4.425   0.429
 1142SOL    HW1 3448   1.067   4.421   0.525
 1142SOL    HW2 3449   0.956   4.374   0.415
 1143SOL     OW 3450   0.076   4.535   0.789
 1143SOL    HW1 3451   0.175   4.523   0.798
 1143SOL    HW2 3452   0.052   4.630   0.810
 1144SOL     OW 3453   0.865   4.072   0.195
 1144SOL    HW1 3454   0.924   4.135   0.146
 1144SOL    HW2 3455   0.884   3.978   0.166
 1145SOL     OW 3456   1.719   4.309   1.831
 1145SOL    HW1 3457   1.693   4.398   1.795
 1145SOL    HW2 3458   1.717   4.241   1.758
 1146SOL     OW 3459   0.550   3.920   0.885
 1146SOL    HW1 3460   0.545   3.915   0.985
 1146SOL    HW2 3461   0.552   4.016   0.856
 1147SOL     OW 3462   1.795   4.790   0.873
 1147SOL    HW1 3463   1.733   4.775   0.797
 1147SOL    HW2 3464   1.743   4.801   0.958
 1148SOL     OW 3465   0.321   4.667   0.242
 1148SOL    HW1 3466   0.403   4.706   0.200
 1148SOL    HW2 3467   0.294   4.585   0.193
 1149SOL     OW 3468   1.458   4.459   0.728
 1149SOL    HW1 3469   1.453   4.394   0.803
 1149SOL    HW2 3470   1.538   4.518   0.741
 1150SOL     OW 3471   0.202   4.009   1.498
 1150SOL    HW1 3472   0.122   4.069   1.485
 1150SOL    HW2 3473   0.192   3.960   1.584
 1151SOL     OW 3474   1.400   3.831   0.426
 1151SOL    HW1 3475   1.376   3.794   0.336
 1151SOL    HW2 3476   1.499   3.847   0.430
 1152SOL     OW 3477   0.382   4.424   0.480
 1152SOL    HW1 3478   0.427   4.334   0.477
 1152SOL    HW2 3479   0.288   4.413   0.513
 1153SOL     OW 3480   1.547   3.946   1.729
 1153SOL    HW1 3481   1.542   3.983   1.821
 1153SOL    HW2 3482   1.475   3.877   1.717
 1154SOL     OW 3483   0.614   3.846   0.117
 1154SOL    HW1 3484   0.712   3.824   0.124
 1154SOL    HW2 3485   0.583   3.829   0.024
 1155SOL     OW 3486   0.781   3.988   1.749
 1155SOL    HW1 3487   0.848   3.927   1.792
 1155SOL    HW2 3488   0.708   4.007   1.814
 1156SOL     OW 3489   1.351   4.314   1.433
 1156SOL    HW1 3490   1.379   4.271   1.518
 1156SOL    HW2 3491   1.376   4.410   1.434
 1157SOL     OW 3492   0.922   4.227   0.899
 1157SOL    HW1 3493   0.897   4.218   0.803
 1157SOL    HW2 3494   0.970   4.145   0.930
 1158SOL     OW 3495   0.539   3.788   0.512
 1158SOL    HW1 3496   0.458   3.789   0.570
 1158SOL    HW2 3497   0.542   3.871   0.457
 1159SOL     OW 3498   0.935   3.960   0.480
 1159SOL    HW1 3499   0.887   4.001   0.402
 1159SOL    HW2 3500   1.034   3.958   0.461
 1160SOL     OW 3501   1.076   4.407   1.464
 1160SOL    HW1 3502   0.996   4.346   1.467
 1160SOL    HW2 3503   1.157   4.354   1.440
 1161SOL     OW 3504   0.459   4.876   0.741
 1161SOL    HW1 3505   0.388   4.849   0.806
 1161SOL    HW2 3506   0.433   4.848   0.648
 1162SOL     OW 3507   1.032   4.273   0.016
 1162SOL    HW1 3508   0.991   4.355  -0.023
 1162SOL    HW2 3509   1.096   4.299   0.089
 1163SOL     OW 3510   0.078   4.280   1.386
 1163SOL    HW1 3511   0.170   4.279   1.345
 1163SOL    HW2 3512   0.072   4.354   1.453
 1164SOL     OW 3513   0.561   3.946   1.147
 1164SOL    HW1 3514   0.599   3.862   1.184
 1164SOL    HW2 3515   0.473   3.965   1.191
 1165SOL     OW 3516   0.866   4.178   0.642
 1165SOL    HW1 3517   0.834   4.250   0.580
 1165SOL    HW2 3518   0.890   4.097   0.589
 1166SOL     OW 3519   1.017   3.763   0.753
 1166SOL    HW1 3520   0.945   3.768   0.684
 1166SOL    HW2 3521   0.993   3.694   0.822
 1167SOL     OW 3522   1.429   4.897   0.867
 1167SOL    HW1 3523   1.374   4.813   0.860
 1167SOL    HW2 3524   1.455   4.926   0.775
 1168SOL     OW 3525   1.466   4.314   0.992
 1168SOL    HW1 3526   1.436   4.219   0.999
 1168SOL    HW2 3527   1.539   4.330   1.058
 1169SOL     OW 3528   1.857   4.557   0.377
 1169SOL    HW1 3529   1.899   4.493   0.441
 1169SOL    HW2 3530   1.819   4.506   0.299
 1170SOL     OW 3531   1.390   4.299   0.078
 1170SOL    HW1 3532   1.336   4.278   0.159
 1170SOL    HW2 3533   1.481   4.258   0.087
 1171SOL     OW 3534   0.527   3.980   0.328
 1171SOL    HW1 3535   0.554   3.921   0.253
 1171SOL    HW2 3536   0.527   4.075   0.297
 1172SOL     OW 3537   1.754   4.947   1.588
 1172SOL    HW1 3538   1.845   4.908   1.575
 1172SOL    HW2 3539   1.762   5.043   1.612
 1173SOL     OW 3540   1.638   4.823   1.079
 1173SOL    HW1 3541   1.643   4.904   1.138
 1173SOL    HW2 3542   1.552   4.825   1.028
 1174SOL     OW 3543   0.915   3.813   1.402
 1174SOL    HW1 3544   0.940   3.793   1.307
 1174SOL    HW2 3545   0.987   3.869   1.444
 1175SOL     OW 3546   0.705   4.774   0.368
 1175SOL    HW1 3547   0.691   4.781   0.467
 1175SOL    HW2 3548   0.789   4.723   0.350
 1176SOL     OW 3549   0.410   4.537   1.251
 1176SOL    HW1 3550   0.496   4.549   1.301
 1176SOL    HW2 3551   0.368   4.450   1.278
 1177SOL     OW 3552   1.274   4.110   1.262
 1177SOL    HW1 3553   1.295   4.184   1.326
 1177SOL    HW2 3554   1.185   4.127   1.219
 1178SOL     OW 3555   0.367   4.824   0.501
 1178SOL    HW1 3556   0.360   4.907   0.445
 1178SOL    HW2 3557   0.371   4.744   0.441
 1179SOL     OW 3558   0.566   4.261   0.865
 1179SOL    HW1 3559   0.578   4.327   0.791
 1179SOL    HW2 3560   0.612   4.295   0.948
 1180SOL     OW 3561   1.582   4.363   0.472
 1180SOL    HW1 3562   1.551   4.424   0.545
 1180SOL    HW2 3563   1.632   4.415   0.403
 1181SOL     OW 3564   0.402   4.475   1.598
 1181SOL    HW1 3565   0.470   4.530   1.551
 1181SOL    HW2 3566   0.442   4.387   1.625
 1182SOL     OW 3567   1.587   4.503   1.670
 1182SOL    HW1 3568   1.495   4.541   1.665
 1182SOL    HW2 3569   1.647   4.550   1.605
 1183SOL     OW 3570   1.013   3.829   1.770
 1183SOL    HW1 3571   1.019   3.914   1.718
 1183SOL    HW2 3572   1.045   3.753   1.713
 1184SOL     OW 3573   0.504   3.774   1.740
 1184SOL    HW1 3574   0.462   3.717   1.670
 1184SOL    HW2 3575   0.438   3.843   1.772
 1185SOL     OW 3576   0.573   4.594   1.029
 1185SOL    HW1 3577   0.617   4.683   1.020
 1185SOL    HW2 3578   0.510   4.594   1.106
 1186SOL     OW 3579   1.360   4.586   1.045
 1186SOL    HW1 3580   1.285   4.586   0.979
 1186SOL    HW2 3581   1.397   4.494   1.054
 1187SOL     OW 3582   1.209   4.249   0.275
 1187SOL    HW1 3583   1.222   4.165   0.329
 1187SOL    HW2 3584   1.180   4.323   0.335
 1188SOL     OW 3585   0.307   3.937   1.231
 1188SOL    HW1 3586   0.284   3.974   1.321
 1188SOL    HW2 3587   0.277   3.842   1.225
 1189SOL     OW 3588   0.037   5.034   1.282
 1189SOL    HW1 3589   0.090   4.985   1.350
 1189SOL    HW2 3590   0.059   5.132   1.287
 1190SOL     OW 3591   0.732   4.358   1.064
 1190SOL    HW1 3592   0.791   4.332   0.988
 1190SOL    HW2 3593   0.704   4.454   1.053
 1191SOL     OW 3594   1.728   4.659   1.854
 1191SOL    HW1 3595   1.682   4.652   1.765
 1191SOL    HW2 3596   1.666   4.703   1.920
 1192SOL     OW 3597   0.307   3.787   0.618
 1192SOL    HW1 3598   0.296   3.881   0.651
 1192SOL    HW2 3599   0.302   3.724   0.695
 1193SOL     OW 3600   1.622   4.091   0.374
 1193SOL    HW1 3601   1.624   4.015   0.438
 1193SOL    HW2 3602   1.574   4.168   0.414
 1194SOL     OW 3603   1.023   4.490   0.966
 1194SOL    HW1 3604   1.038   4.511   1.062
 1194SOL    HW2 3605   0.993   4.395   0.957
 1195SOL     OW 3606   0.350   4.622   1.804
 1195SOL    HW1 3607   0.426   4.666   1.852
 1195SOL    HW2 3608   0.385   4.575   1.722
 1196SOL     OW 3609   1.540   3.998   0.125
 1196SOL    HW1 3610   1.479   3.923   0.148
 1196SOL    HW2 3611   1.562   4.050   0.208
 1197SOL     OW 3612   1.303   4.562   0.042
 1197SOL    HW1 3613   1.337   4.469   0.057
 1197SOL    HW2 3614   1.321   4.589  -0.053
 1198SOL     OW 3615   0.319   4.534   0.949
 1198SOL    HW1 3616   0.412   4.570   0.954
 1198SOL    HW2 3617   0.313   4.449   1.001
 1199SOL     OW 3618   0.339   4.233   1.006
 1199SOL    HW1 3619   0.287   4.150   0.989
 1199SOL    HW2 3620   0.416   4.238   0.942
 1200SOL     OW 3621   1.138   4.104   1.678
 1200SOL    HW1 3622   1.093   4.167   1.742
 1200SOL    HW2 3623   1.231   4.135   1.661
 1201SOL     OW 3624   1.160   3.931   1.477
 1201SOL    HW1 3625   1.160   3.995   1.554
 1201SOL    HW2 3626   1.188   3.979   1.394
 1202SOL     OW 3627   1.002   4.520   1.238
 1202SOL    HW1 3628   1.043   4.488   1.324
 1202SOL    HW2 3629   0.906   4.493   1.235
 1203SOL     OW 3630   0.040   4.268   1.114
 1203SOL    HW1 3631   0.125   4.235   1.073
 1203SOL    HW2 3632   0.053   4.283   1.212
 1204SOL     OW 3633   0.189   4.244   1.722
 1204SOL    HW1 3634   0.248   4.204   1.652
 1204SOL    HW2 3635   0.131   4.315   1.681
 1205SOL     OW 3636   1.369   4.674   1.660
 1205SOL    HW1 3637   1.408   4.763   1.680
 1205SOL    HW2 3638   1.379   4.654   1.563
 1206SOL     OW 3639   0.815   4.296   0.325
 1206SOL    HW1 3640   0.822   4.207   0.279
 1206SOL    HW2 3641   0.721   4.330   0.317
 1207SOL     OW 3642   1.657   4.328   1.206
 1207SOL    HW1 3643   1.619   4.259   1.268
 1207SOL    HW2 3644   1.739   4.292   1.162
 1208SOL     OW 3645   0.671   4.188   1.269
 1208SOL    HW1 3646   0.637   4.099   1.239
 1208SOL    HW2 3647   0.697   4.242   1.189
 1209SOL     OW 3648   0.473   4.224   0.191
 1209SOL    HW1 3649   0.534   4.304   0.195
 1209SOL    HW2 3650   0.378   4.255   0.198
 1210SOL     OW 3651   0.159   4.861   1.466
 1210SOL    HW1 3652   0.181   4.800   1.542
 1210SOL    HW2 3653   0.169   4.812   1.380
 1211SOL     OW 3654   1.347   4.783   1.234
 1211SOL    HW1 3655   1.371   4.720   1.160
 1211SOL    HW2 3656   1.257   4.823   1.216
 1212SOL     OW 3657   1.302   4.579   0.309
 1212SOL    HW1 3658   1.216   4.548   0.351
 1212SOL    HW2 3659   1.298   4.565   0.210
 1213SOL     OW 3660   0.083   4.982   1.022
 1213SOL    HW1 3661   0.078   4.981   1.122
 1213SOL    HW2 3662   0.000   4.941   0.984
 1214SOL     OW 3663   0.903   3.810   0.133
 1214SOL    HW1 3664   0.954   3.811   0.047
 1214SOL    HW2 3665   0.959   3.768   0.204
 1215SOL     OW 3666   1.726   3.859   0.523
 1215SOL    HW1 3667   1.799   3.842   0.456
 1215SOL    HW2 3668   1.695   3.772   0.561
 1216SOL     OW 3669   1.280   4.651   0.672
 1216SOL    HW1 3670   1.340   4.570   0.674
 1216SOL    HW2 3671   1.320   4.720   0.612
 1217SOL     OW 3672   1.841   3.899   0.963
 1217SOL    HW1 3673   1.880   3.814   0.927
 1217SOL    HW2 3674   1.743   3.901   0.944
 1218SOL     OW 3675   0.263   4.050   0.720
 1218SOL    HW1 3676   0.184   4.101   0.686
 1218SOL    HW2 3677   0.254   4.035   0.818
 1219SOL     OW 3678   0.822   4.726   1.372
 1219SOL    HW1 3679   0.862   4.725   1.280
 1219SOL    HW2 3680   0.832   4.818   1.412
 1220SOL     OW 3681   0.916   4.634   0.291
 1220SOL    HW1 3682   0.979   4.672   0.223
 1220SOL    HW2 3683   0.956   4.551   0.330
 1221SOL     OW 3684   0.372   5.012   1.490
 1221SOL    HW1 3685   0.359   5.105   1.456
 1221SOL    HW2 3686   0.288   4.960   1.477
 1222SOL     OW 3687   1.014   3.960   0.971
 1222SOL    HW1 3688   1.006   3.924   0.878
 1222SOL    HW2 3689   1.012   3.884   1.036
 1223SOL     OW 3690   1.709   4.109   1.381
 1223SOL    HW1 3691   1.782   4.178   1.385
 1223SOL    HW2 3692   1.737   4.034   1.322
 1224SOL     OW 3693   0.105   4.737   1.726
 1224SOL    HW1 3694   0.028   4.704   1.780
 1224SOL    HW2 3695   0.190   4.707   1.768
 1225SOL     OW 3696   0.672   3.927   1.489
 1225SOL    HW1 3697   0.762   3.911   1.449
 1225SOL    HW2 3698   0.680   3.932   1.588
 1226SOL     OW 3699   0.075   4.069   0.033
 1226SOL    HW1 3700  -0.017   4.041   0.004
 1226SOL    HW2 3701   0.106   4.146  -0.023
 1227SOL     OW 3702   1.440   4.580   1.398
 1227SOL    HW1 3703   1.383   4.632   1.335
 1227SOL    HW2 3704   1.536   4.592   1.374
 1228SOL     OW 3705   0.072   3.890   0.318
 1228SOL    HW1 3706   0.055   3.973   0.264
 1228SOL    HW2 3707   0.162   3.853   0.296
 1229SOL     OW 3708   1.183   5.059   0.119
 1229SOL    HW1 3709   1.084   5.048   0.121
 1229SOL    HW2 3710   1.217   5.074   0.212
 1230SOL     OW 3711   0.613   4.566   1.431
 1230SOL    HW1 3712   0.669   4.647   1.414
 1230SOL    HW2 3713   0.672   4.486   1.434
 1231SOL     OW 3714   0.716   4.289   1.708
 1231SOL    HW1 3715   0.735   4.354   1.782
 1231SOL    HW2 3716   0.776   4.209   1.717
 1232SOL     OW 3717   1.674   4.607   1.254
 1232SOL    HW1 3718   1.647   4.518   1.217
 1232SOL    HW2 3719   1.675   4.675   1.181
 1233SOL     OW 3720   1.225   4.049   0.449
 1233SOL    HW1 3721   1.290   3.975   0.438
 1233SOL    HW2 3722   1.245   4.099   0.533
 1234SOL     OW 3723   0.594   4.469   0.652
 1234SOL    HW1 3724   0.644   4.554   0.633
 1234SOL    HW2 3725   0.506   4.471   0.604
 1235SOL     OW 3726   1.777   4.066   1.642
 1235SOL    HW1 3727   1.760   4.097   1.548
 1235SOL    HW2 3728   1.693   4.029   1.680
 1236SOL     OW 3729   1.730   4.658   1.517
 1236SOL    HW1 3730   1.768   4.749   1.532
 1236SOL    HW2 3731   1.722   4.641   1.418
 1237SOL     OW 3732   0.859   4.680   0.861
 1237SOL    HW1 3733   0.913   4.611   0.909
 1237SOL    HW2 3734   0.827   4.749   0.927
 1238SOL     OW 3735   1.083   4.708   0.087
 1238SOL    HW1 3736   1.060   4.761   0.005
 1238SOL    HW2 3737   1.164   4.652   0.068
 1239SOL     OW 3738   1.824   3.916   1.227
 1239SOL    HW1 3739   1.820   3.826   1.271
 1239SOL    HW2 3740   1.827   3.905   1.128
 1240SOL     OW 3741   0.428   4.148   0.520
 1240SOL    HW1 3742   0.458   4.076   0.458
 1240SOL    HW2 3743   0.389   4.108   0.603
 1241SOL     OW 3744   0.317   4.271   1.280
 1241SOL    HW1 3745   0.355   4.212   1.352
 1241SOL    HW2 3746   0.357   4.245   1.192
 1242SOL     OW 3747   1.424   3.938   1.112
 1242SOL    HW1 3748   1.476   3.873   1.167
 1242SOL    HW2 3749   1.375   4.001   1.173
 1243SOL     OW 3750   1.001   3.758   1.154
 1243SOL    HW1 3751   0.938   3.686   1.123
 1243SOL    HW2 3752   1.094   3.722   1.154
 1244SOL     OW 3753   0.770   5.054   0.301
 1244SOL    HW1 3754   0.724   4.967   0.318
 1244SOL    HW2 3755   0.861   5.051   0.342
 1245SOL     OW 3756   1.352   3.776   0.168
 1245SOL    HW1 3757   1.387   3.735   0.084
 1245SOL    HW2 3758   1.262   3.738   0.188
 1246SOL     OW 3759   1.300   4.177   0.691
 1246SOL    HW1 3760   1.241   4.257   0.695
 1246SOL    HW2 3761   1.315   4.142   0.784
 1247SOL     OW 3762   1.593   3.945   0.882
 1247SOL    HW1 3763   1.509   3.944   0.936
 1247SOL    HW2 3764   1.595   4.028   0.826
 1248SOL     OW 3765   0.039   4.801   0.300
 1248SOL    HW1 3766   0.138   4.790   0.291
 1248SOL    HW2 3767  -0.001   4.715   0.332
 1249SOL     OW 3768   0.230   4.352   1.975
 1249SOL    HW1 3769   0.137   4.350   2.012
 1249SOL    HW2 3770   0.231   4.313   1.883
 1250SOL     OW 3771   0.225   3.999   2.858
 1250SOL    HW1 3772   0.260   3.982   2.950
 1250SOL    HW2 3773   0.137   3.954   2.846
 1251SOL     OW 3774   0.019   4.092   2.509
 1251SOL    HW1 3775  -0.063   4.135   2.548
 1251SOL    HW2 3776  -0.009   4.019   2.446
 1252SOL     OW 3777   1.135   4.427   2.579
 1252SOL    HW1 3778   1.192   4.505   2.554
 1252SOL    HW2 3779   1.075   4.453   2.655
 1253SOL     OW 3780   1.755   4.331   2.093
 1253SOL    HW1 3781   1.743   4.318   1.994
 1253SOL    HW2 3782   1.725   4.250   2.142
 1254SOL     OW 3783   0.768   4.868   2.885
 1254SOL    HW1 3784   0.690   4.885   2.945
 1254SOL    HW2 3785   0.802   4.955   2.849
 1255SOL     OW 3786   0.850   4.522   3.685
 1255SOL    HW1 3787   0.846   4.598   3.750
 1255SOL    HW2 3788   0.872   4.558   3.594
 1256SOL     OW 3789   0.685   4.736   2.527
 1256SOL    HW1 3790   0.754   4.720   2.597
 1256SOL    HW2 3791   0.612   4.793   2.565
 1257SOL     OW 3792   0.438   4.116   3.361
 1257SOL    HW1 3793   0.520   4.060   3.370
 1257SOL    HW2 3794   0.357   4.058   3.365
 1258SOL     OW 3795   1.603   4.171   2.599
 1258SOL    HW1 3796   1.529   4.217   2.549
 1258SOL    HW2 3797   1.654   4.239   2.652
 1259SOL     OW 3798   0.230   5.158   2.400
 1259SOL    HW1 3799   0.204   5.254   2.400
 1259SOL    HW2 3800   0.159   5.104   2.445
 1260SOL     OW 3801   0.240   4.815   2.748
 1260SOL    HW1 3802   0.254   4.731   2.800
 1260SOL    HW2 3803   0.185   4.879   2.803
 1261SOL     OW 3804   0.606   4.688   1.985
 1261SOL    HW1 3805   0.613   4.772   1.931
 1261SOL    HW2 3806   0.652   4.701   2.073
 1262SOL     OW 3807   1.594   3.838   3.342
 1262SOL    HW1 3808   1.576   3.905   3.270
 1262SOL    HW2 3809   1.591   3.884   3.431
 1263SOL     OW 3810   0.122   4.367   2.425
 1263SOL    HW1 3811   0.077   4.279   2.442
 1263SOL    HW2 3812   0.121   4.421   2.509
 1264SOL     OW 3813   1.689   4.646   2.474
 1264SOL    HW1 3814   1.784   4.617   2.482
 1264SOL    HW2 3815   1.681   4.711   2.399
 1265SOL     OW 3816   0.113   4.461   3.459
 1265SOL    HW1 3817   0.201   4.448   3.504
 1265SOL    HW2 3818   0.100   4.558   3.437
 1266SOL     OW 3819   1.293   4.952   3.285
 1266SOL    HW1 3820   1.330   4.879   3.227
 1266SOL    HW2 3821   1.345   4.957   3.370
 1267SOL     OW 3822   0.809   3.728   2.364
 1267SOL    HW1 3823   0.849   3.819   2.355
 1267SOL    HW2 3824   0.709   3.736   2.370
 1268SOL     OW 3825   0.197   4.700   3.126
 1268SOL    HW1 3826   0.286   4.655   3.112
 1268SOL    HW2 3827   0.124   4.635   3.107
 1269SOL     OW 3828   1.525   4.723   2.052
 1269SOL    HW1 3829   1.462   4.647   2.065
 1269SOL    HW2 3830   1.573   4.741   2.138
 1270SOL     OW 3831   0.317   3.975   3.663
 1270SOL    HW1 3832   0.388   4.046   3.669
 1270SOL    HW2 3833   0.229   4.014   3.691
 1271SOL     OW 3834   0.598   4.453   2.132
 1271SOL    HW1 3835   0.622   4.522   2.064
 1271SOL    HW2 3836   0.520   4.486   2.186
 1272SOL     OW 3837   1.281   4.069   2.806
 1272SOL    HW1 3838   1.195   4.019   2.793
 1272SOL    HW2 3839   1.343   4.015   2.862
 1273SOL     OW 3840   0.807   4.329   3.327
 1273SOL    HW1 3841   0.760   4.326   3.416
 1273SOL    HW2 3842   0.756   4.274   3.261
 1274SOL     OW 3843   1.394   4.193   3.536
 1274SOL    HW1 3844   1.374   4.236   3.624
 1274SOL    HW2 3845   1.472   4.131   3.545
 1275SOL     OW 3846   0.973   4.614   3.434
 1275SOL    HW1 3847   1.019   4.530   3.405
 1275SOL    HW2 3848   0.917   4.648   3.359
 1276SOL     OW 3849   0.991   4.134   3.104
 1276SOL    HW1 3850   0.914   4.168   3.158
 1276SOL    HW2 3851   0.957   4.083   3.025
 1277SOL     OW 3852   1.041   4.425   2.291
 1277SOL    HW1 3853   1.067   4.421   2.387
 1277SOL    HW2 3854   0.956   4.374   2.277
 1278SOL     OW 3855   0.076   4.535   2.651
 1278SOL    HW1 3856   0.175   4.523   2.660
 1278SOL    HW2 3857   0.052   4.630   2.672
 1279SOL     OW 3858   0.865   4.072   2.057
 1279SOL    HW1 3859   0.924   4.135   2.008
 1279SOL    HW2 3860   0.884   3.978   2.028
 1280SOL     OW 3861   1.719   4.309   3.693
 1280SOL    HW1 3862   1.693   4.398   3.657
 1280SOL    HW2 3863   1.717   4.241   3.620
 1281SOL     OW 3864   0.550   3.920   2.747
 1281SOL    HW1 3865   0.545   3.915   2.847
 1281SOL    HW2 3866   0.552   4.016   2.718
 1282SOL     OW 3867   1.795   4.790   2.735
 1282SOL    HW1 3868   1.733   4.775   2.659
 1282SOL    HW2 3869   1.743   4.801   2.820
 1283SOL     OW 3870   0.321   4.667   2.104
 1283SOL    HW1 3871   0.403   4.706   2.062
 1283SOL    HW2 3872   0.294   4.585   2.055
 1284SOL     OW 3873   1.458   4.459   2.590
 1284SOL    HW1 3874   1.453   4.394   2.665
 1284SOL    HW2 3875   1.538   4.518   2.603
 1285SOL     OW 3876   0.202   4.009   3.360
 1285SOL    HW1 3877   0.122   4.069   3.347
 1285SOL    HW2 3878   0.192   3.960   3.446
 1286SOL     OW 3879   1.400   3.831   2.288
 1286SOL    HW1 3880   1.376   3.794   2.198
 1286SOL    HW2 3881   1.499   3.847   2.292
 1287SOL     OW 3882   0.382   4.424   2.342
 1287SOL    HW1 3883   0.427   4.334   2.339
 1287SOL    HW2 3884   0.288   4.413   2.375
 1288SOL     OW 3885   1.547   3.946   3.591
 1288SOL    HW1 3886   1.542   3.983   3.683
 1288SOL    HW2 3887   1.475   3.877   3.579
 1289SOL     OW 3888   0.614   3.846   1.979
 1289SOL    HW1 3889   0.712   3.824   1.986
 1289SOL    HW2 3890   0.583   3.829   1.886
 1290SOL     OW 3891   0.781   3.988   3.611
 1290SOL    HW1 3892   0.848   3.927   3.654
 1290SOL    HW2 3893   0.708   4.007   3.676
 1291SOL     OW 3894   1.351   4.314   3.295
 1291SOL    HW1 3895   1.379   4.271   3.380
 1291SOL    HW2 3896   1.376   4.410   3.296
 1292SOL     OW 3897   0.922   4.227   2.761
 1292SOL    HW1 3898   0.897   4.218   2.665
 1292SOL    HW2 3899   0.970   4.145   2.792
 1293SOL     OW 3900   0.539   3.788   2.374
 1293SOL    HW1 3901   0.458   3.789   2.432
 1293SOL    HW2 3902   0.542   3.871   2.319
 1294SOL     OW 3903   0.297   3.759   2.033
 1294SOL    HW1 3904   0.346   3.843   2.012
 1294SOL    HW2 3905   0.359   3.694   2.078
 1295SOL     OW 3906   0.935   3.960   2.342
 1295SOL    HW1 3907   0.887   4.001   2.264
 1295SOL    HW2 3908   1.034   3.958   2.323
 1296SOL     OW 3909   1.076   4.407   3.326
 1296SOL    HW1 3910   0.996   4.346   3.329
 1296SOL    HW2 3911   1.157   4.354   3.302
 1297SOL     OW 3912   0.459   4.876   2.603
 1297SOL    HW1 3913   0.388   4.849   2.668
 1297SOL    HW2 3914   0.433   4.848   2.510
 1298SOL     OW 3915   1.032   4.273   1.878
 1298SOL    HW1 3916   0.991   4.355   1.839
 1298SOL    HW2 3917   1.096   4.299   1.951
 1299SOL     OW 3918   0.078   4.280   3.248
 1299SOL    HW1 3919   0.170   4.279   3.207
 1299SOL    HW2 3920   0.072   4.354   3.315
 1300SOL     OW 3921   0.561   3.946   3.009
 1300SOL    HW1 3922   0.599   3.862   3.046
 1300SOL    HW2 3923   0.473   3.965   3.053
 1301SOL     OW 3924   0.866   4.178   2.504
 1301SOL    HW1 3925   0.834   4.250   2.442
 1301SOL    HW2 3926   0.890   4.097   2.451
 1302SOL     OW 3927   1.017   3.763   2.615
 1302SOL    HW1 3928   0.945   3.768   2.546
 1302SOL    HW2 3929   0.993   3.694   2.684
 1303SOL     OW 3930   1.429   4.897   2.729
 1303SOL    HW1 3931   1.374   4.813   2.722
 1303SOL    HW2 3932   1.455   4.926   2.637
 1304SOL     OW 3933   1.466   4.314   2.854
 1304SOL    HW1 3934   1.436   4.219   2.861
 1304SOL    HW2 3935   1.539   4.330   2.920
 1305SOL     OW 3936   1.857   4.557   2.239
 1305SOL    HW1 3937   1.899   4.493   2.303
 1305SOL    HW2 3938   1.819   4.506   2.161
 1306SOL     OW 3939   1.390   4.299   1.940
 1306SOL    HW1 3940   1.336   4.278   2.021
 1306SOL    HW2 3941   1.481   4.258   1.949
 1307SOL     OW 3942   0.527   3.980   2.190
 1307SOL    HW1 3943   0.554   3.921   2.115
 1307SOL    HW2 3944   0.527   4.075   2.159
 1308SOL     OW 3945   1.754   4.947   3.450
 1308SOL    HW1 3946   1.845   4.908   3.437
 1308SOL    HW2 3947   1.762   5.043   3.474
 1309SOL     OW 3948   1.638   4.823   2.941
 1309SOL    HW1 3949   1.643   4.904   3.000
 1309SOL    HW2 3950   1.552   4.825   2.890
 1310SOL     OW 3951   0.915   3.813   3.264
 1310SOL    HW1 3952   0.940   3.793   3.169
 1310SOL    HW2 3953   0.987   3.869   3.306
 1311SOL     OW 3954   0.705   4.774   2.230
 1311SOL    HW1 3955   0.691   4.781   2.329
 1311SOL    HW2 3956   0.789   4.723   2.212
 1312SOL     OW 3957   0.410   4.537   3.113
 1312SOL    HW1 3958   0.496   4.549   3.163
 1312SOL    HW2 3959   0.368   4.450   3.140
 1313SOL     OW 3960   1.274   4.110   3.124
 1313SOL    HW1 3961   1.295   4.184   3.188
 1313SOL    HW2 3962   1.185   4.127   3.081
 1314SOL     OW 3963   0.367   4.824   2.363
 1314SOL    HW1 3964   0.360   4.907   2.307
 1314SOL    HW2 3965   0.371   4.744   2.303
 1315SOL     OW 3966   0.566   4.261   2.727
 1315SOL    HW1 3967   0.578   4.327   2.653
 1315SOL    HW2 3968   0.612   4.295   2.810
 1316SOL     OW 3969   1.582   4.363   2.334
 1316SOL    HW1 3970   1.551   4.424   2.407
 1316SOL    HW2 3971   1.632   4.415   2.265
 1317SOL     OW 3972   0.402   4.475   3.460
 1317SOL    HW1 3973   0.470   4.530   3.413
 1317SOL    HW2 3974   0.442   4.387   3.487
 1318SOL     OW 3975   1.587   4.503   3.532
 1318SOL    HW1 3976   1.495   4.541   3.527
 1318SOL    HW2 3977   1.647   4.550   3.467
 1319SOL     OW 3978   1.013   3.829   3.632
 1319SOL    HW1 3979   1.019   3.914   3.580
 1319SOL    HW2 3980   1.045   3.753   3.575
 1320SOL     OW 3981   0.504   3.774   3.602
 1320SOL    HW1 3982   0.462   3.717   3.532
 1320SOL    HW2 3983   0.438   3.843   3.634
 1321SOL     OW 3984   0.573   4.594   2.891
 1321SOL    HW1 3985   0.617   4.683   2.882
 1321SOL    HW2 3986   0.510   4.594   2.968
 1322SOL     OW 3987   1.360   4.586   2.907
 1322SOL    HW1 3988   1.285   4.586   2.841
 1322SOL    HW2 3989   1.397   4.494   2.916
 1323SOL     OW 3990   1.209   4.249   2.137
 1323SOL    HW1 3991   1.222   4.165   2.191
 1323SOL    HW2 3992   1.180   4.323   2.197
 1324SOL     OW 3993   0.307   3.937   3.093
 1324SOL    HW1 3994   0.284   3.974   3.183
 1324SOL    HW2 3995   0.277   3.842   3.087
 1325SOL     OW 3996   0.037   5.034   3.144
 1325SOL    HW1 3997   0.090   4.985   3.212
 1325SOL    HW2 3998   0.059   5.132   3.149
 1326SOL     OW 3999   0.732   4.358   2.926
 1326SOL    HW1 4000   0.791   4.332   2.850
 1326SOL    HW2 4001   0.704   4.454   2.915
 1327SOL     OW 4002   1.728   4.659   3.716
 1327SOL    HW1 4003   1.682   4.652   3.627
 1327SOL    HW2 4004   1.666   4.703   3.782
 1328SOL     OW 4005   0.307   3.787   2.480
 1328SOL    HW1 4006   0.296   3.881   2.513
 1328SOL    HW2 4007   0.302   3.724   2.557
 1329SOL     OW 4008   1.622   4.091   2.236
 1329SOL    HW1 4009   1.624   4.015   2.300
 1329SOL    HW2 4010   1.574   4.168   2.276
 1330SOL     OW 4011   1.023   4.490   2.828
 1330SOL    HW1 4012   1.038   4.511   2.924
 1330SOL    HW2 4013   0.993   4.395   2.819
 1331SOL     OW 4014   0.350   4.622   3.666
 1331SOL    HW1 4015   0.426   4.666   3.714
 1331SOL    HW2 4016   0.385   4.575   3.584
 1332SOL     OW 4017   1.540   3.998   1.987
 1332SOL    HW1 4018   1.479   3.923   2.010
 1332SOL    HW2 4019   1.562   4.050   2.070
 1333SOL     OW 4020   1.303   4.562   1.904
 1333SOL    HW1 4021   1.337   4.469   1.919
 1333SOL    HW2 4022   1.321   4.589   1.809
 1334SOL     OW 4023   0.319   4.534   2.811
 1334SOL    HW1 4024   0.412   4.570   2.816
 1334SOL    HW2 4025   0.313   4.449   2.863
 1335SOL     OW 4026   0.339   4.233   2.868
 1335SOL    HW1 4027   0.287   4.150   2.851
 1335SOL    HW2 4028   0.416   4.238   2.804
 1336SOL     OW 4029   1.138   4.104   3.540
 1336SOL    HW1 4030   1.093   4.167   3.604
 1336SOL    HW2 4031   1.231   4.135   3.523
 1337SOL     OW 4032   1.160   3.931   3.339
 1337SOL    HW1 4033   1.160   3.995   3.416
 1337SOL    HW2 4034   1.188   3.979   3.256
 1338SOL     OW 4035   1.002   4.520   3.100
 1338SOL    HW1 4036   1.043   4.488   3.186
 1338SOL    HW2 4037   0.906   4.493   3.097
 1339SOL     OW 4038   0.040   4.268   2.976
 1339SOL    HW1 4039   0.125   4.235   2.935
 1339SOL    HW2 4040   0.053   4.283   3.074
 1340SOL     OW 4041   0.189   4.244   3.584
 1340SOL    HW1 4042   0.248   4.204   3.514
 1340SOL    HW2 4043   0.131   4.315   3.543
 1341SOL     OW 4044   1.369   4.674   3.522
 1341SOL    HW1 4045   1.408   4.763   3.542
 1341SOL    HW2 4046   1.379   4.654   3.425
 1342SOL     OW 4047   0.815   4.296   2.187
 1342SOL    HW1 4048   0.822   4.207   2.141
 1342SOL    HW2 4049   0.721   4.330   2.179
 1343SOL     OW 4050   1.657   4.328   3.068
 1343SOL    HW1 4051   1.619   4.259   3.130
 1343SOL    HW2 4052   1.739   4.292   3.024
 1344SOL     OW 4053   0.671   4.188   3.131
 1344SOL    HW1 4054   0.637   4.099   3.101
 1344SOL    HW2 4055   0.697   4.242   3.051
 1345SOL     OW 4056   0.473   4.224   2.053
 1345SOL    HW1 4057   0.534   4.304   2.057
 1345SOL    HW2 4058   0.378   4.255   2.060
 1346SOL     OW 4059   0.159   4.861   3.328
 1346SOL    HW1 4060   0.181   4.800   3.404
 1346SOL    HW2 4061   0.169   4.812   3.242
 1347SOL     OW 4062   1.347   4.783   3.096
 1347SOL    HW1 4063   1.371   4.720   3.022
 1347SOL    HW2 4064   1.257   4.823   3.078
 1348SOL     OW 4065   1.302   4.579   2.171
 1348SOL    HW1 4066   1.216   4.548   2.213
 1348SOL    HW2 4067   1.298   4.565   2.072
 1349SOL     OW 4068   0.083   4.982   2.884
 1349SOL    HW1 4069   0.078   4.981   2.984
 1349SOL    HW2 4070   0.000   4.941   2.846
 1350SOL     OW 4071   1.726   3.859   2.385
 1350SOL    HW1 4072   1.799   3.842   2.318
 1350SOL    HW2 4073   1.695   3.772   2.423
 1351SOL     OW 4074   1.280   4.651   2.534
 1351SOL    HW1 4075   1.340   4.570   2.536
 1351SOL    HW2 4076   1.320   4.720   2.474
 1352SOL     OW 4077   1.841   3.899   2.825
 1352SOL    HW1 4078   1.880   3.814   2.789
 1352SOL    HW2 4079   1.743   3.901   2.806
 1353SOL     OW 4080   0.263   4.050   2.582
 1353SOL    HW1 4081   0.184   4.101   2.548
 1353SOL    HW2 4082   0.254   4.035   2.680
 1354SOL     OW 4083   0.822   4.726   3.234
 1354SOL    HW1 4084   0.862   4.725   3.142
 1354SOL    HW2 4085   0.832   4.818   3.274
 1355SOL     OW 4086   0.916   4.634   2.153
 1355SOL    HW1 4087   0.979   4.672   2.085
 1355SOL    HW2 4088   0.956   4.551   2.192
 1356SOL     OW 4089   0.372   5.012   3.352
 1356SOL    HW1 4090   0.359   5.105   3.318
 1356SOL    HW2 4091   0.288   4.960   3.339
 1357SOL     OW 4092   1.014   3.960   2.833
 1357SOL    HW1 4093   1.006   3.924   2.740
 1357SOL    HW2 4094   1.012   3.884   2.898
 1358SOL     OW 4095   1.709   4.109   3.243
 1358SOL    HW1 4096   1.782   4.178   3.247
 1358SOL    HW2 4097   1.737   4.034   3.184
 1359SOL     OW 4098   0.105   4.737   3.588
 1359SOL    HW1 4099   0.028   4.704   3.642
 1359SOL    HW2 4100   0.190   4.707   3.630
 1360SOL     OW 4101   0.672   3.927   3.351
 1360SOL    HW1 4102   0.762   3.911   3.311
 1360SOL    HW2 4103   0.680   3.932   3.450
 1361SOL     OW 4104   0.075   4.069   1.895
 1361SOL    HW1 4105  -0.017   4.041   1.866
 1361SOL    HW2 4106   0.106   4.146   1.839
 1362SOL     OW 4107   1.440   4.580   3.260
 1362SOL    HW1 4108   1.383   4.632   3.197
 1362SOL    HW2 4109   1.536   4.592   3.236
 1363SOL     OW 4110   0.072   3.890   2.180
 1363SOL    HW1 4111   0.055   3.973   2.126
 1363SOL    HW2 4112   0.162   3.853   2.158
 1364SOL     OW 4113   1.183   5.059   1.981
 1364SOL    HW1 4114   1.084   5.048   1.983
 1364SOL    HW2 4115   1.217   5.074   2.074
 1365SOL     OW 4116   0.613   4.566   3.293
 1365SOL    HW1 4117   0.669   4.647   3.276
 1365SOL    HW2 4118   0.672   4.486   3.296
 1366SOL     OW 4119   0.716   4.289   3.570
 1366SOL    HW1 4120   0.735   4.354   3.644
 1366SOL    HW2 4121   0.776   4.209   3.579
 1367SOL     OW 4122   1.674   4.607   3.116
 1367SOL    HW1 4123   1.647   4.518   3.079
 1367SOL    HW2 4124   1.675   4.675   3.043
 1368SOL     OW 4125   1.225   4.049   2.311
 1368SOL    HW1 4126   1.290   3.975   2.300
 1368SOL    HW2 4127   1.245   4.099   2.395
 1369SOL     OW 4128   0.594   4.469   2.514
 1369SOL    HW1 4129   0.644   4.554   2.495
 1369SOL    HW2 4130   0.506   4.471   2.466
 1370SOL     OW 4131   1.777   4.066   3.504
 1370SOL    HW1 4132   1.760   4.097   3.410
 1370SOL    HW2 4133   1.693   4.029   3.542
 1371SOL     OW 4134   1.730   4.658   3.379
 1371SOL    HW1 4135   1.768   4.749   3.394
 1371SOL    HW2 4136   1.722   4.641   3.280
 1372SOL     OW 4137   0.859   4.680   2.723
 1372SOL    HW1 4138   0.913   4.611   2.771
 1372SOL    HW2 4139   0.827   4.749   2.789
 1373SOL     OW 4140   1.083   4.708   1.949
 1373SOL    HW1 4141   1.060   4.761   1.867
 1373SOL    HW2 4142   1.164   4.652   1.930
 1374SOL     OW 4143   1.824   3.916   3.089
 1374SOL    HW1 4144   1.820   3.826   3.133
 1374SOL    HW2 4145   1.827   3.905   2.990
 1375SOL     OW 4146   0.428   4.148   2.382
 1375SOL    HW1 4147   0.458   4.076   2.320
 1375SOL    HW2 4148   0.389   4.108   2.465
 1376SOL     OW 4149   0.317   4.271   3.142
 1376SOL    HW1 4150   0.355   4.212   3.214
 1376SOL    HW2 4151   0.357   4.245   3.054
 1377SOL     OW 4152   1.424   3.938   2.974
 1377SOL    HW1 4153   1.476   3.873   3.029
 1377SOL    HW2 4154   1.375   4.001   3.035
 1378SOL     OW 4155   1.001   3.758   3.016
 1378SOL    HW1 4156   0.938   3.686   2.985
 1378SOL    HW2 4157   1.094   3.722   3.016
 1379SOL     OW 4158   0.770   5.054   2.163
 1379SOL    HW1 4159   0.724   4.967   2.180
 1379SOL    HW2 4160   0.861   5.051   2.204
 1380SOL     OW 4161   1.352   3.776   2.030
 1380SOL    HW1 4162   1.387   3.735   1.946
 1380SOL    HW2 4163   1.262   3.738   2.050
 1381SOL     OW 4164   1.300   4.177   2.553
 1381SOL    HW1 4165   1.241   4.257   2.557
 1381SOL    HW2 4166   1.315   4.142   2.646
 1382SOL     OW 4167   1.593   3.945   2.744
 1382SOL    HW1 4168   1.509   3.944   2.798
 1382SOL    HW2 4169   1.595   4.028   2.688
 1383SOL     OW 4170   0.039   4.801   2.162
 1383SOL    HW1 4171   0.138   4.790   2.153
 1383SOL    HW2 4172  -0.001   4.715   2.194
 1384SOL     OW 4173   0.230   4.352   3.837
 1384SOL    HW1 4174   0.137   4.350   3.874
 1384SOL    HW2 4175   0.231   4.313   3.745
 1385SOL     OW 4176   0.225   3.999   4.720
 1385SOL    HW1 4177   0.260   3.982   4.812
 1385SOL    HW2 4178   0.137   3.954   4.708
 1386SOL     OW 4179   0.019   4.092   4.371
 1386SOL    HW1 4180  -0.063   4.135   4.410
 1386SOL    HW2 4181  -0.009   4.019   4.308
 1387SOL     OW 4182   1.135   4.427   4.441
 1387SOL    HW1 4183   1.192   4.505   4.416
 1387SOL    HW2 4184   1.075   4.453   4.517
 1388SOL     OW 4185   1.755   4.331   3.955
 1388SOL    HW1 4186   1.743   4.318   3.856
 1388SOL    HW2 4187   1.725   4.250   4.004
 1389SOL     OW 4188   0.768   4.868   4.747
 1389SOL    HW1 4189   0.690   4.885   4.807
 1389SOL    HW2 4190   0.802   4.955   4.711
 1390SOL     OW 4191   0.685   4.736   4.389
 1390SOL    HW1 4192   0.754   4.720   4.459
 1390SOL    HW2 4193   0.612   4.793   4.427
 1391SOL     OW 4194   1.603   4.171   4.461
 1391SOL    HW1 4195   1.529   4.217   4.411
 1391SOL    HW2 4196   1.654   4.239   4.514
 1392SOL     OW 4197   0.230   5.158   4.262
 1392SOL    HW1 4198   0.204   5.254   4.262
 1392SOL    HW2 4199   0.159   5.104   4.307
 1393SOL     OW 4200   0.240   4.815   4.610
 1393SOL    HW1 4201   0.254   4.731   4.662
 1393SOL    HW2 4202   0.185   4.879   4.665
 1394SOL     OW 4203   0.606   4.688   3.847
 1394SOL    HW1 4204   0.613   4.772   3.793
 1394SOL    HW2 4205   0.652   4.701   3.935
 1395SOL     OW 4206   0.122   4.367   4.287
 1395SOL    HW1 4207   0.077   4.279   4.304
 1395SOL    HW2 4208   0.121   4.421   4.371
 1396SOL     OW 4209   1.689   4.646   4.336
 1396SOL    HW1 4210   1.784   4.617   4.344
 1396SOL    HW2 4211   1.681   4.711   4.261
 1397SOL     OW 4212   0.809   3.728   4.226
 1397SOL    HW1 4213   0.849   3.819   4.217
 1397SOL    HW2 4214   0.709   3.736   4.232
 1398SOL     OW 4215   0.197   4.700   4.988
 1398SOL    HW1 4216   0.286   4.655   4.974
 1398SOL    HW2 4217   0.124   4.635   4.969
 1399SOL     OW 4218   1.525   4.723   3.914
 1399SOL    HW1 4219   1.462   4.647   3.927
 1399SOL    HW2 4220   1.573   4.741   4.000
 1400SOL     OW 4221   0.598   4.453   3.994
 1400SOL    HW1 4222   0.622   4.522   3.926
 1400SOL    HW2 4223   0.520   4.486   4.048
 1401SOL     OW 4224   1.281   4.069   4.668
 1401SOL    HW1 4225   1.195   4.019   4.655
 1401SOL    HW2 4226   1.343   4.015   4.724
 1402SOL     OW 4227   1.041   4.425   4.153
 1402SOL    HW1 4228   1.067   4.421   4.249
 1402SOL    HW2 4229   0.956   4.374   4.139
 1403SOL     OW 4230   0.076   4.535   4.513
 1403SOL    HW1 4231   0.175   4.523   4.522
 1403SOL    HW2 4232   0.052   4.630   4.534
 1404SOL     OW 4233   0.865   4.072   3.919
 1404SOL    HW1 4234   0.924   4.135   3.870
 1404SOL    HW2 4235   0.884   3.978   3.890
 1405SOL     OW 4236   0.550   3.920   4.609
 1405SOL    HW1 4237   0.545   3.915   4.709
 1405SOL    HW2 4238   0.552   4.016   4.580
 1406SOL     OW 4239   1.795   4.790   4.597
 1406SOL    HW1 4240   1.733   4.775   4.521
 1406SOL    HW2 4241   1.743   4.801   4.682
 1407SOL     OW 4242   0.321   4.667   3.966
 1407SOL    HW1 4243   0.403   4.706   3.924
 1407SOL    HW2 4244   0.294   4.585   3.917
 1408SOL     OW 4245   1.458   4.459   4.452
 1408SOL    HW1 4246   1.453   4.394   4.527
 1408SOL    HW2 4247   1.538   4.518   4.465
 1409SOL     OW 4248   1.400   3.831   4.150
 1409SOL    HW1 4249   1.376   3.794   4.060
 1409SOL    HW2 4250   1.499   3.847   4.154
 1410SOL     OW 4251   0.382   4.424   4.204
 1410SOL    HW1 4252   0.427   4.334   4.201
 1410SOL    HW2 4253   0.288   4.413   4.237
 1411SOL     OW 4254   0.614   3.846   3.841
 1411SOL    HW1 4255   0.712   3.824   3.848
 1411SOL    HW2 4256   0.583   3.829   3.748
 1412SOL     OW 4257   0.922   4.227   4.623
 1412SOL    HW1 4258   0.897   4.218   4.527
 1412SOL    HW2 4259   0.970   4.145   4.654
 1413SOL     OW 4260   0.539   3.788   4.236
 1413SOL    HW1 4261   0.458   3.789   4.294
 1413SOL    HW2 4262   0.542   3.871   4.181
 1414SOL     OW 4263   0.297   3.759   3.895
 1414SOL    HW1 4264   0.346   3.843   3.874
 1414SOL    HW2 4265   0.359   3.694   3.940
 1415SOL     OW 4266   0.935   3.960   4.204
 1415SOL    HW1 4267   0.887   4.001   4.126
 1415SOL    HW2 4268   1.034   3.958   4.185
 1416SOL     OW 4269   0.459   4.876   4.465
 1416SOL    HW1 4270   0.388   4.849   4.530
 1416SOL    HW2 4271   0.433   4.848   4.372
 1417SOL     OW 4272   1.032   4.273   3.740
 1417SOL    HW1 4273   0.991   4.355   3.701
 1417SOL    HW2 4274   1.096   4.299   3.813
 1418SOL     OW 4275   0.866   4.178   4.366
 1418SOL    HW1 4276   0.834   4.250   4.304
 1418SOL    HW2 4277   0.890   4.097   4.313
 1419SOL     OW 4278   1.017   3.763   4.477
 1419SOL    HW1 4279   0.945   3.768   4.408
 1419SOL    HW2 4280   0.993   3.694   4.546
 1420SOL     OW 4281   1.429   4.897   4.591
 1420SOL    HW1 4282   1.374   4.813   4.584
 1420SOL    HW2 4283   1.455   4.926   4.499
 1421SOL     OW 4284   1.466   4.314   4.716
 1421SOL    HW1 4285   1.436   4.219   4.723
 1421SOL    HW2 4286   1.539   4.330   4.782
 1422SOL     OW 4287   1.857   4.557   4.101
 1422SOL    HW1 4288   1.899   4.493   4.165
 1422SOL    HW2 4289   1.819   4.506   4.023
 1423SOL     OW 4290   1.390   4.299   3.802
 1423SOL    HW1 4291   1.336   4.278   3.883
 1423SOL    HW2 4292   1.481   4.258   3.811
 1424SOL     OW 4293   0.527   3.980   4.052
 1424SOL    HW1 4294   0.554   3.921   3.977
 1424SOL    HW2 4295   0.527   4.075   4.021
 1425SOL     OW 4296   1.638   4.823   4.803
 1425SOL    HW1 4297   1.643   4.904   4.862
 1425SOL    HW2 4298   1.552   4.825   4.752
 1426SOL     OW 4299   0.705   4.774   4.092
 1426SOL    HW1 4300   0.691   4.781   4.191
 1426SOL    HW2 4301   0.789   4.723   4.074
 1427SOL     OW 4302   0.410   4.537   4.975
 1427SOL    HW1 4303   0.496   4.549   5.025
 1427SOL    HW2 4304   0.368   4.450   5.002
 1428SOL     OW 4305   0.367   4.824   4.225
 1428SOL    HW1 4306   0.360   4.907   4.169
 1428SOL    HW2 4307   0.371   4.744   4.165
 1429SOL     OW 4308   0.566   4.261   4.589
 1429SOL    HW1 4309   0.578   4.327   4.515
 1429SOL    HW2 4310   0.612   4.295   4.672
 1430SOL     OW 4311   1.582   4.363   4.196
 1430SOL    HW1 4312   1.551   4.424   4.269
 1430SOL    HW2 4313   1.632   4.415   4.127
 1431SOL     OW 4314   0.573   4.594   4.753
 1431SOL    HW1 4315   0.617   4.683   4.744
 1431SOL    HW2 4316   0.510   4.594   4.830
 1432SOL     OW 4317   1.209   4.249   3.999
 1432SOL    HW1 4318   1.222   4.165   4.053
 1432SOL    HW2 4319   1.180   4.323   4.059
 1433SOL     OW 4320   0.307   3.937   4.955
 1433SOL    HW1 4321   0.284   3.974   5.045
 1433SOL    HW2 4322   0.277   3.842   4.949
 1434SOL     OW 4323   0.732   4.358   4.788
 1434SOL    HW1 4324   0.791   4.332   4.712
 1434SOL    HW2 4325   0.704   4.454   4.777
 1435SOL     OW 4326   0.307   3.787   4.342
 1435SOL    HW1 4327   0.296   3.881   4.375
 1435SOL    HW2 4328   0.302   3.724   4.419
 1436SOL     OW 4329   1.622   4.091   4.098
 1436SOL    HW1 4330   1.624   4.015   4.162
 1436SOL    HW2 4331   1.574   4.168   4.138
 1437SOL     OW 4332   1.023   4.490   4.690
 1437SOL    HW1 4333   1.038   4.511   4.786
 1437SOL    HW2 4334   0.993   4.395   4.681
 1438SOL     OW 4335   1.540   3.998   3.849
 1438SOL    HW1 4336   1.479   3.923   3.872
 1438SOL    HW2 4337   1.562   4.050   3.932
 1439SOL     OW 4338   1.303   4.562   3.766
 1439SOL    HW1 4339   1.337   4.469   3.781
 1439SOL    HW2 4340   1.321   4.589   3.671
 1440SOL     OW 4341   0.319   4.534   4.673
 1440SOL    HW1 4342   0.412   4.570   4.678
 1440SOL    HW2 4343   0.313   4.449   4.725
 1441SOL     OW 4344   0.339   4.233   4.730
 1441SOL    HW1 4345   0.287   4.150   4.713
 1441SOL    HW2 4346   0.416   4.238   4.666
 1442SOL     OW 4347   1.002   4.520   4.962
 1442SOL    HW1 4348   1.043   4.488   5.048
 1442SOL    HW2 4349   0.906   4.493   4.959
 1443SOL     OW 4350   0.815   4.296   4.049
 1443SOL    HW1 4351   0.822   4.207   4.003
 1443SOL    HW2 4352   0.721   4.330   4.041
 1444SOL     OW 4353   0.671   4.188   4.993
 1444SOL    HW1 4354   0.637   4.099   4.963
 1444SOL    HW2 4355   0.697   4.242   4.913
 1445SOL     OW 4356   0.473   4.224   3.915
 1445SOL    HW1 4357   0.534   4.304   3.919
 1445SOL    HW2 4358   0.378   4.255   3.922
 1446SOL     OW 4359   1.302   4.579   4.033
 1446SOL    HW1 4360   1.216   4.548   4.075
 1446SOL    HW2 4361   1.298   4.565   3.934
 1447SOL     OW 4362   0.083   4.982   4.746
 1447SOL    HW1 4363   0.078   4.981   4.846
 1447SOL    HW2 4364   0.000   4.941   4.708
 1448SOL     OW 4365   1.726   3.859   4.247
 1448SOL    HW1 4366   1.799   3.842   4.180
 1448SOL    HW2 4367   1.695   3.772   4.285
 1449SOL     OW 4368   1.280   4.651   4.396
 1449SOL    HW1 4369   1.340   4.570   4.398
 1449SOL    HW2 4370   1.320   4.720   4.336
 1450SOL     OW 4371   1.841   3.899   4.687
 1450SOL    HW1 4372   1.880   3.814   4.651
 1450SOL    HW2 4373   1.743   3.901   4.668
 1451SOL     OW 4374   0.263   4.050   4.444
 1451SOL    HW1 4375   0.184   4.101   4.410
 1451SOL    HW2 4376   0.254   4.035   4.542
 1452SOL     OW 4377   0.916   4.634   4.015
 1452SOL    HW1 4378   0.979   4.672   3.947
 1452SOL    HW2 4379   0.956   4.551   4.054
 1453SOL     OW 4380   1.014   3.960   4.695
 1453SOL    HW1 4381   1.006   3.924   4.602
 1453SOL    HW2 4382   1.012   3.884   4.760
 1454SOL     OW 4383   0.075   4.069   3.757
 1454SOL    HW1 4384  -0.017   4.041   3.728
 1454SOL    HW2 4385   0.106   4.146   3.701
 1455SOL     OW 4386   0.072   3.890   4.042
 1455SOL    HW1 4387   0.055   3.973   3.988
 1455SOL    HW2 4388   0.162   3.853   4.020
 1456SOL     OW 4389   1.183   5.059   3.843
 1456SOL    HW1 4390   1.084   5.048   3.845
 1456SOL    HW2 4391   1.217   5.074   3.936
 1457SOL     OW 4392   1.674   4.607   4.978
 1457SOL    HW1 4393   1.647   4.518   4.941
 1457SOL    HW2 4394   1.675   4.675   4.905
 1458SOL     OW 4395   1.225   4.049   4.173
 1458SOL    HW1 4396   1.290   3.975   4.162
 1458SOL    HW2 4397   1.245   4.099   4.257
 1459SOL     OW 4398   0.594   4.469   4.376
 1459SOL    HW1 4399   0.644   4.554   4.357
 1459SOL    HW2 4400   0.506   4.471   4.328
 1460SOL     OW 4401   0.859   4.680   4.585
 1460SOL    HW1 4402   0.913   4.611   4.633
 1460SOL    HW2 4403   0.827   4.749   4.651
 1461SOL     OW 4404   1.083   4.708   3.811
 1461SOL    HW1 4405   1.060   4.761   3.729
 1461SOL    HW2 4406   1.164   4.652   3.792
 1462SOL     OW 4407   1.824   3.916   4.951
 1462SOL    HW1 4408   1.820   3.826   4.995
 1462SOL    HW2 4409   1.827   3.905   4.852
 1463SOL     OW 4410   0.428   4.148   4.244
 1463SOL    HW1 4411   0.458   4.076   4.182
 1463SOL    HW2 4412   0.389   4.108   4.327
 1464SOL     OW 4413   1.424   3.938   4.836
 1464SOL    HW1 4414   1.476   3.873   4.891
 1464SOL    HW2 4415   1.375   4.001   4.897
 1465SOL     OW 4416   0.770   5.054   4.025
 1465SOL    HW1 4417   0.724   4.967   4.042
 1465SOL    HW2 4418   0.861   5.051   4.066
 1466SOL     OW 4419   1.352   3.776   3.892
 1466SOL    HW1 4420   1.387   3.735   3.808
 1466SOL    HW2 4421   1.262   3.738   3.912
 1467SOL     OW 4422   1.300   4.177   4.415
 1467SOL    HW1 4423   1.241   4.257   4.419
 1467SOL    HW2 4424   1.315   4.142   4.508
 1468SOL     OW 4425   1.593   3.945   4.606
 1468SOL    HW1 4426   1.509   3.944   4.660
 1468SOL    HW2 4427   1.595   4.028   4.550
 1469SOL     OW 4428   0.039   4.801   4.024
 1469SOL    HW1 4429   0.138   4.790   4.015
 1469SOL    HW2 4430  -0.001   4.715   4.056
 1470SOL     OW 4431   2.092   0.628   0.113
 1470SOL    HW1 4432   1.999   0.626   0.150
 1470SOL    HW2 4433   2.093   0.589   0.021
 1471SOL     OW 4434   2.087   0.275   0.996
 1471SOL    HW1 4435   2.122   0.258   1.088
 1471SOL    HW2 4436   1.999   0.230   0.984
 1472SOL     OW 4437   1.881   0.368   0.647
 1472SOL    HW1 4438   1.799   0.411   0.686
 1472SOL    HW2 4439   1.853   0.295   0.584
 1473SOL     OW 4440   2.431   1.275   1.165
 1473SOL    HW1 4441   2.338   1.268   1.128
 1473SOL    HW2 4442   2.442   1.364   1.209
 1474SOL     OW 4443   3.417   1.511   0.703
 1474SOL    HW1 4444   3.360   1.495   0.784
 1474SOL    HW2 4445   3.358   1.521   0.623
 1475SOL     OW 4446   2.997   0.703   0.717
 1475SOL    HW1 4447   3.054   0.781   0.692
 1475SOL    HW2 4448   2.937   0.729   0.793
 1476SOL     OW 4449   3.617   0.607   0.231
 1476SOL    HW1 4450   3.605   0.594   0.132
 1476SOL    HW2 4451   3.587   0.526   0.280
 1477SOL     OW 4452   2.630   1.144   1.023
 1477SOL    HW1 4453   2.552   1.161   1.083
 1477SOL    HW2 4454   2.664   1.231   0.987
 1478SOL     OW 4455   2.712   0.798   1.823
 1478SOL    HW1 4456   2.708   0.874   1.888
 1478SOL    HW2 4457   2.734   0.834   1.732
 1479SOL     OW 4458   2.547   1.012   0.665
 1479SOL    HW1 4459   2.616   0.996   0.735
 1479SOL    HW2 4460   2.474   1.069   0.703
 1480SOL     OW 4461   2.548   1.161   1.803
 1480SOL    HW1 4462   2.608   1.240   1.817
 1480SOL    HW2 4463   2.462   1.192   1.762
 1481SOL     OW 4464   2.197   1.435   1.061
 1481SOL    HW1 4465   2.119   1.404   1.008
 1481SOL    HW2 4466   2.255   1.493   1.004
 1482SOL     OW 4467   3.322   1.505   1.339
 1482SOL    HW1 4468   3.346   1.599   1.365
 1482SOL    HW2 4469   3.306   1.451   1.421
 1483SOL     OW 4470   2.300   0.392   1.499
 1483SOL    HW1 4471   2.382   0.336   1.508
 1483SOL    HW2 4472   2.219   0.334   1.503
 1484SOL     OW 4473   3.465   0.447   0.737
 1484SOL    HW1 4474   3.391   0.493   0.687
 1484SOL    HW2 4475   3.516   0.515   0.790
 1485SOL     OW 4476   2.093   1.713   0.483
 1485SOL    HW1 4477   2.127   1.790   0.537
 1485SOL    HW2 4478   2.137   1.713   0.393
 1486SOL     OW 4479   2.989   1.341   1.690
 1486SOL    HW1 4480   3.036   1.341   1.778
 1486SOL    HW2 4481   2.941   1.254   1.679
 1487SOL     OW 4482   2.092   1.434   0.538
 1487SOL    HW1 4483   2.066   1.530   0.538
 1487SOL    HW2 4484   2.021   1.380   0.583
 1488SOL     OW 4485   2.102   1.091   0.886
 1488SOL    HW1 4486   2.116   1.007   0.938
 1488SOL    HW2 4487   2.047   1.155   0.941
 1489SOL     OW 4488   2.482   1.786   1.439
 1489SOL    HW1 4489   2.390   1.769   1.474
 1489SOL    HW2 4490   2.510   1.878   1.465
 1490SOL     OW 4491   2.468   0.964   0.123
 1490SOL    HW1 4492   2.475   1.048   0.069
 1490SOL    HW2 4493   2.514   0.977   0.211
 1491SOL     OW 4494   3.456   0.114   1.480
 1491SOL    HW1 4495   3.438   0.181   1.408
 1491SOL    HW2 4496   3.453   0.160   1.569
 1492SOL     OW 4497   1.984   0.643   0.563
 1492SOL    HW1 4498   1.939   0.555   0.580
 1492SOL    HW2 4499   1.983   0.697   0.647
 1493SOL     OW 4500   3.704   1.767   0.359
 1493SOL    HW1 4501   3.758   1.738   0.439
 1493SOL    HW2 4502   3.734   1.857   0.330
 1494SOL     OW 4503   1.889   1.596   0.117
 1494SOL    HW1 4504   1.870   1.500   0.138
 1494SOL    HW2 4505   1.856   1.654   0.192
 1495SOL     OW 4506   3.551   0.922   0.612
 1495SOL    HW1 4507   3.646   0.893   0.620
 1495SOL    HW2 4508   3.543   0.987   0.537
 1496SOL     OW 4509   3.503   1.108   0.432
 1496SOL    HW1 4510   3.589   1.110   0.380
 1496SOL    HW2 4511   3.517   1.155   0.520
 1497SOL     OW 4512   1.975   0.737   1.597
 1497SOL    HW1 4513   2.063   0.724   1.642
 1497SOL    HW2 4514   1.962   0.834   1.575
 1498SOL     OW 4515   2.475   1.365   0.726
 1498SOL    HW1 4516   2.426   1.278   0.735
 1498SOL    HW2 4517   2.452   1.408   0.639
 1499SOL     OW 4518   3.155   1.228   1.423
 1499SOL    HW1 4519   3.192   1.155   1.365
 1499SOL    HW2 4520   3.207   1.233   1.508
 1500SOL     OW 4521   2.671   0.004   0.502
 1500SOL    HW1 4522   2.711   0.095   0.493
 1500SOL    HW2 4523   2.571   0.012   0.508
 1501SOL     OW 4524   2.059   0.976   1.264
 1501SOL    HW1 4525   2.148   0.931   1.250
 1501SOL    HW2 4526   1.986   0.911   1.245
 1502SOL     OW 4527   3.387   0.999   0.190
 1502SOL    HW1 4528   3.324   0.923   0.203
 1502SOL    HW2 4529   3.435   1.017   0.276
 1503SOL     OW 4530   3.049   1.792   1.616
 1503SOL    HW1 4531   3.073   1.852   1.540
 1503SOL    HW2 4532   3.056   1.697   1.586
 1504SOL     OW 4533   2.179   0.251   1.801
 1504SOL    HW1 4534   2.250   0.322   1.807
 1504SOL    HW2 4535   2.091   0.290   1.829
 1505SOL     OW 4536   3.328   1.417   0.953
 1505SOL    HW1 4537   3.269   1.423   1.033
 1505SOL    HW2 4538   3.313   1.329   0.907
 1506SOL     OW 4539   3.529   1.714   0.572
 1506SOL    HW1 4540   3.488   1.691   0.484
 1506SOL    HW2 4541   3.511   1.640   0.637
 1507SOL     OW 4542   2.460   0.729   0.270
 1507SOL    HW1 4543   2.484   0.798   0.202
 1507SOL    HW2 4544   2.382   0.762   0.324
 1508SOL     OW 4545   3.143   0.345   0.944
 1508SOL    HW1 4546   3.057   0.295   0.931
 1508SOL    HW2 4547   3.205   0.291   1.000
 1509SOL     OW 4548   3.438   1.662   0.307
 1509SOL    HW1 4549   3.527   1.708   0.310
 1509SOL    HW2 4550   3.417   1.638   0.212
 1510SOL     OW 4551   2.669   0.605   1.465
 1510SOL    HW1 4552   2.622   0.602   1.554
 1510SOL    HW2 4553   2.618   0.550   1.399
 1511SOL     OW 4554   3.256   0.469   1.674
 1511SOL    HW1 4555   3.236   0.512   1.762
 1511SOL    HW2 4556   3.334   0.407   1.683
 1512SOL     OW 4557   2.835   0.890   1.572
 1512SOL    HW1 4558   2.881   0.806   1.543
 1512SOL    HW2 4559   2.779   0.924   1.497
 1513SOL     OW 4560   2.853   0.410   1.242
 1513SOL    HW1 4561   2.776   0.444   1.296
 1513SOL    HW2 4562   2.819   0.359   1.163
 1514SOL     OW 4563   2.903   0.701   0.429
 1514SOL    HW1 4564   2.929   0.697   0.525
 1514SOL    HW2 4565   2.818   0.650   0.415
 1515SOL     OW 4566   1.938   0.811   0.789
 1515SOL    HW1 4567   2.037   0.799   0.798
 1515SOL    HW2 4568   1.914   0.906   0.810
 1516SOL     OW 4569   1.992   1.821   1.571
 1516SOL    HW1 4570   1.982   1.806   1.670
 1516SOL    HW2 4571   1.906   1.857   1.535
 1517SOL     OW 4572   2.727   0.348   0.195
 1517SOL    HW1 4573   2.786   0.411   0.146
 1517SOL    HW2 4574   2.746   0.254   0.166
 1518SOL     OW 4575   3.581   0.585   1.831
 1518SOL    HW1 4576   3.555   0.674   1.795
 1518SOL    HW2 4577   3.579   0.517   1.758
 1519SOL     OW 4578   3.224   1.144   0.545
 1519SOL    HW1 4579   3.307   1.115   0.497
 1519SOL    HW2 4580   3.175   1.211   0.489
 1520SOL     OW 4581   2.412   0.196   0.885
 1520SOL    HW1 4582   2.407   0.191   0.985
 1520SOL    HW2 4583   2.414   0.292   0.856
 1521SOL     OW 4584   2.870   1.456   0.477
 1521SOL    HW1 4585   2.824   1.528   0.425
 1521SOL    HW2 4586   2.866   1.476   0.575
 1522SOL     OW 4587   2.213   1.801   0.853
 1522SOL    HW1 4588   2.263   1.715   0.859
 1522SOL    HW2 4589   2.278   1.878   0.850
 1523SOL     OW 4590   3.657   1.066   0.873
 1523SOL    HW1 4591   3.595   1.051   0.797
 1523SOL    HW2 4592   3.605   1.077   0.958
 1524SOL     OW 4593   3.089   1.550   1.506
 1524SOL    HW1 4594   3.095   1.473   1.570
 1524SOL    HW2 4595   3.037   1.524   1.426
 1525SOL     OW 4596   2.183   0.943   0.242
 1525SOL    HW1 4597   2.265   0.982   0.200
 1525SOL    HW2 4598   2.156   0.861   0.193
 1526SOL     OW 4599   3.320   0.735   0.728
 1526SOL    HW1 4600   3.315   0.670   0.803
 1526SOL    HW2 4601   3.400   0.794   0.741
 1527SOL     OW 4602   2.323   1.266   1.727
 1527SOL    HW1 4603   2.273   1.267   1.641
 1527SOL    HW2 4604   2.260   1.248   1.803
 1528SOL     OW 4605   2.973   1.776   0.237
 1528SOL    HW1 4606   2.913   1.714   0.287
 1528SOL    HW2 4607   3.004   1.732   0.152
 1529SOL     OW 4608   2.064   0.285   1.498
 1529SOL    HW1 4609   1.984   0.345   1.485
 1529SOL    HW2 4610   2.054   0.236   1.584
 1530SOL     OW 4611   3.494   1.377   0.081
 1530SOL    HW1 4612   3.462   1.471   0.071
 1530SOL    HW2 4613   3.418   1.314   0.069
 1531SOL     OW 4614   2.326   1.743   0.323
 1531SOL    HW1 4615   2.359   1.782   0.409
 1531SOL    HW2 4616   2.402   1.736   0.258
 1532SOL     OW 4617   3.262   0.107   0.426
 1532SOL    HW1 4618   3.238   0.070   0.336
 1532SOL    HW2 4619   3.361   0.123   0.430
 1533SOL     OW 4620   2.111   1.785   1.241
 1533SOL    HW1 4621   2.168   1.720   1.291
 1533SOL    HW2 4622   2.095   1.752   1.148
 1534SOL     OW 4623   2.802   1.698   0.904
 1534SOL    HW1 4624   2.882   1.641   0.925
 1534SOL    HW2 4625   2.753   1.658   0.827
 1535SOL     OW 4626   2.244   0.700   0.480
 1535SOL    HW1 4627   2.289   0.610   0.477
 1535SOL    HW2 4628   2.150   0.689   0.513
 1536SOL     OW 4629   3.409   0.222   1.729
 1536SOL    HW1 4630   3.404   0.259   1.821
 1536SOL    HW2 4631   3.337   0.153   1.717
 1537SOL     OW 4632   2.476   0.122   0.117
 1537SOL    HW1 4633   2.574   0.100   0.124
 1537SOL    HW2 4634   2.445   0.105   0.024
 1538SOL     OW 4635   2.643   0.264   1.749
 1538SOL    HW1 4636   2.710   0.203   1.792
 1538SOL    HW2 4637   2.570   0.283   1.814
 1539SOL     OW 4638   2.750   1.514   1.195
 1539SOL    HW1 4639   2.727   1.489   1.101
 1539SOL    HW2 4640   2.811   1.445   1.234
 1540SOL     OW 4641   3.213   0.590   1.433
 1540SOL    HW1 4642   3.241   0.547   1.518
 1540SOL    HW2 4643   3.238   0.686   1.434
 1541SOL     OW 4644   2.665   1.402   0.924
 1541SOL    HW1 4645   2.755   1.416   0.882
 1541SOL    HW2 4646   2.594   1.404   0.853
 1542SOL     OW 4647   2.784   0.503   0.899
 1542SOL    HW1 4648   2.759   0.494   0.803
 1542SOL    HW2 4649   2.832   0.421   0.930
 1543SOL     OW 4650   2.401   0.064   0.512
 1543SOL    HW1 4651   2.320   0.065   0.570
 1543SOL    HW2 4652   2.404   0.147   0.457
 1544SOL     OW 4653   3.296   1.188   0.041
 1544SOL    HW1 4654   3.328   1.112   0.098
 1544SOL    HW2 4655   3.204   1.215   0.071
 1545SOL     OW 4656   2.159   0.035   0.171
 1545SOL    HW1 4657   2.208   0.119   0.150
 1545SOL    HW2 4658   2.221  -0.030   0.216
 1546SOL     OW 4659   2.797   0.236   0.480
 1546SOL    HW1 4660   2.749   0.277   0.402
 1546SOL    HW2 4661   2.896   0.234   0.461
 1547SOL     OW 4662   2.938   0.683   1.464
 1547SOL    HW1 4663   2.858   0.622   1.467
 1547SOL    HW2 4664   3.019   0.630   1.440
 1548SOL     OW 4665   3.089   1.570   0.793
 1548SOL    HW1 4666   3.110   1.644   0.728
 1548SOL    HW2 4667   3.157   1.570   0.866
 1549SOL     OW 4668   2.321   1.152   0.741
 1549SOL    HW1 4669   2.250   1.125   0.806
 1549SOL    HW2 4670   2.295   1.124   0.648
 1550SOL     OW 4671   3.133   1.797   0.591
 1550SOL    HW1 4672   3.177   1.861   0.527
 1550SOL    HW2 4673   3.083   1.849   0.661
 1551SOL     OW 4674   2.894   0.549   0.016
 1551SOL    HW1 4675   2.853   0.631  -0.023
 1551SOL    HW2 4676   2.958   0.575   0.089
 1552SOL     OW 4677   1.940   0.556   1.386
 1552SOL    HW1 4678   2.032   0.555   1.345
 1552SOL    HW2 4679   1.934   0.630   1.453
 1553SOL     OW 4680   2.423   0.222   1.147
 1553SOL    HW1 4681   2.461   0.138   1.184
 1553SOL    HW2 4682   2.335   0.241   1.191
 1554SOL     OW 4683   2.728   0.454   0.642
 1554SOL    HW1 4684   2.696   0.526   0.580
 1554SOL    HW2 4685   2.752   0.373   0.589
 1555SOL     OW 4686   2.879   0.039   0.753
 1555SOL    HW1 4687   2.807   0.044   0.684
 1555SOL    HW2 4688   2.855  -0.030   0.822
 1556SOL     OW 4689   3.291   1.173   0.867
 1556SOL    HW1 4690   3.236   1.089   0.860
 1556SOL    HW2 4691   3.317   1.202   0.775
 1557SOL     OW 4692   3.328   0.590   0.992
 1557SOL    HW1 4693   3.298   0.495   0.999
 1557SOL    HW2 4694   3.401   0.606   1.058
 1558SOL     OW 4695   3.719   0.833   0.377
 1558SOL    HW1 4696   3.761   0.769   0.441
 1558SOL    HW2 4697   3.681   0.782   0.299
 1559SOL     OW 4698   2.350   1.385   0.174
 1559SOL    HW1 4699   2.263   1.370   0.221
 1559SOL    HW2 4700   2.333   1.411   0.079
 1560SOL     OW 4701   3.526   1.280   0.657
 1560SOL    HW1 4702   3.625   1.288   0.671
 1560SOL    HW2 4703   3.481   1.364   0.688
 1561SOL     OW 4704   3.252   0.575   0.078
 1561SOL    HW1 4705   3.198   0.554   0.159
 1561SOL    HW2 4706   3.343   0.534   0.087
 1562SOL     OW 4707   2.389   0.256   0.328
 1562SOL    HW1 4708   2.416   0.197   0.253
 1562SOL    HW2 4709   2.389   0.351   0.297
 1563SOL     OW 4710   3.616   1.223   1.588
 1563SOL    HW1 4711   3.707   1.184   1.575
 1563SOL    HW2 4712   3.624   1.319   1.612
 1564SOL     OW 4713   2.926   1.347   1.340
 1564SOL    HW1 4714   2.846   1.324   1.395
 1564SOL    HW2 4715   3.009   1.321   1.389
 1565SOL     OW 4716   3.454   1.629   1.625
 1565SOL    HW1 4717   3.481   1.663   1.535
 1565SOL    HW2 4718   3.533   1.591   1.671
 1566SOL     OW 4719   2.973   1.195   1.100
 1566SOL    HW1 4720   2.933   1.239   1.181
 1566SOL    HW2 4721   2.932   1.232   1.017
 1567SOL     OW 4722   3.500   1.099   1.079
 1567SOL    HW1 4723   3.505   1.180   1.138
 1567SOL    HW2 4724   3.414   1.101   1.028
 1568SOL     OW 4725   2.777   0.089   1.402
 1568SOL    HW1 4726   2.802   0.069   1.307
 1568SOL    HW2 4727   2.849   0.145   1.444
 1569SOL     OW 4728   2.842   1.116   1.719
 1569SOL    HW1 4729   2.743   1.122   1.729
 1569SOL    HW2 4730   2.865   1.036   1.663
 1570SOL     OW 4731   2.567   1.050   0.368
 1570SOL    HW1 4732   2.553   1.057   0.467
 1570SOL    HW2 4733   2.651   0.999   0.350
 1571SOL     OW 4734   2.272   0.813   1.251
 1571SOL    HW1 4735   2.358   0.825   1.301
 1571SOL    HW2 4736   2.230   0.726   1.278
 1572SOL     OW 4737   3.136   0.386   1.262
 1572SOL    HW1 4738   3.157   0.460   1.326
 1572SOL    HW2 4739   3.047   0.403   1.219
 1573SOL     OW 4740   1.926   1.564   1.331
 1573SOL    HW1 4741   1.880   1.646   1.297
 1573SOL    HW2 4742   2.024   1.583   1.340
 1574SOL     OW 4743   2.229   1.100   0.501
 1574SOL    HW1 4744   2.222   1.183   0.445
 1574SOL    HW2 4745   2.233   1.020   0.441
 1575SOL     OW 4746   2.428   0.537   0.865
 1575SOL    HW1 4747   2.440   0.603   0.791
 1575SOL    HW2 4748   2.474   0.571   0.948
 1576SOL     OW 4749   3.114   1.348   0.388
 1576SOL    HW1 4750   3.164   1.425   0.428
 1576SOL    HW2 4751   3.019   1.350   0.420
 1577SOL     OW 4752   3.134   1.445   1.142
 1577SOL    HW1 4753   3.181   1.458   1.229
 1577SOL    HW2 4754   3.068   1.371   1.151
 1578SOL     OW 4755   3.444   0.639   0.472
 1578SOL    HW1 4756   3.413   0.700   0.545
 1578SOL    HW2 4757   3.494   0.691   0.403
 1579SOL     OW 4758   2.216   1.510   1.329
 1579SOL    HW1 4759   2.195   1.466   1.242
 1579SOL    HW2 4760   2.313   1.536   1.332
 1580SOL     OW 4761   2.264   0.751   1.598
 1580SOL    HW1 4762   2.332   0.806   1.551
 1580SOL    HW2 4763   2.304   0.663   1.625
 1581SOL     OW 4764   3.449   0.779   1.670
 1581SOL    HW1 4765   3.357   0.817   1.665
 1581SOL    HW2 4766   3.509   0.826   1.605
 1582SOL     OW 4767   2.875   0.105   1.770
 1582SOL    HW1 4768   2.881   0.190   1.718
 1582SOL    HW2 4769   2.907   0.029   1.713
 1583SOL     OW 4770   2.366   0.050   1.740
 1583SOL    HW1 4771   2.324  -0.007   1.670
 1583SOL    HW2 4772   2.300   0.119   1.772
 1584SOL     OW 4773   2.435   0.870   1.029
 1584SOL    HW1 4774   2.479   0.959   1.020
 1584SOL    HW2 4775   2.372   0.870   1.106
 1585SOL     OW 4776   3.222   0.862   1.045
 1585SOL    HW1 4777   3.147   0.862   0.979
 1585SOL    HW2 4778   3.259   0.770   1.054
 1586SOL     OW 4779   3.071   0.525   0.275
 1586SOL    HW1 4780   3.084   0.441   0.329
 1586SOL    HW2 4781   3.042   0.599   0.335
 1587SOL     OW 4782   2.169   0.213   1.231
 1587SOL    HW1 4783   2.146   0.250   1.321
 1587SOL    HW2 4784   2.139   0.118   1.225
 1588SOL     OW 4785   1.899   1.310   1.282
 1588SOL    HW1 4786   1.952   1.261   1.350
 1588SOL    HW2 4787   1.921   1.408   1.287
 1589SOL     OW 4788   2.594   0.634   1.064
 1589SOL    HW1 4789   2.653   0.608   0.988
 1589SOL    HW2 4790   2.566   0.730   1.053
 1590SOL     OW 4791   3.590   0.935   1.854
 1590SOL    HW1 4792   3.544   0.928   1.765
 1590SOL    HW2 4793   3.528   0.979   1.920
 1591SOL     OW 4794   2.169   0.063   0.618
 1591SOL    HW1 4795   2.158   0.157   0.651
 1591SOL    HW2 4796   2.164   0.000   0.695
 1592SOL     OW 4797   3.484   0.367   0.374
 1592SOL    HW1 4798   3.486   0.291   0.438
 1592SOL    HW2 4799   3.436   0.444   0.414
 1593SOL     OW 4800   2.885   0.766   0.966
 1593SOL    HW1 4801   2.900   0.787   1.062
 1593SOL    HW2 4802   2.855   0.671   0.957
 1594SOL     OW 4803   2.842   1.573   1.700
 1594SOL    HW1 4804   2.822   1.617   1.612
 1594SOL    HW2 4805   2.881   1.482   1.684
 1595SOL     OW 4806   3.721   1.518   1.605
 1595SOL    HW1 4807   3.735   1.545   1.510
 1595SOL    HW2 4808   3.804   1.540   1.658
 1596SOL     OW 4809   2.212   0.898   1.804
 1596SOL    HW1 4810   2.288   0.942   1.852
 1596SOL    HW2 4811   2.247   0.851   1.722
 1597SOL     OW 4812   3.402   0.274   0.125
 1597SOL    HW1 4813   3.341   0.199   0.148
 1597SOL    HW2 4814   3.424   0.326   0.208
 1598SOL     OW 4815   3.165   0.838   0.042
 1598SOL    HW1 4816   3.199   0.745   0.057
 1598SOL    HW2 4817   3.183   0.865  -0.053
 1599SOL     OW 4818   2.930   1.333   0.849
 1599SOL    HW1 4819   2.937   1.249   0.794
 1599SOL    HW2 4820   2.992   1.402   0.813
 1600SOL     OW 4821   2.181   0.810   0.949
 1600SOL    HW1 4822   2.274   0.846   0.954
 1600SOL    HW2 4823   2.175   0.725   1.001
 1601SOL     OW 4824   2.201   0.509   1.006
 1601SOL    HW1 4825   2.149   0.426   0.989
 1601SOL    HW2 4826   2.278   0.514   0.942
 1602SOL     OW 4827   3.000   0.380   1.678
 1602SOL    HW1 4828   2.955   0.443   1.742
 1602SOL    HW2 4829   3.093   0.411   1.661
 1603SOL     OW 4830   3.022   0.207   1.477
 1603SOL    HW1 4831   3.022   0.271   1.554
 1603SOL    HW2 4832   3.050   0.255   1.394
 1604SOL     OW 4833   1.870   1.326   0.200
 1604SOL    HW1 4834   1.777   1.347   0.169
 1604SOL    HW2 4835   1.880   1.227   0.213
 1605SOL     OW 4836   1.950   1.801   0.927
 1605SOL    HW1 4837   1.908   1.715   0.900
 1605SOL    HW2 4838   2.044   1.804   0.893
 1606SOL     OW 4839   2.366   1.568   0.910
 1606SOL    HW1 4840   2.432   1.642   0.919
 1606SOL    HW2 4841   2.410   1.489   0.868
 1607SOL     OW 4842   2.864   0.796   1.238
 1607SOL    HW1 4843   2.905   0.764   1.324
 1607SOL    HW2 4844   2.768   0.769   1.235
 1608SOL     OW 4845   1.902   0.544   1.114
 1608SOL    HW1 4846   1.987   0.511   1.073
 1608SOL    HW2 4847   1.915   0.559   1.212
 1609SOL     OW 4848   2.051   0.520   1.722
 1609SOL    HW1 4849   2.110   0.480   1.652
 1609SOL    HW2 4850   1.993   0.591   1.681
 1610SOL     OW 4851   3.231   0.950   1.660
 1610SOL    HW1 4852   3.270   1.039   1.680
 1610SOL    HW2 4853   3.241   0.930   1.563
 1611SOL     OW 4854   2.677   0.572   0.325
 1611SOL    HW1 4855   2.684   0.483   0.279
 1611SOL    HW2 4856   2.583   0.606   0.317
 1612SOL     OW 4857   3.519   0.604   1.206
 1612SOL    HW1 4858   3.481   0.535   1.268
 1612SOL    HW2 4859   3.601   0.568   1.162
 1613SOL     OW 4860   2.114   1.564   1.744
 1613SOL    HW1 4861   2.084   1.621   1.820
 1613SOL    HW2 4862   2.107   1.467   1.770
 1614SOL     OW 4863   2.533   0.464   1.269
 1614SOL    HW1 4864   2.499   0.375   1.239
 1614SOL    HW2 4865   2.559   0.518   1.189
 1615SOL     OW 4866   2.792   1.678   1.465
 1615SOL    HW1 4867   2.768   1.660   1.370
 1615SOL    HW2 4868   2.822   1.772   1.475
 1616SOL     OW 4869   2.335   0.500   0.191
 1616SOL    HW1 4870   2.396   0.580   0.195
 1616SOL    HW2 4871   2.240   0.531   0.198
 1617SOL     OW 4872   2.021   1.137   1.466
 1617SOL    HW1 4873   2.043   1.076   1.542
 1617SOL    HW2 4874   2.031   1.088   1.380
 1618SOL     OW 4875   3.209   1.059   1.234
 1618SOL    HW1 4876   3.233   0.996   1.160
 1618SOL    HW2 4877   3.119   1.099   1.216
 1619SOL     OW 4878   3.164   0.855   0.309
 1619SOL    HW1 4879   3.078   0.824   0.351
 1619SOL    HW2 4880   3.160   0.841   0.210
 1620SOL     OW 4881   3.621   1.747   1.154
 1620SOL    HW1 4882   3.682   1.777   1.081
 1620SOL    HW2 4883   3.583   1.658   1.132
 1621SOL     OW 4884   3.114   1.731   1.128
 1621SOL    HW1 4885   3.198   1.736   1.074
 1621SOL    HW2 4886   3.091   1.635   1.146
 1622SOL     OW 4887   1.945   1.258   1.022
 1622SOL    HW1 4888   1.940   1.257   1.122
 1622SOL    HW2 4889   1.862   1.217   0.984
 1623SOL     OW 4890   2.550   1.662   1.716
 1623SOL    HW1 4891   2.494   1.743   1.725
 1623SOL    HW2 4892   2.602   1.666   1.630
 1624SOL     OW 4893   2.765   0.086   0.133
 1624SOL    HW1 4894   2.816   0.087   0.047
 1624SOL    HW2 4895   2.821   0.044   0.204
 1625SOL     OW 4896   3.588   0.135   0.523
 1625SOL    HW1 4897   3.661   0.118   0.456
 1625SOL    HW2 4898   3.557   0.048   0.561
 1626SOL     OW 4899   3.250   1.573   0.477
 1626SOL    HW1 4900   3.317   1.585   0.403
 1626SOL    HW2 4901   3.210   1.662   0.500
 1627SOL     OW 4902   1.992   1.794   1.851
 1627SOL    HW1 4903   1.951   1.720   1.904
 1627SOL    HW2 4904   2.056   1.845   1.909
 1628SOL     OW 4905   3.142   0.927   0.672
 1628SOL    HW1 4906   3.202   0.846   0.674
 1628SOL    HW2 4907   3.182   0.996   0.612
 1629SOL     OW 4908   2.692   1.273   1.422
 1629SOL    HW1 4909   2.687   1.306   1.517
 1629SOL    HW2 4910   2.606   1.292   1.376
 1630SOL     OW 4911   2.534   1.616   0.154
 1630SOL    HW1 4912   2.543   1.626   0.055
 1630SOL    HW2 4913   2.494   1.527   0.175
 1631SOL     OW 4914   3.512   1.720   1.394
 1631SOL    HW1 4915   3.565   1.730   1.310
 1631SOL    HW2 4916   3.485   1.810   1.428
 1632SOL     OW 4917   3.703   0.175   0.963
 1632SOL    HW1 4918   3.742   0.090   0.927
 1632SOL    HW2 4919   3.605   0.177   0.944
 1633SOL     OW 4920   2.125   0.326   0.720
 1633SOL    HW1 4921   2.046   0.377   0.686
 1633SOL    HW2 4922   2.116   0.311   0.818
 1634SOL     OW 4923   3.056   1.612   0.031
 1634SOL    HW1 4924   3.062   1.519   0.068
 1634SOL    HW2 4925   2.997   1.612  -0.049
 1635SOL     OW 4926   2.684   1.002   1.372
 1635SOL    HW1 4927   2.724   1.001   1.280
 1635SOL    HW2 4928   2.694   1.094   1.412
 1636SOL     OW 4929   2.778   0.910   0.291
 1636SOL    HW1 4930   2.841   0.948   0.223
 1636SOL    HW2 4931   2.818   0.827   0.330
 1637SOL     OW 4932   3.366   1.607   0.044
 1637SOL    HW1 4933   3.274   1.644   0.051
 1637SOL    HW2 4934   3.404   1.627  -0.046
 1638SOL     OW 4935   2.234   1.288   1.490
 1638SOL    HW1 4936   2.221   1.381   1.456
 1638SOL    HW2 4937   2.150   1.236   1.477
 1639SOL     OW 4938   3.476   1.292   1.289
 1639SOL    HW1 4939   3.536   1.295   1.369
 1639SOL    HW2 4940   3.401   1.356   1.302
 1640SOL     OW 4941   2.901   1.098   0.696
 1640SOL    HW1 4942   2.831   1.051   0.750
 1640SOL    HW2 4943   2.960   1.030   0.653
 1641SOL     OW 4944   2.876   0.236   0.971
 1641SOL    HW1 4945   2.868   0.200   0.878
 1641SOL    HW2 4946   2.874   0.160   1.036
 1642SOL     OW 4947   2.452   1.487   0.491
 1642SOL    HW1 4948   2.494   1.429   0.421
 1642SOL    HW2 4949   2.408   1.566   0.447
 1643SOL     OW 4950   3.571   0.385   1.381
 1643SOL    HW1 4951   3.644   0.454   1.385
 1643SOL    HW2 4952   3.599   0.310   1.322
 1644SOL     OW 4953   2.117   1.348   0.290
 1644SOL    HW1 4954   2.021   1.349   0.263
 1644SOL    HW2 4955   2.129   1.401   0.374
 1645SOL     OW 4956   1.967   1.013   1.726
 1645SOL    HW1 4957   1.890   0.980   1.780
 1645SOL    HW2 4958   2.052   0.983   1.768
 1646SOL     OW 4959   2.534   0.203   1.489
 1646SOL    HW1 4960   2.624   0.187   1.449
 1646SOL    HW2 4961   2.542   0.208   1.588
 1647SOL     OW 4962   3.302   0.856   1.398
 1647SOL    HW1 4963   3.245   0.908   1.335
 1647SOL    HW2 4964   3.398   0.868   1.374
 1648SOL     OW 4965   1.934   0.166   0.318
 1648SOL    HW1 4966   1.917   0.249   0.264
 1648SOL    HW2 4967   2.024   0.129   0.296
 1649SOL     OW 4968   3.045   1.335   0.119
 1649SOL    HW1 4969   2.946   1.324   0.121
 1649SOL    HW2 4970   3.079   1.350   0.212
 1650SOL     OW 4971   2.475   0.842   1.431
 1650SOL    HW1 4972   2.531   0.923   1.414
 1650SOL    HW2 4973   2.534   0.762   1.434
 1651SOL     OW 4974   3.355   1.767   0.959
 1651SOL    HW1 4975   3.388   1.831   0.890
 1651SOL    HW2 4976   3.421   1.761   1.034
 1652SOL     OW 4977   2.578   0.565   1.708
 1652SOL    HW1 4978   2.597   0.630   1.782
 1652SOL    HW2 4979   2.638   0.485   1.717
 1653SOL     OW 4980   3.312   1.220   1.633
 1653SOL    HW1 4981   3.303   1.210   1.732
 1653SOL    HW2 4982   3.408   1.213   1.607
 1654SOL     OW 4983   2.252   1.741   1.560
 1654SOL    HW1 4984   2.161   1.782   1.558
 1654SOL    HW2 4985   2.245   1.647   1.592
 1655SOL     OW 4986   3.536   0.883   1.254
 1655SOL    HW1 4987   3.509   0.794   1.217
 1655SOL    HW2 4988   3.537   0.951   1.181
 1656SOL     OW 4989   3.087   0.325   0.449
 1656SOL    HW1 4990   3.152   0.251   0.438
 1656SOL    HW2 4991   3.107   0.375   0.533
 1657SOL     OW 4992   2.456   0.745   0.652
 1657SOL    HW1 4993   2.506   0.830   0.633
 1657SOL    HW2 4994   2.368   0.747   0.604
 1658SOL     OW 4995   3.639   0.342   1.642
 1658SOL    HW1 4996   3.622   0.373   1.548
 1658SOL    HW2 4997   3.555   0.305   1.680
 1659SOL     OW 4998   3.592   0.934   1.517
 1659SOL    HW1 4999   3.630   1.025   1.532
 1659SOL    HW2 5000   3.584   0.917   1.418
 1660SOL     OW 5001   2.721   1.374   0.016
 1660SOL    HW1 5002   2.675   1.389   0.104
 1660SOL    HW2 5003   2.765   1.459  -0.014
 1661SOL     OW 5004   2.523   1.790   0.953
 1661SOL    HW1 5005   2.477   1.878   0.940
 1661SOL    HW2 5006   2.622   1.802   0.946
 1662SOL     OW 5007   2.721   0.956   0.861
 1662SOL    HW1 5008   2.775   0.887   0.909
 1662SOL    HW2 5009   2.689   1.025   0.927
 1663SOL     OW 5010   2.945   0.984   0.087
 1663SOL    HW1 5011   2.922   1.037   0.005
 1663SOL    HW2 5012   3.026   0.928   0.068
 1664SOL     OW 5013   3.723   1.569   0.851
 1664SOL    HW1 5014   3.652   1.557   0.781
 1664SOL    HW2 5015   3.724   1.490   0.911
 1665SOL     OW 5016   2.083   1.314   1.844
 1665SOL    HW1 5017   2.018   1.241   1.823
 1665SOL    HW2 5018   2.087   1.328   1.942
 1666SOL     OW 5019   1.941   1.240   0.653
 1666SOL    HW1 5020   1.940   1.193   0.741
 1666SOL    HW2 5021   2.023   1.212   0.602
 1667SOL     OW 5022   2.534   1.391   1.624
 1667SOL    HW1 5023   2.456   1.341   1.662
 1667SOL    HW2 5024   2.531   1.486   1.655
 1668SOL     OW 5025   3.686   0.192   1.227
 1668SOL    HW1 5026   3.682   0.102   1.271
 1668SOL    HW2 5027   3.689   0.181   1.128
 1669SOL     OW 5028   2.290   0.424   0.520
 1669SOL    HW1 5029   2.320   0.352   0.458
 1669SOL    HW2 5030   2.251   0.384   0.603
 1670SOL     OW 5031   3.567   1.487   1.104
 1670SOL    HW1 5032   3.474   1.462   1.077
 1670SOL    HW2 5033   3.593   1.437   1.186
 1671SOL     OW 5034   2.179   0.547   1.280
 1671SOL    HW1 5035   2.217   0.488   1.352
 1671SOL    HW2 5036   2.219   0.521   1.192
 1672SOL     OW 5037   2.674   1.586   0.687
 1672SOL    HW1 5038   2.706   1.596   0.593
 1672SOL    HW2 5039   2.595   1.524   0.689
 1673SOL     OW 5040   3.286   0.214   1.112
 1673SOL    HW1 5041   3.338   0.149   1.167
 1673SOL    HW2 5042   3.237   0.277   1.173
 1674SOL     OW 5043   2.863   0.034   1.154
 1674SOL    HW1 5044   2.800  -0.038   1.123
 1674SOL    HW2 5045   2.956  -0.002   1.154
 1675SOL     OW 5046   2.632   1.330   0.301
 1675SOL    HW1 5047   2.586   1.243   0.318
 1675SOL    HW2 5048   2.723   1.327   0.342
 1676SOL     OW 5049   2.480   1.567   1.284
 1676SOL    HW1 5050   2.475   1.649   1.341
 1676SOL    HW2 5051   2.569   1.564   1.239
 1677SOL     OW 5052   3.214   0.052   0.168
 1677SOL    HW1 5053   3.249   0.011   0.084
 1677SOL    HW2 5054   3.124   0.014   0.188
 1678SOL     OW 5055   3.162   0.453   0.691
 1678SOL    HW1 5056   3.103   0.533   0.695
 1678SOL    HW2 5057   3.177   0.418   0.784
 1679SOL     OW 5058   3.455   0.221   0.882
 1679SOL    HW1 5059   3.371   0.220   0.936
 1679SOL    HW2 5060   3.457   0.304   0.826
 1680SOL     OW 5061   1.901   1.077   0.300
 1680SOL    HW1 5062   2.000   1.066   0.291
 1680SOL    HW2 5063   1.861   0.991   0.332
 1681SOL     OW 5064   2.737   1.646   0.337
 1681SOL    HW1 5065   2.660   1.611   0.283
 1681SOL    HW2 5066   2.705   1.717   0.399
 1682SOL     OW 5067   2.092   0.628   1.975
 1682SOL    HW1 5068   1.999   0.626   2.012
 1682SOL    HW2 5069   2.093   0.589   1.883
 1683SOL     OW 5070   2.087   0.275   2.858
 1683SOL    HW1 5071   2.122   0.258   2.950
 1683SOL    HW2 5072   1.999   0.230   2.846
 1684SOL     OW 5073   1.881   0.368   2.509
 1684SOL    HW1 5074   1.799   0.411   2.548
 1684SOL    HW2 5075   1.853   0.295   2.446
 1685SOL     OW 5076   2.431   1.275   3.027
 1685SOL    HW1 5077   2.338   1.268   2.990
 1685SOL    HW2 5078   2.442   1.364   3.071
 1686SOL     OW 5079   3.417   1.511   2.565
 1686SOL    HW1 5080   3.360   1.495   2.646
 1686SOL    HW2 5081   3.358   1.521   2.485
 1687SOL     OW 5082   2.997   0.703   2.579
 1687SOL    HW1 5083   3.054   0.781   2.554
 1687SOL    HW2 5084   2.937   0.729   2.655
 1688SOL     OW 5085   3.617   0.607   2.093
 1688SOL    HW1 5086   3.605   0.594   1.994
 1688SOL    HW2 5087   3.587   0.526   2.142
 1689SOL     OW 5088   2.630   1.144   2.885
 1689SOL    HW1 5089   2.552   1.161   2.945
 1689SOL    HW2 5090   2.664   1.231   2.849
 1690SOL     OW 5091   2.712   0.798   3.685
 1690SOL    HW1 5092   2.708   0.874   3.750
 1690SOL    HW2 5093   2.734   0.834   3.594
 1691SOL     OW 5094   2.547   1.012   2.527
 1691SOL    HW1 5095   2.616   0.996   2.597
 1691SOL    HW2 5096   2.474   1.069   2.565
 1692SOL     OW 5097   2.548   1.161   3.665
 1692SOL    HW1 5098   2.608   1.240   3.679
 1692SOL    HW2 5099   2.462   1.192   3.624
 1693SOL     OW 5100   2.197   1.435   2.923
 1693SOL    HW1 5101   2.119   1.404   2.870
 1693SOL    HW2 5102   2.255   1.493   2.866
 1694SOL     OW 5103   3.322   1.505   3.201
 1694SOL    HW1 5104   3.346   1.599   3.227
 1694SOL    HW2 5105   3.306   1.451   3.283
 1695SOL     OW 5106   2.300   0.392   3.361
 1695SOL    HW1 5107   2.382   0.336   3.370
 1695SOL    HW2 5108   2.219   0.334   3.365
 1696SOL     OW 5109   3.465   0.447   2.599
 1696SOL    HW1 5110   3.391   0.493   2.549
 1696SOL    HW2 5111   3.516   0.515   2.652
 1697SOL     OW 5112   2.093   1.713   2.345
 1697SOL    HW1 5113   2.127   1.790   2.399
 1697SOL    HW2 5114   2.137   1.713   2.255
 1698SOL     OW 5115   2.989   1.341   3.552
 1698SOL    HW1 5116   3.036   1.341   3.640
 1698SOL    HW2 5117   2.941   1.254   3.541
 1699SOL     OW 5118   2.092   1.434   2.400
 1699SOL    HW1 5119   2.066   1.530   2.400
 1699SOL    HW2 5120   2.021   1.380   2.445
 1700SOL     OW 5121   2.102   1.091   2.748
 1700SOL    HW1 5122   2.116   1.007   2.800
 1700SOL    HW2 5123   2.047   1.155   2.803
 1701SOL     OW 5124   2.482   1.786   3.301
 1701SOL    HW1 5125   2.390   1.769   3.336
 1701SOL    HW2 5126   2.510   1.878   3.327
 1702SOL     OW 5127   2.468   0.964   1.985
 1702SOL    HW1 5128   2.475   1.048   1.931
 1702SOL    HW2 5129   2.514   0.977   2.073
 1703SOL     OW 5130   3.456   0.114   3.342
 1703SOL    HW1 5131   3.438   0.181   3.270
 1703SOL    HW2 5132   3.453   0.160   3.431
 1704SOL     OW 5133   1.984   0.643   2.425
 1704SOL    HW1 5134   1.939   0.555   2.442
 1704SOL    HW2 5135   1.983   0.697   2.509
 1705SOL     OW 5136   3.704   1.767   2.221
 1705SOL    HW1 5137   3.758   1.738   2.301
 1705SOL    HW2 5138   3.734   1.857   2.192
 1706SOL     OW 5139   1.889   1.596   1.979
 1706SOL    HW1 5140   1.870   1.500   2.000
 1706SOL    HW2 5141   1.856   1.654   2.054
 1707SOL     OW 5142   3.551   0.922   2.474
 1707SOL    HW1 5143   3.646   0.893   2.482
 1707SOL    HW2 5144   3.543   0.987   2.399
 1708SOL     OW 5145   3.503   1.108   2.294
 1708SOL    HW1 5146   3.589   1.110   2.242
 1708SOL    HW2 5147   3.517   1.155   2.382
 1709SOL     OW 5148   1.975   0.737   3.459
 1709SOL    HW1 5149   2.063   0.724   3.504
 1709SOL    HW2 5150   1.962   0.834   3.437
 1710SOL     OW 5151   2.475   1.365   2.588
 1710SOL    HW1 5152   2.426   1.278   2.597
 1710SOL    HW2 5153   2.452   1.408   2.501
 1711SOL     OW 5154   3.155   1.228   3.285
 1711SOL    HW1 5155   3.192   1.155   3.227
 1711SOL    HW2 5156   3.207   1.233   3.370
 1712SOL     OW 5157   2.671   0.004   2.364
 1712SOL    HW1 5158   2.711   0.095   2.355
 1712SOL    HW2 5159   2.571   0.012   2.370
 1713SOL     OW 5160   2.059   0.976   3.126
 1713SOL    HW1 5161   2.148   0.931   3.112
 1713SOL    HW2 5162   1.986   0.911   3.107
 1714SOL     OW 5163   3.387   0.999   2.052
 1714SOL    HW1 5164   3.324   0.923   2.065
 1714SOL    HW2 5165   3.435   1.017   2.138
 1715SOL     OW 5166   3.049   1.792   3.478
 1715SOL    HW1 5167   3.073   1.852   3.402
 1715SOL    HW2 5168   3.056   1.697   3.448
 1716SOL     OW 5169   2.179   0.251   3.663
 1716SOL    HW1 5170   2.250   0.322   3.669
 1716SOL    HW2 5171   2.091   0.290   3.691
 1717SOL     OW 5172   3.328   1.417   2.815
 1717SOL    HW1 5173   3.269   1.423   2.895
 1717SOL    HW2 5174   3.313   1.329   2.769
 1718SOL     OW 5175   3.529   1.714   2.434
 1718SOL    HW1 5176   3.488   1.691   2.346
 1718SOL    HW2 5177   3.511   1.640   2.499
 1719SOL     OW 5178   2.460   0.729   2.132
 1719SOL    HW1 5179   2.484   0.798   2.064
 1719SOL    HW2 5180   2.382   0.762   2.186
 1720SOL     OW 5181   3.143   0.345   2.806
 1720SOL    HW1 5182   3.057   0.295   2.793
 1720SOL    HW2 5183   3.205   0.291   2.862
 1721SOL     OW 5184   3.438   1.662   2.169
 1721SOL    HW1 5185   3.527   1.708   2.172
 1721SOL    HW2 5186   3.417   1.638   2.074
 1722SOL     OW 5187   2.669   0.605   3.327
 1722SOL    HW1 5188   2.622   0.602   3.416
 1722SOL    HW2 5189   2.618   0.550   3.261
 1723SOL     OW 5190   3.256   0.469   3.536
 1723SOL    HW1 5191   3.236   0.512   3.624
 1723SOL    HW2 5192   3.334   0.407   3.545
 1724SOL     OW 5193   2.835   0.890   3.434
 1724SOL    HW1 5194   2.881   0.806   3.405
 1724SOL    HW2 5195   2.779   0.924   3.359
 1725SOL     OW 5196   2.853   0.410   3.104
 1725SOL    HW1 5197   2.776   0.444   3.158
 1725SOL    HW2 5198   2.819   0.359   3.025
 1726SOL     OW 5199   2.903   0.701   2.291
 1726SOL    HW1 5200   2.929   0.697   2.387
 1726SOL    HW2 5201   2.818   0.650   2.277
 1727SOL     OW 5202   1.938   0.811   2.651
 1727SOL    HW1 5203   2.037   0.799   2.660
 1727SOL    HW2 5204   1.914   0.906   2.672
 1728SOL     OW 5205   1.992   1.821   3.433
 1728SOL    HW1 5206   1.982   1.806   3.532
 1728SOL    HW2 5207   1.906   1.857   3.397
 1729SOL     OW 5208   2.727   0.348   2.057
 1729SOL    HW1 5209   2.786   0.411   2.008
 1729SOL    HW2 5210   2.746   0.254   2.028
 1730SOL     OW 5211   3.581   0.585   3.693
 1730SOL    HW1 5212   3.555   0.674   3.657
 1730SOL    HW2 5213   3.579   0.517   3.620
 1731SOL     OW 5214   3.224   1.144   2.407
 1731SOL    HW1 5215   3.307   1.115   2.359
 1731SOL    HW2 5216   3.175   1.211   2.351
 1732SOL     OW 5217   2.412   0.196   2.747
 1732SOL    HW1 5218   2.407   0.191   2.847
 1732SOL    HW2 5219   2.414   0.292   2.718
 1733SOL     OW 5220   2.870   1.456   2.339
 1733SOL    HW1 5221   2.824   1.528   2.287
 1733SOL    HW2 5222   2.866   1.476   2.437
 1734SOL     OW 5223   2.213   1.801   2.715
 1734SOL    HW1 5224   2.263   1.715   2.721
 1734SOL    HW2 5225   2.278   1.878   2.712
 1735SOL     OW 5226   3.657   1.066   2.735
 1735SOL    HW1 5227   3.595   1.051   2.659
 1735SOL    HW2 5228   3.605   1.077   2.820
 1736SOL     OW 5229   3.089   1.550   3.368
 1736SOL    HW1 5230   3.095   1.473   3.432
 1736SOL    HW2 5231   3.037   1.524   3.288
 1737SOL     OW 5232   2.183   0.943   2.104
 1737SOL    HW1 5233   2.265   0.982   2.062
 1737SOL    HW2 5234   2.156   0.861   2.055
 1738SOL     OW 5235   3.320   0.735   2.590
 1738SOL    HW1 5236   3.315   0.670   2.665
 1738SOL    HW2 5237   3.400   0.794   2.603
 1739SOL     OW 5238   2.323   1.266   3.589
 1739SOL    HW1 5239   2.273   1.267   3.503
 1739SOL    HW2 5240   2.260   1.248   3.665
 1740SOL     OW 5241   2.973   1.776   2.099
 1740SOL    HW1 5242   2.913   1.714   2.149
 1740SOL    HW2 5243   3.004   1.732   2.014
 1741SOL     OW 5244   2.064   0.285   3.360
 1741SOL    HW1 5245   1.984   0.345   3.347
 1741SOL    HW2 5246   2.054   0.236   3.446
 1742SOL     OW 5247   3.494   1.377   1.943
 1742SOL    HW1 5248   3.462   1.471   1.933
 1742SOL    HW2 5249   3.418   1.314   1.931
 1743SOL     OW 5250   2.326   1.743   2.185
 1743SOL    HW1 5251   2.359   1.782   2.271
 1743SOL    HW2 5252   2.402   1.736   2.120
 1744SOL     OW 5253   3.262   0.107   2.288
 1744SOL    HW1 5254   3.238   0.070   2.198
 1744SOL    HW2 5255   3.361   0.123   2.292
 1745SOL     OW 5256   2.111   1.785   3.103
 1745SOL    HW1 5257   2.168   1.720   3.153
 1745SOL    HW2 5258   2.095   1.752   3.010
 1746SOL     OW 5259   2.802   1.698   2.766
 1746SOL    HW1 5260   2.882   1.641   2.787
 1746SOL    HW2 5261   2.753   1.658   2.689
 1747SOL     OW 5262   2.244   0.700   2.342
 1747SOL    HW1 5263   2.289   0.610   2.339
 1747SOL    HW2 5264   2.150   0.689   2.375
 1748SOL     OW 5265   3.409   0.222   3.591
 1748SOL    HW1 5266   3.404   0.259   3.683
 1748SOL    HW2 5267   3.337   0.153   3.579
 1749SOL     OW 5268   2.476   0.122   1.979
 1749SOL    HW1 5269   2.574   0.100   1.986
 1749SOL    HW2 5270   2.445   0.105   1.886
 1750SOL     OW 5271   2.643   0.264   3.611
 1750SOL    HW1 5272   2.710   0.203   3.654
 1750SOL    HW2 5273   2.570   0.283   3.676
 1751SOL     OW 5274   2.750   1.514   3.057
 1751SOL    HW1 5275   2.727   1.489   2.963
 1751SOL    HW2 5276   2.811   1.445   3.096
 1752SOL     OW 5277   3.213   0.590   3.295
 1752SOL    HW1 5278   3.241   0.547   3.380
 1752SOL    HW2 5279   3.238   0.686   3.296
 1753SOL     OW 5280   2.665   1.402   2.786
 1753SOL    HW1 5281   2.755   1.416   2.744
 1753SOL    HW2 5282   2.594   1.404   2.715
 1754SOL     OW 5283   2.784   0.503   2.761
 1754SOL    HW1 5284   2.759   0.494   2.665
 1754SOL    HW2 5285   2.832   0.421   2.792
 1755SOL     OW 5286   2.401   0.064   2.374
 1755SOL    HW1 5287   2.320   0.065   2.432
 1755SOL    HW2 5288   2.404   0.147   2.319
 1756SOL     OW 5289   3.296   1.188   1.903
 1756SOL    HW1 5290   3.328   1.112   1.960
 1756SOL    HW2 5291   3.204   1.215   1.933
 1757SOL     OW 5292   2.159   0.035   2.033
 1757SOL    HW1 5293   2.208   0.119   2.012
 1757SOL    HW2 5294   2.221  -0.030   2.078
 1758SOL     OW 5295   2.797   0.236   2.342
 1758SOL    HW1 5296   2.749   0.277   2.264
 1758SOL    HW2 5297   2.896   0.234   2.323
 1759SOL     OW 5298   2.938   0.683   3.326
 1759SOL    HW1 5299   2.858   0.622   3.329
 1759SOL    HW2 5300   3.019   0.630   3.302
 1760SOL     OW 5301   3.089   1.570   2.655
 1760SOL    HW1 5302   3.110   1.644   2.590
 1760SOL    HW2 5303   3.157   1.570   2.728
 1761SOL     OW 5304   2.321   1.152   2.603
 1761SOL    HW1 5305   2.250   1.125   2.668
 1761SOL    HW2 5306   2.295   1.124   2.510
 1762SOL     OW 5307   3.133   1.797   2.453
 1762SOL    HW1 5308   3.177   1.861   2.389
 1762SOL    HW2 5309   3.083   1.849   2.523
 1763SOL     OW 5310   2.894   0.549   1.878
 1763SOL    HW1 5311   2.853   0.631   1.839
 1763SOL    HW2 5312   2.958   0.575   1.951
 1764SOL     OW 5313   1.940   0.556   3.248
 1764SOL    HW1 5314   2.032   0.555   3.207
 1764SOL    HW2 5315   1.934   0.630   3.315
 1765SOL     OW 5316   2.423   0.222   3.009
 1765SOL    HW1 5317   2.461   0.138   3.046
 1765SOL    HW2 5318   2.335   0.241   3.053
 1766SOL     OW 5319   2.728   0.454   2.504
 1766SOL    HW1 5320   2.696   0.526   2.442
 1766SOL    HW2 5321   2.752   0.373   2.451
 1767SOL     OW 5322   2.879   0.039   2.615
 1767SOL    HW1 5323   2.807   0.044   2.546
 1767SOL    HW2 5324   2.855  -0.030   2.684
 1768SOL     OW 5325   3.291   1.173   2.729
 1768SOL    HW1 5326   3.236   1.089   2.722
 1768SOL    HW2 5327   3.317   1.202   2.637
 1769SOL     OW 5328   3.328   0.590   2.854
 1769SOL    HW1 5329   3.298   0.495   2.861
 1769SOL    HW2 5330   3.401   0.606   2.920
 1770SOL     OW 5331   3.719   0.833   2.239
 1770SOL    HW1 5332   3.761   0.769   2.303
 1770SOL    HW2 5333   3.681   0.782   2.161
 1771SOL     OW 5334   2.350   1.385   2.036
 1771SOL    HW1 5335   2.263   1.370   2.083
 1771SOL    HW2 5336   2.333   1.411   1.941
 1772SOL     OW 5337   3.526   1.280   2.519
 1772SOL    HW1 5338   3.625   1.288   2.533
 1772SOL    HW2 5339   3.481   1.364   2.550
 1773SOL     OW 5340   3.252   0.575   1.940
 1773SOL    HW1 5341   3.198   0.554   2.021
 1773SOL    HW2 5342   3.343   0.534   1.949
 1774SOL     OW 5343   2.389   0.256   2.190
 1774SOL    HW1 5344   2.416   0.197   2.115
 1774SOL    HW2 5345   2.389   0.351   2.159
 1775SOL     OW 5346   3.616   1.223   3.450
 1775SOL    HW1 5347   3.707   1.184   3.437
 1775SOL    HW2 5348   3.624   1.319   3.474
 1776SOL     OW 5349   2.926   1.347   3.202
 1776SOL    HW1 5350   2.846   1.324   3.257
 1776SOL    HW2 5351   3.009   1.321   3.251
 1777SOL     OW 5352   3.454   1.629   3.487
 1777SOL    HW1 5353   3.481   1.663   3.397
 1777SOL    HW2 5354   3.533   1.591   3.533
 1778SOL     OW 5355   2.973   1.195   2.962
 1778SOL    HW1 5356   2.933   1.239   3.043
 1778SOL    HW2 5357   2.932   1.232   2.879
 1779SOL     OW 5358   3.500   1.099   2.941
 1779SOL    HW1 5359   3.505   1.180   3.000
 1779SOL    HW2 5360   3.414   1.101   2.890
 1780SOL     OW 5361   2.777   0.089   3.264
 1780SOL    HW1 5362   2.802   0.069   3.169
 1780SOL    HW2 5363   2.849   0.145   3.306
 1781SOL     OW 5364   2.842   1.116   3.581
 1781SOL    HW1 5365   2.743   1.122   3.591
 1781SOL    HW2 5366   2.865   1.036   3.525
 1782SOL     OW 5367   2.567   1.050   2.230
 1782SOL    HW1 5368   2.553   1.057   2.329
 1782SOL    HW2 5369   2.651   0.999   2.212
 1783SOL     OW 5370   2.272   0.813   3.113
 1783SOL    HW1 5371   2.358   0.825   3.163
 1783SOL    HW2 5372   2.230   0.726   3.140
 1784SOL     OW 5373   3.136   0.386   3.124
 1784SOL    HW1 5374   3.157   0.460   3.188
 1784SOL    HW2 5375   3.047   0.403   3.081
 1785SOL     OW 5376   1.926   1.564   3.193
 1785SOL    HW1 5377   1.880   1.646   3.159
 1785SOL    HW2 5378   2.024   1.583   3.202
 1786SOL     OW 5379   2.229   1.100   2.363
 1786SOL    HW1 5380   2.222   1.183   2.307
 1786SOL    HW2 5381   2.233   1.020   2.303
 1787SOL     OW 5382   2.428   0.537   2.727
 1787SOL    HW1 5383   2.440   0.603   2.653
 1787SOL    HW2 5384   2.474   0.571   2.810
 1788SOL     OW 5385   3.114   1.348   2.250
 1788SOL    HW1 5386   3.164   1.425   2.290
 1788SOL    HW2 5387   3.019   1.350   2.282
 1789SOL     OW 5388   3.134   1.445   3.004
 1789SOL    HW1 5389   3.181   1.458   3.091
 1789SOL    HW2 5390   3.068   1.371   3.013
 1790SOL     OW 5391   3.444   0.639   2.334
 1790SOL    HW1 5392   3.413   0.700   2.407
 1790SOL    HW2 5393   3.494   0.691   2.265
 1791SOL     OW 5394   2.216   1.510   3.191
 1791SOL    HW1 5395   2.195   1.466   3.104
 1791SOL    HW2 5396   2.313   1.536   3.194
 1792SOL     OW 5397   2.264   0.751   3.460
 1792SOL    HW1 5398   2.332   0.806   3.413
 1792SOL    HW2 5399   2.304   0.663   3.487
 1793SOL     OW 5400   3.449   0.779   3.532
 1793SOL    HW1 5401   3.357   0.817   3.527
 1793SOL    HW2 5402   3.509   0.826   3.467
 1794SOL     OW 5403   2.875   0.105   3.632
 1794SOL    HW1 5404   2.881   0.190   3.580
 1794SOL    HW2 5405   2.907   0.029   3.575
 1795SOL     OW 5406   2.366   0.050   3.602
 1795SOL    HW1 5407   2.324  -0.007   3.532
 1795SOL    HW2 5408   2.300   0.119   3.634
 1796SOL     OW 5409   2.435   0.870   2.891
 1796SOL    HW1 5410   2.479   0.959   2.882
 1796SOL    HW2 5411   2.372   0.870   2.968
 1797SOL     OW 5412   3.222   0.862   2.907
 1797SOL    HW1 5413   3.147   0.862   2.841
 1797SOL    HW2 5414   3.259   0.770   2.916
 1798SOL     OW 5415   3.071   0.525   2.137
 1798SOL    HW1 5416   3.084   0.441   2.191
 1798SOL    HW2 5417   3.042   0.599   2.197
 1799SOL     OW 5418   2.169   0.213   3.093
 1799SOL    HW1 5419   2.146   0.250   3.183
 1799SOL    HW2 5420   2.139   0.118   3.087
 1800SOL     OW 5421   1.899   1.310   3.144
 1800SOL    HW1 5422   1.952   1.261   3.212
 1800SOL    HW2 5423   1.921   1.408   3.149
 1801SOL     OW 5424   2.594   0.634   2.926
 1801SOL    HW1 5425   2.653   0.608   2.850
 1801SOL    HW2 5426   2.566   0.730   2.915
 1802SOL     OW 5427   3.590   0.935   3.716
 1802SOL    HW1 5428   3.544   0.928   3.627
 1802SOL    HW2 5429   3.528   0.979   3.782
 1803SOL     OW 5430   2.169   0.063   2.480
 1803SOL    HW1 5431   2.158   0.157   2.513
 1803SOL    HW2 5432   2.164   0.000   2.557
 1804SOL     OW 5433   3.484   0.367   2.236
 1804SOL    HW1 5434   3.486   0.291   2.300
 1804SOL    HW2 5435   3.436   0.444   2.276
 1805SOL     OW 5436   2.885   0.766   2.828
 1805SOL    HW1 5437   2.900   0.787   2.924
 1805SOL    HW2 5438   2.855   0.671   2.819
 1806SOL     OW 5439   2.842   1.573   3.562
 1806SOL    HW1 5440   2.822   1.617   3.474
 1806SOL    HW2 5441   2.881   1.482   3.546
 1807SOL     OW 5442   3.721   1.518   3.467
 1807SOL    HW1 5443   3.735   1.545   3.372
 1807SOL    HW2 5444   3.804   1.540   3.520
 1808SOL     OW 5445   2.212   0.898   3.666
 1808SOL    HW1 5446   2.288   0.942   3.714
 1808SOL    HW2 5447   2.247   0.851   3.584
 1809SOL     OW 5448   3.402   0.274   1.987
 1809SOL    HW1 5449   3.341   0.199   2.010
 1809SOL    HW2 5450   3.424   0.326   2.070
 1810SOL     OW 5451   3.165   0.838   1.904
 1810SOL    HW1 5452   3.199   0.745   1.919
 1810SOL    HW2 5453   3.183   0.865   1.809
 1811SOL     OW 5454   2.930   1.333   2.711
 1811SOL    HW1 5455   2.937   1.249   2.656
 1811SOL    HW2 5456   2.992   1.402   2.675
 1812SOL     OW 5457   2.181   0.810   2.811
 1812SOL    HW1 5458   2.274   0.846   2.816
 1812SOL    HW2 5459   2.175   0.725   2.863
 1813SOL     OW 5460   2.201   0.509   2.868
 1813SOL    HW1 5461   2.149   0.426   2.851
 1813SOL    HW2 5462   2.278   0.514   2.804
 1814SOL     OW 5463   3.000   0.380   3.540
 1814SOL    HW1 5464   2.955   0.443   3.604
 1814SOL    HW2 5465   3.093   0.411   3.523
 1815SOL     OW 5466   3.022   0.207   3.339
 1815SOL    HW1 5467   3.022   0.271   3.416
 1815SOL    HW2 5468   3.050   0.255   3.256
 1816SOL     OW 5469   1.870   1.326   2.062
 1816SOL    HW1 5470   1.777   1.347   2.031
 1816SOL    HW2 5471   1.880   1.227   2.075
 1817SOL     OW 5472   1.950   1.801   2.789
 1817SOL    HW1 5473   1.908   1.715   2.762
 1817SOL    HW2 5474   2.044   1.804   2.755
 1818SOL     OW 5475   2.366   1.568   2.772
 1818SOL    HW1 5476   2.432   1.642   2.781
 1818SOL    HW2 5477   2.410   1.489   2.730
 1819SOL     OW 5478   2.864   0.796   3.100
 1819SOL    HW1 5479   2.905   0.764   3.186
 1819SOL    HW2 5480   2.768   0.769   3.097
 1820SOL     OW 5481   1.902   0.544   2.976
 1820SOL    HW1 5482   1.987   0.511   2.935
 1820SOL    HW2 5483   1.915   0.559   3.074
 1821SOL     OW 5484   2.051   0.520   3.584
 1821SOL    HW1 5485   2.110   0.480   3.514
 1821SOL    HW2 5486   1.993   0.591   3.543
 1822SOL     OW 5487   3.231   0.950   3.522
 1822SOL    HW1 5488   3.270   1.039   3.542
 1822SOL    HW2 5489   3.241   0.930   3.425
 1823SOL     OW 5490   2.677   0.572   2.187
 1823SOL    HW1 5491   2.684   0.483   2.141
 1823SOL    HW2 5492   2.583   0.606   2.179
 1824SOL     OW 5493   3.519   0.604   3.068
 1824SOL    HW1 5494   3.481   0.535   3.130
 1824SOL    HW2 5495   3.601   0.568   3.024
 1825SOL     OW 5496   2.114   1.564   3.606
 1825SOL    HW1 5497   2.084   1.621   3.682
 1825SOL    HW2 5498   2.107   1.467   3.632
 1826SOL     OW 5499   2.533   0.464   3.131
 1826SOL    HW1 5500   2.499   0.375   3.101
 1826SOL    HW2 5501   2.559   0.518   3.051
 1827SOL     OW 5502   2.792   1.678   3.327
 1827SOL    HW1 5503   2.768   1.660   3.232
 1827SOL    HW2 5504   2.822   1.772   3.337
 1828SOL     OW 5505   2.335   0.500   2.053
 1828SOL    HW1 5506   2.396   0.580   2.057
 1828SOL    HW2 5507   2.240   0.531   2.060
 1829SOL     OW 5508   2.021   1.137   3.328
 1829SOL    HW1 5509   2.043   1.076   3.404
 1829SOL    HW2 5510   2.031   1.088   3.242
 1830SOL     OW 5511   3.209   1.059   3.096
 1830SOL    HW1 5512   3.233   0.996   3.022
 1830SOL    HW2 5513   3.119   1.099   3.078
 1831SOL     OW 5514   3.164   0.855   2.171
 1831SOL    HW1 5515   3.078   0.824   2.213
 1831SOL    HW2 5516   3.160   0.841   2.072
 1832SOL     OW 5517   3.621   1.747   3.016
 1832SOL    HW1 5518   3.682   1.777   2.943
 1832SOL    HW2 5519   3.583   1.658   2.994
 1833SOL     OW 5520   3.114   1.731   2.990
 1833SOL    HW1 5521   3.198   1.736   2.936
 1833SOL    HW2 5522   3.091   1.635   3.008
 1834SOL     OW 5523   1.945   1.258   2.884
 1834SOL    HW1 5524   1.940   1.257   2.984
 1834SOL    HW2 5525   1.862   1.217   2.846
 1835SOL     OW 5526   2.550   1.662   3.578
 1835SOL    HW1 5527   2.494   1.743   3.587
 1835SOL    HW2 5528   2.602   1.666   3.492
 1836SOL     OW 5529   3.588   0.135   2.385
 1836SOL    HW1 5530   3.661   0.118   2.318
 1836SOL    HW2 5531   3.557   0.048   2.423
 1837SOL     OW 5532   3.250   1.573   2.339
 1837SOL    HW1 5533   3.317   1.585   2.265
 1837SOL    HW2 5534   3.210   1.662   2.362
 1838SOL     OW 5535   1.992   1.794   3.713
 1838SOL    HW1 5536   1.951   1.720   3.766
 1838SOL    HW2 5537   2.056   1.845   3.771
 1839SOL     OW 5538   3.142   0.927   2.534
 1839SOL    HW1 5539   3.202   0.846   2.536
 1839SOL    HW2 5540   3.182   0.996   2.474
 1840SOL     OW 5541   2.692   1.273   3.284
 1840SOL    HW1 5542   2.687   1.306   3.379
 1840SOL    HW2 5543   2.606   1.292   3.238
 1841SOL     OW 5544   2.534   1.616   2.016
 1841SOL    HW1 5545   2.543   1.626   1.917
 1841SOL    HW2 5546   2.494   1.527   2.037
 1842SOL     OW 5547   3.512   1.720   3.256
 1842SOL    HW1 5548   3.565   1.730   3.172
 1842SOL    HW2 5549   3.485   1.810   3.290
 1843SOL     OW 5550   3.703   0.175   2.825
 1843SOL    HW1 5551   3.742   0.090   2.789
 1843SOL    HW2 5552   3.605   0.177   2.806
 1844SOL     OW 5553   2.125   0.326   2.582
 1844SOL    HW1 5554   2.046   0.377   2.548
 1844SOL    HW2 5555   2.116   0.311   2.680
 1845SOL     OW 5556   3.056   1.612   1.893
 1845SOL    HW1 5557   3.062   1.519   1.930
 1845SOL    HW2 5558   2.997   1.612   1.813
 1846SOL     OW 5559   2.684   1.002   3.234
 1846SOL    HW1 5560   2.724   1.001   3.142
 1846SOL    HW2 5561   2.694   1.094   3.274
 1847SOL     OW 5562   2.778   0.910   2.153
 1847SOL    HW1 5563   2.841   0.948   2.085
 1847SOL    HW2 5564   2.818   0.827   2.192
 1848SOL     OW 5565   3.366   1.607   1.906
 1848SOL    HW1 5566   3.274   1.644   1.913
 1848SOL    HW2 5567   3.404   1.627   1.816
 1849SOL     OW 5568   2.234   1.288   3.352
 1849SOL    HW1 5569   2.221   1.381   3.318
 1849SOL    HW2 5570   2.150   1.236   3.339
 1850SOL     OW 5571   3.476   1.292   3.151
 1850SOL    HW1 5572   3.536   1.295   3.231
 1850SOL    HW2 5573   3.401   1.356   3.164
 1851SOL     OW 5574   2.901   1.098   2.558
 1851SOL    HW1 5575   2.831   1.051   2.612
 1851SOL    HW2 5576   2.960   1.030   2.515
 1852SOL     OW 5577   2.876   0.236   2.833
 1852SOL    HW1 5578   2.868   0.200   2.740
 1852SOL    HW2 5579   2.874   0.160   2.898
 1853SOL     OW 5580   2.452   1.487   2.353
 1853SOL    HW1 5581   2.494   1.429   2.283
 1853SOL    HW2 5582   2.408   1.566   2.309
 1854SOL     OW 5583   3.571   0.385   3.243
 1854SOL    HW1 5584   3.644   0.454   3.247
 1854SOL    HW2 5585   3.599   0.310   3.184
 1855SOL     OW 5586   2.117   1.348   2.152
 1855SOL    HW1 5587   2.021   1.349   2.125
 1855SOL    HW2 5588   2.129   1.401   2.236
 1856SOL     OW 5589   1.967   1.013   3.588
 1856SOL    HW1 5590   1.890   0.980   3.642
 1856SOL    HW2 5591   2.052   0.983   3.630
 1857SOL     OW 5592   2.534   0.203   3.351
 1857SOL    HW1 5593   2.624   0.187   3.311
 1857SOL    HW2 5594   2.542   0.208   3.450
 1858SOL     OW 5595   1.937   0.345   1.895
 1858SOL    HW1 5596   1.845   0.317   1.866
 1858SOL    HW2 5597   1.968   0.422   1.839
 1859SOL     OW 5598   3.302   0.856   3.260
 1859SOL    HW1 5599   3.245   0.908   3.197
 1859SOL    HW2 5600   3.398   0.868   3.236
 1860SOL     OW 5601   1.934   0.166   2.180
 1860SOL    HW1 5602   1.917   0.249   2.126
 1860SOL    HW2 5603   2.024   0.129   2.158
 1861SOL     OW 5604   3.045   1.335   1.981
 1861SOL    HW1 5605   2.946   1.324   1.983
 1861SOL    HW2 5606   3.079   1.350   2.074
 1862SOL     OW 5607   2.475   0.842   3.293
 1862SOL    HW1 5608   2.531   0.923   3.276
 1862SOL    HW2 5609   2.534   0.762   3.296
 1863SOL     OW 5610   3.355   1.767   2.821
 1863SOL    HW1 5611   3.388   1.831   2.752
 1863SOL    HW2 5612   3.421   1.761   2.896
 1864SOL     OW 5613   2.578   0.565   3.570
 1864SOL    HW1 5614   2.597   0.630   3.644
 1864SOL    HW2 5615   2.638   0.485   3.579
 1865SOL     OW 5616   3.312   1.220   3.495
 1865SOL    HW1 5617   3.303   1.210   3.594
 1865SOL    HW2 5618   3.408   1.213   3.469
 1866SOL     OW 5619   2.252   1.741   3.422
 1866SOL    HW1 5620   2.161   1.782   3.420
 1866SOL    HW2 5621   2.245   1.647   3.454
 1867SOL     OW 5622   3.536   0.883   3.116
 1867SOL    HW1 5623   3.509   0.794   3.079
 1867SOL    HW2 5624   3.537   0.951   3.043
 1868SOL     OW 5625   3.087   0.325   2.311
 1868SOL    HW1 5626   3.152   0.251   2.300
 1868SOL    HW2 5627   3.107   0.375   2.395
 1869SOL     OW 5628   2.456   0.745   2.514
 1869SOL    HW1 5629   2.506   0.830   2.495
 1869SOL    HW2 5630   2.368   0.747   2.466
 1870SOL     OW 5631   3.639   0.342   3.504
 1870SOL    HW1 5632   3.622   0.373   3.410
 1870SOL    HW2 5633   3.555   0.305   3.542
 1871SOL     OW 5634   3.592   0.934   3.379
 1871SOL    HW1 5635   3.630   1.025   3.394
 1871SOL    HW2 5636   3.584   0.917   3.280
 1872SOL     OW 5637   2.721   1.374   1.878
 1872SOL    HW1 5638   2.675   1.389   1.966
 1872SOL    HW2 5639   2.765   1.459   1.848
 1873SOL     OW 5640   2.523   1.790   2.815
 1873SOL    HW1 5641   2.477   1.878   2.802
 1873SOL    HW2 5642   2.622   1.802   2.808
 1874SOL     OW 5643   2.721   0.956   2.723
 1874SOL    HW1 5644   2.775   0.887   2.771
 1874SOL    HW2 5645   2.689   1.025   2.789
 1875SOL     OW 5646   2.945   0.984   1.949
 1875SOL    HW1 5647   2.922   1.037   1.867
 1875SOL    HW2 5648   3.026   0.928   1.930
 1876SOL     OW 5649   3.723   1.569   2.713
 1876SOL    HW1 5650   3.652   1.557   2.643
 1876SOL    HW2 5651   3.724   1.490   2.773
 1877SOL     OW 5652   2.083   1.314   3.706
 1877SOL    HW1 5653   2.018   1.241   3.685
 1877SOL    HW2 5654   2.087   1.328   3.804
 1878SOL     OW 5655   1.941   1.240   2.515
 1878SOL    HW1 5656   1.940   1.193   2.603
 1878SOL    HW2 5657   2.023   1.212   2.464
 1879SOL     OW 5658   2.534   1.391   3.486
 1879SOL    HW1 5659   2.456   1.341   3.524
 1879SOL    HW2 5660   2.531   1.486   3.517
 1880SOL     OW 5661   3.686   0.192   3.089
 1880SOL    HW1 5662   3.682   0.102   3.133
 1880SOL    HW2 5663   3.689   0.181   2.990
 1881SOL     OW 5664   2.290   0.424   2.382
 1881SOL    HW1 5665   2.320   0.352   2.320
 1881SOL    HW2 5666   2.251   0.384   2.465
 1882SOL     OW 5667   3.567   1.487   2.966
 1882SOL    HW1 5668   3.474   1.462   2.939
 1882SOL    HW2 5669   3.593   1.437   3.048
 1883SOL     OW 5670   2.179   0.547   3.142
 1883SOL    HW1 5671   2.217   0.488   3.214
 1883SOL    HW2 5672   2.219   0.521   3.054
 1884SOL     OW 5673   2.674   1.586   2.549
 1884SOL    HW1 5674   2.706   1.596   2.455
 1884SOL    HW2 5675   2.595   1.524   2.551
 1885SOL     OW 5676   3.286   0.214   2.974
 1885SOL    HW1 5677   3.338   0.149   3.029
 1885SOL    HW2 5678   3.237   0.277   3.035
 1886SOL     OW 5679   2.863   0.034   3.016
 1886SOL    HW1 5680   2.800  -0.038   2.985
 1886SOL    HW2 5681   2.956  -0.002   3.016
 1887SOL     OW 5682   2.632   1.330   2.163
 1887SOL    HW1 5683   2.586   1.243   2.180
 1887SOL    HW2 5684   2.723   1.327   2.204
 1888SOL     OW 5685   2.480   1.567   3.146
 1888SOL    HW1 5686   2.475   1.649   3.203
 1888SOL    HW2 5687   2.569   1.564   3.101
 1889SOL     OW 5688   3.214   0.052   2.030
 1889SOL    HW1 5689   3.249   0.011   1.946
 1889SOL    HW2 5690   3.124   0.014   2.050
 1890SOL     OW 5691   3.162   0.453   2.553
 1890SOL    HW1 5692   3.103   0.533   2.557
 1890SOL    HW2 5693   3.177   0.418   2.646
 1891SOL     OW 5694   3.455   0.221   2.744
 1891SOL    HW1 5695   3.371   0.220   2.798
 1891SOL    HW2 5696   3.457   0.304   2.688
 1892SOL     OW 5697   1.901   1.077   2.162
 1892SOL    HW1 5698   2.000   1.066   2.153
 1892SOL    HW2 5699   1.861   0.991   2.194
 1893SOL     OW 5700   2.737   1.646   2.199
 1893SOL    HW1 5701   2.660   1.611   2.145
 1893SOL    HW2 5702   2.705   1.717   2.261
 1894SOL     OW 5703   2.092   0.628   3.837
 1894SOL    HW1 5704   1.999   0.626   3.874
 1894SOL    HW2 5705   2.093   0.589   3.745
 1895SOL     OW 5706   2.087   0.275   4.720
 1895SOL    HW1 5707   2.122   0.258   4.812
 1895SOL    HW2 5708   1.999   0.230   4.708
 1896SOL     OW 5709   1.881   0.368   4.371
 1896SOL    HW1 5710   1.799   0.411   4.410
 1896SOL    HW2 5711   1.853   0.295   4.308
 1897SOL     OW 5712   3.417   1.511   4.427
 1897SOL    HW1 5713   3.360   1.495   4.508
 1897SOL    HW2 5714   3.358   1.521   4.347
 1898SOL     OW 5715   2.997   0.703   4.441
 1898SOL    HW1 5716   3.054   0.781   4.416
 1898SOL    HW2 5717   2.937   0.729   4.517
 1899SOL     OW 5718   3.617   0.607   3.955
 1899SOL    HW1 5719   3.605   0.594   3.856
 1899SOL    HW2 5720   3.587   0.526   4.004
 1900SOL     OW 5721   2.630   1.144   4.747
 1900SOL    HW1 5722   2.552   1.161   4.807
 1900SOL    HW2 5723   2.664   1.231   4.711
 1901SOL     OW 5724   2.547   1.012   4.389
 1901SOL    HW1 5725   2.616   0.996   4.459
 1901SOL    HW2 5726   2.474   1.069   4.427
 1902SOL     OW 5727   2.197   1.435   4.785
 1902SOL    HW1 5728   2.119   1.404   4.732
 1902SOL    HW2 5729   2.255   1.493   4.728
 1903SOL     OW 5730   3.465   0.447   4.461
 1903SOL    HW1 5731   3.391   0.493   4.411
 1903SOL    HW2 5732   3.516   0.515   4.514
 1904SOL     OW 5733   2.093   1.713   4.207
 1904SOL    HW1 5734   2.127   1.790   4.261
 1904SOL    HW2 5735   2.137   1.713   4.117
 1905SOL     OW 5736   2.092   1.434   4.262
 1905SOL    HW1 5737   2.066   1.530   4.262
 1905SOL    HW2 5738   2.021   1.380   4.307
 1906SOL     OW 5739   2.102   1.091   4.610
 1906SOL    HW1 5740   2.116   1.007   4.662
 1906SOL    HW2 5741   2.047   1.155   4.665
 1907SOL     OW 5742   2.468   0.964   3.847
 1907SOL    HW1 5743   2.475   1.048   3.793
 1907SOL    HW2 5744   2.514   0.977   3.935
 1908SOL     OW 5745   1.984   0.643   4.287
 1908SOL    HW1 5746   1.939   0.555   4.304
 1908SOL    HW2 5747   1.983   0.697   4.371
 1909SOL     OW 5748   3.704   1.767   4.083
 1909SOL    HW1 5749   3.758   1.738   4.163
 1909SOL    HW2 5750   3.734   1.857   4.054
 1910SOL     OW 5751   1.889   1.596   3.841
 1910SOL    HW1 5752   1.870   1.500   3.862
 1910SOL    HW2 5753   1.856   1.654   3.916
 1911SOL     OW 5754   3.551   0.922   4.336
 1911SOL    HW1 5755   3.646   0.893   4.344
 1911SOL    HW2 5756   3.543   0.987   4.261
 1912SOL     OW 5757   3.503   1.108   4.156
 1912SOL    HW1 5758   3.589   1.110   4.104
 1912SOL    HW2 5759   3.517   1.155   4.244
 1913SOL     OW 5760   2.475   1.365   4.450
 1913SOL    HW1 5761   2.426   1.278   4.459
 1913SOL    HW2 5762   2.452   1.408   4.363
 1914SOL     OW 5763   2.671   0.004   4.226
 1914SOL    HW1 5764   2.711   0.095   4.217
 1914SOL    HW2 5765   2.571   0.012   4.232
 1915SOL     OW 5766   2.059   0.976   4.988
 1915SOL    HW1 5767   2.148   0.931   4.974
 1915SOL    HW2 5768   1.986   0.911   4.969
 1916SOL     OW 5769   3.387   0.999   3.914
 1916SOL    HW1 5770   3.324   0.923   3.927
 1916SOL    HW2 5771   3.435   1.017   4.000
 1917SOL     OW 5772   3.328   1.417   4.677
 1917SOL    HW1 5773   3.269   1.423   4.757
 1917SOL    HW2 5774   3.313   1.329   4.631
 1918SOL     OW 5775   3.529   1.714   4.296
 1918SOL    HW1 5776   3.488   1.691   4.208
 1918SOL    HW2 5777   3.511   1.640   4.361
 1919SOL     OW 5778   2.460   0.729   3.994
 1919SOL    HW1 5779   2.484   0.798   3.926
 1919SOL    HW2 5780   2.382   0.762   4.048
 1920SOL     OW 5781   3.143   0.345   4.668
 1920SOL    HW1 5782   3.057   0.295   4.655
 1920SOL    HW2 5783   3.205   0.291   4.724
 1921SOL     OW 5784   3.438   1.662   4.031
 1921SOL    HW1 5785   3.527   1.708   4.034
 1921SOL    HW2 5786   3.417   1.638   3.936
 1922SOL     OW 5787   2.903   0.701   4.153
 1922SOL    HW1 5788   2.929   0.697   4.249
 1922SOL    HW2 5789   2.818   0.650   4.139
 1923SOL     OW 5790   1.938   0.811   4.513
 1923SOL    HW1 5791   2.037   0.799   4.522
 1923SOL    HW2 5792   1.914   0.906   4.534
 1924SOL     OW 5793   2.727   0.348   3.919
 1924SOL    HW1 5794   2.786   0.411   3.870
 1924SOL    HW2 5795   2.746   0.254   3.890
 1925SOL     OW 5796   3.224   1.144   4.269
 1925SOL    HW1 5797   3.307   1.115   4.221
 1925SOL    HW2 5798   3.175   1.211   4.213
 1926SOL     OW 5799   2.412   0.196   4.609
 1926SOL    HW1 5800   2.407   0.191   4.709
 1926SOL    HW2 5801   2.414   0.292   4.580
 1927SOL     OW 5802   2.870   1.456   4.201
 1927SOL    HW1 5803   2.824   1.528   4.149
 1927SOL    HW2 5804   2.866   1.476   4.299
 1928SOL     OW 5805   2.213   1.801   4.577
 1928SOL    HW1 5806   2.263   1.715   4.583
 1928SOL    HW2 5807   2.278   1.878   4.574
 1929SOL     OW 5808   3.657   1.066   4.597
 1929SOL    HW1 5809   3.595   1.051   4.521
 1929SOL    HW2 5810   3.605   1.077   4.682
 1930SOL     OW 5811   2.183   0.943   3.966
 1930SOL    HW1 5812   2.265   0.982   3.924
 1930SOL    HW2 5813   2.156   0.861   3.917
 1931SOL     OW 5814   3.320   0.735   4.452
 1931SOL    HW1 5815   3.315   0.670   4.527
 1931SOL    HW2 5816   3.400   0.794   4.465
 1932SOL     OW 5817   2.973   1.776   3.961
 1932SOL    HW1 5818   2.913   1.714   4.011
 1932SOL    HW2 5819   3.004   1.732   3.876
 1933SOL     OW 5820   3.494   1.377   3.805
 1933SOL    HW1 5821   3.462   1.471   3.795
 1933SOL    HW2 5822   3.418   1.314   3.793
 1934SOL     OW 5823   2.326   1.743   4.047
 1934SOL    HW1 5824   2.359   1.782   4.133
 1934SOL    HW2 5825   2.402   1.736   3.982
 1935SOL     OW 5826   3.262   0.107   4.150
 1935SOL    HW1 5827   3.238   0.070   4.060
 1935SOL    HW2 5828   3.361   0.123   4.154
 1936SOL     OW 5829   2.111   1.785   4.965
 1936SOL    HW1 5830   2.168   1.720   5.015
 1936SOL    HW2 5831   2.095   1.752   4.872
 1937SOL     OW 5832   2.802   1.698   4.628
 1937SOL    HW1 5833   2.882   1.641   4.649
 1937SOL    HW2 5834   2.753   1.658   4.551
 1938SOL     OW 5835   2.244   0.700   4.204
 1938SOL    HW1 5836   2.289   0.610   4.201
 1938SOL    HW2 5837   2.150   0.689   4.237
 1939SOL     OW 5838   2.476   0.122   3.841
 1939SOL    HW1 5839   2.574   0.100   3.848
 1939SOL    HW2 5840   2.445   0.105   3.748
 1940SOL     OW 5841   2.665   1.402   4.648
 1940SOL    HW1 5842   2.755   1.416   4.606
 1940SOL    HW2 5843   2.594   1.404   4.577
 1941SOL     OW 5844   2.784   0.503   4.623
 1941SOL    HW1 5845   2.759   0.494   4.527
 1941SOL    HW2 5846   2.832   0.421   4.654
 1942SOL     OW 5847   2.401   0.064   4.236
 1942SOL    HW1 5848   2.320   0.065   4.294
 1942SOL    HW2 5849   2.404   0.147   4.181
 1943SOL     OW 5850   3.296   1.188   3.765
 1943SOL    HW1 5851   3.328   1.112   3.822
 1943SOL    HW2 5852   3.204   1.215   3.795
 1944SOL     OW 5853   2.159   0.035   3.895
 1944SOL    HW1 5854   2.208   0.119   3.874
 1944SOL    HW2 5855   2.221  -0.030   3.940
 1945SOL     OW 5856   2.797   0.236   4.204
 1945SOL    HW1 5857   2.749   0.277   4.126
 1945SOL    HW2 5858   2.896   0.234   4.185
 1946SOL     OW 5859   3.089   1.570   4.517
 1946SOL    HW1 5860   3.110   1.644   4.452
 1946SOL    HW2 5861   3.157   1.570   4.590
 1947SOL     OW 5862   2.321   1.152   4.465
 1947SOL    HW1 5863   2.250   1.125   4.530
 1947SOL    HW2 5864   2.295   1.124   4.372
 1948SOL     OW 5865   3.133   1.797   4.315
 1948SOL    HW1 5866   3.177   1.861   4.251
 1948SOL    HW2 5867   3.083   1.849   4.385
 1949SOL     OW 5868   2.894   0.549   3.740
 1949SOL    HW1 5869   2.853   0.631   3.701
 1949SOL    HW2 5870   2.958   0.575   3.813
 1950SOL     OW 5871   2.728   0.454   4.366
 1950SOL    HW1 5872   2.696   0.526   4.304
 1950SOL    HW2 5873   2.752   0.373   4.313
 1951SOL     OW 5874   2.879   0.039   4.477
 1951SOL    HW1 5875   2.807   0.044   4.408
 1951SOL    HW2 5876   2.855  -0.030   4.546
 1952SOL     OW 5877   3.291   1.173   4.591
 1952SOL    HW1 5878   3.236   1.089   4.584
 1952SOL    HW2 5879   3.317   1.202   4.499
 1953SOL     OW 5880   3.328   0.590   4.716
 1953SOL    HW1 5881   3.298   0.495   4.723
 1953SOL    HW2 5882   3.401   0.606   4.782
 1954SOL     OW 5883   3.719   0.833   4.101
 1954SOL    HW1 5884   3.761   0.769   4.165
 1954SOL    HW2 5885   3.681   0.782   4.023
 1955SOL     OW 5886   2.350   1.385   3.898
 1955SOL    HW1 5887   2.263   1.370   3.945
 1955SOL    HW2 5888   2.333   1.411   3.803
 1956SOL     OW 5889   3.526   1.280   4.381
 1956SOL    HW1 5890   3.625   1.288   4.395
 1956SOL    HW2 5891   3.481   1.364   4.412
 1957SOL     OW 5892   3.252   0.575   3.802
 1957SOL    HW1 5893   3.198   0.554   3.883
 1957SOL    HW2 5894   3.343   0.534   3.811
 1958SOL     OW 5895   2.389   0.256   4.052
 1958SOL    HW1 5896   2.416   0.197   3.977
 1958SOL    HW2 5897   2.389   0.351   4.021
 1959SOL     OW 5898   2.973   1.195   4.824
 1959SOL    HW1 5899   2.933   1.239   4.905
 1959SOL    HW2 5900   2.932   1.232   4.741
 1960SOL     OW 5901   3.500   1.099   4.803
 1960SOL    HW1 5902   3.505   1.180   4.862
 1960SOL    HW2 5903   3.414   1.101   4.752
 1961SOL     OW 5904   2.567   1.050   4.092
 1961SOL    HW1 5905   2.553   1.057   4.191
 1961SOL    HW2 5906   2.651   0.999   4.074
 1962SOL     OW 5907   2.272   0.813   4.975
 1962SOL    HW1 5908   2.358   0.825   5.025
 1962SOL    HW2 5909   2.230   0.726   5.002
 1963SOL     OW 5910   2.229   1.100   4.225
 1963SOL    HW1 5911   2.222   1.183   4.169
 1963SOL    HW2 5912   2.233   1.020   4.165
 1964SOL     OW 5913   2.428   0.537   4.589
 1964SOL    HW1 5914   2.440   0.603   4.515
 1964SOL    HW2 5915   2.474   0.571   4.672
 1965SOL     OW 5916   3.114   1.348   4.112
 1965SOL    HW1 5917   3.164   1.425   4.152
 1965SOL    HW2 5918   3.019   1.350   4.144
 1966SOL     OW 5919   3.444   0.639   4.196
 1966SOL    HW1 5920   3.413   0.700   4.269
 1966SOL    HW2 5921   3.494   0.691   4.127
 1967SOL     OW 5922   2.216   1.510   5.053
 1967SOL    HW1 5923   2.195   1.466   4.966
 1967SOL    HW2 5924   2.313   1.536   5.056
 1968SOL     OW 5925   2.435   0.870   4.753
 1968SOL    HW1 5926   2.479   0.959   4.744
 1968SOL    HW2 5927   2.372   0.870   4.830
 1969SOL     OW 5928   3.071   0.525   3.999
 1969SOL    HW1 5929   3.084   0.441   4.053
 1969SOL    HW2 5930   3.042   0.599   4.059
 1970SOL     OW 5931   2.594   0.634   4.788
 1970SOL    HW1 5932   2.653   0.608   4.712
 1970SOL    HW2 5933   2.566   0.730   4.777
 1971SOL     OW 5934   2.169   0.063   4.342
 1971SOL    HW1 5935   2.158   0.157   4.375
 1971SOL    HW2 5936   2.164   0.000   4.419
 1972SOL     OW 5937   3.484   0.367   4.098
 1972SOL    HW1 5938   3.486   0.291   4.162
 1972SOL    HW2 5939   3.436   0.444   4.138
 1973SOL     OW 5940   2.885   0.766   4.690
 1973SOL    HW1 5941   2.900   0.787   4.786
 1973SOL    HW2 5942   2.855   0.671   4.681
 1974SOL     OW 5943   3.402   0.274   3.849
 1974SOL    HW1 5944   3.341   0.199   3.872
 1974SOL    HW2 5945   3.424   0.326   3.932
 1975SOL     OW 5946   3.165   0.838   3.766
 1975SOL    HW1 5947   3.199   0.745   3.781
 1975SOL    HW2 5948   3.183   0.865   3.671
 1976SOL     OW 5949   2.930   1.333   4.573
 1976SOL    HW1 5950   2.937   1.249   4.518
 1976SOL    HW2 5951   2.992   1.402   4.537
 1977SOL     OW 5952   2.181   0.810   4.673
 1977SOL    HW1 5953   2.274   0.846   4.678
 1977SOL    HW2 5954   2.175   0.725   4.725
 1978SOL     OW 5955   2.201   0.509   4.730
 1978SOL    HW1 5956   2.149   0.426   4.713
 1978SOL    HW2 5957   2.278   0.514   4.666
 1979SOL     OW 5958   1.870   1.326   3.924
 1979SOL    HW1 5959   1.777   1.347   3.893
 1979SOL    HW2 5960   1.880   1.227   3.937
 1980SOL     OW 5961   1.950   1.801   4.651
 1980SOL    HW1 5962   1.908   1.715   4.624
 1980SOL    HW2 5963   2.044   1.804   4.617
 1981SOL     OW 5964   2.366   1.568   4.634
 1981SOL    HW1 5965   2.432   1.642   4.643
 1981SOL    HW2 5966   2.410   1.489   4.592
 1982SOL     OW 5967   2.864   0.796   4.962
 1982SOL    HW1 5968   2.905   0.764   5.048
 1982SOL    HW2 5969   2.768   0.769   4.959
 1983SOL     OW 5970   1.902   0.544   4.838
 1983SOL    HW1 5971   1.987   0.511   4.797
 1983SOL    HW2 5972   1.915   0.559   4.936
 1984SOL     OW 5973   2.677   0.572   4.049
 1984SOL    HW1 5974   2.684   0.483   4.003
 1984SOL    HW2 5975   2.583   0.606   4.041
 1985SOL     OW 5976   2.533   0.464   4.993
 1985SOL    HW1 5977   2.499   0.375   4.963
 1985SOL    HW2 5978   2.559   0.518   4.913
 1986SOL     OW 5979   2.335   0.500   3.915
 1986SOL    HW1 5980   2.396   0.580   3.919
 1986SOL    HW2 5981   2.240   0.531   3.922
 1987SOL     OW 5982   3.164   0.855   4.033
 1987SOL    HW1 5983   3.078   0.824   4.075
 1987SOL    HW2 5984   3.160   0.841   3.934
 1988SOL     OW 5985   3.621   1.747   4.878
 1988SOL    HW1 5986   3.682   1.777   4.805
 1988SOL    HW2 5987   3.583   1.658   4.856
 1989SOL     OW 5988   1.945   1.258   4.746
 1989SOL    HW1 5989   1.940   1.257   4.846
 1989SOL    HW2 5990   1.862   1.217   4.708
 1990SOL     OW 5991   3.588   0.135   4.247
 1990SOL    HW1 5992   3.661   0.118   4.180
 1990SOL    HW2 5993   3.557   0.048   4.285
 1991SOL     OW 5994   3.250   1.573   4.201
 1991SOL    HW1 5995   3.317   1.585   4.127
 1991SOL    HW2 5996   3.210   1.662   4.224
 1992SOL     OW 5997   3.142   0.927   4.396
 1992SOL    HW1 5998   3.202   0.846   4.398
 1992SOL    HW2 5999   3.182   0.996   4.336
 1993SOL     OW 6000   2.534   1.616   3.878
 1993SOL    HW1 6001   2.543   1.626   3.779
 1993SOL    HW2 6002   2.494   1.527   3.899
 1994SOL     OW 6003   3.703   0.175   4.687
 1994SOL    HW1 6004   3.742   0.090   4.651
 1994SOL    HW2 6005   3.605   0.177   4.668
 1995SOL     OW 6006   2.125   0.326   4.444
 1995SOL    HW1 6007   2.046   0.377   4.410
 1995SOL    HW2 6008   2.116   0.311   4.542
 1996SOL     OW 6009   3.056   1.612   3.755
 1996SOL    HW1 6010   3.062   1.519   3.792
 1996SOL    HW2 6011   2.997   1.612   3.675
 1997SOL     OW 6012   2.778   0.910   4.015
 1997SOL    HW1 6013   2.841   0.948   3.947
 1997SOL    HW2 6014   2.818   0.827   4.054
 1998SOL     OW 6015   3.366   1.607   3.768
 1998SOL    HW1 6016   3.274   1.644   3.775
 1998SOL    HW2 6017   3.404   1.627   3.678
 1999SOL     OW 6018   2.901   1.098   4.420
 1999SOL    HW1 6019   2.831   1.051   4.474
 1999SOL    HW2 6020   2.960   1.030   4.377
 2000SOL     OW 6021   2.876   0.236   4.695
 2000SOL    HW1 6022   2.868   0.200   4.602
 2000SOL    HW2 6023   2.874   0.160   4.760
 2001SOL     OW 6024   2.452   1.487   4.215
 2001SOL    HW1 6025   2.494   1.429   4.145
 2001SOL    HW2 6026   2.408   1.566   4.171
 2002SOL     OW 6027   2.117   1.348   4.014
 2002SOL    HW1 6028   2.021   1.349   3.987
 2002SOL    HW2 6029   2.129   1.401   4.098
 2003SOL     OW 6030   1.937   0.345   3.757
 2003SOL    HW1 6031   1.845   0.317   3.728
 2003SOL    HW2 6032   1.968   0.422   3.701
 2004SOL     OW 6033   1.934   0.166   4.042
 2004SOL    HW1 6034   1.917   0.249   3.988
 2004SOL    HW2 6035   2.024   0.129   4.020
 2005SOL     OW 6036   3.045   1.335   3.843
 2005SOL    HW1 6037   2.946   1.324   3.845
 2005SOL    HW2 6038   3.079   1.350   3.936
 2006SOL     OW 6039   3.355   1.767   4.683
 2006SOL    HW1 6040   3.388   1.831   4.614
 2006SOL    HW2 6041   3.421   1.761   4.758
 2007SOL     OW 6042   3.536   0.883   4.978
 2007SOL    HW1 6043   3.509   0.794   4.941
 2007SOL    HW2 6044   3.537   0.951   4.905
 2008SOL     OW 6045   3.087   0.325   4.173
 2008SOL    HW1 6046   3.152   0.251   4.162
 2008SOL    HW2 6047   3.107   0.375   4.257
 2009SOL     OW 6048   2.456   0.745   4.376
 2009SOL    HW1 6049   2.506   0.830   4.357
 2009SOL    HW2 6050   2.368   0.747   4.328
 2010SOL     OW 6051   2.721   1.374   3.740
 2010SOL    HW1 6052   2.675   1.389   3.828
 2010SOL    HW2 6053   2.765   1.459   3.710
 2011SOL     OW 6054   2.523   1.790   4.677
 2011SOL    HW1 6055   2.477   1.878   4.664
 2011SOL    HW2 6056   2.622   1.802   4.670
 2012SOL     OW 6057   2.721   0.956   4.585
 2012SOL    HW1 6058   2.775   0.887   4.633
 2012SOL    HW2 6059   2.689   1.025   4.651
 2013SOL     OW 6060   2.945   0.984   3.811
 2013SOL    HW1 6061   2.922   1.037   3.729
 2013SOL    HW2 6062   3.026   0.928   3.792
 2014SOL     OW 6063   3.723   1.569   4.575
 2014SOL    HW1 6064   3.652   1.557   4.505
 2014SOL    HW2 6065   3.724   1.490   4.635
 2015SOL     OW 6066   1.941   1.240   4.377
 2015SOL    HW1 6067   1.940   1.193   4.465
 2015SOL    HW2 6068   2.023   1.212   4.326
 2016SOL     OW 6069   3.686   0.192   4.951
 2016SOL    HW1 6070   3.682   0.102   4.995
 2016SOL    HW2 6071   3.689   0.181   4.852
 2017SOL     OW 6072   2.290   0.424   4.244
 2017SOL    HW1 6073   2.320   0.352   4.182
 2017SOL    HW2 6074   2.251   0.384   4.327
 2018SOL     OW 6075   2.674   1.586   4.411
 2018SOL    HW1 6076   2.706   1.596   4.317
 2018SOL    HW2 6077   2.595   1.524   4.413
 2019SOL     OW 6078   3.286   0.214   4.836
 2019SOL    HW1 6079   3.338   0.149   4.891
 2019SOL    HW2 6080   3.237   0.277   4.897
 2020SOL     OW 6081   2.632   1.330   4.025
 2020SOL    HW1 6082   2.586   1.243   4.042
 2020SOL    HW2 6083   2.723   1.327   4.066
 2021SOL     OW 6084   3.214   0.052   3.892
 2021SOL    HW1 6085   3.249   0.011   3.808
 2021SOL    HW2 6086   3.124   0.014   3.912
 2022SOL     OW 6087   3.162   0.453   4.415
 2022SOL    HW1 6088   3.103   0.533   4.419
 2022SOL    HW2 6089   3.177   0.418   4.508
 2023SOL     OW 6090   3.455   0.221   4.606
 2023SOL    HW1 6091   3.371   0.220   4.660
 2023SOL    HW2 6092   3.457   0.304   4.550
 2024SOL     OW 6093   1.901   1.077   4.024
 2024SOL    HW1 6094   2.000   1.066   4.015
 2024SOL    HW2 6095   1.861   0.991   4.056
 2025SOL     OW 6096   2.737   1.646   4.061
 2025SOL    HW1 6097   2.660   1.611   4.007
 2025SOL    HW2 6098   2.705   1.717   4.123
 2026SOL     OW 6099   2.092   2.490   0.113
 2026SOL    HW1 6100   1.999   2.488   0.150
 2026SOL    HW2 6101   2.093   2.451   0.021
 2027SOL     OW 6102   2.087   2.137   0.996
 2027SOL    HW1 6103   2.122   2.120   1.088
 2027SOL    HW2 6104   1.999   2.092   0.984
 2028SOL     OW 6105   1.881   2.230   0.647
 2028SOL    HW1 6106   1.799   2.273   0.686
 2028SOL    HW2 6107   1.853   2.157   0.584
 2029SOL     OW 6108   2.431   3.137   1.165
 2029SOL    HW1 6109   2.338   3.130   1.128
 2029SOL    HW2 6110   2.442   3.226   1.209
 2030SOL     OW 6111   3.417   3.373   0.703
 2030SOL    HW1 6112   3.360   3.357   0.784
 2030SOL    HW2 6113   3.358   3.383   0.623
 2031SOL     OW 6114   2.997   2.565   0.717
 2031SOL    HW1 6115   3.054   2.643   0.692
 2031SOL    HW2 6116   2.937   2.591   0.793
 2032SOL     OW 6117   3.617   2.469   0.231
 2032SOL    HW1 6118   3.605   2.456   0.132
 2032SOL    HW2 6119   3.587   2.388   0.280
 2033SOL     OW 6120   2.630   3.006   1.023
 2033SOL    HW1 6121   2.552   3.023   1.083
 2033SOL    HW2 6122   2.664   3.093   0.987
 2034SOL     OW 6123   2.712   2.660   1.823
 2034SOL    HW1 6124   2.708   2.736   1.888
 2034SOL    HW2 6125   2.734   2.696   1.732
 2035SOL     OW 6126   2.547   2.874   0.665
 2035SOL    HW1 6127   2.616   2.858   0.735
 2035SOL    HW2 6128   2.474   2.931   0.703
 2036SOL     OW 6129   2.548   3.023   1.803
 2036SOL    HW1 6130   2.608   3.102   1.817
 2036SOL    HW2 6131   2.462   3.054   1.762
 2037SOL     OW 6132   2.197   3.297   1.061
 2037SOL    HW1 6133   2.119   3.266   1.008
 2037SOL    HW2 6134   2.255   3.355   1.004
 2038SOL     OW 6135   3.322   3.367   1.339
 2038SOL    HW1 6136   3.346   3.461   1.365
 2038SOL    HW2 6137   3.306   3.313   1.421
 2039SOL     OW 6138   2.300   2.254   1.499
 2039SOL    HW1 6139   2.382   2.198   1.508
 2039SOL    HW2 6140   2.219   2.196   1.503
 2040SOL     OW 6141   3.465   2.309   0.737
 2040SOL    HW1 6142   3.391   2.355   0.687
 2040SOL    HW2 6143   3.516   2.377   0.790
 2041SOL     OW 6144   2.093   3.575   0.483
 2041SOL    HW1 6145   2.127   3.652   0.537
 2041SOL    HW2 6146   2.137   3.575   0.393
 2042SOL     OW 6147   2.989   3.203   1.690
 2042SOL    HW1 6148   3.036   3.203   1.778
 2042SOL    HW2 6149   2.941   3.116   1.679
 2043SOL     OW 6150   2.092   3.296   0.538
 2043SOL    HW1 6151   2.066   3.392   0.538
 2043SOL    HW2 6152   2.021   3.242   0.583
 2044SOL     OW 6153   2.102   2.953   0.886
 2044SOL    HW1 6154   2.116   2.869   0.938
 2044SOL    HW2 6155   2.047   3.017   0.941
 2045SOL     OW 6156   2.482   3.648   1.439
 2045SOL    HW1 6157   2.390   3.631   1.474
 2045SOL    HW2 6158   2.510   3.740   1.465
 2046SOL     OW 6159   2.468   2.826   0.123
 2046SOL    HW1 6160   2.475   2.910   0.069
 2046SOL    HW2 6161   2.514   2.839   0.211
 2047SOL     OW 6162   3.456   1.976   1.480
 2047SOL    HW1 6163   3.438   2.043   1.408
 2047SOL    HW2 6164   3.453   2.022   1.569
 2048SOL     OW 6165   1.984   2.505   0.563
 2048SOL    HW1 6166   1.939   2.417   0.580
 2048SOL    HW2 6167   1.983   2.559   0.647
 2049SOL     OW 6168   3.704   3.629   0.359
 2049SOL    HW1 6169   3.758   3.600   0.439
 2049SOL    HW2 6170   3.734   3.719   0.330
 2050SOL     OW 6171   1.889   3.458   0.117
 2050SOL    HW1 6172   1.870   3.362   0.138
 2050SOL    HW2 6173   1.856   3.516   0.192
 2051SOL     OW 6174   3.551   2.784   0.612
 2051SOL    HW1 6175   3.646   2.755   0.620
 2051SOL    HW2 6176   3.543   2.849   0.537
 2052SOL     OW 6177   3.503   2.970   0.432
 2052SOL    HW1 6178   3.589   2.972   0.380
 2052SOL    HW2 6179   3.517   3.017   0.520
 2053SOL     OW 6180   1.975   2.599   1.597
 2053SOL    HW1 6181   2.063   2.586   1.642
 2053SOL    HW2 6182   1.962   2.696   1.575
 2054SOL     OW 6183   2.475   3.227   0.726
 2054SOL    HW1 6184   2.426   3.140   0.735
 2054SOL    HW2 6185   2.452   3.270   0.639
 2055SOL     OW 6186   3.155   3.090   1.423
 2055SOL    HW1 6187   3.192   3.017   1.365
 2055SOL    HW2 6188   3.207   3.095   1.508
 2056SOL     OW 6189   2.671   1.866   0.502
 2056SOL    HW1 6190   2.711   1.957   0.493
 2056SOL    HW2 6191   2.571   1.874   0.508
 2057SOL     OW 6192   2.059   2.838   1.264
 2057SOL    HW1 6193   2.148   2.793   1.250
 2057SOL    HW2 6194   1.986   2.773   1.245
 2058SOL     OW 6195   3.387   2.861   0.190
 2058SOL    HW1 6196   3.324   2.785   0.203
 2058SOL    HW2 6197   3.435   2.879   0.276
 2059SOL     OW 6198   3.049   3.654   1.616
 2059SOL    HW1 6199   3.073   3.714   1.540
 2059SOL    HW2 6200   3.056   3.559   1.586
 2060SOL     OW 6201   2.179   2.113   1.801
 2060SOL    HW1 6202   2.250   2.184   1.807
 2060SOL    HW2 6203   2.091   2.152   1.829
 2061SOL     OW 6204   3.328   3.279   0.953
 2061SOL    HW1 6205   3.269   3.285   1.033
 2061SOL    HW2 6206   3.313   3.191   0.907
 2062SOL     OW 6207   3.529   3.576   0.572
 2062SOL    HW1 6208   3.488   3.553   0.484
 2062SOL    HW2 6209   3.511   3.502   0.637
 2063SOL     OW 6210   2.460   2.591   0.270
 2063SOL    HW1 6211   2.484   2.660   0.202
 2063SOL    HW2 6212   2.382   2.624   0.324
 2064SOL     OW 6213   3.143   2.207   0.944
 2064SOL    HW1 6214   3.057   2.157   0.931
 2064SOL    HW2 6215   3.205   2.153   1.000
 2065SOL     OW 6216   3.438   3.524   0.307
 2065SOL    HW1 6217   3.527   3.570   0.310
 2065SOL    HW2 6218   3.417   3.500   0.212
 2066SOL     OW 6219   2.669   2.467   1.465
 2066SOL    HW1 6220   2.622   2.464   1.554
 2066SOL    HW2 6221   2.618   2.412   1.399
 2067SOL     OW 6222   3.256   2.331   1.674
 2067SOL    HW1 6223   3.236   2.374   1.762
 2067SOL    HW2 6224   3.334   2.269   1.683
 2068SOL     OW 6225   2.835   2.752   1.572
 2068SOL    HW1 6226   2.881   2.668   1.543
 2068SOL    HW2 6227   2.779   2.786   1.497
 2069SOL     OW 6228   2.853   2.272   1.242
 2069SOL    HW1 6229   2.776   2.306   1.296
 2069SOL    HW2 6230   2.819   2.221   1.163
 2070SOL     OW 6231   2.903   2.563   0.429
 2070SOL    HW1 6232   2.929   2.559   0.525
 2070SOL    HW2 6233   2.818   2.512   0.415
 2071SOL     OW 6234   1.938   2.673   0.789
 2071SOL    HW1 6235   2.037   2.661   0.798
 2071SOL    HW2 6236   1.914   2.768   0.810
 2072SOL     OW 6237   1.992   3.683   1.571
 2072SOL    HW1 6238   1.982   3.668   1.670
 2072SOL    HW2 6239   1.906   3.719   1.535
 2073SOL     OW 6240   2.727   2.210   0.195
 2073SOL    HW1 6241   2.786   2.273   0.146
 2073SOL    HW2 6242   2.746   2.116   0.166
 2074SOL     OW 6243   3.581   2.447   1.831
 2074SOL    HW1 6244   3.555   2.536   1.795
 2074SOL    HW2 6245   3.579   2.379   1.758
 2075SOL     OW 6246   3.224   3.006   0.545
 2075SOL    HW1 6247   3.307   2.977   0.497
 2075SOL    HW2 6248   3.175   3.073   0.489
 2076SOL     OW 6249   2.412   2.058   0.885
 2076SOL    HW1 6250   2.407   2.053   0.985
 2076SOL    HW2 6251   2.414   2.154   0.856
 2077SOL     OW 6252   2.870   3.318   0.477
 2077SOL    HW1 6253   2.824   3.390   0.425
 2077SOL    HW2 6254   2.866   3.338   0.575
 2078SOL     OW 6255   2.213   3.663   0.853
 2078SOL    HW1 6256   2.263   3.577   0.859
 2078SOL    HW2 6257   2.278   3.740   0.850
 2079SOL     OW 6258   3.657   2.928   0.873
 2079SOL    HW1 6259   3.595   2.913   0.797
 2079SOL    HW2 6260   3.605   2.939   0.958
 2080SOL     OW 6261   3.089   3.412   1.506
 2080SOL    HW1 6262   3.095   3.335   1.570
 2080SOL    HW2 6263   3.037   3.386   1.426
 2081SOL     OW 6264   2.183   2.805   0.242
 2081SOL    HW1 6265   2.265   2.844   0.200
 2081SOL    HW2 6266   2.156   2.723   0.193
 2082SOL     OW 6267   3.320   2.597   0.728
 2082SOL    HW1 6268   3.315   2.532   0.803
 2082SOL    HW2 6269   3.400   2.656   0.741
 2083SOL     OW 6270   2.323   3.128   1.727
 2083SOL    HW1 6271   2.273   3.129   1.641
 2083SOL    HW2 6272   2.260   3.110   1.803
 2084SOL     OW 6273   2.973   3.638   0.237
 2084SOL    HW1 6274   2.913   3.576   0.287
 2084SOL    HW2 6275   3.004   3.594   0.152
 2085SOL     OW 6276   2.064   2.147   1.498
 2085SOL    HW1 6277   1.984   2.207   1.485
 2085SOL    HW2 6278   2.054   2.098   1.584
 2086SOL     OW 6279   3.494   3.239   0.081
 2086SOL    HW1 6280   3.462   3.333   0.071
 2086SOL    HW2 6281   3.418   3.176   0.069
 2087SOL     OW 6282   2.326   3.605   0.323
 2087SOL    HW1 6283   2.359   3.644   0.409
 2087SOL    HW2 6284   2.402   3.598   0.258
 2088SOL     OW 6285   3.262   1.969   0.426
 2088SOL    HW1 6286   3.238   1.932   0.336
 2088SOL    HW2 6287   3.361   1.985   0.430
 2089SOL     OW 6288   2.111   3.647   1.241
 2089SOL    HW1 6289   2.168   3.582   1.291
 2089SOL    HW2 6290   2.095   3.614   1.148
 2090SOL     OW 6291   2.802   3.560   0.904
 2090SOL    HW1 6292   2.882   3.503   0.925
 2090SOL    HW2 6293   2.753   3.520   0.827
 2091SOL     OW 6294   2.244   2.562   0.480
 2091SOL    HW1 6295   2.289   2.472   0.477
 2091SOL    HW2 6296   2.150   2.551   0.513
 2092SOL     OW 6297   3.409   2.084   1.729
 2092SOL    HW1 6298   3.404   2.121   1.821
 2092SOL    HW2 6299   3.337   2.015   1.717
 2093SOL     OW 6300   2.476   1.984   0.117
 2093SOL    HW1 6301   2.574   1.962   0.124
 2093SOL    HW2 6302   2.445   1.967   0.024
 2094SOL     OW 6303   2.643   2.126   1.749
 2094SOL    HW1 6304   2.710   2.065   1.792
 2094SOL    HW2 6305   2.570   2.145   1.814
 2095SOL     OW 6306   2.750   3.376   1.195
 2095SOL    HW1 6307   2.727   3.351   1.101
 2095SOL    HW2 6308   2.811   3.307   1.234
 2096SOL     OW 6309   3.213   2.452   1.433
 2096SOL    HW1 6310   3.241   2.409   1.518
 2096SOL    HW2 6311   3.238   2.548   1.434
 2097SOL     OW 6312   2.665   3.264   0.924
 2097SOL    HW1 6313   2.755   3.278   0.882
 2097SOL    HW2 6314   2.594   3.266   0.853
 2098SOL     OW 6315   2.784   2.365   0.899
 2098SOL    HW1 6316   2.759   2.356   0.803
 2098SOL    HW2 6317   2.832   2.283   0.930
 2099SOL     OW 6318   2.401   1.926   0.512
 2099SOL    HW1 6319   2.320   1.927   0.570
 2099SOL    HW2 6320   2.404   2.009   0.457
 2100SOL     OW 6321   3.296   3.050   0.041
 2100SOL    HW1 6322   3.328   2.974   0.098
 2100SOL    HW2 6323   3.204   3.077   0.071
 2101SOL     OW 6324   2.797   2.098   0.480
 2101SOL    HW1 6325   2.749   2.139   0.402
 2101SOL    HW2 6326   2.896   2.096   0.461
 2102SOL     OW 6327   2.938   2.545   1.464
 2102SOL    HW1 6328   2.858   2.484   1.467
 2102SOL    HW2 6329   3.019   2.492   1.440
 2103SOL     OW 6330   3.089   3.432   0.793
 2103SOL    HW1 6331   3.110   3.506   0.728
 2103SOL    HW2 6332   3.157   3.432   0.866
 2104SOL     OW 6333   2.321   3.014   0.741
 2104SOL    HW1 6334   2.250   2.987   0.806
 2104SOL    HW2 6335   2.295   2.986   0.648
 2105SOL     OW 6336   3.133   3.659   0.591
 2105SOL    HW1 6337   3.177   3.723   0.527
 2105SOL    HW2 6338   3.083   3.711   0.661
 2106SOL     OW 6339   2.894   2.411   0.016
 2106SOL    HW1 6340   2.853   2.493  -0.023
 2106SOL    HW2 6341   2.958   2.437   0.089
 2107SOL     OW 6342   1.940   2.418   1.386
 2107SOL    HW1 6343   2.032   2.417   1.345
 2107SOL    HW2 6344   1.934   2.492   1.453
 2108SOL     OW 6345   2.423   2.084   1.147
 2108SOL    HW1 6346   2.461   2.000   1.184
 2108SOL    HW2 6347   2.335   2.103   1.191
 2109SOL     OW 6348   2.728   2.316   0.642
 2109SOL    HW1 6349   2.696   2.388   0.580
 2109SOL    HW2 6350   2.752   2.235   0.589
 2110SOL     OW 6351   2.879   1.901   0.753
 2110SOL    HW1 6352   2.807   1.906   0.684
 2110SOL    HW2 6353   2.855   1.832   0.822
 2111SOL     OW 6354   3.291   3.035   0.867
 2111SOL    HW1 6355   3.236   2.951   0.860
 2111SOL    HW2 6356   3.317   3.064   0.775
 2112SOL     OW 6357   3.328   2.452   0.992
 2112SOL    HW1 6358   3.298   2.357   0.999
 2112SOL    HW2 6359   3.401   2.468   1.058
 2113SOL     OW 6360   3.719   2.695   0.377
 2113SOL    HW1 6361   3.761   2.631   0.441
 2113SOL    HW2 6362   3.681   2.644   0.299
 2114SOL     OW 6363   2.350   3.247   0.174
 2114SOL    HW1 6364   2.263   3.232   0.221
 2114SOL    HW2 6365   2.333   3.273   0.079
 2115SOL     OW 6366   3.526   3.142   0.657
 2115SOL    HW1 6367   3.625   3.150   0.671
 2115SOL    HW2 6368   3.481   3.226   0.688
 2116SOL     OW 6369   3.252   2.437   0.078
 2116SOL    HW1 6370   3.198   2.416   0.159
 2116SOL    HW2 6371   3.343   2.396   0.087
 2117SOL     OW 6372   2.389   2.118   0.328
 2117SOL    HW1 6373   2.416   2.059   0.253
 2117SOL    HW2 6374   2.389   2.213   0.297
 2118SOL     OW 6375   3.616   3.085   1.588
 2118SOL    HW1 6376   3.707   3.046   1.575
 2118SOL    HW2 6377   3.624   3.181   1.612
 2119SOL     OW 6378   2.926   3.209   1.340
 2119SOL    HW1 6379   2.846   3.186   1.395
 2119SOL    HW2 6380   3.009   3.183   1.389
 2120SOL     OW 6381   3.454   3.491   1.625
 2120SOL    HW1 6382   3.481   3.525   1.535
 2120SOL    HW2 6383   3.533   3.453   1.671
 2121SOL     OW 6384   2.973   3.057   1.100
 2121SOL    HW1 6385   2.933   3.101   1.181
 2121SOL    HW2 6386   2.932   3.094   1.017
 2122SOL     OW 6387   3.500   2.961   1.079
 2122SOL    HW1 6388   3.505   3.042   1.138
 2122SOL    HW2 6389   3.414   2.963   1.028
 2123SOL     OW 6390   2.777   1.951   1.402
 2123SOL    HW1 6391   2.802   1.931   1.307
 2123SOL    HW2 6392   2.849   2.007   1.444
 2124SOL     OW 6393   2.842   2.978   1.719
 2124SOL    HW1 6394   2.743   2.984   1.729
 2124SOL    HW2 6395   2.865   2.898   1.663
 2125SOL     OW 6396   2.567   2.912   0.368
 2125SOL    HW1 6397   2.553   2.919   0.467
 2125SOL    HW2 6398   2.651   2.861   0.350
 2126SOL     OW 6399   2.272   2.675   1.251
 2126SOL    HW1 6400   2.358   2.687   1.301
 2126SOL    HW2 6401   2.230   2.588   1.278
 2127SOL     OW 6402   3.136   2.248   1.262
 2127SOL    HW1 6403   3.157   2.322   1.326
 2127SOL    HW2 6404   3.047   2.265   1.219
 2128SOL     OW 6405   1.926   3.426   1.331
 2128SOL    HW1 6406   1.880   3.508   1.297
 2128SOL    HW2 6407   2.024   3.445   1.340
 2129SOL     OW 6408   2.229   2.962   0.501
 2129SOL    HW1 6409   2.222   3.045   0.445
 2129SOL    HW2 6410   2.233   2.882   0.441
 2130SOL     OW 6411   2.428   2.399   0.865
 2130SOL    HW1 6412   2.440   2.465   0.791
 2130SOL    HW2 6413   2.474   2.433   0.948
 2131SOL     OW 6414   3.114   3.210   0.388
 2131SOL    HW1 6415   3.164   3.287   0.428
 2131SOL    HW2 6416   3.019   3.212   0.420
 2132SOL     OW 6417   3.134   3.307   1.142
 2132SOL    HW1 6418   3.181   3.320   1.229
 2132SOL    HW2 6419   3.068   3.233   1.151
 2133SOL     OW 6420   3.444   2.501   0.472
 2133SOL    HW1 6421   3.413   2.562   0.545
 2133SOL    HW2 6422   3.494   2.553   0.403
 2134SOL     OW 6423   2.216   3.372   1.329
 2134SOL    HW1 6424   2.195   3.328   1.242
 2134SOL    HW2 6425   2.313   3.398   1.332
 2135SOL     OW 6426   2.264   2.613   1.598
 2135SOL    HW1 6427   2.332   2.668   1.551
 2135SOL    HW2 6428   2.304   2.525   1.625
 2136SOL     OW 6429   3.449   2.641   1.670
 2136SOL    HW1 6430   3.357   2.679   1.665
 2136SOL    HW2 6431   3.509   2.688   1.605
 2137SOL     OW 6432   2.875   1.967   1.770
 2137SOL    HW1 6433   2.881   2.052   1.718
 2137SOL    HW2 6434   2.907   1.891   1.713
 2138SOL     OW 6435   2.366   1.912   1.740
 2138SOL    HW1 6436   2.324   1.855   1.670
 2138SOL    HW2 6437   2.300   1.981   1.772
 2139SOL     OW 6438   2.435   2.732   1.029
 2139SOL    HW1 6439   2.479   2.821   1.020
 2139SOL    HW2 6440   2.372   2.732   1.106
 2140SOL     OW 6441   3.222   2.724   1.045
 2140SOL    HW1 6442   3.147   2.724   0.979
 2140SOL    HW2 6443   3.259   2.632   1.054
 2141SOL     OW 6444   3.071   2.387   0.275
 2141SOL    HW1 6445   3.084   2.303   0.329
 2141SOL    HW2 6446   3.042   2.461   0.335
 2142SOL     OW 6447   2.169   2.075   1.231
 2142SOL    HW1 6448   2.146   2.112   1.321
 2142SOL    HW2 6449   2.139   1.980   1.225
 2143SOL     OW 6450   1.899   3.172   1.282
 2143SOL    HW1 6451   1.952   3.123   1.350
 2143SOL    HW2 6452   1.921   3.270   1.287
 2144SOL     OW 6453   2.594   2.496   1.064
 2144SOL    HW1 6454   2.653   2.470   0.988
 2144SOL    HW2 6455   2.566   2.592   1.053
 2145SOL     OW 6456   3.590   2.797   1.854
 2145SOL    HW1 6457   3.544   2.790   1.765
 2145SOL    HW2 6458   3.528   2.841   1.920
 2146SOL     OW 6459   2.169   1.925   0.618
 2146SOL    HW1 6460   2.158   2.019   0.651
 2146SOL    HW2 6461   2.164   1.862   0.695
 2147SOL     OW 6462   3.484   2.229   0.374
 2147SOL    HW1 6463   3.486   2.153   0.438
 2147SOL    HW2 6464   3.436   2.306   0.414
 2148SOL     OW 6465   2.885   2.628   0.966
 2148SOL    HW1 6466   2.900   2.649   1.062
 2148SOL    HW2 6467   2.855   2.533   0.957
 2149SOL     OW 6468   2.842   3.435   1.700
 2149SOL    HW1 6469   2.822   3.479   1.612
 2149SOL    HW2 6470   2.881   3.344   1.684
 2150SOL     OW 6471   3.721   3.380   1.605
 2150SOL    HW1 6472   3.735   3.407   1.510
 2150SOL    HW2 6473   3.804   3.402   1.658
 2151SOL     OW 6474   2.212   2.760   1.804
 2151SOL    HW1 6475   2.288   2.804   1.852
 2151SOL    HW2 6476   2.247   2.713   1.722
 2152SOL     OW 6477   3.402   2.136   0.125
 2152SOL    HW1 6478   3.341   2.061   0.148
 2152SOL    HW2 6479   3.424   2.188   0.208
 2153SOL     OW 6480   3.165   2.700   0.042
 2153SOL    HW1 6481   3.199   2.607   0.057
 2153SOL    HW2 6482   3.183   2.727  -0.053
 2154SOL     OW 6483   2.930   3.195   0.849
 2154SOL    HW1 6484   2.937   3.111   0.794
 2154SOL    HW2 6485   2.992   3.264   0.813
 2155SOL     OW 6486   2.181   2.672   0.949
 2155SOL    HW1 6487   2.274   2.708   0.954
 2155SOL    HW2 6488   2.175   2.587   1.001
 2156SOL     OW 6489   2.201   2.371   1.006
 2156SOL    HW1 6490   2.149   2.288   0.989
 2156SOL    HW2 6491   2.278   2.376   0.942
 2157SOL     OW 6492   3.000   2.242   1.678
 2157SOL    HW1 6493   2.955   2.305   1.742
 2157SOL    HW2 6494   3.093   2.273   1.661
 2158SOL     OW 6495   3.022   2.069   1.477
 2158SOL    HW1 6496   3.022   2.133   1.554
 2158SOL    HW2 6497   3.050   2.117   1.394
 2159SOL     OW 6498   1.870   3.188   0.200
 2159SOL    HW1 6499   1.777   3.209   0.169
 2159SOL    HW2 6500   1.880   3.089   0.213
 2160SOL     OW 6501   1.950   3.663   0.927
 2160SOL    HW1 6502   1.908   3.577   0.900
 2160SOL    HW2 6503   2.044   3.666   0.893
 2161SOL     OW 6504   2.366   3.430   0.910
 2161SOL    HW1 6505   2.432   3.504   0.919
 2161SOL    HW2 6506   2.410   3.351   0.868
 2162SOL     OW 6507   2.864   2.658   1.238
 2162SOL    HW1 6508   2.905   2.626   1.324
 2162SOL    HW2 6509   2.768   2.631   1.235
 2163SOL     OW 6510   1.902   2.406   1.114
 2163SOL    HW1 6511   1.987   2.373   1.073
 2163SOL    HW2 6512   1.915   2.421   1.212
 2164SOL     OW 6513   2.051   2.382   1.722
 2164SOL    HW1 6514   2.110   2.342   1.652
 2164SOL    HW2 6515   1.993   2.453   1.681
 2165SOL     OW 6516   3.231   2.812   1.660
 2165SOL    HW1 6517   3.270   2.901   1.680
 2165SOL    HW2 6518   3.241   2.792   1.563
 2166SOL     OW 6519   2.677   2.434   0.325
 2166SOL    HW1 6520   2.684   2.345   0.279
 2166SOL    HW2 6521   2.583   2.468   0.317
 2167SOL     OW 6522   3.519   2.466   1.206
 2167SOL    HW1 6523   3.481   2.397   1.268
 2167SOL    HW2 6524   3.601   2.430   1.162
 2168SOL     OW 6525   2.114   3.426   1.744
 2168SOL    HW1 6526   2.084   3.483   1.820
 2168SOL    HW2 6527   2.107   3.329   1.770
 2169SOL     OW 6528   2.533   2.326   1.269
 2169SOL    HW1 6529   2.499   2.237   1.239
 2169SOL    HW2 6530   2.559   2.380   1.189
 2170SOL     OW 6531   2.792   3.540   1.465
 2170SOL    HW1 6532   2.768   3.522   1.370
 2170SOL    HW2 6533   2.822   3.634   1.475
 2171SOL     OW 6534   2.335   2.362   0.191
 2171SOL    HW1 6535   2.396   2.442   0.195
 2171SOL    HW2 6536   2.240   2.393   0.198
 2172SOL     OW 6537   2.021   2.999   1.466
 2172SOL    HW1 6538   2.043   2.938   1.542
 2172SOL    HW2 6539   2.031   2.950   1.380
 2173SOL     OW 6540   3.209   2.921   1.234
 2173SOL    HW1 6541   3.233   2.858   1.160
 2173SOL    HW2 6542   3.119   2.961   1.216
 2174SOL     OW 6543   3.164   2.717   0.309
 2174SOL    HW1 6544   3.078   2.686   0.351
 2174SOL    HW2 6545   3.160   2.703   0.210
 2175SOL     OW 6546   3.621   3.609   1.154
 2175SOL    HW1 6547   3.682   3.639   1.081
 2175SOL    HW2 6548   3.583   3.520   1.132
 2176SOL     OW 6549   3.114   3.593   1.128
 2176SOL    HW1 6550   3.198   3.598   1.074
 2176SOL    HW2 6551   3.091   3.497   1.146
 2177SOL     OW 6552   1.945   3.120   1.022
 2177SOL    HW1 6553   1.940   3.119   1.122
 2177SOL    HW2 6554   1.862   3.079   0.984
 2178SOL     OW 6555   2.550   3.524   1.716
 2178SOL    HW1 6556   2.494   3.605   1.725
 2178SOL    HW2 6557   2.602   3.528   1.630
 2179SOL     OW 6558   2.765   1.948   0.133
 2179SOL    HW1 6559   2.816   1.949   0.047
 2179SOL    HW2 6560   2.821   1.906   0.204
 2180SOL     OW 6561   3.588   1.997   0.523
 2180SOL    HW1 6562   3.661   1.980   0.456
 2180SOL    HW2 6563   3.557   1.910   0.561
 2181SOL     OW 6564   3.250   3.435   0.477
 2181SOL    HW1 6565   3.317   3.447   0.403
 2181SOL    HW2 6566   3.210   3.524   0.500
 2182SOL     OW 6567   1.992   3.656   1.851
 2182SOL    HW1 6568   1.951   3.582   1.904
 2182SOL    HW2 6569   2.056   3.707   1.909
 2183SOL     OW 6570   3.142   2.789   0.672
 2183SOL    HW1 6571   3.202   2.708   0.674
 2183SOL    HW2 6572   3.182   2.858   0.612
 2184SOL     OW 6573   2.692   3.135   1.422
 2184SOL    HW1 6574   2.687   3.168   1.517
 2184SOL    HW2 6575   2.606   3.154   1.376
 2185SOL     OW 6576   2.534   3.478   0.154
 2185SOL    HW1 6577   2.543   3.488   0.055
 2185SOL    HW2 6578   2.494   3.389   0.175
 2186SOL     OW 6579   3.512   3.582   1.394
 2186SOL    HW1 6580   3.565   3.592   1.310
 2186SOL    HW2 6581   3.485   3.672   1.428
 2187SOL     OW 6582   3.703   2.037   0.963
 2187SOL    HW1 6583   3.742   1.952   0.927
 2187SOL    HW2 6584   3.605   2.039   0.944
 2188SOL     OW 6585   2.125   2.188   0.720
 2188SOL    HW1 6586   2.046   2.239   0.686
 2188SOL    HW2 6587   2.116   2.173   0.818
 2189SOL     OW 6588   3.056   3.474   0.031
 2189SOL    HW1 6589   3.062   3.381   0.068
 2189SOL    HW2 6590   2.997   3.474  -0.049
 2190SOL     OW 6591   2.684   2.864   1.372
 2190SOL    HW1 6592   2.724   2.863   1.280
 2190SOL    HW2 6593   2.694   2.956   1.412
 2191SOL     OW 6594   2.778   2.772   0.291
 2191SOL    HW1 6595   2.841   2.810   0.223
 2191SOL    HW2 6596   2.818   2.689   0.330
 2192SOL     OW 6597   3.366   3.469   0.044
 2192SOL    HW1 6598   3.274   3.506   0.051
 2192SOL    HW2 6599   3.404   3.489  -0.046
 2193SOL     OW 6600   2.234   3.150   1.490
 2193SOL    HW1 6601   2.221   3.243   1.456
 2193SOL    HW2 6602   2.150   3.098   1.477
 2194SOL     OW 6603   3.476   3.154   1.289
 2194SOL    HW1 6604   3.536   3.157   1.369
 2194SOL    HW2 6605   3.401   3.218   1.302
 2195SOL     OW 6606   2.901   2.960   0.696
 2195SOL    HW1 6607   2.831   2.913   0.750
 2195SOL    HW2 6608   2.960   2.892   0.653
 2196SOL     OW 6609   2.876   2.098   0.971
 2196SOL    HW1 6610   2.868   2.062   0.878
 2196SOL    HW2 6611   2.874   2.022   1.036
 2197SOL     OW 6612   2.452   3.349   0.491
 2197SOL    HW1 6613   2.494   3.291   0.421
 2197SOL    HW2 6614   2.408   3.428   0.447
 2198SOL     OW 6615   3.571   2.247   1.381
 2198SOL    HW1 6616   3.644   2.316   1.385
 2198SOL    HW2 6617   3.599   2.172   1.322
 2199SOL     OW 6618   2.117   3.210   0.290
 2199SOL    HW1 6619   2.021   3.211   0.263
 2199SOL    HW2 6620   2.129   3.263   0.374
 2200SOL     OW 6621   1.967   2.875   1.726
 2200SOL    HW1 6622   1.890   2.842   1.780
 2200SOL    HW2 6623   2.052   2.845   1.768
 2201SOL     OW 6624   2.534   2.065   1.489
 2201SOL    HW1 6625   2.624   2.049   1.449
 2201SOL    HW2 6626   2.542   2.070   1.588
 2202SOL     OW 6627   3.302   2.718   1.398
 2202SOL    HW1 6628   3.245   2.770   1.335
 2202SOL    HW2 6629   3.398   2.730   1.374
 2203SOL     OW 6630   1.934   2.028   0.318
 2203SOL    HW1 6631   1.917   2.111   0.264
 2203SOL    HW2 6632   2.024   1.991   0.296
 2204SOL     OW 6633   3.045   3.197   0.119
 2204SOL    HW1 6634   2.946   3.186   0.121
 2204SOL    HW2 6635   3.079   3.212   0.212
 2205SOL     OW 6636   2.475   2.704   1.431
 2205SOL    HW1 6637   2.531   2.785   1.414
 2205SOL    HW2 6638   2.534   2.624   1.434
 2206SOL     OW 6639   3.355   3.629   0.959
 2206SOL    HW1 6640   3.388   3.693   0.890
 2206SOL    HW2 6641   3.421   3.623   1.034
 2207SOL     OW 6642   2.578   2.427   1.708
 2207SOL    HW1 6643   2.597   2.492   1.782
 2207SOL    HW2 6644   2.638   2.347   1.717
 2208SOL     OW 6645   3.312   3.082   1.633
 2208SOL    HW1 6646   3.303   3.072   1.732
 2208SOL    HW2 6647   3.408   3.075   1.607
 2209SOL     OW 6648   2.252   3.603   1.560
 2209SOL    HW1 6649   2.161   3.644   1.558
 2209SOL    HW2 6650   2.245   3.509   1.592
 2210SOL     OW 6651   3.536   2.745   1.254
 2210SOL    HW1 6652   3.509   2.656   1.217
 2210SOL    HW2 6653   3.537   2.813   1.181
 2211SOL     OW 6654   3.087   2.187   0.449
 2211SOL    HW1 6655   3.152   2.113   0.438
 2211SOL    HW2 6656   3.107   2.237   0.533
 2212SOL     OW 6657   2.456   2.607   0.652
 2212SOL    HW1 6658   2.506   2.692   0.633
 2212SOL    HW2 6659   2.368   2.609   0.604
 2213SOL     OW 6660   3.639   2.204   1.642
 2213SOL    HW1 6661   3.622   2.235   1.548
 2213SOL    HW2 6662   3.555   2.167   1.680
 2214SOL     OW 6663   3.592   2.796   1.517
 2214SOL    HW1 6664   3.630   2.887   1.532
 2214SOL    HW2 6665   3.584   2.779   1.418
 2215SOL     OW 6666   2.721   3.236   0.016
 2215SOL    HW1 6667   2.675   3.251   0.104
 2215SOL    HW2 6668   2.765   3.321  -0.014
 2216SOL     OW 6669   2.523   3.652   0.953
 2216SOL    HW1 6670   2.477   3.740   0.940
 2216SOL    HW2 6671   2.622   3.664   0.946
 2217SOL     OW 6672   2.721   2.818   0.861
 2217SOL    HW1 6673   2.775   2.749   0.909
 2217SOL    HW2 6674   2.689   2.887   0.927
 2218SOL     OW 6675   2.945   2.846   0.087
 2218SOL    HW1 6676   2.922   2.899   0.005
 2218SOL    HW2 6677   3.026   2.790   0.068
 2219SOL     OW 6678   3.723   3.431   0.851
 2219SOL    HW1 6679   3.652   3.419   0.781
 2219SOL    HW2 6680   3.724   3.352   0.911
 2220SOL     OW 6681   2.083   3.176   1.844
 2220SOL    HW1 6682   2.018   3.103   1.823
 2220SOL    HW2 6683   2.087   3.190   1.942
 2221SOL     OW 6684   1.941   3.102   0.653
 2221SOL    HW1 6685   1.940   3.055   0.741
 2221SOL    HW2 6686   2.023   3.074   0.602
 2222SOL     OW 6687   2.534   3.253   1.624
 2222SOL    HW1 6688   2.456   3.203   1.662
 2222SOL    HW2 6689   2.531   3.348   1.655
 2223SOL     OW 6690   3.686   2.054   1.227
 2223SOL    HW1 6691   3.682   1.964   1.271
 2223SOL    HW2 6692   3.689   2.043   1.128
 2224SOL     OW 6693   2.290   2.286   0.520
 2224SOL    HW1 6694   2.320   2.214   0.458
 2224SOL    HW2 6695   2.251   2.246   0.603
 2225SOL     OW 6696   3.567   3.349   1.104
 2225SOL    HW1 6697   3.474   3.324   1.077
 2225SOL    HW2 6698   3.593   3.299   1.186
 2226SOL     OW 6699   2.179   2.409   1.280
 2226SOL    HW1 6700   2.217   2.350   1.352
 2226SOL    HW2 6701   2.219   2.383   1.192
 2227SOL     OW 6702   2.674   3.448   0.687
 2227SOL    HW1 6703   2.706   3.458   0.593
 2227SOL    HW2 6704   2.595   3.386   0.689
 2228SOL     OW 6705   3.286   2.076   1.112
 2228SOL    HW1 6706   3.338   2.011   1.167
 2228SOL    HW2 6707   3.237   2.139   1.173
 2229SOL     OW 6708   2.863   1.896   1.154
 2229SOL    HW1 6709   2.800   1.824   1.123
 2229SOL    HW2 6710   2.956   1.860   1.154
 2230SOL     OW 6711   2.632   3.192   0.301
 2230SOL    HW1 6712   2.586   3.105   0.318
 2230SOL    HW2 6713   2.723   3.189   0.342
 2231SOL     OW 6714   2.480   3.429   1.284
 2231SOL    HW1 6715   2.475   3.511   1.341
 2231SOL    HW2 6716   2.569   3.426   1.239
 2232SOL     OW 6717   3.214   1.914   0.168
 2232SOL    HW1 6718   3.249   1.873   0.084
 2232SOL    HW2 6719   3.124   1.876   0.188
 2233SOL     OW 6720   3.162   2.315   0.691
 2233SOL    HW1 6721   3.103   2.395   0.695
 2233SOL    HW2 6722   3.177   2.280   0.784
 2234SOL     OW 6723   3.455   2.083   0.882
 2234SOL    HW1 6724   3.371   2.082   0.936
 2234SOL    HW2 6725   3.457   2.166   0.826
 2235SOL     OW 6726   1.901   2.939   0.300
 2235SOL    HW1 6727   2.000   2.928   0.291
 2235SOL    HW2 6728   1.861   2.853   0.332
 2236SOL     OW 6729   2.737   3.508   0.337
 2236SOL    HW1 6730   2.660   3.473   0.283
 2236SOL    HW2 6731   2.705   3.579   0.399
 2237SOL     OW 6732   2.092   2.490   1.975
 2237SOL    HW1 6733   1.999   2.488   2.012
 2237SOL    HW2 6734   2.093   2.451   1.883
 2238SOL     OW 6735   2.087   2.137   2.858
 2238SOL    HW1 6736   2.122   2.120   2.950
 2238SOL    HW2 6737   1.999   2.092   2.846
 2239SOL     OW 6738   1.881   2.230   2.509
 2239SOL    HW1 6739   1.799   2.273   2.548
 2239SOL    HW2 6740   1.853   2.157   2.446
 2240SOL     OW 6741   2.431   3.137   3.027
 2240SOL    HW1 6742   2.338   3.130   2.990
 2240SOL    HW2 6743   2.442   3.226   3.071
 2241SOL     OW 6744   3.417   3.373   2.565
 2241SOL    HW1 6745   3.360   3.357   2.646
 2241SOL    HW2 6746   3.358   3.383   2.485
 2242SOL     OW 6747   2.997   2.565   2.579
 2242SOL    HW1 6748   3.054   2.643   2.554
 2242SOL    HW2 6749   2.937   2.591   2.655
 2243SOL     OW 6750   3.617   2.469   2.093
 2243SOL    HW1 6751   3.605   2.456   1.994
 2243SOL    HW2 6752   3.587   2.388   2.142
 2244SOL     OW 6753   2.630   3.006   2.885
 2244SOL    HW1 6754   2.552   3.023   2.945
 2244SOL    HW2 6755   2.664   3.093   2.849
 2245SOL     OW 6756   2.712   2.660   3.685
 2245SOL    HW1 6757   2.708   2.736   3.750
 2245SOL    HW2 6758   2.734   2.696   3.594
 2246SOL     OW 6759   2.547   2.874   2.527
 2246SOL    HW1 6760   2.616   2.858   2.597
 2246SOL    HW2 6761   2.474   2.931   2.565
 2247SOL     OW 6762   2.548   3.023   3.665
 2247SOL    HW1 6763   2.608   3.102   3.679
 2247SOL    HW2 6764   2.462   3.054   3.624
 2248SOL     OW 6765   2.197   3.297   2.923
 2248SOL    HW1 6766   2.119   3.266   2.870
 2248SOL    HW2 6767   2.255   3.355   2.866
 2249SOL     OW 6768   3.322   3.367   3.201
 2249SOL    HW1 6769   3.346   3.461   3.227
 2249SOL    HW2 6770   3.306   3.313   3.283
 2250SOL     OW 6771   2.300   2.254   3.361
 2250SOL    HW1 6772   2.382   2.198   3.370
 2250SOL    HW2 6773   2.219   2.196   3.365
 2251SOL     OW 6774   3.465   2.309   2.599
 2251SOL    HW1 6775   3.391   2.355   2.549
 2251SOL    HW2 6776   3.516   2.377   2.652
 2252SOL     OW 6777   2.093   3.575   2.345
 2252SOL    HW1 6778   2.127   3.652   2.399
 2252SOL    HW2 6779   2.137   3.575   2.255
 2253SOL     OW 6780   2.989   3.203   3.552
 2253SOL    HW1 6781   3.036   3.203   3.640
 2253SOL    HW2 6782   2.941   3.116   3.541
 2254SOL     OW 6783   2.092   3.296   2.400
 2254SOL    HW1 6784   2.066   3.392   2.400
 2254SOL    HW2 6785   2.021   3.242   2.445
 2255SOL     OW 6786   2.102   2.953   2.748
 2255SOL    HW1 6787   2.116   2.869   2.800
 2255SOL    HW2 6788   2.047   3.017   2.803
 2256SOL     OW 6789   2.482   3.648   3.301
 2256SOL    HW1 6790   2.390   3.631   3.336
 2256SOL    HW2 6791   2.510   3.740   3.327
 2257SOL     OW 6792   2.468   2.826   1.985
 2257SOL    HW1 6793   2.475   2.910   1.931
 2257SOL    HW2 6794   2.514   2.839   2.073
 2258SOL     OW 6795   3.456   1.976   3.342
 2258SOL    HW1 6796   3.438   2.043   3.270
 2258SOL    HW2 6797   3.453   2.022   3.431
 2259SOL     OW 6798   1.984   2.505   2.425
 2259SOL    HW1 6799   1.939   2.417   2.442
 2259SOL    HW2 6800   1.983   2.559   2.509
 2260SOL     OW 6801   3.704   3.629   2.221
 2260SOL    HW1 6802   3.758   3.600   2.301
 2260SOL    HW2 6803   3.734   3.719   2.192
 2261SOL     OW 6804   1.889   3.458   1.979
 2261SOL    HW1 6805   1.870   3.362   2.000
 2261SOL    HW2 6806   1.856   3.516   2.054
 2262SOL     OW 6807   3.551   2.784   2.474
 2262SOL    HW1 6808   3.646   2.755   2.482
 2262SOL    HW2 6809   3.543   2.849   2.399
 2263SOL     OW 6810   3.503   2.970   2.294
 2263SOL    HW1 6811   3.589   2.972   2.242
 2263SOL    HW2 6812   3.517   3.017   2.382
 2264SOL     OW 6813   1.975   2.599   3.459
 2264SOL    HW1 6814   2.063   2.586   3.504
 2264SOL    HW2 6815   1.962   2.696   3.437
 2265SOL     OW 6816   2.475   3.227   2.588
 2265SOL    HW1 6817   2.426   3.140   2.597
 2265SOL    HW2 6818   2.452   3.270   2.501
 2266SOL     OW 6819   3.155   3.090   3.285
 2266SOL    HW1 6820   3.192   3.017   3.227
 2266SOL    HW2 6821   3.207   3.095   3.370
 2267SOL     OW 6822   2.671   1.866   2.364
 2267SOL    HW1 6823   2.711   1.957   2.355
 2267SOL    HW2 6824   2.571   1.874   2.370
 2268SOL     OW 6825   2.059   2.838   3.126
 2268SOL    HW1 6826   2.148   2.793   3.112
 2268SOL    HW2 6827   1.986   2.773   3.107
 2269SOL     OW 6828   3.387   2.861   2.052
 2269SOL    HW1 6829   3.324   2.785   2.065
 2269SOL    HW2 6830   3.435   2.879   2.138
 2270SOL     OW 6831   3.049   3.654   3.478
 2270SOL    HW1 6832   3.073   3.714   3.402
 2270SOL    HW2 6833   3.056   3.559   3.448
 2271SOL     OW 6834   2.179   2.113   3.663
 2271SOL    HW1 6835   2.250   2.184   3.669
 2271SOL    HW2 6836   2.091   2.152   3.691
 2272SOL     OW 6837   3.328   3.279   2.815
 2272SOL    HW1 6838   3.269   3.285   2.895
 2272SOL    HW2 6839   3.313   3.191   2.769
 2273SOL     OW 6840   3.529   3.576   2.434
 2273SOL    HW1 6841   3.488   3.553   2.346
 2273SOL    HW2 6842   3.511   3.502   2.499
 2274SOL     OW 6843   3.143   2.207   2.806
 2274SOL    HW1 6844   3.057   2.157   2.793
 2274SOL    HW2 6845   3.205   2.153   2.862
 2275SOL     OW 6846   3.438   3.524   2.169
 2275SOL    HW1 6847   3.527   3.570   2.172
 2275SOL    HW2 6848   3.417   3.500   2.074
 2276SOL     OW 6849   2.669   2.467   3.327
 2276SOL    HW1 6850   2.622   2.464   3.416
 2276SOL    HW2 6851   2.618   2.412   3.261
 2277SOL     OW 6852   3.256   2.331   3.536
 2277SOL    HW1 6853   3.236   2.374   3.624
 2277SOL    HW2 6854   3.334   2.269   3.545
 2278SOL     OW 6855   2.835   2.752   3.434
 2278SOL    HW1 6856   2.881   2.668   3.405
 2278SOL    HW2 6857   2.779   2.786   3.359
 2279SOL     OW 6858   2.853   2.272   3.104
 2279SOL    HW1 6859   2.776   2.306   3.158
 2279SOL    HW2 6860   2.819   2.221   3.025
 2280SOL     OW 6861   1.938   2.673   2.651
 2280SOL    HW1 6862   2.037   2.661   2.660
 2280SOL    HW2 6863   1.914   2.768   2.672
 2281SOL     OW 6864   1.992   3.683   3.433
 2281SOL    HW1 6865   1.982   3.668   3.532
 2281SOL    HW2 6866   1.906   3.719   3.397
 2282SOL     OW 6867   2.727   2.210   2.057
 2282SOL    HW1 6868   2.786   2.273   2.008
 2282SOL    HW2 6869   2.746   2.116   2.028
 2283SOL     OW 6870   3.581   2.447   3.693
 2283SOL    HW1 6871   3.555   2.536   3.657
 2283SOL    HW2 6872   3.579   2.379   3.620
 2284SOL     OW 6873   3.224   3.006   2.407
 2284SOL    HW1 6874   3.307   2.977   2.359
 2284SOL    HW2 6875   3.175   3.073   2.351
 2285SOL     OW 6876   2.412   2.058   2.747
 2285SOL    HW1 6877   2.407   2.053   2.847
 2285SOL    HW2 6878   2.414   2.154   2.718
 2286SOL     OW 6879   2.870   3.318   2.339
 2286SOL    HW1 6880   2.824   3.390   2.287
 2286SOL    HW2 6881   2.866   3.338   2.437
 2287SOL     OW 6882   2.213   3.663   2.715
 2287SOL    HW1 6883   2.263   3.577   2.721
 2287SOL    HW2 6884   2.278   3.740   2.712
 2288SOL     OW 6885   3.657   2.928   2.735
 2288SOL    HW1 6886   3.595   2.913   2.659
 2288SOL    HW2 6887   3.605   2.939   2.820
 2289SOL     OW 6888   3.089   3.412   3.368
 2289SOL    HW1 6889   3.095   3.335   3.432
 2289SOL    HW2 6890   3.037   3.386   3.288
 2290SOL     OW 6891   2.183   2.805   2.104
 2290SOL    HW1 6892   2.265   2.844   2.062
 2290SOL    HW2 6893   2.156   2.723   2.055
 2291SOL     OW 6894   3.320   2.597   2.590
 2291SOL    HW1 6895   3.315   2.532   2.665
 2291SOL    HW2 6896   3.400   2.656   2.603
 2292SOL     OW 6897   2.323   3.128   3.589
 2292SOL    HW1 6898   2.273   3.129   3.503
 2292SOL    HW2 6899   2.260   3.110   3.665
 2293SOL     OW 6900   2.973   3.638   2.099
 2293SOL    HW1 6901   2.913   3.576   2.149
 2293SOL    HW2 6902   3.004   3.594   2.014
 2294SOL     OW 6903   2.064   2.147   3.360
 2294SOL    HW1 6904   1.984   2.207   3.347
 2294SOL    HW2 6905   2.054   2.098   3.446
 2295SOL     OW 6906   3.494   3.239   1.943
 2295SOL    HW1 6907   3.462   3.333   1.933
 2295SOL    HW2 6908   3.418   3.176   1.931
 2296SOL     OW 6909   2.326   3.605   2.185
 2296SOL    HW1 6910   2.359   3.644   2.271
 2296SOL    HW2 6911   2.402   3.598   2.120
 2297SOL     OW 6912   3.262   1.969   2.288
 2297SOL    HW1 6913   3.238   1.932   2.198
 2297SOL    HW2 6914   3.361   1.985   2.292
 2298SOL     OW 6915   2.111   3.647   3.103
 2298SOL    HW1 6916   2.168   3.582   3.153
 2298SOL    HW2 6917   2.095   3.614   3.010
 2299SOL     OW 6918   2.802   3.560   2.766
 2299SOL    HW1 6919   2.882   3.503   2.787
 2299SOL    HW2 6920   2.753   3.520   2.689
 2300SOL     OW 6921   2.244   2.562   2.342
 2300SOL    HW1 6922   2.289   2.472   2.339
 2300SOL    HW2 6923   2.150   2.551   2.375
 2301SOL     OW 6924   3.409   2.084   3.591
 2301SOL    HW1 6925   3.404   2.121   3.683
 2301SOL    HW2 6926   3.337   2.015   3.579
 2302SOL     OW 6927   2.476   1.984   1.979
 2302SOL    HW1 6928   2.574   1.962   1.986
 2302SOL    HW2 6929   2.445   1.967   1.886
 2303SOL     OW 6930   2.643   2.126   3.611
 2303SOL    HW1 6931   2.710   2.065   3.654
 2303SOL    HW2 6932   2.570   2.145   3.676
 2304SOL     OW 6933   2.750   3.376   3.057
 2304SOL    HW1 6934   2.727   3.351   2.963
 2304SOL    HW2 6935   2.811   3.307   3.096
 2305SOL     OW 6936   3.213   2.452   3.295
 2305SOL    HW1 6937   3.241   2.409   3.380
 2305SOL    HW2 6938   3.238   2.548   3.296
 2306SOL     OW 6939   2.665   3.264   2.786
 2306SOL    HW1 6940   2.755   3.278   2.744
 2306SOL    HW2 6941   2.594   3.266   2.715
 2307SOL     OW 6942   2.784   2.365   2.761
 2307SOL    HW1 6943   2.759   2.356   2.665
 2307SOL    HW2 6944   2.832   2.283   2.792
 2308SOL     OW 6945   2.401   1.926   2.374
 2308SOL    HW1 6946   2.320   1.927   2.432
 2308SOL    HW2 6947   2.404   2.009   2.319
 2309SOL     OW 6948   3.296   3.050   1.903
 2309SOL    HW1 6949   3.328   2.974   1.960
 2309SOL    HW2 6950   3.204   3.077   1.933
 2310SOL     OW 6951   2.159   1.897   2.033
 2310SOL    HW1 6952   2.208   1.981   2.012
 2310SOL    HW2 6953   2.221   1.832   2.078
 2311SOL     OW 6954   2.797   2.098   2.342
 2311SOL    HW1 6955   2.749   2.139   2.264
 2311SOL    HW2 6956   2.896   2.096   2.323
 2312SOL     OW 6957   2.938   2.545   3.326
 2312SOL    HW1 6958   2.858   2.484   3.329
 2312SOL    HW2 6959   3.019   2.492   3.302
 2313SOL     OW 6960   3.089   3.432   2.655
 2313SOL    HW1 6961   3.110   3.506   2.590
 2313SOL    HW2 6962   3.157   3.432   2.728
 2314SOL     OW 6963   2.321   3.014   2.603
 2314SOL    HW1 6964   2.250   2.987   2.668
 2314SOL    HW2 6965   2.295   2.986   2.510
 2315SOL     OW 6966   3.133   3.659   2.453
 2315SOL    HW1 6967   3.177   3.723   2.389
 2315SOL    HW2 6968   3.083   3.711   2.523
 2316SOL     OW 6969   2.894   2.411   1.878
 2316SOL    HW1 6970   2.853   2.493   1.839
 2316SOL    HW2 6971   2.958   2.437   1.951
 2317SOL     OW 6972   1.940   2.418   3.248
 2317SOL    HW1 6973   2.032   2.417   3.207
 2317SOL    HW2 6974   1.934   2.492   3.315
 2318SOL     OW 6975   2.423   2.084   3.009
 2318SOL    HW1 6976   2.461   2.000   3.046
 2318SOL    HW2 6977   2.335   2.103   3.053
 2319SOL     OW 6978   2.728   2.316   2.504
 2319SOL    HW1 6979   2.696   2.388   2.442
 2319SOL    HW2 6980   2.752   2.235   2.451
 2320SOL     OW 6981   2.879   1.901   2.615
 2320SOL    HW1 6982   2.807   1.906   2.546
 2320SOL    HW2 6983   2.855   1.832   2.684
 2321SOL     OW 6984   3.291   3.035   2.729
 2321SOL    HW1 6985   3.236   2.951   2.722
 2321SOL    HW2 6986   3.317   3.064   2.637
 2322SOL     OW 6987   3.328   2.452   2.854
 2322SOL    HW1 6988   3.298   2.357   2.861
 2322SOL    HW2 6989   3.401   2.468   2.920
 2323SOL     OW 6990   3.719   2.695   2.239
 2323SOL    HW1 6991   3.761   2.631   2.303
 2323SOL    HW2 6992   3.681   2.644   2.161
 2324SOL     OW 6993   2.350   3.247   2.036
 2324SOL    HW1 6994   2.263   3.232   2.083
 2324SOL    HW2 6995   2.333   3.273   1.941
 2325SOL     OW 6996   3.526   3.142   2.519
 2325SOL    HW1 6997   3.625   3.150   2.533
 2325SOL    HW2 6998   3.481   3.226   2.550
 2326SOL     OW 6999   3.252   2.437   1.940
 2326SOL    HW1 7000   3.198   2.416   2.021
 2326SOL    HW2 7001   3.343   2.396   1.949
 2327SOL     OW 7002   3.616   3.085   3.450
 2327SOL    HW1 7003   3.707   3.046   3.437
 2327SOL    HW2 7004   3.624   3.181   3.474
 2328SOL     OW 7005   2.926   3.209   3.202
 2328SOL    HW1 7006   2.846   3.186   3.257
 2328SOL    HW2 7007   3.009   3.183   3.251
 2329SOL     OW 7008   3.454   3.491   3.487
 2329SOL    HW1 7009   3.481   3.525   3.397
 2329SOL    HW2 7010   3.533   3.453   3.533
 2330SOL     OW 7011   2.973   3.057   2.962
 2330SOL    HW1 7012   2.933   3.101   3.043
 2330SOL    HW2 7013   2.932   3.094   2.879
 2331SOL     OW 7014   3.500   2.961   2.941
 2331SOL    HW1 7015   3.505   3.042   3.000
 2331SOL    HW2 7016   3.414   2.963   2.890
 2332SOL     OW 7017   2.777   1.951   3.264
 2332SOL    HW1 7018   2.802   1.931   3.169
 2332SOL    HW2 7019   2.849   2.007   3.306
 2333SOL     OW 7020   2.842   2.978   3.581
 2333SOL    HW1 7021   2.743   2.984   3.591
 2333SOL    HW2 7022   2.865   2.898   3.525
 2334SOL     OW 7023   2.567   2.912   2.230
 2334SOL    HW1 7024   2.553   2.919   2.329
 2334SOL    HW2 7025   2.651   2.861   2.212
 2335SOL     OW 7026   2.272   2.675   3.113
 2335SOL    HW1 7027   2.358   2.687   3.163
 2335SOL    HW2 7028   2.230   2.588   3.140
 2336SOL     OW 7029   3.136   2.248   3.124
 2336SOL    HW1 7030   3.157   2.322   3.188
 2336SOL    HW2 7031   3.047   2.265   3.081
 2337SOL     OW 7032   1.926   3.426   3.193
 2337SOL    HW1 7033   1.880   3.508   3.159
 2337SOL    HW2 7034   2.024   3.445   3.202
 2338SOL     OW 7035   2.229   2.962   2.363
 2338SOL    HW1 7036   2.222   3.045   2.307
 2338SOL    HW2 7037   2.233   2.882   2.303
 2339SOL     OW 7038   3.114   3.210   2.250
 2339SOL    HW1 7039   3.164   3.287   2.290
 2339SOL    HW2 7040   3.019   3.212   2.282
 2340SOL     OW 7041   3.134   3.307   3.004
 2340SOL    HW1 7042   3.181   3.320   3.091
 2340SOL    HW2 7043   3.068   3.233   3.013
 2341SOL     OW 7044   3.444   2.501   2.334
 2341SOL    HW1 7045   3.413   2.562   2.407
 2341SOL    HW2 7046   3.494   2.553   2.265
 2342SOL     OW 7047   2.216   3.372   3.191
 2342SOL    HW1 7048   2.195   3.328   3.104
 2342SOL    HW2 7049   2.313   3.398   3.194
 2343SOL     OW 7050   2.264   2.613   3.460
 2343SOL    HW1 7051   2.332   2.668   3.413
 2343SOL    HW2 7052   2.304   2.525   3.487
 2344SOL     OW 7053   3.449   2.641   3.532
 2344SOL    HW1 7054   3.357   2.679   3.527
 2344SOL    HW2 7055   3.509   2.688   3.467
 2345SOL     OW 7056   2.875   1.967   3.632
 2345SOL    HW1 7057   2.881   2.052   3.580
 2345SOL    HW2 7058   2.907   1.891   3.575
 2346SOL     OW 7059   2.366   1.912   3.602
 2346SOL    HW1 7060   2.324   1.855   3.532
 2346SOL    HW2 7061   2.300   1.981   3.634
 2347SOL     OW 7062   2.435   2.732   2.891
 2347SOL    HW1 7063   2.479   2.821   2.882
 2347SOL    HW2 7064   2.372   2.732   2.968
 2348SOL     OW 7065   3.222   2.724   2.907
 2348SOL    HW1 7066   3.147   2.724   2.841
 2348SOL    HW2 7067   3.259   2.632   2.916
 2349SOL     OW 7068   3.071   2.387   2.137
 2349SOL    HW1 7069   3.084   2.303   2.191
 2349SOL    HW2 7070   3.042   2.461   2.197
 2350SOL     OW 7071   2.169   2.075   3.093
 2350SOL    HW1 7072   2.146   2.112   3.183
 2350SOL    HW2 7073   2.139   1.980   3.087
 2351SOL     OW 7074   1.899   3.172   3.144
 2351SOL    HW1 7075   1.952   3.123   3.212
 2351SOL    HW2 7076   1.921   3.270   3.149
 2352SOL     OW 7077   2.594   2.496   2.926
 2352SOL    HW1 7078   2.653   2.470   2.850
 2352SOL    HW2 7079   2.566   2.592   2.915
 2353SOL     OW 7080   3.590   2.797   3.716
 2353SOL    HW1 7081   3.544   2.790   3.627
 2353SOL    HW2 7082   3.528   2.841   3.782
 2354SOL     OW 7083   2.169   1.925   2.480
 2354SOL    HW1 7084   2.158   2.019   2.513
 2354SOL    HW2 7085   2.164   1.862   2.557
 2355SOL     OW 7086   3.484   2.229   2.236
 2355SOL    HW1 7087   3.486   2.153   2.300
 2355SOL    HW2 7088   3.436   2.306   2.276
 2356SOL     OW 7089   2.885   2.628   2.828
 2356SOL    HW1 7090   2.900   2.649   2.924
 2356SOL    HW2 7091   2.855   2.533   2.819
 2357SOL     OW 7092   2.842   3.435   3.562
 2357SOL    HW1 7093   2.822   3.479   3.474
 2357SOL    HW2 7094   2.881   3.344   3.546
 2358SOL     OW 7095   3.721   3.380   3.467
 2358SOL    HW1 7096   3.735   3.407   3.372
 2358SOL    HW2 7097   3.804   3.402   3.520
 2359SOL     OW 7098   2.212   2.760   3.666
 2359SOL    HW1 7099   2.288   2.804   3.714
 2359SOL    HW2 7100   2.247   2.713   3.584
 2360SOL     OW 7101   3.402   2.136   1.987
 2360SOL    HW1 7102   3.341   2.061   2.010
 2360SOL    HW2 7103   3.424   2.188   2.070
 2361SOL     OW 7104   3.165   2.700   1.904
 2361SOL    HW1 7105   3.199   2.607   1.919
 2361SOL    HW2 7106   3.183   2.727   1.809
 2362SOL     OW 7107   2.930   3.195   2.711
 2362SOL    HW1 7108   2.937   3.111   2.656
 2362SOL    HW2 7109   2.992   3.264   2.675
 2363SOL     OW 7110   3.000   2.242   3.540
 2363SOL    HW1 7111   2.955   2.305   3.604
 2363SOL    HW2 7112   3.093   2.273   3.523
 2364SOL     OW 7113   3.022   2.069   3.339
 2364SOL    HW1 7114   3.022   2.133   3.416
 2364SOL    HW2 7115   3.050   2.117   3.256
 2365SOL     OW 7116   1.870   3.188   2.062
 2365SOL    HW1 7117   1.777   3.209   2.031
 2365SOL    HW2 7118   1.880   3.089   2.075
 2366SOL     OW 7119   1.950   3.663   2.789
 2366SOL    HW1 7120   1.908   3.577   2.762
 2366SOL    HW2 7121   2.044   3.666   2.755
 2367SOL     OW 7122   2.366   3.430   2.772
 2367SOL    HW1 7123   2.432   3.504   2.781
 2367SOL    HW2 7124   2.410   3.351   2.730
 2368SOL     OW 7125   2.864   2.658   3.100
 2368SOL    HW1 7126   2.905   2.626   3.186
 2368SOL    HW2 7127   2.768   2.631   3.097
 2369SOL     OW 7128   1.902   2.406   2.976
 2369SOL    HW1 7129   1.987   2.373   2.935
 2369SOL    HW2 7130   1.915   2.421   3.074
 2370SOL     OW 7131   2.051   2.382   3.584
 2370SOL    HW1 7132   2.110   2.342   3.514
 2370SOL    HW2 7133   1.993   2.453   3.543
 2371SOL     OW 7134   3.231   2.812   3.522
 2371SOL    HW1 7135   3.270   2.901   3.542
 2371SOL    HW2 7136   3.241   2.792   3.425
 2372SOL     OW 7137   3.519   2.466   3.068
 2372SOL    HW1 7138   3.481   2.397   3.130
 2372SOL    HW2 7139   3.601   2.430   3.024
 2373SOL     OW 7140   2.114   3.426   3.606
 2373SOL    HW1 7141   2.084   3.483   3.682
 2373SOL    HW2 7142   2.107   3.329   3.632
 2374SOL     OW 7143   2.533   2.326   3.131
 2374SOL    HW1 7144   2.499   2.237   3.101
 2374SOL    HW2 7145   2.559   2.380   3.051
 2375SOL     OW 7146   2.792   3.540   3.327
 2375SOL    HW1 7147   2.768   3.522   3.232
 2375SOL    HW2 7148   2.822   3.634   3.337
 2376SOL     OW 7149   2.021   2.999   3.328
 2376SOL    HW1 7150   2.043   2.938   3.404
 2376SOL    HW2 7151   2.031   2.950   3.242
 2377SOL     OW 7152   3.209   2.921   3.096
 2377SOL    HW1 7153   3.233   2.858   3.022
 2377SOL    HW2 7154   3.119   2.961   3.078
 2378SOL     OW 7155   3.164   2.717   2.171
 2378SOL    HW1 7156   3.078   2.686   2.213
 2378SOL    HW2 7157   3.160   2.703   2.072
 2379SOL     OW 7158   3.621   3.609   3.016
 2379SOL    HW1 7159   3.682   3.639   2.943
 2379SOL    HW2 7160   3.583   3.520   2.994
 2380SOL     OW 7161   3.114   3.593   2.990
 2380SOL    HW1 7162   3.198   3.598   2.936
 2380SOL    HW2 7163   3.091   3.497   3.008
 2381SOL     OW 7164   1.945   3.120   2.884
 2381SOL    HW1 7165   1.940   3.119   2.984
 2381SOL    HW2 7166   1.862   3.079   2.846
 2382SOL     OW 7167   2.550   3.524   3.578
 2382SOL    HW1 7168   2.494   3.605   3.587
 2382SOL    HW2 7169   2.602   3.528   3.492
 2383SOL     OW 7170   3.588   1.997   2.385
 2383SOL    HW1 7171   3.661   1.980   2.318
 2383SOL    HW2 7172   3.557   1.910   2.423
 2384SOL     OW 7173   3.250   3.435   2.339
 2384SOL    HW1 7174   3.317   3.447   2.265
 2384SOL    HW2 7175   3.210   3.524   2.362
 2385SOL     OW 7176   1.992   3.656   3.713
 2385SOL    HW1 7177   1.951   3.582   3.766
 2385SOL    HW2 7178   2.056   3.707   3.771
 2386SOL     OW 7179   3.142   2.789   2.534
 2386SOL    HW1 7180   3.202   2.708   2.536
 2386SOL    HW2 7181   3.182   2.858   2.474
 2387SOL     OW 7182   2.692   3.135   3.284
 2387SOL    HW1 7183   2.687   3.168   3.379
 2387SOL    HW2 7184   2.606   3.154   3.238
 2388SOL     OW 7185   2.534   3.478   2.016
 2388SOL    HW1 7186   2.543   3.488   1.917
 2388SOL    HW2 7187   2.494   3.389   2.037
 2389SOL     OW 7188   3.512   3.582   3.256
 2389SOL    HW1 7189   3.565   3.592   3.172
 2389SOL    HW2 7190   3.485   3.672   3.290
 2390SOL     OW 7191   3.703   2.037   2.825
 2390SOL    HW1 7192   3.742   1.952   2.789
 2390SOL    HW2 7193   3.605   2.039   2.806
 2391SOL     OW 7194   2.125   2.188   2.582
 2391SOL    HW1 7195   2.046   2.239   2.548
 2391SOL    HW2 7196   2.116   2.173   2.680
 2392SOL     OW 7197   3.056   3.474   1.893
 2392SOL    HW1 7198   3.062   3.381   1.930
 2392SOL    HW2 7199   2.997   3.474   1.813
 2393SOL     OW 7200   2.684   2.864   3.234
 2393SOL    HW1 7201   2.724   2.863   3.142
 2393SOL    HW2 7202   2.694   2.956   3.274
 2394SOL     OW 7203   2.778   2.772   2.153
 2394SOL    HW1 7204   2.841   2.810   2.085
 2394SOL    HW2 7205   2.818   2.689   2.192
 2395SOL     OW 7206   3.366   3.469   1.906
 2395SOL    HW1 7207   3.274   3.506   1.913
 2395SOL    HW2 7208   3.404   3.489   1.816
 2396SOL     OW 7209   2.234   3.150   3.352
 2396SOL    HW1 7210   2.221   3.243   3.318
 2396SOL    HW2 7211   2.150   3.098   3.339
 2397SOL     OW 7212   3.476   3.154   3.151
 2397SOL    HW1 7213   3.536   3.157   3.231
 2397SOL    HW2 7214   3.401   3.218   3.164
 2398SOL     OW 7215   2.901   2.960   2.558
 2398SOL    HW1 7216   2.831   2.913   2.612
 2398SOL    HW2 7217   2.960   2.892   2.515
 2399SOL     OW 7218   2.876   2.098   2.833
 2399SOL    HW1 7219   2.868   2.062   2.740
 2399SOL    HW2 7220   2.874   2.022   2.898
 2400SOL     OW 7221   2.452   3.349   2.353
 2400SOL    HW1 7222   2.494   3.291   2.283
 2400SOL    HW2 7223   2.408   3.428   2.309
 2401SOL     OW 7224   3.571   2.247   3.243
 2401SOL    HW1 7225   3.644   2.316   3.247
 2401SOL    HW2 7226   3.599   2.172   3.184
 2402SOL     OW 7227   2.117   3.210   2.152
 2402SOL    HW1 7228   2.021   3.211   2.125
 2402SOL    HW2 7229   2.129   3.263   2.236
 2403SOL     OW 7230   1.967   2.875   3.588
 2403SOL    HW1 7231   1.890   2.842   3.642
 2403SOL    HW2 7232   2.052   2.845   3.630
 2404SOL     OW 7233   2.534   2.065   3.351
 2404SOL    HW1 7234   2.624   2.049   3.311
 2404SOL    HW2 7235   2.542   2.070   3.450
 2405SOL     OW 7236   1.937   2.207   1.895
 2405SOL    HW1 7237   1.845   2.179   1.866
 2405SOL    HW2 7238   1.968   2.284   1.839
 2406SOL     OW 7239   3.302   2.718   3.260
 2406SOL    HW1 7240   3.245   2.770   3.197
 2406SOL    HW2 7241   3.398   2.730   3.236
 2407SOL     OW 7242   1.934   2.028   2.180
 2407SOL    HW1 7243   1.917   2.111   2.126
 2407SOL    HW2 7244   2.024   1.991   2.158
 2408SOL     OW 7245   3.045   3.197   1.981
 2408SOL    HW1 7246   2.946   3.186   1.983
 2408SOL    HW2 7247   3.079   3.212   2.074
 2409SOL     OW 7248   2.475   2.704   3.293
 2409SOL    HW1 7249   2.531   2.785   3.276
 2409SOL    HW2 7250   2.534   2.624   3.296
 2410SOL     OW 7251   3.355   3.629   2.821
 2410SOL    HW1 7252   3.388   3.693   2.752
 2410SOL    HW2 7253   3.421   3.623   2.896
 2411SOL     OW 7254   2.578   2.427   3.570
 2411SOL    HW1 7255   2.597   2.492   3.644
 2411SOL    HW2 7256   2.638   2.347   3.579
 2412SOL     OW 7257   3.312   3.082   3.495
 2412SOL    HW1 7258   3.303   3.072   3.594
 2412SOL    HW2 7259   3.408   3.075   3.469
 2413SOL     OW 7260   2.252   3.603   3.422
 2413SOL    HW1 7261   2.161   3.644   3.420
 2413SOL    HW2 7262   2.245   3.509   3.454
 2414SOL     OW 7263   3.536   2.745   3.116
 2414SOL    HW1 7264   3.509   2.656   3.079
 2414SOL    HW2 7265   3.537   2.813   3.043
 2415SOL     OW 7266   3.087   2.187   2.311
 2415SOL    HW1 7267   3.152   2.113   2.300
 2415SOL    HW2 7268   3.107   2.237   2.395
 2416SOL     OW 7269   3.639   2.204   3.504
 2416SOL    HW1 7270   3.622   2.235   3.410
 2416SOL    HW2 7271   3.555   2.167   3.542
 2417SOL     OW 7272   3.592   2.796   3.379
 2417SOL    HW1 7273   3.630   2.887   3.394
 2417SOL    HW2 7274   3.584   2.779   3.280
 2418SOL     OW 7275   2.721   3.236   1.878
 2418SOL    HW1 7276   2.675   3.251   1.966
 2418SOL    HW2 7277   2.765   3.321   1.848
 2419SOL     OW 7278   2.523   3.652   2.815
 2419SOL    HW1 7279   2.477   3.740   2.802
 2419SOL    HW2 7280   2.622   3.664   2.808
 2420SOL     OW 7281   2.721   2.818   2.723
 2420SOL    HW1 7282   2.775   2.749   2.771
 2420SOL    HW2 7283   2.689   2.887   2.789
 2421SOL     OW 7284   2.945   2.846   1.949
 2421SOL    HW1 7285   2.922   2.899   1.867
 2421SOL    HW2 7286   3.026   2.790   1.930
 2422SOL     OW 7287   3.723   3.431   2.713
 2422SOL    HW1 7288   3.652   3.419   2.643
 2422SOL    HW2 7289   3.724   3.352   2.773
 2423SOL     OW 7290   2.083   3.176   3.706
 2423SOL    HW1 7291   2.018   3.103   3.685
 2423SOL    HW2 7292   2.087   3.190   3.804
 2424SOL     OW 7293   1.941   3.102   2.515
 2424SOL    HW1 7294   1.940   3.055   2.603
 2424SOL    HW2 7295   2.023   3.074   2.464
 2425SOL     OW 7296   2.534   3.253   3.486
 2425SOL    HW1 7297   2.456   3.203   3.524
 2425SOL    HW2 7298   2.531   3.348   3.517
 2426SOL     OW 7299   3.686   2.054   3.089
 2426SOL    HW1 7300   3.682   1.964   3.133
 2426SOL    HW2 7301   3.689   2.043   2.990
 2427SOL     OW 7302   2.290   2.286   2.382
 2427SOL    HW1 7303   2.320   2.214   2.320
 2427SOL    HW2 7304   2.251   2.246   2.465
 2428SOL     OW 7305   3.567   3.349   2.966
 2428SOL    HW1 7306   3.474   3.324   2.939
 2428SOL    HW2 7307   3.593   3.299   3.048
 2429SOL     OW 7308   2.179   2.409   3.142
 2429SOL    HW1 7309   2.217   2.350   3.214
 2429SOL    HW2 7310   2.219   2.383   3.054
 2430SOL     OW 7311   2.674   3.448   2.549
 2430SOL    HW1 7312   2.706   3.458   2.455
 2430SOL    HW2 7313   2.595   3.386   2.551
 2431SOL     OW 7314   3.286   2.076   2.974
 2431SOL    HW1 7315   3.338   2.011   3.029
 2431SOL    HW2 7316   3.237   2.139   3.035
 2432SOL     OW 7317   2.863   1.896   3.016
 2432SOL    HW1 7318   2.800   1.824   2.985
 2432SOL    HW2 7319   2.956   1.860   3.016
 2433SOL     OW 7320   2.632   3.192   2.163
 2433SOL    HW1 7321   2.586   3.105   2.180
 2433SOL    HW2 7322   2.723   3.189   2.204
 2434SOL     OW 7323   2.480   3.429   3.146
 2434SOL    HW1 7324   2.475   3.511   3.203
 2434SOL    HW2 7325   2.569   3.426   3.101
 2435SOL     OW 7326   3.214   1.914   2.030
 2435SOL    HW1 7327   3.249   1.873   1.946
 2435SOL    HW2 7328   3.124   1.876   2.050
 2436SOL     OW 7329   3.162   2.315   2.553
 2436SOL    HW1 7330   3.103   2.395   2.557
 2436SOL    HW2 7331   3.177   2.280   2.646
 2437SOL     OW 7332   3.455   2.083   2.744
 2437SOL    HW1 7333   3.371   2.082   2.798
 2437SOL    HW2 7334   3.457   2.166   2.688
 2438SOL     OW 7335   1.901   2.939   2.162
 2438SOL    HW1 7336   2.000   2.928   2.153
 2438SOL    HW2 7337   1.861   2.853   2.194
 2439SOL     OW 7338   2.737   3.508   2.199
 2439SOL    HW1 7339   2.660   3.473   2.145
 2439SOL    HW2 7340   2.705   3.579   2.261
 2440SOL     OW 7341   2.092   2.490   3.837
 2440SOL    HW1 7342   1.999   2.488   3.874
 2440SOL    HW2 7343   2.093   2.451   3.745
 2441SOL     OW 7344   2.087   2.137   4.720
 2441SOL    HW1 7345   2.122   2.120   4.812
 2441SOL    HW2 7346   1.999   2.092   4.708
 2442SOL     OW 7347   1.881   2.230   4.371
 2442SOL    HW1 7348   1.799   2.273   4.410
 2442SOL    HW2 7349   1.853   2.157   4.308
 2443SOL     OW 7350   3.417   3.373   4.427
 2443SOL    HW1 7351   3.360   3.357   4.508
 2443SOL    HW2 7352   3.358   3.383   4.347
 2444SOL     OW 7353   2.997   2.565   4.441
 2444SOL    HW1 7354   3.054   2.643   4.416
 2444SOL    HW2 7355   2.937   2.591   4.517
 2445SOL     OW 7356   3.617   2.469   3.955
 2445SOL    HW1 7357   3.605   2.456   3.856
 2445SOL    HW2 7358   3.587   2.388   4.004
 2446SOL     OW 7359   2.630   3.006   4.747
 2446SOL    HW1 7360   2.552   3.023   4.807
 2446SOL    HW2 7361   2.664   3.093   4.711
 2447SOL     OW 7362   2.547   2.874   4.389
 2447SOL    HW1 7363   2.616   2.858   4.459
 2447SOL    HW2 7364   2.474   2.931   4.427
 2448SOL     OW 7365   2.197   3.297   4.785
 2448SOL    HW1 7366   2.119   3.266   4.732
 2448SOL    HW2 7367   2.255   3.355   4.728
 2449SOL     OW 7368   3.465   2.309   4.461
 2449SOL    HW1 7369   3.391   2.355   4.411
 2449SOL    HW2 7370   3.516   2.377   4.514
 2450SOL     OW 7371   2.093   3.575   4.207
 2450SOL    HW1 7372   2.127   3.652   4.261
 2450SOL    HW2 7373   2.137   3.575   4.117
 2451SOL     OW 7374   2.092   3.296   4.262
 2451SOL    HW1 7375   2.066   3.392   4.262
 2451SOL    HW2 7376   2.021   3.242   4.307
 2452SOL     OW 7377   2.102   2.953   4.610
 2452SOL    HW1 7378   2.116   2.869   4.662
 2452SOL    HW2 7379   2.047   3.017   4.665
 2453SOL     OW 7380   2.468   2.826   3.847
 2453SOL    HW1 7381   2.475   2.910   3.793
 2453SOL    HW2 7382   2.514   2.839   3.935
 2454SOL     OW 7383   1.984   2.505   4.287
 2454SOL    HW1 7384   1.939   2.417   4.304
 2454SOL    HW2 7385   1.983   2.559   4.371
 2455SOL     OW 7386   3.704   3.629   4.083
 2455SOL    HW1 7387   3.758   3.600   4.163
 2455SOL    HW2 7388   3.734   3.719   4.054
 2456SOL     OW 7389   1.889   3.458   3.841
 2456SOL    HW1 7390   1.870   3.362   3.862
 2456SOL    HW2 7391   1.856   3.516   3.916
 2457SOL     OW 7392   3.551   2.784   4.336
 2457SOL    HW1 7393   3.646   2.755   4.344
 2457SOL    HW2 7394   3.543   2.849   4.261
 2458SOL     OW 7395   3.503   2.970   4.156
 2458SOL    HW1 7396   3.589   2.972   4.104
 2458SOL    HW2 7397   3.517   3.017   4.244
 2459SOL     OW 7398   2.475   3.227   4.450
 2459SOL    HW1 7399   2.426   3.140   4.459
 2459SOL    HW2 7400   2.452   3.270   4.363
 2460SOL     OW 7401   2.671   1.866   4.226
 2460SOL    HW1 7402   2.711   1.957   4.217
 2460SOL    HW2 7403   2.571   1.874   4.232
 2461SOL     OW 7404   2.059   2.838   4.988
 2461SOL    HW1 7405   2.148   2.793   4.974
 2461SOL    HW2 7406   1.986   2.773   4.969
 2462SOL     OW 7407   3.387   2.861   3.914
 2462SOL    HW1 7408   3.324   2.785   3.927
 2462SOL    HW2 7409   3.435   2.879   4.000
 2463SOL     OW 7410   3.328   3.279   4.677
 2463SOL    HW1 7411   3.269   3.285   4.757
 2463SOL    HW2 7412   3.313   3.191   4.631
 2464SOL     OW 7413   3.529   3.576   4.296
 2464SOL    HW1 7414   3.488   3.553   4.208
 2464SOL    HW2 7415   3.511   3.502   4.361
 2465SOL     OW 7416   2.460   2.591   3.994
 2465SOL    HW1 7417   2.484   2.660   3.926
 2465SOL    HW2 7418   2.382   2.624   4.048
 2466SOL     OW 7419   3.143   2.207   4.668
 2466SOL    HW1 7420   3.057   2.157   4.655
 2466SOL    HW2 7421   3.205   2.153   4.724
 2467SOL     OW 7422   3.438   3.524   4.031
 2467SOL    HW1 7423   3.527   3.570   4.034
 2467SOL    HW2 7424   3.417   3.500   3.936
 2468SOL     OW 7425   2.903   2.563   4.153
 2468SOL    HW1 7426   2.929   2.559   4.249
 2468SOL    HW2 7427   2.818   2.512   4.139
 2469SOL     OW 7428   1.938   2.673   4.513
 2469SOL    HW1 7429   2.037   2.661   4.522
 2469SOL    HW2 7430   1.914   2.768   4.534
 2470SOL     OW 7431   2.727   2.210   3.919
 2470SOL    HW1 7432   2.786   2.273   3.870
 2470SOL    HW2 7433   2.746   2.116   3.890
 2471SOL     OW 7434   3.224   3.006   4.269
 2471SOL    HW1 7435   3.307   2.977   4.221
 2471SOL    HW2 7436   3.175   3.073   4.213
 2472SOL     OW 7437   2.412   2.058   4.609
 2472SOL    HW1 7438   2.407   2.053   4.709
 2472SOL    HW2 7439   2.414   2.154   4.580
 2473SOL     OW 7440   2.870   3.318   4.201
 2473SOL    HW1 7441   2.824   3.390   4.149
 2473SOL    HW2 7442   2.866   3.338   4.299
 2474SOL     OW 7443   2.213   3.663   4.577
 2474SOL    HW1 7444   2.263   3.577   4.583
 2474SOL    HW2 7445   2.278   3.740   4.574
 2475SOL     OW 7446   3.657   2.928   4.597
 2475SOL    HW1 7447   3.595   2.913   4.521
 2475SOL    HW2 7448   3.605   2.939   4.682
 2476SOL     OW 7449   2.183   2.805   3.966
 2476SOL    HW1 7450   2.265   2.844   3.924
 2476SOL    HW2 7451   2.156   2.723   3.917
 2477SOL     OW 7452   3.320   2.597   4.452
 2477SOL    HW1 7453   3.315   2.532   4.527
 2477SOL    HW2 7454   3.400   2.656   4.465
 2478SOL     OW 7455   2.973   3.638   3.961
 2478SOL    HW1 7456   2.913   3.576   4.011
 2478SOL    HW2 7457   3.004   3.594   3.876
 2479SOL     OW 7458   3.494   3.239   3.805
 2479SOL    HW1 7459   3.462   3.333   3.795
 2479SOL    HW2 7460   3.418   3.176   3.793
 2480SOL     OW 7461   2.326   3.605   4.047
 2480SOL    HW1 7462   2.359   3.644   4.133
 2480SOL    HW2 7463   2.402   3.598   3.982
 2481SOL     OW 7464   3.262   1.969   4.150
 2481SOL    HW1 7465   3.238   1.932   4.060
 2481SOL    HW2 7466   3.361   1.985   4.154
 2482SOL     OW 7467   2.111   3.647   4.965
 2482SOL    HW1 7468   2.168   3.582   5.015
 2482SOL    HW2 7469   2.095   3.614   4.872
 2483SOL     OW 7470   2.802   3.560   4.628
 2483SOL    HW1 7471   2.882   3.503   4.649
 2483SOL    HW2 7472   2.753   3.520   4.551
 2484SOL     OW 7473   2.244   2.562   4.204
 2484SOL    HW1 7474   2.289   2.472   4.201
 2484SOL    HW2 7475   2.150   2.551   4.237
 2485SOL     OW 7476   2.476   1.984   3.841
 2485SOL    HW1 7477   2.574   1.962   3.848
 2485SOL    HW2 7478   2.445   1.967   3.748
 2486SOL     OW 7479   2.665   3.264   4.648
 2486SOL    HW1 7480   2.755   3.278   4.606
 2486SOL    HW2 7481   2.594   3.266   4.577
 2487SOL     OW 7482   2.784   2.365   4.623
 2487SOL    HW1 7483   2.759   2.356   4.527
 2487SOL    HW2 7484   2.832   2.283   4.654
 2488SOL     OW 7485   2.401   1.926   4.236
 2488SOL    HW1 7486   2.320   1.927   4.294
 2488SOL    HW2 7487   2.404   2.009   4.181
 2489SOL     OW 7488   3.296   3.050   3.765
 2489SOL    HW1 7489   3.328   2.974   3.822
 2489SOL    HW2 7490   3.204   3.077   3.795
 2490SOL     OW 7491   2.159   1.897   3.895
 2490SOL    HW1 7492   2.208   1.981   3.874
 2490SOL    HW2 7493   2.221   1.832   3.940
 2491SOL     OW 7494   2.797   2.098   4.204
 2491SOL    HW1 7495   2.749   2.139   4.126
 2491SOL    HW2 7496   2.896   2.096   4.185
 2492SOL     OW 7497   3.089   3.432   4.517
 2492SOL    HW1 7498   3.110   3.506   4.452
 2492SOL    HW2 7499   3.157   3.432   4.590
 2493SOL     OW 7500   2.321   3.014   4.465
 2493SOL    HW1 7501   2.250   2.987   4.530
 2493SOL    HW2 7502   2.295   2.986   4.372
 2494SOL     OW 7503   3.133   3.659   4.315
 2494SOL    HW1 7504   3.177   3.723   4.251
 2494SOL    HW2 7505   3.083   3.711   4.385
 2495SOL     OW 7506   2.894   2.411   3.740
 2495SOL    HW1 7507   2.853   2.493   3.701
 2495SOL    HW2 7508   2.958   2.437   3.813
 2496SOL     OW 7509   2.728   2.316   4.366
 2496SOL    HW1 7510   2.696   2.388   4.304
 2496SOL    HW2 7511   2.752   2.235   4.313
 2497SOL     OW 7512   2.879   1.901   4.477
 2497SOL    HW1 7513   2.807   1.906   4.408
 2497SOL    HW2 7514   2.855   1.832   4.546
 2498SOL     OW 7515   3.291   3.035   4.591
 2498SOL    HW1 7516   3.236   2.951   4.584
 2498SOL    HW2 7517   3.317   3.064   4.499
 2499SOL     OW 7518   3.328   2.452   4.716
 2499SOL    HW1 7519   3.298   2.357   4.723
 2499SOL    HW2 7520   3.401   2.468   4.782
 2500SOL     OW 7521   3.719   2.695   4.101
 2500SOL    HW1 7522   3.761   2.631   4.165
 2500SOL    HW2 7523   3.681   2.644   4.023
 2501SOL     OW 7524   2.350   3.247   3.898
 2501SOL    HW1 7525   2.263   3.232   3.945
 2501SOL    HW2 7526   2.333   3.273   3.803
 2502SOL     OW 7527   3.526   3.142   4.381
 2502SOL    HW1 7528   3.625   3.150   4.395
 2502SOL    HW2 7529   3.481   3.226   4.412
 2503SOL     OW 7530   3.252   2.437   3.802
 2503SOL    HW1 7531   3.198   2.416   3.883
 2503SOL    HW2 7532   3.343   2.396   3.811
 2504SOL     OW 7533   2.389   2.118   4.052
 2504SOL    HW1 7534   2.416   2.059   3.977
 2504SOL    HW2 7535   2.389   2.213   4.021
 2505SOL     OW 7536   2.973   3.057   4.824
 2505SOL    HW1 7537   2.933   3.101   4.905
 2505SOL    HW2 7538   2.932   3.094   4.741
 2506SOL     OW 7539   3.500   2.961   4.803
 2506SOL    HW1 7540   3.505   3.042   4.862
 2506SOL    HW2 7541   3.414   2.963   4.752
 2507SOL     OW 7542   2.567   2.912   4.092
 2507SOL    HW1 7543   2.553   2.919   4.191
 2507SOL    HW2 7544   2.651   2.861   4.074
 2508SOL     OW 7545   2.272   2.675   4.975
 2508SOL    HW1 7546   2.358   2.687   5.025
 2508SOL    HW2 7547   2.230   2.588   5.002
 2509SOL     OW 7548   2.229   2.962   4.225
 2509SOL    HW1 7549   2.222   3.045   4.169
 2509SOL    HW2 7550   2.233   2.882   4.165
 2510SOL     OW 7551   2.428   2.399   4.589
 2510SOL    HW1 7552   2.440   2.465   4.515
 2510SOL    HW2 7553   2.474   2.433   4.672
 2511SOL     OW 7554   3.114   3.210   4.112
 2511SOL    HW1 7555   3.164   3.287   4.152
 2511SOL    HW2 7556   3.019   3.212   4.144
 2512SOL     OW 7557   3.444   2.501   4.196
 2512SOL    HW1 7558   3.413   2.562   4.269
 2512SOL    HW2 7559   3.494   2.553   4.127
 2513SOL     OW 7560   2.216   3.372   5.053
 2513SOL    HW1 7561   2.195   3.328   4.966
 2513SOL    HW2 7562   2.313   3.398   5.056
 2514SOL     OW 7563   2.435   2.732   4.753
 2514SOL    HW1 7564   2.479   2.821   4.744
 2514SOL    HW2 7565   2.372   2.732   4.830
 2515SOL     OW 7566   3.071   2.387   3.999
 2515SOL    HW1 7567   3.084   2.303   4.053
 2515SOL    HW2 7568   3.042   2.461   4.059
 2516SOL     OW 7569   2.169   2.075   4.955
 2516SOL    HW1 7570   2.146   2.112   5.045
 2516SOL    HW2 7571   2.139   1.980   4.949
 2517SOL     OW 7572   2.594   2.496   4.788
 2517SOL    HW1 7573   2.653   2.470   4.712
 2517SOL    HW2 7574   2.566   2.592   4.777
 2518SOL     OW 7575   2.169   1.925   4.342
 2518SOL    HW1 7576   2.158   2.019   4.375
 2518SOL    HW2 7577   2.164   1.862   4.419
 2519SOL     OW 7578   3.484   2.229   4.098
 2519SOL    HW1 7579   3.486   2.153   4.162
 2519SOL    HW2 7580   3.436   2.306   4.138
 2520SOL     OW 7581   2.885   2.628   4.690
 2520SOL    HW1 7582   2.900   2.649   4.786
 2520SOL    HW2 7583   2.855   2.533   4.681
 2521SOL     OW 7584   3.402   2.136   3.849
 2521SOL    HW1 7585   3.341   2.061   3.872
 2521SOL    HW2 7586   3.424   2.188   3.932
 2522SOL     OW 7587   3.165   2.700   3.766
 2522SOL    HW1 7588   3.199   2.607   3.781
 2522SOL    HW2 7589   3.183   2.727   3.671
 2523SOL     OW 7590   2.930   3.195   4.573
 2523SOL    HW1 7591   2.937   3.111   4.518
 2523SOL    HW2 7592   2.992   3.264   4.537
 2524SOL     OW 7593   2.181   2.672   4.673
 2524SOL    HW1 7594   2.274   2.708   4.678
 2524SOL    HW2 7595   2.175   2.587   4.725
 2525SOL     OW 7596   2.201   2.371   4.730
 2525SOL    HW1 7597   2.149   2.288   4.713
 2525SOL    HW2 7598   2.278   2.376   4.666
 2526SOL     OW 7599   1.870   3.188   3.924
 2526SOL    HW1 7600   1.777   3.209   3.893
 2526SOL    HW2 7601   1.880   3.089   3.937
 2527SOL     OW 7602   1.950   3.663   4.651
 2527SOL    HW1 7603   1.908   3.577   4.624
 2527SOL    HW2 7604   2.044   3.666   4.617
 2528SOL     OW 7605   2.366   3.430   4.634
 2528SOL    HW1 7606   2.432   3.504   4.643
 2528SOL    HW2 7607   2.410   3.351   4.592
 2529SOL     OW 7608   2.864   2.658   4.962
 2529SOL    HW1 7609   2.905   2.626   5.048
 2529SOL    HW2 7610   2.768   2.631   4.959
 2530SOL     OW 7611   1.902   2.406   4.838
 2530SOL    HW1 7612   1.987   2.373   4.797
 2530SOL    HW2 7613   1.915   2.421   4.936
 2531SOL     OW 7614   2.677   2.434   4.049
 2531SOL    HW1 7615   2.684   2.345   4.003
 2531SOL    HW2 7616   2.583   2.468   4.041
 2532SOL     OW 7617   2.533   2.326   4.993
 2532SOL    HW1 7618   2.499   2.237   4.963
 2532SOL    HW2 7619   2.559   2.380   4.913
 2533SOL     OW 7620   2.335   2.362   3.915
 2533SOL    HW1 7621   2.396   2.442   3.919
 2533SOL    HW2 7622   2.240   2.393   3.922
 2534SOL     OW 7623   3.164   2.717   4.033
 2534SOL    HW1 7624   3.078   2.686   4.075
 2534SOL    HW2 7625   3.160   2.703   3.934
 2535SOL     OW 7626   3.621   3.609   4.878
 2535SOL    HW1 7627   3.682   3.639   4.805
 2535SOL    HW2 7628   3.583   3.520   4.856
 2536SOL     OW 7629   1.945   3.120   4.746
 2536SOL    HW1 7630   1.940   3.119   4.846
 2536SOL    HW2 7631   1.862   3.079   4.708
 2537SOL     OW 7632   3.588   1.997   4.247
 2537SOL    HW1 7633   3.661   1.980   4.180
 2537SOL    HW2 7634   3.557   1.910   4.285
 2538SOL     OW 7635   3.250   3.435   4.201
 2538SOL    HW1 7636   3.317   3.447   4.127
 2538SOL    HW2 7637   3.210   3.524   4.224
 2539SOL     OW 7638   3.142   2.789   4.396
 2539SOL    HW1 7639   3.202   2.708   4.398
 2539SOL    HW2 7640   3.182   2.858   4.336
 2540SOL     OW 7641   2.534   3.478   3.878
 2540SOL    HW1 7642   2.543   3.488   3.779
 2540SOL    HW2 7643   2.494   3.389   3.899
 2541SOL     OW 7644   3.703   2.037   4.687
 2541SOL    HW1 7645   3.742   1.952   4.651
 2541SOL    HW2 7646   3.605   2.039   4.668
 2542SOL     OW 7647   2.125   2.188   4.444
 2542SOL    HW1 7648   2.046   2.239   4.410
 2542SOL    HW2 7649   2.116   2.173   4.542
 2543SOL     OW 7650   3.056   3.474   3.755
 2543SOL    HW1 7651   3.062   3.381   3.792
 2543SOL    HW2 7652   2.997   3.474   3.675
 2544SOL     OW 7653   2.778   2.772   4.015
 2544SOL    HW1 7654   2.841   2.810   3.947
 2544SOL    HW2 7655   2.818   2.689   4.054
 2545SOL     OW 7656   3.366   3.469   3.768
 2545SOL    HW1 7657   3.274   3.506   3.775
 2545SOL    HW2 7658   3.404   3.489   3.678
 2546SOL     OW 7659   2.901   2.960   4.420
 2546SOL    HW1 7660   2.831   2.913   4.474
 2546SOL    HW2 7661   2.960   2.892   4.377
 2547SOL     OW 7662   2.876   2.098   4.695
 2547SOL    HW1 7663   2.868   2.062   4.602
 2547SOL    HW2 7664   2.874   2.022   4.760
 2548SOL     OW 7665   2.452   3.349   4.215
 2548SOL    HW1 7666   2.494   3.291   4.145
 2548SOL    HW2 7667   2.408   3.428   4.171
 2549SOL     OW 7668   2.117   3.210   4.014
 2549SOL    HW1 7669   2.021   3.211   3.987
 2549SOL    HW2 7670   2.129   3.263   4.098
 2550SOL     OW 7671   1.937   2.207   3.757
 2550SOL    HW1 7672   1.845   2.179   3.728
 2550SOL    HW2 7673   1.968   2.284   3.701
 2551SOL     OW 7674   1.934   2.028   4.042
 2551SOL    HW1 7675   1.917   2.111   3.988
 2551SOL    HW2 7676   2.024   1.991   4.020
 2552SOL     OW 7677   3.045   3.197   3.843
 2552SOL    HW1 7678   2.946   3.186   3.845
 2552SOL    HW2 7679   3.079   3.212   3.936
 2553SOL     OW 7680   3.355   3.629   4.683
 2553SOL    HW1 7681   3.388   3.693   4.614
 2553SOL    HW2 7682   3.421   3.623   4.758
 2554SOL     OW 7683   3.536   2.745   4.978
 2554SOL    HW1 7684   3.509   2.656   4.941
 2554SOL    HW2 7685   3.537   2.813   4.905
 2555SOL     OW 7686   3.087   2.187   4.173
 2555SOL    HW1 7687   3.152   2.113   4.162
 2555SOL    HW2 7688   3.107   2.237   4.257
 2556SOL     OW 7689   2.456   2.607   4.376
 2556SOL    HW1 7690   2.506   2.692   4.357
 2556SOL    HW2 7691   2.368   2.609   4.328
 2557SOL     OW 7692   2.721   3.236   3.740
 2557SOL    HW1 7693   2.675   3.251   3.828
 2557SOL    HW2 7694   2.765   3.321   3.710
 2558SOL     OW 7695   2.523   3.652   4.677
 2558SOL    HW1 7696   2.477   3.740   4.664
 2558SOL    HW2 7697   2.622   3.664   4.670
 2559SOL     OW 7698   2.721   2.818   4.585
 2559SOL    HW1 7699   2.775   2.749   4.633
 2559SOL    HW2 7700   2.689   2.887   4.651
 2560SOL     OW 7701   2.945   2.846   3.811
 2560SOL    HW1 7702   2.922   2.899   3.729
 2560SOL    HW2 7703   3.026   2.790   3.792
 2561SOL     OW 7704   3.723   3.431   4.575
 2561SOL    HW1 7705   3.652   3.419   4.505
 2561SOL    HW2 7706   3.724   3.352   4.635
 2562SOL     OW 7707   1.941   3.102   4.377
 2562SOL    HW1 7708   1.940   3.055   4.465
 2562SOL    HW2 7709   2.023   3.074   4.326
 2563SOL     OW 7710   3.686   2.054   4.951
 2563SOL    HW1 7711   3.682   1.964   4.995
 2563SOL    HW2 7712   3.689   2.043   4.852
 2564SOL     OW 7713   2.290   2.286   4.244
 2564SOL    HW1 7714   2.320   2.214   4.182
 2564SOL    HW2 7715   2.251   2.246   4.327
 2565SOL     OW 7716   2.674   3.448   4.411
 2565SOL    HW1 7717   2.706   3.458   4.317
 2565SOL    HW2 7718   2.595   3.386   4.413
 2566SOL     OW 7719   3.286   2.076   4.836
 2566SOL    HW1 7720   3.338   2.011   4.891
 2566SOL    HW2 7721   3.237   2.139   4.897
 2567SOL     OW 7722   2.632   3.192   4.025
 2567SOL    HW1 7723   2.586   3.105   4.042
 2567SOL    HW2 7724   2.723   3.189   4.066
 2568SOL     OW 7725   3.214   1.914   3.892
 2568SOL    HW1 7726   3.249   1.873   3.808
 2568SOL    HW2 7727   3.124   1.876   3.912
 2569SOL     OW 7728   3.162   2.315   4.415
 2569SOL    HW1 7729   3.103   2.395   4.419
 2569SOL    HW2 7730   3.177   2.280   4.508
 2570SOL     OW 7731   3.455   2.083   4.606
 2570SOL    HW1 7732   3.371   2.082   4.660
 2570SOL    HW2 7733   3.457   2.166   4.550
 2571SOL     OW 7734   1.901   2.939   4.024
 2571SOL    HW1 7735   2.000   2.928   4.015
 2571SOL    HW2 7736   1.861   2.853   4.056
 2572SOL     OW 7737   2.737   3.508   4.061
 2572SOL    HW1 7738   2.660   3.473   4.007
 2572SOL    HW2 7739   2.705   3.579   4.123
 2573SOL     OW 7740   2.092   4.352   0.113
 2573SOL    HW1 7741   1.999   4.350   0.150
 2573SOL    HW2 7742   2.093   4.313   0.021
 2574SOL     OW 7743   2.087   3.999   0.996
 2574SOL    HW1 7744   2.122   3.982   1.088
 2574SOL    HW2 7745   1.999   3.954   0.984
 2575SOL     OW 7746   1.881   4.092   0.647
 2575SOL    HW1 7747   1.799   4.135   0.686
 2575SOL    HW2 7748   1.853   4.019   0.584
 2576SOL     OW 7749   2.997   4.427   0.717
 2576SOL    HW1 7750   3.054   4.505   0.692
 2576SOL    HW2 7751   2.937   4.453   0.793
 2577SOL     OW 7752   3.617   4.331   0.231
 2577SOL    HW1 7753   3.605   4.318   0.132
 2577SOL    HW2 7754   3.587   4.250   0.280
 2578SOL     OW 7755   2.630   4.868   1.023
 2578SOL    HW1 7756   2.552   4.885   1.083
 2578SOL    HW2 7757   2.664   4.955   0.987
 2579SOL     OW 7758   2.712   4.522   1.823
 2579SOL    HW1 7759   2.708   4.598   1.888
 2579SOL    HW2 7760   2.734   4.558   1.732
 2580SOL     OW 7761   2.547   4.736   0.665
 2580SOL    HW1 7762   2.616   4.720   0.735
 2580SOL    HW2 7763   2.474   4.793   0.703
 2581SOL     OW 7764   2.300   4.116   1.499
 2581SOL    HW1 7765   2.382   4.060   1.508
 2581SOL    HW2 7766   2.219   4.058   1.503
 2582SOL     OW 7767   3.465   4.171   0.737
 2582SOL    HW1 7768   3.391   4.217   0.687
 2582SOL    HW2 7769   3.516   4.239   0.790
 2583SOL     OW 7770   2.092   5.158   0.538
 2583SOL    HW1 7771   2.066   5.254   0.538
 2583SOL    HW2 7772   2.021   5.104   0.583
 2584SOL     OW 7773   2.102   4.815   0.886
 2584SOL    HW1 7774   2.116   4.731   0.938
 2584SOL    HW2 7775   2.047   4.879   0.941
 2585SOL     OW 7776   2.468   4.688   0.123
 2585SOL    HW1 7777   2.475   4.772   0.069
 2585SOL    HW2 7778   2.514   4.701   0.211
 2586SOL     OW 7779   3.456   3.838   1.480
 2586SOL    HW1 7780   3.438   3.905   1.408
 2586SOL    HW2 7781   3.453   3.884   1.569
 2587SOL     OW 7782   1.984   4.367   0.563
 2587SOL    HW1 7783   1.939   4.279   0.580
 2587SOL    HW2 7784   1.983   4.421   0.647
 2588SOL     OW 7785   3.551   4.646   0.612
 2588SOL    HW1 7786   3.646   4.617   0.620
 2588SOL    HW2 7787   3.543   4.711   0.537
 2589SOL     OW 7788   1.975   4.461   1.597
 2589SOL    HW1 7789   2.063   4.448   1.642
 2589SOL    HW2 7790   1.962   4.558   1.575
 2590SOL     OW 7791   3.155   4.952   1.423
 2590SOL    HW1 7792   3.192   4.879   1.365
 2590SOL    HW2 7793   3.207   4.957   1.508
 2591SOL     OW 7794   2.671   3.728   0.502
 2591SOL    HW1 7795   2.711   3.819   0.493
 2591SOL    HW2 7796   2.571   3.736   0.508
 2592SOL     OW 7797   2.059   4.700   1.264
 2592SOL    HW1 7798   2.148   4.655   1.250
 2592SOL    HW2 7799   1.986   4.635   1.245
 2593SOL     OW 7800   3.387   4.723   0.190
 2593SOL    HW1 7801   3.324   4.647   0.203
 2593SOL    HW2 7802   3.435   4.741   0.276
 2594SOL     OW 7803   2.179   3.975   1.801
 2594SOL    HW1 7804   2.250   4.046   1.807
 2594SOL    HW2 7805   2.091   4.014   1.829
 2595SOL     OW 7806   2.460   4.453   0.270
 2595SOL    HW1 7807   2.484   4.522   0.202
 2595SOL    HW2 7808   2.382   4.486   0.324
 2596SOL     OW 7809   3.143   4.069   0.944
 2596SOL    HW1 7810   3.057   4.019   0.931
 2596SOL    HW2 7811   3.205   4.015   1.000
 2597SOL     OW 7812   2.669   4.329   1.465
 2597SOL    HW1 7813   2.622   4.326   1.554
 2597SOL    HW2 7814   2.618   4.274   1.399
 2598SOL     OW 7815   3.256   4.193   1.674
 2598SOL    HW1 7816   3.236   4.236   1.762
 2598SOL    HW2 7817   3.334   4.131   1.683
 2599SOL     OW 7818   2.835   4.614   1.572
 2599SOL    HW1 7819   2.881   4.530   1.543
 2599SOL    HW2 7820   2.779   4.648   1.497
 2600SOL     OW 7821   2.853   4.134   1.242
 2600SOL    HW1 7822   2.776   4.168   1.296
 2600SOL    HW2 7823   2.819   4.083   1.163
 2601SOL     OW 7824   2.903   4.425   0.429
 2601SOL    HW1 7825   2.929   4.421   0.525
 2601SOL    HW2 7826   2.818   4.374   0.415
 2602SOL     OW 7827   1.938   4.535   0.789
 2602SOL    HW1 7828   2.037   4.523   0.798
 2602SOL    HW2 7829   1.914   4.630   0.810
 2603SOL     OW 7830   2.727   4.072   0.195
 2603SOL    HW1 7831   2.786   4.135   0.146
 2603SOL    HW2 7832   2.746   3.978   0.166
 2604SOL     OW 7833   3.581   4.309   1.831
 2604SOL    HW1 7834   3.555   4.398   1.795
 2604SOL    HW2 7835   3.579   4.241   1.758
 2605SOL     OW 7836   2.412   3.920   0.885
 2605SOL    HW1 7837   2.407   3.915   0.985
 2605SOL    HW2 7838   2.414   4.016   0.856
 2606SOL     OW 7839   3.657   4.790   0.873
 2606SOL    HW1 7840   3.595   4.775   0.797
 2606SOL    HW2 7841   3.605   4.801   0.958
 2607SOL     OW 7842   2.183   4.667   0.242
 2607SOL    HW1 7843   2.265   4.706   0.200
 2607SOL    HW2 7844   2.156   4.585   0.193
 2608SOL     OW 7845   3.320   4.459   0.728
 2608SOL    HW1 7846   3.315   4.394   0.803
 2608SOL    HW2 7847   3.400   4.518   0.741
 2609SOL     OW 7848   2.064   4.009   1.498
 2609SOL    HW1 7849   1.984   4.069   1.485
 2609SOL    HW2 7850   2.054   3.960   1.584
 2610SOL     OW 7851   3.262   3.831   0.426
 2610SOL    HW1 7852   3.238   3.794   0.336
 2610SOL    HW2 7853   3.361   3.847   0.430
 2611SOL     OW 7854   2.244   4.424   0.480
 2611SOL    HW1 7855   2.289   4.334   0.477
 2611SOL    HW2 7856   2.150   4.413   0.513
 2612SOL     OW 7857   3.409   3.946   1.729
 2612SOL    HW1 7858   3.404   3.983   1.821
 2612SOL    HW2 7859   3.337   3.877   1.717
 2613SOL     OW 7860   2.476   3.846   0.117
 2613SOL    HW1 7861   2.574   3.824   0.124
 2613SOL    HW2 7862   2.445   3.829   0.024
 2614SOL     OW 7863   2.643   3.988   1.749
 2614SOL    HW1 7864   2.710   3.927   1.792
 2614SOL    HW2 7865   2.570   4.007   1.814
 2615SOL     OW 7866   3.213   4.314   1.433
 2615SOL    HW1 7867   3.241   4.271   1.518
 2615SOL    HW2 7868   3.238   4.410   1.434
 2616SOL     OW 7869   2.784   4.227   0.899
 2616SOL    HW1 7870   2.759   4.218   0.803
 2616SOL    HW2 7871   2.832   4.145   0.930
 2617SOL     OW 7872   2.401   3.788   0.512
 2617SOL    HW1 7873   2.320   3.789   0.570
 2617SOL    HW2 7874   2.404   3.871   0.457
 2618SOL     OW 7875   2.797   3.960   0.480
 2618SOL    HW1 7876   2.749   4.001   0.402
 2618SOL    HW2 7877   2.896   3.958   0.461
 2619SOL     OW 7878   2.938   4.407   1.464
 2619SOL    HW1 7879   2.858   4.346   1.467
 2619SOL    HW2 7880   3.019   4.354   1.440
 2620SOL     OW 7881   2.321   4.876   0.741
 2620SOL    HW1 7882   2.250   4.849   0.806
 2620SOL    HW2 7883   2.295   4.848   0.648
 2621SOL     OW 7884   2.894   4.273   0.016
 2621SOL    HW1 7885   2.853   4.355  -0.023
 2621SOL    HW2 7886   2.958   4.299   0.089
 2622SOL     OW 7887   1.940   4.280   1.386
 2622SOL    HW1 7888   2.032   4.279   1.345
 2622SOL    HW2 7889   1.934   4.354   1.453
 2623SOL     OW 7890   2.423   3.946   1.147
 2623SOL    HW1 7891   2.461   3.862   1.184
 2623SOL    HW2 7892   2.335   3.965   1.191
 2624SOL     OW 7893   2.728   4.178   0.642
 2624SOL    HW1 7894   2.696   4.250   0.580
 2624SOL    HW2 7895   2.752   4.097   0.589
 2625SOL     OW 7896   2.879   3.763   0.753
 2625SOL    HW1 7897   2.807   3.768   0.684
 2625SOL    HW2 7898   2.855   3.694   0.822
 2626SOL     OW 7899   3.291   4.897   0.867
 2626SOL    HW1 7900   3.236   4.813   0.860
 2626SOL    HW2 7901   3.317   4.926   0.775
 2627SOL     OW 7902   3.328   4.314   0.992
 2627SOL    HW1 7903   3.298   4.219   0.999
 2627SOL    HW2 7904   3.401   4.330   1.058
 2628SOL     OW 7905   3.719   4.557   0.377
 2628SOL    HW1 7906   3.761   4.493   0.441
 2628SOL    HW2 7907   3.681   4.506   0.299
 2629SOL     OW 7908   3.252   4.299   0.078
 2629SOL    HW1 7909   3.198   4.278   0.159
 2629SOL    HW2 7910   3.343   4.258   0.087
 2630SOL     OW 7911   2.389   3.980   0.328
 2630SOL    HW1 7912   2.416   3.921   0.253
 2630SOL    HW2 7913   2.389   4.075   0.297
 2631SOL     OW 7914   3.616   4.947   1.588
 2631SOL    HW1 7915   3.707   4.908   1.575
 2631SOL    HW2 7916   3.624   5.043   1.612
 2632SOL     OW 7917   3.500   4.823   1.079
 2632SOL    HW1 7918   3.505   4.904   1.138
 2632SOL    HW2 7919   3.414   4.825   1.028
 2633SOL     OW 7920   2.777   3.813   1.402
 2633SOL    HW1 7921   2.802   3.793   1.307
 2633SOL    HW2 7922   2.849   3.869   1.444
 2634SOL     OW 7923   2.567   4.774   0.368
 2634SOL    HW1 7924   2.553   4.781   0.467
 2634SOL    HW2 7925   2.651   4.723   0.350
 2635SOL     OW 7926   2.272   4.537   1.251
 2635SOL    HW1 7927   2.358   4.549   1.301
 2635SOL    HW2 7928   2.230   4.450   1.278
 2636SOL     OW 7929   3.136   4.110   1.262
 2636SOL    HW1 7930   3.157   4.184   1.326
 2636SOL    HW2 7931   3.047   4.127   1.219
 2637SOL     OW 7932   2.229   4.824   0.501
 2637SOL    HW1 7933   2.222   4.907   0.445
 2637SOL    HW2 7934   2.233   4.744   0.441
 2638SOL     OW 7935   2.428   4.261   0.865
 2638SOL    HW1 7936   2.440   4.327   0.791
 2638SOL    HW2 7937   2.474   4.295   0.948
 2639SOL     OW 7938   3.444   4.363   0.472
 2639SOL    HW1 7939   3.413   4.424   0.545
 2639SOL    HW2 7940   3.494   4.415   0.403
 2640SOL     OW 7941   2.264   4.475   1.598
 2640SOL    HW1 7942   2.332   4.530   1.551
 2640SOL    HW2 7943   2.304   4.387   1.625
 2641SOL     OW 7944   3.449   4.503   1.670
 2641SOL    HW1 7945   3.357   4.541   1.665
 2641SOL    HW2 7946   3.509   4.550   1.605
 2642SOL     OW 7947   2.875   3.829   1.770
 2642SOL    HW1 7948   2.881   3.914   1.718
 2642SOL    HW2 7949   2.907   3.753   1.713
 2643SOL     OW 7950   2.366   3.774   1.740
 2643SOL    HW1 7951   2.324   3.717   1.670
 2643SOL    HW2 7952   2.300   3.843   1.772
 2644SOL     OW 7953   2.435   4.594   1.029
 2644SOL    HW1 7954   2.479   4.683   1.020
 2644SOL    HW2 7955   2.372   4.594   1.106
 2645SOL     OW 7956   3.222   4.586   1.045
 2645SOL    HW1 7957   3.147   4.586   0.979
 2645SOL    HW2 7958   3.259   4.494   1.054
 2646SOL     OW 7959   3.071   4.249   0.275
 2646SOL    HW1 7960   3.084   4.165   0.329
 2646SOL    HW2 7961   3.042   4.323   0.335
 2647SOL     OW 7962   2.169   3.937   1.231
 2647SOL    HW1 7963   2.146   3.974   1.321
 2647SOL    HW2 7964   2.139   3.842   1.225
 2648SOL     OW 7965   2.594   4.358   1.064
 2648SOL    HW1 7966   2.653   4.332   0.988
 2648SOL    HW2 7967   2.566   4.454   1.053
 2649SOL     OW 7968   3.590   4.659   1.854
 2649SOL    HW1 7969   3.544   4.652   1.765
 2649SOL    HW2 7970   3.528   4.703   1.920
 2650SOL     OW 7971   2.169   3.787   0.618
 2650SOL    HW1 7972   2.158   3.881   0.651
 2650SOL    HW2 7973   2.164   3.724   0.695
 2651SOL     OW 7974   3.484   4.091   0.374
 2651SOL    HW1 7975   3.486   4.015   0.438
 2651SOL    HW2 7976   3.436   4.168   0.414
 2652SOL     OW 7977   2.885   4.490   0.966
 2652SOL    HW1 7978   2.900   4.511   1.062
 2652SOL    HW2 7979   2.855   4.395   0.957
 2653SOL     OW 7980   2.212   4.622   1.804
 2653SOL    HW1 7981   2.288   4.666   1.852
 2653SOL    HW2 7982   2.247   4.575   1.722
 2654SOL     OW 7983   3.402   3.998   0.125
 2654SOL    HW1 7984   3.341   3.923   0.148
 2654SOL    HW2 7985   3.424   4.050   0.208
 2655SOL     OW 7986   3.165   4.562   0.042
 2655SOL    HW1 7987   3.199   4.469   0.057
 2655SOL    HW2 7988   3.183   4.589  -0.053
 2656SOL     OW 7989   2.181   4.534   0.949
 2656SOL    HW1 7990   2.274   4.570   0.954
 2656SOL    HW2 7991   2.175   4.449   1.001
 2657SOL     OW 7992   2.201   4.233   1.006
 2657SOL    HW1 7993   2.149   4.150   0.989
 2657SOL    HW2 7994   2.278   4.238   0.942
 2658SOL     OW 7995   3.000   4.104   1.678
 2658SOL    HW1 7996   2.955   4.167   1.742
 2658SOL    HW2 7997   3.093   4.135   1.661
 2659SOL     OW 7998   3.022   3.931   1.477
 2659SOL    HW1 7999   3.022   3.995   1.554
 2659SOL    HW2 8000   3.050   3.979   1.394
 2660SOL     OW 8001   2.864   4.520   1.238
 2660SOL    HW1 8002   2.905   4.488   1.324
 2660SOL    HW2 8003   2.768   4.493   1.235
 2661SOL     OW 8004   1.902   4.268   1.114
 2661SOL    HW1 8005   1.987   4.235   1.073
 2661SOL    HW2 8006   1.915   4.283   1.212
 2662SOL     OW 8007   2.051   4.244   1.722
 2662SOL    HW1 8008   2.110   4.204   1.652
 2662SOL    HW2 8009   1.993   4.315   1.681
 2663SOL     OW 8010   3.231   4.674   1.660
 2663SOL    HW1 8011   3.270   4.763   1.680
 2663SOL    HW2 8012   3.241   4.654   1.563
 2664SOL     OW 8013   2.677   4.296   0.325
 2664SOL    HW1 8014   2.684   4.207   0.279
 2664SOL    HW2 8015   2.583   4.330   0.317
 2665SOL     OW 8016   3.519   4.328   1.206
 2665SOL    HW1 8017   3.481   4.259   1.268
 2665SOL    HW2 8018   3.601   4.292   1.162
 2666SOL     OW 8019   2.533   4.188   1.269
 2666SOL    HW1 8020   2.499   4.099   1.239
 2666SOL    HW2 8021   2.559   4.242   1.189
 2667SOL     OW 8022   2.335   4.224   0.191
 2667SOL    HW1 8023   2.396   4.304   0.195
 2667SOL    HW2 8024   2.240   4.255   0.198
 2668SOL     OW 8025   2.021   4.861   1.466
 2668SOL    HW1 8026   2.043   4.800   1.542
 2668SOL    HW2 8027   2.031   4.812   1.380
 2669SOL     OW 8028   3.209   4.783   1.234
 2669SOL    HW1 8029   3.233   4.720   1.160
 2669SOL    HW2 8030   3.119   4.823   1.216
 2670SOL     OW 8031   3.164   4.579   0.309
 2670SOL    HW1 8032   3.078   4.548   0.351
 2670SOL    HW2 8033   3.160   4.565   0.210
 2671SOL     OW 8034   2.765   3.810   0.133
 2671SOL    HW1 8035   2.816   3.811   0.047
 2671SOL    HW2 8036   2.821   3.768   0.204
 2672SOL     OW 8037   3.588   3.859   0.523
 2672SOL    HW1 8038   3.661   3.842   0.456
 2672SOL    HW2 8039   3.557   3.772   0.561
 2673SOL     OW 8040   3.142   4.651   0.672
 2673SOL    HW1 8041   3.202   4.570   0.674
 2673SOL    HW2 8042   3.182   4.720   0.612
 2674SOL     OW 8043   3.703   3.899   0.963
 2674SOL    HW1 8044   3.742   3.814   0.927
 2674SOL    HW2 8045   3.605   3.901   0.944
 2675SOL     OW 8046   2.125   4.050   0.720
 2675SOL    HW1 8047   2.046   4.101   0.686
 2675SOL    HW2 8048   2.116   4.035   0.818
 2676SOL     OW 8049   2.684   4.726   1.372
 2676SOL    HW1 8050   2.724   4.725   1.280
 2676SOL    HW2 8051   2.694   4.818   1.412
 2677SOL     OW 8052   2.778   4.634   0.291
 2677SOL    HW1 8053   2.841   4.672   0.223
 2677SOL    HW2 8054   2.818   4.551   0.330
 2678SOL     OW 8055   2.234   5.012   1.490
 2678SOL    HW1 8056   2.221   5.105   1.456
 2678SOL    HW2 8057   2.150   4.960   1.477
 2679SOL     OW 8058   2.876   3.960   0.971
 2679SOL    HW1 8059   2.868   3.924   0.878
 2679SOL    HW2 8060   2.874   3.884   1.036
 2680SOL     OW 8061   3.571   4.109   1.381
 2680SOL    HW1 8062   3.644   4.178   1.385
 2680SOL    HW2 8063   3.599   4.034   1.322
 2681SOL     OW 8064   1.967   4.737   1.726
 2681SOL    HW1 8065   1.890   4.704   1.780
 2681SOL    HW2 8066   2.052   4.707   1.768
 2682SOL     OW 8067   2.534   3.927   1.489
 2682SOL    HW1 8068   2.624   3.911   1.449
 2682SOL    HW2 8069   2.542   3.932   1.588
 2683SOL     OW 8070   3.302   4.580   1.398
 2683SOL    HW1 8071   3.245   4.632   1.335
 2683SOL    HW2 8072   3.398   4.592   1.374
 2684SOL     OW 8073   1.934   3.890   0.318
 2684SOL    HW1 8074   1.917   3.973   0.264
 2684SOL    HW2 8075   2.024   3.853   0.296
 2685SOL     OW 8076   3.045   5.059   0.119
 2685SOL    HW1 8077   2.946   5.048   0.121
 2685SOL    HW2 8078   3.079   5.074   0.212
 2686SOL     OW 8079   2.475   4.566   1.431
 2686SOL    HW1 8080   2.531   4.647   1.414
 2686SOL    HW2 8081   2.534   4.486   1.434
 2687SOL     OW 8082   2.578   4.289   1.708
 2687SOL    HW1 8083   2.597   4.354   1.782
 2687SOL    HW2 8084   2.638   4.209   1.717
 2688SOL     OW 8085   3.536   4.607   1.254
 2688SOL    HW1 8086   3.509   4.518   1.217
 2688SOL    HW2 8087   3.537   4.675   1.181
 2689SOL     OW 8088   3.087   4.049   0.449
 2689SOL    HW1 8089   3.152   3.975   0.438
 2689SOL    HW2 8090   3.107   4.099   0.533
 2690SOL     OW 8091   2.456   4.469   0.652
 2690SOL    HW1 8092   2.506   4.554   0.633
 2690SOL    HW2 8093   2.368   4.471   0.604
 2691SOL     OW 8094   3.639   4.066   1.642
 2691SOL    HW1 8095   3.622   4.097   1.548
 2691SOL    HW2 8096   3.555   4.029   1.680
 2692SOL     OW 8097   3.592   4.658   1.517
 2692SOL    HW1 8098   3.630   4.749   1.532
 2692SOL    HW2 8099   3.584   4.641   1.418
 2693SOL     OW 8100   2.721   4.680   0.861
 2693SOL    HW1 8101   2.775   4.611   0.909
 2693SOL    HW2 8102   2.689   4.749   0.927
 2694SOL     OW 8103   2.945   4.708   0.087
 2694SOL    HW1 8104   2.922   4.761   0.005
 2694SOL    HW2 8105   3.026   4.652   0.068
 2695SOL     OW 8106   3.686   3.916   1.227
 2695SOL    HW1 8107   3.682   3.826   1.271
 2695SOL    HW2 8108   3.689   3.905   1.128
 2696SOL     OW 8109   2.290   4.148   0.520
 2696SOL    HW1 8110   2.320   4.076   0.458
 2696SOL    HW2 8111   2.251   4.108   0.603
 2697SOL     OW 8112   2.179   4.271   1.280
 2697SOL    HW1 8113   2.217   4.212   1.352
 2697SOL    HW2 8114   2.219   4.245   1.192
 2698SOL     OW 8115   3.286   3.938   1.112
 2698SOL    HW1 8116   3.338   3.873   1.167
 2698SOL    HW2 8117   3.237   4.001   1.173
 2699SOL     OW 8118   2.863   3.758   1.154
 2699SOL    HW1 8119   2.800   3.686   1.123
 2699SOL    HW2 8120   2.956   3.722   1.154
 2700SOL     OW 8121   2.632   5.054   0.301
 2700SOL    HW1 8122   2.586   4.967   0.318
 2700SOL    HW2 8123   2.723   5.051   0.342
 2701SOL     OW 8124   3.214   3.776   0.168
 2701SOL    HW1 8125   3.249   3.735   0.084
 2701SOL    HW2 8126   3.124   3.738   0.188
 2702SOL     OW 8127   3.162   4.177   0.691
 2702SOL    HW1 8128   3.103   4.257   0.695
 2702SOL    HW2 8129   3.177   4.142   0.784
 2703SOL     OW 8130   3.455   3.945   0.882
 2703SOL    HW1 8131   3.371   3.944   0.936
 2703SOL    HW2 8132   3.457   4.028   0.826
 2704SOL     OW 8133   1.901   4.801   0.300
 2704SOL    HW1 8134   2.000   4.790   0.291
 2704SOL    HW2 8135   1.861   4.715   0.332
 2705SOL     OW 8136   2.092   4.352   1.975
 2705SOL    HW1 8137   1.999   4.350   2.012
 2705SOL    HW2 8138   2.093   4.313   1.883
 2706SOL     OW 8139   2.087   3.999   2.858
 2706SOL    HW1 8140   2.122   3.982   2.950
 2706SOL    HW2 8141   1.999   3.954   2.846
 2707SOL     OW 8142   1.881   4.092   2.509
 2707SOL    HW1 8143   1.799   4.135   2.548
 2707SOL    HW2 8144   1.853   4.019   2.446
 2708SOL     OW 8145   2.997   4.427   2.579
 2708SOL    HW1 8146   3.054   4.505   2.554
 2708SOL    HW2 8147   2.937   4.453   2.655
 2709SOL     OW 8148   3.617   4.331   2.093
 2709SOL    HW1 8149   3.605   4.318   1.994
 2709SOL    HW2 8150   3.587   4.250   2.142
 2710SOL     OW 8151   2.630   4.868   2.885
 2710SOL    HW1 8152   2.552   4.885   2.945
 2710SOL    HW2 8153   2.664   4.955   2.849
 2711SOL     OW 8154   2.712   4.522   3.685
 2711SOL    HW1 8155   2.708   4.598   3.750
 2711SOL    HW2 8156   2.734   4.558   3.594
 2712SOL     OW 8157   2.547   4.736   2.527
 2712SOL    HW1 8158   2.616   4.720   2.597
 2712SOL    HW2 8159   2.474   4.793   2.565
 2713SOL     OW 8160   2.300   4.116   3.361
 2713SOL    HW1 8161   2.382   4.060   3.370
 2713SOL    HW2 8162   2.219   4.058   3.365
 2714SOL     OW 8163   3.465   4.171   2.599
 2714SOL    HW1 8164   3.391   4.217   2.549
 2714SOL    HW2 8165   3.516   4.239   2.652
 2715SOL     OW 8166   2.092   5.158   2.400
 2715SOL    HW1 8167   2.066   5.254   2.400
 2715SOL    HW2 8168   2.021   5.104   2.445
 2716SOL     OW 8169   2.102   4.815   2.748
 2716SOL    HW1 8170   2.116   4.731   2.800
 2716SOL    HW2 8171   2.047   4.879   2.803
 2717SOL     OW 8172   2.468   4.688   1.985
 2717SOL    HW1 8173   2.475   4.772   1.931
 2717SOL    HW2 8174   2.514   4.701   2.073
 2718SOL     OW 8175   3.456   3.838   3.342
 2718SOL    HW1 8176   3.438   3.905   3.270
 2718SOL    HW2 8177   3.453   3.884   3.431
 2719SOL     OW 8178   1.984   4.367   2.425
 2719SOL    HW1 8179   1.939   4.279   2.442
 2719SOL    HW2 8180   1.983   4.421   2.509
 2720SOL     OW 8181   3.551   4.646   2.474
 2720SOL    HW1 8182   3.646   4.617   2.482
 2720SOL    HW2 8183   3.543   4.711   2.399
 2721SOL     OW 8184   1.975   4.461   3.459
 2721SOL    HW1 8185   2.063   4.448   3.504
 2721SOL    HW2 8186   1.962   4.558   3.437
 2722SOL     OW 8187   3.155   4.952   3.285
 2722SOL    HW1 8188   3.192   4.879   3.227
 2722SOL    HW2 8189   3.207   4.957   3.370
 2723SOL     OW 8190   2.671   3.728   2.364
 2723SOL    HW1 8191   2.711   3.819   2.355
 2723SOL    HW2 8192   2.571   3.736   2.370
 2724SOL     OW 8193   2.059   4.700   3.126
 2724SOL    HW1 8194   2.148   4.655   3.112
 2724SOL    HW2 8195   1.986   4.635   3.107
 2725SOL     OW 8196   3.387   4.723   2.052
 2725SOL    HW1 8197   3.324   4.647   2.065
 2725SOL    HW2 8198   3.435   4.741   2.138
 2726SOL     OW 8199   2.179   3.975   3.663
 2726SOL    HW1 8200   2.250   4.046   3.669
 2726SOL    HW2 8201   2.091   4.014   3.691
 2727SOL     OW 8202   2.460   4.453   2.132
 2727SOL    HW1 8203   2.484   4.522   2.064
 2727SOL    HW2 8204   2.382   4.486   2.186
 2728SOL     OW 8205   3.143   4.069   2.806
 2728SOL    HW1 8206   3.057   4.019   2.793
 2728SOL    HW2 8207   3.205   4.015   2.862
 2729SOL     OW 8208   2.669   4.329   3.327
 2729SOL    HW1 8209   2.622   4.326   3.416
 2729SOL    HW2 8210   2.618   4.274   3.261
 2730SOL     OW 8211   3.256   4.193   3.536
 2730SOL    HW1 8212   3.236   4.236   3.624
 2730SOL    HW2 8213   3.334   4.131   3.545
 2731SOL     OW 8214   2.835   4.614   3.434
 2731SOL    HW1 8215   2.881   4.530   3.405
 2731SOL    HW2 8216   2.779   4.648   3.359
 2732SOL     OW 8217   2.853   4.134   3.104
 2732SOL    HW1 8218   2.776   4.168   3.158
 2732SOL    HW2 8219   2.819   4.083   3.025
 2733SOL     OW 8220   2.903   4.425   2.291
 2733SOL    HW1 8221   2.929   4.421   2.387
 2733SOL    HW2 8222   2.818   4.374   2.277
 2734SOL     OW 8223   1.938   4.535   2.651
 2734SOL    HW1 8224   2.037   4.523   2.660
 2734SOL    HW2 8225   1.914   4.630   2.672
 2735SOL     OW 8226   2.727   4.072   2.057
 2735SOL    HW1 8227   2.786   4.135   2.008
 2735SOL    HW2 8228   2.746   3.978   2.028
 2736SOL     OW 8229   3.581   4.309   3.693
 2736SOL    HW1 8230   3.555   4.398   3.657
 2736SOL    HW2 8231   3.579   4.241   3.620
 2737SOL     OW 8232   2.412   3.920   2.747
 2737SOL    HW1 8233   2.407   3.915   2.847
 2737SOL    HW2 8234   2.414   4.016   2.718
 2738SOL     OW 8235   3.657   4.790   2.735
 2738SOL    HW1 8236   3.595   4.775   2.659
 2738SOL    HW2 8237   3.605   4.801   2.820
 2739SOL     OW 8238   2.183   4.667   2.104
 2739SOL    HW1 8239   2.265   4.706   2.062
 2739SOL    HW2 8240   2.156   4.585   2.055
 2740SOL     OW 8241   3.320   4.459   2.590
 2740SOL    HW1 8242   3.315   4.394   2.665
 2740SOL    HW2 8243   3.400   4.518   2.603
 2741SOL     OW 8244   2.064   4.009   3.360
 2741SOL    HW1 8245   1.984   4.069   3.347
 2741SOL    HW2 8246   2.054   3.960   3.446
 2742SOL     OW 8247   3.262   3.831   2.288
 2742SOL    HW1 8248   3.238   3.794   2.198
 2742SOL    HW2 8249   3.361   3.847   2.292
 2743SOL     OW 8250   2.244   4.424   2.342
 2743SOL    HW1 8251   2.289   4.334   2.339
 2743SOL    HW2 8252   2.150   4.413   2.375
 2744SOL     OW 8253   3.409   3.946   3.591
 2744SOL    HW1 8254   3.404   3.983   3.683
 2744SOL    HW2 8255   3.337   3.877   3.579
 2745SOL     OW 8256   2.476   3.846   1.979
 2745SOL    HW1 8257   2.574   3.824   1.986
 2745SOL    HW2 8258   2.445   3.829   1.886
 2746SOL     OW 8259   2.643   3.988   3.611
 2746SOL    HW1 8260   2.710   3.927   3.654
 2746SOL    HW2 8261   2.570   4.007   3.676
 2747SOL     OW 8262   3.213   4.314   3.295
 2747SOL    HW1 8263   3.241   4.271   3.380
 2747SOL    HW2 8264   3.238   4.410   3.296
 2748SOL     OW 8265   2.784   4.227   2.761
 2748SOL    HW1 8266   2.759   4.218   2.665
 2748SOL    HW2 8267   2.832   4.145   2.792
 2749SOL     OW 8268   2.401   3.788   2.374
 2749SOL    HW1 8269   2.320   3.789   2.432
 2749SOL    HW2 8270   2.404   3.871   2.319
 2750SOL     OW 8271   2.159   3.759   2.033
 2750SOL    HW1 8272   2.208   3.843   2.012
 2750SOL    HW2 8273   2.221   3.694   2.078
 2751SOL     OW 8274   2.797   3.960   2.342
 2751SOL    HW1 8275   2.749   4.001   2.264
 2751SOL    HW2 8276   2.896   3.958   2.323
 2752SOL     OW 8277   2.938   4.407   3.326
 2752SOL    HW1 8278   2.858   4.346   3.329
 2752SOL    HW2 8279   3.019   4.354   3.302
 2753SOL     OW 8280   2.321   4.876   2.603
 2753SOL    HW1 8281   2.250   4.849   2.668
 2753SOL    HW2 8282   2.295   4.848   2.510
 2754SOL     OW 8283   2.894   4.273   1.878
 2754SOL    HW1 8284   2.853   4.355   1.839
 2754SOL    HW2 8285   2.958   4.299   1.951
 2755SOL     OW 8286   1.940   4.280   3.248
 2755SOL    HW1 8287   2.032   4.279   3.207
 2755SOL    HW2 8288   1.934   4.354   3.315
 2756SOL     OW 8289   2.423   3.946   3.009
 2756SOL    HW1 8290   2.461   3.862   3.046
 2756SOL    HW2 8291   2.335   3.965   3.053
 2757SOL     OW 8292   2.728   4.178   2.504
 2757SOL    HW1 8293   2.696   4.250   2.442
 2757SOL    HW2 8294   2.752   4.097   2.451
 2758SOL     OW 8295   2.879   3.763   2.615
 2758SOL    HW1 8296   2.807   3.768   2.546
 2758SOL    HW2 8297   2.855   3.694   2.684
 2759SOL     OW 8298   3.291   4.897   2.729
 2759SOL    HW1 8299   3.236   4.813   2.722
 2759SOL    HW2 8300   3.317   4.926   2.637
 2760SOL     OW 8301   3.328   4.314   2.854
 2760SOL    HW1 8302   3.298   4.219   2.861
 2760SOL    HW2 8303   3.401   4.330   2.920
 2761SOL     OW 8304   3.719   4.557   2.239
 2761SOL    HW1 8305   3.761   4.493   2.303
 2761SOL    HW2 8306   3.681   4.506   2.161
 2762SOL     OW 8307   3.252   4.299   1.940
 2762SOL    HW1 8308   3.198   4.278   2.021
 2762SOL    HW2 8309   3.343   4.258   1.949
 2763SOL     OW 8310   2.389   3.980   2.190
 2763SOL    HW1 8311   2.416   3.921   2.115
 2763SOL    HW2 8312   2.389   4.075   2.159
 2764SOL     OW 8313   3.616   4.947   3.450
 2764SOL    HW1 8314   3.707   4.908   3.437
 2764SOL    HW2 8315   3.624   5.043   3.474
 2765SOL     OW 8316   3.500   4.823   2.941
 2765SOL    HW1 8317   3.505   4.904   3.000
 2765SOL    HW2 8318   3.414   4.825   2.890
 2766SOL     OW 8319   2.777   3.813   3.264
 2766SOL    HW1 8320   2.802   3.793   3.169
 2766SOL    HW2 8321   2.849   3.869   3.306
 2767SOL     OW 8322   2.567   4.774   2.230
 2767SOL    HW1 8323   2.553   4.781   2.329
 2767SOL    HW2 8324   2.651   4.723   2.212
 2768SOL     OW 8325   2.272   4.537   3.113
 2768SOL    HW1 8326   2.358   4.549   3.163
 2768SOL    HW2 8327   2.230   4.450   3.140
 2769SOL     OW 8328   3.136   4.110   3.124
 2769SOL    HW1 8329   3.157   4.184   3.188
 2769SOL    HW2 8330   3.047   4.127   3.081
 2770SOL     OW 8331   2.229   4.824   2.363
 2770SOL    HW1 8332   2.222   4.907   2.307
 2770SOL    HW2 8333   2.233   4.744   2.303
 2771SOL     OW 8334   2.428   4.261   2.727
 2771SOL    HW1 8335   2.440   4.327   2.653
 2771SOL    HW2 8336   2.474   4.295   2.810
 2772SOL     OW 8337   3.444   4.363   2.334
 2772SOL    HW1 8338   3.413   4.424   2.407
 2772SOL    HW2 8339   3.494   4.415   2.265
 2773SOL     OW 8340   2.264   4.475   3.460
 2773SOL    HW1 8341   2.332   4.530   3.413
 2773SOL    HW2 8342   2.304   4.387   3.487
 2774SOL     OW 8343   3.449   4.503   3.532
 2774SOL    HW1 8344   3.357   4.541   3.527
 2774SOL    HW2 8345   3.509   4.550   3.467
 2775SOL     OW 8346   2.875   3.829   3.632
 2775SOL    HW1 8347   2.881   3.914   3.580
 2775SOL    HW2 8348   2.907   3.753   3.575
 2776SOL     OW 8349   2.366   3.774   3.602
 2776SOL    HW1 8350   2.324   3.717   3.532
 2776SOL    HW2 8351   2.300   3.843   3.634
 2777SOL     OW 8352   2.435   4.594   2.891
 2777SOL    HW1 8353   2.479   4.683   2.882
 2777SOL    HW2 8354   2.372   4.594   2.968
 2778SOL     OW 8355   3.222   4.586   2.907
 2778SOL    HW1 8356   3.147   4.586   2.841
 2778SOL    HW2 8357   3.259   4.494   2.916
 2779SOL     OW 8358   3.071   4.249   2.137
 2779SOL    HW1 8359   3.084   4.165   2.191
 2779SOL    HW2 8360   3.042   4.323   2.197
 2780SOL     OW 8361   2.169   3.937   3.093
 2780SOL    HW1 8362   2.146   3.974   3.183
 2780SOL    HW2 8363   2.139   3.842   3.087
 2781SOL     OW 8364   2.594   4.358   2.926
 2781SOL    HW1 8365   2.653   4.332   2.850
 2781SOL    HW2 8366   2.566   4.454   2.915
 2782SOL     OW 8367   3.590   4.659   3.716
 2782SOL    HW1 8368   3.544   4.652   3.627
 2782SOL    HW2 8369   3.528   4.703   3.782
 2783SOL     OW 8370   2.169   3.787   2.480
 2783SOL    HW1 8371   2.158   3.881   2.513
 2783SOL    HW2 8372   2.164   3.724   2.557
 2784SOL     OW 8373   3.484   4.091   2.236
 2784SOL    HW1 8374   3.486   4.015   2.300
 2784SOL    HW2 8375   3.436   4.168   2.276
 2785SOL     OW 8376   2.885   4.490   2.828
 2785SOL    HW1 8377   2.900   4.511   2.924
 2785SOL    HW2 8378   2.855   4.395   2.819
 2786SOL     OW 8379   2.212   4.622   3.666
 2786SOL    HW1 8380   2.288   4.666   3.714
 2786SOL    HW2 8381   2.247   4.575   3.584
 2787SOL     OW 8382   3.402   3.998   1.987
 2787SOL    HW1 8383   3.341   3.923   2.010
 2787SOL    HW2 8384   3.424   4.050   2.070
 2788SOL     OW 8385   3.165   4.562   1.904
 2788SOL    HW1 8386   3.199   4.469   1.919
 2788SOL    HW2 8387   3.183   4.589   1.809
 2789SOL     OW 8388   2.181   4.534   2.811
 2789SOL    HW1 8389   2.274   4.570   2.816
 2789SOL    HW2 8390   2.175   4.449   2.863
 2790SOL     OW 8391   2.201   4.233   2.868
 2790SOL    HW1 8392   2.149   4.150   2.851
 2790SOL    HW2 8393   2.278   4.238   2.804
 2791SOL     OW 8394   3.000   4.104   3.540
 2791SOL    HW1 8395   2.955   4.167   3.604
 2791SOL    HW2 8396   3.093   4.135   3.523
 2792SOL     OW 8397   3.022   3.931   3.339
 2792SOL    HW1 8398   3.022   3.995   3.416
 2792SOL    HW2 8399   3.050   3.979   3.256
 2793SOL     OW 8400   2.864   4.520   3.100
 2793SOL    HW1 8401   2.905   4.488   3.186
 2793SOL    HW2 8402   2.768   4.493   3.097
 2794SOL     OW 8403   1.902   4.268   2.976
 2794SOL    HW1 8404   1.987   4.235   2.935
 2794SOL    HW2 8405   1.915   4.283   3.074
 2795SOL     OW 8406   2.051   4.244   3.584
 2795SOL    HW1 8407   2.110   4.204   3.514
 2795SOL    HW2 8408   1.993   4.315   3.543
 2796SOL     OW 8409   3.231   4.674   3.522
 2796SOL    HW1 8410   3.270   4.763   3.542
 2796SOL    HW2 8411   3.241   4.654   3.425
 2797SOL     OW 8412   2.677   4.296   2.187
 2797SOL    HW1 8413   2.684   4.207   2.141
 2797SOL    HW2 8414   2.583   4.330   2.179
 2798SOL     OW 8415   3.519   4.328   3.068
 2798SOL    HW1 8416   3.481   4.259   3.130
 2798SOL    HW2 8417   3.601   4.292   3.024
 2799SOL     OW 8418   2.533   4.188   3.131
 2799SOL    HW1 8419   2.499   4.099   3.101
 2799SOL    HW2 8420   2.559   4.242   3.051
 2800SOL     OW 8421   2.335   4.224   2.053
 2800SOL    HW1 8422   2.396   4.304   2.057
 2800SOL    HW2 8423   2.240   4.255   2.060
 2801SOL     OW 8424   2.021   4.861   3.328
 2801SOL    HW1 8425   2.043   4.800   3.404
 2801SOL    HW2 8426   2.031   4.812   3.242
 2802SOL     OW 8427   3.209   4.783   3.096
 2802SOL    HW1 8428   3.233   4.720   3.022
 2802SOL    HW2 8429   3.119   4.823   3.078
 2803SOL     OW 8430   3.164   4.579   2.171
 2803SOL    HW1 8431   3.078   4.548   2.213
 2803SOL    HW2 8432   3.160   4.565   2.072
 2804SOL     OW 8433   3.588   3.859   2.385
 2804SOL    HW1 8434   3.661   3.842   2.318
 2804SOL    HW2 8435   3.557   3.772   2.423
 2805SOL     OW 8436   3.142   4.651   2.534
 2805SOL    HW1 8437   3.202   4.570   2.536
 2805SOL    HW2 8438   3.182   4.720   2.474
 2806SOL     OW 8439   3.703   3.899   2.825
 2806SOL    HW1 8440   3.742   3.814   2.789
 2806SOL    HW2 8441   3.605   3.901   2.806
 2807SOL     OW 8442   2.125   4.050   2.582
 2807SOL    HW1 8443   2.046   4.101   2.548
 2807SOL    HW2 8444   2.116   4.035   2.680
 2808SOL     OW 8445   2.684   4.726   3.234
 2808SOL    HW1 8446   2.724   4.725   3.142
 2808SOL    HW2 8447   2.694   4.818   3.274
 2809SOL     OW 8448   2.778   4.634   2.153
 2809SOL    HW1 8449   2.841   4.672   2.085
 2809SOL    HW2 8450   2.818   4.551   2.192
 2810SOL     OW 8451   2.234   5.012   3.352
 2810SOL    HW1 8452   2.221   5.105   3.318
 2810SOL    HW2 8453   2.150   4.960   3.339
 2811SOL     OW 8454   2.876   3.960   2.833
 2811SOL    HW1 8455   2.868   3.924   2.740
 2811SOL    HW2 8456   2.874   3.884   2.898
 2812SOL     OW 8457   3.571   4.109   3.243
 2812SOL    HW1 8458   3.644   4.178   3.247
 2812SOL    HW2 8459   3.599   4.034   3.184
 2813SOL     OW 8460   1.967   4.737   3.588
 2813SOL    HW1 8461   1.890   4.704   3.642
 2813SOL    HW2 8462   2.052   4.707   3.630
 2814SOL     OW 8463   2.534   3.927   3.351
 2814SOL    HW1 8464   2.624   3.911   3.311
 2814SOL    HW2 8465   2.542   3.932   3.450
 2815SOL     OW 8466   1.937   4.069   1.895
 2815SOL    HW1 8467   1.845   4.041   1.866
 2815SOL    HW2 8468   1.968   4.146   1.839
 2816SOL     OW 8469   3.302   4.580   3.260
 2816SOL    HW1 8470   3.245   4.632   3.197
 2816SOL    HW2 8471   3.398   4.592   3.236
 2817SOL     OW 8472   1.934   3.890   2.180
 2817SOL    HW1 8473   1.917   3.973   2.126
 2817SOL    HW2 8474   2.024   3.853   2.158
 2818SOL     OW 8475   3.045   5.059   1.981
 2818SOL    HW1 8476   2.946   5.048   1.983
 2818SOL    HW2 8477   3.079   5.074   2.074
 2819SOL     OW 8478   2.475   4.566   3.293
 2819SOL    HW1 8479   2.531   4.647   3.276
 2819SOL    HW2 8480   2.534   4.486   3.296
 2820SOL     OW 8481   2.578   4.289   3.570
 2820SOL    HW1 8482   2.597   4.354   3.644
 2820SOL    HW2 8483   2.638   4.209   3.579
 2821SOL     OW 8484   3.536   4.607   3.116
 2821SOL    HW1 8485   3.509   4.518   3.079
 2821SOL    HW2 8486   3.537   4.675   3.043
 2822SOL     OW 8487   3.087   4.049   2.311
 2822SOL    HW1 8488   3.152   3.975   2.300
 2822SOL    HW2 8489   3.107   4.099   2.395
 2823SOL     OW 8490   2.456   4.469   2.514
 2823SOL    HW1 8491   2.506   4.554   2.495
 2823SOL    HW2 8492   2.368   4.471   2.466
 2824SOL     OW 8493   3.639   4.066   3.504
 2824SOL    HW1 8494   3.622   4.097   3.410
 2824SOL    HW2 8495   3.555   4.029   3.542
 2825SOL     OW 8496   3.592   4.658   3.379
 2825SOL    HW1 8497   3.630   4.749   3.394
 2825SOL    HW2 8498   3.584   4.641   3.280
 2826SOL     OW 8499   2.721   4.680   2.723
 2826SOL    HW1 8500   2.775   4.611   2.771
 2826SOL    HW2 8501   2.689   4.749   2.789
 2827SOL     OW 8502   2.945   4.708   1.949
 2827SOL    HW1 8503   2.922   4.761   1.867
 2827SOL    HW2 8504   3.026   4.652   1.930
 2828SOL     OW 8505   3.686   3.916   3.089
 2828SOL    HW1 8506   3.682   3.826   3.133
 2828SOL    HW2 8507   3.689   3.905   2.990
 2829SOL     OW 8508   2.290   4.148   2.382
 2829SOL    HW1 8509   2.320   4.076   2.320
 2829SOL    HW2 8510   2.251   4.108   2.465
 2830SOL     OW 8511   2.179   4.271   3.142
 2830SOL    HW1 8512   2.217   4.212   3.214
 2830SOL    HW2 8513   2.219   4.245   3.054
 2831SOL     OW 8514   3.286   3.938   2.974
 2831SOL    HW1 8515   3.338   3.873   3.029
 2831SOL    HW2 8516   3.237   4.001   3.035
 2832SOL     OW 8517   2.863   3.758   3.016
 2832SOL    HW1 8518   2.800   3.686   2.985
 2832SOL    HW2 8519   2.956   3.722   3.016
 2833SOL     OW 8520   2.632   5.054   2.163
 2833SOL    HW1 8521   2.586   4.967   2.180
 2833SOL    HW2 8522   2.723   5.051   2.204
 2834SOL     OW 8523   3.214   3.776   2.030
 2834SOL    HW1 8524   3.249   3.735   1.946
 2834SOL    HW2 8525   3.124   3.738   2.050
 2835SOL     OW 8526   3.162   4.177   2.553
 2835SOL    HW1 8527   3.103   4.257   2.557
 2835SOL    HW2 8528   3.177   4.142   2.646
 2836SOL     OW 8529   3.455   3.945   2.744
 2836SOL    HW1 8530   3.371   3.944   2.798
 2836SOL    HW2 8531   3.457   4.028   2.688
 2837SOL     OW 8532   1.901   4.801   2.162
 2837SOL    HW1 8533   2.000   4.790   2.153
 2837SOL    HW2 8534   1.861   4.715   2.194
 2838SOL     OW 8535   2.092   4.352   3.837
 2838SOL    HW1 8536   1.999   4.350   3.874
 2838SOL    HW2 8537   2.093   4.313   3.745
 2839SOL     OW 8538   2.087   3.999   4.720
 2839SOL    HW1 8539   2.122   3.982   4.812
 2839SOL    HW2 8540   1.999   3.954   4.708
 2840SOL     OW 8541   1.881   4.092   4.371
 2840SOL    HW1 8542   1.799   4.135   4.410
 2840SOL    HW2 8543   1.853   4.019   4.308
 2841SOL     OW 8544   2.997   4.427   4.441
 2841SOL    HW1 8545   3.054   4.505   4.416
 2841SOL    HW2 8546   2.937   4.453   4.517
 2842SOL     OW 8547   3.617   4.331   3.955
 2842SOL    HW1 8548   3.605   4.318   3.856
 2842SOL    HW2 8549   3.587   4.250   4.004
 2843SOL     OW 8550   2.630   4.868   4.747
 2843SOL    HW1 8551   2.552   4.885   4.807
 2843SOL    HW2 8552   2.664   4.955   4.711
 2844SOL     OW 8553   2.547   4.736   4.389
 2844SOL    HW1 8554   2.616   4.720   4.459
 2844SOL    HW2 8555   2.474   4.793   4.427
 2845SOL     OW 8556   3.465   4.171   4.461
 2845SOL    HW1 8557   3.391   4.217   4.411
 2845SOL    HW2 8558   3.516   4.239   4.514
 2846SOL     OW 8559   2.092   5.158   4.262
 2846SOL    HW1 8560   2.066   5.254   4.262
 2846SOL    HW2 8561   2.021   5.104   4.307
 2847SOL     OW 8562   2.102   4.815   4.610
 2847SOL    HW1 8563   2.116   4.731   4.662
 2847SOL    HW2 8564   2.047   4.879   4.665
 2848SOL     OW 8565   2.468   4.688   3.847
 2848SOL    HW1 8566   2.475   4.772   3.793
 2848SOL    HW2 8567   2.514   4.701   3.935
 2849SOL     OW 8568   1.984   4.367   4.287
 2849SOL    HW1 8569   1.939   4.279   4.304
 2849SOL    HW2 8570   1.983   4.421   4.371
 2850SOL     OW 8571   3.551   4.646   4.336
 2850SOL    HW1 8572   3.646   4.617   4.344
 2850SOL    HW2 8573   3.543   4.711   4.261
 2851SOL     OW 8574   2.671   3.728   4.226
 2851SOL    HW1 8575   2.711   3.819   4.217
 2851SOL    HW2 8576   2.571   3.736   4.232
 2852SOL     OW 8577   2.059   4.700   4.988
 2852SOL    HW1 8578   2.148   4.655   4.974
 2852SOL    HW2 8579   1.986   4.635   4.969
 2853SOL     OW 8580   3.387   4.723   3.914
 2853SOL    HW1 8581   3.324   4.647   3.927
 2853SOL    HW2 8582   3.435   4.741   4.000
 2854SOL     OW 8583   2.460   4.453   3.994
 2854SOL    HW1 8584   2.484   4.522   3.926
 2854SOL    HW2 8585   2.382   4.486   4.048
 2855SOL     OW 8586   3.143   4.069   4.668
 2855SOL    HW1 8587   3.057   4.019   4.655
 2855SOL    HW2 8588   3.205   4.015   4.724
 2856SOL     OW 8589   2.903   4.425   4.153
 2856SOL    HW1 8590   2.929   4.421   4.249
 2856SOL    HW2 8591   2.818   4.374   4.139
 2857SOL     OW 8592   1.938   4.535   4.513
 2857SOL    HW1 8593   2.037   4.523   4.522
 2857SOL    HW2 8594   1.914   4.630   4.534
 2858SOL     OW 8595   2.727   4.072   3.919
 2858SOL    HW1 8596   2.786   4.135   3.870
 2858SOL    HW2 8597   2.746   3.978   3.890
 2859SOL     OW 8598   2.412   3.920   4.609
 2859SOL    HW1 8599   2.407   3.915   4.709
 2859SOL    HW2 8600   2.414   4.016   4.580
 2860SOL     OW 8601   3.657   4.790   4.597
 2860SOL    HW1 8602   3.595   4.775   4.521
 2860SOL    HW2 8603   3.605   4.801   4.682
 2861SOL     OW 8604   2.183   4.667   3.966
 2861SOL    HW1 8605   2.265   4.706   3.924
 2861SOL    HW2 8606   2.156   4.585   3.917
 2862SOL     OW 8607   3.320   4.459   4.452
 2862SOL    HW1 8608   3.315   4.394   4.527
 2862SOL    HW2 8609   3.400   4.518   4.465
 2863SOL     OW 8610   3.262   3.831   4.150
 2863SOL    HW1 8611   3.238   3.794   4.060
 2863SOL    HW2 8612   3.361   3.847   4.154
 2864SOL     OW 8613   2.244   4.424   4.204
 2864SOL    HW1 8614   2.289   4.334   4.201
 2864SOL    HW2 8615   2.150   4.413   4.237
 2865SOL     OW 8616   2.476   3.846   3.841
 2865SOL    HW1 8617   2.574   3.824   3.848
 2865SOL    HW2 8618   2.445   3.829   3.748
 2866SOL     OW 8619   2.784   4.227   4.623
 2866SOL    HW1 8620   2.759   4.218   4.527
 2866SOL    HW2 8621   2.832   4.145   4.654
 2867SOL     OW 8622   2.401   3.788   4.236
 2867SOL    HW1 8623   2.320   3.789   4.294
 2867SOL    HW2 8624   2.404   3.871   4.181
 2868SOL     OW 8625   2.159   3.759   3.895
 2868SOL    HW1 8626   2.208   3.843   3.874
 2868SOL    HW2 8627   2.221   3.694   3.940
 2869SOL     OW 8628   2.797   3.960   4.204
 2869SOL    HW1 8629   2.749   4.001   4.126
 2869SOL    HW2 8630   2.896   3.958   4.185
 2870SOL     OW 8631   2.321   4.876   4.465
 2870SOL    HW1 8632   2.250   4.849   4.530
 2870SOL    HW2 8633   2.295   4.848   4.372
 2871SOL     OW 8634   2.894   4.273   3.740
 2871SOL    HW1 8635   2.853   4.355   3.701
 2871SOL    HW2 8636   2.958   4.299   3.813
 2872SOL     OW 8637   2.728   4.178   4.366
 2872SOL    HW1 8638   2.696   4.250   4.304
 2872SOL    HW2 8639   2.752   4.097   4.313
 2873SOL     OW 8640   2.879   3.763   4.477
 2873SOL    HW1 8641   2.807   3.768   4.408
 2873SOL    HW2 8642   2.855   3.694   4.546
 2874SOL     OW 8643   3.291   4.897   4.591
 2874SOL    HW1 8644   3.236   4.813   4.584
 2874SOL    HW2 8645   3.317   4.926   4.499
 2875SOL     OW 8646   3.328   4.314   4.716
 2875SOL    HW1 8647   3.298   4.219   4.723
 2875SOL    HW2 8648   3.401   4.330   4.782
 2876SOL     OW 8649   3.719   4.557   4.101
 2876SOL    HW1 8650   3.761   4.493   4.165
 2876SOL    HW2 8651   3.681   4.506   4.023
 2877SOL     OW 8652   3.252   4.299   3.802
 2877SOL    HW1 8653   3.198   4.278   3.883
 2877SOL    HW2 8654   3.343   4.258   3.811
 2878SOL     OW 8655   2.389   3.980   4.052
 2878SOL    HW1 8656   2.416   3.921   3.977
 2878SOL    HW2 8657   2.389   4.075   4.021
 2879SOL     OW 8658   3.500   4.823   4.803
 2879SOL    HW1 8659   3.505   4.904   4.862
 2879SOL    HW2 8660   3.414   4.825   4.752
 2880SOL     OW 8661   2.567   4.774   4.092
 2880SOL    HW1 8662   2.553   4.781   4.191
 2880SOL    HW2 8663   2.651   4.723   4.074
 2881SOL     OW 8664   2.272   4.537   4.975
 2881SOL    HW1 8665   2.358   4.549   5.025
 2881SOL    HW2 8666   2.230   4.450   5.002
 2882SOL     OW 8667   2.229   4.824   4.225
 2882SOL    HW1 8668   2.222   4.907   4.169
 2882SOL    HW2 8669   2.233   4.744   4.165
 2883SOL     OW 8670   2.428   4.261   4.589
 2883SOL    HW1 8671   2.440   4.327   4.515
 2883SOL    HW2 8672   2.474   4.295   4.672
 2884SOL     OW 8673   3.444   4.363   4.196
 2884SOL    HW1 8674   3.413   4.424   4.269
 2884SOL    HW2 8675   3.494   4.415   4.127
 2885SOL     OW 8676   2.435   4.594   4.753
 2885SOL    HW1 8677   2.479   4.683   4.744
 2885SOL    HW2 8678   2.372   4.594   4.830
 2886SOL     OW 8679   3.071   4.249   3.999
 2886SOL    HW1 8680   3.084   4.165   4.053
 2886SOL    HW2 8681   3.042   4.323   4.059
 2887SOL     OW 8682   2.169   3.937   4.955
 2887SOL    HW1 8683   2.146   3.974   5.045
 2887SOL    HW2 8684   2.139   3.842   4.949
 2888SOL     OW 8685   2.594   4.358   4.788
 2888SOL    HW1 8686   2.653   4.332   4.712
 2888SOL    HW2 8687   2.566   4.454   4.777
 2889SOL     OW 8688   2.169   3.787   4.342
 2889SOL    HW1 8689   2.158   3.881   4.375
 2889SOL    HW2 8690   2.164   3.724   4.419
 2890SOL     OW 8691   3.484   4.091   4.098
 2890SOL    HW1 8692   3.486   4.015   4.162
 2890SOL    HW2 8693   3.436   4.168   4.138
 2891SOL     OW 8694   2.885   4.490   4.690
 2891SOL    HW1 8695   2.900   4.511   4.786
 2891SOL    HW2 8696   2.855   4.395   4.681
 2892SOL     OW 8697   3.402   3.998   3.849
 2892SOL    HW1 8698   3.341   3.923   3.872
 2892SOL    HW2 8699   3.424   4.050   3.932
 2893SOL     OW 8700   3.165   4.562   3.766
 2893SOL    HW1 8701   3.199   4.469   3.781
 2893SOL    HW2 8702   3.183   4.589   3.671
 2894SOL     OW 8703   2.181   4.534   4.673
 2894SOL    HW1 8704   2.274   4.570   4.678
 2894SOL    HW2 8705   2.175   4.449   4.725
 2895SOL     OW 8706   2.201   4.233   4.730
 2895SOL    HW1 8707   2.149   4.150   4.713
 2895SOL    HW2 8708   2.278   4.238   4.666
 2896SOL     OW 8709   2.864   4.520   4.962
 2896SOL    HW1 8710   2.905   4.488   5.048
 2896SOL    HW2 8711   2.768   4.493   4.959
 2897SOL     OW 8712   1.902   4.268   4.838
 2897SOL    HW1 8713   1.987   4.235   4.797
 2897SOL    HW2 8714   1.915   4.283   4.936
 2898SOL     OW 8715   2.677   4.296   4.049
 2898SOL    HW1 8716   2.684   4.207   4.003
 2898SOL    HW2 8717   2.583   4.330   4.041
 2899SOL     OW 8718   2.533   4.188   4.993
 2899SOL    HW1 8719   2.499   4.099   4.963
 2899SOL    HW2 8720   2.559   4.242   4.913
 2900SOL     OW 8721   2.335   4.224   3.915
 2900SOL    HW1 8722   2.396   4.304   3.919
 2900SOL    HW2 8723   2.240   4.255   3.922
 2901SOL     OW 8724   3.164   4.579   4.033
 2901SOL    HW1 8725   3.078   4.548   4.075
 2901SOL    HW2 8726   3.160   4.565   3.934
 2902SOL     OW 8727   3.588   3.859   4.247
 2902SOL    HW1 8728   3.661   3.842   4.180
 2902SOL    HW2 8729   3.557   3.772   4.285
 2903SOL     OW 8730   3.142   4.651   4.396
 2903SOL    HW1 8731   3.202   4.570   4.398
 2903SOL    HW2 8732   3.182   4.720   4.336
 2904SOL     OW 8733   3.703   3.899   4.687
 2904SOL    HW1 8734   3.742   3.814   4.651
 2904SOL    HW2 8735   3.605   3.901   4.668
 2905SOL     OW 8736   2.125   4.050   4.444
 2905SOL    HW1 8737   2.046   4.101   4.410
 2905SOL    HW2 8738   2.116   4.035   4.542
 2906SOL     OW 8739   2.778   4.634   4.015
 2906SOL    HW1 8740   2.841   4.672   3.947
 2906SOL    HW2 8741   2.818   4.551   4.054
 2907SOL     OW 8742   2.876   3.960   4.695
 2907SOL    HW1 8743   2.868   3.924   4.602
 2907SOL    HW2 8744   2.874   3.884   4.760
 2908SOL     OW 8745   1.937   4.069   3.757
 2908SOL    HW1 8746   1.845   4.041   3.728
 2908SOL    HW2 8747   1.968   4.146   3.701
 2909SOL     OW 8748   1.934   3.890   4.042
 2909SOL    HW1 8749   1.917   3.973   3.988
 2909SOL    HW2 8750   2.024   3.853   4.020
 2910SOL     OW 8751   3.045   5.059   3.843
 2910SOL    HW1 8752   2.946   5.048   3.845
 2910SOL    HW2 8753   3.079   5.074   3.936
 2911SOL     OW 8754   3.536   4.607   4.978
 2911SOL    HW1 8755   3.509   4.518   4.941
 2911SOL    HW2 8756   3.537   4.675   4.905
 2912SOL     OW 8757   3.087   4.049   4.173
 2912SOL    HW1 8758   3.152   3.975   4.162
 2912SOL    HW2 8759   3.107   4.099   4.257
 2913SOL     OW 8760   2.456   4.469   4.376
 2913SOL    HW1 8761   2.506   4.554   4.357
 2913SOL    HW2 8762   2.368   4.471   4.328
 2914SOL     OW 8763   2.721   4.680   4.585
 2914SOL    HW1 8764   2.775   4.611   4.633
 2914SOL    HW2 8765   2.689   4.749   4.651
 2915SOL     OW 8766   2.945   4.708   3.811
 2915SOL    HW1 8767   2.922   4.761   3.729
 2915SOL    HW2 8768   3.026   4.652   3.792
 2916SOL     OW 8769   3.686   3.916   4.951
 2916SOL    HW1 8770   3.682   3.826   4.995
 2916SOL    HW2 8771   3.689   3.905   4.852
 2917SOL     OW 8772   2.290   4.148   4.244
 2917SOL    HW1 8773   2.320   4.076   4.182
 2917SOL    HW2 8774   2.251   4.108   4.327
 2918SOL     OW 8775   3.286   3.938   4.836
 2918SOL    HW1 8776   3.338   3.873   4.891
 2918SOL    HW2 8777   3.237   4.001   4.897
 2919SOL     OW 8778   2.632   5.054   4.025
 2919SOL    HW1 8779   2.586   4.967   4.042
 2919SOL    HW2 8780   2.723   5.051   4.066
 2920SOL     OW 8781   3.214   3.776   3.892
 2920SOL    HW1 8782   3.249   3.735   3.808
 2920SOL    HW2 8783   3.124   3.738   3.912
 2921SOL     OW 8784   3.162   4.177   4.415
 2921SOL    HW1 8785   3.103   4.257   4.419
 2921SOL    HW2 8786   3.177   4.142   4.508
 2922SOL     OW 8787   3.455   3.945   4.606
 2922SOL    HW1 8788   3.371   3.944   4.660
 2922SOL    HW2 8789   3.457   4.028   4.550
 2923SOL     OW 8790   1.901   4.801   4.024
 2923SOL    HW1 8791   2.000   4.790   4.015
 2923SOL    HW2 8792   1.861   4.715   4.056
 2924SOL     OW 8793   3.954   0.628   0.113
 2924SOL    HW1 8794   3.861   0.626   0.150
 2924SOL    HW2 8795   3.955   0.589   0.021
 2925SOL     OW 8796   3.949   0.275   0.996
 2925SOL    HW1 8797   3.984   0.258   1.088
 2925SOL    HW2 8798   3.861   0.230   0.984
 2926SOL     OW 8799   3.743   0.368   0.647
 2926SOL    HW1 8800   3.661   0.411   0.686
 2926SOL    HW2 8801   3.715   0.295   0.584
 2927SOL     OW 8802   4.293   1.275   1.165
 2927SOL    HW1 8803   4.200   1.268   1.128
 2927SOL    HW2 8804   4.304   1.364   1.209
 2928SOL     OW 8805   4.492   1.144   1.023
 2928SOL    HW1 8806   4.414   1.161   1.083
 2928SOL    HW2 8807   4.526   1.231   0.987
 2929SOL     OW 8808   4.574   0.798   1.823
 2929SOL    HW1 8809   4.570   0.874   1.888
 2929SOL    HW2 8810   4.596   0.834   1.732
 2930SOL     OW 8811   4.409   1.012   0.665
 2930SOL    HW1 8812   4.478   0.996   0.735
 2930SOL    HW2 8813   4.336   1.069   0.703
 2931SOL     OW 8814   4.410   1.161   1.803
 2931SOL    HW1 8815   4.470   1.240   1.817
 2931SOL    HW2 8816   4.324   1.192   1.762
 2932SOL     OW 8817   4.059   1.435   1.061
 2932SOL    HW1 8818   3.981   1.404   1.008
 2932SOL    HW2 8819   4.117   1.493   1.004
 2933SOL     OW 8820   4.162   0.392   1.499
 2933SOL    HW1 8821   4.244   0.336   1.508
 2933SOL    HW2 8822   4.081   0.334   1.503
 2934SOL     OW 8823   3.955   1.713   0.483
 2934SOL    HW1 8824   3.989   1.790   0.537
 2934SOL    HW2 8825   3.999   1.713   0.393
 2935SOL     OW 8826   4.851   1.341   1.690
 2935SOL    HW1 8827   4.898   1.341   1.778
 2935SOL    HW2 8828   4.803   1.254   1.679
 2936SOL     OW 8829   3.954   1.434   0.538
 2936SOL    HW1 8830   3.928   1.530   0.538
 2936SOL    HW2 8831   3.883   1.380   0.583
 2937SOL     OW 8832   3.964   1.091   0.886
 2937SOL    HW1 8833   3.978   1.007   0.938
 2937SOL    HW2 8834   3.909   1.155   0.941
 2938SOL     OW 8835   4.344   1.786   1.439
 2938SOL    HW1 8836   4.252   1.769   1.474
 2938SOL    HW2 8837   4.372   1.878   1.465
 2939SOL     OW 8838   4.330   0.964   0.123
 2939SOL    HW1 8839   4.337   1.048   0.069
 2939SOL    HW2 8840   4.376   0.977   0.211
 2940SOL     OW 8841   3.846   0.643   0.563
 2940SOL    HW1 8842   3.801   0.555   0.580
 2940SOL    HW2 8843   3.845   0.697   0.647
 2941SOL     OW 8844   3.751   1.596   0.117
 2941SOL    HW1 8845   3.732   1.500   0.138
 2941SOL    HW2 8846   3.718   1.654   0.192
 2942SOL     OW 8847   3.837   0.737   1.597
 2942SOL    HW1 8848   3.925   0.724   1.642
 2942SOL    HW2 8849   3.824   0.834   1.575
 2943SOL     OW 8850   4.337   1.365   0.726
 2943SOL    HW1 8851   4.288   1.278   0.735
 2943SOL    HW2 8852   4.314   1.408   0.639
 2944SOL     OW 8853   4.533   0.004   0.502
 2944SOL    HW1 8854   4.573   0.095   0.493
 2944SOL    HW2 8855   4.433   0.012   0.508
 2945SOL     OW 8856   3.921   0.976   1.264
 2945SOL    HW1 8857   4.010   0.931   1.250
 2945SOL    HW2 8858   3.848   0.911   1.245
 2946SOL     OW 8859   4.041   0.251   1.801
 2946SOL    HW1 8860   4.112   0.322   1.807
 2946SOL    HW2 8861   3.953   0.290   1.829
 2947SOL     OW 8862   4.322   0.729   0.270
 2947SOL    HW1 8863   4.346   0.798   0.202
 2947SOL    HW2 8864   4.244   0.762   0.324
 2948SOL     OW 8865   4.531   0.605   1.465
 2948SOL    HW1 8866   4.484   0.602   1.554
 2948SOL    HW2 8867   4.480   0.550   1.399
 2949SOL     OW 8868   4.697   0.890   1.572
 2949SOL    HW1 8869   4.743   0.806   1.543
 2949SOL    HW2 8870   4.641   0.924   1.497
 2950SOL     OW 8871   4.715   0.410   1.242
 2950SOL    HW1 8872   4.638   0.444   1.296
 2950SOL    HW2 8873   4.681   0.359   1.163
 2951SOL     OW 8874   4.765   0.701   0.429
 2951SOL    HW1 8875   4.791   0.697   0.525
 2951SOL    HW2 8876   4.680   0.650   0.415
 2952SOL     OW 8877   3.800   0.811   0.789
 2952SOL    HW1 8878   3.899   0.799   0.798
 2952SOL    HW2 8879   3.776   0.906   0.810
 2953SOL     OW 8880   3.854   1.821   1.571
 2953SOL    HW1 8881   3.844   1.806   1.670
 2953SOL    HW2 8882   3.768   1.857   1.535
 2954SOL     OW 8883   4.589   0.348   0.195
 2954SOL    HW1 8884   4.648   0.411   0.146
 2954SOL    HW2 8885   4.608   0.254   0.166
 2955SOL     OW 8886   4.274   0.196   0.885
 2955SOL    HW1 8887   4.269   0.191   0.985
 2955SOL    HW2 8888   4.276   0.292   0.856
 2956SOL     OW 8889   4.732   1.456   0.477
 2956SOL    HW1 8890   4.686   1.528   0.425
 2956SOL    HW2 8891   4.728   1.476   0.575
 2957SOL     OW 8892   4.075   1.801   0.853
 2957SOL    HW1 8893   4.125   1.715   0.859
 2957SOL    HW2 8894   4.140   1.878   0.850
 2958SOL     OW 8895   4.045   0.943   0.242
 2958SOL    HW1 8896   4.127   0.982   0.200
 2958SOL    HW2 8897   4.018   0.861   0.193
 2959SOL     OW 8898   4.185   1.266   1.727
 2959SOL    HW1 8899   4.135   1.267   1.641
 2959SOL    HW2 8900   4.122   1.248   1.803
 2960SOL     OW 8901   3.926   0.285   1.498
 2960SOL    HW1 8902   3.846   0.345   1.485
 2960SOL    HW2 8903   3.916   0.236   1.584
 2961SOL     OW 8904   4.188   1.743   0.323
 2961SOL    HW1 8905   4.221   1.782   0.409
 2961SOL    HW2 8906   4.264   1.736   0.258
 2962SOL     OW 8907   3.973   1.785   1.241
 2962SOL    HW1 8908   4.030   1.720   1.291
 2962SOL    HW2 8909   3.957   1.752   1.148
 2963SOL     OW 8910   4.664   1.698   0.904
 2963SOL    HW1 8911   4.744   1.641   0.925
 2963SOL    HW2 8912   4.615   1.658   0.827
 2964SOL     OW 8913   4.106   0.700   0.480
 2964SOL    HW1 8914   4.151   0.610   0.477
 2964SOL    HW2 8915   4.012   0.689   0.513
 2965SOL     OW 8916   4.338   0.122   0.117
 2965SOL    HW1 8917   4.436   0.100   0.124
 2965SOL    HW2 8918   4.307   0.105   0.024
 2966SOL     OW 8919   4.505   0.264   1.749
 2966SOL    HW1 8920   4.572   0.203   1.792
 2966SOL    HW2 8921   4.432   0.283   1.814
 2967SOL     OW 8922   4.612   1.514   1.195
 2967SOL    HW1 8923   4.589   1.489   1.101
 2967SOL    HW2 8924   4.673   1.445   1.234
 2968SOL     OW 8925   4.527   1.402   0.924
 2968SOL    HW1 8926   4.617   1.416   0.882
 2968SOL    HW2 8927   4.456   1.404   0.853
 2969SOL     OW 8928   4.646   0.503   0.899
 2969SOL    HW1 8929   4.621   0.494   0.803
 2969SOL    HW2 8930   4.694   0.421   0.930
 2970SOL     OW 8931   4.263   0.064   0.512
 2970SOL    HW1 8932   4.182   0.065   0.570
 2970SOL    HW2 8933   4.266   0.147   0.457
 2971SOL     OW 8934   5.158   1.188   0.041
 2971SOL    HW1 8935   5.190   1.112   0.098
 2971SOL    HW2 8936   5.066   1.215   0.071
 2972SOL     OW 8937   4.021   0.035   0.171
 2972SOL    HW1 8938   4.070   0.119   0.150
 2972SOL    HW2 8939   4.083  -0.030   0.216
 2973SOL     OW 8940   4.659   0.236   0.480
 2973SOL    HW1 8941   4.611   0.277   0.402
 2973SOL    HW2 8942   4.758   0.234   0.461
 2974SOL     OW 8943   4.951   1.570   0.793
 2974SOL    HW1 8944   4.972   1.644   0.728
 2974SOL    HW2 8945   5.019   1.570   0.866
 2975SOL     OW 8946   4.183   1.152   0.741
 2975SOL    HW1 8947   4.112   1.125   0.806
 2975SOL    HW2 8948   4.157   1.124   0.648
 2976SOL     OW 8949   4.995   1.797   0.591
 2976SOL    HW1 8950   5.039   1.861   0.527
 2976SOL    HW2 8951   4.945   1.849   0.661
 2977SOL     OW 8952   4.756   0.549   0.016
 2977SOL    HW1 8953   4.715   0.631  -0.023
 2977SOL    HW2 8954   4.820   0.575   0.089
 2978SOL     OW 8955   3.802   0.556   1.386
 2978SOL    HW1 8956   3.894   0.555   1.345
 2978SOL    HW2 8957   3.796   0.630   1.453
 2979SOL     OW 8958   4.285   0.222   1.147
 2979SOL    HW1 8959   4.323   0.138   1.184
 2979SOL    HW2 8960   4.197   0.241   1.191
 2980SOL     OW 8961   4.590   0.454   0.642
 2980SOL    HW1 8962   4.558   0.526   0.580
 2980SOL    HW2 8963   4.614   0.373   0.589
 2981SOL     OW 8964   4.741   0.039   0.753
 2981SOL    HW1 8965   4.669   0.044   0.684
 2981SOL    HW2 8966   4.717  -0.030   0.822
 2982SOL     OW 8967   4.212   1.385   0.174
 2982SOL    HW1 8968   4.125   1.370   0.221
 2982SOL    HW2 8969   4.195   1.411   0.079
 2983SOL     OW 8970   4.251   0.256   0.328
 2983SOL    HW1 8971   4.278   0.197   0.253
 2983SOL    HW2 8972   4.251   0.351   0.297
 2984SOL     OW 8973   4.639   0.089   1.402
 2984SOL    HW1 8974   4.664   0.069   1.307
 2984SOL    HW2 8975   4.711   0.145   1.444
 2985SOL     OW 8976   4.704   1.116   1.719
 2985SOL    HW1 8977   4.605   1.122   1.729
 2985SOL    HW2 8978   4.727   1.036   1.663
 2986SOL     OW 8979   4.429   1.050   0.368
 2986SOL    HW1 8980   4.415   1.057   0.467
 2986SOL    HW2 8981   4.513   0.999   0.350
 2987SOL     OW 8982   4.134   0.813   1.251
 2987SOL    HW1 8983   4.220   0.825   1.301
 2987SOL    HW2 8984   4.092   0.726   1.278
 2988SOL     OW 8985   3.788   1.564   1.331
 2988SOL    HW1 8986   3.742   1.646   1.297
 2988SOL    HW2 8987   3.886   1.583   1.340
 2989SOL     OW 8988   4.091   1.100   0.501
 2989SOL    HW1 8989   4.084   1.183   0.445
 2989SOL    HW2 8990   4.095   1.020   0.441
 2990SOL     OW 8991   4.290   0.537   0.865
 2990SOL    HW1 8992   4.302   0.603   0.791
 2990SOL    HW2 8993   4.336   0.571   0.948
 2991SOL     OW 8994   4.078   1.510   1.329
 2991SOL    HW1 8995   4.057   1.466   1.242
 2991SOL    HW2 8996   4.175   1.536   1.332
 2992SOL     OW 8997   4.126   0.751   1.598
 2992SOL    HW1 8998   4.194   0.806   1.551
 2992SOL    HW2 8999   4.166   0.663   1.625
 2993SOL     OW 9000   4.737   0.105   1.770
 2993SOL    HW1 9001   4.743   0.190   1.718
 2993SOL    HW2 9002   4.769   0.029   1.713
 2994SOL     OW 9003   4.228   0.050   1.740
 2994SOL    HW1 9004   4.186  -0.007   1.670
 2994SOL    HW2 9005   4.162   0.119   1.772
 2995SOL     OW 9006   4.297   0.870   1.029
 2995SOL    HW1 9007   4.341   0.959   1.020
 2995SOL    HW2 9008   4.234   0.870   1.106
 2996SOL     OW 9009   4.933   0.525   0.275
 2996SOL    HW1 9010   4.946   0.441   0.329
 2996SOL    HW2 9011   4.904   0.599   0.335
 2997SOL     OW 9012   4.031   0.213   1.231
 2997SOL    HW1 9013   4.008   0.250   1.321
 2997SOL    HW2 9014   4.001   0.118   1.225
 2998SOL     OW 9015   3.761   1.310   1.282
 2998SOL    HW1 9016   3.814   1.261   1.350
 2998SOL    HW2 9017   3.783   1.408   1.287
 2999SOL     OW 9018   4.456   0.634   1.064
 2999SOL    HW1 9019   4.515   0.608   0.988
 2999SOL    HW2 9020   4.428   0.730   1.053
 3000SOL     OW 9021   4.031   0.063   0.618
 3000SOL    HW1 9022   4.020   0.157   0.651
 3000SOL    HW2 9023   4.026   0.000   0.695
 3001SOL     OW 9024   4.747   0.766   0.966
 3001SOL    HW1 9025   4.762   0.787   1.062
 3001SOL    HW2 9026   4.717   0.671   0.957
 3002SOL     OW 9027   4.704   1.573   1.700
 3002SOL    HW1 9028   4.684   1.617   1.612
 3002SOL    HW2 9029   4.743   1.482   1.684
 3003SOL     OW 9030   4.074   0.898   1.804
 3003SOL    HW1 9031   4.150   0.942   1.852
 3003SOL    HW2 9032   4.109   0.851   1.722
 3004SOL     OW 9033   4.792   1.333   0.849
 3004SOL    HW1 9034   4.799   1.249   0.794
 3004SOL    HW2 9035   4.854   1.402   0.813
 3005SOL     OW 9036   4.043   0.810   0.949
 3005SOL    HW1 9037   4.136   0.846   0.954
 3005SOL    HW2 9038   4.037   0.725   1.001
 3006SOL     OW 9039   4.063   0.509   1.006
 3006SOL    HW1 9040   4.011   0.426   0.989
 3006SOL    HW2 9041   4.140   0.514   0.942
 3007SOL     OW 9042   4.862   0.380   1.678
 3007SOL    HW1 9043   4.817   0.443   1.742
 3007SOL    HW2 9044   4.955   0.411   1.661
 3008SOL     OW 9045   3.732   1.326   0.200
 3008SOL    HW1 9046   3.639   1.347   0.169
 3008SOL    HW2 9047   3.742   1.227   0.213
 3009SOL     OW 9048   3.812   1.801   0.927
 3009SOL    HW1 9049   3.770   1.715   0.900
 3009SOL    HW2 9050   3.906   1.804   0.893
 3010SOL     OW 9051   4.228   1.568   0.910
 3010SOL    HW1 9052   4.294   1.642   0.919
 3010SOL    HW2 9053   4.272   1.489   0.868
 3011SOL     OW 9054   4.726   0.796   1.238
 3011SOL    HW1 9055   4.767   0.764   1.324
 3011SOL    HW2 9056   4.630   0.769   1.235
 3012SOL     OW 9057   3.764   0.544   1.114
 3012SOL    HW1 9058   3.849   0.511   1.073
 3012SOL    HW2 9059   3.777   0.559   1.212
 3013SOL     OW 9060   3.913   0.520   1.722
 3013SOL    HW1 9061   3.972   0.480   1.652
 3013SOL    HW2 9062   3.855   0.591   1.681
 3014SOL     OW 9063   4.539   0.572   0.325
 3014SOL    HW1 9064   4.546   0.483   0.279
 3014SOL    HW2 9065   4.445   0.606   0.317
 3015SOL     OW 9066   3.976   1.564   1.744
 3015SOL    HW1 9067   3.946   1.621   1.820
 3015SOL    HW2 9068   3.969   1.467   1.770
 3016SOL     OW 9069   4.395   0.464   1.269
 3016SOL    HW1 9070   4.361   0.375   1.239
 3016SOL    HW2 9071   4.421   0.518   1.189
 3017SOL     OW 9072   4.654   1.678   1.465
 3017SOL    HW1 9073   4.630   1.660   1.370
 3017SOL    HW2 9074   4.684   1.772   1.475
 3018SOL     OW 9075   4.197   0.500   0.191
 3018SOL    HW1 9076   4.258   0.580   0.195
 3018SOL    HW2 9077   4.102   0.531   0.198
 3019SOL     OW 9078   3.883   1.137   1.466
 3019SOL    HW1 9079   3.905   1.076   1.542
 3019SOL    HW2 9080   3.893   1.088   1.380
 3020SOL     OW 9081   5.026   0.855   0.309
 3020SOL    HW1 9082   4.940   0.824   0.351
 3020SOL    HW2 9083   5.022   0.841   0.210
 3021SOL     OW 9084   3.807   1.258   1.022
 3021SOL    HW1 9085   3.802   1.257   1.122
 3021SOL    HW2 9086   3.724   1.217   0.984
 3022SOL     OW 9087   4.412   1.662   1.716
 3022SOL    HW1 9088   4.356   1.743   1.725
 3022SOL    HW2 9089   4.464   1.666   1.630
 3023SOL     OW 9090   4.627   0.086   0.133
 3023SOL    HW1 9091   4.678   0.087   0.047
 3023SOL    HW2 9092   4.683   0.044   0.204
 3024SOL     OW 9093   3.854   1.794   1.851
 3024SOL    HW1 9094   3.813   1.720   1.904
 3024SOL    HW2 9095   3.918   1.845   1.909
 3025SOL     OW 9096   4.554   1.273   1.422
 3025SOL    HW1 9097   4.549   1.306   1.517
 3025SOL    HW2 9098   4.468   1.292   1.376
 3026SOL     OW 9099   4.396   1.616   0.154
 3026SOL    HW1 9100   4.405   1.626   0.055
 3026SOL    HW2 9101   4.356   1.527   0.175
 3027SOL     OW 9102   3.987   0.326   0.720
 3027SOL    HW1 9103   3.908   0.377   0.686
 3027SOL    HW2 9104   3.978   0.311   0.818
 3028SOL     OW 9105   4.546   1.002   1.372
 3028SOL    HW1 9106   4.586   1.001   1.280
 3028SOL    HW2 9107   4.556   1.094   1.412
 3029SOL     OW 9108   4.640   0.910   0.291
 3029SOL    HW1 9109   4.703   0.948   0.223
 3029SOL    HW2 9110   4.680   0.827   0.330
 3030SOL     OW 9111   4.096   1.288   1.490
 3030SOL    HW1 9112   4.083   1.381   1.456
 3030SOL    HW2 9113   4.012   1.236   1.477
 3031SOL     OW 9114   4.763   1.098   0.696
 3031SOL    HW1 9115   4.693   1.051   0.750
 3031SOL    HW2 9116   4.822   1.030   0.653
 3032SOL     OW 9117   4.738   0.236   0.971
 3032SOL    HW1 9118   4.730   0.200   0.878
 3032SOL    HW2 9119   4.736   0.160   1.036
 3033SOL     OW 9120   4.314   1.487   0.491
 3033SOL    HW1 9121   4.356   1.429   0.421
 3033SOL    HW2 9122   4.270   1.566   0.447
 3034SOL     OW 9123   3.979   1.348   0.290
 3034SOL    HW1 9124   3.883   1.349   0.263
 3034SOL    HW2 9125   3.991   1.401   0.374
 3035SOL     OW 9126   3.829   1.013   1.726
 3035SOL    HW1 9127   3.752   0.980   1.780
 3035SOL    HW2 9128   3.914   0.983   1.768
 3036SOL     OW 9129   4.396   0.203   1.489
 3036SOL    HW1 9130   4.486   0.187   1.449
 3036SOL    HW2 9131   4.404   0.208   1.588
 3037SOL     OW 9132   3.796   0.166   0.318
 3037SOL    HW1 9133   3.779   0.249   0.264
 3037SOL    HW2 9134   3.886   0.129   0.296
 3038SOL     OW 9135   4.337   0.842   1.431
 3038SOL    HW1 9136   4.393   0.923   1.414
 3038SOL    HW2 9137   4.396   0.762   1.434
 3039SOL     OW 9138   4.440   0.565   1.708
 3039SOL    HW1 9139   4.459   0.630   1.782
 3039SOL    HW2 9140   4.500   0.485   1.717
 3040SOL     OW 9141   4.114   1.741   1.560
 3040SOL    HW1 9142   4.023   1.782   1.558
 3040SOL    HW2 9143   4.107   1.647   1.592
 3041SOL     OW 9144   4.318   0.745   0.652
 3041SOL    HW1 9145   4.368   0.830   0.633
 3041SOL    HW2 9146   4.230   0.747   0.604
 3042SOL     OW 9147   4.583   1.374   0.016
 3042SOL    HW1 9148   4.537   1.389   0.104
 3042SOL    HW2 9149   4.627   1.459  -0.014
 3043SOL     OW 9150   4.385   1.790   0.953
 3043SOL    HW1 9151   4.339   1.878   0.940
 3043SOL    HW2 9152   4.484   1.802   0.946
 3044SOL     OW 9153   4.583   0.956   0.861
 3044SOL    HW1 9154   4.637   0.887   0.909
 3044SOL    HW2 9155   4.551   1.025   0.927
 3045SOL     OW 9156   4.807   0.984   0.087
 3045SOL    HW1 9157   4.784   1.037   0.005
 3045SOL    HW2 9158   4.888   0.928   0.068
 3046SOL     OW 9159   3.945   1.314   1.844
 3046SOL    HW1 9160   3.880   1.241   1.823
 3046SOL    HW2 9161   3.949   1.328   1.942
 3047SOL     OW 9162   3.803   1.240   0.653
 3047SOL    HW1 9163   3.802   1.193   0.741
 3047SOL    HW2 9164   3.885   1.212   0.602
 3048SOL     OW 9165   4.396   1.391   1.624
 3048SOL    HW1 9166   4.318   1.341   1.662
 3048SOL    HW2 9167   4.393   1.486   1.655
 3049SOL     OW 9168   4.152   0.424   0.520
 3049SOL    HW1 9169   4.182   0.352   0.458
 3049SOL    HW2 9170   4.113   0.384   0.603
 3050SOL     OW 9171   4.041   0.547   1.280
 3050SOL    HW1 9172   4.079   0.488   1.352
 3050SOL    HW2 9173   4.081   0.521   1.192
 3051SOL     OW 9174   4.536   1.586   0.687
 3051SOL    HW1 9175   4.568   1.596   0.593
 3051SOL    HW2 9176   4.457   1.524   0.689
 3052SOL     OW 9177   4.725   0.034   1.154
 3052SOL    HW1 9178   4.662  -0.038   1.123
 3052SOL    HW2 9179   4.818  -0.002   1.154
 3053SOL     OW 9180   4.494   1.330   0.301
 3053SOL    HW1 9181   4.448   1.243   0.318
 3053SOL    HW2 9182   4.585   1.327   0.342
 3054SOL     OW 9183   4.342   1.567   1.284
 3054SOL    HW1 9184   4.337   1.649   1.341
 3054SOL    HW2 9185   4.431   1.564   1.239
 3055SOL     OW 9186   3.763   1.077   0.300
 3055SOL    HW1 9187   3.862   1.066   0.291
 3055SOL    HW2 9188   3.723   0.991   0.332
 3056SOL     OW 9189   4.599   1.646   0.337
 3056SOL    HW1 9190   4.522   1.611   0.283
 3056SOL    HW2 9191   4.567   1.717   0.399
 3057SOL     OW 9192   3.954   0.628   1.975
 3057SOL    HW1 9193   3.861   0.626   2.012
 3057SOL    HW2 9194   3.955   0.589   1.883
 3058SOL     OW 9195   3.949   0.275   2.858
 3058SOL    HW1 9196   3.984   0.258   2.950
 3058SOL    HW2 9197   3.861   0.230   2.846
 3059SOL     OW 9198   3.743   0.368   2.509
 3059SOL    HW1 9199   3.661   0.411   2.548
 3059SOL    HW2 9200   3.715   0.295   2.446
 3060SOL     OW 9201   4.293   1.275   3.027
 3060SOL    HW1 9202   4.200   1.268   2.990
 3060SOL    HW2 9203   4.304   1.364   3.071
 3061SOL     OW 9204   4.492   1.144   2.885
 3061SOL    HW1 9205   4.414   1.161   2.945
 3061SOL    HW2 9206   4.526   1.231   2.849
 3062SOL     OW 9207   4.574   0.798   3.685
 3062SOL    HW1 9208   4.570   0.874   3.750
 3062SOL    HW2 9209   4.596   0.834   3.594
 3063SOL     OW 9210   4.409   1.012   2.527
 3063SOL    HW1 9211   4.478   0.996   2.597
 3063SOL    HW2 9212   4.336   1.069   2.565
 3064SOL     OW 9213   4.410   1.161   3.665
 3064SOL    HW1 9214   4.470   1.240   3.679
 3064SOL    HW2 9215   4.324   1.192   3.624
 3065SOL     OW 9216   4.059   1.435   2.923
 3065SOL    HW1 9217   3.981   1.404   2.870
 3065SOL    HW2 9218   4.117   1.493   2.866
 3066SOL     OW 9219   4.162   0.392   3.361
 3066SOL    HW1 9220   4.244   0.336   3.370
 3066SOL    HW2 9221   4.081   0.334   3.365
 3067SOL     OW 9222   3.955   1.713   2.345
 3067SOL    HW1 9223   3.989   1.790   2.399
 3067SOL    HW2 9224   3.999   1.713   2.255
 3068SOL     OW 9225   4.851   1.341   3.552
 3068SOL    HW1 9226   4.898   1.341   3.640
 3068SOL    HW2 9227   4.803   1.254   3.541
 3069SOL     OW 9228   3.954   1.434   2.400
 3069SOL    HW1 9229   3.928   1.530   2.400
 3069SOL    HW2 9230   3.883   1.380   2.445
 3070SOL     OW 9231   3.964   1.091   2.748
 3070SOL    HW1 9232   3.978   1.007   2.800
 3070SOL    HW2 9233   3.909   1.155   2.803
 3071SOL     OW 9234   4.344   1.786   3.301
 3071SOL    HW1 9235   4.252   1.769   3.336
 3071SOL    HW2 9236   4.372   1.878   3.327
 3072SOL     OW 9237   4.330   0.964   1.985
 3072SOL    HW1 9238   4.337   1.048   1.931
 3072SOL    HW2 9239   4.376   0.977   2.073
 3073SOL     OW 9240   3.846   0.643   2.425
 3073SOL    HW1 9241   3.801   0.555   2.442
 3073SOL    HW2 9242   3.845   0.697   2.509
 3074SOL     OW 9243   3.751   1.596   1.979
 3074SOL    HW1 9244   3.732   1.500   2.000
 3074SOL    HW2 9245   3.718   1.654   2.054
 3075SOL     OW 9246   3.837   0.737   3.459
 3075SOL    HW1 9247   3.925   0.724   3.504
 3075SOL    HW2 9248   3.824   0.834   3.437
 3076SOL     OW 9249   4.337   1.365   2.588
 3076SOL    HW1 9250   4.288   1.278   2.597
 3076SOL    HW2 9251   4.314   1.408   2.501
 3077SOL     OW 9252   4.533   0.004   2.364
 3077SOL    HW1 9253   4.573   0.095   2.355
 3077SOL    HW2 9254   4.433   0.012   2.370
 3078SOL     OW 9255   3.921   0.976   3.126
 3078SOL    HW1 9256   4.010   0.931   3.112
 3078SOL    HW2 9257   3.848   0.911   3.107
 3079SOL     OW 9258   4.041   0.251   3.663
 3079SOL    HW1 9259   4.112   0.322   3.669
 3079SOL    HW2 9260   3.953   0.290   3.691
 3080SOL     OW 9261   4.322   0.729   2.132
 3080SOL    HW1 9262   4.346   0.798   2.064
 3080SOL    HW2 9263   4.244   0.762   2.186
 3081SOL     OW 9264   4.531   0.605   3.327
 3081SOL    HW1 9265   4.484   0.602   3.416
 3081SOL    HW2 9266   4.480   0.550   3.261
 3082SOL     OW 9267   4.697   0.890   3.434
 3082SOL    HW1 9268   4.743   0.806   3.405
 3082SOL    HW2 9269   4.641   0.924   3.359
 3083SOL     OW 9270   4.715   0.410   3.104
 3083SOL    HW1 9271   4.638   0.444   3.158
 3083SOL    HW2 9272   4.681   0.359   3.025
 3084SOL     OW 9273   4.765   0.701   2.291
 3084SOL    HW1 9274   4.791   0.697   2.387
 3084SOL    HW2 9275   4.680   0.650   2.277
 3085SOL     OW 9276   3.800   0.811   2.651
 3085SOL    HW1 9277   3.899   0.799   2.660
 3085SOL    HW2 9278   3.776   0.906   2.672
 3086SOL     OW 9279   3.854   1.821   3.433
 3086SOL    HW1 9280   3.844   1.806   3.532
 3086SOL    HW2 9281   3.768   1.857   3.397
 3087SOL     OW 9282   4.589   0.348   2.057
 3087SOL    HW1 9283   4.648   0.411   2.008
 3087SOL    HW2 9284   4.608   0.254   2.028
 3088SOL     OW 9285   4.274   0.196   2.747
 3088SOL    HW1 9286   4.269   0.191   2.847
 3088SOL    HW2 9287   4.276   0.292   2.718
 3089SOL     OW 9288   4.732   1.456   2.339
 3089SOL    HW1 9289   4.686   1.528   2.287
 3089SOL    HW2 9290   4.728   1.476   2.437
 3090SOL     OW 9291   4.075   1.801   2.715
 3090SOL    HW1 9292   4.125   1.715   2.721
 3090SOL    HW2 9293   4.140   1.878   2.712
 3091SOL     OW 9294   4.045   0.943   2.104
 3091SOL    HW1 9295   4.127   0.982   2.062
 3091SOL    HW2 9296   4.018   0.861   2.055
 3092SOL     OW 9297   4.185   1.266   3.589
 3092SOL    HW1 9298   4.135   1.267   3.503
 3092SOL    HW2 9299   4.122   1.248   3.665
 3093SOL     OW 9300   3.926   0.285   3.360
 3093SOL    HW1 9301   3.846   0.345   3.347
 3093SOL    HW2 9302   3.916   0.236   3.446
 3094SOL     OW 9303   4.188   1.743   2.185
 3094SOL    HW1 9304   4.221   1.782   2.271
 3094SOL    HW2 9305   4.264   1.736   2.120
 3095SOL     OW 9306   3.973   1.785   3.103
 3095SOL    HW1 9307   4.030   1.720   3.153
 3095SOL    HW2 9308   3.957   1.752   3.010
 3096SOL     OW 9309   4.664   1.698   2.766
 3096SOL    HW1 9310   4.744   1.641   2.787
 3096SOL    HW2 9311   4.615   1.658   2.689
 3097SOL     OW 9312   4.106   0.700   2.342
 3097SOL    HW1 9313   4.151   0.610   2.339
 3097SOL    HW2 9314   4.012   0.689   2.375
 3098SOL     OW 9315   4.338   0.122   1.979
 3098SOL    HW1 9316   4.436   0.100   1.986
 3098SOL    HW2 9317   4.307   0.105   1.886
 3099SOL     OW 9318   4.505   0.264   3.611
 3099SOL    HW1 9319   4.572   0.203   3.654
 3099SOL    HW2 9320   4.432   0.283   3.676
 3100SOL     OW 9321   4.612   1.514   3.057
 3100SOL    HW1 9322   4.589   1.489   2.963
 3100SOL    HW2 9323   4.673   1.445   3.096
 3101SOL     OW 9324   4.527   1.402   2.786
 3101SOL    HW1 9325   4.617   1.416   2.744
 3101SOL    HW2 9326   4.456   1.404   2.715
 3102SOL     OW 9327   4.646   0.503   2.761
 3102SOL    HW1 9328   4.621   0.494   2.665
 3102SOL    HW2 9329   4.694   0.421   2.792
 3103SOL     OW 9330   4.263   0.064   2.374
 3103SOL    HW1 9331   4.182   0.065   2.432
 3103SOL    HW2 9332   4.266   0.147   2.319
 3104SOL     OW 9333   4.021   0.035   2.033
 3104SOL    HW1 9334   4.070   0.119   2.012
 3104SOL    HW2 9335   4.083  -0.030   2.078
 3105SOL     OW 9336   4.659   0.236   2.342
 3105SOL    HW1 9337   4.611   0.277   2.264
 3105SOL    HW2 9338   4.758   0.234   2.323
 3106SOL     OW 9339   4.951   1.570   2.655
 3106SOL    HW1 9340   4.972   1.644   2.590
 3106SOL    HW2 9341   5.019   1.570   2.728
 3107SOL     OW 9342   4.183   1.152   2.603
 3107SOL    HW1 9343   4.112   1.125   2.668
 3107SOL    HW2 9344   4.157   1.124   2.510
 3108SOL     OW 9345   4.995   1.797   2.453
 3108SOL    HW1 9346   5.039   1.861   2.389
 3108SOL    HW2 9347   4.945   1.849   2.523
 3109SOL     OW 9348   4.756   0.549   1.878
 3109SOL    HW1 9349   4.715   0.631   1.839
 3109SOL    HW2 9350   4.820   0.575   1.951
 3110SOL     OW 9351   3.802   0.556   3.248
 3110SOL    HW1 9352   3.894   0.555   3.207
 3110SOL    HW2 9353   3.796   0.630   3.315
 3111SOL     OW 9354   4.285   0.222   3.009
 3111SOL    HW1 9355   4.323   0.138   3.046
 3111SOL    HW2 9356   4.197   0.241   3.053
 3112SOL     OW 9357   4.590   0.454   2.504
 3112SOL    HW1 9358   4.558   0.526   2.442
 3112SOL    HW2 9359   4.614   0.373   2.451
 3113SOL     OW 9360   4.741   0.039   2.615
 3113SOL    HW1 9361   4.669   0.044   2.546
 3113SOL    HW2 9362   4.717  -0.030   2.684
 3114SOL     OW 9363   4.212   1.385   2.036
 3114SOL    HW1 9364   4.125   1.370   2.083
 3114SOL    HW2 9365   4.195   1.411   1.941
 3115SOL     OW 9366   4.251   0.256   2.190
 3115SOL    HW1 9367   4.278   0.197   2.115
 3115SOL    HW2 9368   4.251   0.351   2.159
 3116SOL     OW 9369   4.639   0.089   3.264
 3116SOL    HW1 9370   4.664   0.069   3.169
 3116SOL    HW2 9371   4.711   0.145   3.306
 3117SOL     OW 9372   4.704   1.116   3.581
 3117SOL    HW1 9373   4.605   1.122   3.591
 3117SOL    HW2 9374   4.727   1.036   3.525
 3118SOL     OW 9375   4.429   1.050   2.230
 3118SOL    HW1 9376   4.415   1.057   2.329
 3118SOL    HW2 9377   4.513   0.999   2.212
 3119SOL     OW 9378   4.134   0.813   3.113
 3119SOL    HW1 9379   4.220   0.825   3.163
 3119SOL    HW2 9380   4.092   0.726   3.140
 3120SOL     OW 9381   3.788   1.564   3.193
 3120SOL    HW1 9382   3.742   1.646   3.159
 3120SOL    HW2 9383   3.886   1.583   3.202
 3121SOL     OW 9384   4.091   1.100   2.363
 3121SOL    HW1 9385   4.084   1.183   2.307
 3121SOL    HW2 9386   4.095   1.020   2.303
 3122SOL     OW 9387   4.290   0.537   2.727
 3122SOL    HW1 9388   4.302   0.603   2.653
 3122SOL    HW2 9389   4.336   0.571   2.810
 3123SOL     OW 9390   4.078   1.510   3.191
 3123SOL    HW1 9391   4.057   1.466   3.104
 3123SOL    HW2 9392   4.175   1.536   3.194
 3124SOL     OW 9393   4.126   0.751   3.460
 3124SOL    HW1 9394   4.194   0.806   3.413
 3124SOL    HW2 9395   4.166   0.663   3.487
 3125SOL     OW 9396   4.737   0.105   3.632
 3125SOL    HW1 9397   4.743   0.190   3.580
 3125SOL    HW2 9398   4.769   0.029   3.575
 3126SOL     OW 9399   4.228   0.050   3.602
 3126SOL    HW1 9400   4.186  -0.007   3.532
 3126SOL    HW2 9401   4.162   0.119   3.634
 3127SOL     OW 9402   4.297   0.870   2.891
 3127SOL    HW1 9403   4.341   0.959   2.882
 3127SOL    HW2 9404   4.234   0.870   2.968
 3128SOL     OW 9405   4.933   0.525   2.137
 3128SOL    HW1 9406   4.946   0.441   2.191
 3128SOL    HW2 9407   4.904   0.599   2.197
 3129SOL     OW 9408   4.031   0.213   3.093
 3129SOL    HW1 9409   4.008   0.250   3.183
 3129SOL    HW2 9410   4.001   0.118   3.087
 3130SOL     OW 9411   3.761   1.310   3.144
 3130SOL    HW1 9412   3.814   1.261   3.212
 3130SOL    HW2 9413   3.783   1.408   3.149
 3131SOL     OW 9414   4.456   0.634   2.926
 3131SOL    HW1 9415   4.515   0.608   2.850
 3131SOL    HW2 9416   4.428   0.730   2.915
 3132SOL     OW 9417   4.031   0.063   2.480
 3132SOL    HW1 9418   4.020   0.157   2.513
 3132SOL    HW2 9419   4.026   0.000   2.557
 3133SOL     OW 9420   4.747   0.766   2.828
 3133SOL    HW1 9421   4.762   0.787   2.924
 3133SOL    HW2 9422   4.717   0.671   2.819
 3134SOL     OW 9423   4.704   1.573   3.562
 3134SOL    HW1 9424   4.684   1.617   3.474
 3134SOL    HW2 9425   4.743   1.482   3.546
 3135SOL     OW 9426   4.074   0.898   3.666
 3135SOL    HW1 9427   4.150   0.942   3.714
 3135SOL    HW2 9428   4.109   0.851   3.584
 3136SOL     OW 9429   4.792   1.333   2.711
 3136SOL    HW1 9430   4.799   1.249   2.656
 3136SOL    HW2 9431   4.854   1.402   2.675
 3137SOL     OW 9432   4.043   0.810   2.811
 3137SOL    HW1 9433   4.136   0.846   2.816
 3137SOL    HW2 9434   4.037   0.725   2.863
 3138SOL     OW 9435   4.063   0.509   2.868
 3138SOL    HW1 9436   4.011   0.426   2.851
 3138SOL    HW2 9437   4.140   0.514   2.804
 3139SOL     OW 9438   4.862   0.380   3.540
 3139SOL    HW1 9439   4.817   0.443   3.604
 3139SOL    HW2 9440   4.955   0.411   3.523
 3140SOL     OW 9441   3.732   1.326   2.062
 3140SOL    HW1 9442   3.639   1.347   2.031
 3140SOL    HW2 9443   3.742   1.227   2.075
 3141SOL     OW 9444   3.812   1.801   2.789
 3141SOL    HW1 9445   3.770   1.715   2.762
 3141SOL    HW2 9446   3.906   1.804   2.755
 3142SOL     OW 9447   4.228   1.568   2.772
 3142SOL    HW1 9448   4.294   1.642   2.781
 3142SOL    HW2 9449   4.272   1.489   2.730
 3143SOL     OW 9450   4.726   0.796   3.100
 3143SOL    HW1 9451   4.767   0.764   3.186
 3143SOL    HW2 9452   4.630   0.769   3.097
 3144SOL     OW 9453   3.764   0.544   2.976
 3144SOL    HW1 9454   3.849   0.511   2.935
 3144SOL    HW2 9455   3.777   0.559   3.074
 3145SOL     OW 9456   3.913   0.520   3.584
 3145SOL    HW1 9457   3.972   0.480   3.514
 3145SOL    HW2 9458   3.855   0.591   3.543
 3146SOL     OW 9459   4.539   0.572   2.187
 3146SOL    HW1 9460   4.546   0.483   2.141
 3146SOL    HW2 9461   4.445   0.606   2.179
 3147SOL     OW 9462   3.976   1.564   3.606
 3147SOL    HW1 9463   3.946   1.621   3.682
 3147SOL    HW2 9464   3.969   1.467   3.632
 3148SOL     OW 9465   4.395   0.464   3.131
 3148SOL    HW1 9466   4.361   0.375   3.101
 3148SOL    HW2 9467   4.421   0.518   3.051
 3149SOL     OW 9468   4.654   1.678   3.327
 3149SOL    HW1 9469   4.630   1.660   3.232
 3149SOL    HW2 9470   4.684   1.772   3.337
 3150SOL     OW 9471   4.197   0.500   2.053
 3150SOL    HW1 9472   4.258   0.580   2.057
 3150SOL    HW2 9473   4.102   0.531   2.060
 3151SOL     OW 9474   3.883   1.137   3.328
 3151SOL    HW1 9475   3.905   1.076   3.404
 3151SOL    HW2 9476   3.893   1.088   3.242
 3152SOL     OW 9477   5.026   0.855   2.171
 3152SOL    HW1 9478   4.940   0.824   2.213
 3152SOL    HW2 9479   5.022   0.841   2.072
 3153SOL     OW 9480   3.807   1.258   2.884
 3153SOL    HW1 9481   3.802   1.257   2.984
 3153SOL    HW2 9482   3.724   1.217   2.846
 3154SOL     OW 9483   4.412   1.662   3.578
 3154SOL    HW1 9484   4.356   1.743   3.587
 3154SOL    HW2 9485   4.464   1.666   3.492
 3155SOL     OW 9486   3.854   1.794   3.713
 3155SOL    HW1 9487   3.813   1.720   3.766
 3155SOL    HW2 9488   3.918   1.845   3.771
 3156SOL     OW 9489   4.554   1.273   3.284
 3156SOL    HW1 9490   4.549   1.306   3.379
 3156SOL    HW2 9491   4.468   1.292   3.238
 3157SOL     OW 9492   4.396   1.616   2.016
 3157SOL    HW1 9493   4.405   1.626   1.917
 3157SOL    HW2 9494   4.356   1.527   2.037
 3158SOL     OW 9495   3.987   0.326   2.582
 3158SOL    HW1 9496   3.908   0.377   2.548
 3158SOL    HW2 9497   3.978   0.311   2.680
 3159SOL     OW 9498   4.546   1.002   3.234
 3159SOL    HW1 9499   4.586   1.001   3.142
 3159SOL    HW2 9500   4.556   1.094   3.274
 3160SOL     OW 9501   4.640   0.910   2.153
 3160SOL    HW1 9502   4.703   0.948   2.085
 3160SOL    HW2 9503   4.680   0.827   2.192
 3161SOL     OW 9504   4.096   1.288   3.352
 3161SOL    HW1 9505   4.083   1.381   3.318
 3161SOL    HW2 9506   4.012   1.236   3.339
 3162SOL     OW 9507   4.763   1.098   2.558
 3162SOL    HW1 9508   4.693   1.051   2.612
 3162SOL    HW2 9509   4.822   1.030   2.515
 3163SOL     OW 9510   4.738   0.236   2.833
 3163SOL    HW1 9511   4.730   0.200   2.740
 3163SOL    HW2 9512   4.736   0.160   2.898
 3164SOL     OW 9513   4.314   1.487   2.353
 3164SOL    HW1 9514   4.356   1.429   2.283
 3164SOL    HW2 9515   4.270   1.566   2.309
 3165SOL     OW 9516   3.979   1.348   2.152
 3165SOL    HW1 9517   3.883   1.349   2.125
 3165SOL    HW2 9518   3.991   1.401   2.236
 3166SOL     OW 9519   3.829   1.013   3.588
 3166SOL    HW1 9520   3.752   0.980   3.642
 3166SOL    HW2 9521   3.914   0.983   3.630
 3167SOL     OW 9522   4.396   0.203   3.351
 3167SOL    HW1 9523   4.486   0.187   3.311
 3167SOL    HW2 9524   4.404   0.208   3.450
 3168SOL     OW 9525   3.799   0.345   1.895
 3168SOL    HW1 9526   3.707   0.317   1.866
 3168SOL    HW2 9527   3.830   0.422   1.839
 3169SOL     OW 9528   3.796   0.166   2.180
 3169SOL    HW1 9529   3.779   0.249   2.126
 3169SOL    HW2 9530   3.886   0.129   2.158
 3170SOL     OW 9531   4.337   0.842   3.293
 3170SOL    HW1 9532   4.393   0.923   3.276
 3170SOL    HW2 9533   4.396   0.762   3.296
 3171SOL     OW 9534   4.440   0.565   3.570
 3171SOL    HW1 9535   4.459   0.630   3.644
 3171SOL    HW2 9536   4.500   0.485   3.579
 3172SOL     OW 9537   4.114   1.741   3.422
 3172SOL    HW1 9538   4.023   1.782   3.420
 3172SOL    HW2 9539   4.107   1.647   3.454
 3173SOL     OW 9540   4.318   0.745   2.514
 3173SOL    HW1 9541   4.368   0.830   2.495
 3173SOL    HW2 9542   4.230   0.747   2.466
 3174SOL     OW 9543   4.583   1.374   1.878
 3174SOL    HW1 9544   4.537   1.389   1.966
 3174SOL    HW2 9545   4.627   1.459   1.848
 3175SOL     OW 9546   4.385   1.790   2.815
 3175SOL    HW1 9547   4.339   1.878   2.802
 3175SOL    HW2 9548   4.484   1.802   2.808
 3176SOL     OW 9549   4.583   0.956   2.723
 3176SOL    HW1 9550   4.637   0.887   2.771
 3176SOL    HW2 9551   4.551   1.025   2.789
 3177SOL     OW 9552   4.807   0.984   1.949
 3177SOL    HW1 9553   4.784   1.037   1.867
 3177SOL    HW2 9554   4.888   0.928   1.930
 3178SOL     OW 9555   3.945   1.314   3.706
 3178SOL    HW1 9556   3.880   1.241   3.685
 3178SOL    HW2 9557   3.949   1.328   3.804
 3179SOL     OW 9558   3.803   1.240   2.515
 3179SOL    HW1 9559   3.802   1.193   2.603
 3179SOL    HW2 9560   3.885   1.212   2.464
 3180SOL     OW 9561   4.396   1.391   3.486
 3180SOL    HW1 9562   4.318   1.341   3.524
 3180SOL    HW2 9563   4.393   1.486   3.517
 3181SOL     OW 9564   4.152   0.424   2.382
 3181SOL    HW1 9565   4.182   0.352   2.320
 3181SOL    HW2 9566   4.113   0.384   2.465
 3182SOL     OW 9567   4.041   0.547   3.142
 3182SOL    HW1 9568   4.079   0.488   3.214
 3182SOL    HW2 9569   4.081   0.521   3.054
 3183SOL     OW 9570   4.536   1.586   2.549
 3183SOL    HW1 9571   4.568   1.596   2.455
 3183SOL    HW2 9572   4.457   1.524   2.551
 3184SOL     OW 9573   4.725   0.034   3.016
 3184SOL    HW1 9574   4.662  -0.038   2.985
 3184SOL    HW2 9575   4.818  -0.002   3.016
 3185SOL     OW 9576   4.494   1.330   2.163
 3185SOL    HW1 9577   4.448   1.243   2.180
 3185SOL    HW2 9578   4.585   1.327   2.204
 3186SOL     OW 9579   4.342   1.567   3.146
 3186SOL    HW1 9580   4.337   1.649   3.203
 3186SOL    HW2 9581   4.431   1.564   3.101
 3187SOL     OW 9582   3.763   1.077   2.162
 3187SOL    HW1 9583   3.862   1.066   2.153
 3187SOL    HW2 9584   3.723   0.991   2.194
 3188SOL     OW 9585   4.599   1.646   2.199
 3188SOL    HW1 9586   4.522   1.611   2.145
 3188SOL    HW2 9587   4.567   1.717   2.261
 3189SOL     OW 9588   3.954   0.628   3.837
 3189SOL    HW1 9589   3.861   0.626   3.874
 3189SOL    HW2 9590   3.955   0.589   3.745
 3190SOL     OW 9591   3.949   0.275   4.720
 3190SOL    HW1 9592   3.984   0.258   4.812
 3190SOL    HW2 9593   3.861   0.230   4.708
 3191SOL     OW 9594   3.743   0.368   4.371
 3191SOL    HW1 9595   3.661   0.411   4.410
 3191SOL    HW2 9596   3.715   0.295   4.308
 3192SOL     OW 9597   4.492   1.144   4.747
 3192SOL    HW1 9598   4.414   1.161   4.807
 3192SOL    HW2 9599   4.526   1.231   4.711
 3193SOL     OW 9600   4.409   1.012   4.389
 3193SOL    HW1 9601   4.478   0.996   4.459
 3193SOL    HW2 9602   4.336   1.069   4.427
 3194SOL     OW 9603   4.059   1.435   4.785
 3194SOL    HW1 9604   3.981   1.404   4.732
 3194SOL    HW2 9605   4.117   1.493   4.728
 3195SOL     OW 9606   3.955   1.713   4.207
 3195SOL    HW1 9607   3.989   1.790   4.261
 3195SOL    HW2 9608   3.999   1.713   4.117
 3196SOL     OW 9609   3.954   1.434   4.262
 3196SOL    HW1 9610   3.928   1.530   4.262
 3196SOL    HW2 9611   3.883   1.380   4.307
 3197SOL     OW 9612   3.964   1.091   4.610
 3197SOL    HW1 9613   3.978   1.007   4.662
 3197SOL    HW2 9614   3.909   1.155   4.665
 3198SOL     OW 9615   4.330   0.964   3.847
 3198SOL    HW1 9616   4.337   1.048   3.793
 3198SOL    HW2 9617   4.376   0.977   3.935
 3199SOL     OW 9618   3.846   0.643   4.287
 3199SOL    HW1 9619   3.801   0.555   4.304
 3199SOL    HW2 9620   3.845   0.697   4.371
 3200SOL     OW 9621   3.751   1.596   3.841
 3200SOL    HW1 9622   3.732   1.500   3.862
 3200SOL    HW2 9623   3.718   1.654   3.916
 3201SOL     OW 9624   4.337   1.365   4.450
 3201SOL    HW1 9625   4.288   1.278   4.459
 3201SOL    HW2 9626   4.314   1.408   4.363
 3202SOL     OW 9627   4.533   0.004   4.226
 3202SOL    HW1 9628   4.573   0.095   4.217
 3202SOL    HW2 9629   4.433   0.012   4.232
 3203SOL     OW 9630   3.921   0.976   4.988
 3203SOL    HW1 9631   4.010   0.931   4.974
 3203SOL    HW2 9632   3.848   0.911   4.969
 3204SOL     OW 9633   4.322   0.729   3.994
 3204SOL    HW1 9634   4.346   0.798   3.926
 3204SOL    HW2 9635   4.244   0.762   4.048
 3205SOL     OW 9636   4.765   0.701   4.153
 3205SOL    HW1 9637   4.791   0.697   4.249
 3205SOL    HW2 9638   4.680   0.650   4.139
 3206SOL     OW 9639   3.800   0.811   4.513
 3206SOL    HW1 9640   3.899   0.799   4.522
 3206SOL    HW2 9641   3.776   0.906   4.534
 3207SOL     OW 9642   4.589   0.348   3.919
 3207SOL    HW1 9643   4.648   0.411   3.870
 3207SOL    HW2 9644   4.608   0.254   3.890
 3208SOL     OW 9645   4.274   0.196   4.609
 3208SOL    HW1 9646   4.269   0.191   4.709
 3208SOL    HW2 9647   4.276   0.292   4.580
 3209SOL     OW 9648   4.732   1.456   4.201
 3209SOL    HW1 9649   4.686   1.528   4.149
 3209SOL    HW2 9650   4.728   1.476   4.299
 3210SOL     OW 9651   4.075   1.801   4.577
 3210SOL    HW1 9652   4.125   1.715   4.583
 3210SOL    HW2 9653   4.140   1.878   4.574
 3211SOL     OW 9654   4.045   0.943   3.966
 3211SOL    HW1 9655   4.127   0.982   3.924
 3211SOL    HW2 9656   4.018   0.861   3.917
 3212SOL     OW 9657   4.188   1.743   4.047
 3212SOL    HW1 9658   4.221   1.782   4.133
 3212SOL    HW2 9659   4.264   1.736   3.982
 3213SOL     OW 9660   3.973   1.785   4.965
 3213SOL    HW1 9661   4.030   1.720   5.015
 3213SOL    HW2 9662   3.957   1.752   4.872
 3214SOL     OW 9663   4.664   1.698   4.628
 3214SOL    HW1 9664   4.744   1.641   4.649
 3214SOL    HW2 9665   4.615   1.658   4.551
 3215SOL     OW 9666   4.106   0.700   4.204
 3215SOL    HW1 9667   4.151   0.610   4.201
 3215SOL    HW2 9668   4.012   0.689   4.237
 3216SOL     OW 9669   4.338   0.122   3.841
 3216SOL    HW1 9670   4.436   0.100   3.848
 3216SOL    HW2 9671   4.307   0.105   3.748
 3217SOL     OW 9672   4.527   1.402   4.648
 3217SOL    HW1 9673   4.617   1.416   4.606
 3217SOL    HW2 9674   4.456   1.404   4.577
 3218SOL     OW 9675   4.646   0.503   4.623
 3218SOL    HW1 9676   4.621   0.494   4.527
 3218SOL    HW2 9677   4.694   0.421   4.654
 3219SOL     OW 9678   4.263   0.064   4.236
 3219SOL    HW1 9679   4.182   0.065   4.294
 3219SOL    HW2 9680   4.266   0.147   4.181
 3220SOL     OW 9681   4.021   0.035   3.895
 3220SOL    HW1 9682   4.070   0.119   3.874
 3220SOL    HW2 9683   4.083  -0.030   3.940
 3221SOL     OW 9684   4.659   0.236   4.204
 3221SOL    HW1 9685   4.611   0.277   4.126
 3221SOL    HW2 9686   4.758   0.234   4.185
 3222SOL     OW 9687   4.951   1.570   4.517
 3222SOL    HW1 9688   4.972   1.644   4.452
 3222SOL    HW2 9689   5.019   1.570   4.590
 3223SOL     OW 9690   4.183   1.152   4.465
 3223SOL    HW1 9691   4.112   1.125   4.530
 3223SOL    HW2 9692   4.157   1.124   4.372
 3224SOL     OW 9693   4.995   1.797   4.315
 3224SOL    HW1 9694   5.039   1.861   4.251
 3224SOL    HW2 9695   4.945   1.849   4.385
 3225SOL     OW 9696   4.756   0.549   3.740
 3225SOL    HW1 9697   4.715   0.631   3.701
 3225SOL    HW2 9698   4.820   0.575   3.813
 3226SOL     OW 9699   4.590   0.454   4.366
 3226SOL    HW1 9700   4.558   0.526   4.304
 3226SOL    HW2 9701   4.614   0.373   4.313
 3227SOL     OW 9702   4.741   0.039   4.477
 3227SOL    HW1 9703   4.669   0.044   4.408
 3227SOL    HW2 9704   4.717  -0.030   4.546
 3228SOL     OW 9705   4.212   1.385   3.898
 3228SOL    HW1 9706   4.125   1.370   3.945
 3228SOL    HW2 9707   4.195   1.411   3.803
 3229SOL     OW 9708   4.251   0.256   4.052
 3229SOL    HW1 9709   4.278   0.197   3.977
 3229SOL    HW2 9710   4.251   0.351   4.021
 3230SOL     OW 9711   4.429   1.050   4.092
 3230SOL    HW1 9712   4.415   1.057   4.191
 3230SOL    HW2 9713   4.513   0.999   4.074
 3231SOL     OW 9714   4.134   0.813   4.975
 3231SOL    HW1 9715   4.220   0.825   5.025
 3231SOL    HW2 9716   4.092   0.726   5.002
 3232SOL     OW 9717   4.091   1.100   4.225
 3232SOL    HW1 9718   4.084   1.183   4.169
 3232SOL    HW2 9719   4.095   1.020   4.165
 3233SOL     OW 9720   4.290   0.537   4.589
 3233SOL    HW1 9721   4.302   0.603   4.515
 3233SOL    HW2 9722   4.336   0.571   4.672
 3234SOL     OW 9723   4.078   1.510   5.053
 3234SOL    HW1 9724   4.057   1.466   4.966
 3234SOL    HW2 9725   4.175   1.536   5.056
 3235SOL     OW 9726   4.297   0.870   4.753
 3235SOL    HW1 9727   4.341   0.959   4.744
 3235SOL    HW2 9728   4.234   0.870   4.830
 3236SOL     OW 9729   4.933   0.525   3.999
 3236SOL    HW1 9730   4.946   0.441   4.053
 3236SOL    HW2 9731   4.904   0.599   4.059
 3237SOL     OW 9732   4.456   0.634   4.788
 3237SOL    HW1 9733   4.515   0.608   4.712
 3237SOL    HW2 9734   4.428   0.730   4.777
 3238SOL     OW 9735   4.031   0.063   4.342
 3238SOL    HW1 9736   4.020   0.157   4.375
 3238SOL    HW2 9737   4.026   0.000   4.419
 3239SOL     OW 9738   4.747   0.766   4.690
 3239SOL    HW1 9739   4.762   0.787   4.786
 3239SOL    HW2 9740   4.717   0.671   4.681
 3240SOL     OW 9741   4.792   1.333   4.573
 3240SOL    HW1 9742   4.799   1.249   4.518
 3240SOL    HW2 9743   4.854   1.402   4.537
 3241SOL     OW 9744   4.043   0.810   4.673
 3241SOL    HW1 9745   4.136   0.846   4.678
 3241SOL    HW2 9746   4.037   0.725   4.725
 3242SOL     OW 9747   4.063   0.509   4.730
 3242SOL    HW1 9748   4.011   0.426   4.713
 3242SOL    HW2 9749   4.140   0.514   4.666
 3243SOL     OW 9750   3.732   1.326   3.924
 3243SOL    HW1 9751   3.639   1.347   3.893
 3243SOL    HW2 9752   3.742   1.227   3.937
 3244SOL     OW 9753   3.812   1.801   4.651
 3244SOL    HW1 9754   3.770   1.715   4.624
 3244SOL    HW2 9755   3.906   1.804   4.617
 3245SOL     OW 9756   4.228   1.568   4.634
 3245SOL    HW1 9757   4.294   1.642   4.643
 3245SOL    HW2 9758   4.272   1.489   4.592
 3246SOL     OW 9759   4.726   0.796   4.962
 3246SOL    HW1 9760   4.767   0.764   5.048
 3246SOL    HW2 9761   4.630   0.769   4.959
 3247SOL     OW 9762   3.764   0.544   4.838
 3247SOL    HW1 9763   3.849   0.511   4.797
 3247SOL    HW2 9764   3.777   0.559   4.936
 3248SOL     OW 9765   4.539   0.572   4.049
 3248SOL    HW1 9766   4.546   0.483   4.003
 3248SOL    HW2 9767   4.445   0.606   4.041
 3249SOL     OW 9768   4.395   0.464   4.993
 3249SOL    HW1 9769   4.361   0.375   4.963
 3249SOL    HW2 9770   4.421   0.518   4.913
 3250SOL     OW 9771   4.197   0.500   3.915
 3250SOL    HW1 9772   4.258   0.580   3.919
 3250SOL    HW2 9773   4.102   0.531   3.922
 3251SOL     OW 9774   5.026   0.855   4.033
 3251SOL    HW1 9775   4.940   0.824   4.075
 3251SOL    HW2 9776   5.022   0.841   3.934
 3252SOL     OW 9777   3.807   1.258   4.746
 3252SOL    HW1 9778   3.802   1.257   4.846
 3252SOL    HW2 9779   3.724   1.217   4.708
 3253SOL     OW 9780   4.396   1.616   3.878
 3253SOL    HW1 9781   4.405   1.626   3.779
 3253SOL    HW2 9782   4.356   1.527   3.899
 3254SOL     OW 9783   3.987   0.326   4.444
 3254SOL    HW1 9784   3.908   0.377   4.410
 3254SOL    HW2 9785   3.978   0.311   4.542
 3255SOL     OW 9786   4.640   0.910   4.015
 3255SOL    HW1 9787   4.703   0.948   3.947
 3255SOL    HW2 9788   4.680   0.827   4.054
 3256SOL     OW 9789   4.763   1.098   4.420
 3256SOL    HW1 9790   4.693   1.051   4.474
 3256SOL    HW2 9791   4.822   1.030   4.377
 3257SOL     OW 9792   4.738   0.236   4.695
 3257SOL    HW1 9793   4.730   0.200   4.602
 3257SOL    HW2 9794   4.736   0.160   4.760
 3258SOL     OW 9795   4.314   1.487   4.215
 3258SOL    HW1 9796   4.356   1.429   4.145
 3258SOL    HW2 9797   4.270   1.566   4.171
 3259SOL     OW 9798   3.979   1.348   4.014
 3259SOL    HW1 9799   3.883   1.349   3.987
 3259SOL    HW2 9800   3.991   1.401   4.098
 3260SOL     OW 9801   3.799   0.345   3.757
 3260SOL    HW1 9802   3.707   0.317   3.728
 3260SOL    HW2 9803   3.830   0.422   3.701
 3261SOL     OW 9804   3.796   0.166   4.042
 3261SOL    HW1 9805   3.779   0.249   3.988
 3261SOL    HW2 9806   3.886   0.129   4.020
 3262SOL     OW 9807   4.318   0.745   4.376
 3262SOL    HW1 9808   4.368   0.830   4.357
 3262SOL    HW2 9809   4.230   0.747   4.328
 3263SOL     OW 9810   4.583   1.374   3.740
 3263SOL    HW1 9811   4.537   1.389   3.828
 3263SOL    HW2 9812   4.627   1.459   3.710
 3264SOL     OW 9813   4.385   1.790   4.677
 3264SOL    HW1 9814   4.339   1.878   4.664
 3264SOL    HW2 9815   4.484   1.802   4.670
 3265SOL     OW 9816   4.583   0.956   4.585
 3265SOL    HW1 9817   4.637   0.887   4.633
 3265SOL    HW2 9818   4.551   1.025   4.651
 3266SOL     OW 9819   4.807   0.984   3.811
 3266SOL    HW1 9820   4.784   1.037   3.729
 3266SOL    HW2 9821   4.888   0.928   3.792
 3267SOL     OW 9822   3.803   1.240   4.377
 3267SOL    HW1 9823   3.802   1.193   4.465
 3267SOL    HW2 9824   3.885   1.212   4.326
 3268SOL     OW 9825   4.152   0.424   4.244
 3268SOL    HW1 9826   4.182   0.352   4.182
 3268SOL    HW2 9827   4.113   0.384   4.327
 3269SOL     OW 9828   4.536   1.586   4.411
 3269SOL    HW1 9829   4.568   1.596   4.317
 3269SOL    HW2 9830   4.457   1.524   4.413
 3270SOL     OW 9831   4.494   1.330   4.025
 3270SOL    HW1 9832   4.448   1.243   4.042
 3270SOL    HW2 9833   4.585   1.327   4.066
 3271SOL     OW 9834   3.763   1.077   4.024
 3271SOL    HW1 9835   3.862   1.066   4.015
 3271SOL    HW2 9836   3.723   0.991   4.056
 3272SOL     OW 9837   4.599   1.646   4.061
 3272SOL    HW1 9838   4.522   1.611   4.007
 3272SOL    HW2 9839   4.567   1.717   4.123
 3273SOL     OW 9840   3.954   2.490   0.113
 3273SOL    HW1 9841   3.861   2.488   0.150
 3273SOL    HW2 9842   3.955   2.451   0.021
 3274SOL     OW 9843   3.949   2.137   0.996
 3274SOL    HW1 9844   3.984   2.120   1.088
 3274SOL    HW2 9845   3.861   2.092   0.984
 3275SOL     OW 9846   3.743   2.230   0.647
 3275SOL    HW1 9847   3.661   2.273   0.686
 3275SOL    HW2 9848   3.715   2.157   0.584
 3276SOL     OW 9849   4.293   3.137   1.165
 3276SOL    HW1 9850   4.200   3.130   1.128
 3276SOL    HW2 9851   4.304   3.226   1.209
 3277SOL     OW 9852   4.492   3.006   1.023
 3277SOL    HW1 9853   4.414   3.023   1.083
 3277SOL    HW2 9854   4.526   3.093   0.987
 3278SOL     OW 9855   4.574   2.660   1.823
 3278SOL    HW1 9856   4.570   2.736   1.888
 3278SOL    HW2 9857   4.596   2.696   1.732
 3279SOL     OW 9858   4.409   2.874   0.665
 3279SOL    HW1 9859   4.478   2.858   0.735
 3279SOL    HW2 9860   4.336   2.931   0.703
 3280SOL     OW 9861   4.410   3.023   1.803
 3280SOL    HW1 9862   4.470   3.102   1.817
 3280SOL    HW2 9863   4.324   3.054   1.762
 3281SOL     OW 9864   4.059   3.297   1.061
 3281SOL    HW1 9865   3.981   3.266   1.008
 3281SOL    HW2 9866   4.117   3.355   1.004
 3282SOL     OW 9867   4.162   2.254   1.499
 3282SOL    HW1 9868   4.244   2.198   1.508
 3282SOL    HW2 9869   4.081   2.196   1.503
 3283SOL     OW 9870   3.955   3.575   0.483
 3283SOL    HW1 9871   3.989   3.652   0.537
 3283SOL    HW2 9872   3.999   3.575   0.393
 3284SOL     OW 9873   4.851   3.203   1.690
 3284SOL    HW1 9874   4.898   3.203   1.778
 3284SOL    HW2 9875   4.803   3.116   1.679
 3285SOL     OW 9876   3.954   3.296   0.538
 3285SOL    HW1 9877   3.928   3.392   0.538
 3285SOL    HW2 9878   3.883   3.242   0.583
 3286SOL     OW 9879   3.964   2.953   0.886
 3286SOL    HW1 9880   3.978   2.869   0.938
 3286SOL    HW2 9881   3.909   3.017   0.941
 3287SOL     OW 9882   4.344   3.648   1.439
 3287SOL    HW1 9883   4.252   3.631   1.474
 3287SOL    HW2 9884   4.372   3.740   1.465
 3288SOL     OW 9885   4.330   2.826   0.123
 3288SOL    HW1 9886   4.337   2.910   0.069
 3288SOL    HW2 9887   4.376   2.839   0.211
 3289SOL     OW 9888   3.846   2.505   0.563
 3289SOL    HW1 9889   3.801   2.417   0.580
 3289SOL    HW2 9890   3.845   2.559   0.647
 3290SOL     OW 9891   3.751   3.458   0.117
 3290SOL    HW1 9892   3.732   3.362   0.138
 3290SOL    HW2 9893   3.718   3.516   0.192
 3291SOL     OW 9894   3.837   2.599   1.597
 3291SOL    HW1 9895   3.925   2.586   1.642
 3291SOL    HW2 9896   3.824   2.696   1.575
 3292SOL     OW 9897   4.337   3.227   0.726
 3292SOL    HW1 9898   4.288   3.140   0.735
 3292SOL    HW2 9899   4.314   3.270   0.639
 3293SOL     OW 9900   4.533   1.866   0.502
 3293SOL    HW1 9901   4.573   1.957   0.493
 3293SOL    HW2 9902   4.433   1.874   0.508
 3294SOL     OW 9903   3.921   2.838   1.264
 3294SOL    HW1 9904   4.010   2.793   1.250
 3294SOL    HW2 9905   3.848   2.773   1.245
 3295SOL     OW 9906   4.041   2.113   1.801
 3295SOL    HW1 9907   4.112   2.184   1.807
 3295SOL    HW2 9908   3.953   2.152   1.829
 3296SOL     OW 9909   4.322   2.591   0.270
 3296SOL    HW1 9910   4.346   2.660   0.202
 3296SOL    HW2 9911   4.244   2.624   0.324
 3297SOL     OW 9912   4.531   2.467   1.465
 3297SOL    HW1 9913   4.484   2.464   1.554
 3297SOL    HW2 9914   4.480   2.412   1.399
 3298SOL     OW 9915   4.697   2.752   1.572
 3298SOL    HW1 9916   4.743   2.668   1.543
 3298SOL    HW2 9917   4.641   2.786   1.497
 3299SOL     OW 9918   4.715   2.272   1.242
 3299SOL    HW1 9919   4.638   2.306   1.296
 3299SOL    HW2 9920   4.681   2.221   1.163
 3300SOL     OW 9921   4.765   2.563   0.429
 3300SOL    HW1 9922   4.791   2.559   0.525
 3300SOL    HW2 9923   4.680   2.512   0.415
 3301SOL     OW 9924   3.800   2.673   0.789
 3301SOL    HW1 9925   3.899   2.661   0.798
 3301SOL    HW2 9926   3.776   2.768   0.810
 3302SOL     OW 9927   3.854   3.683   1.571
 3302SOL    HW1 9928   3.844   3.668   1.670
 3302SOL    HW2 9929   3.768   3.719   1.535
 3303SOL     OW 9930   4.589   2.210   0.195
 3303SOL    HW1 9931   4.648   2.273   0.146
 3303SOL    HW2 9932   4.608   2.116   0.166
 3304SOL     OW 9933   4.274   2.058   0.885
 3304SOL    HW1 9934   4.269   2.053   0.985
 3304SOL    HW2 9935   4.276   2.154   0.856
 3305SOL     OW 9936   4.732   3.318   0.477
 3305SOL    HW1 9937   4.686   3.390   0.425
 3305SOL    HW2 9938   4.728   3.338   0.575
 3306SOL     OW 9939   4.075   3.663   0.853
 3306SOL    HW1 9940   4.125   3.577   0.859
 3306SOL    HW2 9941   4.140   3.740   0.850
 3307SOL     OW 9942   4.045   2.805   0.242
 3307SOL    HW1 9943   4.127   2.844   0.200
 3307SOL    HW2 9944   4.018   2.723   0.193
 3308SOL     OW 9945   4.185   3.128   1.727
 3308SOL    HW1 9946   4.135   3.129   1.641
 3308SOL    HW2 9947   4.122   3.110   1.803
 3309SOL     OW 9948   3.926   2.147   1.498
 3309SOL    HW1 9949   3.846   2.207   1.485
 3309SOL    HW2 9950   3.916   2.098   1.584
 3310SOL     OW 9951   4.188   3.605   0.323
 3310SOL    HW1 9952   4.221   3.644   0.409
 3310SOL    HW2 9953   4.264   3.598   0.258
 3311SOL     OW 9954   3.973   3.647   1.241
 3311SOL    HW1 9955   4.030   3.582   1.291
 3311SOL    HW2 9956   3.957   3.614   1.148
 3312SOL     OW 9957   4.664   3.560   0.904
 3312SOL    HW1 9958   4.744   3.503   0.925
 3312SOL    HW2 9959   4.615   3.520   0.827
 3313SOL     OW 9960   4.106   2.562   0.480
 3313SOL    HW1 9961   4.151   2.472   0.477
 3313SOL    HW2 9962   4.012   2.551   0.513
 3314SOL     OW 9963   4.338   1.984   0.117
 3314SOL    HW1 9964   4.436   1.962   0.124
 3314SOL    HW2 9965   4.307   1.967   0.024
 3315SOL     OW 9966   4.505   2.126   1.749
 3315SOL    HW1 9967   4.572   2.065   1.792
 3315SOL    HW2 9968   4.432   2.145   1.814
 3316SOL     OW 9969   4.612   3.376   1.195
 3316SOL    HW1 9970   4.589   3.351   1.101
 3316SOL    HW2 9971   4.673   3.307   1.234
 3317SOL     OW 9972   4.527   3.264   0.924
 3317SOL    HW1 9973   4.617   3.278   0.882
 3317SOL    HW2 9974   4.456   3.266   0.853
 3318SOL     OW 9975   4.646   2.365   0.899
 3318SOL    HW1 9976   4.621   2.356   0.803
 3318SOL    HW2 9977   4.694   2.283   0.930
 3319SOL     OW 9978   4.263   1.926   0.512
 3319SOL    HW1 9979   4.182   1.927   0.570
 3319SOL    HW2 9980   4.266   2.009   0.457
 3320SOL     OW 9981   5.158   3.050   0.041
 3320SOL    HW1 9982   5.190   2.974   0.098
 3320SOL    HW2 9983   5.066   3.077   0.071
 3321SOL     OW 9984   4.659   2.098   0.480
 3321SOL    HW1 9985   4.611   2.139   0.402
 3321SOL    HW2 9986   4.758   2.096   0.461
 3322SOL     OW 9987   4.951   3.432   0.793
 3322SOL    HW1 9988   4.972   3.506   0.728
 3322SOL    HW2 9989   5.019   3.432   0.866
 3323SOL     OW 9990   4.183   3.014   0.741
 3323SOL    HW1 9991   4.112   2.987   0.806
 3323SOL    HW2 9992   4.157   2.986   0.648
 3324SOL     OW 9993   4.995   3.659   0.591
 3324SOL    HW1 9994   5.039   3.723   0.527
 3324SOL    HW2 9995   4.945   3.711   0.661
 3325SOL     OW 9996   4.756   2.411   0.016
 3325SOL    HW1 9997   4.715   2.493  -0.023
 3325SOL    HW2 9998   4.820   2.437   0.089
 3326SOL     OW 9999   3.802   2.418   1.386
 3326SOL    HW110000   3.894   2.417   1.345
 3326SOL    HW210001   3.796   2.492   1.453
 3327SOL     OW10002   4.285   2.084   1.147
 3327SOL    HW110003   4.323   2.000   1.184
 3327SOL    HW210004   4.197   2.103   1.191
 3328SOL     OW10005   4.590   2.316   0.642
 3328SOL    HW110006   4.558   2.388   0.580
 3328SOL    HW210007   4.614   2.235   0.589
 3329SOL     OW10008   4.741   1.901   0.753
 3329SOL    HW110009   4.669   1.906   0.684
 3329SOL    HW210010   4.717   1.832   0.822
 3330SOL     OW10011   4.212   3.247   0.174
 3330SOL    HW110012   4.125   3.232   0.221
 3330SOL    HW210013   4.195   3.273   0.079
 3331SOL     OW10014   4.251   2.118   0.328
 3331SOL    HW110015   4.278   2.059   0.253
 3331SOL    HW210016   4.251   2.213   0.297
 3332SOL     OW10017   4.639   1.951   1.402
 3332SOL    HW110018   4.664   1.931   1.307
 3332SOL    HW210019   4.711   2.007   1.444
 3333SOL     OW10020   4.704   2.978   1.719
 3333SOL    HW110021   4.605   2.984   1.729
 3333SOL    HW210022   4.727   2.898   1.663
 3334SOL     OW10023   4.429   2.912   0.368
 3334SOL    HW110024   4.415   2.919   0.467
 3334SOL    HW210025   4.513   2.861   0.350
 3335SOL     OW10026   4.134   2.675   1.251
 3335SOL    HW110027   4.220   2.687   1.301
 3335SOL    HW210028   4.092   2.588   1.278
 3336SOL     OW10029   3.788   3.426   1.331
 3336SOL    HW110030   3.742   3.508   1.297
 3336SOL    HW210031   3.886   3.445   1.340
 3337SOL     OW10032   4.091   2.962   0.501
 3337SOL    HW110033   4.084   3.045   0.445
 3337SOL    HW210034   4.095   2.882   0.441
 3338SOL     OW10035   4.290   2.399   0.865
 3338SOL    HW110036   4.302   2.465   0.791
 3338SOL    HW210037   4.336   2.433   0.948
 3339SOL     OW10038   4.078   3.372   1.329
 3339SOL    HW110039   4.057   3.328   1.242
 3339SOL    HW210040   4.175   3.398   1.332
 3340SOL     OW10041   4.126   2.613   1.598
 3340SOL    HW110042   4.194   2.668   1.551
 3340SOL    HW210043   4.166   2.525   1.625
 3341SOL     OW10044   4.737   1.967   1.770
 3341SOL    HW110045   4.743   2.052   1.718
 3341SOL    HW210046   4.769   1.891   1.713
 3342SOL     OW10047   4.228   1.912   1.740
 3342SOL    HW110048   4.186   1.855   1.670
 3342SOL    HW210049   4.162   1.981   1.772
 3343SOL     OW10050   4.297   2.732   1.029
 3343SOL    HW110051   4.341   2.821   1.020
 3343SOL    HW210052   4.234   2.732   1.106
 3344SOL     OW10053   4.933   2.387   0.275
 3344SOL    HW110054   4.946   2.303   0.329
 3344SOL    HW210055   4.904   2.461   0.335
 3345SOL     OW10056   4.031   2.075   1.231
 3345SOL    HW110057   4.008   2.112   1.321
 3345SOL    HW210058   4.001   1.980   1.225
 3346SOL     OW10059   3.761   3.172   1.282
 3346SOL    HW110060   3.814   3.123   1.350
 3346SOL    HW210061   3.783   3.270   1.287
 3347SOL     OW10062   4.456   2.496   1.064
 3347SOL    HW110063   4.515   2.470   0.988
 3347SOL    HW210064   4.428   2.592   1.053
 3348SOL     OW10065   4.031   1.925   0.618
 3348SOL    HW110066   4.020   2.019   0.651
 3348SOL    HW210067   4.026   1.862   0.695
 3349SOL     OW10068   4.747   2.628   0.966
 3349SOL    HW110069   4.762   2.649   1.062
 3349SOL    HW210070   4.717   2.533   0.957
 3350SOL     OW10071   4.704   3.435   1.700
 3350SOL    HW110072   4.684   3.479   1.612
 3350SOL    HW210073   4.743   3.344   1.684
 3351SOL     OW10074   4.074   2.760   1.804
 3351SOL    HW110075   4.150   2.804   1.852
 3351SOL    HW210076   4.109   2.713   1.722
 3352SOL     OW10077   4.792   3.195   0.849
 3352SOL    HW110078   4.799   3.111   0.794
 3352SOL    HW210079   4.854   3.264   0.813
 3353SOL     OW10080   4.043   2.672   0.949
 3353SOL    HW110081   4.136   2.708   0.954
 3353SOL    HW210082   4.037   2.587   1.001
 3354SOL     OW10083   4.063   2.371   1.006
 3354SOL    HW110084   4.011   2.288   0.989
 3354SOL    HW210085   4.140   2.376   0.942
 3355SOL     OW10086   4.862   2.242   1.678
 3355SOL    HW110087   4.817   2.305   1.742
 3355SOL    HW210088   4.955   2.273   1.661
 3356SOL     OW10089   4.884   2.069   1.477
 3356SOL    HW110090   4.884   2.133   1.554
 3356SOL    HW210091   4.912   2.117   1.394
 3357SOL     OW10092   3.732   3.188   0.200
 3357SOL    HW110093   3.639   3.209   0.169
 3357SOL    HW210094   3.742   3.089   0.213
 3358SOL     OW10095   3.812   3.663   0.927
 3358SOL    HW110096   3.770   3.577   0.900
 3358SOL    HW210097   3.906   3.666   0.893
 3359SOL     OW10098   4.228   3.430   0.910
 3359SOL    HW110099   4.294   3.504   0.919
 3359SOL    HW210100   4.272   3.351   0.868
 3360SOL     OW10101   4.726   2.658   1.238
 3360SOL    HW110102   4.767   2.626   1.324
 3360SOL    HW210103   4.630   2.631   1.235
 3361SOL     OW10104   3.764   2.406   1.114
 3361SOL    HW110105   3.849   2.373   1.073
 3361SOL    HW210106   3.777   2.421   1.212
 3362SOL     OW10107   3.913   2.382   1.722
 3362SOL    HW110108   3.972   2.342   1.652
 3362SOL    HW210109   3.855   2.453   1.681
 3363SOL     OW10110   4.539   2.434   0.325
 3363SOL    HW110111   4.546   2.345   0.279
 3363SOL    HW210112   4.445   2.468   0.317
 3364SOL     OW10113   3.976   3.426   1.744
 3364SOL    HW110114   3.946   3.483   1.820
 3364SOL    HW210115   3.969   3.329   1.770
 3365SOL     OW10116   4.395   2.326   1.269
 3365SOL    HW110117   4.361   2.237   1.239
 3365SOL    HW210118   4.421   2.380   1.189
 3366SOL     OW10119   4.654   3.540   1.465
 3366SOL    HW110120   4.630   3.522   1.370
 3366SOL    HW210121   4.684   3.634   1.475
 3367SOL     OW10122   4.197   2.362   0.191
 3367SOL    HW110123   4.258   2.442   0.195
 3367SOL    HW210124   4.102   2.393   0.198
 3368SOL     OW10125   3.883   2.999   1.466
 3368SOL    HW110126   3.905   2.938   1.542
 3368SOL    HW210127   3.893   2.950   1.380
 3369SOL     OW10128   5.026   2.717   0.309
 3369SOL    HW110129   4.940   2.686   0.351
 3369SOL    HW210130   5.022   2.703   0.210
 3370SOL     OW10131   3.807   3.120   1.022
 3370SOL    HW110132   3.802   3.119   1.122
 3370SOL    HW210133   3.724   3.079   0.984
 3371SOL     OW10134   4.412   3.524   1.716
 3371SOL    HW110135   4.356   3.605   1.725
 3371SOL    HW210136   4.464   3.528   1.630
 3372SOL     OW10137   4.627   1.948   0.133
 3372SOL    HW110138   4.678   1.949   0.047
 3372SOL    HW210139   4.683   1.906   0.204
 3373SOL     OW10140   3.854   3.656   1.851
 3373SOL    HW110141   3.813   3.582   1.904
 3373SOL    HW210142   3.918   3.707   1.909
 3374SOL     OW10143   4.554   3.135   1.422
 3374SOL    HW110144   4.549   3.168   1.517
 3374SOL    HW210145   4.468   3.154   1.376
 3375SOL     OW10146   4.396   3.478   0.154
 3375SOL    HW110147   4.405   3.488   0.055
 3375SOL    HW210148   4.356   3.389   0.175
 3376SOL     OW10149   3.987   2.188   0.720
 3376SOL    HW110150   3.908   2.239   0.686
 3376SOL    HW210151   3.978   2.173   0.818
 3377SOL     OW10152   4.546   2.864   1.372
 3377SOL    HW110153   4.586   2.863   1.280
 3377SOL    HW210154   4.556   2.956   1.412
 3378SOL     OW10155   4.640   2.772   0.291
 3378SOL    HW110156   4.703   2.810   0.223
 3378SOL    HW210157   4.680   2.689   0.330
 3379SOL     OW10158   4.096   3.150   1.490
 3379SOL    HW110159   4.083   3.243   1.456
 3379SOL    HW210160   4.012   3.098   1.477
 3380SOL     OW10161   4.763   2.960   0.696
 3380SOL    HW110162   4.693   2.913   0.750
 3380SOL    HW210163   4.822   2.892   0.653
 3381SOL     OW10164   4.738   2.098   0.971
 3381SOL    HW110165   4.730   2.062   0.878
 3381SOL    HW210166   4.736   2.022   1.036
 3382SOL     OW10167   4.314   3.349   0.491
 3382SOL    HW110168   4.356   3.291   0.421
 3382SOL    HW210169   4.270   3.428   0.447
 3383SOL     OW10170   3.979   3.210   0.290
 3383SOL    HW110171   3.883   3.211   0.263
 3383SOL    HW210172   3.991   3.263   0.374
 3384SOL     OW10173   3.829   2.875   1.726
 3384SOL    HW110174   3.752   2.842   1.780
 3384SOL    HW210175   3.914   2.845   1.768
 3385SOL     OW10176   4.396   2.065   1.489
 3385SOL    HW110177   4.486   2.049   1.449
 3385SOL    HW210178   4.404   2.070   1.588
 3386SOL     OW10179   3.796   2.028   0.318
 3386SOL    HW110180   3.779   2.111   0.264
 3386SOL    HW210181   3.886   1.991   0.296
 3387SOL     OW10182   4.337   2.704   1.431
 3387SOL    HW110183   4.393   2.785   1.414
 3387SOL    HW210184   4.396   2.624   1.434
 3388SOL     OW10185   4.440   2.427   1.708
 3388SOL    HW110186   4.459   2.492   1.782
 3388SOL    HW210187   4.500   2.347   1.717
 3389SOL     OW10188   4.114   3.603   1.560
 3389SOL    HW110189   4.023   3.644   1.558
 3389SOL    HW210190   4.107   3.509   1.592
 3390SOL     OW10191   4.318   2.607   0.652
 3390SOL    HW110192   4.368   2.692   0.633
 3390SOL    HW210193   4.230   2.609   0.604
 3391SOL     OW10194   4.583   3.236   0.016
 3391SOL    HW110195   4.537   3.251   0.104
 3391SOL    HW210196   4.627   3.321  -0.014
 3392SOL     OW10197   4.385   3.652   0.953
 3392SOL    HW110198   4.339   3.740   0.940
 3392SOL    HW210199   4.484   3.664   0.946
 3393SOL     OW10200   4.583   2.818   0.861
 3393SOL    HW110201   4.637   2.749   0.909
 3393SOL    HW210202   4.551   2.887   0.927
 3394SOL     OW10203   4.807   2.846   0.087
 3394SOL    HW110204   4.784   2.899   0.005
 3394SOL    HW210205   4.888   2.790   0.068
 3395SOL     OW10206   3.945   3.176   1.844
 3395SOL    HW110207   3.880   3.103   1.823
 3395SOL    HW210208   3.949   3.190   1.942
 3396SOL     OW10209   3.803   3.102   0.653
 3396SOL    HW110210   3.802   3.055   0.741
 3396SOL    HW210211   3.885   3.074   0.602
 3397SOL     OW10212   4.396   3.253   1.624
 3397SOL    HW110213   4.318   3.203   1.662
 3397SOL    HW210214   4.393   3.348   1.655
 3398SOL     OW10215   4.152   2.286   0.520
 3398SOL    HW110216   4.182   2.214   0.458
 3398SOL    HW210217   4.113   2.246   0.603
 3399SOL     OW10218   4.041   2.409   1.280
 3399SOL    HW110219   4.079   2.350   1.352
 3399SOL    HW210220   4.081   2.383   1.192
 3400SOL     OW10221   4.536   3.448   0.687
 3400SOL    HW110222   4.568   3.458   0.593
 3400SOL    HW210223   4.457   3.386   0.689
 3401SOL     OW10224   4.725   1.896   1.154
 3401SOL    HW110225   4.662   1.824   1.123
 3401SOL    HW210226   4.818   1.860   1.154
 3402SOL     OW10227   4.494   3.192   0.301
 3402SOL    HW110228   4.448   3.105   0.318
 3402SOL    HW210229   4.585   3.189   0.342
 3403SOL     OW10230   4.342   3.429   1.284
 3403SOL    HW110231   4.337   3.511   1.341
 3403SOL    HW210232   4.431   3.426   1.239
 3404SOL     OW10233   3.763   2.939   0.300
 3404SOL    HW110234   3.862   2.928   0.291
 3404SOL    HW210235   3.723   2.853   0.332
 3405SOL     OW10236   4.599   3.508   0.337
 3405SOL    HW110237   4.522   3.473   0.283
 3405SOL    HW210238   4.567   3.579   0.399
 3406SOL     OW10239   3.954   2.490   1.975
 3406SOL    HW110240   3.861   2.488   2.012
 3406SOL    HW210241   3.955   2.451   1.883
 3407SOL     OW10242   3.949   2.137   2.858
 3407SOL    HW110243   3.984   2.120   2.950
 3407SOL    HW210244   3.861   2.092   2.846
 3408SOL     OW10245   3.743   2.230   2.509
 3408SOL    HW110246   3.661   2.273   2.548
 3408SOL    HW210247   3.715   2.157   2.446
 3409SOL     OW10248   4.293   3.137   3.027
 3409SOL    HW110249   4.200   3.130   2.990
 3409SOL    HW210250   4.304   3.226   3.071
 3410SOL     OW10251   4.492   3.006   2.885
 3410SOL    HW110252   4.414   3.023   2.945
 3410SOL    HW210253   4.526   3.093   2.849
 3411SOL     OW10254   4.574   2.660   3.685
 3411SOL    HW110255   4.570   2.736   3.750
 3411SOL    HW210256   4.596   2.696   3.594
 3412SOL     OW10257   4.409   2.874   2.527
 3412SOL    HW110258   4.478   2.858   2.597
 3412SOL    HW210259   4.336   2.931   2.565
 3413SOL     OW10260   4.410   3.023   3.665
 3413SOL    HW110261   4.470   3.102   3.679
 3413SOL    HW210262   4.324   3.054   3.624
 3414SOL     OW10263   4.059   3.297   2.923
 3414SOL    HW110264   3.981   3.266   2.870
 3414SOL    HW210265   4.117   3.355   2.866
 3415SOL     OW10266   4.162   2.254   3.361
 3415SOL    HW110267   4.244   2.198   3.370
 3415SOL    HW210268   4.081   2.196   3.365
 3416SOL     OW10269   3.955   3.575   2.345
 3416SOL    HW110270   3.989   3.652   2.399
 3416SOL    HW210271   3.999   3.575   2.255
 3417SOL     OW10272   4.851   3.203   3.552
 3417SOL    HW110273   4.898   3.203   3.640
 3417SOL    HW210274   4.803   3.116   3.541
 3418SOL     OW10275   3.954   3.296   2.400
 3418SOL    HW110276   3.928   3.392   2.400
 3418SOL    HW210277   3.883   3.242   2.445
 3419SOL     OW10278   3.964   2.953   2.748
 3419SOL    HW110279   3.978   2.869   2.800
 3419SOL    HW210280   3.909   3.017   2.803
 3420SOL     OW10281   4.344   3.648   3.301
 3420SOL    HW110282   4.252   3.631   3.336
 3420SOL    HW210283   4.372   3.740   3.327
 3421SOL     OW10284   4.330   2.826   1.985
 3421SOL    HW110285   4.337   2.910   1.931
 3421SOL    HW210286   4.376   2.839   2.073
 3422SOL     OW10287   3.846   2.505   2.425
 3422SOL    HW110288   3.801   2.417   2.442
 3422SOL    HW210289   3.845   2.559   2.509
 3423SOL     OW10290   3.751   3.458   1.979
 3423SOL    HW110291   3.732   3.362   2.000
 3423SOL    HW210292   3.718   3.516   2.054
 3424SOL     OW10293   3.837   2.599   3.459
 3424SOL    HW110294   3.925   2.586   3.504
 3424SOL    HW210295   3.824   2.696   3.437
 3425SOL     OW10296   4.337   3.227   2.588
 3425SOL    HW110297   4.288   3.140   2.597
 3425SOL    HW210298   4.314   3.270   2.501
 3426SOL     OW10299   4.533   1.866   2.364
 3426SOL    HW110300   4.573   1.957   2.355
 3426SOL    HW210301   4.433   1.874   2.370
 3427SOL     OW10302   3.921   2.838   3.126
 3427SOL    HW110303   4.010   2.793   3.112
 3427SOL    HW210304   3.848   2.773   3.107
 3428SOL     OW10305   4.041   2.113   3.663
 3428SOL    HW110306   4.112   2.184   3.669
 3428SOL    HW210307   3.953   2.152   3.691
 3429SOL     OW10308   4.322   2.591   2.132
 3429SOL    HW110309   4.346   2.660   2.064
 3429SOL    HW210310   4.244   2.624   2.186
 3430SOL     OW10311   4.531   2.467   3.327
 3430SOL    HW110312   4.484   2.464   3.416
 3430SOL    HW210313   4.480   2.412   3.261
 3431SOL     OW10314   4.697   2.752   3.434
 3431SOL    HW110315   4.743   2.668   3.405
 3431SOL    HW210316   4.641   2.786   3.359
 3432SOL     OW10317   4.715   2.272   3.104
 3432SOL    HW110318   4.638   2.306   3.158
 3432SOL    HW210319   4.681   2.221   3.025
 3433SOL     OW10320   4.765   2.563   2.291
 3433SOL    HW110321   4.791   2.559   2.387
 3433SOL    HW210322   4.680   2.512   2.277
 3434SOL     OW10323   3.800   2.673   2.651
 3434SOL    HW110324   3.899   2.661   2.660
 3434SOL    HW210325   3.776   2.768   2.672
 3435SOL     OW10326   3.854   3.683   3.433
 3435SOL    HW110327   3.844   3.668   3.532
 3435SOL    HW210328   3.768   3.719   3.397
 3436SOL     OW10329   4.589   2.210   2.057
 3436SOL    HW110330   4.648   2.273   2.008
 3436SOL    HW210331   4.608   2.116   2.028
 3437SOL     OW10332   4.274   2.058   2.747
 3437SOL    HW110333   4.269   2.053   2.847
 3437SOL    HW210334   4.276   2.154   2.718
 3438SOL     OW10335   4.732   3.318   2.339
 3438SOL    HW110336   4.686   3.390   2.287
 3438SOL    HW210337   4.728   3.338   2.437
 3439SOL     OW10338   4.075   3.663   2.715
 3439SOL    HW110339   4.125   3.577   2.721
 3439SOL    HW210340   4.140   3.740   2.712
 3440SOL     OW10341   4.045   2.805   2.104
 3440SOL    HW110342   4.127   2.844   2.062
 3440SOL    HW210343   4.018   2.723   2.055
 3441SOL     OW10344   4.185   3.128   3.589
 3441SOL    HW110345   4.135   3.129   3.503
 3441SOL    HW210346   4.122   3.110   3.665
 3442SOL     OW10347   3.926   2.147   3.360
 3442SOL    HW110348   3.846   2.207   3.347
 3442SOL    HW210349   3.916   2.098   3.446
 3443SOL     OW10350   4.188   3.605   2.185
 3443SOL    HW110351   4.221   3.644   2.271
 3443SOL    HW210352   4.264   3.598   2.120
 3444SOL     OW10353   3.973   3.647   3.103
 3444SOL    HW110354   4.030   3.582   3.153
 3444SOL    HW210355   3.957   3.614   3.010
 3445SOL     OW10356   4.664   3.560   2.766
 3445SOL    HW110357   4.744   3.503   2.787
 3445SOL    HW210358   4.615   3.520   2.689
 3446SOL     OW10359   4.106   2.562   2.342
 3446SOL    HW110360   4.151   2.472   2.339
 3446SOL    HW210361   4.012   2.551   2.375
 3447SOL     OW10362   4.338   1.984   1.979
 3447SOL    HW110363   4.436   1.962   1.986
 3447SOL    HW210364   4.307   1.967   1.886
 3448SOL     OW10365   4.505   2.126   3.611
 3448SOL    HW110366   4.572   2.065   3.654
 3448SOL    HW210367   4.432   2.145   3.676
 3449SOL     OW10368   4.612   3.376   3.057
 3449SOL    HW110369   4.589   3.351   2.963
 3449SOL    HW210370   4.673   3.307   3.096
 3450SOL     OW10371   4.527   3.264   2.786
 3450SOL    HW110372   4.617   3.278   2.744
 3450SOL    HW210373   4.456   3.266   2.715
 3451SOL     OW10374   4.646   2.365   2.761
 3451SOL    HW110375   4.621   2.356   2.665
 3451SOL    HW210376   4.694   2.283   2.792
 3452SOL     OW10377   4.263   1.926   2.374
 3452SOL    HW110378   4.182   1.927   2.432
 3452SOL    HW210379   4.266   2.009   2.319
 3453SOL     OW10380   4.021   1.897   2.033
 3453SOL    HW110381   4.070   1.981   2.012
 3453SOL    HW210382   4.083   1.832   2.078
 3454SOL     OW10383   4.659   2.098   2.342
 3454SOL    HW110384   4.611   2.139   2.264
 3454SOL    HW210385   4.758   2.096   2.323
 3455SOL     OW10386   4.951   3.432   2.655
 3455SOL    HW110387   4.972   3.506   2.590
 3455SOL    HW210388   5.019   3.432   2.728
 3456SOL     OW10389   4.183   3.014   2.603
 3456SOL    HW110390   4.112   2.987   2.668
 3456SOL    HW210391   4.157   2.986   2.510
 3457SOL     OW10392   4.995   3.659   2.453
 3457SOL    HW110393   5.039   3.723   2.389
 3457SOL    HW210394   4.945   3.711   2.523
 3458SOL     OW10395   4.756   2.411   1.878
 3458SOL    HW110396   4.715   2.493   1.839
 3458SOL    HW210397   4.820   2.437   1.951
 3459SOL     OW10398   3.802   2.418   3.248
 3459SOL    HW110399   3.894   2.417   3.207
 3459SOL    HW210400   3.796   2.492   3.315
 3460SOL     OW10401   4.285   2.084   3.009
 3460SOL    HW110402   4.323   2.000   3.046
 3460SOL    HW210403   4.197   2.103   3.053
 3461SOL     OW10404   4.590   2.316   2.504
 3461SOL    HW110405   4.558   2.388   2.442
 3461SOL    HW210406   4.614   2.235   2.451
 3462SOL     OW10407   4.741   1.901   2.615
 3462SOL    HW110408   4.669   1.906   2.546
 3462SOL    HW210409   4.717   1.832   2.684
 3463SOL     OW10410   4.212   3.247   2.036
 3463SOL    HW110411   4.125   3.232   2.083
 3463SOL    HW210412   4.195   3.273   1.941
 3464SOL     OW10413   4.251   2.118   2.190
 3464SOL    HW110414   4.278   2.059   2.115
 3464SOL    HW210415   4.251   2.213   2.159
 3465SOL     OW10416   4.639   1.951   3.264
 3465SOL    HW110417   4.664   1.931   3.169
 3465SOL    HW210418   4.711   2.007   3.306
 3466SOL     OW10419   4.704   2.978   3.581
 3466SOL    HW110420   4.605   2.984   3.591
 3466SOL    HW210421   4.727   2.898   3.525
 3467SOL     OW10422   4.429   2.912   2.230
 3467SOL    HW110423   4.415   2.919   2.329
 3467SOL    HW210424   4.513   2.861   2.212
 3468SOL     OW10425   4.134   2.675   3.113
 3468SOL    HW110426   4.220   2.687   3.163
 3468SOL    HW210427   4.092   2.588   3.140
 3469SOL     OW10428   3.788   3.426   3.193
 3469SOL    HW110429   3.742   3.508   3.159
 3469SOL    HW210430   3.886   3.445   3.202
 3470SOL     OW10431   4.091   2.962   2.363
 3470SOL    HW110432   4.084   3.045   2.307
 3470SOL    HW210433   4.095   2.882   2.303
 3471SOL     OW10434   4.290   2.399   2.727
 3471SOL    HW110435   4.302   2.465   2.653
 3471SOL    HW210436   4.336   2.433   2.810
 3472SOL     OW10437   4.078   3.372   3.191
 3472SOL    HW110438   4.057   3.328   3.104
 3472SOL    HW210439   4.175   3.398   3.194
 3473SOL     OW10440   4.126   2.613   3.460
 3473SOL    HW110441   4.194   2.668   3.413
 3473SOL    HW210442   4.166   2.525   3.487
 3474SOL     OW10443   4.737   1.967   3.632
 3474SOL    HW110444   4.743   2.052   3.580
 3474SOL    HW210445   4.769   1.891   3.575
 3475SOL     OW10446   4.228   1.912   3.602
 3475SOL    HW110447   4.186   1.855   3.532
 3475SOL    HW210448   4.162   1.981   3.634
 3476SOL     OW10449   4.297   2.732   2.891
 3476SOL    HW110450   4.341   2.821   2.882
 3476SOL    HW210451   4.234   2.732   2.968
 3477SOL     OW10452   4.933   2.387   2.137
 3477SOL    HW110453   4.946   2.303   2.191
 3477SOL    HW210454   4.904   2.461   2.197
 3478SOL     OW10455   4.031   2.075   3.093
 3478SOL    HW110456   4.008   2.112   3.183
 3478SOL    HW210457   4.001   1.980   3.087
 3479SOL     OW10458   3.761   3.172   3.144
 3479SOL    HW110459   3.814   3.123   3.212
 3479SOL    HW210460   3.783   3.270   3.149
 3480SOL     OW10461   4.456   2.496   2.926
 3480SOL    HW110462   4.515   2.470   2.850
 3480SOL    HW210463   4.428   2.592   2.915
 3481SOL     OW10464   4.031   1.925   2.480
 3481SOL    HW110465   4.020   2.019   2.513
 3481SOL    HW210466   4.026   1.862   2.557
 3482SOL     OW10467   4.747   2.628   2.828
 3482SOL    HW110468   4.762   2.649   2.924
 3482SOL    HW210469   4.717   2.533   2.819
 3483SOL     OW10470   4.704   3.435   3.562
 3483SOL    HW110471   4.684   3.479   3.474
 3483SOL    HW210472   4.743   3.344   3.546
 3484SOL     OW10473   4.074   2.760   3.666
 3484SOL    HW110474   4.150   2.804   3.714
 3484SOL    HW210475   4.109   2.713   3.584
 3485SOL     OW10476   4.792   3.195   2.711
 3485SOL    HW110477   4.799   3.111   2.656
 3485SOL    HW210478   4.854   3.264   2.675
 3486SOL     OW10479   4.043   2.672   2.811
 3486SOL    HW110480   4.136   2.708   2.816
 3486SOL    HW210481   4.037   2.587   2.863
 3487SOL     OW10482   4.063   2.371   2.868
 3487SOL    HW110483   4.011   2.288   2.851
 3487SOL    HW210484   4.140   2.376   2.804
 3488SOL     OW10485   4.862   2.242   3.540
 3488SOL    HW110486   4.817   2.305   3.604
 3488SOL    HW210487   4.955   2.273   3.523
 3489SOL     OW10488   4.884   2.069   3.339
 3489SOL    HW110489   4.884   2.133   3.416
 3489SOL    HW210490   4.912   2.117   3.256
 3490SOL     OW10491   3.732   3.188   2.062
 3490SOL    HW110492   3.639   3.209   2.031
 3490SOL    HW210493   3.742   3.089   2.075
 3491SOL     OW10494   3.812   3.663   2.789
 3491SOL    HW110495   3.770   3.577   2.762
 3491SOL    HW210496   3.906   3.666   2.755
 3492SOL     OW10497   4.228   3.430   2.772
 3492SOL    HW110498   4.294   3.504   2.781
 3492SOL    HW210499   4.272   3.351   2.730
 3493SOL     OW10500   4.726   2.658   3.100
 3493SOL    HW110501   4.767   2.626   3.186
 3493SOL    HW210502   4.630   2.631   3.097
 3494SOL     OW10503   3.764   2.406   2.976
 3494SOL    HW110504   3.849   2.373   2.935
 3494SOL    HW210505   3.777   2.421   3.074
 3495SOL     OW10506   3.913   2.382   3.584
 3495SOL    HW110507   3.972   2.342   3.514
 3495SOL    HW210508   3.855   2.453   3.543
 3496SOL     OW10509   4.539   2.434   2.187
 3496SOL    HW110510   4.546   2.345   2.141
 3496SOL    HW210511   4.445   2.468   2.179
 3497SOL     OW10512   3.976   3.426   3.606
 3497SOL    HW110513   3.946   3.483   3.682
 3497SOL    HW210514   3.969   3.329   3.632
 3498SOL     OW10515   4.395   2.326   3.131
 3498SOL    HW110516   4.361   2.237   3.101
 3498SOL    HW210517   4.421   2.380   3.051
 3499SOL     OW10518   4.654   3.540   3.327
 3499SOL    HW110519   4.630   3.522   3.232
 3499SOL    HW210520   4.684   3.634   3.337
 3500SOL     OW10521   4.197   2.362   2.053
 3500SOL    HW110522   4.258   2.442   2.057
 3500SOL    HW210523   4.102   2.393   2.060
 3501SOL     OW10524   3.883   2.999   3.328
 3501SOL    HW110525   3.905   2.938   3.404
 3501SOL    HW210526   3.893   2.950   3.242
 3502SOL     OW10527   5.026   2.717   2.171
 3502SOL    HW110528   4.940   2.686   2.213
 3502SOL    HW210529   5.022   2.703   2.072
 3503SOL     OW10530   3.807   3.120   2.884
 3503SOL    HW110531   3.802   3.119   2.984
 3503SOL    HW210532   3.724   3.079   2.846
 3504SOL     OW10533   4.412   3.524   3.578
 3504SOL    HW110534   4.356   3.605   3.587
 3504SOL    HW210535   4.464   3.528   3.492
 3505SOL     OW10536   3.854   3.656   3.713
 3505SOL    HW110537   3.813   3.582   3.766
 3505SOL    HW210538   3.918   3.707   3.771
 3506SOL     OW10539   4.554   3.135   3.284
 3506SOL    HW110540   4.549   3.168   3.379
 3506SOL    HW210541   4.468   3.154   3.238
 3507SOL     OW10542   4.396   3.478   2.016
 3507SOL    HW110543   4.405   3.488   1.917
 3507SOL    HW210544   4.356   3.389   2.037
 3508SOL     OW10545   3.987   2.188   2.582
 3508SOL    HW110546   3.908   2.239   2.548
 3508SOL    HW210547   3.978   2.173   2.680
 3509SOL     OW10548   4.546   2.864   3.234
 3509SOL    HW110549   4.586   2.863   3.142
 3509SOL    HW210550   4.556   2.956   3.274
 3510SOL     OW10551   4.640   2.772   2.153
 3510SOL    HW110552   4.703   2.810   2.085
 3510SOL    HW210553   4.680   2.689   2.192
 3511SOL     OW10554   4.096   3.150   3.352
 3511SOL    HW110555   4.083   3.243   3.318
 3511SOL    HW210556   4.012   3.098   3.339
 3512SOL     OW10557   4.763   2.960   2.558
 3512SOL    HW110558   4.693   2.913   2.612
 3512SOL    HW210559   4.822   2.892   2.515
 3513SOL     OW10560   4.738   2.098   2.833
 3513SOL    HW110561   4.730   2.062   2.740
 3513SOL    HW210562   4.736   2.022   2.898
 3514SOL     OW10563   4.314   3.349   2.353
 3514SOL    HW110564   4.356   3.291   2.283
 3514SOL    HW210565   4.270   3.428   2.309
 3515SOL     OW10566   3.979   3.210   2.152
 3515SOL    HW110567   3.883   3.211   2.125
 3515SOL    HW210568   3.991   3.263   2.236
 3516SOL     OW10569   3.829   2.875   3.588
 3516SOL    HW110570   3.752   2.842   3.642
 3516SOL    HW210571   3.914   2.845   3.630
 3517SOL     OW10572   4.396   2.065   3.351
 3517SOL    HW110573   4.486   2.049   3.311
 3517SOL    HW210574   4.404   2.070   3.450
 3518SOL     OW10575   3.799   2.207   1.895
 3518SOL    HW110576   3.707   2.179   1.866
 3518SOL    HW210577   3.830   2.284   1.839
 3519SOL     OW10578   3.796   2.028   2.180
 3519SOL    HW110579   3.779   2.111   2.126
 3519SOL    HW210580   3.886   1.991   2.158
 3520SOL     OW10581   4.337   2.704   3.293
 3520SOL    HW110582   4.393   2.785   3.276
 3520SOL    HW210583   4.396   2.624   3.296
 3521SOL     OW10584   4.440   2.427   3.570
 3521SOL    HW110585   4.459   2.492   3.644
 3521SOL    HW210586   4.500   2.347   3.579
 3522SOL     OW10587   4.114   3.603   3.422
 3522SOL    HW110588   4.023   3.644   3.420
 3522SOL    HW210589   4.107   3.509   3.454
 3523SOL     OW10590   4.318   2.607   2.514
 3523SOL    HW110591   4.368   2.692   2.495
 3523SOL    HW210592   4.230   2.609   2.466
 3524SOL     OW10593   4.583   3.236   1.878
 3524SOL    HW110594   4.537   3.251   1.966
 3524SOL    HW210595   4.627   3.321   1.848
 3525SOL     OW10596   4.385   3.652   2.815
 3525SOL    HW110597   4.339   3.740   2.802
 3525SOL    HW210598   4.484   3.664   2.808
 3526SOL     OW10599   4.583   2.818   2.723
 3526SOL    HW110600   4.637   2.749   2.771
 3526SOL    HW210601   4.551   2.887   2.789
 3527SOL     OW10602   4.807   2.846   1.949
 3527SOL    HW110603   4.784   2.899   1.867
 3527SOL    HW210604   4.888   2.790   1.930
 3528SOL     OW10605   3.945   3.176   3.706
 3528SOL    HW110606   3.880   3.103   3.685
 3528SOL    HW210607   3.949   3.190   3.804
 3529SOL     OW10608   3.803   3.102   2.515
 3529SOL    HW110609   3.802   3.055   2.603
 3529SOL    HW210610   3.885   3.074   2.464
 3530SOL     OW10611   4.396   3.253   3.486
 3530SOL    HW110612   4.318   3.203   3.524
 3530SOL    HW210613   4.393   3.348   3.517
 3531SOL     OW10614   4.152   2.286   2.382
 3531SOL    HW110615   4.182   2.214   2.320
 3531SOL    HW210616   4.113   2.246   2.465
 3532SOL     OW10617   4.041   2.409   3.142
 3532SOL    HW110618   4.079   2.350   3.214
 3532SOL    HW210619   4.081   2.383   3.054
 3533SOL     OW10620   4.536   3.448   2.549
 3533SOL    HW110621   4.568   3.458   2.455
 3533SOL    HW210622   4.457   3.386   2.551
 3534SOL     OW10623   4.725   1.896   3.016
 3534SOL    HW110624   4.662   1.824   2.985
 3534SOL    HW210625   4.818   1.860   3.016
 3535SOL     OW10626   4.494   3.192   2.163
 3535SOL    HW110627   4.448   3.105   2.180
 3535SOL    HW210628   4.585   3.189   2.204
 3536SOL     OW10629   4.342   3.429   3.146
 3536SOL    HW110630   4.337   3.511   3.203
 3536SOL    HW210631   4.431   3.426   3.101
 3537SOL     OW10632   3.763   2.939   2.162
 3537SOL    HW110633   3.862   2.928   2.153
 3537SOL    HW210634   3.723   2.853   2.194
 3538SOL     OW10635   4.599   3.508   2.199
 3538SOL    HW110636   4.522   3.473   2.145
 3538SOL    HW210637   4.567   3.579   2.261
 3539SOL     OW10638   3.954   2.490   3.837
 3539SOL    HW110639   3.861   2.488   3.874
 3539SOL    HW210640   3.955   2.451   3.745
 3540SOL     OW10641   3.949   2.137   4.720
 3540SOL    HW110642   3.984   2.120   4.812
 3540SOL    HW210643   3.861   2.092   4.708
 3541SOL     OW10644   3.743   2.230   4.371
 3541SOL    HW110645   3.661   2.273   4.410
 3541SOL    HW210646   3.715   2.157   4.308
 3542SOL     OW10647   4.492   3.006   4.747
 3542SOL    HW110648   4.414   3.023   4.807
 3542SOL    HW210649   4.526   3.093   4.711
 3543SOL     OW10650   4.409   2.874   4.389
 3543SOL    HW110651   4.478   2.858   4.459
 3543SOL    HW210652   4.336   2.931   4.427
 3544SOL     OW10653   4.059   3.297   4.785
 3544SOL    HW110654   3.981   3.266   4.732
 3544SOL    HW210655   4.117   3.355   4.728
 3545SOL     OW10656   3.955   3.575   4.207
 3545SOL    HW110657   3.989   3.652   4.261
 3545SOL    HW210658   3.999   3.575   4.117
 3546SOL     OW10659   3.954   3.296   4.262
 3546SOL    HW110660   3.928   3.392   4.262
 3546SOL    HW210661   3.883   3.242   4.307
 3547SOL     OW10662   3.964   2.953   4.610
 3547SOL    HW110663   3.978   2.869   4.662
 3547SOL    HW210664   3.909   3.017   4.665
 3548SOL     OW10665   4.330   2.826   3.847
 3548SOL    HW110666   4.337   2.910   3.793
 3548SOL    HW210667   4.376   2.839   3.935
 3549SOL     OW10668   3.846   2.505   4.287
 3549SOL    HW110669   3.801   2.417   4.304
 3549SOL    HW210670   3.845   2.559   4.371
 3550SOL     OW10671   3.751   3.458   3.841
 3550SOL    HW110672   3.732   3.362   3.862
 3550SOL    HW210673   3.718   3.516   3.916
 3551SOL     OW10674   4.337   3.227   4.450
 3551SOL    HW110675   4.288   3.140   4.459
 3551SOL    HW210676   4.314   3.270   4.363
 3552SOL     OW10677   4.533   1.866   4.226
 3552SOL    HW110678   4.573   1.957   4.217
 3552SOL    HW210679   4.433   1.874   4.232
 3553SOL     OW10680   3.921   2.838   4.988
 3553SOL    HW110681   4.010   2.793   4.974
 3553SOL    HW210682   3.848   2.773   4.969
 3554SOL     OW10683   4.322   2.591   3.994
 3554SOL    HW110684   4.346   2.660   3.926
 3554SOL    HW210685   4.244   2.624   4.048
 3555SOL     OW10686   4.765   2.563   4.153
 3555SOL    HW110687   4.791   2.559   4.249
 3555SOL    HW210688   4.680   2.512   4.139
 3556SOL     OW10689   3.800   2.673   4.513
 3556SOL    HW110690   3.899   2.661   4.522
 3556SOL    HW210691   3.776   2.768   4.534
 3557SOL     OW10692   4.589   2.210   3.919
 3557SOL    HW110693   4.648   2.273   3.870
 3557SOL    HW210694   4.608   2.116   3.890
 3558SOL     OW10695   4.274   2.058   4.609
 3558SOL    HW110696   4.269   2.053   4.709
 3558SOL    HW210697   4.276   2.154   4.580
 3559SOL     OW10698   4.732   3.318   4.201
 3559SOL    HW110699   4.686   3.390   4.149
 3559SOL    HW210700   4.728   3.338   4.299
 3560SOL     OW10701   4.075   3.663   4.577
 3560SOL    HW110702   4.125   3.577   4.583
 3560SOL    HW210703   4.140   3.740   4.574
 3561SOL     OW10704   4.045   2.805   3.966
 3561SOL    HW110705   4.127   2.844   3.924
 3561SOL    HW210706   4.018   2.723   3.917
 3562SOL     OW10707   4.188   3.605   4.047
 3562SOL    HW110708   4.221   3.644   4.133
 3562SOL    HW210709   4.264   3.598   3.982
 3563SOL     OW10710   3.973   3.647   4.965
 3563SOL    HW110711   4.030   3.582   5.015
 3563SOL    HW210712   3.957   3.614   4.872
 3564SOL     OW10713   4.664   3.560   4.628
 3564SOL    HW110714   4.744   3.503   4.649
 3564SOL    HW210715   4.615   3.520   4.551
 3565SOL     OW10716   4.106   2.562   4.204
 3565SOL    HW110717   4.151   2.472   4.201
 3565SOL    HW210718   4.012   2.551   4.237
 3566SOL     OW10719   4.338   1.984   3.841
 3566SOL    HW110720   4.436   1.962   3.848
 3566SOL    HW210721   4.307   1.967   3.748
 3567SOL     OW10722   4.527   3.264   4.648
 3567SOL    HW110723   4.617   3.278   4.606
 3567SOL    HW210724   4.456   3.266   4.577
 3568SOL     OW10725   4.646   2.365   4.623
 3568SOL    HW110726   4.621   2.356   4.527
 3568SOL    HW210727   4.694   2.283   4.654
 3569SOL     OW10728   4.263   1.926   4.236
 3569SOL    HW110729   4.182   1.927   4.294
 3569SOL    HW210730   4.266   2.009   4.181
 3570SOL     OW10731   4.021   1.897   3.895
 3570SOL    HW110732   4.070   1.981   3.874
 3570SOL    HW210733   4.083   1.832   3.940
 3571SOL     OW10734   4.659   2.098   4.204
 3571SOL    HW110735   4.611   2.139   4.126
 3571SOL    HW210736   4.758   2.096   4.185
 3572SOL     OW10737   4.951   3.432   4.517
 3572SOL    HW110738   4.972   3.506   4.452
 3572SOL    HW210739   5.019   3.432   4.590
 3573SOL     OW10740   4.183   3.014   4.465
 3573SOL    HW110741   4.112   2.987   4.530
 3573SOL    HW210742   4.157   2.986   4.372
 3574SOL     OW10743   4.995   3.659   4.315
 3574SOL    HW110744   5.039   3.723   4.251
 3574SOL    HW210745   4.945   3.711   4.385
 3575SOL     OW10746   4.756   2.411   3.740
 3575SOL    HW110747   4.715   2.493   3.701
 3575SOL    HW210748   4.820   2.437   3.813
 3576SOL     OW10749   4.590   2.316   4.366
 3576SOL    HW110750   4.558   2.388   4.304
 3576SOL    HW210751   4.614   2.235   4.313
 3577SOL     OW10752   4.741   1.901   4.477
 3577SOL    HW110753   4.669   1.906   4.408
 3577SOL    HW210754   4.717   1.832   4.546
 3578SOL     OW10755   4.212   3.247   3.898
 3578SOL    HW110756   4.125   3.232   3.945
 3578SOL    HW210757   4.195   3.273   3.803
 3579SOL     OW10758   4.251   2.118   4.052
 3579SOL    HW110759   4.278   2.059   3.977
 3579SOL    HW210760   4.251   2.213   4.021
 3580SOL     OW10761   4.429   2.912   4.092
 3580SOL    HW110762   4.415   2.919   4.191
 3580SOL    HW210763   4.513   2.861   4.074
 3581SOL     OW10764   4.134   2.675   4.975
 3581SOL    HW110765   4.220   2.687   5.025
 3581SOL    HW210766   4.092   2.588   5.002
 3582SOL     OW10767   4.091   2.962   4.225
 3582SOL    HW110768   4.084   3.045   4.169
 3582SOL    HW210769   4.095   2.882   4.165
 3583SOL     OW10770   4.290   2.399   4.589
 3583SOL    HW110771   4.302   2.465   4.515
 3583SOL    HW210772   4.336   2.433   4.672
 3584SOL     OW10773   4.078   3.372   5.053
 3584SOL    HW110774   4.057   3.328   4.966
 3584SOL    HW210775   4.175   3.398   5.056
 3585SOL     OW10776   4.297   2.732   4.753
 3585SOL    HW110777   4.341   2.821   4.744
 3585SOL    HW210778   4.234   2.732   4.830
 3586SOL     OW10779   4.933   2.387   3.999
 3586SOL    HW110780   4.946   2.303   4.053
 3586SOL    HW210781   4.904   2.461   4.059
 3587SOL     OW10782   4.031   2.075   4.955
 3587SOL    HW110783   4.008   2.112   5.045
 3587SOL    HW210784   4.001   1.980   4.949
 3588SOL     OW10785   4.456   2.496   4.788
 3588SOL    HW110786   4.515   2.470   4.712
 3588SOL    HW210787   4.428   2.592   4.777
 3589SOL     OW10788   4.031   1.925   4.342
 3589SOL    HW110789   4.020   2.019   4.375
 3589SOL    HW210790   4.026   1.862   4.419
 3590SOL     OW10791   4.747   2.628   4.690
 3590SOL    HW110792   4.762   2.649   4.786
 3590SOL    HW210793   4.717   2.533   4.681
 3591SOL     OW10794   4.792   3.195   4.573
 3591SOL    HW110795   4.799   3.111   4.518
 3591SOL    HW210796   4.854   3.264   4.537
 3592SOL     OW10797   4.043   2.672   4.673
 3592SOL    HW110798   4.136   2.708   4.678
 3592SOL    HW210799   4.037   2.587   4.725
 3593SOL     OW10800   4.063   2.371   4.730
 3593SOL    HW110801   4.011   2.288   4.713
 3593SOL    HW210802   4.140   2.376   4.666
 3594SOL     OW10803   3.732   3.188   3.924
 3594SOL    HW110804   3.639   3.209   3.893
 3594SOL    HW210805   3.742   3.089   3.937
 3595SOL     OW10806   3.812   3.663   4.651
 3595SOL    HW110807   3.770   3.577   4.624
 3595SOL    HW210808   3.906   3.666   4.617
 3596SOL     OW10809   4.228   3.430   4.634
 3596SOL    HW110810   4.294   3.504   4.643
 3596SOL    HW210811   4.272   3.351   4.592
 3597SOL     OW10812   4.726   2.658   4.962
 3597SOL    HW110813   4.767   2.626   5.048
 3597SOL    HW210814   4.630   2.631   4.959
 3598SOL     OW10815   3.764   2.406   4.838
 3598SOL    HW110816   3.849   2.373   4.797
 3598SOL    HW210817   3.777   2.421   4.936
 3599SOL     OW10818   4.539   2.434   4.049
 3599SOL    HW110819   4.546   2.345   4.003
 3599SOL    HW210820   4.445   2.468   4.041
 3600SOL     OW10821   4.395   2.326   4.993
 3600SOL    HW110822   4.361   2.237   4.963
 3600SOL    HW210823   4.421   2.380   4.913
 3601SOL     OW10824   4.197   2.362   3.915
 3601SOL    HW110825   4.258   2.442   3.919
 3601SOL    HW210826   4.102   2.393   3.922
 3602SOL     OW10827   5.026   2.717   4.033
 3602SOL    HW110828   4.940   2.686   4.075
 3602SOL    HW210829   5.022   2.703   3.934
 3603SOL     OW10830   3.807   3.120   4.746
 3603SOL    HW110831   3.802   3.119   4.846
 3603SOL    HW210832   3.724   3.079   4.708
 3604SOL     OW10833   4.396   3.478   3.878
 3604SOL    HW110834   4.405   3.488   3.779
 3604SOL    HW210835   4.356   3.389   3.899
 3605SOL     OW10836   3.987   2.188   4.444
 3605SOL    HW110837   3.908   2.239   4.410
 3605SOL    HW210838   3.978   2.173   4.542
 3606SOL     OW10839   4.640   2.772   4.015
 3606SOL    HW110840   4.703   2.810   3.947
 3606SOL    HW210841   4.680   2.689   4.054
 3607SOL     OW10842   4.763   2.960   4.420
 3607SOL    HW110843   4.693   2.913   4.474
 3607SOL    HW210844   4.822   2.892   4.377
 3608SOL     OW10845   4.738   2.098   4.695
 3608SOL    HW110846   4.730   2.062   4.602
 3608SOL    HW210847   4.736   2.022   4.760
 3609SOL     OW10848   4.314   3.349   4.215
 3609SOL    HW110849   4.356   3.291   4.145
 3609SOL    HW210850   4.270   3.428   4.171
 3610SOL     OW10851   3.979   3.210   4.014
 3610SOL    HW110852   3.883   3.211   3.987
 3610SOL    HW210853   3.991   3.263   4.098
 3611SOL     OW10854   3.799   2.207   3.757
 3611SOL    HW110855   3.707   2.179   3.728
 3611SOL    HW210856   3.830   2.284   3.701
 3612SOL     OW10857   3.796   2.028   4.042
 3612SOL    HW110858   3.779   2.111   3.988
 3612SOL    HW210859   3.886   1.991   4.020
 3613SOL     OW10860   4.318   2.607   4.376
 3613SOL    HW110861   4.368   2.692   4.357
 3613SOL    HW210862   4.230   2.609   4.328
 3614SOL     OW10863   4.583   3.236   3.740
 3614SOL    HW110864   4.537   3.251   3.828
 3614SOL    HW210865   4.627   3.321   3.710
 3615SOL     OW10866   4.385   3.652   4.677
 3615SOL    HW110867   4.339   3.740   4.664
 3615SOL    HW210868   4.484   3.664   4.670
 3616SOL     OW10869   4.583   2.818   4.585
 3616SOL    HW110870   4.637   2.749   4.633
 3616SOL    HW210871   4.551   2.887   4.651
 3617SOL     OW10872   4.807   2.846   3.811
 3617SOL    HW110873   4.784   2.899   3.729
 3617SOL    HW210874   4.888   2.790   3.792
 3618SOL     OW10875   3.803   3.102   4.377
 3618SOL    HW110876   3.802   3.055   4.465
 3618SOL    HW210877   3.885   3.074   4.326
 3619SOL     OW10878   4.152   2.286   4.244
 3619SOL    HW110879   4.182   2.214   4.182
 3619SOL    HW210880   4.113   2.246   4.327
 3620SOL     OW10881   4.536   3.448   4.411
 3620SOL    HW110882   4.568   3.458   4.317
 3620SOL    HW210883   4.457   3.386   4.413
 3621SOL     OW10884   4.494   3.192   4.025
 3621SOL    HW110885   4.448   3.105   4.042
 3621SOL    HW210886   4.585   3.189   4.066
 3622SOL     OW10887   3.763   2.939   4.024
 3622SOL    HW110888   3.862   2.928   4.015
 3622SOL    HW210889   3.723   2.853   4.056
 3623SOL     OW10890   4.599   3.508   4.061
 3623SOL    HW110891   4.522   3.473   4.007
 3623SOL    HW210892   4.567   3.579   4.123
 3624SOL     OW10893   3.954   4.352   0.113
 3624SOL    HW110894   3.861   4.350   0.150
 3624SOL    HW210895   3.955   4.313   0.021
 3625SOL     OW10896   3.949   3.999   0.996
 3625SOL    HW110897   3.984   3.982   1.088
 3625SOL    HW210898   3.861   3.954   0.984
 3626SOL     OW10899   3.743   4.092   0.647
 3626SOL    HW110900   3.661   4.135   0.686
 3626SOL    HW210901   3.715   4.019   0.584
 3627SOL     OW10902   4.492   4.868   1.023
 3627SOL    HW110903   4.414   4.885   1.083
 3627SOL    HW210904   4.526   4.955   0.987
 3628SOL     OW10905   4.574   4.522   1.823
 3628SOL    HW110906   4.570   4.598   1.888
 3628SOL    HW210907   4.596   4.558   1.732
 3629SOL     OW10908   4.409   4.736   0.665
 3629SOL    HW110909   4.478   4.720   0.735
 3629SOL    HW210910   4.336   4.793   0.703
 3630SOL     OW10911   4.162   4.116   1.499
 3630SOL    HW110912   4.244   4.060   1.508
 3630SOL    HW210913   4.081   4.058   1.503
 3631SOL     OW10914   3.954   5.158   0.538
 3631SOL    HW110915   3.928   5.254   0.538
 3631SOL    HW210916   3.883   5.104   0.583
 3632SOL     OW10917   3.964   4.815   0.886
 3632SOL    HW110918   3.978   4.731   0.938
 3632SOL    HW210919   3.909   4.879   0.941
 3633SOL     OW10920   4.330   4.688   0.123
 3633SOL    HW110921   4.337   4.772   0.069
 3633SOL    HW210922   4.376   4.701   0.211
 3634SOL     OW10923   3.846   4.367   0.563
 3634SOL    HW110924   3.801   4.279   0.580
 3634SOL    HW210925   3.845   4.421   0.647
 3635SOL     OW10926   3.837   4.461   1.597
 3635SOL    HW110927   3.925   4.448   1.642
 3635SOL    HW210928   3.824   4.558   1.575
 3636SOL     OW10929   4.533   3.728   0.502
 3636SOL    HW110930   4.573   3.819   0.493
 3636SOL    HW210931   4.433   3.736   0.508
 3637SOL     OW10932   3.921   4.700   1.264
 3637SOL    HW110933   4.010   4.655   1.250
 3637SOL    HW210934   3.848   4.635   1.245
 3638SOL     OW10935   4.041   3.975   1.801
 3638SOL    HW110936   4.112   4.046   1.807
 3638SOL    HW210937   3.953   4.014   1.829
 3639SOL     OW10938   4.322   4.453   0.270
 3639SOL    HW110939   4.346   4.522   0.202
 3639SOL    HW210940   4.244   4.486   0.324
 3640SOL     OW10941   4.531   4.329   1.465
 3640SOL    HW110942   4.484   4.326   1.554
 3640SOL    HW210943   4.480   4.274   1.399
 3641SOL     OW10944   4.697   4.614   1.572
 3641SOL    HW110945   4.743   4.530   1.543
 3641SOL    HW210946   4.641   4.648   1.497
 3642SOL     OW10947   4.715   4.134   1.242
 3642SOL    HW110948   4.638   4.168   1.296
 3642SOL    HW210949   4.681   4.083   1.163
 3643SOL     OW10950   4.765   4.425   0.429
 3643SOL    HW110951   4.791   4.421   0.525
 3643SOL    HW210952   4.680   4.374   0.415
 3644SOL     OW10953   3.800   4.535   0.789
 3644SOL    HW110954   3.899   4.523   0.798
 3644SOL    HW210955   3.776   4.630   0.810
 3645SOL     OW10956   4.589   4.072   0.195
 3645SOL    HW110957   4.648   4.135   0.146
 3645SOL    HW210958   4.608   3.978   0.166
 3646SOL     OW10959   4.274   3.920   0.885
 3646SOL    HW110960   4.269   3.915   0.985
 3646SOL    HW210961   4.276   4.016   0.856
 3647SOL     OW10962   4.045   4.667   0.242
 3647SOL    HW110963   4.127   4.706   0.200
 3647SOL    HW210964   4.018   4.585   0.193
 3648SOL     OW10965   3.926   4.009   1.498
 3648SOL    HW110966   3.846   4.069   1.485
 3648SOL    HW210967   3.916   3.960   1.584
 3649SOL     OW10968   4.106   4.424   0.480
 3649SOL    HW110969   4.151   4.334   0.477
 3649SOL    HW210970   4.012   4.413   0.513
 3650SOL     OW10971   4.338   3.846   0.117
 3650SOL    HW110972   4.436   3.824   0.124
 3650SOL    HW210973   4.307   3.829   0.024
 3651SOL     OW10974   4.505   3.988   1.749
 3651SOL    HW110975   4.572   3.927   1.792
 3651SOL    HW210976   4.432   4.007   1.814
 3652SOL     OW10977   4.646   4.227   0.899
 3652SOL    HW110978   4.621   4.218   0.803
 3652SOL    HW210979   4.694   4.145   0.930
 3653SOL     OW10980   4.263   3.788   0.512
 3653SOL    HW110981   4.182   3.789   0.570
 3653SOL    HW210982   4.266   3.871   0.457
 3654SOL     OW10983   4.659   3.960   0.480
 3654SOL    HW110984   4.611   4.001   0.402
 3654SOL    HW210985   4.758   3.958   0.461
 3655SOL     OW10986   4.183   4.876   0.741
 3655SOL    HW110987   4.112   4.849   0.806
 3655SOL    HW210988   4.157   4.848   0.648
 3656SOL     OW10989   4.756   4.273   0.016
 3656SOL    HW110990   4.715   4.355  -0.023
 3656SOL    HW210991   4.820   4.299   0.089
 3657SOL     OW10992   3.802   4.280   1.386
 3657SOL    HW110993   3.894   4.279   1.345
 3657SOL    HW210994   3.796   4.354   1.453
 3658SOL     OW10995   4.285   3.946   1.147
 3658SOL    HW110996   4.323   3.862   1.184
 3658SOL    HW210997   4.197   3.965   1.191
 3659SOL     OW10998   4.590   4.178   0.642
 3659SOL    HW110999   4.558   4.250   0.580
 3659SOL    HW211000   4.614   4.097   0.589
 3660SOL     OW11001   4.741   3.763   0.753
 3660SOL    HW111002   4.669   3.768   0.684
 3660SOL    HW211003   4.717   3.694   0.822
 3661SOL     OW11004   4.251   3.980   0.328
 3661SOL    HW111005   4.278   3.921   0.253
 3661SOL    HW211006   4.251   4.075   0.297
 3662SOL     OW11007   4.639   3.813   1.402
 3662SOL    HW111008   4.664   3.793   1.307
 3662SOL    HW211009   4.711   3.869   1.444
 3663SOL     OW11010   4.429   4.774   0.368
 3663SOL    HW111011   4.415   4.781   0.467
 3663SOL    HW211012   4.513   4.723   0.350
 3664SOL     OW11013   4.134   4.537   1.251
 3664SOL    HW111014   4.220   4.549   1.301
 3664SOL    HW211015   4.092   4.450   1.278
 3665SOL     OW11016   4.091   4.824   0.501
 3665SOL    HW111017   4.084   4.907   0.445
 3665SOL    HW211018   4.095   4.744   0.441
 3666SOL     OW11019   4.290   4.261   0.865
 3666SOL    HW111020   4.302   4.327   0.791
 3666SOL    HW211021   4.336   4.295   0.948
 3667SOL     OW11022   4.126   4.475   1.598
 3667SOL    HW111023   4.194   4.530   1.551
 3667SOL    HW211024   4.166   4.387   1.625
 3668SOL     OW11025   4.737   3.829   1.770
 3668SOL    HW111026   4.743   3.914   1.718
 3668SOL    HW211027   4.769   3.753   1.713
 3669SOL     OW11028   4.228   3.774   1.740
 3669SOL    HW111029   4.186   3.717   1.670
 3669SOL    HW211030   4.162   3.843   1.772
 3670SOL     OW11031   4.297   4.594   1.029
 3670SOL    HW111032   4.341   4.683   1.020
 3670SOL    HW211033   4.234   4.594   1.106
 3671SOL     OW11034   4.933   4.249   0.275
 3671SOL    HW111035   4.946   4.165   0.329
 3671SOL    HW211036   4.904   4.323   0.335
 3672SOL     OW11037   4.031   3.937   1.231
 3672SOL    HW111038   4.008   3.974   1.321
 3672SOL    HW211039   4.001   3.842   1.225
 3673SOL     OW11040   4.456   4.358   1.064
 3673SOL    HW111041   4.515   4.332   0.988
 3673SOL    HW211042   4.428   4.454   1.053
 3674SOL     OW11043   4.031   3.787   0.618
 3674SOL    HW111044   4.020   3.881   0.651
 3674SOL    HW211045   4.026   3.724   0.695
 3675SOL     OW11046   4.747   4.490   0.966
 3675SOL    HW111047   4.762   4.511   1.062
 3675SOL    HW211048   4.717   4.395   0.957
 3676SOL     OW11049   4.074   4.622   1.804
 3676SOL    HW111050   4.150   4.666   1.852
 3676SOL    HW211051   4.109   4.575   1.722
 3677SOL     OW11052   4.043   4.534   0.949
 3677SOL    HW111053   4.136   4.570   0.954
 3677SOL    HW211054   4.037   4.449   1.001
 3678SOL     OW11055   4.063   4.233   1.006
 3678SOL    HW111056   4.011   4.150   0.989
 3678SOL    HW211057   4.140   4.238   0.942
 3679SOL     OW11058   4.862   4.104   1.678
 3679SOL    HW111059   4.817   4.167   1.742
 3679SOL    HW211060   4.955   4.135   1.661
 3680SOL     OW11061   4.884   3.931   1.477
 3680SOL    HW111062   4.884   3.995   1.554
 3680SOL    HW211063   4.912   3.979   1.394
 3681SOL     OW11064   4.726   4.520   1.238
 3681SOL    HW111065   4.767   4.488   1.324
 3681SOL    HW211066   4.630   4.493   1.235
 3682SOL     OW11067   3.764   4.268   1.114
 3682SOL    HW111068   3.849   4.235   1.073
 3682SOL    HW211069   3.777   4.283   1.212
 3683SOL     OW11070   3.913   4.244   1.722
 3683SOL    HW111071   3.972   4.204   1.652
 3683SOL    HW211072   3.855   4.315   1.681
 3684SOL     OW11073   4.539   4.296   0.325
 3684SOL    HW111074   4.546   4.207   0.279
 3684SOL    HW211075   4.445   4.330   0.317
 3685SOL     OW11076   4.395   4.188   1.269
 3685SOL    HW111077   4.361   4.099   1.239
 3685SOL    HW211078   4.421   4.242   1.189
 3686SOL     OW11079   4.197   4.224   0.191
 3686SOL    HW111080   4.258   4.304   0.195
 3686SOL    HW211081   4.102   4.255   0.198
 3687SOL     OW11082   3.883   4.861   1.466
 3687SOL    HW111083   3.905   4.800   1.542
 3687SOL    HW211084   3.893   4.812   1.380
 3688SOL     OW11085   5.026   4.579   0.309
 3688SOL    HW111086   4.940   4.548   0.351
 3688SOL    HW211087   5.022   4.565   0.210
 3689SOL     OW11088   4.627   3.810   0.133
 3689SOL    HW111089   4.678   3.811   0.047
 3689SOL    HW211090   4.683   3.768   0.204
 3690SOL     OW11091   3.987   4.050   0.720
 3690SOL    HW111092   3.908   4.101   0.686
 3690SOL    HW211093   3.978   4.035   0.818
 3691SOL     OW11094   4.546   4.726   1.372
 3691SOL    HW111095   4.586   4.725   1.280
 3691SOL    HW211096   4.556   4.818   1.412
 3692SOL     OW11097   4.640   4.634   0.291
 3692SOL    HW111098   4.703   4.672   0.223
 3692SOL    HW211099   4.680   4.551   0.330
 3693SOL     OW11100   4.096   5.012   1.490
 3693SOL    HW111101   4.083   5.105   1.456
 3693SOL    HW211102   4.012   4.960   1.477
 3694SOL     OW11103   4.738   3.960   0.971
 3694SOL    HW111104   4.730   3.924   0.878
 3694SOL    HW211105   4.736   3.884   1.036
 3695SOL     OW11106   3.829   4.737   1.726
 3695SOL    HW111107   3.752   4.704   1.780
 3695SOL    HW211108   3.914   4.707   1.768
 3696SOL     OW11109   4.396   3.927   1.489
 3696SOL    HW111110   4.486   3.911   1.449
 3696SOL    HW211111   4.404   3.932   1.588
 3697SOL     OW11112   3.796   3.890   0.318
 3697SOL    HW111113   3.779   3.973   0.264
 3697SOL    HW211114   3.886   3.853   0.296
 3698SOL     OW11115   4.337   4.566   1.431
 3698SOL    HW111116   4.393   4.647   1.414
 3698SOL    HW211117   4.396   4.486   1.434
 3699SOL     OW11118   4.440   4.289   1.708
 3699SOL    HW111119   4.459   4.354   1.782
 3699SOL    HW211120   4.500   4.209   1.717
 3700SOL     OW11121   4.318   4.469   0.652
 3700SOL    HW111122   4.368   4.554   0.633
 3700SOL    HW211123   4.230   4.471   0.604
 3701SOL     OW11124   4.583   4.680   0.861
 3701SOL    HW111125   4.637   4.611   0.909
 3701SOL    HW211126   4.551   4.749   0.927
 3702SOL     OW11127   4.807   4.708   0.087
 3702SOL    HW111128   4.784   4.761   0.005
 3702SOL    HW211129   4.888   4.652   0.068
 3703SOL     OW11130   4.152   4.148   0.520
 3703SOL    HW111131   4.182   4.076   0.458
 3703SOL    HW211132   4.113   4.108   0.603
 3704SOL     OW11133   4.041   4.271   1.280
 3704SOL    HW111134   4.079   4.212   1.352
 3704SOL    HW211135   4.081   4.245   1.192
 3705SOL     OW11136   4.725   3.758   1.154
 3705SOL    HW111137   4.662   3.686   1.123
 3705SOL    HW211138   4.818   3.722   1.154
 3706SOL     OW11139   4.494   5.054   0.301
 3706SOL    HW111140   4.448   4.967   0.318
 3706SOL    HW211141   4.585   5.051   0.342
 3707SOL     OW11142   3.763   4.801   0.300
 3707SOL    HW111143   3.862   4.790   0.291
 3707SOL    HW211144   3.723   4.715   0.332
 3708SOL     OW11145   3.954   4.352   1.975
 3708SOL    HW111146   3.861   4.350   2.012
 3708SOL    HW211147   3.955   4.313   1.883
 3709SOL     OW11148   3.949   3.999   2.858
 3709SOL    HW111149   3.984   3.982   2.950
 3709SOL    HW211150   3.861   3.954   2.846
 3710SOL     OW11151   3.743   4.092   2.509
 3710SOL    HW111152   3.661   4.135   2.548
 3710SOL    HW211153   3.715   4.019   2.446
 3711SOL     OW11154   4.492   4.868   2.885
 3711SOL    HW111155   4.414   4.885   2.945
 3711SOL    HW211156   4.526   4.955   2.849
 3712SOL     OW11157   4.574   4.522   3.685
 3712SOL    HW111158   4.570   4.598   3.750
 3712SOL    HW211159   4.596   4.558   3.594
 3713SOL     OW11160   4.409   4.736   2.527
 3713SOL    HW111161   4.478   4.720   2.597
 3713SOL    HW211162   4.336   4.793   2.565
 3714SOL     OW11163   4.162   4.116   3.361
 3714SOL    HW111164   4.244   4.060   3.370
 3714SOL    HW211165   4.081   4.058   3.365
 3715SOL     OW11166   3.954   5.158   2.400
 3715SOL    HW111167   3.928   5.254   2.400
 3715SOL    HW211168   3.883   5.104   2.445
 3716SOL     OW11169   3.964   4.815   2.748
 3716SOL    HW111170   3.978   4.731   2.800
 3716SOL    HW211171   3.909   4.879   2.803
 3717SOL     OW11172   4.330   4.688   1.985
 3717SOL    HW111173   4.337   4.772   1.931
 3717SOL    HW211174   4.376   4.701   2.073
 3718SOL     OW11175   3.846   4.367   2.425
 3718SOL    HW111176   3.801   4.279   2.442
 3718SOL    HW211177   3.845   4.421   2.509
 3719SOL     OW11178   3.837   4.461   3.459
 3719SOL    HW111179   3.925   4.448   3.504
 3719SOL    HW211180   3.824   4.558   3.437
 3720SOL     OW11181   4.533   3.728   2.364
 3720SOL    HW111182   4.573   3.819   2.355
 3720SOL    HW211183   4.433   3.736   2.370
 3721SOL     OW11184   3.921   4.700   3.126
 3721SOL    HW111185   4.010   4.655   3.112
 3721SOL    HW211186   3.848   4.635   3.107
 3722SOL     OW11187   4.041   3.975   3.663
 3722SOL    HW111188   4.112   4.046   3.669
 3722SOL    HW211189   3.953   4.014   3.691
 3723SOL     OW11190   4.322   4.453   2.132
 3723SOL    HW111191   4.346   4.522   2.064
 3723SOL    HW211192   4.244   4.486   2.186
 3724SOL     OW11193   4.531   4.329   3.327
 3724SOL    HW111194   4.484   4.326   3.416
 3724SOL    HW211195   4.480   4.274   3.261
 3725SOL     OW11196   4.697   4.614   3.434
 3725SOL    HW111197   4.743   4.530   3.405
 3725SOL    HW211198   4.641   4.648   3.359
 3726SOL     OW11199   4.715   4.134   3.104
 3726SOL    HW111200   4.638   4.168   3.158
 3726SOL    HW211201   4.681   4.083   3.025
 3727SOL     OW11202   4.765   4.425   2.291
 3727SOL    HW111203   4.791   4.421   2.387
 3727SOL    HW211204   4.680   4.374   2.277
 3728SOL     OW11205   3.800   4.535   2.651
 3728SOL    HW111206   3.899   4.523   2.660
 3728SOL    HW211207   3.776   4.630   2.672
 3729SOL     OW11208   4.589   4.072   2.057
 3729SOL    HW111209   4.648   4.135   2.008
 3729SOL    HW211210   4.608   3.978   2.028
 3730SOL     OW11211   4.274   3.920   2.747
 3730SOL    HW111212   4.269   3.915   2.847
 3730SOL    HW211213   4.276   4.016   2.718
 3731SOL     OW11214   4.045   4.667   2.104
 3731SOL    HW111215   4.127   4.706   2.062
 3731SOL    HW211216   4.018   4.585   2.055
 3732SOL     OW11217   3.926   4.009   3.360
 3732SOL    HW111218   3.846   4.069   3.347
 3732SOL    HW211219   3.916   3.960   3.446
 3733SOL     OW11220   4.106   4.424   2.342
 3733SOL    HW111221   4.151   4.334   2.339
 3733SOL    HW211222   4.012   4.413   2.375
 3734SOL     OW11223   4.338   3.846   1.979
 3734SOL    HW111224   4.436   3.824   1.986
 3734SOL    HW211225   4.307   3.829   1.886
 3735SOL     OW11226   4.505   3.988   3.611
 3735SOL    HW111227   4.572   3.927   3.654
 3735SOL    HW211228   4.432   4.007   3.676
 3736SOL     OW11229   4.646   4.227   2.761
 3736SOL    HW111230   4.621   4.218   2.665
 3736SOL    HW211231   4.694   4.145   2.792
 3737SOL     OW11232   4.263   3.788   2.374
 3737SOL    HW111233   4.182   3.789   2.432
 3737SOL    HW211234   4.266   3.871   2.319
 3738SOL     OW11235   4.021   3.759   2.033
 3738SOL    HW111236   4.070   3.843   2.012
 3738SOL    HW211237   4.083   3.694   2.078
 3739SOL     OW11238   4.659   3.960   2.342
 3739SOL    HW111239   4.611   4.001   2.264
 3739SOL    HW211240   4.758   3.958   2.323
 3740SOL     OW11241   4.183   4.876   2.603
 3740SOL    HW111242   4.112   4.849   2.668
 3740SOL    HW211243   4.157   4.848   2.510
 3741SOL     OW11244   4.756   4.273   1.878
 3741SOL    HW111245   4.715   4.355   1.839
 3741SOL    HW211246   4.820   4.299   1.951
 3742SOL     OW11247   3.802   4.280   3.248
 3742SOL    HW111248   3.894   4.279   3.207
 3742SOL    HW211249   3.796   4.354   3.315
 3743SOL     OW11250   4.285   3.946   3.009
 3743SOL    HW111251   4.323   3.862   3.046
 3743SOL    HW211252   4.197   3.965   3.053
 3744SOL     OW11253   4.590   4.178   2.504
 3744SOL    HW111254   4.558   4.250   2.442
 3744SOL    HW211255   4.614   4.097   2.451
 3745SOL     OW11256   4.741   3.763   2.615
 3745SOL    HW111257   4.669   3.768   2.546
 3745SOL    HW211258   4.717   3.694   2.684
 3746SOL     OW11259   4.251   3.980   2.190
 3746SOL    HW111260   4.278   3.921   2.115
 3746SOL    HW211261   4.251   4.075   2.159
 3747SOL     OW11262   4.639   3.813   3.264
 3747SOL    HW111263   4.664   3.793   3.169
 3747SOL    HW211264   4.711   3.869   3.306
 3748SOL     OW11265   4.429   4.774   2.230
 3748SOL    HW111266   4.415   4.781   2.329
 3748SOL    HW211267   4.513   4.723   2.212
 3749SOL     OW11268   4.134   4.537   3.113
 3749SOL    HW111269   4.220   4.549   3.163
 3749SOL    HW211270   4.092   4.450   3.140
 3750SOL     OW11271   4.091   4.824   2.363
 3750SOL    HW111272   4.084   4.907   2.307
 3750SOL    HW211273   4.095   4.744   2.303
 3751SOL     OW11274   4.290   4.261   2.727
 3751SOL    HW111275   4.302   4.327   2.653
 3751SOL    HW211276   4.336   4.295   2.810
 3752SOL     OW11277   4.126   4.475   3.460
 3752SOL    HW111278   4.194   4.530   3.413
 3752SOL    HW211279   4.166   4.387   3.487
 3753SOL     OW11280   4.737   3.829   3.632
 3753SOL    HW111281   4.743   3.914   3.580
 3753SOL    HW211282   4.769   3.753   3.575
 3754SOL     OW11283   4.228   3.774   3.602
 3754SOL    HW111284   4.186   3.717   3.532
 3754SOL    HW211285   4.162   3.843   3.634
 3755SOL     OW11286   4.297   4.594   2.891
 3755SOL    HW111287   4.341   4.683   2.882
 3755SOL    HW211288   4.234   4.594   2.968
 3756SOL     OW11289   4.933   4.249   2.137
 3756SOL    HW111290   4.946   4.165   2.191
 3756SOL    HW211291   4.904   4.323   2.197
 3757SOL     OW11292   4.031   3.937   3.093
 3757SOL    HW111293   4.008   3.974   3.183
 3757SOL    HW211294   4.001   3.842   3.087
 3758SOL     OW11295   4.456   4.358   2.926
 3758SOL    HW111296   4.515   4.332   2.850
 3758SOL    HW211297   4.428   4.454   2.915
 3759SOL     OW11298   4.031   3.787   2.480
 3759SOL    HW111299   4.020   3.881   2.513
 3759SOL    HW211300   4.026   3.724   2.557
 3760SOL     OW11301   4.747   4.490   2.828
 3760SOL    HW111302   4.762   4.511   2.924
 3760SOL    HW211303   4.717   4.395   2.819
 3761SOL     OW11304   4.074   4.622   3.666
 3761SOL    HW111305   4.150   4.666   3.714
 3761SOL    HW211306   4.109   4.575   3.584
 3762SOL     OW11307   4.043   4.534   2.811
 3762SOL    HW111308   4.136   4.570   2.816
 3762SOL    HW211309   4.037   4.449   2.863
 3763SOL     OW11310   4.063   4.233   2.868
 3763SOL    HW111311   4.011   4.150   2.851
 3763SOL    HW211312   4.140   4.238   2.804
 3764SOL     OW11313   4.862   4.104   3.540
 3764SOL    HW111314   4.817   4.167   3.604
 3764SOL    HW211315   4.955   4.135   3.523
 3765SOL     OW11316   4.884   3.931   3.339
 3765SOL    HW111317   4.884   3.995   3.416
 3765SOL    HW211318   4.912   3.979   3.256
 3766SOL     OW11319   4.726   4.520   3.100
 3766SOL    HW111320   4.767   4.488   3.186
 3766SOL    HW211321   4.630   4.493   3.097
 3767SOL     OW11322   3.764   4.268   2.976
 3767SOL    HW111323   3.849   4.235   2.935
 3767SOL    HW211324   3.777   4.283   3.074
 3768SOL     OW11325   3.913   4.244   3.584
 3768SOL    HW111326   3.972   4.204   3.514
 3768SOL    HW211327   3.855   4.315   3.543
 3769SOL     OW11328   4.539   4.296   2.187
 3769SOL    HW111329   4.546   4.207   2.141
 3769SOL    HW211330   4.445   4.330   2.179
 3770SOL     OW11331   4.395   4.188   3.131
 3770SOL    HW111332   4.361   4.099   3.101
 3770SOL    HW211333   4.421   4.242   3.051
 3771SOL     OW11334   4.197   4.224   2.053
 3771SOL    HW111335   4.258   4.304   2.057
 3771SOL    HW211336   4.102   4.255   2.060
 3772SOL     OW11337   3.883   4.861   3.328
 3772SOL    HW111338   3.905   4.800   3.404
 3772SOL    HW211339   3.893   4.812   3.242
 3773SOL     OW11340   5.026   4.579   2.171
 3773SOL    HW111341   4.940   4.548   2.213
 3773SOL    HW211342   5.022   4.565   2.072
 3774SOL     OW11343   3.987   4.050   2.582
 3774SOL    HW111344   3.908   4.101   2.548
 3774SOL    HW211345   3.978   4.035   2.680
 3775SOL     OW11346   4.546   4.726   3.234
 3775SOL    HW111347   4.586   4.725   3.142
 3775SOL    HW211348   4.556   4.818   3.274
 3776SOL     OW11349   4.640   4.634   2.153
 3776SOL    HW111350   4.703   4.672   2.085
 3776SOL    HW211351   4.680   4.551   2.192
 3777SOL     OW11352   4.096   5.012   3.352
 3777SOL    HW111353   4.083   5.105   3.318
 3777SOL    HW211354   4.012   4.960   3.339
 3778SOL     OW11355   4.738   3.960   2.833
 3778SOL    HW111356   4.730   3.924   2.740
 3778SOL    HW211357   4.736   3.884   2.898
 3779SOL     OW11358   3.829   4.737   3.588
 3779SOL    HW111359   3.752   4.704   3.642
 3779SOL    HW211360   3.914   4.707   3.630
 3780SOL     OW11361   4.396   3.927   3.351
 3780SOL    HW111362   4.486   3.911   3.311
 3780SOL    HW211363   4.404   3.932   3.450
 3781SOL     OW11364   3.799   4.069   1.895
 3781SOL    HW111365   3.707   4.041   1.866
 3781SOL    HW211366   3.830   4.146   1.839
 3782SOL     OW11367   3.796   3.890   2.180
 3782SOL    HW111368   3.779   3.973   2.126
 3782SOL    HW211369   3.886   3.853   2.158
 3783SOL     OW11370   4.337   4.566   3.293
 3783SOL    HW111371   4.393   4.647   3.276
 3783SOL    HW211372   4.396   4.486   3.296
 3784SOL     OW11373   4.440   4.289   3.570
 3784SOL    HW111374   4.459   4.354   3.644
 3784SOL    HW211375   4.500   4.209   3.579
 3785SOL     OW11376   4.318   4.469   2.514
 3785SOL    HW111377   4.368   4.554   2.495
 3785SOL    HW211378   4.230   4.471   2.466
 3786SOL     OW11379   4.583   4.680   2.723
 3786SOL    HW111380   4.637   4.611   2.771
 3786SOL    HW211381   4.551   4.749   2.789
 3787SOL     OW11382   4.807   4.708   1.949
 3787SOL    HW111383   4.784   4.761   1.867
 3787SOL    HW211384   4.888   4.652   1.930
 3788SOL     OW11385   4.152   4.148   2.382
 3788SOL    HW111386   4.182   4.076   2.320
 3788SOL    HW211387   4.113   4.108   2.465
 3789SOL     OW11388   4.041   4.271   3.142
 3789SOL    HW111389   4.079   4.212   3.214
 3789SOL    HW211390   4.081   4.245   3.054
 3790SOL     OW11391   4.725   3.758   3.016
 3790SOL    HW111392   4.662   3.686   2.985
 3790SOL    HW211393   4.818   3.722   3.016
 3791SOL     OW11394   4.494   5.054   2.163
 3791SOL    HW111395   4.448   4.967   2.180
 3791SOL    HW211396   4.585   5.051   2.204
 3792SOL     OW11397   3.763   4.801   2.162
 3792SOL    HW111398   3.862   4.790   2.153
 3792SOL    HW211399   3.723   4.715   2.194
 3793SOL     OW11400   3.954   4.352   3.837
 3793SOL    HW111401   3.861   4.350   3.874
 3793SOL    HW211402   3.955   4.313   3.745
 3794SOL     OW11403   3.949   3.999   4.720
 3794SOL    HW111404   3.984   3.982   4.812
 3794SOL    HW211405   3.861   3.954   4.708
 3795SOL     OW11406   3.743   4.092   4.371
 3795SOL    HW111407   3.661   4.135   4.410
 3795SOL    HW211408   3.715   4.019   4.308
 3796SOL     OW11409   4.492   4.868   4.747
 3796SOL    HW111410   4.414   4.885   4.807
 3796SOL    HW211411   4.526   4.955   4.711
 3797SOL     OW11412   4.409   4.736   4.389
 3797SOL    HW111413   4.478   4.720   4.459
 3797SOL    HW211414   4.336   4.793   4.427
 3798SOL     OW11415   3.954   5.158   4.262
 3798SOL    HW111416   3.928   5.254   4.262
 3798SOL    HW211417   3.883   5.104   4.307
 3799SOL     OW11418   3.964   4.815   4.610
 3799SOL    HW111419   3.978   4.731   4.662
 3799SOL    HW211420   3.909   4.879   4.665
 3800SOL     OW11421   4.330   4.688   3.847
 3800SOL    HW111422   4.337   4.772   3.793
 3800SOL    HW211423   4.376   4.701   3.935
 3801SOL     OW11424   3.846   4.367   4.287
 3801SOL    HW111425   3.801   4.279   4.304
 3801SOL    HW211426   3.845   4.421   4.371
 3802SOL     OW11427   4.533   3.728   4.226
 3802SOL    HW111428   4.573   3.819   4.217
 3802SOL    HW211429   4.433   3.736   4.232
 3803SOL     OW11430   3.921   4.700   4.988
 3803SOL    HW111431   4.010   4.655   4.974
 3803SOL    HW211432   3.848   4.635   4.969
 3804SOL     OW11433   4.322   4.453   3.994
 3804SOL    HW111434   4.346   4.522   3.926
 3804SOL    HW211435   4.244   4.486   4.048
 3805SOL     OW11436   4.765   4.425   4.153
 3805SOL    HW111437   4.791   4.421   4.249
 3805SOL    HW211438   4.680   4.374   4.139
 3806SOL     OW11439   3.800   4.535   4.513
 3806SOL    HW111440   3.899   4.523   4.522
 3806SOL    HW211441   3.776   4.630   4.534
 3807SOL     OW11442   4.589   4.072   3.919
 3807SOL    HW111443   4.648   4.135   3.870
 3807SOL    HW211444   4.608   3.978   3.890
 3808SOL     OW11445   4.274   3.920   4.609
 3808SOL    HW111446   4.269   3.915   4.709
 3808SOL    HW211447   4.276   4.016   4.580
 3809SOL     OW11448   4.045   4.667   3.966
 3809SOL    HW111449   4.127   4.706   3.924
 3809SOL    HW211450   4.018   4.585   3.917
 3810SOL     OW11451   4.106   4.424   4.204
 3810SOL    HW111452   4.151   4.334   4.201
 3810SOL    HW211453   4.012   4.413   4.237
 3811SOL     OW11454   4.338   3.846   3.841
 3811SOL    HW111455   4.436   3.824   3.848
 3811SOL    HW211456   4.307   3.829   3.748
 3812SOL     OW11457   4.646   4.227   4.623
 3812SOL    HW111458   4.621   4.218   4.527
 3812SOL    HW211459   4.694   4.145   4.654
 3813SOL     OW11460   4.263   3.788   4.236
 3813SOL    HW111461   4.182   3.789   4.294
 3813SOL    HW211462   4.266   3.871   4.181
 3814SOL     OW11463   4.021   3.759   3.895
 3814SOL    HW111464   4.070   3.843   3.874
 3814SOL    HW211465   4.083   3.694   3.940
 3815SOL     OW11466   4.659   3.960   4.204
 3815SOL    HW111467   4.611   4.001   4.126
 3815SOL    HW211468   4.758   3.958   4.185
 3816SOL     OW11469   4.183   4.876   4.465
 3816SOL    HW111470   4.112   4.849   4.530
 3816SOL    HW211471   4.157   4.848   4.372
 3817SOL     OW11472   4.756   4.273   3.740
 3817SOL    HW111473   4.715   4.355   3.701
 3817SOL    HW211474   4.820   4.299   3.813
 3818SOL     OW11475   4.590   4.178   4.366
 3818SOL    HW111476   4.558   4.250   4.304
 3818SOL    HW211477   4.614   4.097   4.313
 3819SOL     OW11478   4.741   3.763   4.477
 3819SOL    HW111479   4.669   3.768   4.408
 3819SOL    HW211480   4.717   3.694   4.546
 3820SOL     OW11481   4.251   3.980   4.052
 3820SOL    HW111482   4.278   3.921   3.977
 3820SOL    HW211483   4.251   4.075   4.021
 3821SOL     OW11484   4.429   4.774   4.092
 3821SOL    HW111485   4.415   4.781   4.191
 3821SOL    HW211486   4.513   4.723   4.074
 3822SOL     OW11487   4.134   4.537   4.975
 3822SOL    HW111488   4.220   4.549   5.025
 3822SOL    HW211489   4.092   4.450   5.002
 3823SOL     OW11490   4.091   4.824   4.225
 3823SOL    HW111491   4.084   4.907   4.169
 3823SOL    HW211492   4.095   4.744   4.165
 3824SOL     OW11493   4.290   4.261   4.589
 3824SOL    HW111494   4.302   4.327   4.515
 3824SOL    HW211495   4.336   4.295   4.672
 3825SOL     OW11496   4.297   4.594   4.753
 3825SOL    HW111497   4.341   4.683   4.744
 3825SOL    HW211498   4.234   4.594   4.830
 3826SOL     OW11499   4.933   4.249   3.999
 3826SOL    HW111500   4.946   4.165   4.053
 3826SOL    HW211501   4.904   4.323   4.059
 3827SOL     OW11502   4.031   3.937   4.955
 3827SOL    HW111503   4.008   3.974   5.045
 3827SOL    HW211504   4.001   3.842   4.949
 3828SOL     OW11505   4.456   4.358   4.788
 3828SOL    HW111506   4.515   4.332   4.712
 3828SOL    HW211507   4.428   4.454   4.777
 3829SOL     OW11508   4.031   3.787   4.342
 3829SOL    HW111509   4.020   3.881   4.375
 3829SOL    HW211510   4.026   3.724   4.419
 3830SOL     OW11511   4.747   4.490   4.690
 3830SOL    HW111512   4.762   4.511   4.786
 3830SOL    HW211513   4.717   4.395   4.681
 3831SOL     OW11514   4.043   4.534   4.673
 3831SOL    HW111515   4.136   4.570   4.678
 3831SOL    HW211516   4.037   4.449   4.725
 3832SOL     OW11517   4.063   4.233   4.730
 3832SOL    HW111518   4.011   4.150   4.713
 3832SOL    HW211519   4.140   4.238   4.666
 3833SOL     OW11520   4.726   4.520   4.962
 3833SOL    HW111521   4.767   4.488   5.048
 3833SOL    HW211522   4.630   4.493   4.959
 3834SOL     OW11523   3.764   4.268   4.838
 3834SOL    HW111524   3.849   4.235   4.797
 3834SOL    HW211525   3.777   4.283   4.936
 3835SOL     OW11526   4.539   4.296   4.049
 3835SOL    HW111527   4.546   4.207   4.003
 3835SOL    HW211528   4.445   4.330   4.041
 3836SOL     OW11529   4.395   4.188   4.993
 3836SOL    HW111530   4.361   4.099   4.963
 3836SOL    HW211531   4.421   4.242   4.913
 3837SOL     OW11532   4.197   4.224   3.915
 3837SOL    HW111533   4.258   4.304   3.919
 3837SOL    HW211534   4.102   4.255   3.922
 3838SOL     OW11535   5.026   4.579   4.033
 3838SOL    HW111536   4.940   4.548   4.075
 3838SOL    HW211537   5.022   4.565   3.934
 3839SOL     OW11538   3.987   4.050   4.444
 3839SOL    HW111539   3.908   4.101   4.410
 3839SOL    HW211540   3.978   4.035   4.542
 3840SOL     OW11541   4.640   4.634   4.015
 3840SOL    HW111542   4.703   4.672   3.947
 3840SOL    HW211543   4.680   4.551   4.054
 3841SOL     OW11544   4.738   3.960   4.695
 3841SOL    HW111545   4.730   3.924   4.602
 3841SOL    HW211546   4.736   3.884   4.760
 3842SOL     OW11547   3.799   4.069   3.757
 3842SOL    HW111548   3.707   4.041   3.728
 3842SOL    HW211549   3.830   4.146   3.701
 3843SOL     OW11550   3.796   3.890   4.042
 3843SOL    HW111551   3.779   3.973   3.988
 3843SOL    HW211552   3.886   3.853   4.020
 3844SOL     OW11553   4.318   4.469   4.376
 3844SOL    HW111554   4.368   4.554   4.357
 3844SOL    HW211555   4.230   4.471   4.328
 3845SOL     OW11556   4.583   4.680   4.585
 3845SOL    HW111557   4.637   4.611   4.633
 3845SOL    HW211558   4.551   4.749   4.651
 3846SOL     OW11559   4.807   4.708   3.811
 3846SOL    HW111560   4.784   4.761   3.729
 3846SOL    HW211561   4.888   4.652   3.792
 3847SOL     OW11562   4.152   4.148   4.244
 3847SOL    HW111563   4.182   4.076   4.182
 3847SOL    HW211564   4.113   4.108   4.327
 3848SOL     OW11565   4.494   5.054   4.025
 3848SOL    HW111566   4.448   4.967   4.042
 3848SOL    HW211567   4.585   5.051   4.066
 3849SOL     OW11568   3.763   4.801   4.024
 3849SOL    HW111569   3.862   4.790   4.015
 3849SOL    HW211570   3.723   4.715   4.056
   4.90040   4.90040   4.90040
