butanoic_acid
    14
   0.3280000   0.2590000   3.5150000  -1.2620000  -1.9840000   0.7850000
  -0.7520000  -0.3450000   2.6540000  -0.1900000  -1.3680000   1.6740000
   1.5220000   0.0260000   3.3740000  -0.1580000   1.1130000   4.4500000
  -1.7240000  -1.2320000   0.1390000  -2.0470000  -2.4530000   1.3850000
  -0.8210000  -2.7520000   0.1420000  -1.3180000   0.4380000   2.1370000
  -1.4650000  -0.8310000   3.3310000   0.2950000  -2.1700000   2.2410000
   0.5790000  -0.9080000   1.0430000   0.5150000   1.5420000   5.0190000
