; mobley_820789_GMX_OPLS.itp created by acpype (v: 2023.10.27) on Wed May 20 23:52:33 2026

; For OPLS atomtypes manual fine tuning
; AC_at:OPLS_at:OPLScode: Possible_Alternatives (see ffoplsaa.atp and ffoplsaanb.itp)
; c:C:opls_235: ['271']
; c3:CT:opls_135: ['136', '137', '149', '157', '158', '206', '209', '210', '223B', '224B', '245', '246', '274', '283', '284', '285', '292', '292B', '293B', '296', '307', '308', '505']
; o:O:opls_236: ['272']
; oh:OH:opls_154: ['167']
; hc:HC:opls_140: []
; ho:HO:opls_155: ['168']

[ moleculetype ]
;name            nrexcl
 mobley_820789    3

[ atoms ]
;   nr  type  resi  res  atom  cgnr     charge      mass       ; qtot   bond_type
     1 opls_235     1   MOL    C1    1     0.635099     12.01100 ; qtot  0.635  C   
     2 opls_135     1   MOL    C2    2    -0.094100     12.01100 ; qtot  0.541  CT  
     3 opls_135     1   MOL    C3    3    -0.127400     12.01100 ; qtot  0.414  CT  
     4 opls_135     1   MOL    C4    4    -0.080400     12.01100 ; qtot  0.333  CT  
     5 opls_236     1   MOL    O1    5    -0.551000     15.99940 ; qtot -0.218  O   
     6 opls_154     1   MOL    O2    6    -0.612100     15.99940 ; qtot -0.830  OH  
     7 opls_140     1   MOL    H1    7     0.037367      1.00800 ; qtot -0.793  HC  
     8 opls_140     1   MOL    H2    8     0.037367      1.00800 ; qtot -0.755  HC  
     9 opls_140     1   MOL    H3    9     0.037367      1.00800 ; qtot -0.718  HC  
    10 opls_140     1   MOL    H4   10     0.079700      1.00800 ; qtot -0.638  HC  
    11 opls_140     1   MOL    H5   11     0.079700      1.00800 ; qtot -0.558  HC  
    12 opls_140     1   MOL    H6   12     0.057700      1.00800 ; qtot -0.501  HC  
    13 opls_140     1   MOL    H7   13     0.057700      1.00800 ; qtot -0.443  HC  
    14 opls_155     1   MOL    H8   14     0.443000      1.00800 ; qtot  0.000  HO  

[ bonds ]
;   ai     aj funct   r             k
     1      3   1 ;    1.5270e-01    1.9652e+05 ;     C1 - C3          C - CT    
     1      5   1 ;    1.2190e-01    4.9421e+05 ;     C1 - O1          C - O     
     1      6   1 ;    1.3556e-01    3.0064e+05 ;     C1 - O2          C - OH    
     2      4   1 ;    1.5354e-01    1.9154e+05 ;     C2 - C4         CT - CT    
     2      7   1 ;    1.0962e-01    2.8891e+05 ;     C2 - H1         CT - HC    
     2      8   1 ;    1.0962e-01    2.8891e+05 ;     C2 - H2         CT - HC    
     2      9   1 ;    1.0962e-01    2.8891e+05 ;     C2 - H3         CT - HC    
     3      4   1 ;    1.5354e-01    1.9154e+05 ;     C3 - C4         CT - CT    
     3     10   1 ;    1.0962e-01    2.8891e+05 ;     C3 - H4         CT - HC    
     3     11   1 ;    1.0962e-01    2.8891e+05 ;     C3 - H5         CT - HC    
     4     12   1 ;    1.0962e-01    2.8891e+05 ;     C4 - H6         CT - HC    
     4     13   1 ;    1.0962e-01    2.8891e+05 ;     C4 - H7         CT - HC    
     6     14   1 ;    9.7250e-02    4.4811e+05 ;     O2 - H8         OH - HO    

[ pairs ]
;   ai     aj    funct
     1      2      1 ;     C1 - C2    
     1     12      1 ;     C1 - H6    
     1     13      1 ;     C1 - H7    
     2     10      1 ;     C2 - H4    
     2     11      1 ;     C2 - H5    
     3      7      1 ;     C3 - H1    
     3      8      1 ;     C3 - H2    
     3      9      1 ;     C3 - H3    
     3     14      1 ;     C3 - H8    
     5      4      1 ;     O1 - C4    
     5     10      1 ;     O1 - H4    
     5     11      1 ;     O1 - H5    
     5     14      1 ;     O1 - H8    
     6      4      1 ;     O2 - C4    
     6     10      1 ;     O2 - H4    
     6     11      1 ;     O2 - H5    
     7     12      1 ;     H1 - H6    
     7     13      1 ;     H1 - H7    
     8     12      1 ;     H2 - H6    
     8     13      1 ;     H2 - H7    
     9     12      1 ;     H3 - H6    
     9     13      1 ;     H3 - H7    
    10     12      1 ;     H4 - H6    
    10     13      1 ;     H4 - H7    
    11     12      1 ;     H5 - H6    
    11     13      1 ;     H5 - H7    

[ angles ]
;   ai     aj     ak    funct   theta         cth
     1      3      4      1 ;    1.1143e+02    5.0509e+02 ;     C1 - C3   - C4        C -   CT - CT  
     1      3     10      1 ;    1.0895e+02    3.6510e+02 ;     C1 - C3   - H4        C -   CT - HC  
     1      3     11      1 ;    1.0895e+02    3.6510e+02 ;     C1 - C3   - H5        C -   CT - HC  
     1      6     14      1 ;    1.0654e+02    5.7287e+02 ;     C1 - O2   - H8        C -   OH - HO  
     2      4      3      1 ;    1.1263e+02    5.0099e+02 ;     C2 - C4   - C3       CT -   CT - CT  
     2      4     12      1 ;    1.0968e+02    3.6208e+02 ;     C2 - C4   - H6       CT -   CT - HC  
     2      4     13      1 ;    1.0968e+02    3.6208e+02 ;     C2 - C4   - H7       CT -   CT - HC  
     3      1      5      1 ;    1.2290e+02    6.3973e+02 ;     C3 - C1   - O1       CT -    C - O   
     3      1      6      1 ;    1.1274e+02    6.4785e+02 ;     C3 - C1   - O2       CT -    C - OH  
     3      4     12      1 ;    1.0968e+02    3.6208e+02 ;     C3 - C4   - H6       CT -   CT - HC  
     3      4     13      1 ;    1.0968e+02    3.6208e+02 ;     C3 - C4   - H7       CT -   CT - HC  
     4      2      7      1 ;    1.0968e+02    3.6208e+02 ;     C4 - C2   - H1       CT -   CT - HC  
     4      2      8      1 ;    1.0968e+02    3.6208e+02 ;     C4 - C2   - H2       CT -   CT - HC  
     4      2      9      1 ;    1.0968e+02    3.6208e+02 ;     C4 - C2   - H3       CT -   CT - HC  
     4      3     10      1 ;    1.0968e+02    3.6208e+02 ;     C4 - C3   - H4       CT -   CT - HC  
     4      3     11      1 ;    1.0968e+02    3.6208e+02 ;     C4 - C3   - H5       CT -   CT - HC  
     5      1      6      1 ;    1.2209e+02    8.5379e+02 ;     O1 - C1   - O2        O -    C - OH  
     7      2      8      1 ;    1.0773e+02    2.9957e+02 ;     H1 - C2   - H2       HC -   CT - HC  
     7      2      9      1 ;    1.0773e+02    2.9957e+02 ;     H1 - C2   - H3       HC -   CT - HC  
     8      2      9      1 ;    1.0773e+02    2.9957e+02 ;     H2 - C2   - H3       HC -   CT - HC  
    10      3     11      1 ;    1.0773e+02    2.9957e+02 ;     H4 - C3   - H5       HC -   CT - HC  
    12      4     13      1 ;    1.0773e+02    2.9957e+02 ;     H6 - C4   - H7       HC -   CT - HC  

[ dihedrals ] ; propers
; for gromacs 4.5 or higher, using funct 9
;    i      j      k      l   func   phase     kd      pn
     1      3      4      2      9 ;     0.00   0.00000   0 ;     C1-    C3-    C4-    C2
     1      3      4      2      9 ;     0.00   0.16736   2 ;     C1-    C3-    C4-    C2
     1      3      4      2      9 ;   180.00   1.92464   1 ;     C1-    C3-    C4-    C2
     1      3      4     12      9 ;     0.00   0.65084   3 ;     C1-    C3-    C4-    H6
     1      3      4     13      9 ;     0.00   0.65084   3 ;     C1-    C3-    C4-    H7
     2      4      3     10      9 ;     0.00   0.54392   3 ;     C2-    C4-    C3-    H4
     2      4      3     11      9 ;     0.00   0.54392   3 ;     C2-    C4-    C3-    H5
     3      1      6     14      9 ;   180.00   7.53120   2 ;     C3-    C1-    O2-    H8
     3      4      2      7      9 ;     0.00   0.54392   3 ;     C3-    C4-    C2-    H1
     3      4      2      8      9 ;     0.00   0.54392   3 ;     C3-    C4-    C2-    H2
     3      4      2      9      9 ;     0.00   0.54392   3 ;     C3-    C4-    C2-    H3
     5      1      3      4      9 ;     0.00   2.84512   1 ;     O1-    C1-    C3-    C4
     5      1      3      4      9 ;   180.00   0.83680   2 ;     O1-    C1-    C3-    C4
     5      1      3      4      9 ;   180.00   1.84096   3 ;     O1-    C1-    C3-    C4
     5      1      3     10      9 ;     0.00  16.86152   1 ;     O1-    C1-    C3-    H4
     5      1      3     10      9 ;   180.00  15.31344   2 ;     O1-    C1-    C3-    H4
     5      1      3     11      9 ;     0.00  16.86152   1 ;     O1-    C1-    C3-    H5
     5      1      3     11      9 ;   180.00  15.31344   2 ;     O1-    C1-    C3-    H5
     5      1      6     14      9 ;     0.00   7.94960   1 ;     O1-    C1-    O2-    H8
     5      1      6     14      9 ;   180.00   9.62320   2 ;     O1-    C1-    O2-    H8
     6      1      3      4      9 ;   180.00   0.00000   2 ;     O2-    C1-    C3-    C4
     6      1      3     10      9 ;   180.00   0.00000   2 ;     O2-    C1-    C3-    H4
     6      1      3     11      9 ;   180.00   0.00000   2 ;     O2-    C1-    C3-    H5
     7      2      4     12      9 ;     0.00   0.50208   3 ;     H1-    C2-    C4-    H6
     7      2      4     13      9 ;     0.00   0.50208   3 ;     H1-    C2-    C4-    H7
     8      2      4     12      9 ;     0.00   0.50208   3 ;     H2-    C2-    C4-    H6
     8      2      4     13      9 ;     0.00   0.50208   3 ;     H2-    C2-    C4-    H7
     9      2      4     12      9 ;     0.00   0.50208   3 ;     H3-    C2-    C4-    H6
     9      2      4     13      9 ;     0.00   0.50208   3 ;     H3-    C2-    C4-    H7
    10      3      4     12      9 ;     0.00   0.50208   3 ;     H4-    C3-    C4-    H6
    10      3      4     13      9 ;     0.00   0.50208   3 ;     H4-    C3-    C4-    H7
    11      3      4     12      9 ;     0.00   0.50208   3 ;     H5-    C3-    C4-    H6
    11      3      4     13      9 ;     0.00   0.50208   3 ;     H5-    C3-    C4-    H7

[ dihedrals ] ; impropers
; treated as propers in GROMACS to use correct AMBER analytical function
;    i      j      k      l   func   phase     kd      pn
     6      1      5      3      4 ;   180.00   4.60240   2 ;     O2-    C1-    O1-    C3
