mobley_820789_GMX.gro created by acpype (v: 2023.10.27) on Wed May 20 23:52:33 2026
 14
    1  MOL   C1    1   0.033   0.026   0.352
    1  MOL   C2    2  -0.126  -0.198   0.079
    1  MOL   C3    3  -0.075  -0.034   0.265
    1  MOL   C4    4  -0.019  -0.137   0.167
    1  MOL   O1    5   0.152   0.003   0.337
    1  MOL   O2    6  -0.016   0.111   0.445
    1  MOL   H1    7  -0.172  -0.123   0.014
    1  MOL   H2    8  -0.205  -0.245   0.139
    1  MOL   H3    9  -0.082  -0.275   0.014
    1  MOL   H4   10  -0.132   0.044   0.214
    1  MOL   H5   11  -0.147  -0.083   0.333
    1  MOL   H6   12   0.029  -0.217   0.224
    1  MOL   H7   13   0.058  -0.091   0.104
    1  MOL   H8   14   0.052   0.154   0.502
    7.13800     8.58800     9.76000
