; mobley_8011706_GMX_OPLS.itp created by acpype (v: 2023.10.27) on Wed May 20 23:42:15 2026

; For OPLS atomtypes manual fine tuning
; AC_at:OPLS_at:OPLScode: Possible_Alternatives (see ffoplsaa.atp and ffoplsaanb.itp)
; c:C:opls_235: ['271']
; c3:CT:opls_135: ['136', '137', '149', '157', '158', '206', '209', '210', '223B', '224B', '245', '246', '274', '283', '284', '285', '292', '292B', '293B', '296', '307', '308', '505']
; n:N:opls_237: ['238', '239']
; o:O:opls_236: ['272']
; h5:HA:opls_146: []
; h1:HC:opls_140: []

[ moleculetype ]
;name            nrexcl
 mobley_8011706   3

[ atoms ]
;   nr  type  resi  res  atom  cgnr     charge      mass       ; qtot   bond_type
     1 opls_235     1   MOL    C1    1     0.661900     12.01100 ; qtot  0.662  C   
     2 opls_135     1   MOL    C2    2     0.079300     12.01100 ; qtot  0.741  CT  
     3 opls_135     1   MOL    C3    3     0.079300     12.01100 ; qtot  0.820  CT  
     4 opls_237     1   MOL    N1    4    -0.494800     14.00670 ; qtot  0.326  N   
     5 opls_236     1   MOL    O1    5    -0.604100     15.99940 ; qtot -0.278  O   
     6 opls_146     1   MOL    H1    6     0.028200      1.00800 ; qtot -0.250  HA  
     7 opls_140     1   MOL    H2    7     0.041700      1.00800 ; qtot -0.208  HC  
     8 opls_140     1   MOL    H3    8     0.041700      1.00800 ; qtot -0.167  HC  
     9 opls_140     1   MOL    H4    9     0.041700      1.00800 ; qtot -0.125  HC  
    10 opls_140     1   MOL    H5   10     0.041700      1.00800 ; qtot -0.083  HC  
    11 opls_140     1   MOL    H6   11     0.041700      1.00800 ; qtot -0.042  HC  
    12 opls_140     1   MOL    H7   12     0.041700      1.00800 ; qtot  0.000  HC  

[ bonds ]
;   ai     aj funct   r             k
     1      4   1 ;    1.3967e-01    2.6565e+05 ;     C1 - N1          C - N     
     1      5   1 ;    1.2190e-01    4.9421e+05 ;     C1 - O1          C - O     
     1      6   1 ;    1.1053e-01    2.7793e+05 ;     C1 - H1          C - HA    
     2      4   1 ;    1.4643e-01    2.1293e+05 ;     C2 - N1         CT - N     
     2      7   1 ;    1.0969e-01    2.8804e+05 ;     C2 - H2         CT - HC    
     2      8   1 ;    1.0969e-01    2.8804e+05 ;     C2 - H3         CT - HC    
     2      9   1 ;    1.0969e-01    2.8804e+05 ;     C2 - H4         CT - HC    
     3      4   1 ;    1.4643e-01    2.1293e+05 ;     C3 - N1         CT - N     
     3     10   1 ;    1.0969e-01    2.8804e+05 ;     C3 - H5         CT - HC    
     3     11   1 ;    1.0969e-01    2.8804e+05 ;     C3 - H6         CT - HC    
     3     12   1 ;    1.0969e-01    2.8804e+05 ;     C3 - H7         CT - HC    

[ pairs ]
;   ai     aj    funct
     1      7      1 ;     C1 - H2    
     1      8      1 ;     C1 - H3    
     1      9      1 ;     C1 - H4    
     1     10      1 ;     C1 - H5    
     1     11      1 ;     C1 - H6    
     1     12      1 ;     C1 - H7    
     2     10      1 ;     C2 - H5    
     2     11      1 ;     C2 - H6    
     2     12      1 ;     C2 - H7    
     3      7      1 ;     C3 - H2    
     3      8      1 ;     C3 - H3    
     3      9      1 ;     C3 - H4    
     5      2      1 ;     O1 - C2    
     5      3      1 ;     O1 - C3    
     6      2      1 ;     H1 - C2    
     6      3      1 ;     H1 - C3    

[ angles ]
;   ai     aj     ak    funct   theta         cth
     1      4      2      1 ;    1.1883e+02    6.4634e+02 ;     C1 - N1   - C2        C -    N - CT  
     1      4      3      1 ;    1.1883e+02    6.4634e+02 ;     C1 - N1   - C3        C -    N - CT  
     2      4      3      1 ;    1.1675e+02    6.3773e+02 ;     C2 - N1   - C3       CT -    N - CT  
     4      1      5      1 ;    1.2257e+02    7.2534e+02 ;     N1 - C1   - O1        N -    C - O   
     4      1      6      1 ;    1.1214e+02    4.1137e+02 ;     N1 - C1   - H1        N -    C - HA  
     4      2      7      1 ;    1.0876e+02    4.0242e+02 ;     N1 - C2   - H2        N -   CT - HC  
     4      2      8      1 ;    1.0876e+02    4.0242e+02 ;     N1 - C2   - H3        N -   CT - HC  
     4      2      9      1 ;    1.0876e+02    4.0242e+02 ;     N1 - C2   - H4        N -   CT - HC  
     4      3     10      1 ;    1.0876e+02    4.0242e+02 ;     N1 - C3   - H5        N -   CT - HC  
     4      3     11      1 ;    1.0876e+02    4.0242e+02 ;     N1 - C3   - H6        N -   CT - HC  
     4      3     12      1 ;    1.0876e+02    4.0242e+02 ;     N1 - C3   - H7        N -   CT - HC  
     5      1      6      1 ;    1.2378e+02    4.9664e+02 ;     O1 - C1   - H1        O -    C - HA  
     7      2      8      1 ;    1.0855e+02    2.9824e+02 ;     H2 - C2   - H3       HC -   CT - HC  
     7      2      9      1 ;    1.0855e+02    2.9824e+02 ;     H2 - C2   - H4       HC -   CT - HC  
     8      2      9      1 ;    1.0855e+02    2.9824e+02 ;     H3 - C2   - H4       HC -   CT - HC  
    10      3     11      1 ;    1.0855e+02    2.9824e+02 ;     H5 - C3   - H6       HC -   CT - HC  
    10      3     12      1 ;    1.0855e+02    2.9824e+02 ;     H5 - C3   - H7       HC -   CT - HC  
    11      3     12      1 ;    1.0855e+02    2.9824e+02 ;     H6 - C3   - H7       HC -   CT - HC  

[ dihedrals ] ; propers
; for gromacs 4.5 or higher, using funct 9
;    i      j      k      l   func   phase     kd      pn
     1      4      2      7      9 ;   180.00   0.00000   2 ;     C1-    N1-    C2-    H2
     1      4      2      8      9 ;   180.00   0.00000   2 ;     C1-    N1-    C2-    H3
     1      4      2      9      9 ;   180.00   0.00000   2 ;     C1-    N1-    C2-    H4
     1      4      3     10      9 ;   180.00   0.00000   2 ;     C1-    N1-    C3-    H5
     1      4      3     11      9 ;   180.00   0.00000   2 ;     C1-    N1-    C3-    H6
     1      4      3     12      9 ;   180.00   0.00000   2 ;     C1-    N1-    C3-    H7
     2      4      3     10      9 ;     0.00   0.00000   0 ;     C2-    N1-    C3-    H5
     2      4      3     11      9 ;     0.00   0.00000   0 ;     C2-    N1-    C3-    H6
     2      4      3     12      9 ;     0.00   0.00000   0 ;     C2-    N1-    C3-    H7
     3      4      2      7      9 ;     0.00   0.00000   0 ;     C3-    N1-    C2-    H2
     3      4      2      8      9 ;     0.00   0.00000   0 ;     C3-    N1-    C2-    H3
     3      4      2      9      9 ;     0.00   0.00000   0 ;     C3-    N1-    C2-    H4
     5      1      4      2      9 ;   180.00  10.46000   2 ;     O1-    C1-    N1-    C2
     5      1      4      3      9 ;   180.00  10.46000   2 ;     O1-    C1-    N1-    C3
     6      1      4      2      9 ;   180.00  10.46000   2 ;     H1-    C1-    N1-    C2
     6      1      4      3      9 ;   180.00  10.46000   2 ;     H1-    C1-    N1-    C3

[ dihedrals ] ; impropers
; treated as propers in GROMACS to use correct AMBER analytical function
;    i      j      k      l   func   phase     kd      pn
     1      2      4      3      4 ;   180.00   4.60240   2 ;     C1-    C2-    N1-    C3
     5      1      4      6      4 ;   180.00  43.93200   2 ;     O1-    C1-    N1-    H1
