mobley_8011706_GMX.gro created by acpype (v: 2023.10.27) on Wed May 20 23:42:15 2026
 12
    1  MOL   C1    1   0.282  -0.144   0.025
    1  MOL   C2    2   0.093  -0.008  -0.057
    1  MOL   C3    3   0.078  -0.256  -0.061
    1  MOL   N1    4   0.155  -0.136  -0.029
    1  MOL   O1    5   0.356  -0.052   0.056
    1  MOL   H1    6   0.314  -0.249   0.040
    1  MOL   H2    7  -0.013  -0.014  -0.033
    1  MOL   H3    8   0.105   0.015  -0.164
    1  MOL   H4    9   0.141   0.069   0.003
    1  MOL   H5   10  -0.005  -0.263   0.009
    1  MOL   H6   11   0.144  -0.343  -0.051
    1  MOL   H7   12   0.041  -0.248  -0.163
    7.38600     8.23200     4.38800
