; mobley_8011706_GMX_OPLS.top created by acpype (v: 2023.10.27) on Wed May 20 23:42:15 2026

; Include forcefield parameters
#include "ffoplsaa.itp"

; Include mobley_8011706_GMX.itp topology
#include "mobley_8011706_GMX.itp"

; Ligand position restraints
#ifdef POSRES_LIG
#include "posre_mobley_8011706.itp"
#endif

[ system ]
 mobley_8011706

[ molecules ]
; Compound        nmols
 mobley_8011706   1     
