mobley_4395315_GMX.gro created by acpype (v: 2023.10.27) on Thu May 21 00:02:31 2026
 16
    1  MOL   C1    1   0.082  -0.044   0.056
    1  MOL   C2    2   0.080  -0.041   0.196
    1  MOL   C3    3   0.294  -0.160   0.062
    1  MOL   C4    4   0.292  -0.157   0.201
    1  MOL   C5    5   0.189  -0.103  -0.011
    1  MOL   C6    6   0.185  -0.097   0.268
    1  MOL   C7    7   0.406  -0.218   0.275
    1  MOL   O1    8   0.191  -0.107  -0.147
    1  MOL  CL1    9   0.179  -0.091   0.441
    1  MOL   H1   10  -0.000   0.000   0.001
    1  MOL   H2   11  -0.004   0.006   0.246
    1  MOL   H3   12   0.377  -0.206   0.009
    1  MOL   H4   13   0.456  -0.142   0.337
    1  MOL   H5   14   0.372  -0.299   0.341
    1  MOL   H6   15   0.480  -0.261   0.206
    1  MOL   H7   16   0.268  -0.159  -0.176
    9.67400     6.10800    12.33200
