; mobley_4395315_GMX_OPLS.top created by acpype (v: 2023.10.27) on Thu May 21 00:02:31 2026

; Include forcefield parameters
#include "ffoplsaa.itp"

; Include mobley_4395315_GMX.itp topology
#include "mobley_4395315_GMX.itp"

; Ligand position restraints
#ifdef POSRES_LIG
#include "posre_mobley_4395315.itp"
#endif

[ system ]
 mobley_4395315

[ molecules ]
; Compound        nmols
 mobley_4395315   1     
