%VERSION  VERSION_STAMP = V0001.000  DATE = 05/21/26  00:02:32                  
%FLAG TITLE                                                                     
%FORMAT(20a4)                                                                   
4_chloro_3_methylphenol                                                         
%FLAG POINTERS                                                                  
%FORMAT(10I8)                                                                   
      16       7       7       9      13      12      22      16       0       0
      74       1       9      12      16       7       8       4       7       0
       0       0       0       0       0       0       0       0      16       0
       0
%FLAG ATOM_NAME                                                                 
%FORMAT(20a4)                                                                   
C1  C2  C3  C4  C5  C6  C7  O1  Cl1 H1  H2  H3  H4  H5  H6  H7  
%FLAG CHARGE                                                                    
%FORMAT(5E16.8)                                                                 
 -2.82445650E+00 -1.58534010E+00 -3.82668300E+00 -4.79246490E-01  2.37072123E+00
 -4.11823980E-01 -1.07147124E+00 -9.02186073E+00 -1.77485202E+00  2.82445650E+00
  2.71512270E+00  2.51467740E+00  9.66383236E-01  9.66383236E-01  9.66383236E-01
  7.67158830E+00
%FLAG ATOMIC_NUMBER                                                             
%FORMAT(10I8)                                                                   
       6       6       6       6       6       6       6       8      17       1
       1       1       1       1       1       1
%FLAG MASS                                                                      
%FORMAT(5E16.8)                                                                 
  1.20100000E+01  1.20100000E+01  1.20100000E+01  1.20100000E+01  1.20100000E+01
  1.20100000E+01  1.20100000E+01  1.60000000E+01  3.54500000E+01  1.00800000E+00
  1.00800000E+00  1.00800000E+00  1.00800000E+00  1.00800000E+00  1.00800000E+00
  1.00800000E+00
%FLAG ATOM_TYPE_INDEX                                                           
%FORMAT(10I8)                                                                   
       1       1       1       1       1       1       2       3       4       5
       5       5       6       6       6       7
%FLAG NUMBER_EXCLUDED_ATOMS                                                     
%FORMAT(10I8)                                                                   
      11       9      12      10       7       8       5       3       1       1
       1       1       2       1       1       1
%FLAG NONBONDED_PARM_INDEX                                                      
%FORMAT(10I8)                                                                   
       1       2       4       7      11      16      22       2       3       5
       8      12      17      23       4       5       6       9      13      18
      24       7       8       9      10      14      19      25      11      12
      13      14      15      20      26      16      17      18      19      20
      21      27      22      23      24      25      26      27      28
%FLAG RESIDUE_LABEL                                                             
%FORMAT(20a4)                                                                   
MOL 
%FLAG RESIDUE_POINTER                                                           
%FORMAT(10I8)                                                                   
       1
%FLAG BOND_FORCE_CONSTANT                                                       
%FORMAT(5E16.8)                                                                 
  3.54250000E+02  3.60690000E+02  2.43910000E+02  3.48550000E+02  1.87980000E+02
  3.45250000E+02  5.35510000E+02
%FLAG BOND_EQUIL_VALUE                                                          
%FORMAT(5E16.8)                                                                 
  1.39860000E+00  1.08600000E+00  1.51470000E+00  1.36440000E+00  1.75720000E+00
  1.09620000E+00  9.72500000E-01
%FLAG ANGLE_FORCE_CONSTANT                                                      
%FORMAT(5E16.8)                                                                 
  6.36700000E+01  4.49000000E+01  7.88600000E+01  6.40600000E+01  6.07400000E+01
  4.36100000E+01  6.74100000E+01  3.58000000E+01
%FLAG ANGLE_EQUIL_VALUE                                                         
%FORMAT(5E16.8)                                                                 
  2.09474507E+00  2.09230160E+00  2.09265067E+00  2.08357495E+00  2.10888224E+00
  1.93085858E+00  1.89507931E+00  1.88024401E+00
%FLAG DIHEDRAL_FORCE_CONSTANT                                                   
%FORMAT(5E16.8)                                                                 
  3.62500000E+00  8.55000000E-01  0.00000000E+00  1.10000000E+00
%FLAG DIHEDRAL_PERIODICITY                                                      
%FORMAT(5E16.8)                                                                 
  2.00000000E+00  2.00000000E+00  1.00000000E+00  2.00000000E+00
%FLAG DIHEDRAL_PHASE                                                            
%FORMAT(5E16.8)                                                                 
  3.14159400E+00  3.14159400E+00  0.00000000E+00  3.14159400E+00
%FLAG SCEE_SCALE_FACTOR                                                         
%FORMAT(5E16.8)                                                                 
  1.20000000E+00  1.20000000E+00  1.20000000E+00  0.00000000E+00
%FLAG SCNB_SCALE_FACTOR                                                         
%FORMAT(5E16.8)                                                                 
  2.00000000E+00  2.00000000E+00  2.00000000E+00  0.00000000E+00
%FLAG SOLTY                                                                     
%FORMAT(5E16.8)                                                                 
  0.00000000E+00  0.00000000E+00  0.00000000E+00  0.00000000E+00  0.00000000E+00
  0.00000000E+00  0.00000000E+00
%FLAG LENNARD_JONES_ACOEF                                                       
%FORMAT(5E16.8)                                                                 
  6.96551276E+05  8.43969952E+05  1.02073671E+06  5.92438683E+05  7.18991463E+05
  5.03152404E+05  1.49062160E+06  1.80018612E+06  1.27155594E+06  3.17107030E+06
  7.52549148E+04  9.27554496E+04  6.30298721E+04  1.66104821E+05  6.90855956E+03
  8.12662403E+04  1.00235148E+05  6.80216136E+04  1.79601155E+05  7.41026906E+03
  7.94617769E+03  2.25372434E+02  3.03553352E+02  1.74176419E+02  5.83653537E+02
  8.53132435E+00  8.80612241E+00  1.10360882E-05
%FLAG LENNARD_JONES_BCOEF                                                       
%FORMAT(5E16.8)                                                                 
  5.24668528E+02  5.90251928E+02  6.63431737E+02  4.76608379E+02  5.36620538E+02
  4.32634597E+02  9.81118883E+02  1.10195051E+03  8.92559477E+02  1.82923847E+03
  1.09570372E+02  1.24325688E+02  9.87712192E+01  2.08087638E+02  2.10929191E+01
  1.21392023E+02  1.37787728E+02  1.09393126E+02  2.30684859E+02  2.32899892E+01
  2.57122925E+01  4.40751799E+00  5.22789272E+00  3.81654050E+00  9.06673074E+00
  5.44840215E-01  5.90150328E-01  4.55498033E-04
%FLAG BONDS_INC_HYDROGEN                                                        
%FORMAT(10I8)                                                                   
       0      27       2       3      30       2       6      33       2      18
      36       6      18      39       6      18      42       6      21      45
       7
%FLAG BONDS_WITHOUT_HYDROGEN                                                    
%FORMAT(10I8)                                                                   
       0       3       1       0      12       1       3      15       1       6
       9       1       6      12       1       9      15       1       9      18
       3      12      21       4      15      24       5
%FLAG ANGLES_INC_HYDROGEN                                                       
%FORMAT(10I8)                                                                   
       0       3      30       2       3       0      27       2       9       6
      33       2       9      18      36       6       9      18      39       6
       9      18      42       6      12       0      27       2      12       6
      33       2      12      21      45       7      15       3      30       2
      36      18      39       8      36      18      42       8      39      18
      42       8
%FLAG ANGLES_WITHOUT_HYDROGEN                                                   
%FORMAT(10I8)                                                                   
       0       3      15       1       0      12       6       1       0      12
      21       3       3       0      12       1       3      15       9       1
       3      15      24       4       6       9      15       1       6       9
      18       5       6      12      21       3       9       6      12       1
       9      15      24       4      15       9      18       5
%FLAG DIHEDRALS_INC_HYDROGEN                                                    
%FORMAT(10I8)                                                                   
       0      12       6      33       1       0      12      21      45       2
       6       9      18      36       3       6       9      18      39       3
       6       9      18      42       3      27       0      12       6       1
       6      12      21      45       2       9      15       3      30       1
      12       0       3      30       1      27       0       3      15       1
      15       9       6      33       1      15       9      18      36       3
      15       9      18      39       3      15       9      18      42       3
      18       9       6      33       1      27       0      12      21       1
      21      12       6      33       1      24      15       3      30       1
      27       0       3      30       1      27       0     -12      -3       4
       0      15      -3     -30       4       9      12      -6     -33       4
%FLAG DIHEDRALS_WITHOUT_HYDROGEN                                                
%FORMAT(10I8)                                                                   
       0       3      15       9       1       0       3      15      24       1
       0      12      -6       9       1       3       0      12       6       1
       3       0      12      21       1       3      15      -9       6       1
       3      15       9      18       1       6       9      15      24       1
       9       6      12      21       1      12       0       3      15       1
      12       6      -9      15       1      12       6       9      18       1
      18       9      15      24       1       6      15      -9     -18       4
       0       6     -12     -21       4       3       9     -15     -24       4
%FLAG EXCLUDED_ATOMS_LIST                                                       
%FORMAT(10I8)                                                                   
       2       3       4       5       6       8       9      10      11      12
      16       3       4       5       6       7       8       9      10      11
       4       5       6       7       8       9      10      12      13      14
      15      16       5       6       7       8       9      11      12      13
      14      15       6       7       8      10      11      12      16       7
       9      10      11      12      13      14      15       9      12      13
      14      15      10      12      16      11      11       0       0      14
      15      15       0       0
%FLAG HBOND_ACOEF                                                               
%FORMAT(5E16.8)                                                                 

%FLAG HBOND_BCOEF                                                               
%FORMAT(5E16.8)                                                                 

%FLAG HBCUT                                                                     
%FORMAT(5E16.8)                                                                 

%FLAG AMBER_ATOM_TYPE                                                           
%FORMAT(20a4)                                                                   
ca  ca  ca  ca  ca  ca  c3  oh  cl  ha  ha  ha  hc  hc  hc  ho  
%FLAG TREE_CHAIN_CLASSIFICATION                                                 
%FORMAT(20a4)                                                                   
BLA BLA BLA BLA BLA BLA BLA BLA BLA BLA BLA BLA BLA BLA BLA BLA 
%FLAG JOIN_ARRAY                                                                
%FORMAT(10I8)                                                                   
       0       0       0       0       0       0       0       0       0       0
       0       0       0       0       0       0
%FLAG IROTAT                                                                    
%FORMAT(10I8)                                                                   
       0       0       0       0       0       0       0       0       0       0
       0       0       0       0       0       0
%FLAG RADIUS_SET                                                                
%FORMAT(1a80)                                                                   
modified Bondi radii (mbondi)                                                   
%FLAG RADII                                                                     
%FORMAT(5E16.8)                                                                 
  1.70000000E+00  1.70000000E+00  1.70000000E+00  1.70000000E+00  1.70000000E+00
  1.70000000E+00  1.70000000E+00  1.50000000E+00  1.70000000E+00  1.30000000E+00
  1.30000000E+00  1.30000000E+00  1.30000000E+00  1.30000000E+00  1.30000000E+00
  8.00000000E-01
%FLAG SCREEN                                                                    
%FORMAT(5E16.8)                                                                 
  7.20000000E-01  7.20000000E-01  7.20000000E-01  7.20000000E-01  7.20000000E-01
  7.20000000E-01  7.20000000E-01  8.50000000E-01  8.00000000E-01  8.50000000E-01
  8.50000000E-01  8.50000000E-01  8.50000000E-01  8.50000000E-01  8.50000000E-01
  8.50000000E-01
%FLAG IPOL                                                                      
%FORMAT(1I8)                                                                    
       0
