4_chloro_3_methylphenol
    16
   0.8180000  -0.4390000   0.5640000   0.7990000  -0.4060000   1.9590000
   2.9370000  -1.5970000   0.6200000   2.9180000  -1.5650000   2.0140000
   1.8870000  -1.0340000  -0.1050000   1.8500000  -0.9690000   2.6840000
   4.0630000  -2.1790000   2.7540000   1.9050000  -1.0660000  -1.4660000
   1.7920000  -0.9100000   4.4080000  -0.0030000   0.0020000   0.0050000
  -0.0410000   0.0620000   2.4650000   3.7680000  -2.0600000   0.0930000
   4.5640000  -1.4240000   3.3700000   3.7210000  -2.9920000   3.4050000
   4.7960000  -2.6090000   2.0610000   2.6750000  -1.5860000  -1.7580000
