; mobley_4395315_GMX_OPLS.itp created by acpype (v: 2023.10.27) on Thu May 21 00:02:31 2026

; For OPLS atomtypes manual fine tuning
; AC_at:OPLS_at:OPLScode: Possible_Alternatives (see ffoplsaa.atp and ffoplsaanb.itp)
; ca:CA:opls_145: ['166', '501', '502']
; c3:CT:opls_135: ['136', '137', '149', '157', '158', '206', '209', '210', '223B', '224B', '245', '246', '274', '283', '284', '285', '292', '292B', '293B', '296', '307', '308', '505']
; oh:OH:opls_154: ['167']
; cl:x:opls_x: []
; ha:HA:opls_146: []
; hc:HC:opls_140: []
; ho:HO:opls_155: ['168']

[ moleculetype ]
;name            nrexcl
 mobley_4395315   3

[ atoms ]
;   nr  type  resi  res  atom  cgnr     charge      mass       ; qtot   bond_type
     1 opls_145     1   MOL    C1    1    -0.155000     12.01100 ; qtot -0.155  CA  
     2 opls_145     1   MOL    C2    2    -0.087000     12.01100 ; qtot -0.242  CA  
     3 opls_145     1   MOL    C3    3    -0.210000     12.01100 ; qtot -0.452  CA  
     4 opls_145     1   MOL    C4    4    -0.026300     12.01100 ; qtot -0.478  CA  
     5 opls_145     1   MOL    C5    5     0.130100     12.01100 ; qtot -0.348  CA  
     6 opls_145     1   MOL    C6    6    -0.022600     12.01100 ; qtot -0.371  CA  
     7 opls_135     1   MOL    C7    7    -0.058800     12.01100 ; qtot -0.430  CT  
     8 opls_154     1   MOL    O1    8    -0.495099     15.99940 ; qtot -0.925  OH  
     9 opls_x     1   MOL   CL1    9    -0.097400      0.00000 ; qtot -1.022  x   
    10 opls_146     1   MOL    H1   10     0.155000      1.00800 ; qtot -0.867  HA  
    11 opls_146     1   MOL    H2   11     0.149000      1.00800 ; qtot -0.718  HA  
    12 opls_146     1   MOL    H3   12     0.138000      1.00800 ; qtot -0.580  HA  
    13 opls_140     1   MOL    H4   13     0.053033      1.00800 ; qtot -0.527  HC  
    14 opls_140     1   MOL    H5   14     0.053033      1.00800 ; qtot -0.474  HC  
    15 opls_140     1   MOL    H6   15     0.053033      1.00800 ; qtot -0.421  HC  
    16 opls_155     1   MOL    H7   16     0.421000      1.00800 ; qtot  0.000  HO  

[ bonds ]
;   ai     aj funct   r             k
     1      2   1 ;    1.3986e-01    2.9644e+05 ;     C1 - C2         CA - CA    
     1      5   1 ;    1.3986e-01    2.9644e+05 ;     C1 - C5         CA - CA    
     1     10   1 ;    1.0860e-01    3.0183e+05 ;     C1 - H1         CA - HA    
     2      6   1 ;    1.3986e-01    2.9644e+05 ;     C2 - C6         CA - CA    
     2     11   1 ;    1.0860e-01    3.0183e+05 ;     C2 - H2         CA - HA    
     3      4   1 ;    1.3986e-01    2.9644e+05 ;     C3 - C4         CA - CA    
     3      5   1 ;    1.3986e-01    2.9644e+05 ;     C3 - C5         CA - CA    
     3     12   1 ;    1.0860e-01    3.0183e+05 ;     C3 - H3         CA - HA    
     4      6   1 ;    1.3986e-01    2.9644e+05 ;     C4 - C6         CA - CA    
     4      7   1 ;    1.5147e-01    2.0410e+05 ;     C4 - C7         CA - CT    
     5      8   1 ;    1.3644e-01    2.9167e+05 ;     C5 - O1         CA - OH    
     6      9   1 ;    1.7572e-01    1.5730e+05 ;     C6 - CL1        CA - x     
     7     13   1 ;    1.0962e-01    2.8891e+05 ;     C7 - H4         CT - HC    
     7     14   1 ;    1.0962e-01    2.8891e+05 ;     C7 - H5         CT - HC    
     7     15   1 ;    1.0962e-01    2.8891e+05 ;     C7 - H6         CT - HC    
     8     16   1 ;    9.7250e-02    4.4811e+05 ;     O1 - H7         OH - HO    

[ pairs ]
;   ai     aj    funct
     1      4      1 ;     C1 - C4    
     1      9      1 ;     C1 - CL1   
     1     12      1 ;     C1 - H3    
     1     16      1 ;     C1 - H7    
     2      3      1 ;     C2 - C3    
     2      7      1 ;     C2 - C7    
     2      8      1 ;     C2 - O1    
     3      9      1 ;     C3 - CL1   
     3     13      1 ;     C3 - H4    
     3     14      1 ;     C3 - H5    
     3     15      1 ;     C3 - H6    
     3     16      1 ;     C3 - H7    
     4      8      1 ;     C4 - O1    
     4     11      1 ;     C4 - H2    
     5      6      1 ;     C5 - C6    
     5      7      1 ;     C5 - C7    
     5     11      1 ;     C5 - H2    
     6     12      1 ;     C6 - H3    
     6     13      1 ;     C6 - H4    
     6     14      1 ;     C6 - H5    
     6     15      1 ;     C6 - H6    
     7      9      1 ;     C7 - CL1   
     7     12      1 ;     C7 - H3    
     8     12      1 ;     O1 - H3    
     9     11      1 ;    CL1 - H2    
    10      3      1 ;     H1 - C3    
    10      6      1 ;     H1 - C6    
    10      8      1 ;     H1 - O1    
    10     11      1 ;     H1 - H2    

[ angles ]
;   ai     aj     ak    funct   theta         cth
     1      2      6      1 ;    1.2002e+02    5.3279e+02 ;     C1 - C2   - C6       CA -   CA - CA  
     1      2     11      1 ;    1.1988e+02    3.7572e+02 ;     C1 - C2   - H2       CA -   CA - HA  
     1      5      3      1 ;    1.2002e+02    5.3279e+02 ;     C1 - C5   - C3       CA -   CA - CA  
     1      5      8      1 ;    1.1990e+02    6.5990e+02 ;     C1 - C5   - O1       CA -   CA - OH  
     2      1      5      1 ;    1.2002e+02    5.3279e+02 ;     C2 - C1   - C5       CA -   CA - CA  
     2      1     10      1 ;    1.1988e+02    3.7572e+02 ;     C2 - C1   - H1       CA -   CA - HA  
     2      6      4      1 ;    1.2002e+02    5.3279e+02 ;     C2 - C6   - C4       CA -   CA - CA  
     2      6      9      1 ;    1.1938e+02    5.3605e+02 ;     C2 - C6   - CL1      CA -   CA - x   
     3      4      6      1 ;    1.2002e+02    5.3279e+02 ;     C3 - C4   - C6       CA -   CA - CA  
     3      4      7      1 ;    1.2083e+02    5.0827e+02 ;     C3 - C4   - C7       CA -   CA - CT  
     3      5      8      1 ;    1.1990e+02    6.5990e+02 ;     C3 - C5   - O1       CA -   CA - OH  
     4      3      5      1 ;    1.2002e+02    5.3279e+02 ;     C4 - C3   - C5       CA -   CA - CA  
     4      3     12      1 ;    1.1988e+02    3.7572e+02 ;     C4 - C3   - H3       CA -   CA - HA  
     4      6      9      1 ;    1.1938e+02    5.3605e+02 ;     C4 - C6   - CL1      CA -   CA - x   
     4      7     13      1 ;    1.1063e+02    3.6493e+02 ;     C4 - C7   - H4       CA -   CT - HC  
     4      7     14      1 ;    1.1063e+02    3.6493e+02 ;     C4 - C7   - H5       CA -   CT - HC  
     4      7     15      1 ;    1.1063e+02    3.6493e+02 ;     C4 - C7   - H6       CA -   CT - HC  
     5      1     10      1 ;    1.1988e+02    3.7572e+02 ;     C5 - C1   - H1       CA -   CA - HA  
     5      3     12      1 ;    1.1988e+02    3.7572e+02 ;     C5 - C3   - H3       CA -   CA - HA  
     5      8     16      1 ;    1.0858e+02    5.6409e+02 ;     C5 - O1   - H7       CA -   OH - HO  
     6      2     11      1 ;    1.1988e+02    3.7572e+02 ;     C6 - C2   - H2       CA -   CA - HA  
     6      4      7      1 ;    1.2083e+02    5.0827e+02 ;     C6 - C4   - C7       CA -   CA - CT  
    13      7     14      1 ;    1.0773e+02    2.9957e+02 ;     H4 - C7   - H5       HC -   CT - HC  
    13      7     15      1 ;    1.0773e+02    2.9957e+02 ;     H4 - C7   - H6       HC -   CT - HC  
    14      7     15      1 ;    1.0773e+02    2.9957e+02 ;     H5 - C7   - H6       HC -   CT - HC  

[ dihedrals ] ; propers
; for gromacs 4.5 or higher, using funct 9
;    i      j      k      l   func   phase     kd      pn
     1      2      6      4      9 ;   180.00  15.16700   2 ;     C1-    C2-    C6-    C4
     1      2      6      9      9 ;   180.00  15.16700   2 ;     C1-    C2-    C6-   CL1
     1      5      3      4      9 ;   180.00  15.16700   2 ;     C1-    C5-    C3-    C4
     1      5      3     12      9 ;   180.00  15.16700   2 ;     C1-    C5-    C3-    H3
     1      5      8     16      9 ;   180.00   3.57732   2 ;     C1-    C5-    O1-    H7
     2      1      5      3      9 ;   180.00  15.16700   2 ;     C2-    C1-    C5-    C3
     2      1      5      8      9 ;   180.00  15.16700   2 ;     C2-    C1-    C5-    O1
     2      6      4      3      9 ;   180.00  15.16700   2 ;     C2-    C6-    C4-    C3
     2      6      4      7      9 ;   180.00  15.16700   2 ;     C2-    C6-    C4-    C7
     3      4      6      9      9 ;   180.00  15.16700   2 ;     C3-    C4-    C6-   CL1
     3      4      7     13      9 ;     0.00   0.00000   0 ;     C3-    C4-    C7-    H4
     3      4      7     14      9 ;     0.00   0.00000   0 ;     C3-    C4-    C7-    H5
     3      4      7     15      9 ;     0.00   0.00000   0 ;     C3-    C4-    C7-    H6
     3      5      8     16      9 ;   180.00   3.57732   2 ;     C3-    C5-    O1-    H7
     4      3      5      8      9 ;   180.00  15.16700   2 ;     C4-    C3-    C5-    O1
     4      6      2     11      9 ;   180.00  15.16700   2 ;     C4-    C6-    C2-    H2
     5      1      2      6      9 ;   180.00  15.16700   2 ;     C5-    C1-    C2-    C6
     5      1      2     11      9 ;   180.00  15.16700   2 ;     C5-    C1-    C2-    H2
     5      3      4      6      9 ;   180.00  15.16700   2 ;     C5-    C3-    C4-    C6
     5      3      4      7      9 ;   180.00  15.16700   2 ;     C5-    C3-    C4-    C7
     6      4      3     12      9 ;   180.00  15.16700   2 ;     C6-    C4-    C3-    H3
     6      4      7     13      9 ;     0.00   0.00000   0 ;     C6-    C4-    C7-    H4
     6      4      7     14      9 ;     0.00   0.00000   0 ;     C6-    C4-    C7-    H5
     6      4      7     15      9 ;     0.00   0.00000   0 ;     C6-    C4-    C7-    H6
     7      4      3     12      9 ;   180.00  15.16700   2 ;     C7-    C4-    C3-    H3
     7      4      6      9      9 ;   180.00  15.16700   2 ;     C7-    C4-    C6-   CL1
     8      5      3     12      9 ;   180.00  15.16700   2 ;     O1-    C5-    C3-    H3
     9      6      2     11      9 ;   180.00  15.16700   2 ;    CL1-    C6-    C2-    H2
    10      1      2      6      9 ;   180.00  15.16700   2 ;     H1-    C1-    C2-    C6
    10      1      2     11      9 ;   180.00  15.16700   2 ;     H1-    C1-    C2-    H2
    10      1      5      3      9 ;   180.00  15.16700   2 ;     H1-    C1-    C5-    C3
    10      1      5      8      9 ;   180.00  15.16700   2 ;     H1-    C1-    C5-    O1

[ dihedrals ] ; impropers
; treated as propers in GROMACS to use correct AMBER analytical function
;    i      j      k      l   func   phase     kd      pn
     1      3      5      8      4 ;   180.00   4.60240   2 ;     C1-    C3-    C5-    O1
     1      6      2     11      4 ;   180.00   4.60240   2 ;     C1-    C6-    C2-    H2
     2      4      6      9      4 ;   180.00   4.60240   2 ;     C2-    C4-    C6-   CL1
     3      6      4      7      4 ;   180.00   4.60240   2 ;     C3-    C6-    C4-    C7
     4      5      3     12      4 ;   180.00   4.60240   2 ;     C4-    C5-    C3-    H3
    10      1      5      2      4 ;   180.00   4.60240   2 ;     H1-    C1-    C5-    C2
