mobley_6102880_GMX.gro created by acpype (v: 2023.10.27) on Wed May 20 23:57:56 2026
11561
    1MOL     C1    1   2.369   2.544   2.113
    1MOL     C2    2   2.624   2.287   2.726
    1MOL     C3    3   2.373   2.422   2.181
    1MOL     C4    4   2.361   2.664   2.184
    1MOL     C5    5   2.669   2.366   2.621
    1MOL     C6    6   2.491   2.291   2.766
    1MOL     C7    7   2.369   2.420   2.320
    1MOL     C8    8   2.357   2.662   2.324
    1MOL     C9    9   2.579   2.450   2.554
    1MOL    C10   10   2.401   2.375   2.699
    1MOL    C11   11   2.361   2.540   2.392
    1MOL    C12   12   2.446   2.455   2.593
    1MOL     O1   13   2.357   2.538   2.528
    1MOL     H1   14   2.372   2.546   2.004
    1MOL     H2   15   2.694   2.221   2.778
    1MOL     H3   16   2.379   2.329   2.125
    1MOL     H4   17   2.358   2.759   2.131
    1MOL     H5   18   2.773   2.362   2.590
    1MOL     H6   19   2.456   2.229   2.848
    1MOL     H7   20   2.371   2.325   2.373
    1MOL     H8   21   2.351   2.755   2.379
    1MOL     H9   22   2.615   2.512   2.472
    1MOL    H10   23   2.297   2.379   2.730
    2SOL     OW   24   0.230   0.628   0.113
    2SOL    HW1   25   0.137   0.626   0.150
    2SOL    HW2   26   0.231   0.589   0.021
    3SOL     OW   27   0.225   0.275   0.996
    3SOL    HW1   28   0.260   0.258   1.088
    3SOL    HW2   29   0.137   0.230   0.984
    4SOL     OW   30   0.019   0.368   0.647
    4SOL    HW1   31  -0.063   0.411   0.686
    4SOL    HW2   32  -0.009   0.295   0.584
    5SOL     OW   33   0.569   1.275   1.165
    5SOL    HW1   34   0.476   1.268   1.128
    5SOL    HW2   35   0.580   1.364   1.209
    6SOL     OW   36   1.555   1.511   0.703
    6SOL    HW1   37   1.498   1.495   0.784
    6SOL    HW2   38   1.496   1.521   0.623
    7SOL     OW   39   1.135   0.703   0.717
    7SOL    HW1   40   1.192   0.781   0.692
    7SOL    HW2   41   1.075   0.729   0.793
    8SOL     OW   42   1.755   0.607   0.231
    8SOL    HW1   43   1.743   0.594   0.132
    8SOL    HW2   44   1.725   0.526   0.280
    9SOL     OW   45   0.768   1.144   1.023
    9SOL    HW1   46   0.690   1.161   1.083
    9SOL    HW2   47   0.802   1.231   0.987
   10SOL     OW   48   0.850   0.798   1.823
   10SOL    HW1   49   0.846   0.874   1.888
   10SOL    HW2   50   0.872   0.834   1.732
   11SOL     OW   51   0.685   1.012   0.665
   11SOL    HW1   52   0.754   0.996   0.735
   11SOL    HW2   53   0.612   1.069   0.703
   12SOL     OW   54   0.686   1.161   1.803
   12SOL    HW1   55   0.746   1.240   1.817
   12SOL    HW2   56   0.600   1.192   1.762
   13SOL     OW   57   0.335   1.435   1.061
   13SOL    HW1   58   0.257   1.404   1.008
   13SOL    HW2   59   0.393   1.493   1.004
   14SOL     OW   60   1.460   1.505   1.339
   14SOL    HW1   61   1.484   1.599   1.365
   14SOL    HW2   62   1.444   1.451   1.421
   15SOL     OW   63   0.438   0.392   1.499
   15SOL    HW1   64   0.520   0.336   1.508
   15SOL    HW2   65   0.357   0.334   1.503
   16SOL     OW   66   1.603   0.447   0.737
   16SOL    HW1   67   1.529   0.493   0.687
   16SOL    HW2   68   1.654   0.515   0.790
   17SOL     OW   69   0.231   1.713   0.483
   17SOL    HW1   70   0.265   1.790   0.537
   17SOL    HW2   71   0.275   1.713   0.393
   18SOL     OW   72   1.127   1.341   1.690
   18SOL    HW1   73   1.174   1.341   1.778
   18SOL    HW2   74   1.079   1.254   1.679
   19SOL     OW   75   0.230   1.434   0.538
   19SOL    HW1   76   0.204   1.530   0.538
   19SOL    HW2   77   0.159   1.380   0.583
   20SOL     OW   78   0.240   1.091   0.886
   20SOL    HW1   79   0.254   1.007   0.938
   20SOL    HW2   80   0.185   1.155   0.941
   21SOL     OW   81   0.620   1.786   1.439
   21SOL    HW1   82   0.528   1.769   1.474
   21SOL    HW2   83   0.648   1.878   1.465
   22SOL     OW   84   0.606   0.964   0.123
   22SOL    HW1   85   0.613   1.048   0.069
   22SOL    HW2   86   0.652   0.977   0.211
   23SOL     OW   87   1.594   0.114   1.480
   23SOL    HW1   88   1.576   0.181   1.408
   23SOL    HW2   89   1.591   0.160   1.569
   24SOL     OW   90   0.122   0.643   0.563
   24SOL    HW1   91   0.077   0.555   0.580
   24SOL    HW2   92   0.121   0.697   0.647
   25SOL     OW   93   1.842   1.767   0.359
   25SOL    HW1   94   1.896   1.738   0.439
   25SOL    HW2   95   1.872   1.857   0.330
   26SOL     OW   96   0.027   1.596   0.117
   26SOL    HW1   97   0.008   1.500   0.138
   26SOL    HW2   98  -0.006   1.654   0.192
   27SOL     OW   99   1.689   0.922   0.612
   27SOL    HW1  100   1.784   0.893   0.620
   27SOL    HW2  101   1.681   0.987   0.537
   28SOL     OW  102   1.641   1.108   0.432
   28SOL    HW1  103   1.727   1.110   0.380
   28SOL    HW2  104   1.655   1.155   0.520
   29SOL     OW  105   0.113   0.737   1.597
   29SOL    HW1  106   0.201   0.724   1.642
   29SOL    HW2  107   0.100   0.834   1.575
   30SOL     OW  108   0.613   1.365   0.726
   30SOL    HW1  109   0.564   1.278   0.735
   30SOL    HW2  110   0.590   1.408   0.639
   31SOL     OW  111   1.293   1.228   1.423
   31SOL    HW1  112   1.330   1.155   1.365
   31SOL    HW2  113   1.345   1.233   1.508
   32SOL     OW  114   0.809   0.004   0.502
   32SOL    HW1  115   0.849   0.095   0.493
   32SOL    HW2  116   0.709   0.012   0.508
   33SOL     OW  117   0.197   0.976   1.264
   33SOL    HW1  118   0.286   0.931   1.250
   33SOL    HW2  119   0.124   0.911   1.245
   34SOL     OW  120   1.525   0.999   0.190
   34SOL    HW1  121   1.462   0.923   0.203
   34SOL    HW2  122   1.573   1.017   0.276
   35SOL     OW  123   1.187   1.792   1.616
   35SOL    HW1  124   1.211   1.852   1.540
   35SOL    HW2  125   1.194   1.697   1.586
   36SOL     OW  126   0.317   0.251   1.801
   36SOL    HW1  127   0.388   0.322   1.807
   36SOL    HW2  128   0.229   0.290   1.829
   37SOL     OW  129   1.466   1.417   0.953
   37SOL    HW1  130   1.407   1.423   1.033
   37SOL    HW2  131   1.451   1.329   0.907
   38SOL     OW  132   1.667   1.714   0.572
   38SOL    HW1  133   1.626   1.691   0.484
   38SOL    HW2  134   1.649   1.640   0.637
   39SOL     OW  135   0.598   0.729   0.270
   39SOL    HW1  136   0.622   0.798   0.202
   39SOL    HW2  137   0.520   0.762   0.324
   40SOL     OW  138   1.281   0.345   0.944
   40SOL    HW1  139   1.195   0.295   0.931
   40SOL    HW2  140   1.343   0.291   1.000
   41SOL     OW  141   1.576   1.662   0.307
   41SOL    HW1  142   1.665   1.708   0.310
   41SOL    HW2  143   1.555   1.638   0.212
   42SOL     OW  144   0.807   0.605   1.465
   42SOL    HW1  145   0.760   0.602   1.554
   42SOL    HW2  146   0.756   0.550   1.399
   43SOL     OW  147   1.394   0.469   1.674
   43SOL    HW1  148   1.374   0.512   1.762
   43SOL    HW2  149   1.472   0.407   1.683
   44SOL     OW  150   0.973   0.890   1.572
   44SOL    HW1  151   1.019   0.806   1.543
   44SOL    HW2  152   0.917   0.924   1.497
   45SOL     OW  153   0.991   0.410   1.242
   45SOL    HW1  154   0.914   0.444   1.296
   45SOL    HW2  155   0.957   0.359   1.163
   46SOL     OW  156   1.041   0.701   0.429
   46SOL    HW1  157   1.067   0.697   0.525
   46SOL    HW2  158   0.956   0.650   0.415
   47SOL     OW  159   0.076   0.811   0.789
   47SOL    HW1  160   0.175   0.799   0.798
   47SOL    HW2  161   0.052   0.906   0.810
   48SOL     OW  162   0.130   1.821   1.571
   48SOL    HW1  163   0.120   1.806   1.670
   48SOL    HW2  164   0.044   1.857   1.535
   49SOL     OW  165   0.865   0.348   0.195
   49SOL    HW1  166   0.924   0.411   0.146
   49SOL    HW2  167   0.884   0.254   0.166
   50SOL     OW  168   1.719   0.585   1.831
   50SOL    HW1  169   1.693   0.674   1.795
   50SOL    HW2  170   1.717   0.517   1.758
   51SOL     OW  171   1.362   1.144   0.545
   51SOL    HW1  172   1.445   1.115   0.497
   51SOL    HW2  173   1.313   1.211   0.489
   52SOL     OW  174   0.550   0.196   0.885
   52SOL    HW1  175   0.545   0.191   0.985
   52SOL    HW2  176   0.552   0.292   0.856
   53SOL     OW  177   1.008   1.456   0.477
   53SOL    HW1  178   0.962   1.528   0.425
   53SOL    HW2  179   1.004   1.476   0.575
   54SOL     OW  180   0.351   1.801   0.853
   54SOL    HW1  181   0.401   1.715   0.859
   54SOL    HW2  182   0.416   1.878   0.850
   55SOL     OW  183   1.795   1.066   0.873
   55SOL    HW1  184   1.733   1.051   0.797
   55SOL    HW2  185   1.743   1.077   0.958
   56SOL     OW  186   1.227   1.550   1.506
   56SOL    HW1  187   1.233   1.473   1.570
   56SOL    HW2  188   1.175   1.524   1.426
   57SOL     OW  189   0.321   0.943   0.242
   57SOL    HW1  190   0.403   0.982   0.200
   57SOL    HW2  191   0.294   0.861   0.193
   58SOL     OW  192   1.458   0.735   0.728
   58SOL    HW1  193   1.453   0.670   0.803
   58SOL    HW2  194   1.538   0.794   0.741
   59SOL     OW  195   0.461   1.266   1.727
   59SOL    HW1  196   0.411   1.267   1.641
   59SOL    HW2  197   0.398   1.248   1.803
   60SOL     OW  198   1.111   1.776   0.237
   60SOL    HW1  199   1.051   1.714   0.287
   60SOL    HW2  200   1.142   1.732   0.152
   61SOL     OW  201   0.202   0.285   1.498
   61SOL    HW1  202   0.122   0.345   1.485
   61SOL    HW2  203   0.192   0.236   1.584
   62SOL     OW  204   1.632   1.377   0.081
   62SOL    HW1  205   1.600   1.471   0.071
   62SOL    HW2  206   1.556   1.314   0.069
   63SOL     OW  207   0.464   1.743   0.323
   63SOL    HW1  208   0.497   1.782   0.409
   63SOL    HW2  209   0.540   1.736   0.258
   64SOL     OW  210   1.400   0.107   0.426
   64SOL    HW1  211   1.376   0.070   0.336
   64SOL    HW2  212   1.499   0.123   0.430
   65SOL     OW  213   0.249   1.785   1.241
   65SOL    HW1  214   0.306   1.720   1.291
   65SOL    HW2  215   0.233   1.752   1.148
   66SOL     OW  216   0.940   1.698   0.904
   66SOL    HW1  217   1.020   1.641   0.925
   66SOL    HW2  218   0.891   1.658   0.827
   67SOL     OW  219   0.382   0.700   0.480
   67SOL    HW1  220   0.427   0.610   0.477
   67SOL    HW2  221   0.288   0.689   0.513
   68SOL     OW  222   1.547   0.222   1.729
   68SOL    HW1  223   1.542   0.259   1.821
   68SOL    HW2  224   1.475   0.153   1.717
   69SOL     OW  225   0.614   0.122   0.117
   69SOL    HW1  226   0.712   0.100   0.124
   69SOL    HW2  227   0.583   0.105   0.024
   70SOL     OW  228   0.781   0.264   1.749
   70SOL    HW1  229   0.848   0.203   1.792
   70SOL    HW2  230   0.708   0.283   1.814
   71SOL     OW  231   0.888   1.514   1.195
   71SOL    HW1  232   0.865   1.489   1.101
   71SOL    HW2  233   0.949   1.445   1.234
   72SOL     OW  234   1.351   0.590   1.433
   72SOL    HW1  235   1.379   0.547   1.518
   72SOL    HW2  236   1.376   0.686   1.434
   73SOL     OW  237   0.803   1.402   0.924
   73SOL    HW1  238   0.893   1.416   0.882
   73SOL    HW2  239   0.732   1.404   0.853
   74SOL     OW  240   0.922   0.503   0.899
   74SOL    HW1  241   0.897   0.494   0.803
   74SOL    HW2  242   0.970   0.421   0.930
   75SOL     OW  243   0.539   0.064   0.512
   75SOL    HW1  244   0.458   0.065   0.570
   75SOL    HW2  245   0.542   0.147   0.457
   76SOL     OW  246   1.434   1.188   0.041
   76SOL    HW1  247   1.466   1.112   0.098
   76SOL    HW2  248   1.342   1.215   0.071
   77SOL     OW  249   0.297   0.035   0.171
   77SOL    HW1  250   0.346   0.119   0.150
   77SOL    HW2  251   0.359  -0.030   0.216
   78SOL     OW  252   0.935   0.236   0.480
   78SOL    HW1  253   0.887   0.277   0.402
   78SOL    HW2  254   1.034   0.234   0.461
   79SOL     OW  255   1.076   0.683   1.464
   79SOL    HW1  256   0.996   0.622   1.467
   79SOL    HW2  257   1.157   0.630   1.440
   80SOL     OW  258   1.227   1.570   0.793
   80SOL    HW1  259   1.248   1.644   0.728
   80SOL    HW2  260   1.295   1.570   0.866
   81SOL     OW  261   0.459   1.152   0.741
   81SOL    HW1  262   0.388   1.125   0.806
   81SOL    HW2  263   0.433   1.124   0.648
   82SOL     OW  264   1.271   1.797   0.591
   82SOL    HW1  265   1.315   1.861   0.527
   82SOL    HW2  266   1.221   1.849   0.661
   83SOL     OW  267   1.032   0.549   0.016
   83SOL    HW1  268   0.991   0.631  -0.023
   83SOL    HW2  269   1.096   0.575   0.089
   84SOL     OW  270   0.078   0.556   1.386
   84SOL    HW1  271   0.170   0.555   1.345
   84SOL    HW2  272   0.072   0.630   1.453
   85SOL     OW  273   0.561   0.222   1.147
   85SOL    HW1  274   0.599   0.138   1.184
   85SOL    HW2  275   0.473   0.241   1.191
   86SOL     OW  276   0.866   0.454   0.642
   86SOL    HW1  277   0.834   0.526   0.580
   86SOL    HW2  278   0.890   0.373   0.589
   87SOL     OW  279   1.017   0.039   0.753
   87SOL    HW1  280   0.945   0.044   0.684
   87SOL    HW2  281   0.993  -0.030   0.822
   88SOL     OW  282   1.429   1.173   0.867
   88SOL    HW1  283   1.374   1.089   0.860
   88SOL    HW2  284   1.455   1.202   0.775
   89SOL     OW  285   1.466   0.590   0.992
   89SOL    HW1  286   1.436   0.495   0.999
   89SOL    HW2  287   1.539   0.606   1.058
   90SOL     OW  288   1.857   0.833   0.377
   90SOL    HW1  289   1.899   0.769   0.441
   90SOL    HW2  290   1.819   0.782   0.299
   91SOL     OW  291   0.488   1.385   0.174
   91SOL    HW1  292   0.401   1.370   0.221
   91SOL    HW2  293   0.471   1.411   0.079
   92SOL     OW  294   1.664   1.280   0.657
   92SOL    HW1  295   1.763   1.288   0.671
   92SOL    HW2  296   1.619   1.364   0.688
   93SOL     OW  297   1.390   0.575   0.078
   93SOL    HW1  298   1.336   0.554   0.159
   93SOL    HW2  299   1.481   0.534   0.087
   94SOL     OW  300   0.527   0.256   0.328
   94SOL    HW1  301   0.554   0.197   0.253
   94SOL    HW2  302   0.527   0.351   0.297
   95SOL     OW  303   1.754   1.223   1.588
   95SOL    HW1  304   1.845   1.184   1.575
   95SOL    HW2  305   1.762   1.319   1.612
   96SOL     OW  306   1.064   1.347   1.340
   96SOL    HW1  307   0.984   1.324   1.395
   96SOL    HW2  308   1.147   1.321   1.389
   97SOL     OW  309   1.592   1.629   1.625
   97SOL    HW1  310   1.619   1.663   1.535
   97SOL    HW2  311   1.671   1.591   1.671
   98SOL     OW  312   1.111   1.195   1.100
   98SOL    HW1  313   1.071   1.239   1.181
   98SOL    HW2  314   1.070   1.232   1.017
   99SOL     OW  315   1.638   1.099   1.079
   99SOL    HW1  316   1.643   1.180   1.138
   99SOL    HW2  317   1.552   1.101   1.028
  100SOL     OW  318   0.915   0.089   1.402
  100SOL    HW1  319   0.940   0.069   1.307
  100SOL    HW2  320   0.987   0.145   1.444
  101SOL     OW  321   0.980   1.116   1.719
  101SOL    HW1  322   0.881   1.122   1.729
  101SOL    HW2  323   1.003   1.036   1.663
  102SOL     OW  324   0.705   1.050   0.368
  102SOL    HW1  325   0.691   1.057   0.467
  102SOL    HW2  326   0.789   0.999   0.350
  103SOL     OW  327   0.410   0.813   1.251
  103SOL    HW1  328   0.496   0.825   1.301
  103SOL    HW2  329   0.368   0.726   1.278
  104SOL     OW  330   1.274   0.386   1.262
  104SOL    HW1  331   1.295   0.460   1.326
  104SOL    HW2  332   1.185   0.403   1.219
  105SOL     OW  333   0.064   1.564   1.331
  105SOL    HW1  334   0.018   1.646   1.297
  105SOL    HW2  335   0.162   1.583   1.340
  106SOL     OW  336   0.367   1.100   0.501
  106SOL    HW1  337   0.360   1.183   0.445
  106SOL    HW2  338   0.371   1.020   0.441
  107SOL     OW  339   0.566   0.537   0.865
  107SOL    HW1  340   0.578   0.603   0.791
  107SOL    HW2  341   0.612   0.571   0.948
  108SOL     OW  342   1.252   1.348   0.388
  108SOL    HW1  343   1.302   1.425   0.428
  108SOL    HW2  344   1.157   1.350   0.420
  109SOL     OW  345   1.272   1.445   1.142
  109SOL    HW1  346   1.319   1.458   1.229
  109SOL    HW2  347   1.206   1.371   1.151
  110SOL     OW  348   1.582   0.639   0.472
  110SOL    HW1  349   1.551   0.700   0.545
  110SOL    HW2  350   1.632   0.691   0.403
  111SOL     OW  351   0.354   1.510   1.329
  111SOL    HW1  352   0.333   1.466   1.242
  111SOL    HW2  353   0.451   1.536   1.332
  112SOL     OW  354   0.402   0.751   1.598
  112SOL    HW1  355   0.470   0.806   1.551
  112SOL    HW2  356   0.442   0.663   1.625
  113SOL     OW  357   1.587   0.779   1.670
  113SOL    HW1  358   1.495   0.817   1.665
  113SOL    HW2  359   1.647   0.826   1.605
  114SOL     OW  360   1.013   0.105   1.770
  114SOL    HW1  361   1.019   0.190   1.718
  114SOL    HW2  362   1.045   0.029   1.713
  115SOL     OW  363   0.504   0.050   1.740
  115SOL    HW1  364   0.462  -0.007   1.670
  115SOL    HW2  365   0.438   0.119   1.772
  116SOL     OW  366   0.573   0.870   1.029
  116SOL    HW1  367   0.617   0.959   1.020
  116SOL    HW2  368   0.510   0.870   1.106
  117SOL     OW  369   1.360   0.862   1.045
  117SOL    HW1  370   1.285   0.862   0.979
  117SOL    HW2  371   1.397   0.770   1.054
  118SOL     OW  372   1.209   0.525   0.275
  118SOL    HW1  373   1.222   0.441   0.329
  118SOL    HW2  374   1.180   0.599   0.335
  119SOL     OW  375   0.307   0.213   1.231
  119SOL    HW1  376   0.284   0.250   1.321
  119SOL    HW2  377   0.277   0.118   1.225
  120SOL     OW  378   0.037   1.310   1.282
  120SOL    HW1  379   0.090   1.261   1.350
  120SOL    HW2  380   0.059   1.408   1.287
  121SOL     OW  381   0.732   0.634   1.064
  121SOL    HW1  382   0.791   0.608   0.988
  121SOL    HW2  383   0.704   0.730   1.053
  122SOL     OW  384   1.728   0.935   1.854
  122SOL    HW1  385   1.682   0.928   1.765
  122SOL    HW2  386   1.666   0.979   1.920
  123SOL     OW  387   0.307   0.063   0.618
  123SOL    HW1  388   0.296   0.157   0.651
  123SOL    HW2  389   0.302   0.000   0.695
  124SOL     OW  390   1.622   0.367   0.374
  124SOL    HW1  391   1.624   0.291   0.438
  124SOL    HW2  392   1.574   0.444   0.414
  125SOL     OW  393   1.023   0.766   0.966
  125SOL    HW1  394   1.038   0.787   1.062
  125SOL    HW2  395   0.993   0.671   0.957
  126SOL     OW  396   0.980   1.573   1.700
  126SOL    HW1  397   0.960   1.617   1.612
  126SOL    HW2  398   1.019   1.482   1.684
  127SOL     OW  399   1.859   1.518   1.605
  127SOL    HW1  400   1.873   1.545   1.510
  127SOL    HW2  401   1.942   1.540   1.658
  128SOL     OW  402   0.350   0.898   1.804
  128SOL    HW1  403   0.426   0.942   1.852
  128SOL    HW2  404   0.385   0.851   1.722
  129SOL     OW  405   1.540   0.274   0.125
  129SOL    HW1  406   1.479   0.199   0.148
  129SOL    HW2  407   1.562   0.326   0.208
  130SOL     OW  408   1.303   0.838   0.042
  130SOL    HW1  409   1.337   0.745   0.057
  130SOL    HW2  410   1.321   0.865  -0.053
  131SOL     OW  411   1.068   1.333   0.849
  131SOL    HW1  412   1.075   1.249   0.794
  131SOL    HW2  413   1.130   1.402   0.813
  132SOL     OW  414   0.319   0.810   0.949
  132SOL    HW1  415   0.412   0.846   0.954
  132SOL    HW2  416   0.313   0.725   1.001
  133SOL     OW  417   0.339   0.509   1.006
  133SOL    HW1  418   0.287   0.426   0.989
  133SOL    HW2  419   0.416   0.514   0.942
  134SOL     OW  420   1.138   0.380   1.678
  134SOL    HW1  421   1.093   0.443   1.742
  134SOL    HW2  422   1.231   0.411   1.661
  135SOL     OW  423   1.160   0.207   1.477
  135SOL    HW1  424   1.160   0.271   1.554
  135SOL    HW2  425   1.188   0.255   1.394
  136SOL     OW  426   0.008   1.326   0.200
  136SOL    HW1  427  -0.085   1.347   0.169
  136SOL    HW2  428   0.018   1.227   0.213
  137SOL     OW  429   0.088   1.801   0.927
  137SOL    HW1  430   0.046   1.715   0.900
  137SOL    HW2  431   0.182   1.804   0.893
  138SOL     OW  432   0.504   1.568   0.910
  138SOL    HW1  433   0.570   1.642   0.919
  138SOL    HW2  434   0.548   1.489   0.868
  139SOL     OW  435   1.002   0.796   1.238
  139SOL    HW1  436   1.043   0.764   1.324
  139SOL    HW2  437   0.906   0.769   1.235
  140SOL     OW  438   0.040   0.544   1.114
  140SOL    HW1  439   0.125   0.511   1.073
  140SOL    HW2  440   0.053   0.559   1.212
  141SOL     OW  441   0.189   0.520   1.722
  141SOL    HW1  442   0.248   0.480   1.652
  141SOL    HW2  443   0.131   0.591   1.681
  142SOL     OW  444   1.369   0.950   1.660
  142SOL    HW1  445   1.408   1.039   1.680
  142SOL    HW2  446   1.379   0.930   1.563
  143SOL     OW  447   0.815   0.572   0.325
  143SOL    HW1  448   0.822   0.483   0.279
  143SOL    HW2  449   0.721   0.606   0.317
  144SOL     OW  450   1.657   0.604   1.206
  144SOL    HW1  451   1.619   0.535   1.268
  144SOL    HW2  452   1.739   0.568   1.162
  145SOL     OW  453   0.252   1.564   1.744
  145SOL    HW1  454   0.222   1.621   1.820
  145SOL    HW2  455   0.245   1.467   1.770
  146SOL     OW  456   0.671   0.464   1.269
  146SOL    HW1  457   0.637   0.375   1.239
  146SOL    HW2  458   0.697   0.518   1.189
  147SOL     OW  459   0.930   1.678   1.465
  147SOL    HW1  460   0.906   1.660   1.370
  147SOL    HW2  461   0.960   1.772   1.475
  148SOL     OW  462   0.473   0.500   0.191
  148SOL    HW1  463   0.534   0.580   0.195
  148SOL    HW2  464   0.378   0.531   0.198
  149SOL     OW  465   0.159   1.137   1.466
  149SOL    HW1  466   0.181   1.076   1.542
  149SOL    HW2  467   0.169   1.088   1.380
  150SOL     OW  468   1.347   1.059   1.234
  150SOL    HW1  469   1.371   0.996   1.160
  150SOL    HW2  470   1.257   1.099   1.216
  151SOL     OW  471   1.302   0.855   0.309
  151SOL    HW1  472   1.216   0.824   0.351
  151SOL    HW2  473   1.298   0.841   0.210
  152SOL     OW  474   1.759   1.747   1.154
  152SOL    HW1  475   1.820   1.777   1.081
  152SOL    HW2  476   1.721   1.658   1.132
  153SOL     OW  477   1.252   1.731   1.128
  153SOL    HW1  478   1.336   1.736   1.074
  153SOL    HW2  479   1.229   1.635   1.146
  154SOL     OW  480   0.083   1.258   1.022
  154SOL    HW1  481   0.078   1.257   1.122
  154SOL    HW2  482   0.000   1.217   0.984
  155SOL     OW  483   0.688   1.662   1.716
  155SOL    HW1  484   0.632   1.743   1.725
  155SOL    HW2  485   0.740   1.666   1.630
  156SOL     OW  486   0.903   0.086   0.133
  156SOL    HW1  487   0.954   0.087   0.047
  156SOL    HW2  488   0.959   0.044   0.204
  157SOL     OW  489   1.726   0.135   0.523
  157SOL    HW1  490   1.799   0.118   0.456
  157SOL    HW2  491   1.695   0.048   0.561
  158SOL     OW  492   1.388   1.573   0.477
  158SOL    HW1  493   1.455   1.585   0.403
  158SOL    HW2  494   1.348   1.662   0.500
  159SOL     OW  495   0.130   1.794   1.851
  159SOL    HW1  496   0.089   1.720   1.904
  159SOL    HW2  497   0.194   1.845   1.909
  160SOL     OW  498   1.280   0.927   0.672
  160SOL    HW1  499   1.340   0.846   0.674
  160SOL    HW2  500   1.320   0.996   0.612
  161SOL     OW  501   0.830   1.273   1.422
  161SOL    HW1  502   0.825   1.306   1.517
  161SOL    HW2  503   0.744   1.292   1.376
  162SOL     OW  504   0.672   1.616   0.154
  162SOL    HW1  505   0.681   1.626   0.055
  162SOL    HW2  506   0.632   1.527   0.175
  163SOL     OW  507   1.650   1.720   1.394
  163SOL    HW1  508   1.703   1.730   1.310
  163SOL    HW2  509   1.623   1.810   1.428
  164SOL     OW  510   1.841   0.175   0.963
  164SOL    HW1  511   1.880   0.090   0.927
  164SOL    HW2  512   1.743   0.177   0.944
  165SOL     OW  513   0.263   0.326   0.720
  165SOL    HW1  514   0.184   0.377   0.686
  165SOL    HW2  515   0.254   0.311   0.818
  166SOL     OW  516   1.194   1.612   0.031
  166SOL    HW1  517   1.200   1.519   0.068
  166SOL    HW2  518   1.135   1.612  -0.049
  167SOL     OW  519   0.822   1.002   1.372
  167SOL    HW1  520   0.862   1.001   1.280
  167SOL    HW2  521   0.832   1.094   1.412
  168SOL     OW  522   0.916   0.910   0.291
  168SOL    HW1  523   0.979   0.948   0.223
  168SOL    HW2  524   0.956   0.827   0.330
  169SOL     OW  525   1.504   1.607   0.044
  169SOL    HW1  526   1.412   1.644   0.051
  169SOL    HW2  527   1.542   1.627  -0.046
  170SOL     OW  528   0.372   1.288   1.490
  170SOL    HW1  529   0.359   1.381   1.456
  170SOL    HW2  530   0.288   1.236   1.477
  171SOL     OW  531   1.614   1.292   1.289
  171SOL    HW1  532   1.674   1.295   1.369
  171SOL    HW2  533   1.539   1.356   1.302
  172SOL     OW  534   1.039   1.098   0.696
  172SOL    HW1  535   0.969   1.051   0.750
  172SOL    HW2  536   1.098   1.030   0.653
  173SOL     OW  537   1.014   0.236   0.971
  173SOL    HW1  538   1.006   0.200   0.878
  173SOL    HW2  539   1.012   0.160   1.036
  174SOL     OW  540   0.590   1.487   0.491
  174SOL    HW1  541   0.632   1.429   0.421
  174SOL    HW2  542   0.546   1.566   0.447
  175SOL     OW  543   1.709   0.385   1.381
  175SOL    HW1  544   1.782   0.454   1.385
  175SOL    HW2  545   1.737   0.310   1.322
  176SOL     OW  546   0.255   1.348   0.290
  176SOL    HW1  547   0.159   1.349   0.263
  176SOL    HW2  548   0.267   1.401   0.374
  177SOL     OW  549   0.105   1.013   1.726
  177SOL    HW1  550   0.028   0.980   1.780
  177SOL    HW2  551   0.190   0.983   1.768
  178SOL     OW  552   0.672   0.203   1.489
  178SOL    HW1  553   0.762   0.187   1.449
  178SOL    HW2  554   0.680   0.208   1.588
  179SOL     OW  555   0.075   0.345   0.033
  179SOL    HW1  556  -0.017   0.317   0.004
  179SOL    HW2  557   0.106   0.422  -0.023
  180SOL     OW  558   1.440   0.856   1.398
  180SOL    HW1  559   1.383   0.908   1.335
  180SOL    HW2  560   1.536   0.868   1.374
  181SOL     OW  561   0.072   0.166   0.318
  181SOL    HW1  562   0.055   0.249   0.264
  181SOL    HW2  563   0.162   0.129   0.296
  182SOL     OW  564   1.183   1.335   0.119
  182SOL    HW1  565   1.084   1.324   0.121
  182SOL    HW2  566   1.217   1.350   0.212
  183SOL     OW  567   0.613   0.842   1.431
  183SOL    HW1  568   0.669   0.923   1.414
  183SOL    HW2  569   0.672   0.762   1.434
  184SOL     OW  570   1.493   1.767   0.959
  184SOL    HW1  571   1.526   1.831   0.890
  184SOL    HW2  572   1.559   1.761   1.034
  185SOL     OW  573   0.716   0.565   1.708
  185SOL    HW1  574   0.735   0.630   1.782
  185SOL    HW2  575   0.776   0.485   1.717
  186SOL     OW  576   1.450   1.220   1.633
  186SOL    HW1  577   1.441   1.210   1.732
  186SOL    HW2  578   1.546   1.213   1.607
  187SOL     OW  579   0.390   1.741   1.560
  187SOL    HW1  580   0.299   1.782   1.558
  187SOL    HW2  581   0.383   1.647   1.592
  188SOL     OW  582   1.674   0.883   1.254
  188SOL    HW1  583   1.647   0.794   1.217
  188SOL    HW2  584   1.675   0.951   1.181
  189SOL     OW  585   1.225   0.325   0.449
  189SOL    HW1  586   1.290   0.251   0.438
  189SOL    HW2  587   1.245   0.375   0.533
  190SOL     OW  588   0.594   0.745   0.652
  190SOL    HW1  589   0.644   0.830   0.633
  190SOL    HW2  590   0.506   0.747   0.604
  191SOL     OW  591   1.777   0.342   1.642
  191SOL    HW1  592   1.760   0.373   1.548
  191SOL    HW2  593   1.693   0.305   1.680
  192SOL     OW  594   1.730   0.934   1.517
  192SOL    HW1  595   1.768   1.025   1.532
  192SOL    HW2  596   1.722   0.917   1.418
  193SOL     OW  597   0.859   1.374   0.016
  193SOL    HW1  598   0.813   1.389   0.104
  193SOL    HW2  599   0.903   1.459  -0.014
  194SOL     OW  600   0.661   1.790   0.953
  194SOL    HW1  601   0.615   1.878   0.940
  194SOL    HW2  602   0.760   1.802   0.946
  195SOL     OW  603   0.859   0.956   0.861
  195SOL    HW1  604   0.913   0.887   0.909
  195SOL    HW2  605   0.827   1.025   0.927
  196SOL     OW  606   1.083   0.984   0.087
  196SOL    HW1  607   1.060   1.037   0.005
  196SOL    HW2  608   1.164   0.928   0.068
  197SOL     OW  609   1.861   1.569   0.851
  197SOL    HW1  610   1.790   1.557   0.781
  197SOL    HW2  611   1.862   1.490   0.911
  198SOL     OW  612   0.221   1.314   1.844
  198SOL    HW1  613   0.156   1.241   1.823
  198SOL    HW2  614   0.225   1.328   1.942
  199SOL     OW  615   0.079   1.240   0.653
  199SOL    HW1  616   0.078   1.193   0.741
  199SOL    HW2  617   0.161   1.212   0.602
  200SOL     OW  618   0.672   1.391   1.624
  200SOL    HW1  619   0.594   1.341   1.662
  200SOL    HW2  620   0.669   1.486   1.655
  201SOL     OW  621   1.824   0.192   1.227
  201SOL    HW1  622   1.820   0.102   1.271
  201SOL    HW2  623   1.827   0.181   1.128
  202SOL     OW  624   0.428   0.424   0.520
  202SOL    HW1  625   0.458   0.352   0.458
  202SOL    HW2  626   0.389   0.384   0.603
  203SOL     OW  627   1.705   1.487   1.104
  203SOL    HW1  628   1.612   1.462   1.077
  203SOL    HW2  629   1.731   1.437   1.186
  204SOL     OW  630   0.317   0.547   1.280
  204SOL    HW1  631   0.355   0.488   1.352
  204SOL    HW2  632   0.357   0.521   1.192
  205SOL     OW  633   0.812   1.586   0.687
  205SOL    HW1  634   0.844   1.596   0.593
  205SOL    HW2  635   0.733   1.524   0.689
  206SOL     OW  636   1.424   0.214   1.112
  206SOL    HW1  637   1.476   0.149   1.167
  206SOL    HW2  638   1.375   0.277   1.173
  207SOL     OW  639   1.001   0.034   1.154
  207SOL    HW1  640   0.938  -0.038   1.123
  207SOL    HW2  641   1.094  -0.002   1.154
  208SOL     OW  642   0.770   1.330   0.301
  208SOL    HW1  643   0.724   1.243   0.318
  208SOL    HW2  644   0.861   1.327   0.342
  209SOL     OW  645   0.618   1.567   1.284
  209SOL    HW1  646   0.613   1.649   1.341
  209SOL    HW2  647   0.707   1.564   1.239
  210SOL     OW  648   1.352   0.052   0.168
  210SOL    HW1  649   1.387   0.011   0.084
  210SOL    HW2  650   1.262   0.014   0.188
  211SOL     OW  651   1.300   0.453   0.691
  211SOL    HW1  652   1.241   0.533   0.695
  211SOL    HW2  653   1.315   0.418   0.784
  212SOL     OW  654   1.593   0.221   0.882
  212SOL    HW1  655   1.509   0.220   0.936
  212SOL    HW2  656   1.595   0.304   0.826
  213SOL     OW  657   0.039   1.077   0.300
  213SOL    HW1  658   0.138   1.066   0.291
  213SOL    HW2  659  -0.001   0.991   0.332
  214SOL     OW  660   0.875   1.646   0.337
  214SOL    HW1  661   0.798   1.611   0.283
  214SOL    HW2  662   0.843   1.717   0.399
  215SOL     OW  663   0.230   0.628   1.975
  215SOL    HW1  664   0.137   0.626   2.012
  215SOL    HW2  665   0.231   0.589   1.883
  216SOL     OW  666   0.225   0.275   2.858
  216SOL    HW1  667   0.260   0.258   2.950
  216SOL    HW2  668   0.137   0.230   2.846
  217SOL     OW  669   0.019   0.368   2.509
  217SOL    HW1  670  -0.063   0.411   2.548
  217SOL    HW2  671  -0.009   0.295   2.446
  218SOL     OW  672   0.569   1.275   3.027
  218SOL    HW1  673   0.476   1.268   2.990
  218SOL    HW2  674   0.580   1.364   3.071
  219SOL     OW  675   1.555   1.511   2.565
  219SOL    HW1  676   1.498   1.495   2.646
  219SOL    HW2  677   1.496   1.521   2.485
  220SOL     OW  678   1.135   0.703   2.579
  220SOL    HW1  679   1.192   0.781   2.554
  220SOL    HW2  680   1.075   0.729   2.655
  221SOL     OW  681   1.755   0.607   2.093
  221SOL    HW1  682   1.743   0.594   1.994
  221SOL    HW2  683   1.725   0.526   2.142
  222SOL     OW  684   0.768   1.144   2.885
  222SOL    HW1  685   0.690   1.161   2.945
  222SOL    HW2  686   0.802   1.231   2.849
  223SOL     OW  687   0.850   0.798   3.685
  223SOL    HW1  688   0.846   0.874   3.750
  223SOL    HW2  689   0.872   0.834   3.594
  224SOL     OW  690   0.685   1.012   2.527
  224SOL    HW1  691   0.754   0.996   2.597
  224SOL    HW2  692   0.612   1.069   2.565
  225SOL     OW  693   0.686   1.161   3.665
  225SOL    HW1  694   0.746   1.240   3.679
  225SOL    HW2  695   0.600   1.192   3.624
  226SOL     OW  696   0.335   1.435   2.923
  226SOL    HW1  697   0.257   1.404   2.870
  226SOL    HW2  698   0.393   1.493   2.866
  227SOL     OW  699   1.460   1.505   3.201
  227SOL    HW1  700   1.484   1.599   3.227
  227SOL    HW2  701   1.444   1.451   3.283
  228SOL     OW  702   0.438   0.392   3.361
  228SOL    HW1  703   0.520   0.336   3.370
  228SOL    HW2  704   0.357   0.334   3.365
  229SOL     OW  705   1.603   0.447   2.599
  229SOL    HW1  706   1.529   0.493   2.549
  229SOL    HW2  707   1.654   0.515   2.652
  230SOL     OW  708   0.231   1.713   2.345
  230SOL    HW1  709   0.265   1.790   2.399
  230SOL    HW2  710   0.275   1.713   2.255
  231SOL     OW  711   1.127   1.341   3.552
  231SOL    HW1  712   1.174   1.341   3.640
  231SOL    HW2  713   1.079   1.254   3.541
  232SOL     OW  714   0.230   1.434   2.400
  232SOL    HW1  715   0.204   1.530   2.400
  232SOL    HW2  716   0.159   1.380   2.445
  233SOL     OW  717   0.240   1.091   2.748
  233SOL    HW1  718   0.254   1.007   2.800
  233SOL    HW2  719   0.185   1.155   2.803
  234SOL     OW  720   0.620   1.786   3.301
  234SOL    HW1  721   0.528   1.769   3.336
  234SOL    HW2  722   0.648   1.878   3.327
  235SOL     OW  723   0.606   0.964   1.985
  235SOL    HW1  724   0.613   1.048   1.931
  235SOL    HW2  725   0.652   0.977   2.073
  236SOL     OW  726   1.594   0.114   3.342
  236SOL    HW1  727   1.576   0.181   3.270
  236SOL    HW2  728   1.591   0.160   3.431
  237SOL     OW  729   0.122   0.643   2.425
  237SOL    HW1  730   0.077   0.555   2.442
  237SOL    HW2  731   0.121   0.697   2.509
  238SOL     OW  732   1.842   1.767   2.221
  238SOL    HW1  733   1.896   1.738   2.301
  238SOL    HW2  734   1.872   1.857   2.192
  239SOL     OW  735   0.027   1.596   1.979
  239SOL    HW1  736   0.008   1.500   2.000
  239SOL    HW2  737  -0.006   1.654   2.054
  240SOL     OW  738   1.689   0.922   2.474
  240SOL    HW1  739   1.784   0.893   2.482
  240SOL    HW2  740   1.681   0.987   2.399
  241SOL     OW  741   1.641   1.108   2.294
  241SOL    HW1  742   1.727   1.110   2.242
  241SOL    HW2  743   1.655   1.155   2.382
  242SOL     OW  744   0.113   0.737   3.459
  242SOL    HW1  745   0.201   0.724   3.504
  242SOL    HW2  746   0.100   0.834   3.437
  243SOL     OW  747   0.613   1.365   2.588
  243SOL    HW1  748   0.564   1.278   2.597
  243SOL    HW2  749   0.590   1.408   2.501
  244SOL     OW  750   1.293   1.228   3.285
  244SOL    HW1  751   1.330   1.155   3.227
  244SOL    HW2  752   1.345   1.233   3.370
  245SOL     OW  753   0.809   0.004   2.364
  245SOL    HW1  754   0.849   0.095   2.355
  245SOL    HW2  755   0.709   0.012   2.370
  246SOL     OW  756   0.197   0.976   3.126
  246SOL    HW1  757   0.286   0.931   3.112
  246SOL    HW2  758   0.124   0.911   3.107
  247SOL     OW  759   1.525   0.999   2.052
  247SOL    HW1  760   1.462   0.923   2.065
  247SOL    HW2  761   1.573   1.017   2.138
  248SOL     OW  762   1.187   1.792   3.478
  248SOL    HW1  763   1.211   1.852   3.402
  248SOL    HW2  764   1.194   1.697   3.448
  249SOL     OW  765   0.317   0.251   3.663
  249SOL    HW1  766   0.388   0.322   3.669
  249SOL    HW2  767   0.229   0.290   3.691
  250SOL     OW  768   1.466   1.417   2.815
  250SOL    HW1  769   1.407   1.423   2.895
  250SOL    HW2  770   1.451   1.329   2.769
  251SOL     OW  771   1.667   1.714   2.434
  251SOL    HW1  772   1.626   1.691   2.346
  251SOL    HW2  773   1.649   1.640   2.499
  252SOL     OW  774   0.598   0.729   2.132
  252SOL    HW1  775   0.622   0.798   2.064
  252SOL    HW2  776   0.520   0.762   2.186
  253SOL     OW  777   1.281   0.345   2.806
  253SOL    HW1  778   1.195   0.295   2.793
  253SOL    HW2  779   1.343   0.291   2.862
  254SOL     OW  780   1.576   1.662   2.169
  254SOL    HW1  781   1.665   1.708   2.172
  254SOL    HW2  782   1.555   1.638   2.074
  255SOL     OW  783   0.807   0.605   3.327
  255SOL    HW1  784   0.760   0.602   3.416
  255SOL    HW2  785   0.756   0.550   3.261
  256SOL     OW  786   1.394   0.469   3.536
  256SOL    HW1  787   1.374   0.512   3.624
  256SOL    HW2  788   1.472   0.407   3.545
  257SOL     OW  789   0.973   0.890   3.434
  257SOL    HW1  790   1.019   0.806   3.405
  257SOL    HW2  791   0.917   0.924   3.359
  258SOL     OW  792   0.991   0.410   3.104
  258SOL    HW1  793   0.914   0.444   3.158
  258SOL    HW2  794   0.957   0.359   3.025
  259SOL     OW  795   1.041   0.701   2.291
  259SOL    HW1  796   1.067   0.697   2.387
  259SOL    HW2  797   0.956   0.650   2.277
  260SOL     OW  798   0.076   0.811   2.651
  260SOL    HW1  799   0.175   0.799   2.660
  260SOL    HW2  800   0.052   0.906   2.672
  261SOL     OW  801   0.130   1.821   3.433
  261SOL    HW1  802   0.120   1.806   3.532
  261SOL    HW2  803   0.044   1.857   3.397
  262SOL     OW  804   0.865   0.348   2.057
  262SOL    HW1  805   0.924   0.411   2.008
  262SOL    HW2  806   0.884   0.254   2.028
  263SOL     OW  807   1.719   0.585   3.693
  263SOL    HW1  808   1.693   0.674   3.657
  263SOL    HW2  809   1.717   0.517   3.620
  264SOL     OW  810   1.362   1.144   2.407
  264SOL    HW1  811   1.445   1.115   2.359
  264SOL    HW2  812   1.313   1.211   2.351
  265SOL     OW  813   0.550   0.196   2.747
  265SOL    HW1  814   0.545   0.191   2.847
  265SOL    HW2  815   0.552   0.292   2.718
  266SOL     OW  816   1.008   1.456   2.339
  266SOL    HW1  817   0.962   1.528   2.287
  266SOL    HW2  818   1.004   1.476   2.437
  267SOL     OW  819   0.351   1.801   2.715
  267SOL    HW1  820   0.401   1.715   2.721
  267SOL    HW2  821   0.416   1.878   2.712
  268SOL     OW  822   1.795   1.066   2.735
  268SOL    HW1  823   1.733   1.051   2.659
  268SOL    HW2  824   1.743   1.077   2.820
  269SOL     OW  825   1.227   1.550   3.368
  269SOL    HW1  826   1.233   1.473   3.432
  269SOL    HW2  827   1.175   1.524   3.288
  270SOL     OW  828   0.321   0.943   2.104
  270SOL    HW1  829   0.403   0.982   2.062
  270SOL    HW2  830   0.294   0.861   2.055
  271SOL     OW  831   1.458   0.735   2.590
  271SOL    HW1  832   1.453   0.670   2.665
  271SOL    HW2  833   1.538   0.794   2.603
  272SOL     OW  834   0.461   1.266   3.589
  272SOL    HW1  835   0.411   1.267   3.503
  272SOL    HW2  836   0.398   1.248   3.665
  273SOL     OW  837   1.111   1.776   2.099
  273SOL    HW1  838   1.051   1.714   2.149
  273SOL    HW2  839   1.142   1.732   2.014
  274SOL     OW  840   0.202   0.285   3.360
  274SOL    HW1  841   0.122   0.345   3.347
  274SOL    HW2  842   0.192   0.236   3.446
  275SOL     OW  843   1.632   1.377   1.943
  275SOL    HW1  844   1.600   1.471   1.933
  275SOL    HW2  845   1.556   1.314   1.931
  276SOL     OW  846   0.464   1.743   2.185
  276SOL    HW1  847   0.497   1.782   2.271
  276SOL    HW2  848   0.540   1.736   2.120
  277SOL     OW  849   1.400   0.107   2.288
  277SOL    HW1  850   1.376   0.070   2.198
  277SOL    HW2  851   1.499   0.123   2.292
  278SOL     OW  852   0.249   1.785   3.103
  278SOL    HW1  853   0.306   1.720   3.153
  278SOL    HW2  854   0.233   1.752   3.010
  279SOL     OW  855   0.940   1.698   2.766
  279SOL    HW1  856   1.020   1.641   2.787
  279SOL    HW2  857   0.891   1.658   2.689
  280SOL     OW  858   0.382   0.700   2.342
  280SOL    HW1  859   0.427   0.610   2.339
  280SOL    HW2  860   0.288   0.689   2.375
  281SOL     OW  861   1.547   0.222   3.591
  281SOL    HW1  862   1.542   0.259   3.683
  281SOL    HW2  863   1.475   0.153   3.579
  282SOL     OW  864   0.614   0.122   1.979
  282SOL    HW1  865   0.712   0.100   1.986
  282SOL    HW2  866   0.583   0.105   1.886
  283SOL     OW  867   0.781   0.264   3.611
  283SOL    HW1  868   0.848   0.203   3.654
  283SOL    HW2  869   0.708   0.283   3.676
  284SOL     OW  870   0.888   1.514   3.057
  284SOL    HW1  871   0.865   1.489   2.963
  284SOL    HW2  872   0.949   1.445   3.096
  285SOL     OW  873   1.351   0.590   3.295
  285SOL    HW1  874   1.379   0.547   3.380
  285SOL    HW2  875   1.376   0.686   3.296
  286SOL     OW  876   0.803   1.402   2.786
  286SOL    HW1  877   0.893   1.416   2.744
  286SOL    HW2  878   0.732   1.404   2.715
  287SOL     OW  879   0.922   0.503   2.761
  287SOL    HW1  880   0.897   0.494   2.665
  287SOL    HW2  881   0.970   0.421   2.792
  288SOL     OW  882   0.539   0.064   2.374
  288SOL    HW1  883   0.458   0.065   2.432
  288SOL    HW2  884   0.542   0.147   2.319
  289SOL     OW  885   1.434   1.188   1.903
  289SOL    HW1  886   1.466   1.112   1.960
  289SOL    HW2  887   1.342   1.215   1.933
  290SOL     OW  888   0.297   0.035   2.033
  290SOL    HW1  889   0.346   0.119   2.012
  290SOL    HW2  890   0.359  -0.030   2.078
  291SOL     OW  891   0.935   0.236   2.342
  291SOL    HW1  892   0.887   0.277   2.264
  291SOL    HW2  893   1.034   0.234   2.323
  292SOL     OW  894   1.076   0.683   3.326
  292SOL    HW1  895   0.996   0.622   3.329
  292SOL    HW2  896   1.157   0.630   3.302
  293SOL     OW  897   1.227   1.570   2.655
  293SOL    HW1  898   1.248   1.644   2.590
  293SOL    HW2  899   1.295   1.570   2.728
  294SOL     OW  900   0.459   1.152   2.603
  294SOL    HW1  901   0.388   1.125   2.668
  294SOL    HW2  902   0.433   1.124   2.510
  295SOL     OW  903   1.271   1.797   2.453
  295SOL    HW1  904   1.315   1.861   2.389
  295SOL    HW2  905   1.221   1.849   2.523
  296SOL     OW  906   1.032   0.549   1.878
  296SOL    HW1  907   0.991   0.631   1.839
  296SOL    HW2  908   1.096   0.575   1.951
  297SOL     OW  909   0.078   0.556   3.248
  297SOL    HW1  910   0.170   0.555   3.207
  297SOL    HW2  911   0.072   0.630   3.315
  298SOL     OW  912   0.561   0.222   3.009
  298SOL    HW1  913   0.599   0.138   3.046
  298SOL    HW2  914   0.473   0.241   3.053
  299SOL     OW  915   0.866   0.454   2.504
  299SOL    HW1  916   0.834   0.526   2.442
  299SOL    HW2  917   0.890   0.373   2.451
  300SOL     OW  918   1.017   0.039   2.615
  300SOL    HW1  919   0.945   0.044   2.546
  300SOL    HW2  920   0.993  -0.030   2.684
  301SOL     OW  921   1.429   1.173   2.729
  301SOL    HW1  922   1.374   1.089   2.722
  301SOL    HW2  923   1.455   1.202   2.637
  302SOL     OW  924   1.466   0.590   2.854
  302SOL    HW1  925   1.436   0.495   2.861
  302SOL    HW2  926   1.539   0.606   2.920
  303SOL     OW  927   1.857   0.833   2.239
  303SOL    HW1  928   1.899   0.769   2.303
  303SOL    HW2  929   1.819   0.782   2.161
  304SOL     OW  930   0.488   1.385   2.036
  304SOL    HW1  931   0.401   1.370   2.083
  304SOL    HW2  932   0.471   1.411   1.941
  305SOL     OW  933   1.664   1.280   2.519
  305SOL    HW1  934   1.763   1.288   2.533
  305SOL    HW2  935   1.619   1.364   2.550
  306SOL     OW  936   1.390   0.575   1.940
  306SOL    HW1  937   1.336   0.554   2.021
  306SOL    HW2  938   1.481   0.534   1.949
  307SOL     OW  939   0.527   0.256   2.190
  307SOL    HW1  940   0.554   0.197   2.115
  307SOL    HW2  941   0.527   0.351   2.159
  308SOL     OW  942   1.754   1.223   3.450
  308SOL    HW1  943   1.845   1.184   3.437
  308SOL    HW2  944   1.762   1.319   3.474
  309SOL     OW  945   1.064   1.347   3.202
  309SOL    HW1  946   0.984   1.324   3.257
  309SOL    HW2  947   1.147   1.321   3.251
  310SOL     OW  948   1.592   1.629   3.487
  310SOL    HW1  949   1.619   1.663   3.397
  310SOL    HW2  950   1.671   1.591   3.533
  311SOL     OW  951   1.111   1.195   2.962
  311SOL    HW1  952   1.071   1.239   3.043
  311SOL    HW2  953   1.070   1.232   2.879
  312SOL     OW  954   1.638   1.099   2.941
  312SOL    HW1  955   1.643   1.180   3.000
  312SOL    HW2  956   1.552   1.101   2.890
  313SOL     OW  957   0.915   0.089   3.264
  313SOL    HW1  958   0.940   0.069   3.169
  313SOL    HW2  959   0.987   0.145   3.306
  314SOL     OW  960   0.980   1.116   3.581
  314SOL    HW1  961   0.881   1.122   3.591
  314SOL    HW2  962   1.003   1.036   3.525
  315SOL     OW  963   0.705   1.050   2.230
  315SOL    HW1  964   0.691   1.057   2.329
  315SOL    HW2  965   0.789   0.999   2.212
  316SOL     OW  966   0.410   0.813   3.113
  316SOL    HW1  967   0.496   0.825   3.163
  316SOL    HW2  968   0.368   0.726   3.140
  317SOL     OW  969   1.274   0.386   3.124
  317SOL    HW1  970   1.295   0.460   3.188
  317SOL    HW2  971   1.185   0.403   3.081
  318SOL     OW  972   0.064   1.564   3.193
  318SOL    HW1  973   0.018   1.646   3.159
  318SOL    HW2  974   0.162   1.583   3.202
  319SOL     OW  975   0.367   1.100   2.363
  319SOL    HW1  976   0.360   1.183   2.307
  319SOL    HW2  977   0.371   1.020   2.303
  320SOL     OW  978   0.566   0.537   2.727
  320SOL    HW1  979   0.578   0.603   2.653
  320SOL    HW2  980   0.612   0.571   2.810
  321SOL     OW  981   1.252   1.348   2.250
  321SOL    HW1  982   1.302   1.425   2.290
  321SOL    HW2  983   1.157   1.350   2.282
  322SOL     OW  984   1.272   1.445   3.004
  322SOL    HW1  985   1.319   1.458   3.091
  322SOL    HW2  986   1.206   1.371   3.013
  323SOL     OW  987   1.582   0.639   2.334
  323SOL    HW1  988   1.551   0.700   2.407
  323SOL    HW2  989   1.632   0.691   2.265
  324SOL     OW  990   0.354   1.510   3.191
  324SOL    HW1  991   0.333   1.466   3.104
  324SOL    HW2  992   0.451   1.536   3.194
  325SOL     OW  993   0.402   0.751   3.460
  325SOL    HW1  994   0.470   0.806   3.413
  325SOL    HW2  995   0.442   0.663   3.487
  326SOL     OW  996   1.587   0.779   3.532
  326SOL    HW1  997   1.495   0.817   3.527
  326SOL    HW2  998   1.647   0.826   3.467
  327SOL     OW  999   1.013   0.105   3.632
  327SOL    HW1 1000   1.019   0.190   3.580
  327SOL    HW2 1001   1.045   0.029   3.575
  328SOL     OW 1002   0.504   0.050   3.602
  328SOL    HW1 1003   0.462  -0.007   3.532
  328SOL    HW2 1004   0.438   0.119   3.634
  329SOL     OW 1005   0.573   0.870   2.891
  329SOL    HW1 1006   0.617   0.959   2.882
  329SOL    HW2 1007   0.510   0.870   2.968
  330SOL     OW 1008   1.360   0.862   2.907
  330SOL    HW1 1009   1.285   0.862   2.841
  330SOL    HW2 1010   1.397   0.770   2.916
  331SOL     OW 1011   1.209   0.525   2.137
  331SOL    HW1 1012   1.222   0.441   2.191
  331SOL    HW2 1013   1.180   0.599   2.197
  332SOL     OW 1014   0.307   0.213   3.093
  332SOL    HW1 1015   0.284   0.250   3.183
  332SOL    HW2 1016   0.277   0.118   3.087
  333SOL     OW 1017   0.037   1.310   3.144
  333SOL    HW1 1018   0.090   1.261   3.212
  333SOL    HW2 1019   0.059   1.408   3.149
  334SOL     OW 1020   0.732   0.634   2.926
  334SOL    HW1 1021   0.791   0.608   2.850
  334SOL    HW2 1022   0.704   0.730   2.915
  335SOL     OW 1023   1.728   0.935   3.716
  335SOL    HW1 1024   1.682   0.928   3.627
  335SOL    HW2 1025   1.666   0.979   3.782
  336SOL     OW 1026   0.307   0.063   2.480
  336SOL    HW1 1027   0.296   0.157   2.513
  336SOL    HW2 1028   0.302   0.000   2.557
  337SOL     OW 1029   1.622   0.367   2.236
  337SOL    HW1 1030   1.624   0.291   2.300
  337SOL    HW2 1031   1.574   0.444   2.276
  338SOL     OW 1032   1.023   0.766   2.828
  338SOL    HW1 1033   1.038   0.787   2.924
  338SOL    HW2 1034   0.993   0.671   2.819
  339SOL     OW 1035   0.980   1.573   3.562
  339SOL    HW1 1036   0.960   1.617   3.474
  339SOL    HW2 1037   1.019   1.482   3.546
  340SOL     OW 1038   1.859   1.518   3.467
  340SOL    HW1 1039   1.873   1.545   3.372
  340SOL    HW2 1040   1.942   1.540   3.520
  341SOL     OW 1041   0.350   0.898   3.666
  341SOL    HW1 1042   0.426   0.942   3.714
  341SOL    HW2 1043   0.385   0.851   3.584
  342SOL     OW 1044   1.540   0.274   1.987
  342SOL    HW1 1045   1.479   0.199   2.010
  342SOL    HW2 1046   1.562   0.326   2.070
  343SOL     OW 1047   1.303   0.838   1.904
  343SOL    HW1 1048   1.337   0.745   1.919
  343SOL    HW2 1049   1.321   0.865   1.809
  344SOL     OW 1050   1.068   1.333   2.711
  344SOL    HW1 1051   1.075   1.249   2.656
  344SOL    HW2 1052   1.130   1.402   2.675
  345SOL     OW 1053   0.319   0.810   2.811
  345SOL    HW1 1054   0.412   0.846   2.816
  345SOL    HW2 1055   0.313   0.725   2.863
  346SOL     OW 1056   0.339   0.509   2.868
  346SOL    HW1 1057   0.287   0.426   2.851
  346SOL    HW2 1058   0.416   0.514   2.804
  347SOL     OW 1059   1.138   0.380   3.540
  347SOL    HW1 1060   1.093   0.443   3.604
  347SOL    HW2 1061   1.231   0.411   3.523
  348SOL     OW 1062   1.160   0.207   3.339
  348SOL    HW1 1063   1.160   0.271   3.416
  348SOL    HW2 1064   1.188   0.255   3.256
  349SOL     OW 1065   0.008   1.326   2.062
  349SOL    HW1 1066  -0.085   1.347   2.031
  349SOL    HW2 1067   0.018   1.227   2.075
  350SOL     OW 1068   0.088   1.801   2.789
  350SOL    HW1 1069   0.046   1.715   2.762
  350SOL    HW2 1070   0.182   1.804   2.755
  351SOL     OW 1071   0.504   1.568   2.772
  351SOL    HW1 1072   0.570   1.642   2.781
  351SOL    HW2 1073   0.548   1.489   2.730
  352SOL     OW 1074   1.002   0.796   3.100
  352SOL    HW1 1075   1.043   0.764   3.186
  352SOL    HW2 1076   0.906   0.769   3.097
  353SOL     OW 1077   0.040   0.544   2.976
  353SOL    HW1 1078   0.125   0.511   2.935
  353SOL    HW2 1079   0.053   0.559   3.074
  354SOL     OW 1080   0.189   0.520   3.584
  354SOL    HW1 1081   0.248   0.480   3.514
  354SOL    HW2 1082   0.131   0.591   3.543
  355SOL     OW 1083   1.369   0.950   3.522
  355SOL    HW1 1084   1.408   1.039   3.542
  355SOL    HW2 1085   1.379   0.930   3.425
  356SOL     OW 1086   0.815   0.572   2.187
  356SOL    HW1 1087   0.822   0.483   2.141
  356SOL    HW2 1088   0.721   0.606   2.179
  357SOL     OW 1089   1.657   0.604   3.068
  357SOL    HW1 1090   1.619   0.535   3.130
  357SOL    HW2 1091   1.739   0.568   3.024
  358SOL     OW 1092   0.252   1.564   3.606
  358SOL    HW1 1093   0.222   1.621   3.682
  358SOL    HW2 1094   0.245   1.467   3.632
  359SOL     OW 1095   0.671   0.464   3.131
  359SOL    HW1 1096   0.637   0.375   3.101
  359SOL    HW2 1097   0.697   0.518   3.051
  360SOL     OW 1098   0.930   1.678   3.327
  360SOL    HW1 1099   0.906   1.660   3.232
  360SOL    HW2 1100   0.960   1.772   3.337
  361SOL     OW 1101   0.473   0.500   2.053
  361SOL    HW1 1102   0.534   0.580   2.057
  361SOL    HW2 1103   0.378   0.531   2.060
  362SOL     OW 1104   0.159   1.137   3.328
  362SOL    HW1 1105   0.181   1.076   3.404
  362SOL    HW2 1106   0.169   1.088   3.242
  363SOL     OW 1107   1.347   1.059   3.096
  363SOL    HW1 1108   1.371   0.996   3.022
  363SOL    HW2 1109   1.257   1.099   3.078
  364SOL     OW 1110   1.302   0.855   2.171
  364SOL    HW1 1111   1.216   0.824   2.213
  364SOL    HW2 1112   1.298   0.841   2.072
  365SOL     OW 1113   1.759   1.747   3.016
  365SOL    HW1 1114   1.820   1.777   2.943
  365SOL    HW2 1115   1.721   1.658   2.994
  366SOL     OW 1116   1.252   1.731   2.990
  366SOL    HW1 1117   1.336   1.736   2.936
  366SOL    HW2 1118   1.229   1.635   3.008
  367SOL     OW 1119   0.083   1.258   2.884
  367SOL    HW1 1120   0.078   1.257   2.984
  367SOL    HW2 1121   0.000   1.217   2.846
  368SOL     OW 1122   0.688   1.662   3.578
  368SOL    HW1 1123   0.632   1.743   3.587
  368SOL    HW2 1124   0.740   1.666   3.492
  369SOL     OW 1125   1.726   0.135   2.385
  369SOL    HW1 1126   1.799   0.118   2.318
  369SOL    HW2 1127   1.695   0.048   2.423
  370SOL     OW 1128   1.388   1.573   2.339
  370SOL    HW1 1129   1.455   1.585   2.265
  370SOL    HW2 1130   1.348   1.662   2.362
  371SOL     OW 1131   0.130   1.794   3.713
  371SOL    HW1 1132   0.089   1.720   3.766
  371SOL    HW2 1133   0.194   1.845   3.771
  372SOL     OW 1134   1.280   0.927   2.534
  372SOL    HW1 1135   1.340   0.846   2.536
  372SOL    HW2 1136   1.320   0.996   2.474
  373SOL     OW 1137   0.830   1.273   3.284
  373SOL    HW1 1138   0.825   1.306   3.379
  373SOL    HW2 1139   0.744   1.292   3.238
  374SOL     OW 1140   0.672   1.616   2.016
  374SOL    HW1 1141   0.681   1.626   1.917
  374SOL    HW2 1142   0.632   1.527   2.037
  375SOL     OW 1143   1.650   1.720   3.256
  375SOL    HW1 1144   1.703   1.730   3.172
  375SOL    HW2 1145   1.623   1.810   3.290
  376SOL     OW 1146   1.841   0.175   2.825
  376SOL    HW1 1147   1.880   0.090   2.789
  376SOL    HW2 1148   1.743   0.177   2.806
  377SOL     OW 1149   0.263   0.326   2.582
  377SOL    HW1 1150   0.184   0.377   2.548
  377SOL    HW2 1151   0.254   0.311   2.680
  378SOL     OW 1152   1.194   1.612   1.893
  378SOL    HW1 1153   1.200   1.519   1.930
  378SOL    HW2 1154   1.135   1.612   1.813
  379SOL     OW 1155   0.822   1.002   3.234
  379SOL    HW1 1156   0.862   1.001   3.142
  379SOL    HW2 1157   0.832   1.094   3.274
  380SOL     OW 1158   0.916   0.910   2.153
  380SOL    HW1 1159   0.979   0.948   2.085
  380SOL    HW2 1160   0.956   0.827   2.192
  381SOL     OW 1161   1.504   1.607   1.906
  381SOL    HW1 1162   1.412   1.644   1.913
  381SOL    HW2 1163   1.542   1.627   1.816
  382SOL     OW 1164   0.372   1.288   3.352
  382SOL    HW1 1165   0.359   1.381   3.318
  382SOL    HW2 1166   0.288   1.236   3.339
  383SOL     OW 1167   1.614   1.292   3.151
  383SOL    HW1 1168   1.674   1.295   3.231
  383SOL    HW2 1169   1.539   1.356   3.164
  384SOL     OW 1170   1.039   1.098   2.558
  384SOL    HW1 1171   0.969   1.051   2.612
  384SOL    HW2 1172   1.098   1.030   2.515
  385SOL     OW 1173   1.014   0.236   2.833
  385SOL    HW1 1174   1.006   0.200   2.740
  385SOL    HW2 1175   1.012   0.160   2.898
  386SOL     OW 1176   0.590   1.487   2.353
  386SOL    HW1 1177   0.632   1.429   2.283
  386SOL    HW2 1178   0.546   1.566   2.309
  387SOL     OW 1179   1.709   0.385   3.243
  387SOL    HW1 1180   1.782   0.454   3.247
  387SOL    HW2 1181   1.737   0.310   3.184
  388SOL     OW 1182   0.255   1.348   2.152
  388SOL    HW1 1183   0.159   1.349   2.125
  388SOL    HW2 1184   0.267   1.401   2.236
  389SOL     OW 1185   0.105   1.013   3.588
  389SOL    HW1 1186   0.028   0.980   3.642
  389SOL    HW2 1187   0.190   0.983   3.630
  390SOL     OW 1188   0.672   0.203   3.351
  390SOL    HW1 1189   0.762   0.187   3.311
  390SOL    HW2 1190   0.680   0.208   3.450
  391SOL     OW 1191   0.075   0.345   1.895
  391SOL    HW1 1192  -0.017   0.317   1.866
  391SOL    HW2 1193   0.106   0.422   1.839
  392SOL     OW 1194   1.440   0.856   3.260
  392SOL    HW1 1195   1.383   0.908   3.197
  392SOL    HW2 1196   1.536   0.868   3.236
  393SOL     OW 1197   0.072   0.166   2.180
  393SOL    HW1 1198   0.055   0.249   2.126
  393SOL    HW2 1199   0.162   0.129   2.158
  394SOL     OW 1200   1.183   1.335   1.981
  394SOL    HW1 1201   1.084   1.324   1.983
  394SOL    HW2 1202   1.217   1.350   2.074
  395SOL     OW 1203   0.613   0.842   3.293
  395SOL    HW1 1204   0.669   0.923   3.276
  395SOL    HW2 1205   0.672   0.762   3.296
  396SOL     OW 1206   1.493   1.767   2.821
  396SOL    HW1 1207   1.526   1.831   2.752
  396SOL    HW2 1208   1.559   1.761   2.896
  397SOL     OW 1209   0.716   0.565   3.570
  397SOL    HW1 1210   0.735   0.630   3.644
  397SOL    HW2 1211   0.776   0.485   3.579
  398SOL     OW 1212   1.450   1.220   3.495
  398SOL    HW1 1213   1.441   1.210   3.594
  398SOL    HW2 1214   1.546   1.213   3.469
  399SOL     OW 1215   0.390   1.741   3.422
  399SOL    HW1 1216   0.299   1.782   3.420
  399SOL    HW2 1217   0.383   1.647   3.454
  400SOL     OW 1218   1.674   0.883   3.116
  400SOL    HW1 1219   1.647   0.794   3.079
  400SOL    HW2 1220   1.675   0.951   3.043
  401SOL     OW 1221   1.225   0.325   2.311
  401SOL    HW1 1222   1.290   0.251   2.300
  401SOL    HW2 1223   1.245   0.375   2.395
  402SOL     OW 1224   0.594   0.745   2.514
  402SOL    HW1 1225   0.644   0.830   2.495
  402SOL    HW2 1226   0.506   0.747   2.466
  403SOL     OW 1227   1.777   0.342   3.504
  403SOL    HW1 1228   1.760   0.373   3.410
  403SOL    HW2 1229   1.693   0.305   3.542
  404SOL     OW 1230   1.730   0.934   3.379
  404SOL    HW1 1231   1.768   1.025   3.394
  404SOL    HW2 1232   1.722   0.917   3.280
  405SOL     OW 1233   0.859   1.374   1.878
  405SOL    HW1 1234   0.813   1.389   1.966
  405SOL    HW2 1235   0.903   1.459   1.848
  406SOL     OW 1236   0.661   1.790   2.815
  406SOL    HW1 1237   0.615   1.878   2.802
  406SOL    HW2 1238   0.760   1.802   2.808
  407SOL     OW 1239   0.859   0.956   2.723
  407SOL    HW1 1240   0.913   0.887   2.771
  407SOL    HW2 1241   0.827   1.025   2.789
  408SOL     OW 1242   1.083   0.984   1.949
  408SOL    HW1 1243   1.060   1.037   1.867
  408SOL    HW2 1244   1.164   0.928   1.930
  409SOL     OW 1245   1.861   1.569   2.713
  409SOL    HW1 1246   1.790   1.557   2.643
  409SOL    HW2 1247   1.862   1.490   2.773
  410SOL     OW 1248   0.221   1.314   3.706
  410SOL    HW1 1249   0.156   1.241   3.685
  410SOL    HW2 1250   0.225   1.328   3.804
  411SOL     OW 1251   0.079   1.240   2.515
  411SOL    HW1 1252   0.078   1.193   2.603
  411SOL    HW2 1253   0.161   1.212   2.464
  412SOL     OW 1254   0.672   1.391   3.486
  412SOL    HW1 1255   0.594   1.341   3.524
  412SOL    HW2 1256   0.669   1.486   3.517
  413SOL     OW 1257   1.824   0.192   3.089
  413SOL    HW1 1258   1.820   0.102   3.133
  413SOL    HW2 1259   1.827   0.181   2.990
  414SOL     OW 1260   0.428   0.424   2.382
  414SOL    HW1 1261   0.458   0.352   2.320
  414SOL    HW2 1262   0.389   0.384   2.465
  415SOL     OW 1263   1.705   1.487   2.966
  415SOL    HW1 1264   1.612   1.462   2.939
  415SOL    HW2 1265   1.731   1.437   3.048
  416SOL     OW 1266   0.317   0.547   3.142
  416SOL    HW1 1267   0.355   0.488   3.214
  416SOL    HW2 1268   0.357   0.521   3.054
  417SOL     OW 1269   0.812   1.586   2.549
  417SOL    HW1 1270   0.844   1.596   2.455
  417SOL    HW2 1271   0.733   1.524   2.551
  418SOL     OW 1272   1.424   0.214   2.974
  418SOL    HW1 1273   1.476   0.149   3.029
  418SOL    HW2 1274   1.375   0.277   3.035
  419SOL     OW 1275   1.001   0.034   3.016
  419SOL    HW1 1276   0.938  -0.038   2.985
  419SOL    HW2 1277   1.094  -0.002   3.016
  420SOL     OW 1278   0.770   1.330   2.163
  420SOL    HW1 1279   0.724   1.243   2.180
  420SOL    HW2 1280   0.861   1.327   2.204
  421SOL     OW 1281   0.618   1.567   3.146
  421SOL    HW1 1282   0.613   1.649   3.203
  421SOL    HW2 1283   0.707   1.564   3.101
  422SOL     OW 1284   1.352   0.052   2.030
  422SOL    HW1 1285   1.387   0.011   1.946
  422SOL    HW2 1286   1.262   0.014   2.050
  423SOL     OW 1287   1.300   0.453   2.553
  423SOL    HW1 1288   1.241   0.533   2.557
  423SOL    HW2 1289   1.315   0.418   2.646
  424SOL     OW 1290   1.593   0.221   2.744
  424SOL    HW1 1291   1.509   0.220   2.798
  424SOL    HW2 1292   1.595   0.304   2.688
  425SOL     OW 1293   0.039   1.077   2.162
  425SOL    HW1 1294   0.138   1.066   2.153
  425SOL    HW2 1295  -0.001   0.991   2.194
  426SOL     OW 1296   0.875   1.646   2.199
  426SOL    HW1 1297   0.798   1.611   2.145
  426SOL    HW2 1298   0.843   1.717   2.261
  427SOL     OW 1299   0.230   0.628   3.837
  427SOL    HW1 1300   0.137   0.626   3.874
  427SOL    HW2 1301   0.231   0.589   3.745
  428SOL     OW 1302   0.225   0.275   4.720
  428SOL    HW1 1303   0.260   0.258   4.812
  428SOL    HW2 1304   0.137   0.230   4.708
  429SOL     OW 1305   0.019   0.368   4.371
  429SOL    HW1 1306  -0.063   0.411   4.410
  429SOL    HW2 1307  -0.009   0.295   4.308
  430SOL     OW 1308   1.555   1.511   4.427
  430SOL    HW1 1309   1.498   1.495   4.508
  430SOL    HW2 1310   1.496   1.521   4.347
  431SOL     OW 1311   1.135   0.703   4.441
  431SOL    HW1 1312   1.192   0.781   4.416
  431SOL    HW2 1313   1.075   0.729   4.517
  432SOL     OW 1314   1.755   0.607   3.955
  432SOL    HW1 1315   1.743   0.594   3.856
  432SOL    HW2 1316   1.725   0.526   4.004
  433SOL     OW 1317   0.768   1.144   4.747
  433SOL    HW1 1318   0.690   1.161   4.807
  433SOL    HW2 1319   0.802   1.231   4.711
  434SOL     OW 1320   0.685   1.012   4.389
  434SOL    HW1 1321   0.754   0.996   4.459
  434SOL    HW2 1322   0.612   1.069   4.427
  435SOL     OW 1323   0.335   1.435   4.785
  435SOL    HW1 1324   0.257   1.404   4.732
  435SOL    HW2 1325   0.393   1.493   4.728
  436SOL     OW 1326   1.603   0.447   4.461
  436SOL    HW1 1327   1.529   0.493   4.411
  436SOL    HW2 1328   1.654   0.515   4.514
  437SOL     OW 1329   0.231   1.713   4.207
  437SOL    HW1 1330   0.265   1.790   4.261
  437SOL    HW2 1331   0.275   1.713   4.117
  438SOL     OW 1332   0.230   1.434   4.262
  438SOL    HW1 1333   0.204   1.530   4.262
  438SOL    HW2 1334   0.159   1.380   4.307
  439SOL     OW 1335   0.240   1.091   4.610
  439SOL    HW1 1336   0.254   1.007   4.662
  439SOL    HW2 1337   0.185   1.155   4.665
  440SOL     OW 1338   0.606   0.964   3.847
  440SOL    HW1 1339   0.613   1.048   3.793
  440SOL    HW2 1340   0.652   0.977   3.935
  441SOL     OW 1341   0.122   0.643   4.287
  441SOL    HW1 1342   0.077   0.555   4.304
  441SOL    HW2 1343   0.121   0.697   4.371
  442SOL     OW 1344   1.842   1.767   4.083
  442SOL    HW1 1345   1.896   1.738   4.163
  442SOL    HW2 1346   1.872   1.857   4.054
  443SOL     OW 1347   0.027   1.596   3.841
  443SOL    HW1 1348   0.008   1.500   3.862
  443SOL    HW2 1349  -0.006   1.654   3.916
  444SOL     OW 1350   1.689   0.922   4.336
  444SOL    HW1 1351   1.784   0.893   4.344
  444SOL    HW2 1352   1.681   0.987   4.261
  445SOL     OW 1353   1.641   1.108   4.156
  445SOL    HW1 1354   1.727   1.110   4.104
  445SOL    HW2 1355   1.655   1.155   4.244
  446SOL     OW 1356   0.613   1.365   4.450
  446SOL    HW1 1357   0.564   1.278   4.459
  446SOL    HW2 1358   0.590   1.408   4.363
  447SOL     OW 1359   0.809   0.004   4.226
  447SOL    HW1 1360   0.849   0.095   4.217
  447SOL    HW2 1361   0.709   0.012   4.232
  448SOL     OW 1362   0.197   0.976   4.988
  448SOL    HW1 1363   0.286   0.931   4.974
  448SOL    HW2 1364   0.124   0.911   4.969
  449SOL     OW 1365   1.525   0.999   3.914
  449SOL    HW1 1366   1.462   0.923   3.927
  449SOL    HW2 1367   1.573   1.017   4.000
  450SOL     OW 1368   1.466   1.417   4.677
  450SOL    HW1 1369   1.407   1.423   4.757
  450SOL    HW2 1370   1.451   1.329   4.631
  451SOL     OW 1371   1.667   1.714   4.296
  451SOL    HW1 1372   1.626   1.691   4.208
  451SOL    HW2 1373   1.649   1.640   4.361
  452SOL     OW 1374   0.598   0.729   3.994
  452SOL    HW1 1375   0.622   0.798   3.926
  452SOL    HW2 1376   0.520   0.762   4.048
  453SOL     OW 1377   1.281   0.345   4.668
  453SOL    HW1 1378   1.195   0.295   4.655
  453SOL    HW2 1379   1.343   0.291   4.724
  454SOL     OW 1380   1.576   1.662   4.031
  454SOL    HW1 1381   1.665   1.708   4.034
  454SOL    HW2 1382   1.555   1.638   3.936
  455SOL     OW 1383   1.041   0.701   4.153
  455SOL    HW1 1384   1.067   0.697   4.249
  455SOL    HW2 1385   0.956   0.650   4.139
  456SOL     OW 1386   0.076   0.811   4.513
  456SOL    HW1 1387   0.175   0.799   4.522
  456SOL    HW2 1388   0.052   0.906   4.534
  457SOL     OW 1389   0.865   0.348   3.919
  457SOL    HW1 1390   0.924   0.411   3.870
  457SOL    HW2 1391   0.884   0.254   3.890
  458SOL     OW 1392   1.362   1.144   4.269
  458SOL    HW1 1393   1.445   1.115   4.221
  458SOL    HW2 1394   1.313   1.211   4.213
  459SOL     OW 1395   0.550   0.196   4.609
  459SOL    HW1 1396   0.545   0.191   4.709
  459SOL    HW2 1397   0.552   0.292   4.580
  460SOL     OW 1398   1.008   1.456   4.201
  460SOL    HW1 1399   0.962   1.528   4.149
  460SOL    HW2 1400   1.004   1.476   4.299
  461SOL     OW 1401   0.351   1.801   4.577
  461SOL    HW1 1402   0.401   1.715   4.583
  461SOL    HW2 1403   0.416   1.878   4.574
  462SOL     OW 1404   1.795   1.066   4.597
  462SOL    HW1 1405   1.733   1.051   4.521
  462SOL    HW2 1406   1.743   1.077   4.682
  463SOL     OW 1407   0.321   0.943   3.966
  463SOL    HW1 1408   0.403   0.982   3.924
  463SOL    HW2 1409   0.294   0.861   3.917
  464SOL     OW 1410   1.458   0.735   4.452
  464SOL    HW1 1411   1.453   0.670   4.527
  464SOL    HW2 1412   1.538   0.794   4.465
  465SOL     OW 1413   1.111   1.776   3.961
  465SOL    HW1 1414   1.051   1.714   4.011
  465SOL    HW2 1415   1.142   1.732   3.876
  466SOL     OW 1416   1.632   1.377   3.805
  466SOL    HW1 1417   1.600   1.471   3.795
  466SOL    HW2 1418   1.556   1.314   3.793
  467SOL     OW 1419   0.464   1.743   4.047
  467SOL    HW1 1420   0.497   1.782   4.133
  467SOL    HW2 1421   0.540   1.736   3.982
  468SOL     OW 1422   1.400   0.107   4.150
  468SOL    HW1 1423   1.376   0.070   4.060
  468SOL    HW2 1424   1.499   0.123   4.154
  469SOL     OW 1425   0.249   1.785   4.965
  469SOL    HW1 1426   0.306   1.720   5.015
  469SOL    HW2 1427   0.233   1.752   4.872
  470SOL     OW 1428   0.940   1.698   4.628
  470SOL    HW1 1429   1.020   1.641   4.649
  470SOL    HW2 1430   0.891   1.658   4.551
  471SOL     OW 1431   0.382   0.700   4.204
  471SOL    HW1 1432   0.427   0.610   4.201
  471SOL    HW2 1433   0.288   0.689   4.237
  472SOL     OW 1434   0.614   0.122   3.841
  472SOL    HW1 1435   0.712   0.100   3.848
  472SOL    HW2 1436   0.583   0.105   3.748
  473SOL     OW 1437   0.803   1.402   4.648
  473SOL    HW1 1438   0.893   1.416   4.606
  473SOL    HW2 1439   0.732   1.404   4.577
  474SOL     OW 1440   0.922   0.503   4.623
  474SOL    HW1 1441   0.897   0.494   4.527
  474SOL    HW2 1442   0.970   0.421   4.654
  475SOL     OW 1443   0.539   0.064   4.236
  475SOL    HW1 1444   0.458   0.065   4.294
  475SOL    HW2 1445   0.542   0.147   4.181
  476SOL     OW 1446   1.434   1.188   3.765
  476SOL    HW1 1447   1.466   1.112   3.822
  476SOL    HW2 1448   1.342   1.215   3.795
  477SOL     OW 1449   0.297   0.035   3.895
  477SOL    HW1 1450   0.346   0.119   3.874
  477SOL    HW2 1451   0.359  -0.030   3.940
  478SOL     OW 1452   0.935   0.236   4.204
  478SOL    HW1 1453   0.887   0.277   4.126
  478SOL    HW2 1454   1.034   0.234   4.185
  479SOL     OW 1455   1.227   1.570   4.517
  479SOL    HW1 1456   1.248   1.644   4.452
  479SOL    HW2 1457   1.295   1.570   4.590
  480SOL     OW 1458   0.459   1.152   4.465
  480SOL    HW1 1459   0.388   1.125   4.530
  480SOL    HW2 1460   0.433   1.124   4.372
  481SOL     OW 1461   1.271   1.797   4.315
  481SOL    HW1 1462   1.315   1.861   4.251
  481SOL    HW2 1463   1.221   1.849   4.385
  482SOL     OW 1464   1.032   0.549   3.740
  482SOL    HW1 1465   0.991   0.631   3.701
  482SOL    HW2 1466   1.096   0.575   3.813
  483SOL     OW 1467   0.866   0.454   4.366
  483SOL    HW1 1468   0.834   0.526   4.304
  483SOL    HW2 1469   0.890   0.373   4.313
  484SOL     OW 1470   1.017   0.039   4.477
  484SOL    HW1 1471   0.945   0.044   4.408
  484SOL    HW2 1472   0.993  -0.030   4.546
  485SOL     OW 1473   1.429   1.173   4.591
  485SOL    HW1 1474   1.374   1.089   4.584
  485SOL    HW2 1475   1.455   1.202   4.499
  486SOL     OW 1476   1.466   0.590   4.716
  486SOL    HW1 1477   1.436   0.495   4.723
  486SOL    HW2 1478   1.539   0.606   4.782
  487SOL     OW 1479   1.857   0.833   4.101
  487SOL    HW1 1480   1.899   0.769   4.165
  487SOL    HW2 1481   1.819   0.782   4.023
  488SOL     OW 1482   0.488   1.385   3.898
  488SOL    HW1 1483   0.401   1.370   3.945
  488SOL    HW2 1484   0.471   1.411   3.803
  489SOL     OW 1485   1.664   1.280   4.381
  489SOL    HW1 1486   1.763   1.288   4.395
  489SOL    HW2 1487   1.619   1.364   4.412
  490SOL     OW 1488   1.390   0.575   3.802
  490SOL    HW1 1489   1.336   0.554   3.883
  490SOL    HW2 1490   1.481   0.534   3.811
  491SOL     OW 1491   0.527   0.256   4.052
  491SOL    HW1 1492   0.554   0.197   3.977
  491SOL    HW2 1493   0.527   0.351   4.021
  492SOL     OW 1494   1.111   1.195   4.824
  492SOL    HW1 1495   1.071   1.239   4.905
  492SOL    HW2 1496   1.070   1.232   4.741
  493SOL     OW 1497   1.638   1.099   4.803
  493SOL    HW1 1498   1.643   1.180   4.862
  493SOL    HW2 1499   1.552   1.101   4.752
  494SOL     OW 1500   0.705   1.050   4.092
  494SOL    HW1 1501   0.691   1.057   4.191
  494SOL    HW2 1502   0.789   0.999   4.074
  495SOL     OW 1503   0.410   0.813   4.975
  495SOL    HW1 1504   0.496   0.825   5.025
  495SOL    HW2 1505   0.368   0.726   5.002
  496SOL     OW 1506   0.367   1.100   4.225
  496SOL    HW1 1507   0.360   1.183   4.169
  496SOL    HW2 1508   0.371   1.020   4.165
  497SOL     OW 1509   0.566   0.537   4.589
  497SOL    HW1 1510   0.578   0.603   4.515
  497SOL    HW2 1511   0.612   0.571   4.672
  498SOL     OW 1512   1.252   1.348   4.112
  498SOL    HW1 1513   1.302   1.425   4.152
  498SOL    HW2 1514   1.157   1.350   4.144
  499SOL     OW 1515   1.582   0.639   4.196
  499SOL    HW1 1516   1.551   0.700   4.269
  499SOL    HW2 1517   1.632   0.691   4.127
  500SOL     OW 1518   0.354   1.510   5.053
  500SOL    HW1 1519   0.333   1.466   4.966
  500SOL    HW2 1520   0.451   1.536   5.056
  501SOL     OW 1521   0.573   0.870   4.753
  501SOL    HW1 1522   0.617   0.959   4.744
  501SOL    HW2 1523   0.510   0.870   4.830
  502SOL     OW 1524   1.209   0.525   3.999
  502SOL    HW1 1525   1.222   0.441   4.053
  502SOL    HW2 1526   1.180   0.599   4.059
  503SOL     OW 1527   0.732   0.634   4.788
  503SOL    HW1 1528   0.791   0.608   4.712
  503SOL    HW2 1529   0.704   0.730   4.777
  504SOL     OW 1530   0.307   0.063   4.342
  504SOL    HW1 1531   0.296   0.157   4.375
  504SOL    HW2 1532   0.302   0.000   4.419
  505SOL     OW 1533   1.622   0.367   4.098
  505SOL    HW1 1534   1.624   0.291   4.162
  505SOL    HW2 1535   1.574   0.444   4.138
  506SOL     OW 1536   1.023   0.766   4.690
  506SOL    HW1 1537   1.038   0.787   4.786
  506SOL    HW2 1538   0.993   0.671   4.681
  507SOL     OW 1539   1.540   0.274   3.849
  507SOL    HW1 1540   1.479   0.199   3.872
  507SOL    HW2 1541   1.562   0.326   3.932
  508SOL     OW 1542   1.303   0.838   3.766
  508SOL    HW1 1543   1.337   0.745   3.781
  508SOL    HW2 1544   1.321   0.865   3.671
  509SOL     OW 1545   1.068   1.333   4.573
  509SOL    HW1 1546   1.075   1.249   4.518
  509SOL    HW2 1547   1.130   1.402   4.537
  510SOL     OW 1548   0.319   0.810   4.673
  510SOL    HW1 1549   0.412   0.846   4.678
  510SOL    HW2 1550   0.313   0.725   4.725
  511SOL     OW 1551   0.339   0.509   4.730
  511SOL    HW1 1552   0.287   0.426   4.713
  511SOL    HW2 1553   0.416   0.514   4.666
  512SOL     OW 1554   0.008   1.326   3.924
  512SOL    HW1 1555  -0.085   1.347   3.893
  512SOL    HW2 1556   0.018   1.227   3.937
  513SOL     OW 1557   0.088   1.801   4.651
  513SOL    HW1 1558   0.046   1.715   4.624
  513SOL    HW2 1559   0.182   1.804   4.617
  514SOL     OW 1560   0.504   1.568   4.634
  514SOL    HW1 1561   0.570   1.642   4.643
  514SOL    HW2 1562   0.548   1.489   4.592
  515SOL     OW 1563   1.002   0.796   4.962
  515SOL    HW1 1564   1.043   0.764   5.048
  515SOL    HW2 1565   0.906   0.769   4.959
  516SOL     OW 1566   0.815   0.572   4.049
  516SOL    HW1 1567   0.822   0.483   4.003
  516SOL    HW2 1568   0.721   0.606   4.041
  517SOL     OW 1569   0.671   0.464   4.993
  517SOL    HW1 1570   0.637   0.375   4.963
  517SOL    HW2 1571   0.697   0.518   4.913
  518SOL     OW 1572   0.473   0.500   3.915
  518SOL    HW1 1573   0.534   0.580   3.919
  518SOL    HW2 1574   0.378   0.531   3.922
  519SOL     OW 1575   1.302   0.855   4.033
  519SOL    HW1 1576   1.216   0.824   4.075
  519SOL    HW2 1577   1.298   0.841   3.934
  520SOL     OW 1578   1.759   1.747   4.878
  520SOL    HW1 1579   1.820   1.777   4.805
  520SOL    HW2 1580   1.721   1.658   4.856
  521SOL     OW 1581   0.083   1.258   4.746
  521SOL    HW1 1582   0.078   1.257   4.846
  521SOL    HW2 1583   0.000   1.217   4.708
  522SOL     OW 1584   1.726   0.135   4.247
  522SOL    HW1 1585   1.799   0.118   4.180
  522SOL    HW2 1586   1.695   0.048   4.285
  523SOL     OW 1587   1.388   1.573   4.201
  523SOL    HW1 1588   1.455   1.585   4.127
  523SOL    HW2 1589   1.348   1.662   4.224
  524SOL     OW 1590   1.280   0.927   4.396
  524SOL    HW1 1591   1.340   0.846   4.398
  524SOL    HW2 1592   1.320   0.996   4.336
  525SOL     OW 1593   0.672   1.616   3.878
  525SOL    HW1 1594   0.681   1.626   3.779
  525SOL    HW2 1595   0.632   1.527   3.899
  526SOL     OW 1596   1.841   0.175   4.687
  526SOL    HW1 1597   1.880   0.090   4.651
  526SOL    HW2 1598   1.743   0.177   4.668
  527SOL     OW 1599   0.263   0.326   4.444
  527SOL    HW1 1600   0.184   0.377   4.410
  527SOL    HW2 1601   0.254   0.311   4.542
  528SOL     OW 1602   1.194   1.612   3.755
  528SOL    HW1 1603   1.200   1.519   3.792
  528SOL    HW2 1604   1.135   1.612   3.675
  529SOL     OW 1605   0.916   0.910   4.015
  529SOL    HW1 1606   0.979   0.948   3.947
  529SOL    HW2 1607   0.956   0.827   4.054
  530SOL     OW 1608   1.504   1.607   3.768
  530SOL    HW1 1609   1.412   1.644   3.775
  530SOL    HW2 1610   1.542   1.627   3.678
  531SOL     OW 1611   1.039   1.098   4.420
  531SOL    HW1 1612   0.969   1.051   4.474
  531SOL    HW2 1613   1.098   1.030   4.377
  532SOL     OW 1614   1.014   0.236   4.695
  532SOL    HW1 1615   1.006   0.200   4.602
  532SOL    HW2 1616   1.012   0.160   4.760
  533SOL     OW 1617   0.590   1.487   4.215
  533SOL    HW1 1618   0.632   1.429   4.145
  533SOL    HW2 1619   0.546   1.566   4.171
  534SOL     OW 1620   0.255   1.348   4.014
  534SOL    HW1 1621   0.159   1.349   3.987
  534SOL    HW2 1622   0.267   1.401   4.098
  535SOL     OW 1623   0.075   0.345   3.757
  535SOL    HW1 1624  -0.017   0.317   3.728
  535SOL    HW2 1625   0.106   0.422   3.701
  536SOL     OW 1626   0.072   0.166   4.042
  536SOL    HW1 1627   0.055   0.249   3.988
  536SOL    HW2 1628   0.162   0.129   4.020
  537SOL     OW 1629   1.183   1.335   3.843
  537SOL    HW1 1630   1.084   1.324   3.845
  537SOL    HW2 1631   1.217   1.350   3.936
  538SOL     OW 1632   1.493   1.767   4.683
  538SOL    HW1 1633   1.526   1.831   4.614
  538SOL    HW2 1634   1.559   1.761   4.758
  539SOL     OW 1635   1.674   0.883   4.978
  539SOL    HW1 1636   1.647   0.794   4.941
  539SOL    HW2 1637   1.675   0.951   4.905
  540SOL     OW 1638   1.225   0.325   4.173
  540SOL    HW1 1639   1.290   0.251   4.162
  540SOL    HW2 1640   1.245   0.375   4.257
  541SOL     OW 1641   0.594   0.745   4.376
  541SOL    HW1 1642   0.644   0.830   4.357
  541SOL    HW2 1643   0.506   0.747   4.328
  542SOL     OW 1644   0.859   1.374   3.740
  542SOL    HW1 1645   0.813   1.389   3.828
  542SOL    HW2 1646   0.903   1.459   3.710
  543SOL     OW 1647   0.661   1.790   4.677
  543SOL    HW1 1648   0.615   1.878   4.664
  543SOL    HW2 1649   0.760   1.802   4.670
  544SOL     OW 1650   0.859   0.956   4.585
  544SOL    HW1 1651   0.913   0.887   4.633
  544SOL    HW2 1652   0.827   1.025   4.651
  545SOL     OW 1653   1.083   0.984   3.811
  545SOL    HW1 1654   1.060   1.037   3.729
  545SOL    HW2 1655   1.164   0.928   3.792
  546SOL     OW 1656   1.861   1.569   4.575
  546SOL    HW1 1657   1.790   1.557   4.505
  546SOL    HW2 1658   1.862   1.490   4.635
  547SOL     OW 1659   0.079   1.240   4.377
  547SOL    HW1 1660   0.078   1.193   4.465
  547SOL    HW2 1661   0.161   1.212   4.326
  548SOL     OW 1662   1.824   0.192   4.951
  548SOL    HW1 1663   1.820   0.102   4.995
  548SOL    HW2 1664   1.827   0.181   4.852
  549SOL     OW 1665   0.428   0.424   4.244
  549SOL    HW1 1666   0.458   0.352   4.182
  549SOL    HW2 1667   0.389   0.384   4.327
  550SOL     OW 1668   0.812   1.586   4.411
  550SOL    HW1 1669   0.844   1.596   4.317
  550SOL    HW2 1670   0.733   1.524   4.413
  551SOL     OW 1671   1.424   0.214   4.836
  551SOL    HW1 1672   1.476   0.149   4.891
  551SOL    HW2 1673   1.375   0.277   4.897
  552SOL     OW 1674   0.770   1.330   4.025
  552SOL    HW1 1675   0.724   1.243   4.042
  552SOL    HW2 1676   0.861   1.327   4.066
  553SOL     OW 1677   1.352   0.052   3.892
  553SOL    HW1 1678   1.387   0.011   3.808
  553SOL    HW2 1679   1.262   0.014   3.912
  554SOL     OW 1680   1.300   0.453   4.415
  554SOL    HW1 1681   1.241   0.533   4.419
  554SOL    HW2 1682   1.315   0.418   4.508
  555SOL     OW 1683   1.593   0.221   4.606
  555SOL    HW1 1684   1.509   0.220   4.660
  555SOL    HW2 1685   1.595   0.304   4.550
  556SOL     OW 1686   0.039   1.077   4.024
  556SOL    HW1 1687   0.138   1.066   4.015
  556SOL    HW2 1688  -0.001   0.991   4.056
  557SOL     OW 1689   0.875   1.646   4.061
  557SOL    HW1 1690   0.798   1.611   4.007
  557SOL    HW2 1691   0.843   1.717   4.123
  558SOL     OW 1692   0.230   2.490   0.113
  558SOL    HW1 1693   0.137   2.488   0.150
  558SOL    HW2 1694   0.231   2.451   0.021
  559SOL     OW 1695   0.225   2.137   0.996
  559SOL    HW1 1696   0.260   2.120   1.088
  559SOL    HW2 1697   0.137   2.092   0.984
  560SOL     OW 1698   0.019   2.230   0.647
  560SOL    HW1 1699  -0.063   2.273   0.686
  560SOL    HW2 1700  -0.009   2.157   0.584
  561SOL     OW 1701   0.569   3.137   1.165
  561SOL    HW1 1702   0.476   3.130   1.128
  561SOL    HW2 1703   0.580   3.226   1.209
  562SOL     OW 1704   1.555   3.373   0.703
  562SOL    HW1 1705   1.498   3.357   0.784
  562SOL    HW2 1706   1.496   3.383   0.623
  563SOL     OW 1707   1.135   2.565   0.717
  563SOL    HW1 1708   1.192   2.643   0.692
  563SOL    HW2 1709   1.075   2.591   0.793
  564SOL     OW 1710   1.755   2.469   0.231
  564SOL    HW1 1711   1.743   2.456   0.132
  564SOL    HW2 1712   1.725   2.388   0.280
  565SOL     OW 1713   0.768   3.006   1.023
  565SOL    HW1 1714   0.690   3.023   1.083
  565SOL    HW2 1715   0.802   3.093   0.987
  566SOL     OW 1716   0.850   2.660   1.823
  566SOL    HW1 1717   0.846   2.736   1.888
  566SOL    HW2 1718   0.872   2.696   1.732
  567SOL     OW 1719   0.685   2.874   0.665
  567SOL    HW1 1720   0.754   2.858   0.735
  567SOL    HW2 1721   0.612   2.931   0.703
  568SOL     OW 1722   0.686   3.023   1.803
  568SOL    HW1 1723   0.746   3.102   1.817
  568SOL    HW2 1724   0.600   3.054   1.762
  569SOL     OW 1725   0.335   3.297   1.061
  569SOL    HW1 1726   0.257   3.266   1.008
  569SOL    HW2 1727   0.393   3.355   1.004
  570SOL     OW 1728   1.460   3.367   1.339
  570SOL    HW1 1729   1.484   3.461   1.365
  570SOL    HW2 1730   1.444   3.313   1.421
  571SOL     OW 1731   0.438   2.254   1.499
  571SOL    HW1 1732   0.520   2.198   1.508
  571SOL    HW2 1733   0.357   2.196   1.503
  572SOL     OW 1734   1.603   2.309   0.737
  572SOL    HW1 1735   1.529   2.355   0.687
  572SOL    HW2 1736   1.654   2.377   0.790
  573SOL     OW 1737   0.231   3.575   0.483
  573SOL    HW1 1738   0.265   3.652   0.537
  573SOL    HW2 1739   0.275   3.575   0.393
  574SOL     OW 1740   1.127   3.203   1.690
  574SOL    HW1 1741   1.174   3.203   1.778
  574SOL    HW2 1742   1.079   3.116   1.679
  575SOL     OW 1743   0.230   3.296   0.538
  575SOL    HW1 1744   0.204   3.392   0.538
  575SOL    HW2 1745   0.159   3.242   0.583
  576SOL     OW 1746   0.240   2.953   0.886
  576SOL    HW1 1747   0.254   2.869   0.938
  576SOL    HW2 1748   0.185   3.017   0.941
  577SOL     OW 1749   0.620   3.648   1.439
  577SOL    HW1 1750   0.528   3.631   1.474
  577SOL    HW2 1751   0.648   3.740   1.465
  578SOL     OW 1752   0.606   2.826   0.123
  578SOL    HW1 1753   0.613   2.910   0.069
  578SOL    HW2 1754   0.652   2.839   0.211
  579SOL     OW 1755   1.594   1.976   1.480
  579SOL    HW1 1756   1.576   2.043   1.408
  579SOL    HW2 1757   1.591   2.022   1.569
  580SOL     OW 1758   0.122   2.505   0.563
  580SOL    HW1 1759   0.077   2.417   0.580
  580SOL    HW2 1760   0.121   2.559   0.647
  581SOL     OW 1761   1.842   3.629   0.359
  581SOL    HW1 1762   1.896   3.600   0.439
  581SOL    HW2 1763   1.872   3.719   0.330
  582SOL     OW 1764   0.027   3.458   0.117
  582SOL    HW1 1765   0.008   3.362   0.138
  582SOL    HW2 1766  -0.006   3.516   0.192
  583SOL     OW 1767   1.689   2.784   0.612
  583SOL    HW1 1768   1.784   2.755   0.620
  583SOL    HW2 1769   1.681   2.849   0.537
  584SOL     OW 1770   1.641   2.970   0.432
  584SOL    HW1 1771   1.727   2.972   0.380
  584SOL    HW2 1772   1.655   3.017   0.520
  585SOL     OW 1773   0.113   2.599   1.597
  585SOL    HW1 1774   0.201   2.586   1.642
  585SOL    HW2 1775   0.100   2.696   1.575
  586SOL     OW 1776   0.613   3.227   0.726
  586SOL    HW1 1777   0.564   3.140   0.735
  586SOL    HW2 1778   0.590   3.270   0.639
  587SOL     OW 1779   1.293   3.090   1.423
  587SOL    HW1 1780   1.330   3.017   1.365
  587SOL    HW2 1781   1.345   3.095   1.508
  588SOL     OW 1782   0.809   1.866   0.502
  588SOL    HW1 1783   0.849   1.957   0.493
  588SOL    HW2 1784   0.709   1.874   0.508
  589SOL     OW 1785   0.197   2.838   1.264
  589SOL    HW1 1786   0.286   2.793   1.250
  589SOL    HW2 1787   0.124   2.773   1.245
  590SOL     OW 1788   1.525   2.861   0.190
  590SOL    HW1 1789   1.462   2.785   0.203
  590SOL    HW2 1790   1.573   2.879   0.276
  591SOL     OW 1791   1.187   3.654   1.616
  591SOL    HW1 1792   1.211   3.714   1.540
  591SOL    HW2 1793   1.194   3.559   1.586
  592SOL     OW 1794   0.317   2.113   1.801
  592SOL    HW1 1795   0.388   2.184   1.807
  592SOL    HW2 1796   0.229   2.152   1.829
  593SOL     OW 1797   1.466   3.279   0.953
  593SOL    HW1 1798   1.407   3.285   1.033
  593SOL    HW2 1799   1.451   3.191   0.907
  594SOL     OW 1800   1.667   3.576   0.572
  594SOL    HW1 1801   1.626   3.553   0.484
  594SOL    HW2 1802   1.649   3.502   0.637
  595SOL     OW 1803   0.598   2.591   0.270
  595SOL    HW1 1804   0.622   2.660   0.202
  595SOL    HW2 1805   0.520   2.624   0.324
  596SOL     OW 1806   1.281   2.207   0.944
  596SOL    HW1 1807   1.195   2.157   0.931
  596SOL    HW2 1808   1.343   2.153   1.000
  597SOL     OW 1809   1.576   3.524   0.307
  597SOL    HW1 1810   1.665   3.570   0.310
  597SOL    HW2 1811   1.555   3.500   0.212
  598SOL     OW 1812   0.807   2.467   1.465
  598SOL    HW1 1813   0.760   2.464   1.554
  598SOL    HW2 1814   0.756   2.412   1.399
  599SOL     OW 1815   1.394   2.331   1.674
  599SOL    HW1 1816   1.374   2.374   1.762
  599SOL    HW2 1817   1.472   2.269   1.683
  600SOL     OW 1818   0.973   2.752   1.572
  600SOL    HW1 1819   1.019   2.668   1.543
  600SOL    HW2 1820   0.917   2.786   1.497
  601SOL     OW 1821   0.991   2.272   1.242
  601SOL    HW1 1822   0.914   2.306   1.296
  601SOL    HW2 1823   0.957   2.221   1.163
  602SOL     OW 1824   1.041   2.563   0.429
  602SOL    HW1 1825   1.067   2.559   0.525
  602SOL    HW2 1826   0.956   2.512   0.415
  603SOL     OW 1827   0.076   2.673   0.789
  603SOL    HW1 1828   0.175   2.661   0.798
  603SOL    HW2 1829   0.052   2.768   0.810
  604SOL     OW 1830   0.130   3.683   1.571
  604SOL    HW1 1831   0.120   3.668   1.670
  604SOL    HW2 1832   0.044   3.719   1.535
  605SOL     OW 1833   0.865   2.210   0.195
  605SOL    HW1 1834   0.924   2.273   0.146
  605SOL    HW2 1835   0.884   2.116   0.166
  606SOL     OW 1836   1.719   2.447   1.831
  606SOL    HW1 1837   1.693   2.536   1.795
  606SOL    HW2 1838   1.717   2.379   1.758
  607SOL     OW 1839   1.362   3.006   0.545
  607SOL    HW1 1840   1.445   2.977   0.497
  607SOL    HW2 1841   1.313   3.073   0.489
  608SOL     OW 1842   0.550   2.058   0.885
  608SOL    HW1 1843   0.545   2.053   0.985
  608SOL    HW2 1844   0.552   2.154   0.856
  609SOL     OW 1845   1.008   3.318   0.477
  609SOL    HW1 1846   0.962   3.390   0.425
  609SOL    HW2 1847   1.004   3.338   0.575
  610SOL     OW 1848   0.351   3.663   0.853
  610SOL    HW1 1849   0.401   3.577   0.859
  610SOL    HW2 1850   0.416   3.740   0.850
  611SOL     OW 1851   1.795   2.928   0.873
  611SOL    HW1 1852   1.733   2.913   0.797
  611SOL    HW2 1853   1.743   2.939   0.958
  612SOL     OW 1854   1.227   3.412   1.506
  612SOL    HW1 1855   1.233   3.335   1.570
  612SOL    HW2 1856   1.175   3.386   1.426
  613SOL     OW 1857   0.321   2.805   0.242
  613SOL    HW1 1858   0.403   2.844   0.200
  613SOL    HW2 1859   0.294   2.723   0.193
  614SOL     OW 1860   1.458   2.597   0.728
  614SOL    HW1 1861   1.453   2.532   0.803
  614SOL    HW2 1862   1.538   2.656   0.741
  615SOL     OW 1863   0.461   3.128   1.727
  615SOL    HW1 1864   0.411   3.129   1.641
  615SOL    HW2 1865   0.398   3.110   1.803
  616SOL     OW 1866   1.111   3.638   0.237
  616SOL    HW1 1867   1.051   3.576   0.287
  616SOL    HW2 1868   1.142   3.594   0.152
  617SOL     OW 1869   0.202   2.147   1.498
  617SOL    HW1 1870   0.122   2.207   1.485
  617SOL    HW2 1871   0.192   2.098   1.584
  618SOL     OW 1872   1.632   3.239   0.081
  618SOL    HW1 1873   1.600   3.333   0.071
  618SOL    HW2 1874   1.556   3.176   0.069
  619SOL     OW 1875   0.464   3.605   0.323
  619SOL    HW1 1876   0.497   3.644   0.409
  619SOL    HW2 1877   0.540   3.598   0.258
  620SOL     OW 1878   1.400   1.969   0.426
  620SOL    HW1 1879   1.376   1.932   0.336
  620SOL    HW2 1880   1.499   1.985   0.430
  621SOL     OW 1881   0.249   3.647   1.241
  621SOL    HW1 1882   0.306   3.582   1.291
  621SOL    HW2 1883   0.233   3.614   1.148
  622SOL     OW 1884   0.940   3.560   0.904
  622SOL    HW1 1885   1.020   3.503   0.925
  622SOL    HW2 1886   0.891   3.520   0.827
  623SOL     OW 1887   0.382   2.562   0.480
  623SOL    HW1 1888   0.427   2.472   0.477
  623SOL    HW2 1889   0.288   2.551   0.513
  624SOL     OW 1890   1.547   2.084   1.729
  624SOL    HW1 1891   1.542   2.121   1.821
  624SOL    HW2 1892   1.475   2.015   1.717
  625SOL     OW 1893   0.614   1.984   0.117
  625SOL    HW1 1894   0.712   1.962   0.124
  625SOL    HW2 1895   0.583   1.967   0.024
  626SOL     OW 1896   0.781   2.126   1.749
  626SOL    HW1 1897   0.848   2.065   1.792
  626SOL    HW2 1898   0.708   2.145   1.814
  627SOL     OW 1899   0.888   3.376   1.195
  627SOL    HW1 1900   0.865   3.351   1.101
  627SOL    HW2 1901   0.949   3.307   1.234
  628SOL     OW 1902   1.351   2.452   1.433
  628SOL    HW1 1903   1.379   2.409   1.518
  628SOL    HW2 1904   1.376   2.548   1.434
  629SOL     OW 1905   0.803   3.264   0.924
  629SOL    HW1 1906   0.893   3.278   0.882
  629SOL    HW2 1907   0.732   3.266   0.853
  630SOL     OW 1908   0.922   2.365   0.899
  630SOL    HW1 1909   0.897   2.356   0.803
  630SOL    HW2 1910   0.970   2.283   0.930
  631SOL     OW 1911   0.539   1.926   0.512
  631SOL    HW1 1912   0.458   1.927   0.570
  631SOL    HW2 1913   0.542   2.009   0.457
  632SOL     OW 1914   1.434   3.050   0.041
  632SOL    HW1 1915   1.466   2.974   0.098
  632SOL    HW2 1916   1.342   3.077   0.071
  633SOL     OW 1917   0.935   2.098   0.480
  633SOL    HW1 1918   0.887   2.139   0.402
  633SOL    HW2 1919   1.034   2.096   0.461
  634SOL     OW 1920   1.076   2.545   1.464
  634SOL    HW1 1921   0.996   2.484   1.467
  634SOL    HW2 1922   1.157   2.492   1.440
  635SOL     OW 1923   1.227   3.432   0.793
  635SOL    HW1 1924   1.248   3.506   0.728
  635SOL    HW2 1925   1.295   3.432   0.866
  636SOL     OW 1926   0.459   3.014   0.741
  636SOL    HW1 1927   0.388   2.987   0.806
  636SOL    HW2 1928   0.433   2.986   0.648
  637SOL     OW 1929   1.271   3.659   0.591
  637SOL    HW1 1930   1.315   3.723   0.527
  637SOL    HW2 1931   1.221   3.711   0.661
  638SOL     OW 1932   1.032   2.411   0.016
  638SOL    HW1 1933   0.991   2.493  -0.023
  638SOL    HW2 1934   1.096   2.437   0.089
  639SOL     OW 1935   0.078   2.418   1.386
  639SOL    HW1 1936   0.170   2.417   1.345
  639SOL    HW2 1937   0.072   2.492   1.453
  640SOL     OW 1938   0.561   2.084   1.147
  640SOL    HW1 1939   0.599   2.000   1.184
  640SOL    HW2 1940   0.473   2.103   1.191
  641SOL     OW 1941   0.866   2.316   0.642
  641SOL    HW1 1942   0.834   2.388   0.580
  641SOL    HW2 1943   0.890   2.235   0.589
  642SOL     OW 1944   1.017   1.901   0.753
  642SOL    HW1 1945   0.945   1.906   0.684
  642SOL    HW2 1946   0.993   1.832   0.822
  643SOL     OW 1947   1.429   3.035   0.867
  643SOL    HW1 1948   1.374   2.951   0.860
  643SOL    HW2 1949   1.455   3.064   0.775
  644SOL     OW 1950   1.466   2.452   0.992
  644SOL    HW1 1951   1.436   2.357   0.999
  644SOL    HW2 1952   1.539   2.468   1.058
  645SOL     OW 1953   1.857   2.695   0.377
  645SOL    HW1 1954   1.899   2.631   0.441
  645SOL    HW2 1955   1.819   2.644   0.299
  646SOL     OW 1956   0.488   3.247   0.174
  646SOL    HW1 1957   0.401   3.232   0.221
  646SOL    HW2 1958   0.471   3.273   0.079
  647SOL     OW 1959   1.664   3.142   0.657
  647SOL    HW1 1960   1.763   3.150   0.671
  647SOL    HW2 1961   1.619   3.226   0.688
  648SOL     OW 1962   1.390   2.437   0.078
  648SOL    HW1 1963   1.336   2.416   0.159
  648SOL    HW2 1964   1.481   2.396   0.087
  649SOL     OW 1965   0.527   2.118   0.328
  649SOL    HW1 1966   0.554   2.059   0.253
  649SOL    HW2 1967   0.527   2.213   0.297
  650SOL     OW 1968   1.754   3.085   1.588
  650SOL    HW1 1969   1.845   3.046   1.575
  650SOL    HW2 1970   1.762   3.181   1.612
  651SOL     OW 1971   1.064   3.209   1.340
  651SOL    HW1 1972   0.984   3.186   1.395
  651SOL    HW2 1973   1.147   3.183   1.389
  652SOL     OW 1974   1.592   3.491   1.625
  652SOL    HW1 1975   1.619   3.525   1.535
  652SOL    HW2 1976   1.671   3.453   1.671
  653SOL     OW 1977   1.111   3.057   1.100
  653SOL    HW1 1978   1.071   3.101   1.181
  653SOL    HW2 1979   1.070   3.094   1.017
  654SOL     OW 1980   1.638   2.961   1.079
  654SOL    HW1 1981   1.643   3.042   1.138
  654SOL    HW2 1982   1.552   2.963   1.028
  655SOL     OW 1983   0.915   1.951   1.402
  655SOL    HW1 1984   0.940   1.931   1.307
  655SOL    HW2 1985   0.987   2.007   1.444
  656SOL     OW 1986   0.980   2.978   1.719
  656SOL    HW1 1987   0.881   2.984   1.729
  656SOL    HW2 1988   1.003   2.898   1.663
  657SOL     OW 1989   0.705   2.912   0.368
  657SOL    HW1 1990   0.691   2.919   0.467
  657SOL    HW2 1991   0.789   2.861   0.350
  658SOL     OW 1992   0.410   2.675   1.251
  658SOL    HW1 1993   0.496   2.687   1.301
  658SOL    HW2 1994   0.368   2.588   1.278
  659SOL     OW 1995   1.274   2.248   1.262
  659SOL    HW1 1996   1.295   2.322   1.326
  659SOL    HW2 1997   1.185   2.265   1.219
  660SOL     OW 1998   0.064   3.426   1.331
  660SOL    HW1 1999   0.018   3.508   1.297
  660SOL    HW2 2000   0.162   3.445   1.340
  661SOL     OW 2001   0.367   2.962   0.501
  661SOL    HW1 2002   0.360   3.045   0.445
  661SOL    HW2 2003   0.371   2.882   0.441
  662SOL     OW 2004   0.566   2.399   0.865
  662SOL    HW1 2005   0.578   2.465   0.791
  662SOL    HW2 2006   0.612   2.433   0.948
  663SOL     OW 2007   1.252   3.210   0.388
  663SOL    HW1 2008   1.302   3.287   0.428
  663SOL    HW2 2009   1.157   3.212   0.420
  664SOL     OW 2010   1.272   3.307   1.142
  664SOL    HW1 2011   1.319   3.320   1.229
  664SOL    HW2 2012   1.206   3.233   1.151
  665SOL     OW 2013   1.582   2.501   0.472
  665SOL    HW1 2014   1.551   2.562   0.545
  665SOL    HW2 2015   1.632   2.553   0.403
  666SOL     OW 2016   0.354   3.372   1.329
  666SOL    HW1 2017   0.333   3.328   1.242
  666SOL    HW2 2018   0.451   3.398   1.332
  667SOL     OW 2019   0.402   2.613   1.598
  667SOL    HW1 2020   0.470   2.668   1.551
  667SOL    HW2 2021   0.442   2.525   1.625
  668SOL     OW 2022   1.587   2.641   1.670
  668SOL    HW1 2023   1.495   2.679   1.665
  668SOL    HW2 2024   1.647   2.688   1.605
  669SOL     OW 2025   1.013   1.967   1.770
  669SOL    HW1 2026   1.019   2.052   1.718
  669SOL    HW2 2027   1.045   1.891   1.713
  670SOL     OW 2028   0.504   1.912   1.740
  670SOL    HW1 2029   0.462   1.855   1.670
  670SOL    HW2 2030   0.438   1.981   1.772
  671SOL     OW 2031   0.573   2.732   1.029
  671SOL    HW1 2032   0.617   2.821   1.020
  671SOL    HW2 2033   0.510   2.732   1.106
  672SOL     OW 2034   1.360   2.724   1.045
  672SOL    HW1 2035   1.285   2.724   0.979
  672SOL    HW2 2036   1.397   2.632   1.054
  673SOL     OW 2037   1.209   2.387   0.275
  673SOL    HW1 2038   1.222   2.303   0.329
  673SOL    HW2 2039   1.180   2.461   0.335
  674SOL     OW 2040   0.307   2.075   1.231
  674SOL    HW1 2041   0.284   2.112   1.321
  674SOL    HW2 2042   0.277   1.980   1.225
  675SOL     OW 2043   0.037   3.172   1.282
  675SOL    HW1 2044   0.090   3.123   1.350
  675SOL    HW2 2045   0.059   3.270   1.287
  676SOL     OW 2046   0.732   2.496   1.064
  676SOL    HW1 2047   0.791   2.470   0.988
  676SOL    HW2 2048   0.704   2.592   1.053
  677SOL     OW 2049   1.728   2.797   1.854
  677SOL    HW1 2050   1.682   2.790   1.765
  677SOL    HW2 2051   1.666   2.841   1.920
  678SOL     OW 2052   0.307   1.925   0.618
  678SOL    HW1 2053   0.296   2.019   0.651
  678SOL    HW2 2054   0.302   1.862   0.695
  679SOL     OW 2055   1.622   2.229   0.374
  679SOL    HW1 2056   1.624   2.153   0.438
  679SOL    HW2 2057   1.574   2.306   0.414
  680SOL     OW 2058   1.023   2.628   0.966
  680SOL    HW1 2059   1.038   2.649   1.062
  680SOL    HW2 2060   0.993   2.533   0.957
  681SOL     OW 2061   0.980   3.435   1.700
  681SOL    HW1 2062   0.960   3.479   1.612
  681SOL    HW2 2063   1.019   3.344   1.684
  682SOL     OW 2064   1.859   3.380   1.605
  682SOL    HW1 2065   1.873   3.407   1.510
  682SOL    HW2 2066   1.942   3.402   1.658
  683SOL     OW 2067   0.350   2.760   1.804
  683SOL    HW1 2068   0.426   2.804   1.852
  683SOL    HW2 2069   0.385   2.713   1.722
  684SOL     OW 2070   1.540   2.136   0.125
  684SOL    HW1 2071   1.479   2.061   0.148
  684SOL    HW2 2072   1.562   2.188   0.208
  685SOL     OW 2073   1.303   2.700   0.042
  685SOL    HW1 2074   1.337   2.607   0.057
  685SOL    HW2 2075   1.321   2.727  -0.053
  686SOL     OW 2076   1.068   3.195   0.849
  686SOL    HW1 2077   1.075   3.111   0.794
  686SOL    HW2 2078   1.130   3.264   0.813
  687SOL     OW 2079   0.319   2.672   0.949
  687SOL    HW1 2080   0.412   2.708   0.954
  687SOL    HW2 2081   0.313   2.587   1.001
  688SOL     OW 2082   0.339   2.371   1.006
  688SOL    HW1 2083   0.287   2.288   0.989
  688SOL    HW2 2084   0.416   2.376   0.942
  689SOL     OW 2085   1.138   2.242   1.678
  689SOL    HW1 2086   1.093   2.305   1.742
  689SOL    HW2 2087   1.231   2.273   1.661
  690SOL     OW 2088   1.160   2.069   1.477
  690SOL    HW1 2089   1.160   2.133   1.554
  690SOL    HW2 2090   1.188   2.117   1.394
  691SOL     OW 2091   0.008   3.188   0.200
  691SOL    HW1 2092  -0.085   3.209   0.169
  691SOL    HW2 2093   0.018   3.089   0.213
  692SOL     OW 2094   0.088   3.663   0.927
  692SOL    HW1 2095   0.046   3.577   0.900
  692SOL    HW2 2096   0.182   3.666   0.893
  693SOL     OW 2097   0.504   3.430   0.910
  693SOL    HW1 2098   0.570   3.504   0.919
  693SOL    HW2 2099   0.548   3.351   0.868
  694SOL     OW 2100   1.002   2.658   1.238
  694SOL    HW1 2101   1.043   2.626   1.324
  694SOL    HW2 2102   0.906   2.631   1.235
  695SOL     OW 2103   0.040   2.406   1.114
  695SOL    HW1 2104   0.125   2.373   1.073
  695SOL    HW2 2105   0.053   2.421   1.212
  696SOL     OW 2106   0.189   2.382   1.722
  696SOL    HW1 2107   0.248   2.342   1.652
  696SOL    HW2 2108   0.131   2.453   1.681
  697SOL     OW 2109   1.369   2.812   1.660
  697SOL    HW1 2110   1.408   2.901   1.680
  697SOL    HW2 2111   1.379   2.792   1.563
  698SOL     OW 2112   0.815   2.434   0.325
  698SOL    HW1 2113   0.822   2.345   0.279
  698SOL    HW2 2114   0.721   2.468   0.317
  699SOL     OW 2115   1.657   2.466   1.206
  699SOL    HW1 2116   1.619   2.397   1.268
  699SOL    HW2 2117   1.739   2.430   1.162
  700SOL     OW 2118   0.252   3.426   1.744
  700SOL    HW1 2119   0.222   3.483   1.820
  700SOL    HW2 2120   0.245   3.329   1.770
  701SOL     OW 2121   0.671   2.326   1.269
  701SOL    HW1 2122   0.637   2.237   1.239
  701SOL    HW2 2123   0.697   2.380   1.189
  702SOL     OW 2124   0.930   3.540   1.465
  702SOL    HW1 2125   0.906   3.522   1.370
  702SOL    HW2 2126   0.960   3.634   1.475
  703SOL     OW 2127   0.473   2.362   0.191
  703SOL    HW1 2128   0.534   2.442   0.195
  703SOL    HW2 2129   0.378   2.393   0.198
  704SOL     OW 2130   0.159   2.999   1.466
  704SOL    HW1 2131   0.181   2.938   1.542
  704SOL    HW2 2132   0.169   2.950   1.380
  705SOL     OW 2133   1.347   2.921   1.234
  705SOL    HW1 2134   1.371   2.858   1.160
  705SOL    HW2 2135   1.257   2.961   1.216
  706SOL     OW 2136   1.302   2.717   0.309
  706SOL    HW1 2137   1.216   2.686   0.351
  706SOL    HW2 2138   1.298   2.703   0.210
  707SOL     OW 2139   1.759   3.609   1.154
  707SOL    HW1 2140   1.820   3.639   1.081
  707SOL    HW2 2141   1.721   3.520   1.132
  708SOL     OW 2142   1.252   3.593   1.128
  708SOL    HW1 2143   1.336   3.598   1.074
  708SOL    HW2 2144   1.229   3.497   1.146
  709SOL     OW 2145   0.083   3.120   1.022
  709SOL    HW1 2146   0.078   3.119   1.122
  709SOL    HW2 2147   0.000   3.079   0.984
  710SOL     OW 2148   0.688   3.524   1.716
  710SOL    HW1 2149   0.632   3.605   1.725
  710SOL    HW2 2150   0.740   3.528   1.630
  711SOL     OW 2151   0.903   1.948   0.133
  711SOL    HW1 2152   0.954   1.949   0.047
  711SOL    HW2 2153   0.959   1.906   0.204
  712SOL     OW 2154   1.726   1.997   0.523
  712SOL    HW1 2155   1.799   1.980   0.456
  712SOL    HW2 2156   1.695   1.910   0.561
  713SOL     OW 2157   1.388   3.435   0.477
  713SOL    HW1 2158   1.455   3.447   0.403
  713SOL    HW2 2159   1.348   3.524   0.500
  714SOL     OW 2160   0.130   3.656   1.851
  714SOL    HW1 2161   0.089   3.582   1.904
  714SOL    HW2 2162   0.194   3.707   1.909
  715SOL     OW 2163   1.280   2.789   0.672
  715SOL    HW1 2164   1.340   2.708   0.674
  715SOL    HW2 2165   1.320   2.858   0.612
  716SOL     OW 2166   0.830   3.135   1.422
  716SOL    HW1 2167   0.825   3.168   1.517
  716SOL    HW2 2168   0.744   3.154   1.376
  717SOL     OW 2169   0.672   3.478   0.154
  717SOL    HW1 2170   0.681   3.488   0.055
  717SOL    HW2 2171   0.632   3.389   0.175
  718SOL     OW 2172   1.650   3.582   1.394
  718SOL    HW1 2173   1.703   3.592   1.310
  718SOL    HW2 2174   1.623   3.672   1.428
  719SOL     OW 2175   1.841   2.037   0.963
  719SOL    HW1 2176   1.880   1.952   0.927
  719SOL    HW2 2177   1.743   2.039   0.944
  720SOL     OW 2178   0.263   2.188   0.720
  720SOL    HW1 2179   0.184   2.239   0.686
  720SOL    HW2 2180   0.254   2.173   0.818
  721SOL     OW 2181   1.194   3.474   0.031
  721SOL    HW1 2182   1.200   3.381   0.068
  721SOL    HW2 2183   1.135   3.474  -0.049
  722SOL     OW 2184   0.822   2.864   1.372
  722SOL    HW1 2185   0.862   2.863   1.280
  722SOL    HW2 2186   0.832   2.956   1.412
  723SOL     OW 2187   0.916   2.772   0.291
  723SOL    HW1 2188   0.979   2.810   0.223
  723SOL    HW2 2189   0.956   2.689   0.330
  724SOL     OW 2190   1.504   3.469   0.044
  724SOL    HW1 2191   1.412   3.506   0.051
  724SOL    HW2 2192   1.542   3.489  -0.046
  725SOL     OW 2193   0.372   3.150   1.490
  725SOL    HW1 2194   0.359   3.243   1.456
  725SOL    HW2 2195   0.288   3.098   1.477
  726SOL     OW 2196   1.614   3.154   1.289
  726SOL    HW1 2197   1.674   3.157   1.369
  726SOL    HW2 2198   1.539   3.218   1.302
  727SOL     OW 2199   1.039   2.960   0.696
  727SOL    HW1 2200   0.969   2.913   0.750
  727SOL    HW2 2201   1.098   2.892   0.653
  728SOL     OW 2202   1.014   2.098   0.971
  728SOL    HW1 2203   1.006   2.062   0.878
  728SOL    HW2 2204   1.012   2.022   1.036
  729SOL     OW 2205   0.590   3.349   0.491
  729SOL    HW1 2206   0.632   3.291   0.421
  729SOL    HW2 2207   0.546   3.428   0.447
  730SOL     OW 2208   1.709   2.247   1.381
  730SOL    HW1 2209   1.782   2.316   1.385
  730SOL    HW2 2210   1.737   2.172   1.322
  731SOL     OW 2211   0.255   3.210   0.290
  731SOL    HW1 2212   0.159   3.211   0.263
  731SOL    HW2 2213   0.267   3.263   0.374
  732SOL     OW 2214   0.105   2.875   1.726
  732SOL    HW1 2215   0.028   2.842   1.780
  732SOL    HW2 2216   0.190   2.845   1.768
  733SOL     OW 2217   0.672   2.065   1.489
  733SOL    HW1 2218   0.762   2.049   1.449
  733SOL    HW2 2219   0.680   2.070   1.588
  734SOL     OW 2220   0.075   2.207   0.033
  734SOL    HW1 2221  -0.017   2.179   0.004
  734SOL    HW2 2222   0.106   2.284  -0.023
  735SOL     OW 2223   1.440   2.718   1.398
  735SOL    HW1 2224   1.383   2.770   1.335
  735SOL    HW2 2225   1.536   2.730   1.374
  736SOL     OW 2226   0.072   2.028   0.318
  736SOL    HW1 2227   0.055   2.111   0.264
  736SOL    HW2 2228   0.162   1.991   0.296
  737SOL     OW 2229   1.183   3.197   0.119
  737SOL    HW1 2230   1.084   3.186   0.121
  737SOL    HW2 2231   1.217   3.212   0.212
  738SOL     OW 2232   0.613   2.704   1.431
  738SOL    HW1 2233   0.669   2.785   1.414
  738SOL    HW2 2234   0.672   2.624   1.434
  739SOL     OW 2235   1.493   3.629   0.959
  739SOL    HW1 2236   1.526   3.693   0.890
  739SOL    HW2 2237   1.559   3.623   1.034
  740SOL     OW 2238   0.716   2.427   1.708
  740SOL    HW1 2239   0.735   2.492   1.782
  740SOL    HW2 2240   0.776   2.347   1.717
  741SOL     OW 2241   1.450   3.082   1.633
  741SOL    HW1 2242   1.441   3.072   1.732
  741SOL    HW2 2243   1.546   3.075   1.607
  742SOL     OW 2244   0.390   3.603   1.560
  742SOL    HW1 2245   0.299   3.644   1.558
  742SOL    HW2 2246   0.383   3.509   1.592
  743SOL     OW 2247   1.674   2.745   1.254
  743SOL    HW1 2248   1.647   2.656   1.217
  743SOL    HW2 2249   1.675   2.813   1.181
  744SOL     OW 2250   1.225   2.187   0.449
  744SOL    HW1 2251   1.290   2.113   0.438
  744SOL    HW2 2252   1.245   2.237   0.533
  745SOL     OW 2253   0.594   2.607   0.652
  745SOL    HW1 2254   0.644   2.692   0.633
  745SOL    HW2 2255   0.506   2.609   0.604
  746SOL     OW 2256   1.777   2.204   1.642
  746SOL    HW1 2257   1.760   2.235   1.548
  746SOL    HW2 2258   1.693   2.167   1.680
  747SOL     OW 2259   1.730   2.796   1.517
  747SOL    HW1 2260   1.768   2.887   1.532
  747SOL    HW2 2261   1.722   2.779   1.418
  748SOL     OW 2262   0.859   3.236   0.016
  748SOL    HW1 2263   0.813   3.251   0.104
  748SOL    HW2 2264   0.903   3.321  -0.014
  749SOL     OW 2265   0.661   3.652   0.953
  749SOL    HW1 2266   0.615   3.740   0.940
  749SOL    HW2 2267   0.760   3.664   0.946
  750SOL     OW 2268   0.859   2.818   0.861
  750SOL    HW1 2269   0.913   2.749   0.909
  750SOL    HW2 2270   0.827   2.887   0.927
  751SOL     OW 2271   1.083   2.846   0.087
  751SOL    HW1 2272   1.060   2.899   0.005
  751SOL    HW2 2273   1.164   2.790   0.068
  752SOL     OW 2274   1.861   3.431   0.851
  752SOL    HW1 2275   1.790   3.419   0.781
  752SOL    HW2 2276   1.862   3.352   0.911
  753SOL     OW 2277   0.221   3.176   1.844
  753SOL    HW1 2278   0.156   3.103   1.823
  753SOL    HW2 2279   0.225   3.190   1.942
  754SOL     OW 2280   0.079   3.102   0.653
  754SOL    HW1 2281   0.078   3.055   0.741
  754SOL    HW2 2282   0.161   3.074   0.602
  755SOL     OW 2283   0.672   3.253   1.624
  755SOL    HW1 2284   0.594   3.203   1.662
  755SOL    HW2 2285   0.669   3.348   1.655
  756SOL     OW 2286   1.824   2.054   1.227
  756SOL    HW1 2287   1.820   1.964   1.271
  756SOL    HW2 2288   1.827   2.043   1.128
  757SOL     OW 2289   0.428   2.286   0.520
  757SOL    HW1 2290   0.458   2.214   0.458
  757SOL    HW2 2291   0.389   2.246   0.603
  758SOL     OW 2292   1.705   3.349   1.104
  758SOL    HW1 2293   1.612   3.324   1.077
  758SOL    HW2 2294   1.731   3.299   1.186
  759SOL     OW 2295   0.317   2.409   1.280
  759SOL    HW1 2296   0.355   2.350   1.352
  759SOL    HW2 2297   0.357   2.383   1.192
  760SOL     OW 2298   0.812   3.448   0.687
  760SOL    HW1 2299   0.844   3.458   0.593
  760SOL    HW2 2300   0.733   3.386   0.689
  761SOL     OW 2301   1.424   2.076   1.112
  761SOL    HW1 2302   1.476   2.011   1.167
  761SOL    HW2 2303   1.375   2.139   1.173
  762SOL     OW 2304   1.001   1.896   1.154
  762SOL    HW1 2305   0.938   1.824   1.123
  762SOL    HW2 2306   1.094   1.860   1.154
  763SOL     OW 2307   0.770   3.192   0.301
  763SOL    HW1 2308   0.724   3.105   0.318
  763SOL    HW2 2309   0.861   3.189   0.342
  764SOL     OW 2310   0.618   3.429   1.284
  764SOL    HW1 2311   0.613   3.511   1.341
  764SOL    HW2 2312   0.707   3.426   1.239
  765SOL     OW 2313   1.352   1.914   0.168
  765SOL    HW1 2314   1.387   1.873   0.084
  765SOL    HW2 2315   1.262   1.876   0.188
  766SOL     OW 2316   1.300   2.315   0.691
  766SOL    HW1 2317   1.241   2.395   0.695
  766SOL    HW2 2318   1.315   2.280   0.784
  767SOL     OW 2319   1.593   2.083   0.882
  767SOL    HW1 2320   1.509   2.082   0.936
  767SOL    HW2 2321   1.595   2.166   0.826
  768SOL     OW 2322   0.039   2.939   0.300
  768SOL    HW1 2323   0.138   2.928   0.291
  768SOL    HW2 2324  -0.001   2.853   0.332
  769SOL     OW 2325   0.875   3.508   0.337
  769SOL    HW1 2326   0.798   3.473   0.283
  769SOL    HW2 2327   0.843   3.579   0.399
  770SOL     OW 2328   0.230   2.490   1.975
  770SOL    HW1 2329   0.137   2.488   2.012
  770SOL    HW2 2330   0.231   2.451   1.883
  771SOL     OW 2331   0.225   2.137   2.858
  771SOL    HW1 2332   0.260   2.120   2.950
  771SOL    HW2 2333   0.137   2.092   2.846
  772SOL     OW 2334   0.019   2.230   2.509
  772SOL    HW1 2335  -0.063   2.273   2.548
  772SOL    HW2 2336  -0.009   2.157   2.446
  773SOL     OW 2337   0.569   3.137   3.027
  773SOL    HW1 2338   0.476   3.130   2.990
  773SOL    HW2 2339   0.580   3.226   3.071
  774SOL     OW 2340   1.555   3.373   2.565
  774SOL    HW1 2341   1.498   3.357   2.646
  774SOL    HW2 2342   1.496   3.383   2.485
  775SOL     OW 2343   1.135   2.565   2.579
  775SOL    HW1 2344   1.192   2.643   2.554
  775SOL    HW2 2345   1.075   2.591   2.655
  776SOL     OW 2346   1.755   2.469   2.093
  776SOL    HW1 2347   1.743   2.456   1.994
  776SOL    HW2 2348   1.725   2.388   2.142
  777SOL     OW 2349   0.768   3.006   2.885
  777SOL    HW1 2350   0.690   3.023   2.945
  777SOL    HW2 2351   0.802   3.093   2.849
  778SOL     OW 2352   0.850   2.660   3.685
  778SOL    HW1 2353   0.846   2.736   3.750
  778SOL    HW2 2354   0.872   2.696   3.594
  779SOL     OW 2355   0.685   2.874   2.527
  779SOL    HW1 2356   0.754   2.858   2.597
  779SOL    HW2 2357   0.612   2.931   2.565
  780SOL     OW 2358   0.686   3.023   3.665
  780SOL    HW1 2359   0.746   3.102   3.679
  780SOL    HW2 2360   0.600   3.054   3.624
  781SOL     OW 2361   0.335   3.297   2.923
  781SOL    HW1 2362   0.257   3.266   2.870
  781SOL    HW2 2363   0.393   3.355   2.866
  782SOL     OW 2364   1.460   3.367   3.201
  782SOL    HW1 2365   1.484   3.461   3.227
  782SOL    HW2 2366   1.444   3.313   3.283
  783SOL     OW 2367   0.438   2.254   3.361
  783SOL    HW1 2368   0.520   2.198   3.370
  783SOL    HW2 2369   0.357   2.196   3.365
  784SOL     OW 2370   1.603   2.309   2.599
  784SOL    HW1 2371   1.529   2.355   2.549
  784SOL    HW2 2372   1.654   2.377   2.652
  785SOL     OW 2373   0.231   3.575   2.345
  785SOL    HW1 2374   0.265   3.652   2.399
  785SOL    HW2 2375   0.275   3.575   2.255
  786SOL     OW 2376   1.127   3.203   3.552
  786SOL    HW1 2377   1.174   3.203   3.640
  786SOL    HW2 2378   1.079   3.116   3.541
  787SOL     OW 2379   0.230   3.296   2.400
  787SOL    HW1 2380   0.204   3.392   2.400
  787SOL    HW2 2381   0.159   3.242   2.445
  788SOL     OW 2382   0.240   2.953   2.748
  788SOL    HW1 2383   0.254   2.869   2.800
  788SOL    HW2 2384   0.185   3.017   2.803
  789SOL     OW 2385   0.620   3.648   3.301
  789SOL    HW1 2386   0.528   3.631   3.336
  789SOL    HW2 2387   0.648   3.740   3.327
  790SOL     OW 2388   0.606   2.826   1.985
  790SOL    HW1 2389   0.613   2.910   1.931
  790SOL    HW2 2390   0.652   2.839   2.073
  791SOL     OW 2391   1.594   1.976   3.342
  791SOL    HW1 2392   1.576   2.043   3.270
  791SOL    HW2 2393   1.591   2.022   3.431
  792SOL     OW 2394   0.122   2.505   2.425
  792SOL    HW1 2395   0.077   2.417   2.442
  792SOL    HW2 2396   0.121   2.559   2.509
  793SOL     OW 2397   1.842   3.629   2.221
  793SOL    HW1 2398   1.896   3.600   2.301
  793SOL    HW2 2399   1.872   3.719   2.192
  794SOL     OW 2400   0.027   3.458   1.979
  794SOL    HW1 2401   0.008   3.362   2.000
  794SOL    HW2 2402  -0.006   3.516   2.054
  795SOL     OW 2403   1.689   2.784   2.474
  795SOL    HW1 2404   1.784   2.755   2.482
  795SOL    HW2 2405   1.681   2.849   2.399
  796SOL     OW 2406   1.641   2.970   2.294
  796SOL    HW1 2407   1.727   2.972   2.242
  796SOL    HW2 2408   1.655   3.017   2.382
  797SOL     OW 2409   0.113   2.599   3.459
  797SOL    HW1 2410   0.201   2.586   3.504
  797SOL    HW2 2411   0.100   2.696   3.437
  798SOL     OW 2412   0.613   3.227   2.588
  798SOL    HW1 2413   0.564   3.140   2.597
  798SOL    HW2 2414   0.590   3.270   2.501
  799SOL     OW 2415   1.293   3.090   3.285
  799SOL    HW1 2416   1.330   3.017   3.227
  799SOL    HW2 2417   1.345   3.095   3.370
  800SOL     OW 2418   0.809   1.866   2.364
  800SOL    HW1 2419   0.849   1.957   2.355
  800SOL    HW2 2420   0.709   1.874   2.370
  801SOL     OW 2421   0.197   2.838   3.126
  801SOL    HW1 2422   0.286   2.793   3.112
  801SOL    HW2 2423   0.124   2.773   3.107
  802SOL     OW 2424   1.525   2.861   2.052
  802SOL    HW1 2425   1.462   2.785   2.065
  802SOL    HW2 2426   1.573   2.879   2.138
  803SOL     OW 2427   1.187   3.654   3.478
  803SOL    HW1 2428   1.211   3.714   3.402
  803SOL    HW2 2429   1.194   3.559   3.448
  804SOL     OW 2430   0.317   2.113   3.663
  804SOL    HW1 2431   0.388   2.184   3.669
  804SOL    HW2 2432   0.229   2.152   3.691
  805SOL     OW 2433   1.466   3.279   2.815
  805SOL    HW1 2434   1.407   3.285   2.895
  805SOL    HW2 2435   1.451   3.191   2.769
  806SOL     OW 2436   1.667   3.576   2.434
  806SOL    HW1 2437   1.626   3.553   2.346
  806SOL    HW2 2438   1.649   3.502   2.499
  807SOL     OW 2439   0.598   2.591   2.132
  807SOL    HW1 2440   0.622   2.660   2.064
  807SOL    HW2 2441   0.520   2.624   2.186
  808SOL     OW 2442   1.281   2.207   2.806
  808SOL    HW1 2443   1.195   2.157   2.793
  808SOL    HW2 2444   1.343   2.153   2.862
  809SOL     OW 2445   1.576   3.524   2.169
  809SOL    HW1 2446   1.665   3.570   2.172
  809SOL    HW2 2447   1.555   3.500   2.074
  810SOL     OW 2448   0.807   2.467   3.327
  810SOL    HW1 2449   0.760   2.464   3.416
  810SOL    HW2 2450   0.756   2.412   3.261
  811SOL     OW 2451   1.394   2.331   3.536
  811SOL    HW1 2452   1.374   2.374   3.624
  811SOL    HW2 2453   1.472   2.269   3.545
  812SOL     OW 2454   0.973   2.752   3.434
  812SOL    HW1 2455   1.019   2.668   3.405
  812SOL    HW2 2456   0.917   2.786   3.359
  813SOL     OW 2457   0.991   2.272   3.104
  813SOL    HW1 2458   0.914   2.306   3.158
  813SOL    HW2 2459   0.957   2.221   3.025
  814SOL     OW 2460   1.041   2.563   2.291
  814SOL    HW1 2461   1.067   2.559   2.387
  814SOL    HW2 2462   0.956   2.512   2.277
  815SOL     OW 2463   0.076   2.673   2.651
  815SOL    HW1 2464   0.175   2.661   2.660
  815SOL    HW2 2465   0.052   2.768   2.672
  816SOL     OW 2466   0.130   3.683   3.433
  816SOL    HW1 2467   0.120   3.668   3.532
  816SOL    HW2 2468   0.044   3.719   3.397
  817SOL     OW 2469   0.865   2.210   2.057
  817SOL    HW1 2470   0.924   2.273   2.008
  817SOL    HW2 2471   0.884   2.116   2.028
  818SOL     OW 2472   1.719   2.447   3.693
  818SOL    HW1 2473   1.693   2.536   3.657
  818SOL    HW2 2474   1.717   2.379   3.620
  819SOL     OW 2475   1.362   3.006   2.407
  819SOL    HW1 2476   1.445   2.977   2.359
  819SOL    HW2 2477   1.313   3.073   2.351
  820SOL     OW 2478   0.550   2.058   2.747
  820SOL    HW1 2479   0.545   2.053   2.847
  820SOL    HW2 2480   0.552   2.154   2.718
  821SOL     OW 2481   1.008   3.318   2.339
  821SOL    HW1 2482   0.962   3.390   2.287
  821SOL    HW2 2483   1.004   3.338   2.437
  822SOL     OW 2484   0.351   3.663   2.715
  822SOL    HW1 2485   0.401   3.577   2.721
  822SOL    HW2 2486   0.416   3.740   2.712
  823SOL     OW 2487   1.795   2.928   2.735
  823SOL    HW1 2488   1.733   2.913   2.659
  823SOL    HW2 2489   1.743   2.939   2.820
  824SOL     OW 2490   1.227   3.412   3.368
  824SOL    HW1 2491   1.233   3.335   3.432
  824SOL    HW2 2492   1.175   3.386   3.288
  825SOL     OW 2493   0.321   2.805   2.104
  825SOL    HW1 2494   0.403   2.844   2.062
  825SOL    HW2 2495   0.294   2.723   2.055
  826SOL     OW 2496   1.458   2.597   2.590
  826SOL    HW1 2497   1.453   2.532   2.665
  826SOL    HW2 2498   1.538   2.656   2.603
  827SOL     OW 2499   0.461   3.128   3.589
  827SOL    HW1 2500   0.411   3.129   3.503
  827SOL    HW2 2501   0.398   3.110   3.665
  828SOL     OW 2502   1.111   3.638   2.099
  828SOL    HW1 2503   1.051   3.576   2.149
  828SOL    HW2 2504   1.142   3.594   2.014
  829SOL     OW 2505   0.202   2.147   3.360
  829SOL    HW1 2506   0.122   2.207   3.347
  829SOL    HW2 2507   0.192   2.098   3.446
  830SOL     OW 2508   1.632   3.239   1.943
  830SOL    HW1 2509   1.600   3.333   1.933
  830SOL    HW2 2510   1.556   3.176   1.931
  831SOL     OW 2511   0.464   3.605   2.185
  831SOL    HW1 2512   0.497   3.644   2.271
  831SOL    HW2 2513   0.540   3.598   2.120
  832SOL     OW 2514   1.400   1.969   2.288
  832SOL    HW1 2515   1.376   1.932   2.198
  832SOL    HW2 2516   1.499   1.985   2.292
  833SOL     OW 2517   0.249   3.647   3.103
  833SOL    HW1 2518   0.306   3.582   3.153
  833SOL    HW2 2519   0.233   3.614   3.010
  834SOL     OW 2520   0.940   3.560   2.766
  834SOL    HW1 2521   1.020   3.503   2.787
  834SOL    HW2 2522   0.891   3.520   2.689
  835SOL     OW 2523   0.382   2.562   2.342
  835SOL    HW1 2524   0.427   2.472   2.339
  835SOL    HW2 2525   0.288   2.551   2.375
  836SOL     OW 2526   1.547   2.084   3.591
  836SOL    HW1 2527   1.542   2.121   3.683
  836SOL    HW2 2528   1.475   2.015   3.579
  837SOL     OW 2529   0.614   1.984   1.979
  837SOL    HW1 2530   0.712   1.962   1.986
  837SOL    HW2 2531   0.583   1.967   1.886
  838SOL     OW 2532   0.781   2.126   3.611
  838SOL    HW1 2533   0.848   2.065   3.654
  838SOL    HW2 2534   0.708   2.145   3.676
  839SOL     OW 2535   0.888   3.376   3.057
  839SOL    HW1 2536   0.865   3.351   2.963
  839SOL    HW2 2537   0.949   3.307   3.096
  840SOL     OW 2538   1.351   2.452   3.295
  840SOL    HW1 2539   1.379   2.409   3.380
  840SOL    HW2 2540   1.376   2.548   3.296
  841SOL     OW 2541   0.803   3.264   2.786
  841SOL    HW1 2542   0.893   3.278   2.744
  841SOL    HW2 2543   0.732   3.266   2.715
  842SOL     OW 2544   0.922   2.365   2.761
  842SOL    HW1 2545   0.897   2.356   2.665
  842SOL    HW2 2546   0.970   2.283   2.792
  843SOL     OW 2547   0.539   1.926   2.374
  843SOL    HW1 2548   0.458   1.927   2.432
  843SOL    HW2 2549   0.542   2.009   2.319
  844SOL     OW 2550   1.434   3.050   1.903
  844SOL    HW1 2551   1.466   2.974   1.960
  844SOL    HW2 2552   1.342   3.077   1.933
  845SOL     OW 2553   0.297   1.897   2.033
  845SOL    HW1 2554   0.346   1.981   2.012
  845SOL    HW2 2555   0.359   1.832   2.078
  846SOL     OW 2556   0.935   2.098   2.342
  846SOL    HW1 2557   0.887   2.139   2.264
  846SOL    HW2 2558   1.034   2.096   2.323
  847SOL     OW 2559   1.076   2.545   3.326
  847SOL    HW1 2560   0.996   2.484   3.329
  847SOL    HW2 2561   1.157   2.492   3.302
  848SOL     OW 2562   1.227   3.432   2.655
  848SOL    HW1 2563   1.248   3.506   2.590
  848SOL    HW2 2564   1.295   3.432   2.728
  849SOL     OW 2565   0.459   3.014   2.603
  849SOL    HW1 2566   0.388   2.987   2.668
  849SOL    HW2 2567   0.433   2.986   2.510
  850SOL     OW 2568   1.271   3.659   2.453
  850SOL    HW1 2569   1.315   3.723   2.389
  850SOL    HW2 2570   1.221   3.711   2.523
  851SOL     OW 2571   1.032   2.411   1.878
  851SOL    HW1 2572   0.991   2.493   1.839
  851SOL    HW2 2573   1.096   2.437   1.951
  852SOL     OW 2574   0.078   2.418   3.248
  852SOL    HW1 2575   0.170   2.417   3.207
  852SOL    HW2 2576   0.072   2.492   3.315
  853SOL     OW 2577   0.561   2.084   3.009
  853SOL    HW1 2578   0.599   2.000   3.046
  853SOL    HW2 2579   0.473   2.103   3.053
  854SOL     OW 2580   0.866   2.316   2.504
  854SOL    HW1 2581   0.834   2.388   2.442
  854SOL    HW2 2582   0.890   2.235   2.451
  855SOL     OW 2583   1.017   1.901   2.615
  855SOL    HW1 2584   0.945   1.906   2.546
  855SOL    HW2 2585   0.993   1.832   2.684
  856SOL     OW 2586   1.429   3.035   2.729
  856SOL    HW1 2587   1.374   2.951   2.722
  856SOL    HW2 2588   1.455   3.064   2.637
  857SOL     OW 2589   1.466   2.452   2.854
  857SOL    HW1 2590   1.436   2.357   2.861
  857SOL    HW2 2591   1.539   2.468   2.920
  858SOL     OW 2592   1.857   2.695   2.239
  858SOL    HW1 2593   1.899   2.631   2.303
  858SOL    HW2 2594   1.819   2.644   2.161
  859SOL     OW 2595   0.488   3.247   2.036
  859SOL    HW1 2596   0.401   3.232   2.083
  859SOL    HW2 2597   0.471   3.273   1.941
  860SOL     OW 2598   1.664   3.142   2.519
  860SOL    HW1 2599   1.763   3.150   2.533
  860SOL    HW2 2600   1.619   3.226   2.550
  861SOL     OW 2601   1.390   2.437   1.940
  861SOL    HW1 2602   1.336   2.416   2.021
  861SOL    HW2 2603   1.481   2.396   1.949
  862SOL     OW 2604   0.527   2.118   2.190
  862SOL    HW1 2605   0.554   2.059   2.115
  862SOL    HW2 2606   0.527   2.213   2.159
  863SOL     OW 2607   1.754   3.085   3.450
  863SOL    HW1 2608   1.845   3.046   3.437
  863SOL    HW2 2609   1.762   3.181   3.474
  864SOL     OW 2610   1.064   3.209   3.202
  864SOL    HW1 2611   0.984   3.186   3.257
  864SOL    HW2 2612   1.147   3.183   3.251
  865SOL     OW 2613   1.592   3.491   3.487
  865SOL    HW1 2614   1.619   3.525   3.397
  865SOL    HW2 2615   1.671   3.453   3.533
  866SOL     OW 2616   1.111   3.057   2.962
  866SOL    HW1 2617   1.071   3.101   3.043
  866SOL    HW2 2618   1.070   3.094   2.879
  867SOL     OW 2619   1.638   2.961   2.941
  867SOL    HW1 2620   1.643   3.042   3.000
  867SOL    HW2 2621   1.552   2.963   2.890
  868SOL     OW 2622   0.915   1.951   3.264
  868SOL    HW1 2623   0.940   1.931   3.169
  868SOL    HW2 2624   0.987   2.007   3.306
  869SOL     OW 2625   0.980   2.978   3.581
  869SOL    HW1 2626   0.881   2.984   3.591
  869SOL    HW2 2627   1.003   2.898   3.525
  870SOL     OW 2628   0.705   2.912   2.230
  870SOL    HW1 2629   0.691   2.919   2.329
  870SOL    HW2 2630   0.789   2.861   2.212
  871SOL     OW 2631   0.410   2.675   3.113
  871SOL    HW1 2632   0.496   2.687   3.163
  871SOL    HW2 2633   0.368   2.588   3.140
  872SOL     OW 2634   1.274   2.248   3.124
  872SOL    HW1 2635   1.295   2.322   3.188
  872SOL    HW2 2636   1.185   2.265   3.081
  873SOL     OW 2637   0.064   3.426   3.193
  873SOL    HW1 2638   0.018   3.508   3.159
  873SOL    HW2 2639   0.162   3.445   3.202
  874SOL     OW 2640   0.367   2.962   2.363
  874SOL    HW1 2641   0.360   3.045   2.307
  874SOL    HW2 2642   0.371   2.882   2.303
  875SOL     OW 2643   0.566   2.399   2.727
  875SOL    HW1 2644   0.578   2.465   2.653
  875SOL    HW2 2645   0.612   2.433   2.810
  876SOL     OW 2646   1.252   3.210   2.250
  876SOL    HW1 2647   1.302   3.287   2.290
  876SOL    HW2 2648   1.157   3.212   2.282
  877SOL     OW 2649   1.272   3.307   3.004
  877SOL    HW1 2650   1.319   3.320   3.091
  877SOL    HW2 2651   1.206   3.233   3.013
  878SOL     OW 2652   1.582   2.501   2.334
  878SOL    HW1 2653   1.551   2.562   2.407
  878SOL    HW2 2654   1.632   2.553   2.265
  879SOL     OW 2655   0.354   3.372   3.191
  879SOL    HW1 2656   0.333   3.328   3.104
  879SOL    HW2 2657   0.451   3.398   3.194
  880SOL     OW 2658   0.402   2.613   3.460
  880SOL    HW1 2659   0.470   2.668   3.413
  880SOL    HW2 2660   0.442   2.525   3.487
  881SOL     OW 2661   1.587   2.641   3.532
  881SOL    HW1 2662   1.495   2.679   3.527
  881SOL    HW2 2663   1.647   2.688   3.467
  882SOL     OW 2664   1.013   1.967   3.632
  882SOL    HW1 2665   1.019   2.052   3.580
  882SOL    HW2 2666   1.045   1.891   3.575
  883SOL     OW 2667   0.504   1.912   3.602
  883SOL    HW1 2668   0.462   1.855   3.532
  883SOL    HW2 2669   0.438   1.981   3.634
  884SOL     OW 2670   0.573   2.732   2.891
  884SOL    HW1 2671   0.617   2.821   2.882
  884SOL    HW2 2672   0.510   2.732   2.968
  885SOL     OW 2673   1.360   2.724   2.907
  885SOL    HW1 2674   1.285   2.724   2.841
  885SOL    HW2 2675   1.397   2.632   2.916
  886SOL     OW 2676   1.209   2.387   2.137
  886SOL    HW1 2677   1.222   2.303   2.191
  886SOL    HW2 2678   1.180   2.461   2.197
  887SOL     OW 2679   0.307   2.075   3.093
  887SOL    HW1 2680   0.284   2.112   3.183
  887SOL    HW2 2681   0.277   1.980   3.087
  888SOL     OW 2682   0.037   3.172   3.144
  888SOL    HW1 2683   0.090   3.123   3.212
  888SOL    HW2 2684   0.059   3.270   3.149
  889SOL     OW 2685   0.732   2.496   2.926
  889SOL    HW1 2686   0.791   2.470   2.850
  889SOL    HW2 2687   0.704   2.592   2.915
  890SOL     OW 2688   1.728   2.797   3.716
  890SOL    HW1 2689   1.682   2.790   3.627
  890SOL    HW2 2690   1.666   2.841   3.782
  891SOL     OW 2691   0.307   1.925   2.480
  891SOL    HW1 2692   0.296   2.019   2.513
  891SOL    HW2 2693   0.302   1.862   2.557
  892SOL     OW 2694   1.622   2.229   2.236
  892SOL    HW1 2695   1.624   2.153   2.300
  892SOL    HW2 2696   1.574   2.306   2.276
  893SOL     OW 2697   1.023   2.628   2.828
  893SOL    HW1 2698   1.038   2.649   2.924
  893SOL    HW2 2699   0.993   2.533   2.819
  894SOL     OW 2700   0.980   3.435   3.562
  894SOL    HW1 2701   0.960   3.479   3.474
  894SOL    HW2 2702   1.019   3.344   3.546
  895SOL     OW 2703   1.859   3.380   3.467
  895SOL    HW1 2704   1.873   3.407   3.372
  895SOL    HW2 2705   1.942   3.402   3.520
  896SOL     OW 2706   0.350   2.760   3.666
  896SOL    HW1 2707   0.426   2.804   3.714
  896SOL    HW2 2708   0.385   2.713   3.584
  897SOL     OW 2709   1.540   2.136   1.987
  897SOL    HW1 2710   1.479   2.061   2.010
  897SOL    HW2 2711   1.562   2.188   2.070
  898SOL     OW 2712   1.303   2.700   1.904
  898SOL    HW1 2713   1.337   2.607   1.919
  898SOL    HW2 2714   1.321   2.727   1.809
  899SOL     OW 2715   1.068   3.195   2.711
  899SOL    HW1 2716   1.075   3.111   2.656
  899SOL    HW2 2717   1.130   3.264   2.675
  900SOL     OW 2718   0.319   2.672   2.811
  900SOL    HW1 2719   0.412   2.708   2.816
  900SOL    HW2 2720   0.313   2.587   2.863
  901SOL     OW 2721   0.339   2.371   2.868
  901SOL    HW1 2722   0.287   2.288   2.851
  901SOL    HW2 2723   0.416   2.376   2.804
  902SOL     OW 2724   1.138   2.242   3.540
  902SOL    HW1 2725   1.093   2.305   3.604
  902SOL    HW2 2726   1.231   2.273   3.523
  903SOL     OW 2727   1.160   2.069   3.339
  903SOL    HW1 2728   1.160   2.133   3.416
  903SOL    HW2 2729   1.188   2.117   3.256
  904SOL     OW 2730   0.008   3.188   2.062
  904SOL    HW1 2731  -0.085   3.209   2.031
  904SOL    HW2 2732   0.018   3.089   2.075
  905SOL     OW 2733   0.088   3.663   2.789
  905SOL    HW1 2734   0.046   3.577   2.762
  905SOL    HW2 2735   0.182   3.666   2.755
  906SOL     OW 2736   0.504   3.430   2.772
  906SOL    HW1 2737   0.570   3.504   2.781
  906SOL    HW2 2738   0.548   3.351   2.730
  907SOL     OW 2739   1.002   2.658   3.100
  907SOL    HW1 2740   1.043   2.626   3.186
  907SOL    HW2 2741   0.906   2.631   3.097
  908SOL     OW 2742   0.040   2.406   2.976
  908SOL    HW1 2743   0.125   2.373   2.935
  908SOL    HW2 2744   0.053   2.421   3.074
  909SOL     OW 2745   0.189   2.382   3.584
  909SOL    HW1 2746   0.248   2.342   3.514
  909SOL    HW2 2747   0.131   2.453   3.543
  910SOL     OW 2748   1.369   2.812   3.522
  910SOL    HW1 2749   1.408   2.901   3.542
  910SOL    HW2 2750   1.379   2.792   3.425
  911SOL     OW 2751   0.815   2.434   2.187
  911SOL    HW1 2752   0.822   2.345   2.141
  911SOL    HW2 2753   0.721   2.468   2.179
  912SOL     OW 2754   1.657   2.466   3.068
  912SOL    HW1 2755   1.619   2.397   3.130
  912SOL    HW2 2756   1.739   2.430   3.024
  913SOL     OW 2757   0.252   3.426   3.606
  913SOL    HW1 2758   0.222   3.483   3.682
  913SOL    HW2 2759   0.245   3.329   3.632
  914SOL     OW 2760   0.671   2.326   3.131
  914SOL    HW1 2761   0.637   2.237   3.101
  914SOL    HW2 2762   0.697   2.380   3.051
  915SOL     OW 2763   0.930   3.540   3.327
  915SOL    HW1 2764   0.906   3.522   3.232
  915SOL    HW2 2765   0.960   3.634   3.337
  916SOL     OW 2766   0.473   2.362   2.053
  916SOL    HW1 2767   0.534   2.442   2.057
  916SOL    HW2 2768   0.378   2.393   2.060
  917SOL     OW 2769   0.159   2.999   3.328
  917SOL    HW1 2770   0.181   2.938   3.404
  917SOL    HW2 2771   0.169   2.950   3.242
  918SOL     OW 2772   1.347   2.921   3.096
  918SOL    HW1 2773   1.371   2.858   3.022
  918SOL    HW2 2774   1.257   2.961   3.078
  919SOL     OW 2775   1.302   2.717   2.171
  919SOL    HW1 2776   1.216   2.686   2.213
  919SOL    HW2 2777   1.298   2.703   2.072
  920SOL     OW 2778   1.759   3.609   3.016
  920SOL    HW1 2779   1.820   3.639   2.943
  920SOL    HW2 2780   1.721   3.520   2.994
  921SOL     OW 2781   1.252   3.593   2.990
  921SOL    HW1 2782   1.336   3.598   2.936
  921SOL    HW2 2783   1.229   3.497   3.008
  922SOL     OW 2784   0.083   3.120   2.884
  922SOL    HW1 2785   0.078   3.119   2.984
  922SOL    HW2 2786   0.000   3.079   2.846
  923SOL     OW 2787   0.688   3.524   3.578
  923SOL    HW1 2788   0.632   3.605   3.587
  923SOL    HW2 2789   0.740   3.528   3.492
  924SOL     OW 2790   1.726   1.997   2.385
  924SOL    HW1 2791   1.799   1.980   2.318
  924SOL    HW2 2792   1.695   1.910   2.423
  925SOL     OW 2793   1.388   3.435   2.339
  925SOL    HW1 2794   1.455   3.447   2.265
  925SOL    HW2 2795   1.348   3.524   2.362
  926SOL     OW 2796   0.130   3.656   3.713
  926SOL    HW1 2797   0.089   3.582   3.766
  926SOL    HW2 2798   0.194   3.707   3.771
  927SOL     OW 2799   1.280   2.789   2.534
  927SOL    HW1 2800   1.340   2.708   2.536
  927SOL    HW2 2801   1.320   2.858   2.474
  928SOL     OW 2802   0.830   3.135   3.284
  928SOL    HW1 2803   0.825   3.168   3.379
  928SOL    HW2 2804   0.744   3.154   3.238
  929SOL     OW 2805   0.672   3.478   2.016
  929SOL    HW1 2806   0.681   3.488   1.917
  929SOL    HW2 2807   0.632   3.389   2.037
  930SOL     OW 2808   1.650   3.582   3.256
  930SOL    HW1 2809   1.703   3.592   3.172
  930SOL    HW2 2810   1.623   3.672   3.290
  931SOL     OW 2811   1.841   2.037   2.825
  931SOL    HW1 2812   1.880   1.952   2.789
  931SOL    HW2 2813   1.743   2.039   2.806
  932SOL     OW 2814   0.263   2.188   2.582
  932SOL    HW1 2815   0.184   2.239   2.548
  932SOL    HW2 2816   0.254   2.173   2.680
  933SOL     OW 2817   1.194   3.474   1.893
  933SOL    HW1 2818   1.200   3.381   1.930
  933SOL    HW2 2819   1.135   3.474   1.813
  934SOL     OW 2820   0.822   2.864   3.234
  934SOL    HW1 2821   0.862   2.863   3.142
  934SOL    HW2 2822   0.832   2.956   3.274
  935SOL     OW 2823   0.916   2.772   2.153
  935SOL    HW1 2824   0.979   2.810   2.085
  935SOL    HW2 2825   0.956   2.689   2.192
  936SOL     OW 2826   1.504   3.469   1.906
  936SOL    HW1 2827   1.412   3.506   1.913
  936SOL    HW2 2828   1.542   3.489   1.816
  937SOL     OW 2829   0.372   3.150   3.352
  937SOL    HW1 2830   0.359   3.243   3.318
  937SOL    HW2 2831   0.288   3.098   3.339
  938SOL     OW 2832   1.614   3.154   3.151
  938SOL    HW1 2833   1.674   3.157   3.231
  938SOL    HW2 2834   1.539   3.218   3.164
  939SOL     OW 2835   1.039   2.960   2.558
  939SOL    HW1 2836   0.969   2.913   2.612
  939SOL    HW2 2837   1.098   2.892   2.515
  940SOL     OW 2838   1.014   2.098   2.833
  940SOL    HW1 2839   1.006   2.062   2.740
  940SOL    HW2 2840   1.012   2.022   2.898
  941SOL     OW 2841   0.590   3.349   2.353
  941SOL    HW1 2842   0.632   3.291   2.283
  941SOL    HW2 2843   0.546   3.428   2.309
  942SOL     OW 2844   1.709   2.247   3.243
  942SOL    HW1 2845   1.782   2.316   3.247
  942SOL    HW2 2846   1.737   2.172   3.184
  943SOL     OW 2847   0.255   3.210   2.152
  943SOL    HW1 2848   0.159   3.211   2.125
  943SOL    HW2 2849   0.267   3.263   2.236
  944SOL     OW 2850   0.105   2.875   3.588
  944SOL    HW1 2851   0.028   2.842   3.642
  944SOL    HW2 2852   0.190   2.845   3.630
  945SOL     OW 2853   0.672   2.065   3.351
  945SOL    HW1 2854   0.762   2.049   3.311
  945SOL    HW2 2855   0.680   2.070   3.450
  946SOL     OW 2856   0.075   2.207   1.895
  946SOL    HW1 2857  -0.017   2.179   1.866
  946SOL    HW2 2858   0.106   2.284   1.839
  947SOL     OW 2859   1.440   2.718   3.260
  947SOL    HW1 2860   1.383   2.770   3.197
  947SOL    HW2 2861   1.536   2.730   3.236
  948SOL     OW 2862   0.072   2.028   2.180
  948SOL    HW1 2863   0.055   2.111   2.126
  948SOL    HW2 2864   0.162   1.991   2.158
  949SOL     OW 2865   1.183   3.197   1.981
  949SOL    HW1 2866   1.084   3.186   1.983
  949SOL    HW2 2867   1.217   3.212   2.074
  950SOL     OW 2868   0.613   2.704   3.293
  950SOL    HW1 2869   0.669   2.785   3.276
  950SOL    HW2 2870   0.672   2.624   3.296
  951SOL     OW 2871   1.493   3.629   2.821
  951SOL    HW1 2872   1.526   3.693   2.752
  951SOL    HW2 2873   1.559   3.623   2.896
  952SOL     OW 2874   0.716   2.427   3.570
  952SOL    HW1 2875   0.735   2.492   3.644
  952SOL    HW2 2876   0.776   2.347   3.579
  953SOL     OW 2877   1.450   3.082   3.495
  953SOL    HW1 2878   1.441   3.072   3.594
  953SOL    HW2 2879   1.546   3.075   3.469
  954SOL     OW 2880   0.390   3.603   3.422
  954SOL    HW1 2881   0.299   3.644   3.420
  954SOL    HW2 2882   0.383   3.509   3.454
  955SOL     OW 2883   1.674   2.745   3.116
  955SOL    HW1 2884   1.647   2.656   3.079
  955SOL    HW2 2885   1.675   2.813   3.043
  956SOL     OW 2886   1.225   2.187   2.311
  956SOL    HW1 2887   1.290   2.113   2.300
  956SOL    HW2 2888   1.245   2.237   2.395
  957SOL     OW 2889   0.594   2.607   2.514
  957SOL    HW1 2890   0.644   2.692   2.495
  957SOL    HW2 2891   0.506   2.609   2.466
  958SOL     OW 2892   1.777   2.204   3.504
  958SOL    HW1 2893   1.760   2.235   3.410
  958SOL    HW2 2894   1.693   2.167   3.542
  959SOL     OW 2895   1.730   2.796   3.379
  959SOL    HW1 2896   1.768   2.887   3.394
  959SOL    HW2 2897   1.722   2.779   3.280
  960SOL     OW 2898   0.859   3.236   1.878
  960SOL    HW1 2899   0.813   3.251   1.966
  960SOL    HW2 2900   0.903   3.321   1.848
  961SOL     OW 2901   0.661   3.652   2.815
  961SOL    HW1 2902   0.615   3.740   2.802
  961SOL    HW2 2903   0.760   3.664   2.808
  962SOL     OW 2904   0.859   2.818   2.723
  962SOL    HW1 2905   0.913   2.749   2.771
  962SOL    HW2 2906   0.827   2.887   2.789
  963SOL     OW 2907   1.083   2.846   1.949
  963SOL    HW1 2908   1.060   2.899   1.867
  963SOL    HW2 2909   1.164   2.790   1.930
  964SOL     OW 2910   1.861   3.431   2.713
  964SOL    HW1 2911   1.790   3.419   2.643
  964SOL    HW2 2912   1.862   3.352   2.773
  965SOL     OW 2913   0.221   3.176   3.706
  965SOL    HW1 2914   0.156   3.103   3.685
  965SOL    HW2 2915   0.225   3.190   3.804
  966SOL     OW 2916   0.079   3.102   2.515
  966SOL    HW1 2917   0.078   3.055   2.603
  966SOL    HW2 2918   0.161   3.074   2.464
  967SOL     OW 2919   0.672   3.253   3.486
  967SOL    HW1 2920   0.594   3.203   3.524
  967SOL    HW2 2921   0.669   3.348   3.517
  968SOL     OW 2922   1.824   2.054   3.089
  968SOL    HW1 2923   1.820   1.964   3.133
  968SOL    HW2 2924   1.827   2.043   2.990
  969SOL     OW 2925   0.428   2.286   2.382
  969SOL    HW1 2926   0.458   2.214   2.320
  969SOL    HW2 2927   0.389   2.246   2.465
  970SOL     OW 2928   1.705   3.349   2.966
  970SOL    HW1 2929   1.612   3.324   2.939
  970SOL    HW2 2930   1.731   3.299   3.048
  971SOL     OW 2931   0.317   2.409   3.142
  971SOL    HW1 2932   0.355   2.350   3.214
  971SOL    HW2 2933   0.357   2.383   3.054
  972SOL     OW 2934   0.812   3.448   2.549
  972SOL    HW1 2935   0.844   3.458   2.455
  972SOL    HW2 2936   0.733   3.386   2.551
  973SOL     OW 2937   1.424   2.076   2.974
  973SOL    HW1 2938   1.476   2.011   3.029
  973SOL    HW2 2939   1.375   2.139   3.035
  974SOL     OW 2940   1.001   1.896   3.016
  974SOL    HW1 2941   0.938   1.824   2.985
  974SOL    HW2 2942   1.094   1.860   3.016
  975SOL     OW 2943   0.770   3.192   2.163
  975SOL    HW1 2944   0.724   3.105   2.180
  975SOL    HW2 2945   0.861   3.189   2.204
  976SOL     OW 2946   0.618   3.429   3.146
  976SOL    HW1 2947   0.613   3.511   3.203
  976SOL    HW2 2948   0.707   3.426   3.101
  977SOL     OW 2949   1.352   1.914   2.030
  977SOL    HW1 2950   1.387   1.873   1.946
  977SOL    HW2 2951   1.262   1.876   2.050
  978SOL     OW 2952   1.300   2.315   2.553
  978SOL    HW1 2953   1.241   2.395   2.557
  978SOL    HW2 2954   1.315   2.280   2.646
  979SOL     OW 2955   1.593   2.083   2.744
  979SOL    HW1 2956   1.509   2.082   2.798
  979SOL    HW2 2957   1.595   2.166   2.688
  980SOL     OW 2958   0.039   2.939   2.162
  980SOL    HW1 2959   0.138   2.928   2.153
  980SOL    HW2 2960  -0.001   2.853   2.194
  981SOL     OW 2961   0.875   3.508   2.199
  981SOL    HW1 2962   0.798   3.473   2.145
  981SOL    HW2 2963   0.843   3.579   2.261
  982SOL     OW 2964   0.230   2.490   3.837
  982SOL    HW1 2965   0.137   2.488   3.874
  982SOL    HW2 2966   0.231   2.451   3.745
  983SOL     OW 2967   0.225   2.137   4.720
  983SOL    HW1 2968   0.260   2.120   4.812
  983SOL    HW2 2969   0.137   2.092   4.708
  984SOL     OW 2970   0.019   2.230   4.371
  984SOL    HW1 2971  -0.063   2.273   4.410
  984SOL    HW2 2972  -0.009   2.157   4.308
  985SOL     OW 2973   1.555   3.373   4.427
  985SOL    HW1 2974   1.498   3.357   4.508
  985SOL    HW2 2975   1.496   3.383   4.347
  986SOL     OW 2976   1.135   2.565   4.441
  986SOL    HW1 2977   1.192   2.643   4.416
  986SOL    HW2 2978   1.075   2.591   4.517
  987SOL     OW 2979   1.755   2.469   3.955
  987SOL    HW1 2980   1.743   2.456   3.856
  987SOL    HW2 2981   1.725   2.388   4.004
  988SOL     OW 2982   0.768   3.006   4.747
  988SOL    HW1 2983   0.690   3.023   4.807
  988SOL    HW2 2984   0.802   3.093   4.711
  989SOL     OW 2985   0.685   2.874   4.389
  989SOL    HW1 2986   0.754   2.858   4.459
  989SOL    HW2 2987   0.612   2.931   4.427
  990SOL     OW 2988   0.335   3.297   4.785
  990SOL    HW1 2989   0.257   3.266   4.732
  990SOL    HW2 2990   0.393   3.355   4.728
  991SOL     OW 2991   1.603   2.309   4.461
  991SOL    HW1 2992   1.529   2.355   4.411
  991SOL    HW2 2993   1.654   2.377   4.514
  992SOL     OW 2994   0.231   3.575   4.207
  992SOL    HW1 2995   0.265   3.652   4.261
  992SOL    HW2 2996   0.275   3.575   4.117
  993SOL     OW 2997   0.230   3.296   4.262
  993SOL    HW1 2998   0.204   3.392   4.262
  993SOL    HW2 2999   0.159   3.242   4.307
  994SOL     OW 3000   0.240   2.953   4.610
  994SOL    HW1 3001   0.254   2.869   4.662
  994SOL    HW2 3002   0.185   3.017   4.665
  995SOL     OW 3003   0.606   2.826   3.847
  995SOL    HW1 3004   0.613   2.910   3.793
  995SOL    HW2 3005   0.652   2.839   3.935
  996SOL     OW 3006   0.122   2.505   4.287
  996SOL    HW1 3007   0.077   2.417   4.304
  996SOL    HW2 3008   0.121   2.559   4.371
  997SOL     OW 3009   1.842   3.629   4.083
  997SOL    HW1 3010   1.896   3.600   4.163
  997SOL    HW2 3011   1.872   3.719   4.054
  998SOL     OW 3012   0.027   3.458   3.841
  998SOL    HW1 3013   0.008   3.362   3.862
  998SOL    HW2 3014  -0.006   3.516   3.916
  999SOL     OW 3015   1.689   2.784   4.336
  999SOL    HW1 3016   1.784   2.755   4.344
  999SOL    HW2 3017   1.681   2.849   4.261
 1000SOL     OW 3018   1.641   2.970   4.156
 1000SOL    HW1 3019   1.727   2.972   4.104
 1000SOL    HW2 3020   1.655   3.017   4.244
 1001SOL     OW 3021   0.613   3.227   4.450
 1001SOL    HW1 3022   0.564   3.140   4.459
 1001SOL    HW2 3023   0.590   3.270   4.363
 1002SOL     OW 3024   0.809   1.866   4.226
 1002SOL    HW1 3025   0.849   1.957   4.217
 1002SOL    HW2 3026   0.709   1.874   4.232
 1003SOL     OW 3027   0.197   2.838   4.988
 1003SOL    HW1 3028   0.286   2.793   4.974
 1003SOL    HW2 3029   0.124   2.773   4.969
 1004SOL     OW 3030   1.525   2.861   3.914
 1004SOL    HW1 3031   1.462   2.785   3.927
 1004SOL    HW2 3032   1.573   2.879   4.000
 1005SOL     OW 3033   1.466   3.279   4.677
 1005SOL    HW1 3034   1.407   3.285   4.757
 1005SOL    HW2 3035   1.451   3.191   4.631
 1006SOL     OW 3036   1.667   3.576   4.296
 1006SOL    HW1 3037   1.626   3.553   4.208
 1006SOL    HW2 3038   1.649   3.502   4.361
 1007SOL     OW 3039   0.598   2.591   3.994
 1007SOL    HW1 3040   0.622   2.660   3.926
 1007SOL    HW2 3041   0.520   2.624   4.048
 1008SOL     OW 3042   1.281   2.207   4.668
 1008SOL    HW1 3043   1.195   2.157   4.655
 1008SOL    HW2 3044   1.343   2.153   4.724
 1009SOL     OW 3045   1.576   3.524   4.031
 1009SOL    HW1 3046   1.665   3.570   4.034
 1009SOL    HW2 3047   1.555   3.500   3.936
 1010SOL     OW 3048   1.041   2.563   4.153
 1010SOL    HW1 3049   1.067   2.559   4.249
 1010SOL    HW2 3050   0.956   2.512   4.139
 1011SOL     OW 3051   0.076   2.673   4.513
 1011SOL    HW1 3052   0.175   2.661   4.522
 1011SOL    HW2 3053   0.052   2.768   4.534
 1012SOL     OW 3054   0.865   2.210   3.919
 1012SOL    HW1 3055   0.924   2.273   3.870
 1012SOL    HW2 3056   0.884   2.116   3.890
 1013SOL     OW 3057   1.362   3.006   4.269
 1013SOL    HW1 3058   1.445   2.977   4.221
 1013SOL    HW2 3059   1.313   3.073   4.213
 1014SOL     OW 3060   0.550   2.058   4.609
 1014SOL    HW1 3061   0.545   2.053   4.709
 1014SOL    HW2 3062   0.552   2.154   4.580
 1015SOL     OW 3063   1.008   3.318   4.201
 1015SOL    HW1 3064   0.962   3.390   4.149
 1015SOL    HW2 3065   1.004   3.338   4.299
 1016SOL     OW 3066   0.351   3.663   4.577
 1016SOL    HW1 3067   0.401   3.577   4.583
 1016SOL    HW2 3068   0.416   3.740   4.574
 1017SOL     OW 3069   1.795   2.928   4.597
 1017SOL    HW1 3070   1.733   2.913   4.521
 1017SOL    HW2 3071   1.743   2.939   4.682
 1018SOL     OW 3072   0.321   2.805   3.966
 1018SOL    HW1 3073   0.403   2.844   3.924
 1018SOL    HW2 3074   0.294   2.723   3.917
 1019SOL     OW 3075   1.458   2.597   4.452
 1019SOL    HW1 3076   1.453   2.532   4.527
 1019SOL    HW2 3077   1.538   2.656   4.465
 1020SOL     OW 3078   1.111   3.638   3.961
 1020SOL    HW1 3079   1.051   3.576   4.011
 1020SOL    HW2 3080   1.142   3.594   3.876
 1021SOL     OW 3081   1.632   3.239   3.805
 1021SOL    HW1 3082   1.600   3.333   3.795
 1021SOL    HW2 3083   1.556   3.176   3.793
 1022SOL     OW 3084   0.464   3.605   4.047
 1022SOL    HW1 3085   0.497   3.644   4.133
 1022SOL    HW2 3086   0.540   3.598   3.982
 1023SOL     OW 3087   1.400   1.969   4.150
 1023SOL    HW1 3088   1.376   1.932   4.060
 1023SOL    HW2 3089   1.499   1.985   4.154
 1024SOL     OW 3090   0.249   3.647   4.965
 1024SOL    HW1 3091   0.306   3.582   5.015
 1024SOL    HW2 3092   0.233   3.614   4.872
 1025SOL     OW 3093   0.940   3.560   4.628
 1025SOL    HW1 3094   1.020   3.503   4.649
 1025SOL    HW2 3095   0.891   3.520   4.551
 1026SOL     OW 3096   0.382   2.562   4.204
 1026SOL    HW1 3097   0.427   2.472   4.201
 1026SOL    HW2 3098   0.288   2.551   4.237
 1027SOL     OW 3099   0.614   1.984   3.841
 1027SOL    HW1 3100   0.712   1.962   3.848
 1027SOL    HW2 3101   0.583   1.967   3.748
 1028SOL     OW 3102   0.803   3.264   4.648
 1028SOL    HW1 3103   0.893   3.278   4.606
 1028SOL    HW2 3104   0.732   3.266   4.577
 1029SOL     OW 3105   0.922   2.365   4.623
 1029SOL    HW1 3106   0.897   2.356   4.527
 1029SOL    HW2 3107   0.970   2.283   4.654
 1030SOL     OW 3108   0.539   1.926   4.236
 1030SOL    HW1 3109   0.458   1.927   4.294
 1030SOL    HW2 3110   0.542   2.009   4.181
 1031SOL     OW 3111   1.434   3.050   3.765
 1031SOL    HW1 3112   1.466   2.974   3.822
 1031SOL    HW2 3113   1.342   3.077   3.795
 1032SOL     OW 3114   0.297   1.897   3.895
 1032SOL    HW1 3115   0.346   1.981   3.874
 1032SOL    HW2 3116   0.359   1.832   3.940
 1033SOL     OW 3117   0.935   2.098   4.204
 1033SOL    HW1 3118   0.887   2.139   4.126
 1033SOL    HW2 3119   1.034   2.096   4.185
 1034SOL     OW 3120   1.227   3.432   4.517
 1034SOL    HW1 3121   1.248   3.506   4.452
 1034SOL    HW2 3122   1.295   3.432   4.590
 1035SOL     OW 3123   0.459   3.014   4.465
 1035SOL    HW1 3124   0.388   2.987   4.530
 1035SOL    HW2 3125   0.433   2.986   4.372
 1036SOL     OW 3126   1.271   3.659   4.315
 1036SOL    HW1 3127   1.315   3.723   4.251
 1036SOL    HW2 3128   1.221   3.711   4.385
 1037SOL     OW 3129   1.032   2.411   3.740
 1037SOL    HW1 3130   0.991   2.493   3.701
 1037SOL    HW2 3131   1.096   2.437   3.813
 1038SOL     OW 3132   0.866   2.316   4.366
 1038SOL    HW1 3133   0.834   2.388   4.304
 1038SOL    HW2 3134   0.890   2.235   4.313
 1039SOL     OW 3135   1.017   1.901   4.477
 1039SOL    HW1 3136   0.945   1.906   4.408
 1039SOL    HW2 3137   0.993   1.832   4.546
 1040SOL     OW 3138   1.429   3.035   4.591
 1040SOL    HW1 3139   1.374   2.951   4.584
 1040SOL    HW2 3140   1.455   3.064   4.499
 1041SOL     OW 3141   1.466   2.452   4.716
 1041SOL    HW1 3142   1.436   2.357   4.723
 1041SOL    HW2 3143   1.539   2.468   4.782
 1042SOL     OW 3144   1.857   2.695   4.101
 1042SOL    HW1 3145   1.899   2.631   4.165
 1042SOL    HW2 3146   1.819   2.644   4.023
 1043SOL     OW 3147   0.488   3.247   3.898
 1043SOL    HW1 3148   0.401   3.232   3.945
 1043SOL    HW2 3149   0.471   3.273   3.803
 1044SOL     OW 3150   1.664   3.142   4.381
 1044SOL    HW1 3151   1.763   3.150   4.395
 1044SOL    HW2 3152   1.619   3.226   4.412
 1045SOL     OW 3153   1.390   2.437   3.802
 1045SOL    HW1 3154   1.336   2.416   3.883
 1045SOL    HW2 3155   1.481   2.396   3.811
 1046SOL     OW 3156   0.527   2.118   4.052
 1046SOL    HW1 3157   0.554   2.059   3.977
 1046SOL    HW2 3158   0.527   2.213   4.021
 1047SOL     OW 3159   1.111   3.057   4.824
 1047SOL    HW1 3160   1.071   3.101   4.905
 1047SOL    HW2 3161   1.070   3.094   4.741
 1048SOL     OW 3162   1.638   2.961   4.803
 1048SOL    HW1 3163   1.643   3.042   4.862
 1048SOL    HW2 3164   1.552   2.963   4.752
 1049SOL     OW 3165   0.705   2.912   4.092
 1049SOL    HW1 3166   0.691   2.919   4.191
 1049SOL    HW2 3167   0.789   2.861   4.074
 1050SOL     OW 3168   0.410   2.675   4.975
 1050SOL    HW1 3169   0.496   2.687   5.025
 1050SOL    HW2 3170   0.368   2.588   5.002
 1051SOL     OW 3171   0.367   2.962   4.225
 1051SOL    HW1 3172   0.360   3.045   4.169
 1051SOL    HW2 3173   0.371   2.882   4.165
 1052SOL     OW 3174   0.566   2.399   4.589
 1052SOL    HW1 3175   0.578   2.465   4.515
 1052SOL    HW2 3176   0.612   2.433   4.672
 1053SOL     OW 3177   1.252   3.210   4.112
 1053SOL    HW1 3178   1.302   3.287   4.152
 1053SOL    HW2 3179   1.157   3.212   4.144
 1054SOL     OW 3180   1.582   2.501   4.196
 1054SOL    HW1 3181   1.551   2.562   4.269
 1054SOL    HW2 3182   1.632   2.553   4.127
 1055SOL     OW 3183   0.354   3.372   5.053
 1055SOL    HW1 3184   0.333   3.328   4.966
 1055SOL    HW2 3185   0.451   3.398   5.056
 1056SOL     OW 3186   0.573   2.732   4.753
 1056SOL    HW1 3187   0.617   2.821   4.744
 1056SOL    HW2 3188   0.510   2.732   4.830
 1057SOL     OW 3189   1.209   2.387   3.999
 1057SOL    HW1 3190   1.222   2.303   4.053
 1057SOL    HW2 3191   1.180   2.461   4.059
 1058SOL     OW 3192   0.307   2.075   4.955
 1058SOL    HW1 3193   0.284   2.112   5.045
 1058SOL    HW2 3194   0.277   1.980   4.949
 1059SOL     OW 3195   0.732   2.496   4.788
 1059SOL    HW1 3196   0.791   2.470   4.712
 1059SOL    HW2 3197   0.704   2.592   4.777
 1060SOL     OW 3198   0.307   1.925   4.342
 1060SOL    HW1 3199   0.296   2.019   4.375
 1060SOL    HW2 3200   0.302   1.862   4.419
 1061SOL     OW 3201   1.622   2.229   4.098
 1061SOL    HW1 3202   1.624   2.153   4.162
 1061SOL    HW2 3203   1.574   2.306   4.138
 1062SOL     OW 3204   1.023   2.628   4.690
 1062SOL    HW1 3205   1.038   2.649   4.786
 1062SOL    HW2 3206   0.993   2.533   4.681
 1063SOL     OW 3207   1.540   2.136   3.849
 1063SOL    HW1 3208   1.479   2.061   3.872
 1063SOL    HW2 3209   1.562   2.188   3.932
 1064SOL     OW 3210   1.303   2.700   3.766
 1064SOL    HW1 3211   1.337   2.607   3.781
 1064SOL    HW2 3212   1.321   2.727   3.671
 1065SOL     OW 3213   1.068   3.195   4.573
 1065SOL    HW1 3214   1.075   3.111   4.518
 1065SOL    HW2 3215   1.130   3.264   4.537
 1066SOL     OW 3216   0.319   2.672   4.673
 1066SOL    HW1 3217   0.412   2.708   4.678
 1066SOL    HW2 3218   0.313   2.587   4.725
 1067SOL     OW 3219   0.339   2.371   4.730
 1067SOL    HW1 3220   0.287   2.288   4.713
 1067SOL    HW2 3221   0.416   2.376   4.666
 1068SOL     OW 3222   0.008   3.188   3.924
 1068SOL    HW1 3223  -0.085   3.209   3.893
 1068SOL    HW2 3224   0.018   3.089   3.937
 1069SOL     OW 3225   0.088   3.663   4.651
 1069SOL    HW1 3226   0.046   3.577   4.624
 1069SOL    HW2 3227   0.182   3.666   4.617
 1070SOL     OW 3228   0.504   3.430   4.634
 1070SOL    HW1 3229   0.570   3.504   4.643
 1070SOL    HW2 3230   0.548   3.351   4.592
 1071SOL     OW 3231   1.002   2.658   4.962
 1071SOL    HW1 3232   1.043   2.626   5.048
 1071SOL    HW2 3233   0.906   2.631   4.959
 1072SOL     OW 3234   0.815   2.434   4.049
 1072SOL    HW1 3235   0.822   2.345   4.003
 1072SOL    HW2 3236   0.721   2.468   4.041
 1073SOL     OW 3237   0.671   2.326   4.993
 1073SOL    HW1 3238   0.637   2.237   4.963
 1073SOL    HW2 3239   0.697   2.380   4.913
 1074SOL     OW 3240   0.473   2.362   3.915
 1074SOL    HW1 3241   0.534   2.442   3.919
 1074SOL    HW2 3242   0.378   2.393   3.922
 1075SOL     OW 3243   1.302   2.717   4.033
 1075SOL    HW1 3244   1.216   2.686   4.075
 1075SOL    HW2 3245   1.298   2.703   3.934
 1076SOL     OW 3246   1.759   3.609   4.878
 1076SOL    HW1 3247   1.820   3.639   4.805
 1076SOL    HW2 3248   1.721   3.520   4.856
 1077SOL     OW 3249   0.083   3.120   4.746
 1077SOL    HW1 3250   0.078   3.119   4.846
 1077SOL    HW2 3251   0.000   3.079   4.708
 1078SOL     OW 3252   1.726   1.997   4.247
 1078SOL    HW1 3253   1.799   1.980   4.180
 1078SOL    HW2 3254   1.695   1.910   4.285
 1079SOL     OW 3255   1.388   3.435   4.201
 1079SOL    HW1 3256   1.455   3.447   4.127
 1079SOL    HW2 3257   1.348   3.524   4.224
 1080SOL     OW 3258   1.280   2.789   4.396
 1080SOL    HW1 3259   1.340   2.708   4.398
 1080SOL    HW2 3260   1.320   2.858   4.336
 1081SOL     OW 3261   0.672   3.478   3.878
 1081SOL    HW1 3262   0.681   3.488   3.779
 1081SOL    HW2 3263   0.632   3.389   3.899
 1082SOL     OW 3264   1.841   2.037   4.687
 1082SOL    HW1 3265   1.880   1.952   4.651
 1082SOL    HW2 3266   1.743   2.039   4.668
 1083SOL     OW 3267   0.263   2.188   4.444
 1083SOL    HW1 3268   0.184   2.239   4.410
 1083SOL    HW2 3269   0.254   2.173   4.542
 1084SOL     OW 3270   1.194   3.474   3.755
 1084SOL    HW1 3271   1.200   3.381   3.792
 1084SOL    HW2 3272   1.135   3.474   3.675
 1085SOL     OW 3273   0.916   2.772   4.015
 1085SOL    HW1 3274   0.979   2.810   3.947
 1085SOL    HW2 3275   0.956   2.689   4.054
 1086SOL     OW 3276   1.504   3.469   3.768
 1086SOL    HW1 3277   1.412   3.506   3.775
 1086SOL    HW2 3278   1.542   3.489   3.678
 1087SOL     OW 3279   1.039   2.960   4.420
 1087SOL    HW1 3280   0.969   2.913   4.474
 1087SOL    HW2 3281   1.098   2.892   4.377
 1088SOL     OW 3282   1.014   2.098   4.695
 1088SOL    HW1 3283   1.006   2.062   4.602
 1088SOL    HW2 3284   1.012   2.022   4.760
 1089SOL     OW 3285   0.590   3.349   4.215
 1089SOL    HW1 3286   0.632   3.291   4.145
 1089SOL    HW2 3287   0.546   3.428   4.171
 1090SOL     OW 3288   0.255   3.210   4.014
 1090SOL    HW1 3289   0.159   3.211   3.987
 1090SOL    HW2 3290   0.267   3.263   4.098
 1091SOL     OW 3291   0.075   2.207   3.757
 1091SOL    HW1 3292  -0.017   2.179   3.728
 1091SOL    HW2 3293   0.106   2.284   3.701
 1092SOL     OW 3294   0.072   2.028   4.042
 1092SOL    HW1 3295   0.055   2.111   3.988
 1092SOL    HW2 3296   0.162   1.991   4.020
 1093SOL     OW 3297   1.183   3.197   3.843
 1093SOL    HW1 3298   1.084   3.186   3.845
 1093SOL    HW2 3299   1.217   3.212   3.936
 1094SOL     OW 3300   1.493   3.629   4.683
 1094SOL    HW1 3301   1.526   3.693   4.614
 1094SOL    HW2 3302   1.559   3.623   4.758
 1095SOL     OW 3303   1.674   2.745   4.978
 1095SOL    HW1 3304   1.647   2.656   4.941
 1095SOL    HW2 3305   1.675   2.813   4.905
 1096SOL     OW 3306   1.225   2.187   4.173
 1096SOL    HW1 3307   1.290   2.113   4.162
 1096SOL    HW2 3308   1.245   2.237   4.257
 1097SOL     OW 3309   0.594   2.607   4.376
 1097SOL    HW1 3310   0.644   2.692   4.357
 1097SOL    HW2 3311   0.506   2.609   4.328
 1098SOL     OW 3312   0.859   3.236   3.740
 1098SOL    HW1 3313   0.813   3.251   3.828
 1098SOL    HW2 3314   0.903   3.321   3.710
 1099SOL     OW 3315   0.661   3.652   4.677
 1099SOL    HW1 3316   0.615   3.740   4.664
 1099SOL    HW2 3317   0.760   3.664   4.670
 1100SOL     OW 3318   0.859   2.818   4.585
 1100SOL    HW1 3319   0.913   2.749   4.633
 1100SOL    HW2 3320   0.827   2.887   4.651
 1101SOL     OW 3321   1.083   2.846   3.811
 1101SOL    HW1 3322   1.060   2.899   3.729
 1101SOL    HW2 3323   1.164   2.790   3.792
 1102SOL     OW 3324   1.861   3.431   4.575
 1102SOL    HW1 3325   1.790   3.419   4.505
 1102SOL    HW2 3326   1.862   3.352   4.635
 1103SOL     OW 3327   0.079   3.102   4.377
 1103SOL    HW1 3328   0.078   3.055   4.465
 1103SOL    HW2 3329   0.161   3.074   4.326
 1104SOL     OW 3330   1.824   2.054   4.951
 1104SOL    HW1 3331   1.820   1.964   4.995
 1104SOL    HW2 3332   1.827   2.043   4.852
 1105SOL     OW 3333   0.428   2.286   4.244
 1105SOL    HW1 3334   0.458   2.214   4.182
 1105SOL    HW2 3335   0.389   2.246   4.327
 1106SOL     OW 3336   0.812   3.448   4.411
 1106SOL    HW1 3337   0.844   3.458   4.317
 1106SOL    HW2 3338   0.733   3.386   4.413
 1107SOL     OW 3339   1.424   2.076   4.836
 1107SOL    HW1 3340   1.476   2.011   4.891
 1107SOL    HW2 3341   1.375   2.139   4.897
 1108SOL     OW 3342   0.770   3.192   4.025
 1108SOL    HW1 3343   0.724   3.105   4.042
 1108SOL    HW2 3344   0.861   3.189   4.066
 1109SOL     OW 3345   1.352   1.914   3.892
 1109SOL    HW1 3346   1.387   1.873   3.808
 1109SOL    HW2 3347   1.262   1.876   3.912
 1110SOL     OW 3348   1.300   2.315   4.415
 1110SOL    HW1 3349   1.241   2.395   4.419
 1110SOL    HW2 3350   1.315   2.280   4.508
 1111SOL     OW 3351   1.593   2.083   4.606
 1111SOL    HW1 3352   1.509   2.082   4.660
 1111SOL    HW2 3353   1.595   2.166   4.550
 1112SOL     OW 3354   0.039   2.939   4.024
 1112SOL    HW1 3355   0.138   2.928   4.015
 1112SOL    HW2 3356  -0.001   2.853   4.056
 1113SOL     OW 3357   0.875   3.508   4.061
 1113SOL    HW1 3358   0.798   3.473   4.007
 1113SOL    HW2 3359   0.843   3.579   4.123
 1114SOL     OW 3360   0.230   4.352   0.113
 1114SOL    HW1 3361   0.137   4.350   0.150
 1114SOL    HW2 3362   0.231   4.313   0.021
 1115SOL     OW 3363   0.225   3.999   0.996
 1115SOL    HW1 3364   0.260   3.982   1.088
 1115SOL    HW2 3365   0.137   3.954   0.984
 1116SOL     OW 3366   0.019   4.092   0.647
 1116SOL    HW1 3367  -0.063   4.135   0.686
 1116SOL    HW2 3368  -0.009   4.019   0.584
 1117SOL     OW 3369   1.135   4.427   0.717
 1117SOL    HW1 3370   1.192   4.505   0.692
 1117SOL    HW2 3371   1.075   4.453   0.793
 1118SOL     OW 3372   1.755   4.331   0.231
 1118SOL    HW1 3373   1.743   4.318   0.132
 1118SOL    HW2 3374   1.725   4.250   0.280
 1119SOL     OW 3375   0.768   4.868   1.023
 1119SOL    HW1 3376   0.690   4.885   1.083
 1119SOL    HW2 3377   0.802   4.955   0.987
 1120SOL     OW 3378   0.850   4.522   1.823
 1120SOL    HW1 3379   0.846   4.598   1.888
 1120SOL    HW2 3380   0.872   4.558   1.732
 1121SOL     OW 3381   0.685   4.736   0.665
 1121SOL    HW1 3382   0.754   4.720   0.735
 1121SOL    HW2 3383   0.612   4.793   0.703
 1122SOL     OW 3384   0.438   4.116   1.499
 1122SOL    HW1 3385   0.520   4.060   1.508
 1122SOL    HW2 3386   0.357   4.058   1.503
 1123SOL     OW 3387   1.603   4.171   0.737
 1123SOL    HW1 3388   1.529   4.217   0.687
 1123SOL    HW2 3389   1.654   4.239   0.790
 1124SOL     OW 3390   0.230   5.158   0.538
 1124SOL    HW1 3391   0.204   5.254   0.538
 1124SOL    HW2 3392   0.159   5.104   0.583
 1125SOL     OW 3393   0.240   4.815   0.886
 1125SOL    HW1 3394   0.254   4.731   0.938
 1125SOL    HW2 3395   0.185   4.879   0.941
 1126SOL     OW 3396   0.606   4.688   0.123
 1126SOL    HW1 3397   0.613   4.772   0.069
 1126SOL    HW2 3398   0.652   4.701   0.211
 1127SOL     OW 3399   1.594   3.838   1.480
 1127SOL    HW1 3400   1.576   3.905   1.408
 1127SOL    HW2 3401   1.591   3.884   1.569
 1128SOL     OW 3402   0.122   4.367   0.563
 1128SOL    HW1 3403   0.077   4.279   0.580
 1128SOL    HW2 3404   0.121   4.421   0.647
 1129SOL     OW 3405   1.689   4.646   0.612
 1129SOL    HW1 3406   1.784   4.617   0.620
 1129SOL    HW2 3407   1.681   4.711   0.537
 1130SOL     OW 3408   0.113   4.461   1.597
 1130SOL    HW1 3409   0.201   4.448   1.642
 1130SOL    HW2 3410   0.100   4.558   1.575
 1131SOL     OW 3411   1.293   4.952   1.423
 1131SOL    HW1 3412   1.330   4.879   1.365
 1131SOL    HW2 3413   1.345   4.957   1.508
 1132SOL     OW 3414   0.809   3.728   0.502
 1132SOL    HW1 3415   0.849   3.819   0.493
 1132SOL    HW2 3416   0.709   3.736   0.508
 1133SOL     OW 3417   0.197   4.700   1.264
 1133SOL    HW1 3418   0.286   4.655   1.250
 1133SOL    HW2 3419   0.124   4.635   1.245
 1134SOL     OW 3420   1.525   4.723   0.190
 1134SOL    HW1 3421   1.462   4.647   0.203
 1134SOL    HW2 3422   1.573   4.741   0.276
 1135SOL     OW 3423   0.317   3.975   1.801
 1135SOL    HW1 3424   0.388   4.046   1.807
 1135SOL    HW2 3425   0.229   4.014   1.829
 1136SOL     OW 3426   0.598   4.453   0.270
 1136SOL    HW1 3427   0.622   4.522   0.202
 1136SOL    HW2 3428   0.520   4.486   0.324
 1137SOL     OW 3429   1.281   4.069   0.944
 1137SOL    HW1 3430   1.195   4.019   0.931
 1137SOL    HW2 3431   1.343   4.015   1.000
 1138SOL     OW 3432   0.807   4.329   1.465
 1138SOL    HW1 3433   0.760   4.326   1.554
 1138SOL    HW2 3434   0.756   4.274   1.399
 1139SOL     OW 3435   1.394   4.193   1.674
 1139SOL    HW1 3436   1.374   4.236   1.762
 1139SOL    HW2 3437   1.472   4.131   1.683
 1140SOL     OW 3438   0.973   4.614   1.572
 1140SOL    HW1 3439   1.019   4.530   1.543
 1140SOL    HW2 3440   0.917   4.648   1.497
 1141SOL     OW 3441   0.991   4.134   1.242
 1141SOL    HW1 3442   0.914   4.168   1.296
 1141SOL    HW2 3443   0.957   4.083   1.163
 1142SOL     OW 3444   1.041   4.425   0.429
 1142SOL    HW1 3445   1.067   4.421   0.525
 1142SOL    HW2 3446   0.956   4.374   0.415
 1143SOL     OW 3447   0.076   4.535   0.789
 1143SOL    HW1 3448   0.175   4.523   0.798
 1143SOL    HW2 3449   0.052   4.630   0.810
 1144SOL     OW 3450   0.865   4.072   0.195
 1144SOL    HW1 3451   0.924   4.135   0.146
 1144SOL    HW2 3452   0.884   3.978   0.166
 1145SOL     OW 3453   1.719   4.309   1.831
 1145SOL    HW1 3454   1.693   4.398   1.795
 1145SOL    HW2 3455   1.717   4.241   1.758
 1146SOL     OW 3456   0.550   3.920   0.885
 1146SOL    HW1 3457   0.545   3.915   0.985
 1146SOL    HW2 3458   0.552   4.016   0.856
 1147SOL     OW 3459   1.795   4.790   0.873
 1147SOL    HW1 3460   1.733   4.775   0.797
 1147SOL    HW2 3461   1.743   4.801   0.958
 1148SOL     OW 3462   0.321   4.667   0.242
 1148SOL    HW1 3463   0.403   4.706   0.200
 1148SOL    HW2 3464   0.294   4.585   0.193
 1149SOL     OW 3465   1.458   4.459   0.728
 1149SOL    HW1 3466   1.453   4.394   0.803
 1149SOL    HW2 3467   1.538   4.518   0.741
 1150SOL     OW 3468   0.202   4.009   1.498
 1150SOL    HW1 3469   0.122   4.069   1.485
 1150SOL    HW2 3470   0.192   3.960   1.584
 1151SOL     OW 3471   1.400   3.831   0.426
 1151SOL    HW1 3472   1.376   3.794   0.336
 1151SOL    HW2 3473   1.499   3.847   0.430
 1152SOL     OW 3474   0.382   4.424   0.480
 1152SOL    HW1 3475   0.427   4.334   0.477
 1152SOL    HW2 3476   0.288   4.413   0.513
 1153SOL     OW 3477   1.547   3.946   1.729
 1153SOL    HW1 3478   1.542   3.983   1.821
 1153SOL    HW2 3479   1.475   3.877   1.717
 1154SOL     OW 3480   0.614   3.846   0.117
 1154SOL    HW1 3481   0.712   3.824   0.124
 1154SOL    HW2 3482   0.583   3.829   0.024
 1155SOL     OW 3483   0.781   3.988   1.749
 1155SOL    HW1 3484   0.848   3.927   1.792
 1155SOL    HW2 3485   0.708   4.007   1.814
 1156SOL     OW 3486   1.351   4.314   1.433
 1156SOL    HW1 3487   1.379   4.271   1.518
 1156SOL    HW2 3488   1.376   4.410   1.434
 1157SOL     OW 3489   0.922   4.227   0.899
 1157SOL    HW1 3490   0.897   4.218   0.803
 1157SOL    HW2 3491   0.970   4.145   0.930
 1158SOL     OW 3492   0.539   3.788   0.512
 1158SOL    HW1 3493   0.458   3.789   0.570
 1158SOL    HW2 3494   0.542   3.871   0.457
 1159SOL     OW 3495   0.935   3.960   0.480
 1159SOL    HW1 3496   0.887   4.001   0.402
 1159SOL    HW2 3497   1.034   3.958   0.461
 1160SOL     OW 3498   1.076   4.407   1.464
 1160SOL    HW1 3499   0.996   4.346   1.467
 1160SOL    HW2 3500   1.157   4.354   1.440
 1161SOL     OW 3501   0.459   4.876   0.741
 1161SOL    HW1 3502   0.388   4.849   0.806
 1161SOL    HW2 3503   0.433   4.848   0.648
 1162SOL     OW 3504   1.032   4.273   0.016
 1162SOL    HW1 3505   0.991   4.355  -0.023
 1162SOL    HW2 3506   1.096   4.299   0.089
 1163SOL     OW 3507   0.078   4.280   1.386
 1163SOL    HW1 3508   0.170   4.279   1.345
 1163SOL    HW2 3509   0.072   4.354   1.453
 1164SOL     OW 3510   0.561   3.946   1.147
 1164SOL    HW1 3511   0.599   3.862   1.184
 1164SOL    HW2 3512   0.473   3.965   1.191
 1165SOL     OW 3513   0.866   4.178   0.642
 1165SOL    HW1 3514   0.834   4.250   0.580
 1165SOL    HW2 3515   0.890   4.097   0.589
 1166SOL     OW 3516   1.017   3.763   0.753
 1166SOL    HW1 3517   0.945   3.768   0.684
 1166SOL    HW2 3518   0.993   3.694   0.822
 1167SOL     OW 3519   1.429   4.897   0.867
 1167SOL    HW1 3520   1.374   4.813   0.860
 1167SOL    HW2 3521   1.455   4.926   0.775
 1168SOL     OW 3522   1.466   4.314   0.992
 1168SOL    HW1 3523   1.436   4.219   0.999
 1168SOL    HW2 3524   1.539   4.330   1.058
 1169SOL     OW 3525   1.857   4.557   0.377
 1169SOL    HW1 3526   1.899   4.493   0.441
 1169SOL    HW2 3527   1.819   4.506   0.299
 1170SOL     OW 3528   1.390   4.299   0.078
 1170SOL    HW1 3529   1.336   4.278   0.159
 1170SOL    HW2 3530   1.481   4.258   0.087
 1171SOL     OW 3531   0.527   3.980   0.328
 1171SOL    HW1 3532   0.554   3.921   0.253
 1171SOL    HW2 3533   0.527   4.075   0.297
 1172SOL     OW 3534   1.754   4.947   1.588
 1172SOL    HW1 3535   1.845   4.908   1.575
 1172SOL    HW2 3536   1.762   5.043   1.612
 1173SOL     OW 3537   1.638   4.823   1.079
 1173SOL    HW1 3538   1.643   4.904   1.138
 1173SOL    HW2 3539   1.552   4.825   1.028
 1174SOL     OW 3540   0.915   3.813   1.402
 1174SOL    HW1 3541   0.940   3.793   1.307
 1174SOL    HW2 3542   0.987   3.869   1.444
 1175SOL     OW 3543   0.705   4.774   0.368
 1175SOL    HW1 3544   0.691   4.781   0.467
 1175SOL    HW2 3545   0.789   4.723   0.350
 1176SOL     OW 3546   0.410   4.537   1.251
 1176SOL    HW1 3547   0.496   4.549   1.301
 1176SOL    HW2 3548   0.368   4.450   1.278
 1177SOL     OW 3549   1.274   4.110   1.262
 1177SOL    HW1 3550   1.295   4.184   1.326
 1177SOL    HW2 3551   1.185   4.127   1.219
 1178SOL     OW 3552   0.367   4.824   0.501
 1178SOL    HW1 3553   0.360   4.907   0.445
 1178SOL    HW2 3554   0.371   4.744   0.441
 1179SOL     OW 3555   0.566   4.261   0.865
 1179SOL    HW1 3556   0.578   4.327   0.791
 1179SOL    HW2 3557   0.612   4.295   0.948
 1180SOL     OW 3558   1.582   4.363   0.472
 1180SOL    HW1 3559   1.551   4.424   0.545
 1180SOL    HW2 3560   1.632   4.415   0.403
 1181SOL     OW 3561   0.402   4.475   1.598
 1181SOL    HW1 3562   0.470   4.530   1.551
 1181SOL    HW2 3563   0.442   4.387   1.625
 1182SOL     OW 3564   1.587   4.503   1.670
 1182SOL    HW1 3565   1.495   4.541   1.665
 1182SOL    HW2 3566   1.647   4.550   1.605
 1183SOL     OW 3567   1.013   3.829   1.770
 1183SOL    HW1 3568   1.019   3.914   1.718
 1183SOL    HW2 3569   1.045   3.753   1.713
 1184SOL     OW 3570   0.504   3.774   1.740
 1184SOL    HW1 3571   0.462   3.717   1.670
 1184SOL    HW2 3572   0.438   3.843   1.772
 1185SOL     OW 3573   0.573   4.594   1.029
 1185SOL    HW1 3574   0.617   4.683   1.020
 1185SOL    HW2 3575   0.510   4.594   1.106
 1186SOL     OW 3576   1.360   4.586   1.045
 1186SOL    HW1 3577   1.285   4.586   0.979
 1186SOL    HW2 3578   1.397   4.494   1.054
 1187SOL     OW 3579   1.209   4.249   0.275
 1187SOL    HW1 3580   1.222   4.165   0.329
 1187SOL    HW2 3581   1.180   4.323   0.335
 1188SOL     OW 3582   0.307   3.937   1.231
 1188SOL    HW1 3583   0.284   3.974   1.321
 1188SOL    HW2 3584   0.277   3.842   1.225
 1189SOL     OW 3585   0.037   5.034   1.282
 1189SOL    HW1 3586   0.090   4.985   1.350
 1189SOL    HW2 3587   0.059   5.132   1.287
 1190SOL     OW 3588   0.732   4.358   1.064
 1190SOL    HW1 3589   0.791   4.332   0.988
 1190SOL    HW2 3590   0.704   4.454   1.053
 1191SOL     OW 3591   1.728   4.659   1.854
 1191SOL    HW1 3592   1.682   4.652   1.765
 1191SOL    HW2 3593   1.666   4.703   1.920
 1192SOL     OW 3594   0.307   3.787   0.618
 1192SOL    HW1 3595   0.296   3.881   0.651
 1192SOL    HW2 3596   0.302   3.724   0.695
 1193SOL     OW 3597   1.622   4.091   0.374
 1193SOL    HW1 3598   1.624   4.015   0.438
 1193SOL    HW2 3599   1.574   4.168   0.414
 1194SOL     OW 3600   1.023   4.490   0.966
 1194SOL    HW1 3601   1.038   4.511   1.062
 1194SOL    HW2 3602   0.993   4.395   0.957
 1195SOL     OW 3603   0.350   4.622   1.804
 1195SOL    HW1 3604   0.426   4.666   1.852
 1195SOL    HW2 3605   0.385   4.575   1.722
 1196SOL     OW 3606   1.540   3.998   0.125
 1196SOL    HW1 3607   1.479   3.923   0.148
 1196SOL    HW2 3608   1.562   4.050   0.208
 1197SOL     OW 3609   1.303   4.562   0.042
 1197SOL    HW1 3610   1.337   4.469   0.057
 1197SOL    HW2 3611   1.321   4.589  -0.053
 1198SOL     OW 3612   0.319   4.534   0.949
 1198SOL    HW1 3613   0.412   4.570   0.954
 1198SOL    HW2 3614   0.313   4.449   1.001
 1199SOL     OW 3615   0.339   4.233   1.006
 1199SOL    HW1 3616   0.287   4.150   0.989
 1199SOL    HW2 3617   0.416   4.238   0.942
 1200SOL     OW 3618   1.138   4.104   1.678
 1200SOL    HW1 3619   1.093   4.167   1.742
 1200SOL    HW2 3620   1.231   4.135   1.661
 1201SOL     OW 3621   1.160   3.931   1.477
 1201SOL    HW1 3622   1.160   3.995   1.554
 1201SOL    HW2 3623   1.188   3.979   1.394
 1202SOL     OW 3624   1.002   4.520   1.238
 1202SOL    HW1 3625   1.043   4.488   1.324
 1202SOL    HW2 3626   0.906   4.493   1.235
 1203SOL     OW 3627   0.040   4.268   1.114
 1203SOL    HW1 3628   0.125   4.235   1.073
 1203SOL    HW2 3629   0.053   4.283   1.212
 1204SOL     OW 3630   0.189   4.244   1.722
 1204SOL    HW1 3631   0.248   4.204   1.652
 1204SOL    HW2 3632   0.131   4.315   1.681
 1205SOL     OW 3633   1.369   4.674   1.660
 1205SOL    HW1 3634   1.408   4.763   1.680
 1205SOL    HW2 3635   1.379   4.654   1.563
 1206SOL     OW 3636   0.815   4.296   0.325
 1206SOL    HW1 3637   0.822   4.207   0.279
 1206SOL    HW2 3638   0.721   4.330   0.317
 1207SOL     OW 3639   1.657   4.328   1.206
 1207SOL    HW1 3640   1.619   4.259   1.268
 1207SOL    HW2 3641   1.739   4.292   1.162
 1208SOL     OW 3642   0.671   4.188   1.269
 1208SOL    HW1 3643   0.637   4.099   1.239
 1208SOL    HW2 3644   0.697   4.242   1.189
 1209SOL     OW 3645   0.473   4.224   0.191
 1209SOL    HW1 3646   0.534   4.304   0.195
 1209SOL    HW2 3647   0.378   4.255   0.198
 1210SOL     OW 3648   0.159   4.861   1.466
 1210SOL    HW1 3649   0.181   4.800   1.542
 1210SOL    HW2 3650   0.169   4.812   1.380
 1211SOL     OW 3651   1.347   4.783   1.234
 1211SOL    HW1 3652   1.371   4.720   1.160
 1211SOL    HW2 3653   1.257   4.823   1.216
 1212SOL     OW 3654   1.302   4.579   0.309
 1212SOL    HW1 3655   1.216   4.548   0.351
 1212SOL    HW2 3656   1.298   4.565   0.210
 1213SOL     OW 3657   0.083   4.982   1.022
 1213SOL    HW1 3658   0.078   4.981   1.122
 1213SOL    HW2 3659   0.000   4.941   0.984
 1214SOL     OW 3660   0.903   3.810   0.133
 1214SOL    HW1 3661   0.954   3.811   0.047
 1214SOL    HW2 3662   0.959   3.768   0.204
 1215SOL     OW 3663   1.726   3.859   0.523
 1215SOL    HW1 3664   1.799   3.842   0.456
 1215SOL    HW2 3665   1.695   3.772   0.561
 1216SOL     OW 3666   1.280   4.651   0.672
 1216SOL    HW1 3667   1.340   4.570   0.674
 1216SOL    HW2 3668   1.320   4.720   0.612
 1217SOL     OW 3669   1.841   3.899   0.963
 1217SOL    HW1 3670   1.880   3.814   0.927
 1217SOL    HW2 3671   1.743   3.901   0.944
 1218SOL     OW 3672   0.263   4.050   0.720
 1218SOL    HW1 3673   0.184   4.101   0.686
 1218SOL    HW2 3674   0.254   4.035   0.818
 1219SOL     OW 3675   0.822   4.726   1.372
 1219SOL    HW1 3676   0.862   4.725   1.280
 1219SOL    HW2 3677   0.832   4.818   1.412
 1220SOL     OW 3678   0.916   4.634   0.291
 1220SOL    HW1 3679   0.979   4.672   0.223
 1220SOL    HW2 3680   0.956   4.551   0.330
 1221SOL     OW 3681   0.372   5.012   1.490
 1221SOL    HW1 3682   0.359   5.105   1.456
 1221SOL    HW2 3683   0.288   4.960   1.477
 1222SOL     OW 3684   1.014   3.960   0.971
 1222SOL    HW1 3685   1.006   3.924   0.878
 1222SOL    HW2 3686   1.012   3.884   1.036
 1223SOL     OW 3687   1.709   4.109   1.381
 1223SOL    HW1 3688   1.782   4.178   1.385
 1223SOL    HW2 3689   1.737   4.034   1.322
 1224SOL     OW 3690   0.105   4.737   1.726
 1224SOL    HW1 3691   0.028   4.704   1.780
 1224SOL    HW2 3692   0.190   4.707   1.768
 1225SOL     OW 3693   0.672   3.927   1.489
 1225SOL    HW1 3694   0.762   3.911   1.449
 1225SOL    HW2 3695   0.680   3.932   1.588
 1226SOL     OW 3696   0.075   4.069   0.033
 1226SOL    HW1 3697  -0.017   4.041   0.004
 1226SOL    HW2 3698   0.106   4.146  -0.023
 1227SOL     OW 3699   1.440   4.580   1.398
 1227SOL    HW1 3700   1.383   4.632   1.335
 1227SOL    HW2 3701   1.536   4.592   1.374
 1228SOL     OW 3702   0.072   3.890   0.318
 1228SOL    HW1 3703   0.055   3.973   0.264
 1228SOL    HW2 3704   0.162   3.853   0.296
 1229SOL     OW 3705   1.183   5.059   0.119
 1229SOL    HW1 3706   1.084   5.048   0.121
 1229SOL    HW2 3707   1.217   5.074   0.212
 1230SOL     OW 3708   0.613   4.566   1.431
 1230SOL    HW1 3709   0.669   4.647   1.414
 1230SOL    HW2 3710   0.672   4.486   1.434
 1231SOL     OW 3711   0.716   4.289   1.708
 1231SOL    HW1 3712   0.735   4.354   1.782
 1231SOL    HW2 3713   0.776   4.209   1.717
 1232SOL     OW 3714   1.674   4.607   1.254
 1232SOL    HW1 3715   1.647   4.518   1.217
 1232SOL    HW2 3716   1.675   4.675   1.181
 1233SOL     OW 3717   1.225   4.049   0.449
 1233SOL    HW1 3718   1.290   3.975   0.438
 1233SOL    HW2 3719   1.245   4.099   0.533
 1234SOL     OW 3720   0.594   4.469   0.652
 1234SOL    HW1 3721   0.644   4.554   0.633
 1234SOL    HW2 3722   0.506   4.471   0.604
 1235SOL     OW 3723   1.777   4.066   1.642
 1235SOL    HW1 3724   1.760   4.097   1.548
 1235SOL    HW2 3725   1.693   4.029   1.680
 1236SOL     OW 3726   1.730   4.658   1.517
 1236SOL    HW1 3727   1.768   4.749   1.532
 1236SOL    HW2 3728   1.722   4.641   1.418
 1237SOL     OW 3729   0.859   4.680   0.861
 1237SOL    HW1 3730   0.913   4.611   0.909
 1237SOL    HW2 3731   0.827   4.749   0.927
 1238SOL     OW 3732   1.083   4.708   0.087
 1238SOL    HW1 3733   1.060   4.761   0.005
 1238SOL    HW2 3734   1.164   4.652   0.068
 1239SOL     OW 3735   1.824   3.916   1.227
 1239SOL    HW1 3736   1.820   3.826   1.271
 1239SOL    HW2 3737   1.827   3.905   1.128
 1240SOL     OW 3738   0.428   4.148   0.520
 1240SOL    HW1 3739   0.458   4.076   0.458
 1240SOL    HW2 3740   0.389   4.108   0.603
 1241SOL     OW 3741   0.317   4.271   1.280
 1241SOL    HW1 3742   0.355   4.212   1.352
 1241SOL    HW2 3743   0.357   4.245   1.192
 1242SOL     OW 3744   1.424   3.938   1.112
 1242SOL    HW1 3745   1.476   3.873   1.167
 1242SOL    HW2 3746   1.375   4.001   1.173
 1243SOL     OW 3747   1.001   3.758   1.154
 1243SOL    HW1 3748   0.938   3.686   1.123
 1243SOL    HW2 3749   1.094   3.722   1.154
 1244SOL     OW 3750   0.770   5.054   0.301
 1244SOL    HW1 3751   0.724   4.967   0.318
 1244SOL    HW2 3752   0.861   5.051   0.342
 1245SOL     OW 3753   1.352   3.776   0.168
 1245SOL    HW1 3754   1.387   3.735   0.084
 1245SOL    HW2 3755   1.262   3.738   0.188
 1246SOL     OW 3756   1.300   4.177   0.691
 1246SOL    HW1 3757   1.241   4.257   0.695
 1246SOL    HW2 3758   1.315   4.142   0.784
 1247SOL     OW 3759   1.593   3.945   0.882
 1247SOL    HW1 3760   1.509   3.944   0.936
 1247SOL    HW2 3761   1.595   4.028   0.826
 1248SOL     OW 3762   0.039   4.801   0.300
 1248SOL    HW1 3763   0.138   4.790   0.291
 1248SOL    HW2 3764  -0.001   4.715   0.332
 1249SOL     OW 3765   0.230   4.352   1.975
 1249SOL    HW1 3766   0.137   4.350   2.012
 1249SOL    HW2 3767   0.231   4.313   1.883
 1250SOL     OW 3768   0.225   3.999   2.858
 1250SOL    HW1 3769   0.260   3.982   2.950
 1250SOL    HW2 3770   0.137   3.954   2.846
 1251SOL     OW 3771   0.019   4.092   2.509
 1251SOL    HW1 3772  -0.063   4.135   2.548
 1251SOL    HW2 3773  -0.009   4.019   2.446
 1252SOL     OW 3774   1.135   4.427   2.579
 1252SOL    HW1 3775   1.192   4.505   2.554
 1252SOL    HW2 3776   1.075   4.453   2.655
 1253SOL     OW 3777   1.755   4.331   2.093
 1253SOL    HW1 3778   1.743   4.318   1.994
 1253SOL    HW2 3779   1.725   4.250   2.142
 1254SOL     OW 3780   0.768   4.868   2.885
 1254SOL    HW1 3781   0.690   4.885   2.945
 1254SOL    HW2 3782   0.802   4.955   2.849
 1255SOL     OW 3783   0.850   4.522   3.685
 1255SOL    HW1 3784   0.846   4.598   3.750
 1255SOL    HW2 3785   0.872   4.558   3.594
 1256SOL     OW 3786   0.685   4.736   2.527
 1256SOL    HW1 3787   0.754   4.720   2.597
 1256SOL    HW2 3788   0.612   4.793   2.565
 1257SOL     OW 3789   0.438   4.116   3.361
 1257SOL    HW1 3790   0.520   4.060   3.370
 1257SOL    HW2 3791   0.357   4.058   3.365
 1258SOL     OW 3792   1.603   4.171   2.599
 1258SOL    HW1 3793   1.529   4.217   2.549
 1258SOL    HW2 3794   1.654   4.239   2.652
 1259SOL     OW 3795   0.230   5.158   2.400
 1259SOL    HW1 3796   0.204   5.254   2.400
 1259SOL    HW2 3797   0.159   5.104   2.445
 1260SOL     OW 3798   0.240   4.815   2.748
 1260SOL    HW1 3799   0.254   4.731   2.800
 1260SOL    HW2 3800   0.185   4.879   2.803
 1261SOL     OW 3801   0.606   4.688   1.985
 1261SOL    HW1 3802   0.613   4.772   1.931
 1261SOL    HW2 3803   0.652   4.701   2.073
 1262SOL     OW 3804   1.594   3.838   3.342
 1262SOL    HW1 3805   1.576   3.905   3.270
 1262SOL    HW2 3806   1.591   3.884   3.431
 1263SOL     OW 3807   0.122   4.367   2.425
 1263SOL    HW1 3808   0.077   4.279   2.442
 1263SOL    HW2 3809   0.121   4.421   2.509
 1264SOL     OW 3810   1.689   4.646   2.474
 1264SOL    HW1 3811   1.784   4.617   2.482
 1264SOL    HW2 3812   1.681   4.711   2.399
 1265SOL     OW 3813   0.113   4.461   3.459
 1265SOL    HW1 3814   0.201   4.448   3.504
 1265SOL    HW2 3815   0.100   4.558   3.437
 1266SOL     OW 3816   1.293   4.952   3.285
 1266SOL    HW1 3817   1.330   4.879   3.227
 1266SOL    HW2 3818   1.345   4.957   3.370
 1267SOL     OW 3819   0.809   3.728   2.364
 1267SOL    HW1 3820   0.849   3.819   2.355
 1267SOL    HW2 3821   0.709   3.736   2.370
 1268SOL     OW 3822   0.197   4.700   3.126
 1268SOL    HW1 3823   0.286   4.655   3.112
 1268SOL    HW2 3824   0.124   4.635   3.107
 1269SOL     OW 3825   1.525   4.723   2.052
 1269SOL    HW1 3826   1.462   4.647   2.065
 1269SOL    HW2 3827   1.573   4.741   2.138
 1270SOL     OW 3828   0.317   3.975   3.663
 1270SOL    HW1 3829   0.388   4.046   3.669
 1270SOL    HW2 3830   0.229   4.014   3.691
 1271SOL     OW 3831   0.598   4.453   2.132
 1271SOL    HW1 3832   0.622   4.522   2.064
 1271SOL    HW2 3833   0.520   4.486   2.186
 1272SOL     OW 3834   1.281   4.069   2.806
 1272SOL    HW1 3835   1.195   4.019   2.793
 1272SOL    HW2 3836   1.343   4.015   2.862
 1273SOL     OW 3837   0.807   4.329   3.327
 1273SOL    HW1 3838   0.760   4.326   3.416
 1273SOL    HW2 3839   0.756   4.274   3.261
 1274SOL     OW 3840   1.394   4.193   3.536
 1274SOL    HW1 3841   1.374   4.236   3.624
 1274SOL    HW2 3842   1.472   4.131   3.545
 1275SOL     OW 3843   0.973   4.614   3.434
 1275SOL    HW1 3844   1.019   4.530   3.405
 1275SOL    HW2 3845   0.917   4.648   3.359
 1276SOL     OW 3846   0.991   4.134   3.104
 1276SOL    HW1 3847   0.914   4.168   3.158
 1276SOL    HW2 3848   0.957   4.083   3.025
 1277SOL     OW 3849   1.041   4.425   2.291
 1277SOL    HW1 3850   1.067   4.421   2.387
 1277SOL    HW2 3851   0.956   4.374   2.277
 1278SOL     OW 3852   0.076   4.535   2.651
 1278SOL    HW1 3853   0.175   4.523   2.660
 1278SOL    HW2 3854   0.052   4.630   2.672
 1279SOL     OW 3855   0.865   4.072   2.057
 1279SOL    HW1 3856   0.924   4.135   2.008
 1279SOL    HW2 3857   0.884   3.978   2.028
 1280SOL     OW 3858   1.719   4.309   3.693
 1280SOL    HW1 3859   1.693   4.398   3.657
 1280SOL    HW2 3860   1.717   4.241   3.620
 1281SOL     OW 3861   0.550   3.920   2.747
 1281SOL    HW1 3862   0.545   3.915   2.847
 1281SOL    HW2 3863   0.552   4.016   2.718
 1282SOL     OW 3864   1.795   4.790   2.735
 1282SOL    HW1 3865   1.733   4.775   2.659
 1282SOL    HW2 3866   1.743   4.801   2.820
 1283SOL     OW 3867   0.321   4.667   2.104
 1283SOL    HW1 3868   0.403   4.706   2.062
 1283SOL    HW2 3869   0.294   4.585   2.055
 1284SOL     OW 3870   1.458   4.459   2.590
 1284SOL    HW1 3871   1.453   4.394   2.665
 1284SOL    HW2 3872   1.538   4.518   2.603
 1285SOL     OW 3873   0.202   4.009   3.360
 1285SOL    HW1 3874   0.122   4.069   3.347
 1285SOL    HW2 3875   0.192   3.960   3.446
 1286SOL     OW 3876   1.400   3.831   2.288
 1286SOL    HW1 3877   1.376   3.794   2.198
 1286SOL    HW2 3878   1.499   3.847   2.292
 1287SOL     OW 3879   0.382   4.424   2.342
 1287SOL    HW1 3880   0.427   4.334   2.339
 1287SOL    HW2 3881   0.288   4.413   2.375
 1288SOL     OW 3882   1.547   3.946   3.591
 1288SOL    HW1 3883   1.542   3.983   3.683
 1288SOL    HW2 3884   1.475   3.877   3.579
 1289SOL     OW 3885   0.614   3.846   1.979
 1289SOL    HW1 3886   0.712   3.824   1.986
 1289SOL    HW2 3887   0.583   3.829   1.886
 1290SOL     OW 3888   0.781   3.988   3.611
 1290SOL    HW1 3889   0.848   3.927   3.654
 1290SOL    HW2 3890   0.708   4.007   3.676
 1291SOL     OW 3891   1.351   4.314   3.295
 1291SOL    HW1 3892   1.379   4.271   3.380
 1291SOL    HW2 3893   1.376   4.410   3.296
 1292SOL     OW 3894   0.922   4.227   2.761
 1292SOL    HW1 3895   0.897   4.218   2.665
 1292SOL    HW2 3896   0.970   4.145   2.792
 1293SOL     OW 3897   0.539   3.788   2.374
 1293SOL    HW1 3898   0.458   3.789   2.432
 1293SOL    HW2 3899   0.542   3.871   2.319
 1294SOL     OW 3900   0.297   3.759   2.033
 1294SOL    HW1 3901   0.346   3.843   2.012
 1294SOL    HW2 3902   0.359   3.694   2.078
 1295SOL     OW 3903   0.935   3.960   2.342
 1295SOL    HW1 3904   0.887   4.001   2.264
 1295SOL    HW2 3905   1.034   3.958   2.323
 1296SOL     OW 3906   1.076   4.407   3.326
 1296SOL    HW1 3907   0.996   4.346   3.329
 1296SOL    HW2 3908   1.157   4.354   3.302
 1297SOL     OW 3909   0.459   4.876   2.603
 1297SOL    HW1 3910   0.388   4.849   2.668
 1297SOL    HW2 3911   0.433   4.848   2.510
 1298SOL     OW 3912   1.032   4.273   1.878
 1298SOL    HW1 3913   0.991   4.355   1.839
 1298SOL    HW2 3914   1.096   4.299   1.951
 1299SOL     OW 3915   0.078   4.280   3.248
 1299SOL    HW1 3916   0.170   4.279   3.207
 1299SOL    HW2 3917   0.072   4.354   3.315
 1300SOL     OW 3918   0.561   3.946   3.009
 1300SOL    HW1 3919   0.599   3.862   3.046
 1300SOL    HW2 3920   0.473   3.965   3.053
 1301SOL     OW 3921   0.866   4.178   2.504
 1301SOL    HW1 3922   0.834   4.250   2.442
 1301SOL    HW2 3923   0.890   4.097   2.451
 1302SOL     OW 3924   1.017   3.763   2.615
 1302SOL    HW1 3925   0.945   3.768   2.546
 1302SOL    HW2 3926   0.993   3.694   2.684
 1303SOL     OW 3927   1.429   4.897   2.729
 1303SOL    HW1 3928   1.374   4.813   2.722
 1303SOL    HW2 3929   1.455   4.926   2.637
 1304SOL     OW 3930   1.466   4.314   2.854
 1304SOL    HW1 3931   1.436   4.219   2.861
 1304SOL    HW2 3932   1.539   4.330   2.920
 1305SOL     OW 3933   1.857   4.557   2.239
 1305SOL    HW1 3934   1.899   4.493   2.303
 1305SOL    HW2 3935   1.819   4.506   2.161
 1306SOL     OW 3936   1.390   4.299   1.940
 1306SOL    HW1 3937   1.336   4.278   2.021
 1306SOL    HW2 3938   1.481   4.258   1.949
 1307SOL     OW 3939   0.527   3.980   2.190
 1307SOL    HW1 3940   0.554   3.921   2.115
 1307SOL    HW2 3941   0.527   4.075   2.159
 1308SOL     OW 3942   1.754   4.947   3.450
 1308SOL    HW1 3943   1.845   4.908   3.437
 1308SOL    HW2 3944   1.762   5.043   3.474
 1309SOL     OW 3945   1.638   4.823   2.941
 1309SOL    HW1 3946   1.643   4.904   3.000
 1309SOL    HW2 3947   1.552   4.825   2.890
 1310SOL     OW 3948   0.915   3.813   3.264
 1310SOL    HW1 3949   0.940   3.793   3.169
 1310SOL    HW2 3950   0.987   3.869   3.306
 1311SOL     OW 3951   0.705   4.774   2.230
 1311SOL    HW1 3952   0.691   4.781   2.329
 1311SOL    HW2 3953   0.789   4.723   2.212
 1312SOL     OW 3954   0.410   4.537   3.113
 1312SOL    HW1 3955   0.496   4.549   3.163
 1312SOL    HW2 3956   0.368   4.450   3.140
 1313SOL     OW 3957   1.274   4.110   3.124
 1313SOL    HW1 3958   1.295   4.184   3.188
 1313SOL    HW2 3959   1.185   4.127   3.081
 1314SOL     OW 3960   0.367   4.824   2.363
 1314SOL    HW1 3961   0.360   4.907   2.307
 1314SOL    HW2 3962   0.371   4.744   2.303
 1315SOL     OW 3963   0.566   4.261   2.727
 1315SOL    HW1 3964   0.578   4.327   2.653
 1315SOL    HW2 3965   0.612   4.295   2.810
 1316SOL     OW 3966   1.582   4.363   2.334
 1316SOL    HW1 3967   1.551   4.424   2.407
 1316SOL    HW2 3968   1.632   4.415   2.265
 1317SOL     OW 3969   0.402   4.475   3.460
 1317SOL    HW1 3970   0.470   4.530   3.413
 1317SOL    HW2 3971   0.442   4.387   3.487
 1318SOL     OW 3972   1.587   4.503   3.532
 1318SOL    HW1 3973   1.495   4.541   3.527
 1318SOL    HW2 3974   1.647   4.550   3.467
 1319SOL     OW 3975   1.013   3.829   3.632
 1319SOL    HW1 3976   1.019   3.914   3.580
 1319SOL    HW2 3977   1.045   3.753   3.575
 1320SOL     OW 3978   0.504   3.774   3.602
 1320SOL    HW1 3979   0.462   3.717   3.532
 1320SOL    HW2 3980   0.438   3.843   3.634
 1321SOL     OW 3981   0.573   4.594   2.891
 1321SOL    HW1 3982   0.617   4.683   2.882
 1321SOL    HW2 3983   0.510   4.594   2.968
 1322SOL     OW 3984   1.360   4.586   2.907
 1322SOL    HW1 3985   1.285   4.586   2.841
 1322SOL    HW2 3986   1.397   4.494   2.916
 1323SOL     OW 3987   1.209   4.249   2.137
 1323SOL    HW1 3988   1.222   4.165   2.191
 1323SOL    HW2 3989   1.180   4.323   2.197
 1324SOL     OW 3990   0.307   3.937   3.093
 1324SOL    HW1 3991   0.284   3.974   3.183
 1324SOL    HW2 3992   0.277   3.842   3.087
 1325SOL     OW 3993   0.037   5.034   3.144
 1325SOL    HW1 3994   0.090   4.985   3.212
 1325SOL    HW2 3995   0.059   5.132   3.149
 1326SOL     OW 3996   0.732   4.358   2.926
 1326SOL    HW1 3997   0.791   4.332   2.850
 1326SOL    HW2 3998   0.704   4.454   2.915
 1327SOL     OW 3999   1.728   4.659   3.716
 1327SOL    HW1 4000   1.682   4.652   3.627
 1327SOL    HW2 4001   1.666   4.703   3.782
 1328SOL     OW 4002   0.307   3.787   2.480
 1328SOL    HW1 4003   0.296   3.881   2.513
 1328SOL    HW2 4004   0.302   3.724   2.557
 1329SOL     OW 4005   1.622   4.091   2.236
 1329SOL    HW1 4006   1.624   4.015   2.300
 1329SOL    HW2 4007   1.574   4.168   2.276
 1330SOL     OW 4008   1.023   4.490   2.828
 1330SOL    HW1 4009   1.038   4.511   2.924
 1330SOL    HW2 4010   0.993   4.395   2.819
 1331SOL     OW 4011   0.350   4.622   3.666
 1331SOL    HW1 4012   0.426   4.666   3.714
 1331SOL    HW2 4013   0.385   4.575   3.584
 1332SOL     OW 4014   1.540   3.998   1.987
 1332SOL    HW1 4015   1.479   3.923   2.010
 1332SOL    HW2 4016   1.562   4.050   2.070
 1333SOL     OW 4017   1.303   4.562   1.904
 1333SOL    HW1 4018   1.337   4.469   1.919
 1333SOL    HW2 4019   1.321   4.589   1.809
 1334SOL     OW 4020   0.319   4.534   2.811
 1334SOL    HW1 4021   0.412   4.570   2.816
 1334SOL    HW2 4022   0.313   4.449   2.863
 1335SOL     OW 4023   0.339   4.233   2.868
 1335SOL    HW1 4024   0.287   4.150   2.851
 1335SOL    HW2 4025   0.416   4.238   2.804
 1336SOL     OW 4026   1.138   4.104   3.540
 1336SOL    HW1 4027   1.093   4.167   3.604
 1336SOL    HW2 4028   1.231   4.135   3.523
 1337SOL     OW 4029   1.160   3.931   3.339
 1337SOL    HW1 4030   1.160   3.995   3.416
 1337SOL    HW2 4031   1.188   3.979   3.256
 1338SOL     OW 4032   1.002   4.520   3.100
 1338SOL    HW1 4033   1.043   4.488   3.186
 1338SOL    HW2 4034   0.906   4.493   3.097
 1339SOL     OW 4035   0.040   4.268   2.976
 1339SOL    HW1 4036   0.125   4.235   2.935
 1339SOL    HW2 4037   0.053   4.283   3.074
 1340SOL     OW 4038   0.189   4.244   3.584
 1340SOL    HW1 4039   0.248   4.204   3.514
 1340SOL    HW2 4040   0.131   4.315   3.543
 1341SOL     OW 4041   1.369   4.674   3.522
 1341SOL    HW1 4042   1.408   4.763   3.542
 1341SOL    HW2 4043   1.379   4.654   3.425
 1342SOL     OW 4044   0.815   4.296   2.187
 1342SOL    HW1 4045   0.822   4.207   2.141
 1342SOL    HW2 4046   0.721   4.330   2.179
 1343SOL     OW 4047   1.657   4.328   3.068
 1343SOL    HW1 4048   1.619   4.259   3.130
 1343SOL    HW2 4049   1.739   4.292   3.024
 1344SOL     OW 4050   0.671   4.188   3.131
 1344SOL    HW1 4051   0.637   4.099   3.101
 1344SOL    HW2 4052   0.697   4.242   3.051
 1345SOL     OW 4053   0.473   4.224   2.053
 1345SOL    HW1 4054   0.534   4.304   2.057
 1345SOL    HW2 4055   0.378   4.255   2.060
 1346SOL     OW 4056   0.159   4.861   3.328
 1346SOL    HW1 4057   0.181   4.800   3.404
 1346SOL    HW2 4058   0.169   4.812   3.242
 1347SOL     OW 4059   1.347   4.783   3.096
 1347SOL    HW1 4060   1.371   4.720   3.022
 1347SOL    HW2 4061   1.257   4.823   3.078
 1348SOL     OW 4062   1.302   4.579   2.171
 1348SOL    HW1 4063   1.216   4.548   2.213
 1348SOL    HW2 4064   1.298   4.565   2.072
 1349SOL     OW 4065   0.083   4.982   2.884
 1349SOL    HW1 4066   0.078   4.981   2.984
 1349SOL    HW2 4067   0.000   4.941   2.846
 1350SOL     OW 4068   1.726   3.859   2.385
 1350SOL    HW1 4069   1.799   3.842   2.318
 1350SOL    HW2 4070   1.695   3.772   2.423
 1351SOL     OW 4071   1.280   4.651   2.534
 1351SOL    HW1 4072   1.340   4.570   2.536
 1351SOL    HW2 4073   1.320   4.720   2.474
 1352SOL     OW 4074   1.841   3.899   2.825
 1352SOL    HW1 4075   1.880   3.814   2.789
 1352SOL    HW2 4076   1.743   3.901   2.806
 1353SOL     OW 4077   0.263   4.050   2.582
 1353SOL    HW1 4078   0.184   4.101   2.548
 1353SOL    HW2 4079   0.254   4.035   2.680
 1354SOL     OW 4080   0.822   4.726   3.234
 1354SOL    HW1 4081   0.862   4.725   3.142
 1354SOL    HW2 4082   0.832   4.818   3.274
 1355SOL     OW 4083   0.916   4.634   2.153
 1355SOL    HW1 4084   0.979   4.672   2.085
 1355SOL    HW2 4085   0.956   4.551   2.192
 1356SOL     OW 4086   0.372   5.012   3.352
 1356SOL    HW1 4087   0.359   5.105   3.318
 1356SOL    HW2 4088   0.288   4.960   3.339
 1357SOL     OW 4089   1.014   3.960   2.833
 1357SOL    HW1 4090   1.006   3.924   2.740
 1357SOL    HW2 4091   1.012   3.884   2.898
 1358SOL     OW 4092   1.709   4.109   3.243
 1358SOL    HW1 4093   1.782   4.178   3.247
 1358SOL    HW2 4094   1.737   4.034   3.184
 1359SOL     OW 4095   0.105   4.737   3.588
 1359SOL    HW1 4096   0.028   4.704   3.642
 1359SOL    HW2 4097   0.190   4.707   3.630
 1360SOL     OW 4098   0.672   3.927   3.351
 1360SOL    HW1 4099   0.762   3.911   3.311
 1360SOL    HW2 4100   0.680   3.932   3.450
 1361SOL     OW 4101   0.075   4.069   1.895
 1361SOL    HW1 4102  -0.017   4.041   1.866
 1361SOL    HW2 4103   0.106   4.146   1.839
 1362SOL     OW 4104   1.440   4.580   3.260
 1362SOL    HW1 4105   1.383   4.632   3.197
 1362SOL    HW2 4106   1.536   4.592   3.236
 1363SOL     OW 4107   0.072   3.890   2.180
 1363SOL    HW1 4108   0.055   3.973   2.126
 1363SOL    HW2 4109   0.162   3.853   2.158
 1364SOL     OW 4110   1.183   5.059   1.981
 1364SOL    HW1 4111   1.084   5.048   1.983
 1364SOL    HW2 4112   1.217   5.074   2.074
 1365SOL     OW 4113   0.613   4.566   3.293
 1365SOL    HW1 4114   0.669   4.647   3.276
 1365SOL    HW2 4115   0.672   4.486   3.296
 1366SOL     OW 4116   0.716   4.289   3.570
 1366SOL    HW1 4117   0.735   4.354   3.644
 1366SOL    HW2 4118   0.776   4.209   3.579
 1367SOL     OW 4119   1.674   4.607   3.116
 1367SOL    HW1 4120   1.647   4.518   3.079
 1367SOL    HW2 4121   1.675   4.675   3.043
 1368SOL     OW 4122   1.225   4.049   2.311
 1368SOL    HW1 4123   1.290   3.975   2.300
 1368SOL    HW2 4124   1.245   4.099   2.395
 1369SOL     OW 4125   0.594   4.469   2.514
 1369SOL    HW1 4126   0.644   4.554   2.495
 1369SOL    HW2 4127   0.506   4.471   2.466
 1370SOL     OW 4128   1.777   4.066   3.504
 1370SOL    HW1 4129   1.760   4.097   3.410
 1370SOL    HW2 4130   1.693   4.029   3.542
 1371SOL     OW 4131   1.730   4.658   3.379
 1371SOL    HW1 4132   1.768   4.749   3.394
 1371SOL    HW2 4133   1.722   4.641   3.280
 1372SOL     OW 4134   0.859   4.680   2.723
 1372SOL    HW1 4135   0.913   4.611   2.771
 1372SOL    HW2 4136   0.827   4.749   2.789
 1373SOL     OW 4137   1.083   4.708   1.949
 1373SOL    HW1 4138   1.060   4.761   1.867
 1373SOL    HW2 4139   1.164   4.652   1.930
 1374SOL     OW 4140   1.824   3.916   3.089
 1374SOL    HW1 4141   1.820   3.826   3.133
 1374SOL    HW2 4142   1.827   3.905   2.990
 1375SOL     OW 4143   0.428   4.148   2.382
 1375SOL    HW1 4144   0.458   4.076   2.320
 1375SOL    HW2 4145   0.389   4.108   2.465
 1376SOL     OW 4146   0.317   4.271   3.142
 1376SOL    HW1 4147   0.355   4.212   3.214
 1376SOL    HW2 4148   0.357   4.245   3.054
 1377SOL     OW 4149   1.424   3.938   2.974
 1377SOL    HW1 4150   1.476   3.873   3.029
 1377SOL    HW2 4151   1.375   4.001   3.035
 1378SOL     OW 4152   1.001   3.758   3.016
 1378SOL    HW1 4153   0.938   3.686   2.985
 1378SOL    HW2 4154   1.094   3.722   3.016
 1379SOL     OW 4155   0.770   5.054   2.163
 1379SOL    HW1 4156   0.724   4.967   2.180
 1379SOL    HW2 4157   0.861   5.051   2.204
 1380SOL     OW 4158   1.352   3.776   2.030
 1380SOL    HW1 4159   1.387   3.735   1.946
 1380SOL    HW2 4160   1.262   3.738   2.050
 1381SOL     OW 4161   1.300   4.177   2.553
 1381SOL    HW1 4162   1.241   4.257   2.557
 1381SOL    HW2 4163   1.315   4.142   2.646
 1382SOL     OW 4164   1.593   3.945   2.744
 1382SOL    HW1 4165   1.509   3.944   2.798
 1382SOL    HW2 4166   1.595   4.028   2.688
 1383SOL     OW 4167   0.039   4.801   2.162
 1383SOL    HW1 4168   0.138   4.790   2.153
 1383SOL    HW2 4169  -0.001   4.715   2.194
 1384SOL     OW 4170   0.230   4.352   3.837
 1384SOL    HW1 4171   0.137   4.350   3.874
 1384SOL    HW2 4172   0.231   4.313   3.745
 1385SOL     OW 4173   0.225   3.999   4.720
 1385SOL    HW1 4174   0.260   3.982   4.812
 1385SOL    HW2 4175   0.137   3.954   4.708
 1386SOL     OW 4176   0.019   4.092   4.371
 1386SOL    HW1 4177  -0.063   4.135   4.410
 1386SOL    HW2 4178  -0.009   4.019   4.308
 1387SOL     OW 4179   1.135   4.427   4.441
 1387SOL    HW1 4180   1.192   4.505   4.416
 1387SOL    HW2 4181   1.075   4.453   4.517
 1388SOL     OW 4182   1.755   4.331   3.955
 1388SOL    HW1 4183   1.743   4.318   3.856
 1388SOL    HW2 4184   1.725   4.250   4.004
 1389SOL     OW 4185   0.768   4.868   4.747
 1389SOL    HW1 4186   0.690   4.885   4.807
 1389SOL    HW2 4187   0.802   4.955   4.711
 1390SOL     OW 4188   0.685   4.736   4.389
 1390SOL    HW1 4189   0.754   4.720   4.459
 1390SOL    HW2 4190   0.612   4.793   4.427
 1391SOL     OW 4191   1.603   4.171   4.461
 1391SOL    HW1 4192   1.529   4.217   4.411
 1391SOL    HW2 4193   1.654   4.239   4.514
 1392SOL     OW 4194   0.230   5.158   4.262
 1392SOL    HW1 4195   0.204   5.254   4.262
 1392SOL    HW2 4196   0.159   5.104   4.307
 1393SOL     OW 4197   0.240   4.815   4.610
 1393SOL    HW1 4198   0.254   4.731   4.662
 1393SOL    HW2 4199   0.185   4.879   4.665
 1394SOL     OW 4200   0.606   4.688   3.847
 1394SOL    HW1 4201   0.613   4.772   3.793
 1394SOL    HW2 4202   0.652   4.701   3.935
 1395SOL     OW 4203   0.122   4.367   4.287
 1395SOL    HW1 4204   0.077   4.279   4.304
 1395SOL    HW2 4205   0.121   4.421   4.371
 1396SOL     OW 4206   1.689   4.646   4.336
 1396SOL    HW1 4207   1.784   4.617   4.344
 1396SOL    HW2 4208   1.681   4.711   4.261
 1397SOL     OW 4209   0.809   3.728   4.226
 1397SOL    HW1 4210   0.849   3.819   4.217
 1397SOL    HW2 4211   0.709   3.736   4.232
 1398SOL     OW 4212   0.197   4.700   4.988
 1398SOL    HW1 4213   0.286   4.655   4.974
 1398SOL    HW2 4214   0.124   4.635   4.969
 1399SOL     OW 4215   1.525   4.723   3.914
 1399SOL    HW1 4216   1.462   4.647   3.927
 1399SOL    HW2 4217   1.573   4.741   4.000
 1400SOL     OW 4218   0.598   4.453   3.994
 1400SOL    HW1 4219   0.622   4.522   3.926
 1400SOL    HW2 4220   0.520   4.486   4.048
 1401SOL     OW 4221   1.281   4.069   4.668
 1401SOL    HW1 4222   1.195   4.019   4.655
 1401SOL    HW2 4223   1.343   4.015   4.724
 1402SOL     OW 4224   1.041   4.425   4.153
 1402SOL    HW1 4225   1.067   4.421   4.249
 1402SOL    HW2 4226   0.956   4.374   4.139
 1403SOL     OW 4227   0.076   4.535   4.513
 1403SOL    HW1 4228   0.175   4.523   4.522
 1403SOL    HW2 4229   0.052   4.630   4.534
 1404SOL     OW 4230   0.865   4.072   3.919
 1404SOL    HW1 4231   0.924   4.135   3.870
 1404SOL    HW2 4232   0.884   3.978   3.890
 1405SOL     OW 4233   0.550   3.920   4.609
 1405SOL    HW1 4234   0.545   3.915   4.709
 1405SOL    HW2 4235   0.552   4.016   4.580
 1406SOL     OW 4236   1.795   4.790   4.597
 1406SOL    HW1 4237   1.733   4.775   4.521
 1406SOL    HW2 4238   1.743   4.801   4.682
 1407SOL     OW 4239   0.321   4.667   3.966
 1407SOL    HW1 4240   0.403   4.706   3.924
 1407SOL    HW2 4241   0.294   4.585   3.917
 1408SOL     OW 4242   1.458   4.459   4.452
 1408SOL    HW1 4243   1.453   4.394   4.527
 1408SOL    HW2 4244   1.538   4.518   4.465
 1409SOL     OW 4245   1.400   3.831   4.150
 1409SOL    HW1 4246   1.376   3.794   4.060
 1409SOL    HW2 4247   1.499   3.847   4.154
 1410SOL     OW 4248   0.382   4.424   4.204
 1410SOL    HW1 4249   0.427   4.334   4.201
 1410SOL    HW2 4250   0.288   4.413   4.237
 1411SOL     OW 4251   0.614   3.846   3.841
 1411SOL    HW1 4252   0.712   3.824   3.848
 1411SOL    HW2 4253   0.583   3.829   3.748
 1412SOL     OW 4254   0.922   4.227   4.623
 1412SOL    HW1 4255   0.897   4.218   4.527
 1412SOL    HW2 4256   0.970   4.145   4.654
 1413SOL     OW 4257   0.539   3.788   4.236
 1413SOL    HW1 4258   0.458   3.789   4.294
 1413SOL    HW2 4259   0.542   3.871   4.181
 1414SOL     OW 4260   0.297   3.759   3.895
 1414SOL    HW1 4261   0.346   3.843   3.874
 1414SOL    HW2 4262   0.359   3.694   3.940
 1415SOL     OW 4263   0.935   3.960   4.204
 1415SOL    HW1 4264   0.887   4.001   4.126
 1415SOL    HW2 4265   1.034   3.958   4.185
 1416SOL     OW 4266   0.459   4.876   4.465
 1416SOL    HW1 4267   0.388   4.849   4.530
 1416SOL    HW2 4268   0.433   4.848   4.372
 1417SOL     OW 4269   1.032   4.273   3.740
 1417SOL    HW1 4270   0.991   4.355   3.701
 1417SOL    HW2 4271   1.096   4.299   3.813
 1418SOL     OW 4272   0.866   4.178   4.366
 1418SOL    HW1 4273   0.834   4.250   4.304
 1418SOL    HW2 4274   0.890   4.097   4.313
 1419SOL     OW 4275   1.017   3.763   4.477
 1419SOL    HW1 4276   0.945   3.768   4.408
 1419SOL    HW2 4277   0.993   3.694   4.546
 1420SOL     OW 4278   1.429   4.897   4.591
 1420SOL    HW1 4279   1.374   4.813   4.584
 1420SOL    HW2 4280   1.455   4.926   4.499
 1421SOL     OW 4281   1.466   4.314   4.716
 1421SOL    HW1 4282   1.436   4.219   4.723
 1421SOL    HW2 4283   1.539   4.330   4.782
 1422SOL     OW 4284   1.857   4.557   4.101
 1422SOL    HW1 4285   1.899   4.493   4.165
 1422SOL    HW2 4286   1.819   4.506   4.023
 1423SOL     OW 4287   1.390   4.299   3.802
 1423SOL    HW1 4288   1.336   4.278   3.883
 1423SOL    HW2 4289   1.481   4.258   3.811
 1424SOL     OW 4290   0.527   3.980   4.052
 1424SOL    HW1 4291   0.554   3.921   3.977
 1424SOL    HW2 4292   0.527   4.075   4.021
 1425SOL     OW 4293   1.638   4.823   4.803
 1425SOL    HW1 4294   1.643   4.904   4.862
 1425SOL    HW2 4295   1.552   4.825   4.752
 1426SOL     OW 4296   0.705   4.774   4.092
 1426SOL    HW1 4297   0.691   4.781   4.191
 1426SOL    HW2 4298   0.789   4.723   4.074
 1427SOL     OW 4299   0.410   4.537   4.975
 1427SOL    HW1 4300   0.496   4.549   5.025
 1427SOL    HW2 4301   0.368   4.450   5.002
 1428SOL     OW 4302   0.367   4.824   4.225
 1428SOL    HW1 4303   0.360   4.907   4.169
 1428SOL    HW2 4304   0.371   4.744   4.165
 1429SOL     OW 4305   0.566   4.261   4.589
 1429SOL    HW1 4306   0.578   4.327   4.515
 1429SOL    HW2 4307   0.612   4.295   4.672
 1430SOL     OW 4308   1.582   4.363   4.196
 1430SOL    HW1 4309   1.551   4.424   4.269
 1430SOL    HW2 4310   1.632   4.415   4.127
 1431SOL     OW 4311   0.573   4.594   4.753
 1431SOL    HW1 4312   0.617   4.683   4.744
 1431SOL    HW2 4313   0.510   4.594   4.830
 1432SOL     OW 4314   1.209   4.249   3.999
 1432SOL    HW1 4315   1.222   4.165   4.053
 1432SOL    HW2 4316   1.180   4.323   4.059
 1433SOL     OW 4317   0.307   3.937   4.955
 1433SOL    HW1 4318   0.284   3.974   5.045
 1433SOL    HW2 4319   0.277   3.842   4.949
 1434SOL     OW 4320   0.732   4.358   4.788
 1434SOL    HW1 4321   0.791   4.332   4.712
 1434SOL    HW2 4322   0.704   4.454   4.777
 1435SOL     OW 4323   0.307   3.787   4.342
 1435SOL    HW1 4324   0.296   3.881   4.375
 1435SOL    HW2 4325   0.302   3.724   4.419
 1436SOL     OW 4326   1.622   4.091   4.098
 1436SOL    HW1 4327   1.624   4.015   4.162
 1436SOL    HW2 4328   1.574   4.168   4.138
 1437SOL     OW 4329   1.023   4.490   4.690
 1437SOL    HW1 4330   1.038   4.511   4.786
 1437SOL    HW2 4331   0.993   4.395   4.681
 1438SOL     OW 4332   1.540   3.998   3.849
 1438SOL    HW1 4333   1.479   3.923   3.872
 1438SOL    HW2 4334   1.562   4.050   3.932
 1439SOL     OW 4335   1.303   4.562   3.766
 1439SOL    HW1 4336   1.337   4.469   3.781
 1439SOL    HW2 4337   1.321   4.589   3.671
 1440SOL     OW 4338   0.319   4.534   4.673
 1440SOL    HW1 4339   0.412   4.570   4.678
 1440SOL    HW2 4340   0.313   4.449   4.725
 1441SOL     OW 4341   0.339   4.233   4.730
 1441SOL    HW1 4342   0.287   4.150   4.713
 1441SOL    HW2 4343   0.416   4.238   4.666
 1442SOL     OW 4344   1.002   4.520   4.962
 1442SOL    HW1 4345   1.043   4.488   5.048
 1442SOL    HW2 4346   0.906   4.493   4.959
 1443SOL     OW 4347   0.815   4.296   4.049
 1443SOL    HW1 4348   0.822   4.207   4.003
 1443SOL    HW2 4349   0.721   4.330   4.041
 1444SOL     OW 4350   0.671   4.188   4.993
 1444SOL    HW1 4351   0.637   4.099   4.963
 1444SOL    HW2 4352   0.697   4.242   4.913
 1445SOL     OW 4353   0.473   4.224   3.915
 1445SOL    HW1 4354   0.534   4.304   3.919
 1445SOL    HW2 4355   0.378   4.255   3.922
 1446SOL     OW 4356   1.302   4.579   4.033
 1446SOL    HW1 4357   1.216   4.548   4.075
 1446SOL    HW2 4358   1.298   4.565   3.934
 1447SOL     OW 4359   0.083   4.982   4.746
 1447SOL    HW1 4360   0.078   4.981   4.846
 1447SOL    HW2 4361   0.000   4.941   4.708
 1448SOL     OW 4362   1.726   3.859   4.247
 1448SOL    HW1 4363   1.799   3.842   4.180
 1448SOL    HW2 4364   1.695   3.772   4.285
 1449SOL     OW 4365   1.280   4.651   4.396
 1449SOL    HW1 4366   1.340   4.570   4.398
 1449SOL    HW2 4367   1.320   4.720   4.336
 1450SOL     OW 4368   1.841   3.899   4.687
 1450SOL    HW1 4369   1.880   3.814   4.651
 1450SOL    HW2 4370   1.743   3.901   4.668
 1451SOL     OW 4371   0.263   4.050   4.444
 1451SOL    HW1 4372   0.184   4.101   4.410
 1451SOL    HW2 4373   0.254   4.035   4.542
 1452SOL     OW 4374   0.916   4.634   4.015
 1452SOL    HW1 4375   0.979   4.672   3.947
 1452SOL    HW2 4376   0.956   4.551   4.054
 1453SOL     OW 4377   1.014   3.960   4.695
 1453SOL    HW1 4378   1.006   3.924   4.602
 1453SOL    HW2 4379   1.012   3.884   4.760
 1454SOL     OW 4380   0.075   4.069   3.757
 1454SOL    HW1 4381  -0.017   4.041   3.728
 1454SOL    HW2 4382   0.106   4.146   3.701
 1455SOL     OW 4383   0.072   3.890   4.042
 1455SOL    HW1 4384   0.055   3.973   3.988
 1455SOL    HW2 4385   0.162   3.853   4.020
 1456SOL     OW 4386   1.183   5.059   3.843
 1456SOL    HW1 4387   1.084   5.048   3.845
 1456SOL    HW2 4388   1.217   5.074   3.936
 1457SOL     OW 4389   1.674   4.607   4.978
 1457SOL    HW1 4390   1.647   4.518   4.941
 1457SOL    HW2 4391   1.675   4.675   4.905
 1458SOL     OW 4392   1.225   4.049   4.173
 1458SOL    HW1 4393   1.290   3.975   4.162
 1458SOL    HW2 4394   1.245   4.099   4.257
 1459SOL     OW 4395   0.594   4.469   4.376
 1459SOL    HW1 4396   0.644   4.554   4.357
 1459SOL    HW2 4397   0.506   4.471   4.328
 1460SOL     OW 4398   0.859   4.680   4.585
 1460SOL    HW1 4399   0.913   4.611   4.633
 1460SOL    HW2 4400   0.827   4.749   4.651
 1461SOL     OW 4401   1.083   4.708   3.811
 1461SOL    HW1 4402   1.060   4.761   3.729
 1461SOL    HW2 4403   1.164   4.652   3.792
 1462SOL     OW 4404   1.824   3.916   4.951
 1462SOL    HW1 4405   1.820   3.826   4.995
 1462SOL    HW2 4406   1.827   3.905   4.852
 1463SOL     OW 4407   0.428   4.148   4.244
 1463SOL    HW1 4408   0.458   4.076   4.182
 1463SOL    HW2 4409   0.389   4.108   4.327
 1464SOL     OW 4410   1.424   3.938   4.836
 1464SOL    HW1 4411   1.476   3.873   4.891
 1464SOL    HW2 4412   1.375   4.001   4.897
 1465SOL     OW 4413   0.770   5.054   4.025
 1465SOL    HW1 4414   0.724   4.967   4.042
 1465SOL    HW2 4415   0.861   5.051   4.066
 1466SOL     OW 4416   1.352   3.776   3.892
 1466SOL    HW1 4417   1.387   3.735   3.808
 1466SOL    HW2 4418   1.262   3.738   3.912
 1467SOL     OW 4419   1.300   4.177   4.415
 1467SOL    HW1 4420   1.241   4.257   4.419
 1467SOL    HW2 4421   1.315   4.142   4.508
 1468SOL     OW 4422   1.593   3.945   4.606
 1468SOL    HW1 4423   1.509   3.944   4.660
 1468SOL    HW2 4424   1.595   4.028   4.550
 1469SOL     OW 4425   0.039   4.801   4.024
 1469SOL    HW1 4426   0.138   4.790   4.015
 1469SOL    HW2 4427  -0.001   4.715   4.056
 1470SOL     OW 4428   2.092   0.628   0.113
 1470SOL    HW1 4429   1.999   0.626   0.150
 1470SOL    HW2 4430   2.093   0.589   0.021
 1471SOL     OW 4431   2.087   0.275   0.996
 1471SOL    HW1 4432   2.122   0.258   1.088
 1471SOL    HW2 4433   1.999   0.230   0.984
 1472SOL     OW 4434   1.881   0.368   0.647
 1472SOL    HW1 4435   1.799   0.411   0.686
 1472SOL    HW2 4436   1.853   0.295   0.584
 1473SOL     OW 4437   2.431   1.275   1.165
 1473SOL    HW1 4438   2.338   1.268   1.128
 1473SOL    HW2 4439   2.442   1.364   1.209
 1474SOL     OW 4440   3.417   1.511   0.703
 1474SOL    HW1 4441   3.360   1.495   0.784
 1474SOL    HW2 4442   3.358   1.521   0.623
 1475SOL     OW 4443   2.997   0.703   0.717
 1475SOL    HW1 4444   3.054   0.781   0.692
 1475SOL    HW2 4445   2.937   0.729   0.793
 1476SOL     OW 4446   3.617   0.607   0.231
 1476SOL    HW1 4447   3.605   0.594   0.132
 1476SOL    HW2 4448   3.587   0.526   0.280
 1477SOL     OW 4449   2.630   1.144   1.023
 1477SOL    HW1 4450   2.552   1.161   1.083
 1477SOL    HW2 4451   2.664   1.231   0.987
 1478SOL     OW 4452   2.712   0.798   1.823
 1478SOL    HW1 4453   2.708   0.874   1.888
 1478SOL    HW2 4454   2.734   0.834   1.732
 1479SOL     OW 4455   2.547   1.012   0.665
 1479SOL    HW1 4456   2.616   0.996   0.735
 1479SOL    HW2 4457   2.474   1.069   0.703
 1480SOL     OW 4458   2.548   1.161   1.803
 1480SOL    HW1 4459   2.608   1.240   1.817
 1480SOL    HW2 4460   2.462   1.192   1.762
 1481SOL     OW 4461   2.197   1.435   1.061
 1481SOL    HW1 4462   2.119   1.404   1.008
 1481SOL    HW2 4463   2.255   1.493   1.004
 1482SOL     OW 4464   3.322   1.505   1.339
 1482SOL    HW1 4465   3.346   1.599   1.365
 1482SOL    HW2 4466   3.306   1.451   1.421
 1483SOL     OW 4467   2.300   0.392   1.499
 1483SOL    HW1 4468   2.382   0.336   1.508
 1483SOL    HW2 4469   2.219   0.334   1.503
 1484SOL     OW 4470   3.465   0.447   0.737
 1484SOL    HW1 4471   3.391   0.493   0.687
 1484SOL    HW2 4472   3.516   0.515   0.790
 1485SOL     OW 4473   2.093   1.713   0.483
 1485SOL    HW1 4474   2.127   1.790   0.537
 1485SOL    HW2 4475   2.137   1.713   0.393
 1486SOL     OW 4476   2.989   1.341   1.690
 1486SOL    HW1 4477   3.036   1.341   1.778
 1486SOL    HW2 4478   2.941   1.254   1.679
 1487SOL     OW 4479   2.092   1.434   0.538
 1487SOL    HW1 4480   2.066   1.530   0.538
 1487SOL    HW2 4481   2.021   1.380   0.583
 1488SOL     OW 4482   2.102   1.091   0.886
 1488SOL    HW1 4483   2.116   1.007   0.938
 1488SOL    HW2 4484   2.047   1.155   0.941
 1489SOL     OW 4485   2.482   1.786   1.439
 1489SOL    HW1 4486   2.390   1.769   1.474
 1489SOL    HW2 4487   2.510   1.878   1.465
 1490SOL     OW 4488   2.468   0.964   0.123
 1490SOL    HW1 4489   2.475   1.048   0.069
 1490SOL    HW2 4490   2.514   0.977   0.211
 1491SOL     OW 4491   3.456   0.114   1.480
 1491SOL    HW1 4492   3.438   0.181   1.408
 1491SOL    HW2 4493   3.453   0.160   1.569
 1492SOL     OW 4494   1.984   0.643   0.563
 1492SOL    HW1 4495   1.939   0.555   0.580
 1492SOL    HW2 4496   1.983   0.697   0.647
 1493SOL     OW 4497   3.704   1.767   0.359
 1493SOL    HW1 4498   3.758   1.738   0.439
 1493SOL    HW2 4499   3.734   1.857   0.330
 1494SOL     OW 4500   1.889   1.596   0.117
 1494SOL    HW1 4501   1.870   1.500   0.138
 1494SOL    HW2 4502   1.856   1.654   0.192
 1495SOL     OW 4503   3.551   0.922   0.612
 1495SOL    HW1 4504   3.646   0.893   0.620
 1495SOL    HW2 4505   3.543   0.987   0.537
 1496SOL     OW 4506   3.503   1.108   0.432
 1496SOL    HW1 4507   3.589   1.110   0.380
 1496SOL    HW2 4508   3.517   1.155   0.520
 1497SOL     OW 4509   1.975   0.737   1.597
 1497SOL    HW1 4510   2.063   0.724   1.642
 1497SOL    HW2 4511   1.962   0.834   1.575
 1498SOL     OW 4512   2.475   1.365   0.726
 1498SOL    HW1 4513   2.426   1.278   0.735
 1498SOL    HW2 4514   2.452   1.408   0.639
 1499SOL     OW 4515   3.155   1.228   1.423
 1499SOL    HW1 4516   3.192   1.155   1.365
 1499SOL    HW2 4517   3.207   1.233   1.508
 1500SOL     OW 4518   2.671   0.004   0.502
 1500SOL    HW1 4519   2.711   0.095   0.493
 1500SOL    HW2 4520   2.571   0.012   0.508
 1501SOL     OW 4521   2.059   0.976   1.264
 1501SOL    HW1 4522   2.148   0.931   1.250
 1501SOL    HW2 4523   1.986   0.911   1.245
 1502SOL     OW 4524   3.387   0.999   0.190
 1502SOL    HW1 4525   3.324   0.923   0.203
 1502SOL    HW2 4526   3.435   1.017   0.276
 1503SOL     OW 4527   3.049   1.792   1.616
 1503SOL    HW1 4528   3.073   1.852   1.540
 1503SOL    HW2 4529   3.056   1.697   1.586
 1504SOL     OW 4530   2.179   0.251   1.801
 1504SOL    HW1 4531   2.250   0.322   1.807
 1504SOL    HW2 4532   2.091   0.290   1.829
 1505SOL     OW 4533   3.328   1.417   0.953
 1505SOL    HW1 4534   3.269   1.423   1.033
 1505SOL    HW2 4535   3.313   1.329   0.907
 1506SOL     OW 4536   3.529   1.714   0.572
 1506SOL    HW1 4537   3.488   1.691   0.484
 1506SOL    HW2 4538   3.511   1.640   0.637
 1507SOL     OW 4539   2.460   0.729   0.270
 1507SOL    HW1 4540   2.484   0.798   0.202
 1507SOL    HW2 4541   2.382   0.762   0.324
 1508SOL     OW 4542   3.143   0.345   0.944
 1508SOL    HW1 4543   3.057   0.295   0.931
 1508SOL    HW2 4544   3.205   0.291   1.000
 1509SOL     OW 4545   3.438   1.662   0.307
 1509SOL    HW1 4546   3.527   1.708   0.310
 1509SOL    HW2 4547   3.417   1.638   0.212
 1510SOL     OW 4548   2.669   0.605   1.465
 1510SOL    HW1 4549   2.622   0.602   1.554
 1510SOL    HW2 4550   2.618   0.550   1.399
 1511SOL     OW 4551   3.256   0.469   1.674
 1511SOL    HW1 4552   3.236   0.512   1.762
 1511SOL    HW2 4553   3.334   0.407   1.683
 1512SOL     OW 4554   2.835   0.890   1.572
 1512SOL    HW1 4555   2.881   0.806   1.543
 1512SOL    HW2 4556   2.779   0.924   1.497
 1513SOL     OW 4557   2.853   0.410   1.242
 1513SOL    HW1 4558   2.776   0.444   1.296
 1513SOL    HW2 4559   2.819   0.359   1.163
 1514SOL     OW 4560   2.903   0.701   0.429
 1514SOL    HW1 4561   2.929   0.697   0.525
 1514SOL    HW2 4562   2.818   0.650   0.415
 1515SOL     OW 4563   1.938   0.811   0.789
 1515SOL    HW1 4564   2.037   0.799   0.798
 1515SOL    HW2 4565   1.914   0.906   0.810
 1516SOL     OW 4566   1.992   1.821   1.571
 1516SOL    HW1 4567   1.982   1.806   1.670
 1516SOL    HW2 4568   1.906   1.857   1.535
 1517SOL     OW 4569   2.727   0.348   0.195
 1517SOL    HW1 4570   2.786   0.411   0.146
 1517SOL    HW2 4571   2.746   0.254   0.166
 1518SOL     OW 4572   3.581   0.585   1.831
 1518SOL    HW1 4573   3.555   0.674   1.795
 1518SOL    HW2 4574   3.579   0.517   1.758
 1519SOL     OW 4575   3.224   1.144   0.545
 1519SOL    HW1 4576   3.307   1.115   0.497
 1519SOL    HW2 4577   3.175   1.211   0.489
 1520SOL     OW 4578   2.412   0.196   0.885
 1520SOL    HW1 4579   2.407   0.191   0.985
 1520SOL    HW2 4580   2.414   0.292   0.856
 1521SOL     OW 4581   2.870   1.456   0.477
 1521SOL    HW1 4582   2.824   1.528   0.425
 1521SOL    HW2 4583   2.866   1.476   0.575
 1522SOL     OW 4584   2.213   1.801   0.853
 1522SOL    HW1 4585   2.263   1.715   0.859
 1522SOL    HW2 4586   2.278   1.878   0.850
 1523SOL     OW 4587   3.657   1.066   0.873
 1523SOL    HW1 4588   3.595   1.051   0.797
 1523SOL    HW2 4589   3.605   1.077   0.958
 1524SOL     OW 4590   3.089   1.550   1.506
 1524SOL    HW1 4591   3.095   1.473   1.570
 1524SOL    HW2 4592   3.037   1.524   1.426
 1525SOL     OW 4593   2.183   0.943   0.242
 1525SOL    HW1 4594   2.265   0.982   0.200
 1525SOL    HW2 4595   2.156   0.861   0.193
 1526SOL     OW 4596   3.320   0.735   0.728
 1526SOL    HW1 4597   3.315   0.670   0.803
 1526SOL    HW2 4598   3.400   0.794   0.741
 1527SOL     OW 4599   2.323   1.266   1.727
 1527SOL    HW1 4600   2.273   1.267   1.641
 1527SOL    HW2 4601   2.260   1.248   1.803
 1528SOL     OW 4602   2.973   1.776   0.237
 1528SOL    HW1 4603   2.913   1.714   0.287
 1528SOL    HW2 4604   3.004   1.732   0.152
 1529SOL     OW 4605   2.064   0.285   1.498
 1529SOL    HW1 4606   1.984   0.345   1.485
 1529SOL    HW2 4607   2.054   0.236   1.584
 1530SOL     OW 4608   3.494   1.377   0.081
 1530SOL    HW1 4609   3.462   1.471   0.071
 1530SOL    HW2 4610   3.418   1.314   0.069
 1531SOL     OW 4611   2.326   1.743   0.323
 1531SOL    HW1 4612   2.359   1.782   0.409
 1531SOL    HW2 4613   2.402   1.736   0.258
 1532SOL     OW 4614   3.262   0.107   0.426
 1532SOL    HW1 4615   3.238   0.070   0.336
 1532SOL    HW2 4616   3.361   0.123   0.430
 1533SOL     OW 4617   2.111   1.785   1.241
 1533SOL    HW1 4618   2.168   1.720   1.291
 1533SOL    HW2 4619   2.095   1.752   1.148
 1534SOL     OW 4620   2.802   1.698   0.904
 1534SOL    HW1 4621   2.882   1.641   0.925
 1534SOL    HW2 4622   2.753   1.658   0.827
 1535SOL     OW 4623   2.244   0.700   0.480
 1535SOL    HW1 4624   2.289   0.610   0.477
 1535SOL    HW2 4625   2.150   0.689   0.513
 1536SOL     OW 4626   3.409   0.222   1.729
 1536SOL    HW1 4627   3.404   0.259   1.821
 1536SOL    HW2 4628   3.337   0.153   1.717
 1537SOL     OW 4629   2.476   0.122   0.117
 1537SOL    HW1 4630   2.574   0.100   0.124
 1537SOL    HW2 4631   2.445   0.105   0.024
 1538SOL     OW 4632   2.643   0.264   1.749
 1538SOL    HW1 4633   2.710   0.203   1.792
 1538SOL    HW2 4634   2.570   0.283   1.814
 1539SOL     OW 4635   2.750   1.514   1.195
 1539SOL    HW1 4636   2.727   1.489   1.101
 1539SOL    HW2 4637   2.811   1.445   1.234
 1540SOL     OW 4638   3.213   0.590   1.433
 1540SOL    HW1 4639   3.241   0.547   1.518
 1540SOL    HW2 4640   3.238   0.686   1.434
 1541SOL     OW 4641   2.665   1.402   0.924
 1541SOL    HW1 4642   2.755   1.416   0.882
 1541SOL    HW2 4643   2.594   1.404   0.853
 1542SOL     OW 4644   2.784   0.503   0.899
 1542SOL    HW1 4645   2.759   0.494   0.803
 1542SOL    HW2 4646   2.832   0.421   0.930
 1543SOL     OW 4647   2.401   0.064   0.512
 1543SOL    HW1 4648   2.320   0.065   0.570
 1543SOL    HW2 4649   2.404   0.147   0.457
 1544SOL     OW 4650   3.296   1.188   0.041
 1544SOL    HW1 4651   3.328   1.112   0.098
 1544SOL    HW2 4652   3.204   1.215   0.071
 1545SOL     OW 4653   2.159   0.035   0.171
 1545SOL    HW1 4654   2.208   0.119   0.150
 1545SOL    HW2 4655   2.221  -0.030   0.216
 1546SOL     OW 4656   2.797   0.236   0.480
 1546SOL    HW1 4657   2.749   0.277   0.402
 1546SOL    HW2 4658   2.896   0.234   0.461
 1547SOL     OW 4659   2.938   0.683   1.464
 1547SOL    HW1 4660   2.858   0.622   1.467
 1547SOL    HW2 4661   3.019   0.630   1.440
 1548SOL     OW 4662   3.089   1.570   0.793
 1548SOL    HW1 4663   3.110   1.644   0.728
 1548SOL    HW2 4664   3.157   1.570   0.866
 1549SOL     OW 4665   2.321   1.152   0.741
 1549SOL    HW1 4666   2.250   1.125   0.806
 1549SOL    HW2 4667   2.295   1.124   0.648
 1550SOL     OW 4668   3.133   1.797   0.591
 1550SOL    HW1 4669   3.177   1.861   0.527
 1550SOL    HW2 4670   3.083   1.849   0.661
 1551SOL     OW 4671   2.894   0.549   0.016
 1551SOL    HW1 4672   2.853   0.631  -0.023
 1551SOL    HW2 4673   2.958   0.575   0.089
 1552SOL     OW 4674   1.940   0.556   1.386
 1552SOL    HW1 4675   2.032   0.555   1.345
 1552SOL    HW2 4676   1.934   0.630   1.453
 1553SOL     OW 4677   2.423   0.222   1.147
 1553SOL    HW1 4678   2.461   0.138   1.184
 1553SOL    HW2 4679   2.335   0.241   1.191
 1554SOL     OW 4680   2.728   0.454   0.642
 1554SOL    HW1 4681   2.696   0.526   0.580
 1554SOL    HW2 4682   2.752   0.373   0.589
 1555SOL     OW 4683   2.879   0.039   0.753
 1555SOL    HW1 4684   2.807   0.044   0.684
 1555SOL    HW2 4685   2.855  -0.030   0.822
 1556SOL     OW 4686   3.291   1.173   0.867
 1556SOL    HW1 4687   3.236   1.089   0.860
 1556SOL    HW2 4688   3.317   1.202   0.775
 1557SOL     OW 4689   3.328   0.590   0.992
 1557SOL    HW1 4690   3.298   0.495   0.999
 1557SOL    HW2 4691   3.401   0.606   1.058
 1558SOL     OW 4692   3.719   0.833   0.377
 1558SOL    HW1 4693   3.761   0.769   0.441
 1558SOL    HW2 4694   3.681   0.782   0.299
 1559SOL     OW 4695   2.350   1.385   0.174
 1559SOL    HW1 4696   2.263   1.370   0.221
 1559SOL    HW2 4697   2.333   1.411   0.079
 1560SOL     OW 4698   3.526   1.280   0.657
 1560SOL    HW1 4699   3.625   1.288   0.671
 1560SOL    HW2 4700   3.481   1.364   0.688
 1561SOL     OW 4701   3.252   0.575   0.078
 1561SOL    HW1 4702   3.198   0.554   0.159
 1561SOL    HW2 4703   3.343   0.534   0.087
 1562SOL     OW 4704   2.389   0.256   0.328
 1562SOL    HW1 4705   2.416   0.197   0.253
 1562SOL    HW2 4706   2.389   0.351   0.297
 1563SOL     OW 4707   3.616   1.223   1.588
 1563SOL    HW1 4708   3.707   1.184   1.575
 1563SOL    HW2 4709   3.624   1.319   1.612
 1564SOL     OW 4710   2.926   1.347   1.340
 1564SOL    HW1 4711   2.846   1.324   1.395
 1564SOL    HW2 4712   3.009   1.321   1.389
 1565SOL     OW 4713   3.454   1.629   1.625
 1565SOL    HW1 4714   3.481   1.663   1.535
 1565SOL    HW2 4715   3.533   1.591   1.671
 1566SOL     OW 4716   2.973   1.195   1.100
 1566SOL    HW1 4717   2.933   1.239   1.181
 1566SOL    HW2 4718   2.932   1.232   1.017
 1567SOL     OW 4719   3.500   1.099   1.079
 1567SOL    HW1 4720   3.505   1.180   1.138
 1567SOL    HW2 4721   3.414   1.101   1.028
 1568SOL     OW 4722   2.777   0.089   1.402
 1568SOL    HW1 4723   2.802   0.069   1.307
 1568SOL    HW2 4724   2.849   0.145   1.444
 1569SOL     OW 4725   2.842   1.116   1.719
 1569SOL    HW1 4726   2.743   1.122   1.729
 1569SOL    HW2 4727   2.865   1.036   1.663
 1570SOL     OW 4728   2.567   1.050   0.368
 1570SOL    HW1 4729   2.553   1.057   0.467
 1570SOL    HW2 4730   2.651   0.999   0.350
 1571SOL     OW 4731   2.272   0.813   1.251
 1571SOL    HW1 4732   2.358   0.825   1.301
 1571SOL    HW2 4733   2.230   0.726   1.278
 1572SOL     OW 4734   3.136   0.386   1.262
 1572SOL    HW1 4735   3.157   0.460   1.326
 1572SOL    HW2 4736   3.047   0.403   1.219
 1573SOL     OW 4737   1.926   1.564   1.331
 1573SOL    HW1 4738   1.880   1.646   1.297
 1573SOL    HW2 4739   2.024   1.583   1.340
 1574SOL     OW 4740   2.229   1.100   0.501
 1574SOL    HW1 4741   2.222   1.183   0.445
 1574SOL    HW2 4742   2.233   1.020   0.441
 1575SOL     OW 4743   2.428   0.537   0.865
 1575SOL    HW1 4744   2.440   0.603   0.791
 1575SOL    HW2 4745   2.474   0.571   0.948
 1576SOL     OW 4746   3.114   1.348   0.388
 1576SOL    HW1 4747   3.164   1.425   0.428
 1576SOL    HW2 4748   3.019   1.350   0.420
 1577SOL     OW 4749   3.134   1.445   1.142
 1577SOL    HW1 4750   3.181   1.458   1.229
 1577SOL    HW2 4751   3.068   1.371   1.151
 1578SOL     OW 4752   3.444   0.639   0.472
 1578SOL    HW1 4753   3.413   0.700   0.545
 1578SOL    HW2 4754   3.494   0.691   0.403
 1579SOL     OW 4755   2.216   1.510   1.329
 1579SOL    HW1 4756   2.195   1.466   1.242
 1579SOL    HW2 4757   2.313   1.536   1.332
 1580SOL     OW 4758   2.264   0.751   1.598
 1580SOL    HW1 4759   2.332   0.806   1.551
 1580SOL    HW2 4760   2.304   0.663   1.625
 1581SOL     OW 4761   3.449   0.779   1.670
 1581SOL    HW1 4762   3.357   0.817   1.665
 1581SOL    HW2 4763   3.509   0.826   1.605
 1582SOL     OW 4764   2.875   0.105   1.770
 1582SOL    HW1 4765   2.881   0.190   1.718
 1582SOL    HW2 4766   2.907   0.029   1.713
 1583SOL     OW 4767   2.366   0.050   1.740
 1583SOL    HW1 4768   2.324  -0.007   1.670
 1583SOL    HW2 4769   2.300   0.119   1.772
 1584SOL     OW 4770   2.435   0.870   1.029
 1584SOL    HW1 4771   2.479   0.959   1.020
 1584SOL    HW2 4772   2.372   0.870   1.106
 1585SOL     OW 4773   3.222   0.862   1.045
 1585SOL    HW1 4774   3.147   0.862   0.979
 1585SOL    HW2 4775   3.259   0.770   1.054
 1586SOL     OW 4776   3.071   0.525   0.275
 1586SOL    HW1 4777   3.084   0.441   0.329
 1586SOL    HW2 4778   3.042   0.599   0.335
 1587SOL     OW 4779   2.169   0.213   1.231
 1587SOL    HW1 4780   2.146   0.250   1.321
 1587SOL    HW2 4781   2.139   0.118   1.225
 1588SOL     OW 4782   1.899   1.310   1.282
 1588SOL    HW1 4783   1.952   1.261   1.350
 1588SOL    HW2 4784   1.921   1.408   1.287
 1589SOL     OW 4785   2.594   0.634   1.064
 1589SOL    HW1 4786   2.653   0.608   0.988
 1589SOL    HW2 4787   2.566   0.730   1.053
 1590SOL     OW 4788   3.590   0.935   1.854
 1590SOL    HW1 4789   3.544   0.928   1.765
 1590SOL    HW2 4790   3.528   0.979   1.920
 1591SOL     OW 4791   2.169   0.063   0.618
 1591SOL    HW1 4792   2.158   0.157   0.651
 1591SOL    HW2 4793   2.164   0.000   0.695
 1592SOL     OW 4794   3.484   0.367   0.374
 1592SOL    HW1 4795   3.486   0.291   0.438
 1592SOL    HW2 4796   3.436   0.444   0.414
 1593SOL     OW 4797   2.885   0.766   0.966
 1593SOL    HW1 4798   2.900   0.787   1.062
 1593SOL    HW2 4799   2.855   0.671   0.957
 1594SOL     OW 4800   2.842   1.573   1.700
 1594SOL    HW1 4801   2.822   1.617   1.612
 1594SOL    HW2 4802   2.881   1.482   1.684
 1595SOL     OW 4803   3.721   1.518   1.605
 1595SOL    HW1 4804   3.735   1.545   1.510
 1595SOL    HW2 4805   3.804   1.540   1.658
 1596SOL     OW 4806   2.212   0.898   1.804
 1596SOL    HW1 4807   2.288   0.942   1.852
 1596SOL    HW2 4808   2.247   0.851   1.722
 1597SOL     OW 4809   3.402   0.274   0.125
 1597SOL    HW1 4810   3.341   0.199   0.148
 1597SOL    HW2 4811   3.424   0.326   0.208
 1598SOL     OW 4812   3.165   0.838   0.042
 1598SOL    HW1 4813   3.199   0.745   0.057
 1598SOL    HW2 4814   3.183   0.865  -0.053
 1599SOL     OW 4815   2.930   1.333   0.849
 1599SOL    HW1 4816   2.937   1.249   0.794
 1599SOL    HW2 4817   2.992   1.402   0.813
 1600SOL     OW 4818   2.181   0.810   0.949
 1600SOL    HW1 4819   2.274   0.846   0.954
 1600SOL    HW2 4820   2.175   0.725   1.001
 1601SOL     OW 4821   2.201   0.509   1.006
 1601SOL    HW1 4822   2.149   0.426   0.989
 1601SOL    HW2 4823   2.278   0.514   0.942
 1602SOL     OW 4824   3.000   0.380   1.678
 1602SOL    HW1 4825   2.955   0.443   1.742
 1602SOL    HW2 4826   3.093   0.411   1.661
 1603SOL     OW 4827   3.022   0.207   1.477
 1603SOL    HW1 4828   3.022   0.271   1.554
 1603SOL    HW2 4829   3.050   0.255   1.394
 1604SOL     OW 4830   1.870   1.326   0.200
 1604SOL    HW1 4831   1.777   1.347   0.169
 1604SOL    HW2 4832   1.880   1.227   0.213
 1605SOL     OW 4833   1.950   1.801   0.927
 1605SOL    HW1 4834   1.908   1.715   0.900
 1605SOL    HW2 4835   2.044   1.804   0.893
 1606SOL     OW 4836   2.366   1.568   0.910
 1606SOL    HW1 4837   2.432   1.642   0.919
 1606SOL    HW2 4838   2.410   1.489   0.868
 1607SOL     OW 4839   2.864   0.796   1.238
 1607SOL    HW1 4840   2.905   0.764   1.324
 1607SOL    HW2 4841   2.768   0.769   1.235
 1608SOL     OW 4842   1.902   0.544   1.114
 1608SOL    HW1 4843   1.987   0.511   1.073
 1608SOL    HW2 4844   1.915   0.559   1.212
 1609SOL     OW 4845   2.051   0.520   1.722
 1609SOL    HW1 4846   2.110   0.480   1.652
 1609SOL    HW2 4847   1.993   0.591   1.681
 1610SOL     OW 4848   3.231   0.950   1.660
 1610SOL    HW1 4849   3.270   1.039   1.680
 1610SOL    HW2 4850   3.241   0.930   1.563
 1611SOL     OW 4851   2.677   0.572   0.325
 1611SOL    HW1 4852   2.684   0.483   0.279
 1611SOL    HW2 4853   2.583   0.606   0.317
 1612SOL     OW 4854   3.519   0.604   1.206
 1612SOL    HW1 4855   3.481   0.535   1.268
 1612SOL    HW2 4856   3.601   0.568   1.162
 1613SOL     OW 4857   2.114   1.564   1.744
 1613SOL    HW1 4858   2.084   1.621   1.820
 1613SOL    HW2 4859   2.107   1.467   1.770
 1614SOL     OW 4860   2.533   0.464   1.269
 1614SOL    HW1 4861   2.499   0.375   1.239
 1614SOL    HW2 4862   2.559   0.518   1.189
 1615SOL     OW 4863   2.792   1.678   1.465
 1615SOL    HW1 4864   2.768   1.660   1.370
 1615SOL    HW2 4865   2.822   1.772   1.475
 1616SOL     OW 4866   2.335   0.500   0.191
 1616SOL    HW1 4867   2.396   0.580   0.195
 1616SOL    HW2 4868   2.240   0.531   0.198
 1617SOL     OW 4869   2.021   1.137   1.466
 1617SOL    HW1 4870   2.043   1.076   1.542
 1617SOL    HW2 4871   2.031   1.088   1.380
 1618SOL     OW 4872   3.209   1.059   1.234
 1618SOL    HW1 4873   3.233   0.996   1.160
 1618SOL    HW2 4874   3.119   1.099   1.216
 1619SOL     OW 4875   3.164   0.855   0.309
 1619SOL    HW1 4876   3.078   0.824   0.351
 1619SOL    HW2 4877   3.160   0.841   0.210
 1620SOL     OW 4878   3.621   1.747   1.154
 1620SOL    HW1 4879   3.682   1.777   1.081
 1620SOL    HW2 4880   3.583   1.658   1.132
 1621SOL     OW 4881   3.114   1.731   1.128
 1621SOL    HW1 4882   3.198   1.736   1.074
 1621SOL    HW2 4883   3.091   1.635   1.146
 1622SOL     OW 4884   1.945   1.258   1.022
 1622SOL    HW1 4885   1.940   1.257   1.122
 1622SOL    HW2 4886   1.862   1.217   0.984
 1623SOL     OW 4887   2.550   1.662   1.716
 1623SOL    HW1 4888   2.494   1.743   1.725
 1623SOL    HW2 4889   2.602   1.666   1.630
 1624SOL     OW 4890   2.765   0.086   0.133
 1624SOL    HW1 4891   2.816   0.087   0.047
 1624SOL    HW2 4892   2.821   0.044   0.204
 1625SOL     OW 4893   3.588   0.135   0.523
 1625SOL    HW1 4894   3.661   0.118   0.456
 1625SOL    HW2 4895   3.557   0.048   0.561
 1626SOL     OW 4896   3.250   1.573   0.477
 1626SOL    HW1 4897   3.317   1.585   0.403
 1626SOL    HW2 4898   3.210   1.662   0.500
 1627SOL     OW 4899   1.992   1.794   1.851
 1627SOL    HW1 4900   1.951   1.720   1.904
 1627SOL    HW2 4901   2.056   1.845   1.909
 1628SOL     OW 4902   3.142   0.927   0.672
 1628SOL    HW1 4903   3.202   0.846   0.674
 1628SOL    HW2 4904   3.182   0.996   0.612
 1629SOL     OW 4905   2.692   1.273   1.422
 1629SOL    HW1 4906   2.687   1.306   1.517
 1629SOL    HW2 4907   2.606   1.292   1.376
 1630SOL     OW 4908   2.534   1.616   0.154
 1630SOL    HW1 4909   2.543   1.626   0.055
 1630SOL    HW2 4910   2.494   1.527   0.175
 1631SOL     OW 4911   3.512   1.720   1.394
 1631SOL    HW1 4912   3.565   1.730   1.310
 1631SOL    HW2 4913   3.485   1.810   1.428
 1632SOL     OW 4914   3.703   0.175   0.963
 1632SOL    HW1 4915   3.742   0.090   0.927
 1632SOL    HW2 4916   3.605   0.177   0.944
 1633SOL     OW 4917   2.125   0.326   0.720
 1633SOL    HW1 4918   2.046   0.377   0.686
 1633SOL    HW2 4919   2.116   0.311   0.818
 1634SOL     OW 4920   3.056   1.612   0.031
 1634SOL    HW1 4921   3.062   1.519   0.068
 1634SOL    HW2 4922   2.997   1.612  -0.049
 1635SOL     OW 4923   2.684   1.002   1.372
 1635SOL    HW1 4924   2.724   1.001   1.280
 1635SOL    HW2 4925   2.694   1.094   1.412
 1636SOL     OW 4926   2.778   0.910   0.291
 1636SOL    HW1 4927   2.841   0.948   0.223
 1636SOL    HW2 4928   2.818   0.827   0.330
 1637SOL     OW 4929   3.366   1.607   0.044
 1637SOL    HW1 4930   3.274   1.644   0.051
 1637SOL    HW2 4931   3.404   1.627  -0.046
 1638SOL     OW 4932   2.234   1.288   1.490
 1638SOL    HW1 4933   2.221   1.381   1.456
 1638SOL    HW2 4934   2.150   1.236   1.477
 1639SOL     OW 4935   3.476   1.292   1.289
 1639SOL    HW1 4936   3.536   1.295   1.369
 1639SOL    HW2 4937   3.401   1.356   1.302
 1640SOL     OW 4938   2.901   1.098   0.696
 1640SOL    HW1 4939   2.831   1.051   0.750
 1640SOL    HW2 4940   2.960   1.030   0.653
 1641SOL     OW 4941   2.876   0.236   0.971
 1641SOL    HW1 4942   2.868   0.200   0.878
 1641SOL    HW2 4943   2.874   0.160   1.036
 1642SOL     OW 4944   2.452   1.487   0.491
 1642SOL    HW1 4945   2.494   1.429   0.421
 1642SOL    HW2 4946   2.408   1.566   0.447
 1643SOL     OW 4947   3.571   0.385   1.381
 1643SOL    HW1 4948   3.644   0.454   1.385
 1643SOL    HW2 4949   3.599   0.310   1.322
 1644SOL     OW 4950   2.117   1.348   0.290
 1644SOL    HW1 4951   2.021   1.349   0.263
 1644SOL    HW2 4952   2.129   1.401   0.374
 1645SOL     OW 4953   1.967   1.013   1.726
 1645SOL    HW1 4954   1.890   0.980   1.780
 1645SOL    HW2 4955   2.052   0.983   1.768
 1646SOL     OW 4956   2.534   0.203   1.489
 1646SOL    HW1 4957   2.624   0.187   1.449
 1646SOL    HW2 4958   2.542   0.208   1.588
 1647SOL     OW 4959   3.302   0.856   1.398
 1647SOL    HW1 4960   3.245   0.908   1.335
 1647SOL    HW2 4961   3.398   0.868   1.374
 1648SOL     OW 4962   1.934   0.166   0.318
 1648SOL    HW1 4963   1.917   0.249   0.264
 1648SOL    HW2 4964   2.024   0.129   0.296
 1649SOL     OW 4965   3.045   1.335   0.119
 1649SOL    HW1 4966   2.946   1.324   0.121
 1649SOL    HW2 4967   3.079   1.350   0.212
 1650SOL     OW 4968   2.475   0.842   1.431
 1650SOL    HW1 4969   2.531   0.923   1.414
 1650SOL    HW2 4970   2.534   0.762   1.434
 1651SOL     OW 4971   3.355   1.767   0.959
 1651SOL    HW1 4972   3.388   1.831   0.890
 1651SOL    HW2 4973   3.421   1.761   1.034
 1652SOL     OW 4974   2.578   0.565   1.708
 1652SOL    HW1 4975   2.597   0.630   1.782
 1652SOL    HW2 4976   2.638   0.485   1.717
 1653SOL     OW 4977   3.312   1.220   1.633
 1653SOL    HW1 4978   3.303   1.210   1.732
 1653SOL    HW2 4979   3.408   1.213   1.607
 1654SOL     OW 4980   2.252   1.741   1.560
 1654SOL    HW1 4981   2.161   1.782   1.558
 1654SOL    HW2 4982   2.245   1.647   1.592
 1655SOL     OW 4983   3.536   0.883   1.254
 1655SOL    HW1 4984   3.509   0.794   1.217
 1655SOL    HW2 4985   3.537   0.951   1.181
 1656SOL     OW 4986   3.087   0.325   0.449
 1656SOL    HW1 4987   3.152   0.251   0.438
 1656SOL    HW2 4988   3.107   0.375   0.533
 1657SOL     OW 4989   2.456   0.745   0.652
 1657SOL    HW1 4990   2.506   0.830   0.633
 1657SOL    HW2 4991   2.368   0.747   0.604
 1658SOL     OW 4992   3.639   0.342   1.642
 1658SOL    HW1 4993   3.622   0.373   1.548
 1658SOL    HW2 4994   3.555   0.305   1.680
 1659SOL     OW 4995   3.592   0.934   1.517
 1659SOL    HW1 4996   3.630   1.025   1.532
 1659SOL    HW2 4997   3.584   0.917   1.418
 1660SOL     OW 4998   2.721   1.374   0.016
 1660SOL    HW1 4999   2.675   1.389   0.104
 1660SOL    HW2 5000   2.765   1.459  -0.014
 1661SOL     OW 5001   2.523   1.790   0.953
 1661SOL    HW1 5002   2.477   1.878   0.940
 1661SOL    HW2 5003   2.622   1.802   0.946
 1662SOL     OW 5004   2.721   0.956   0.861
 1662SOL    HW1 5005   2.775   0.887   0.909
 1662SOL    HW2 5006   2.689   1.025   0.927
 1663SOL     OW 5007   2.945   0.984   0.087
 1663SOL    HW1 5008   2.922   1.037   0.005
 1663SOL    HW2 5009   3.026   0.928   0.068
 1664SOL     OW 5010   3.723   1.569   0.851
 1664SOL    HW1 5011   3.652   1.557   0.781
 1664SOL    HW2 5012   3.724   1.490   0.911
 1665SOL     OW 5013   2.083   1.314   1.844
 1665SOL    HW1 5014   2.018   1.241   1.823
 1665SOL    HW2 5015   2.087   1.328   1.942
 1666SOL     OW 5016   1.941   1.240   0.653
 1666SOL    HW1 5017   1.940   1.193   0.741
 1666SOL    HW2 5018   2.023   1.212   0.602
 1667SOL     OW 5019   2.534   1.391   1.624
 1667SOL    HW1 5020   2.456   1.341   1.662
 1667SOL    HW2 5021   2.531   1.486   1.655
 1668SOL     OW 5022   3.686   0.192   1.227
 1668SOL    HW1 5023   3.682   0.102   1.271
 1668SOL    HW2 5024   3.689   0.181   1.128
 1669SOL     OW 5025   2.290   0.424   0.520
 1669SOL    HW1 5026   2.320   0.352   0.458
 1669SOL    HW2 5027   2.251   0.384   0.603
 1670SOL     OW 5028   3.567   1.487   1.104
 1670SOL    HW1 5029   3.474   1.462   1.077
 1670SOL    HW2 5030   3.593   1.437   1.186
 1671SOL     OW 5031   2.179   0.547   1.280
 1671SOL    HW1 5032   2.217   0.488   1.352
 1671SOL    HW2 5033   2.219   0.521   1.192
 1672SOL     OW 5034   2.674   1.586   0.687
 1672SOL    HW1 5035   2.706   1.596   0.593
 1672SOL    HW2 5036   2.595   1.524   0.689
 1673SOL     OW 5037   3.286   0.214   1.112
 1673SOL    HW1 5038   3.338   0.149   1.167
 1673SOL    HW2 5039   3.237   0.277   1.173
 1674SOL     OW 5040   2.863   0.034   1.154
 1674SOL    HW1 5041   2.800  -0.038   1.123
 1674SOL    HW2 5042   2.956  -0.002   1.154
 1675SOL     OW 5043   2.632   1.330   0.301
 1675SOL    HW1 5044   2.586   1.243   0.318
 1675SOL    HW2 5045   2.723   1.327   0.342
 1676SOL     OW 5046   2.480   1.567   1.284
 1676SOL    HW1 5047   2.475   1.649   1.341
 1676SOL    HW2 5048   2.569   1.564   1.239
 1677SOL     OW 5049   3.214   0.052   0.168
 1677SOL    HW1 5050   3.249   0.011   0.084
 1677SOL    HW2 5051   3.124   0.014   0.188
 1678SOL     OW 5052   3.162   0.453   0.691
 1678SOL    HW1 5053   3.103   0.533   0.695
 1678SOL    HW2 5054   3.177   0.418   0.784
 1679SOL     OW 5055   3.455   0.221   0.882
 1679SOL    HW1 5056   3.371   0.220   0.936
 1679SOL    HW2 5057   3.457   0.304   0.826
 1680SOL     OW 5058   1.901   1.077   0.300
 1680SOL    HW1 5059   2.000   1.066   0.291
 1680SOL    HW2 5060   1.861   0.991   0.332
 1681SOL     OW 5061   2.737   1.646   0.337
 1681SOL    HW1 5062   2.660   1.611   0.283
 1681SOL    HW2 5063   2.705   1.717   0.399
 1682SOL     OW 5064   2.092   0.628   1.975
 1682SOL    HW1 5065   1.999   0.626   2.012
 1682SOL    HW2 5066   2.093   0.589   1.883
 1683SOL     OW 5067   2.087   0.275   2.858
 1683SOL    HW1 5068   2.122   0.258   2.950
 1683SOL    HW2 5069   1.999   0.230   2.846
 1684SOL     OW 5070   1.881   0.368   2.509
 1684SOL    HW1 5071   1.799   0.411   2.548
 1684SOL    HW2 5072   1.853   0.295   2.446
 1685SOL     OW 5073   2.431   1.275   3.027
 1685SOL    HW1 5074   2.338   1.268   2.990
 1685SOL    HW2 5075   2.442   1.364   3.071
 1686SOL     OW 5076   3.417   1.511   2.565
 1686SOL    HW1 5077   3.360   1.495   2.646
 1686SOL    HW2 5078   3.358   1.521   2.485
 1687SOL     OW 5079   2.997   0.703   2.579
 1687SOL    HW1 5080   3.054   0.781   2.554
 1687SOL    HW2 5081   2.937   0.729   2.655
 1688SOL     OW 5082   3.617   0.607   2.093
 1688SOL    HW1 5083   3.605   0.594   1.994
 1688SOL    HW2 5084   3.587   0.526   2.142
 1689SOL     OW 5085   2.630   1.144   2.885
 1689SOL    HW1 5086   2.552   1.161   2.945
 1689SOL    HW2 5087   2.664   1.231   2.849
 1690SOL     OW 5088   2.712   0.798   3.685
 1690SOL    HW1 5089   2.708   0.874   3.750
 1690SOL    HW2 5090   2.734   0.834   3.594
 1691SOL     OW 5091   2.547   1.012   2.527
 1691SOL    HW1 5092   2.616   0.996   2.597
 1691SOL    HW2 5093   2.474   1.069   2.565
 1692SOL     OW 5094   2.548   1.161   3.665
 1692SOL    HW1 5095   2.608   1.240   3.679
 1692SOL    HW2 5096   2.462   1.192   3.624
 1693SOL     OW 5097   2.197   1.435   2.923
 1693SOL    HW1 5098   2.119   1.404   2.870
 1693SOL    HW2 5099   2.255   1.493   2.866
 1694SOL     OW 5100   3.322   1.505   3.201
 1694SOL    HW1 5101   3.346   1.599   3.227
 1694SOL    HW2 5102   3.306   1.451   3.283
 1695SOL     OW 5103   2.300   0.392   3.361
 1695SOL    HW1 5104   2.382   0.336   3.370
 1695SOL    HW2 5105   2.219   0.334   3.365
 1696SOL     OW 5106   3.465   0.447   2.599
 1696SOL    HW1 5107   3.391   0.493   2.549
 1696SOL    HW2 5108   3.516   0.515   2.652
 1697SOL     OW 5109   2.093   1.713   2.345
 1697SOL    HW1 5110   2.127   1.790   2.399
 1697SOL    HW2 5111   2.137   1.713   2.255
 1698SOL     OW 5112   2.989   1.341   3.552
 1698SOL    HW1 5113   3.036   1.341   3.640
 1698SOL    HW2 5114   2.941   1.254   3.541
 1699SOL     OW 5115   2.092   1.434   2.400
 1699SOL    HW1 5116   2.066   1.530   2.400
 1699SOL    HW2 5117   2.021   1.380   2.445
 1700SOL     OW 5118   2.102   1.091   2.748
 1700SOL    HW1 5119   2.116   1.007   2.800
 1700SOL    HW2 5120   2.047   1.155   2.803
 1701SOL     OW 5121   2.482   1.786   3.301
 1701SOL    HW1 5122   2.390   1.769   3.336
 1701SOL    HW2 5123   2.510   1.878   3.327
 1702SOL     OW 5124   2.468   0.964   1.985
 1702SOL    HW1 5125   2.475   1.048   1.931
 1702SOL    HW2 5126   2.514   0.977   2.073
 1703SOL     OW 5127   3.456   0.114   3.342
 1703SOL    HW1 5128   3.438   0.181   3.270
 1703SOL    HW2 5129   3.453   0.160   3.431
 1704SOL     OW 5130   1.984   0.643   2.425
 1704SOL    HW1 5131   1.939   0.555   2.442
 1704SOL    HW2 5132   1.983   0.697   2.509
 1705SOL     OW 5133   3.704   1.767   2.221
 1705SOL    HW1 5134   3.758   1.738   2.301
 1705SOL    HW2 5135   3.734   1.857   2.192
 1706SOL     OW 5136   1.889   1.596   1.979
 1706SOL    HW1 5137   1.870   1.500   2.000
 1706SOL    HW2 5138   1.856   1.654   2.054
 1707SOL     OW 5139   3.551   0.922   2.474
 1707SOL    HW1 5140   3.646   0.893   2.482
 1707SOL    HW2 5141   3.543   0.987   2.399
 1708SOL     OW 5142   3.503   1.108   2.294
 1708SOL    HW1 5143   3.589   1.110   2.242
 1708SOL    HW2 5144   3.517   1.155   2.382
 1709SOL     OW 5145   1.975   0.737   3.459
 1709SOL    HW1 5146   2.063   0.724   3.504
 1709SOL    HW2 5147   1.962   0.834   3.437
 1710SOL     OW 5148   2.475   1.365   2.588
 1710SOL    HW1 5149   2.426   1.278   2.597
 1710SOL    HW2 5150   2.452   1.408   2.501
 1711SOL     OW 5151   3.155   1.228   3.285
 1711SOL    HW1 5152   3.192   1.155   3.227
 1711SOL    HW2 5153   3.207   1.233   3.370
 1712SOL     OW 5154   2.671   0.004   2.364
 1712SOL    HW1 5155   2.711   0.095   2.355
 1712SOL    HW2 5156   2.571   0.012   2.370
 1713SOL     OW 5157   2.059   0.976   3.126
 1713SOL    HW1 5158   2.148   0.931   3.112
 1713SOL    HW2 5159   1.986   0.911   3.107
 1714SOL     OW 5160   3.387   0.999   2.052
 1714SOL    HW1 5161   3.324   0.923   2.065
 1714SOL    HW2 5162   3.435   1.017   2.138
 1715SOL     OW 5163   3.049   1.792   3.478
 1715SOL    HW1 5164   3.073   1.852   3.402
 1715SOL    HW2 5165   3.056   1.697   3.448
 1716SOL     OW 5166   2.179   0.251   3.663
 1716SOL    HW1 5167   2.250   0.322   3.669
 1716SOL    HW2 5168   2.091   0.290   3.691
 1717SOL     OW 5169   3.328   1.417   2.815
 1717SOL    HW1 5170   3.269   1.423   2.895
 1717SOL    HW2 5171   3.313   1.329   2.769
 1718SOL     OW 5172   3.529   1.714   2.434
 1718SOL    HW1 5173   3.488   1.691   2.346
 1718SOL    HW2 5174   3.511   1.640   2.499
 1719SOL     OW 5175   2.460   0.729   2.132
 1719SOL    HW1 5176   2.484   0.798   2.064
 1719SOL    HW2 5177   2.382   0.762   2.186
 1720SOL     OW 5178   3.143   0.345   2.806
 1720SOL    HW1 5179   3.057   0.295   2.793
 1720SOL    HW2 5180   3.205   0.291   2.862
 1721SOL     OW 5181   3.438   1.662   2.169
 1721SOL    HW1 5182   3.527   1.708   2.172
 1721SOL    HW2 5183   3.417   1.638   2.074
 1722SOL     OW 5184   2.669   0.605   3.327
 1722SOL    HW1 5185   2.622   0.602   3.416
 1722SOL    HW2 5186   2.618   0.550   3.261
 1723SOL     OW 5187   3.256   0.469   3.536
 1723SOL    HW1 5188   3.236   0.512   3.624
 1723SOL    HW2 5189   3.334   0.407   3.545
 1724SOL     OW 5190   2.835   0.890   3.434
 1724SOL    HW1 5191   2.881   0.806   3.405
 1724SOL    HW2 5192   2.779   0.924   3.359
 1725SOL     OW 5193   2.853   0.410   3.104
 1725SOL    HW1 5194   2.776   0.444   3.158
 1725SOL    HW2 5195   2.819   0.359   3.025
 1726SOL     OW 5196   2.903   0.701   2.291
 1726SOL    HW1 5197   2.929   0.697   2.387
 1726SOL    HW2 5198   2.818   0.650   2.277
 1727SOL     OW 5199   1.938   0.811   2.651
 1727SOL    HW1 5200   2.037   0.799   2.660
 1727SOL    HW2 5201   1.914   0.906   2.672
 1728SOL     OW 5202   1.992   1.821   3.433
 1728SOL    HW1 5203   1.982   1.806   3.532
 1728SOL    HW2 5204   1.906   1.857   3.397
 1729SOL     OW 5205   2.727   0.348   2.057
 1729SOL    HW1 5206   2.786   0.411   2.008
 1729SOL    HW2 5207   2.746   0.254   2.028
 1730SOL     OW 5208   3.581   0.585   3.693
 1730SOL    HW1 5209   3.555   0.674   3.657
 1730SOL    HW2 5210   3.579   0.517   3.620
 1731SOL     OW 5211   3.224   1.144   2.407
 1731SOL    HW1 5212   3.307   1.115   2.359
 1731SOL    HW2 5213   3.175   1.211   2.351
 1732SOL     OW 5214   2.412   0.196   2.747
 1732SOL    HW1 5215   2.407   0.191   2.847
 1732SOL    HW2 5216   2.414   0.292   2.718
 1733SOL     OW 5217   2.870   1.456   2.339
 1733SOL    HW1 5218   2.824   1.528   2.287
 1733SOL    HW2 5219   2.866   1.476   2.437
 1734SOL     OW 5220   2.213   1.801   2.715
 1734SOL    HW1 5221   2.263   1.715   2.721
 1734SOL    HW2 5222   2.278   1.878   2.712
 1735SOL     OW 5223   3.657   1.066   2.735
 1735SOL    HW1 5224   3.595   1.051   2.659
 1735SOL    HW2 5225   3.605   1.077   2.820
 1736SOL     OW 5226   3.089   1.550   3.368
 1736SOL    HW1 5227   3.095   1.473   3.432
 1736SOL    HW2 5228   3.037   1.524   3.288
 1737SOL     OW 5229   2.183   0.943   2.104
 1737SOL    HW1 5230   2.265   0.982   2.062
 1737SOL    HW2 5231   2.156   0.861   2.055
 1738SOL     OW 5232   3.320   0.735   2.590
 1738SOL    HW1 5233   3.315   0.670   2.665
 1738SOL    HW2 5234   3.400   0.794   2.603
 1739SOL     OW 5235   2.323   1.266   3.589
 1739SOL    HW1 5236   2.273   1.267   3.503
 1739SOL    HW2 5237   2.260   1.248   3.665
 1740SOL     OW 5238   2.973   1.776   2.099
 1740SOL    HW1 5239   2.913   1.714   2.149
 1740SOL    HW2 5240   3.004   1.732   2.014
 1741SOL     OW 5241   2.064   0.285   3.360
 1741SOL    HW1 5242   1.984   0.345   3.347
 1741SOL    HW2 5243   2.054   0.236   3.446
 1742SOL     OW 5244   3.494   1.377   1.943
 1742SOL    HW1 5245   3.462   1.471   1.933
 1742SOL    HW2 5246   3.418   1.314   1.931
 1743SOL     OW 5247   2.326   1.743   2.185
 1743SOL    HW1 5248   2.359   1.782   2.271
 1743SOL    HW2 5249   2.402   1.736   2.120
 1744SOL     OW 5250   3.262   0.107   2.288
 1744SOL    HW1 5251   3.238   0.070   2.198
 1744SOL    HW2 5252   3.361   0.123   2.292
 1745SOL     OW 5253   2.111   1.785   3.103
 1745SOL    HW1 5254   2.168   1.720   3.153
 1745SOL    HW2 5255   2.095   1.752   3.010
 1746SOL     OW 5256   2.802   1.698   2.766
 1746SOL    HW1 5257   2.882   1.641   2.787
 1746SOL    HW2 5258   2.753   1.658   2.689
 1747SOL     OW 5259   2.244   0.700   2.342
 1747SOL    HW1 5260   2.289   0.610   2.339
 1747SOL    HW2 5261   2.150   0.689   2.375
 1748SOL     OW 5262   3.409   0.222   3.591
 1748SOL    HW1 5263   3.404   0.259   3.683
 1748SOL    HW2 5264   3.337   0.153   3.579
 1749SOL     OW 5265   2.476   0.122   1.979
 1749SOL    HW1 5266   2.574   0.100   1.986
 1749SOL    HW2 5267   2.445   0.105   1.886
 1750SOL     OW 5268   2.643   0.264   3.611
 1750SOL    HW1 5269   2.710   0.203   3.654
 1750SOL    HW2 5270   2.570   0.283   3.676
 1751SOL     OW 5271   2.750   1.514   3.057
 1751SOL    HW1 5272   2.727   1.489   2.963
 1751SOL    HW2 5273   2.811   1.445   3.096
 1752SOL     OW 5274   3.213   0.590   3.295
 1752SOL    HW1 5275   3.241   0.547   3.380
 1752SOL    HW2 5276   3.238   0.686   3.296
 1753SOL     OW 5277   2.665   1.402   2.786
 1753SOL    HW1 5278   2.755   1.416   2.744
 1753SOL    HW2 5279   2.594   1.404   2.715
 1754SOL     OW 5280   2.784   0.503   2.761
 1754SOL    HW1 5281   2.759   0.494   2.665
 1754SOL    HW2 5282   2.832   0.421   2.792
 1755SOL     OW 5283   2.401   0.064   2.374
 1755SOL    HW1 5284   2.320   0.065   2.432
 1755SOL    HW2 5285   2.404   0.147   2.319
 1756SOL     OW 5286   3.296   1.188   1.903
 1756SOL    HW1 5287   3.328   1.112   1.960
 1756SOL    HW2 5288   3.204   1.215   1.933
 1757SOL     OW 5289   2.159   0.035   2.033
 1757SOL    HW1 5290   2.208   0.119   2.012
 1757SOL    HW2 5291   2.221  -0.030   2.078
 1758SOL     OW 5292   2.797   0.236   2.342
 1758SOL    HW1 5293   2.749   0.277   2.264
 1758SOL    HW2 5294   2.896   0.234   2.323
 1759SOL     OW 5295   2.938   0.683   3.326
 1759SOL    HW1 5296   2.858   0.622   3.329
 1759SOL    HW2 5297   3.019   0.630   3.302
 1760SOL     OW 5298   3.089   1.570   2.655
 1760SOL    HW1 5299   3.110   1.644   2.590
 1760SOL    HW2 5300   3.157   1.570   2.728
 1761SOL     OW 5301   2.321   1.152   2.603
 1761SOL    HW1 5302   2.250   1.125   2.668
 1761SOL    HW2 5303   2.295   1.124   2.510
 1762SOL     OW 5304   3.133   1.797   2.453
 1762SOL    HW1 5305   3.177   1.861   2.389
 1762SOL    HW2 5306   3.083   1.849   2.523
 1763SOL     OW 5307   2.894   0.549   1.878
 1763SOL    HW1 5308   2.853   0.631   1.839
 1763SOL    HW2 5309   2.958   0.575   1.951
 1764SOL     OW 5310   1.940   0.556   3.248
 1764SOL    HW1 5311   2.032   0.555   3.207
 1764SOL    HW2 5312   1.934   0.630   3.315
 1765SOL     OW 5313   2.423   0.222   3.009
 1765SOL    HW1 5314   2.461   0.138   3.046
 1765SOL    HW2 5315   2.335   0.241   3.053
 1766SOL     OW 5316   2.728   0.454   2.504
 1766SOL    HW1 5317   2.696   0.526   2.442
 1766SOL    HW2 5318   2.752   0.373   2.451
 1767SOL     OW 5319   2.879   0.039   2.615
 1767SOL    HW1 5320   2.807   0.044   2.546
 1767SOL    HW2 5321   2.855  -0.030   2.684
 1768SOL     OW 5322   3.291   1.173   2.729
 1768SOL    HW1 5323   3.236   1.089   2.722
 1768SOL    HW2 5324   3.317   1.202   2.637
 1769SOL     OW 5325   3.328   0.590   2.854
 1769SOL    HW1 5326   3.298   0.495   2.861
 1769SOL    HW2 5327   3.401   0.606   2.920
 1770SOL     OW 5328   3.719   0.833   2.239
 1770SOL    HW1 5329   3.761   0.769   2.303
 1770SOL    HW2 5330   3.681   0.782   2.161
 1771SOL     OW 5331   2.350   1.385   2.036
 1771SOL    HW1 5332   2.263   1.370   2.083
 1771SOL    HW2 5333   2.333   1.411   1.941
 1772SOL     OW 5334   3.526   1.280   2.519
 1772SOL    HW1 5335   3.625   1.288   2.533
 1772SOL    HW2 5336   3.481   1.364   2.550
 1773SOL     OW 5337   3.252   0.575   1.940
 1773SOL    HW1 5338   3.198   0.554   2.021
 1773SOL    HW2 5339   3.343   0.534   1.949
 1774SOL     OW 5340   2.389   0.256   2.190
 1774SOL    HW1 5341   2.416   0.197   2.115
 1774SOL    HW2 5342   2.389   0.351   2.159
 1775SOL     OW 5343   3.616   1.223   3.450
 1775SOL    HW1 5344   3.707   1.184   3.437
 1775SOL    HW2 5345   3.624   1.319   3.474
 1776SOL     OW 5346   2.926   1.347   3.202
 1776SOL    HW1 5347   2.846   1.324   3.257
 1776SOL    HW2 5348   3.009   1.321   3.251
 1777SOL     OW 5349   3.454   1.629   3.487
 1777SOL    HW1 5350   3.481   1.663   3.397
 1777SOL    HW2 5351   3.533   1.591   3.533
 1778SOL     OW 5352   2.973   1.195   2.962
 1778SOL    HW1 5353   2.933   1.239   3.043
 1778SOL    HW2 5354   2.932   1.232   2.879
 1779SOL     OW 5355   3.500   1.099   2.941
 1779SOL    HW1 5356   3.505   1.180   3.000
 1779SOL    HW2 5357   3.414   1.101   2.890
 1780SOL     OW 5358   2.777   0.089   3.264
 1780SOL    HW1 5359   2.802   0.069   3.169
 1780SOL    HW2 5360   2.849   0.145   3.306
 1781SOL     OW 5361   2.842   1.116   3.581
 1781SOL    HW1 5362   2.743   1.122   3.591
 1781SOL    HW2 5363   2.865   1.036   3.525
 1782SOL     OW 5364   2.567   1.050   2.230
 1782SOL    HW1 5365   2.553   1.057   2.329
 1782SOL    HW2 5366   2.651   0.999   2.212
 1783SOL     OW 5367   2.272   0.813   3.113
 1783SOL    HW1 5368   2.358   0.825   3.163
 1783SOL    HW2 5369   2.230   0.726   3.140
 1784SOL     OW 5370   3.136   0.386   3.124
 1784SOL    HW1 5371   3.157   0.460   3.188
 1784SOL    HW2 5372   3.047   0.403   3.081
 1785SOL     OW 5373   1.926   1.564   3.193
 1785SOL    HW1 5374   1.880   1.646   3.159
 1785SOL    HW2 5375   2.024   1.583   3.202
 1786SOL     OW 5376   2.229   1.100   2.363
 1786SOL    HW1 5377   2.222   1.183   2.307
 1786SOL    HW2 5378   2.233   1.020   2.303
 1787SOL     OW 5379   2.428   0.537   2.727
 1787SOL    HW1 5380   2.440   0.603   2.653
 1787SOL    HW2 5381   2.474   0.571   2.810
 1788SOL     OW 5382   3.114   1.348   2.250
 1788SOL    HW1 5383   3.164   1.425   2.290
 1788SOL    HW2 5384   3.019   1.350   2.282
 1789SOL     OW 5385   3.134   1.445   3.004
 1789SOL    HW1 5386   3.181   1.458   3.091
 1789SOL    HW2 5387   3.068   1.371   3.013
 1790SOL     OW 5388   3.444   0.639   2.334
 1790SOL    HW1 5389   3.413   0.700   2.407
 1790SOL    HW2 5390   3.494   0.691   2.265
 1791SOL     OW 5391   2.216   1.510   3.191
 1791SOL    HW1 5392   2.195   1.466   3.104
 1791SOL    HW2 5393   2.313   1.536   3.194
 1792SOL     OW 5394   2.264   0.751   3.460
 1792SOL    HW1 5395   2.332   0.806   3.413
 1792SOL    HW2 5396   2.304   0.663   3.487
 1793SOL     OW 5397   3.449   0.779   3.532
 1793SOL    HW1 5398   3.357   0.817   3.527
 1793SOL    HW2 5399   3.509   0.826   3.467
 1794SOL     OW 5400   2.875   0.105   3.632
 1794SOL    HW1 5401   2.881   0.190   3.580
 1794SOL    HW2 5402   2.907   0.029   3.575
 1795SOL     OW 5403   2.366   0.050   3.602
 1795SOL    HW1 5404   2.324  -0.007   3.532
 1795SOL    HW2 5405   2.300   0.119   3.634
 1796SOL     OW 5406   2.435   0.870   2.891
 1796SOL    HW1 5407   2.479   0.959   2.882
 1796SOL    HW2 5408   2.372   0.870   2.968
 1797SOL     OW 5409   3.222   0.862   2.907
 1797SOL    HW1 5410   3.147   0.862   2.841
 1797SOL    HW2 5411   3.259   0.770   2.916
 1798SOL     OW 5412   3.071   0.525   2.137
 1798SOL    HW1 5413   3.084   0.441   2.191
 1798SOL    HW2 5414   3.042   0.599   2.197
 1799SOL     OW 5415   2.169   0.213   3.093
 1799SOL    HW1 5416   2.146   0.250   3.183
 1799SOL    HW2 5417   2.139   0.118   3.087
 1800SOL     OW 5418   1.899   1.310   3.144
 1800SOL    HW1 5419   1.952   1.261   3.212
 1800SOL    HW2 5420   1.921   1.408   3.149
 1801SOL     OW 5421   2.594   0.634   2.926
 1801SOL    HW1 5422   2.653   0.608   2.850
 1801SOL    HW2 5423   2.566   0.730   2.915
 1802SOL     OW 5424   3.590   0.935   3.716
 1802SOL    HW1 5425   3.544   0.928   3.627
 1802SOL    HW2 5426   3.528   0.979   3.782
 1803SOL     OW 5427   2.169   0.063   2.480
 1803SOL    HW1 5428   2.158   0.157   2.513
 1803SOL    HW2 5429   2.164   0.000   2.557
 1804SOL     OW 5430   3.484   0.367   2.236
 1804SOL    HW1 5431   3.486   0.291   2.300
 1804SOL    HW2 5432   3.436   0.444   2.276
 1805SOL     OW 5433   2.885   0.766   2.828
 1805SOL    HW1 5434   2.900   0.787   2.924
 1805SOL    HW2 5435   2.855   0.671   2.819
 1806SOL     OW 5436   2.842   1.573   3.562
 1806SOL    HW1 5437   2.822   1.617   3.474
 1806SOL    HW2 5438   2.881   1.482   3.546
 1807SOL     OW 5439   3.721   1.518   3.467
 1807SOL    HW1 5440   3.735   1.545   3.372
 1807SOL    HW2 5441   3.804   1.540   3.520
 1808SOL     OW 5442   2.212   0.898   3.666
 1808SOL    HW1 5443   2.288   0.942   3.714
 1808SOL    HW2 5444   2.247   0.851   3.584
 1809SOL     OW 5445   3.402   0.274   1.987
 1809SOL    HW1 5446   3.341   0.199   2.010
 1809SOL    HW2 5447   3.424   0.326   2.070
 1810SOL     OW 5448   3.165   0.838   1.904
 1810SOL    HW1 5449   3.199   0.745   1.919
 1810SOL    HW2 5450   3.183   0.865   1.809
 1811SOL     OW 5451   2.930   1.333   2.711
 1811SOL    HW1 5452   2.937   1.249   2.656
 1811SOL    HW2 5453   2.992   1.402   2.675
 1812SOL     OW 5454   2.181   0.810   2.811
 1812SOL    HW1 5455   2.274   0.846   2.816
 1812SOL    HW2 5456   2.175   0.725   2.863
 1813SOL     OW 5457   2.201   0.509   2.868
 1813SOL    HW1 5458   2.149   0.426   2.851
 1813SOL    HW2 5459   2.278   0.514   2.804
 1814SOL     OW 5460   3.000   0.380   3.540
 1814SOL    HW1 5461   2.955   0.443   3.604
 1814SOL    HW2 5462   3.093   0.411   3.523
 1815SOL     OW 5463   3.022   0.207   3.339
 1815SOL    HW1 5464   3.022   0.271   3.416
 1815SOL    HW2 5465   3.050   0.255   3.256
 1816SOL     OW 5466   1.870   1.326   2.062
 1816SOL    HW1 5467   1.777   1.347   2.031
 1816SOL    HW2 5468   1.880   1.227   2.075
 1817SOL     OW 5469   1.950   1.801   2.789
 1817SOL    HW1 5470   1.908   1.715   2.762
 1817SOL    HW2 5471   2.044   1.804   2.755
 1818SOL     OW 5472   2.366   1.568   2.772
 1818SOL    HW1 5473   2.432   1.642   2.781
 1818SOL    HW2 5474   2.410   1.489   2.730
 1819SOL     OW 5475   2.864   0.796   3.100
 1819SOL    HW1 5476   2.905   0.764   3.186
 1819SOL    HW2 5477   2.768   0.769   3.097
 1820SOL     OW 5478   1.902   0.544   2.976
 1820SOL    HW1 5479   1.987   0.511   2.935
 1820SOL    HW2 5480   1.915   0.559   3.074
 1821SOL     OW 5481   2.051   0.520   3.584
 1821SOL    HW1 5482   2.110   0.480   3.514
 1821SOL    HW2 5483   1.993   0.591   3.543
 1822SOL     OW 5484   3.231   0.950   3.522
 1822SOL    HW1 5485   3.270   1.039   3.542
 1822SOL    HW2 5486   3.241   0.930   3.425
 1823SOL     OW 5487   2.677   0.572   2.187
 1823SOL    HW1 5488   2.684   0.483   2.141
 1823SOL    HW2 5489   2.583   0.606   2.179
 1824SOL     OW 5490   3.519   0.604   3.068
 1824SOL    HW1 5491   3.481   0.535   3.130
 1824SOL    HW2 5492   3.601   0.568   3.024
 1825SOL     OW 5493   2.114   1.564   3.606
 1825SOL    HW1 5494   2.084   1.621   3.682
 1825SOL    HW2 5495   2.107   1.467   3.632
 1826SOL     OW 5496   2.533   0.464   3.131
 1826SOL    HW1 5497   2.499   0.375   3.101
 1826SOL    HW2 5498   2.559   0.518   3.051
 1827SOL     OW 5499   2.792   1.678   3.327
 1827SOL    HW1 5500   2.768   1.660   3.232
 1827SOL    HW2 5501   2.822   1.772   3.337
 1828SOL     OW 5502   2.335   0.500   2.053
 1828SOL    HW1 5503   2.396   0.580   2.057
 1828SOL    HW2 5504   2.240   0.531   2.060
 1829SOL     OW 5505   2.021   1.137   3.328
 1829SOL    HW1 5506   2.043   1.076   3.404
 1829SOL    HW2 5507   2.031   1.088   3.242
 1830SOL     OW 5508   3.209   1.059   3.096
 1830SOL    HW1 5509   3.233   0.996   3.022
 1830SOL    HW2 5510   3.119   1.099   3.078
 1831SOL     OW 5511   3.164   0.855   2.171
 1831SOL    HW1 5512   3.078   0.824   2.213
 1831SOL    HW2 5513   3.160   0.841   2.072
 1832SOL     OW 5514   3.621   1.747   3.016
 1832SOL    HW1 5515   3.682   1.777   2.943
 1832SOL    HW2 5516   3.583   1.658   2.994
 1833SOL     OW 5517   3.114   1.731   2.990
 1833SOL    HW1 5518   3.198   1.736   2.936
 1833SOL    HW2 5519   3.091   1.635   3.008
 1834SOL     OW 5520   1.945   1.258   2.884
 1834SOL    HW1 5521   1.940   1.257   2.984
 1834SOL    HW2 5522   1.862   1.217   2.846
 1835SOL     OW 5523   2.550   1.662   3.578
 1835SOL    HW1 5524   2.494   1.743   3.587
 1835SOL    HW2 5525   2.602   1.666   3.492
 1836SOL     OW 5526   3.588   0.135   2.385
 1836SOL    HW1 5527   3.661   0.118   2.318
 1836SOL    HW2 5528   3.557   0.048   2.423
 1837SOL     OW 5529   3.250   1.573   2.339
 1837SOL    HW1 5530   3.317   1.585   2.265
 1837SOL    HW2 5531   3.210   1.662   2.362
 1838SOL     OW 5532   1.992   1.794   3.713
 1838SOL    HW1 5533   1.951   1.720   3.766
 1838SOL    HW2 5534   2.056   1.845   3.771
 1839SOL     OW 5535   3.142   0.927   2.534
 1839SOL    HW1 5536   3.202   0.846   2.536
 1839SOL    HW2 5537   3.182   0.996   2.474
 1840SOL     OW 5538   2.692   1.273   3.284
 1840SOL    HW1 5539   2.687   1.306   3.379
 1840SOL    HW2 5540   2.606   1.292   3.238
 1841SOL     OW 5541   2.534   1.616   2.016
 1841SOL    HW1 5542   2.543   1.626   1.917
 1841SOL    HW2 5543   2.494   1.527   2.037
 1842SOL     OW 5544   3.512   1.720   3.256
 1842SOL    HW1 5545   3.565   1.730   3.172
 1842SOL    HW2 5546   3.485   1.810   3.290
 1843SOL     OW 5547   3.703   0.175   2.825
 1843SOL    HW1 5548   3.742   0.090   2.789
 1843SOL    HW2 5549   3.605   0.177   2.806
 1844SOL     OW 5550   2.125   0.326   2.582
 1844SOL    HW1 5551   2.046   0.377   2.548
 1844SOL    HW2 5552   2.116   0.311   2.680
 1845SOL     OW 5553   3.056   1.612   1.893
 1845SOL    HW1 5554   3.062   1.519   1.930
 1845SOL    HW2 5555   2.997   1.612   1.813
 1846SOL     OW 5556   2.684   1.002   3.234
 1846SOL    HW1 5557   2.724   1.001   3.142
 1846SOL    HW2 5558   2.694   1.094   3.274
 1847SOL     OW 5559   2.778   0.910   2.153
 1847SOL    HW1 5560   2.841   0.948   2.085
 1847SOL    HW2 5561   2.818   0.827   2.192
 1848SOL     OW 5562   3.366   1.607   1.906
 1848SOL    HW1 5563   3.274   1.644   1.913
 1848SOL    HW2 5564   3.404   1.627   1.816
 1849SOL     OW 5565   2.234   1.288   3.352
 1849SOL    HW1 5566   2.221   1.381   3.318
 1849SOL    HW2 5567   2.150   1.236   3.339
 1850SOL     OW 5568   3.476   1.292   3.151
 1850SOL    HW1 5569   3.536   1.295   3.231
 1850SOL    HW2 5570   3.401   1.356   3.164
 1851SOL     OW 5571   2.901   1.098   2.558
 1851SOL    HW1 5572   2.831   1.051   2.612
 1851SOL    HW2 5573   2.960   1.030   2.515
 1852SOL     OW 5574   2.876   0.236   2.833
 1852SOL    HW1 5575   2.868   0.200   2.740
 1852SOL    HW2 5576   2.874   0.160   2.898
 1853SOL     OW 5577   2.452   1.487   2.353
 1853SOL    HW1 5578   2.494   1.429   2.283
 1853SOL    HW2 5579   2.408   1.566   2.309
 1854SOL     OW 5580   3.571   0.385   3.243
 1854SOL    HW1 5581   3.644   0.454   3.247
 1854SOL    HW2 5582   3.599   0.310   3.184
 1855SOL     OW 5583   2.117   1.348   2.152
 1855SOL    HW1 5584   2.021   1.349   2.125
 1855SOL    HW2 5585   2.129   1.401   2.236
 1856SOL     OW 5586   1.967   1.013   3.588
 1856SOL    HW1 5587   1.890   0.980   3.642
 1856SOL    HW2 5588   2.052   0.983   3.630
 1857SOL     OW 5589   2.534   0.203   3.351
 1857SOL    HW1 5590   2.624   0.187   3.311
 1857SOL    HW2 5591   2.542   0.208   3.450
 1858SOL     OW 5592   1.937   0.345   1.895
 1858SOL    HW1 5593   1.845   0.317   1.866
 1858SOL    HW2 5594   1.968   0.422   1.839
 1859SOL     OW 5595   3.302   0.856   3.260
 1859SOL    HW1 5596   3.245   0.908   3.197
 1859SOL    HW2 5597   3.398   0.868   3.236
 1860SOL     OW 5598   1.934   0.166   2.180
 1860SOL    HW1 5599   1.917   0.249   2.126
 1860SOL    HW2 5600   2.024   0.129   2.158
 1861SOL     OW 5601   3.045   1.335   1.981
 1861SOL    HW1 5602   2.946   1.324   1.983
 1861SOL    HW2 5603   3.079   1.350   2.074
 1862SOL     OW 5604   2.475   0.842   3.293
 1862SOL    HW1 5605   2.531   0.923   3.276
 1862SOL    HW2 5606   2.534   0.762   3.296
 1863SOL     OW 5607   3.355   1.767   2.821
 1863SOL    HW1 5608   3.388   1.831   2.752
 1863SOL    HW2 5609   3.421   1.761   2.896
 1864SOL     OW 5610   2.578   0.565   3.570
 1864SOL    HW1 5611   2.597   0.630   3.644
 1864SOL    HW2 5612   2.638   0.485   3.579
 1865SOL     OW 5613   3.312   1.220   3.495
 1865SOL    HW1 5614   3.303   1.210   3.594
 1865SOL    HW2 5615   3.408   1.213   3.469
 1866SOL     OW 5616   2.252   1.741   3.422
 1866SOL    HW1 5617   2.161   1.782   3.420
 1866SOL    HW2 5618   2.245   1.647   3.454
 1867SOL     OW 5619   3.536   0.883   3.116
 1867SOL    HW1 5620   3.509   0.794   3.079
 1867SOL    HW2 5621   3.537   0.951   3.043
 1868SOL     OW 5622   3.087   0.325   2.311
 1868SOL    HW1 5623   3.152   0.251   2.300
 1868SOL    HW2 5624   3.107   0.375   2.395
 1869SOL     OW 5625   2.456   0.745   2.514
 1869SOL    HW1 5626   2.506   0.830   2.495
 1869SOL    HW2 5627   2.368   0.747   2.466
 1870SOL     OW 5628   3.639   0.342   3.504
 1870SOL    HW1 5629   3.622   0.373   3.410
 1870SOL    HW2 5630   3.555   0.305   3.542
 1871SOL     OW 5631   3.592   0.934   3.379
 1871SOL    HW1 5632   3.630   1.025   3.394
 1871SOL    HW2 5633   3.584   0.917   3.280
 1872SOL     OW 5634   2.721   1.374   1.878
 1872SOL    HW1 5635   2.675   1.389   1.966
 1872SOL    HW2 5636   2.765   1.459   1.848
 1873SOL     OW 5637   2.523   1.790   2.815
 1873SOL    HW1 5638   2.477   1.878   2.802
 1873SOL    HW2 5639   2.622   1.802   2.808
 1874SOL     OW 5640   2.721   0.956   2.723
 1874SOL    HW1 5641   2.775   0.887   2.771
 1874SOL    HW2 5642   2.689   1.025   2.789
 1875SOL     OW 5643   2.945   0.984   1.949
 1875SOL    HW1 5644   2.922   1.037   1.867
 1875SOL    HW2 5645   3.026   0.928   1.930
 1876SOL     OW 5646   3.723   1.569   2.713
 1876SOL    HW1 5647   3.652   1.557   2.643
 1876SOL    HW2 5648   3.724   1.490   2.773
 1877SOL     OW 5649   2.083   1.314   3.706
 1877SOL    HW1 5650   2.018   1.241   3.685
 1877SOL    HW2 5651   2.087   1.328   3.804
 1878SOL     OW 5652   1.941   1.240   2.515
 1878SOL    HW1 5653   1.940   1.193   2.603
 1878SOL    HW2 5654   2.023   1.212   2.464
 1879SOL     OW 5655   2.534   1.391   3.486
 1879SOL    HW1 5656   2.456   1.341   3.524
 1879SOL    HW2 5657   2.531   1.486   3.517
 1880SOL     OW 5658   3.686   0.192   3.089
 1880SOL    HW1 5659   3.682   0.102   3.133
 1880SOL    HW2 5660   3.689   0.181   2.990
 1881SOL     OW 5661   2.290   0.424   2.382
 1881SOL    HW1 5662   2.320   0.352   2.320
 1881SOL    HW2 5663   2.251   0.384   2.465
 1882SOL     OW 5664   3.567   1.487   2.966
 1882SOL    HW1 5665   3.474   1.462   2.939
 1882SOL    HW2 5666   3.593   1.437   3.048
 1883SOL     OW 5667   2.179   0.547   3.142
 1883SOL    HW1 5668   2.217   0.488   3.214
 1883SOL    HW2 5669   2.219   0.521   3.054
 1884SOL     OW 5670   2.674   1.586   2.549
 1884SOL    HW1 5671   2.706   1.596   2.455
 1884SOL    HW2 5672   2.595   1.524   2.551
 1885SOL     OW 5673   3.286   0.214   2.974
 1885SOL    HW1 5674   3.338   0.149   3.029
 1885SOL    HW2 5675   3.237   0.277   3.035
 1886SOL     OW 5676   2.863   0.034   3.016
 1886SOL    HW1 5677   2.800  -0.038   2.985
 1886SOL    HW2 5678   2.956  -0.002   3.016
 1887SOL     OW 5679   2.632   1.330   2.163
 1887SOL    HW1 5680   2.586   1.243   2.180
 1887SOL    HW2 5681   2.723   1.327   2.204
 1888SOL     OW 5682   2.480   1.567   3.146
 1888SOL    HW1 5683   2.475   1.649   3.203
 1888SOL    HW2 5684   2.569   1.564   3.101
 1889SOL     OW 5685   3.214   0.052   2.030
 1889SOL    HW1 5686   3.249   0.011   1.946
 1889SOL    HW2 5687   3.124   0.014   2.050
 1890SOL     OW 5688   3.162   0.453   2.553
 1890SOL    HW1 5689   3.103   0.533   2.557
 1890SOL    HW2 5690   3.177   0.418   2.646
 1891SOL     OW 5691   3.455   0.221   2.744
 1891SOL    HW1 5692   3.371   0.220   2.798
 1891SOL    HW2 5693   3.457   0.304   2.688
 1892SOL     OW 5694   1.901   1.077   2.162
 1892SOL    HW1 5695   2.000   1.066   2.153
 1892SOL    HW2 5696   1.861   0.991   2.194
 1893SOL     OW 5697   2.737   1.646   2.199
 1893SOL    HW1 5698   2.660   1.611   2.145
 1893SOL    HW2 5699   2.705   1.717   2.261
 1894SOL     OW 5700   2.092   0.628   3.837
 1894SOL    HW1 5701   1.999   0.626   3.874
 1894SOL    HW2 5702   2.093   0.589   3.745
 1895SOL     OW 5703   2.087   0.275   4.720
 1895SOL    HW1 5704   2.122   0.258   4.812
 1895SOL    HW2 5705   1.999   0.230   4.708
 1896SOL     OW 5706   1.881   0.368   4.371
 1896SOL    HW1 5707   1.799   0.411   4.410
 1896SOL    HW2 5708   1.853   0.295   4.308
 1897SOL     OW 5709   3.417   1.511   4.427
 1897SOL    HW1 5710   3.360   1.495   4.508
 1897SOL    HW2 5711   3.358   1.521   4.347
 1898SOL     OW 5712   2.997   0.703   4.441
 1898SOL    HW1 5713   3.054   0.781   4.416
 1898SOL    HW2 5714   2.937   0.729   4.517
 1899SOL     OW 5715   3.617   0.607   3.955
 1899SOL    HW1 5716   3.605   0.594   3.856
 1899SOL    HW2 5717   3.587   0.526   4.004
 1900SOL     OW 5718   2.630   1.144   4.747
 1900SOL    HW1 5719   2.552   1.161   4.807
 1900SOL    HW2 5720   2.664   1.231   4.711
 1901SOL     OW 5721   2.547   1.012   4.389
 1901SOL    HW1 5722   2.616   0.996   4.459
 1901SOL    HW2 5723   2.474   1.069   4.427
 1902SOL     OW 5724   2.197   1.435   4.785
 1902SOL    HW1 5725   2.119   1.404   4.732
 1902SOL    HW2 5726   2.255   1.493   4.728
 1903SOL     OW 5727   3.465   0.447   4.461
 1903SOL    HW1 5728   3.391   0.493   4.411
 1903SOL    HW2 5729   3.516   0.515   4.514
 1904SOL     OW 5730   2.093   1.713   4.207
 1904SOL    HW1 5731   2.127   1.790   4.261
 1904SOL    HW2 5732   2.137   1.713   4.117
 1905SOL     OW 5733   2.092   1.434   4.262
 1905SOL    HW1 5734   2.066   1.530   4.262
 1905SOL    HW2 5735   2.021   1.380   4.307
 1906SOL     OW 5736   2.102   1.091   4.610
 1906SOL    HW1 5737   2.116   1.007   4.662
 1906SOL    HW2 5738   2.047   1.155   4.665
 1907SOL     OW 5739   2.468   0.964   3.847
 1907SOL    HW1 5740   2.475   1.048   3.793
 1907SOL    HW2 5741   2.514   0.977   3.935
 1908SOL     OW 5742   1.984   0.643   4.287
 1908SOL    HW1 5743   1.939   0.555   4.304
 1908SOL    HW2 5744   1.983   0.697   4.371
 1909SOL     OW 5745   3.704   1.767   4.083
 1909SOL    HW1 5746   3.758   1.738   4.163
 1909SOL    HW2 5747   3.734   1.857   4.054
 1910SOL     OW 5748   1.889   1.596   3.841
 1910SOL    HW1 5749   1.870   1.500   3.862
 1910SOL    HW2 5750   1.856   1.654   3.916
 1911SOL     OW 5751   3.551   0.922   4.336
 1911SOL    HW1 5752   3.646   0.893   4.344
 1911SOL    HW2 5753   3.543   0.987   4.261
 1912SOL     OW 5754   3.503   1.108   4.156
 1912SOL    HW1 5755   3.589   1.110   4.104
 1912SOL    HW2 5756   3.517   1.155   4.244
 1913SOL     OW 5757   2.475   1.365   4.450
 1913SOL    HW1 5758   2.426   1.278   4.459
 1913SOL    HW2 5759   2.452   1.408   4.363
 1914SOL     OW 5760   2.671   0.004   4.226
 1914SOL    HW1 5761   2.711   0.095   4.217
 1914SOL    HW2 5762   2.571   0.012   4.232
 1915SOL     OW 5763   2.059   0.976   4.988
 1915SOL    HW1 5764   2.148   0.931   4.974
 1915SOL    HW2 5765   1.986   0.911   4.969
 1916SOL     OW 5766   3.387   0.999   3.914
 1916SOL    HW1 5767   3.324   0.923   3.927
 1916SOL    HW2 5768   3.435   1.017   4.000
 1917SOL     OW 5769   3.328   1.417   4.677
 1917SOL    HW1 5770   3.269   1.423   4.757
 1917SOL    HW2 5771   3.313   1.329   4.631
 1918SOL     OW 5772   3.529   1.714   4.296
 1918SOL    HW1 5773   3.488   1.691   4.208
 1918SOL    HW2 5774   3.511   1.640   4.361
 1919SOL     OW 5775   2.460   0.729   3.994
 1919SOL    HW1 5776   2.484   0.798   3.926
 1919SOL    HW2 5777   2.382   0.762   4.048
 1920SOL     OW 5778   3.143   0.345   4.668
 1920SOL    HW1 5779   3.057   0.295   4.655
 1920SOL    HW2 5780   3.205   0.291   4.724
 1921SOL     OW 5781   3.438   1.662   4.031
 1921SOL    HW1 5782   3.527   1.708   4.034
 1921SOL    HW2 5783   3.417   1.638   3.936
 1922SOL     OW 5784   2.903   0.701   4.153
 1922SOL    HW1 5785   2.929   0.697   4.249
 1922SOL    HW2 5786   2.818   0.650   4.139
 1923SOL     OW 5787   1.938   0.811   4.513
 1923SOL    HW1 5788   2.037   0.799   4.522
 1923SOL    HW2 5789   1.914   0.906   4.534
 1924SOL     OW 5790   2.727   0.348   3.919
 1924SOL    HW1 5791   2.786   0.411   3.870
 1924SOL    HW2 5792   2.746   0.254   3.890
 1925SOL     OW 5793   3.224   1.144   4.269
 1925SOL    HW1 5794   3.307   1.115   4.221
 1925SOL    HW2 5795   3.175   1.211   4.213
 1926SOL     OW 5796   2.412   0.196   4.609
 1926SOL    HW1 5797   2.407   0.191   4.709
 1926SOL    HW2 5798   2.414   0.292   4.580
 1927SOL     OW 5799   2.870   1.456   4.201
 1927SOL    HW1 5800   2.824   1.528   4.149
 1927SOL    HW2 5801   2.866   1.476   4.299
 1928SOL     OW 5802   2.213   1.801   4.577
 1928SOL    HW1 5803   2.263   1.715   4.583
 1928SOL    HW2 5804   2.278   1.878   4.574
 1929SOL     OW 5805   3.657   1.066   4.597
 1929SOL    HW1 5806   3.595   1.051   4.521
 1929SOL    HW2 5807   3.605   1.077   4.682
 1930SOL     OW 5808   2.183   0.943   3.966
 1930SOL    HW1 5809   2.265   0.982   3.924
 1930SOL    HW2 5810   2.156   0.861   3.917
 1931SOL     OW 5811   3.320   0.735   4.452
 1931SOL    HW1 5812   3.315   0.670   4.527
 1931SOL    HW2 5813   3.400   0.794   4.465
 1932SOL     OW 5814   2.973   1.776   3.961
 1932SOL    HW1 5815   2.913   1.714   4.011
 1932SOL    HW2 5816   3.004   1.732   3.876
 1933SOL     OW 5817   3.494   1.377   3.805
 1933SOL    HW1 5818   3.462   1.471   3.795
 1933SOL    HW2 5819   3.418   1.314   3.793
 1934SOL     OW 5820   2.326   1.743   4.047
 1934SOL    HW1 5821   2.359   1.782   4.133
 1934SOL    HW2 5822   2.402   1.736   3.982
 1935SOL     OW 5823   3.262   0.107   4.150
 1935SOL    HW1 5824   3.238   0.070   4.060
 1935SOL    HW2 5825   3.361   0.123   4.154
 1936SOL     OW 5826   2.111   1.785   4.965
 1936SOL    HW1 5827   2.168   1.720   5.015
 1936SOL    HW2 5828   2.095   1.752   4.872
 1937SOL     OW 5829   2.802   1.698   4.628
 1937SOL    HW1 5830   2.882   1.641   4.649
 1937SOL    HW2 5831   2.753   1.658   4.551
 1938SOL     OW 5832   2.244   0.700   4.204
 1938SOL    HW1 5833   2.289   0.610   4.201
 1938SOL    HW2 5834   2.150   0.689   4.237
 1939SOL     OW 5835   2.476   0.122   3.841
 1939SOL    HW1 5836   2.574   0.100   3.848
 1939SOL    HW2 5837   2.445   0.105   3.748
 1940SOL     OW 5838   2.665   1.402   4.648
 1940SOL    HW1 5839   2.755   1.416   4.606
 1940SOL    HW2 5840   2.594   1.404   4.577
 1941SOL     OW 5841   2.784   0.503   4.623
 1941SOL    HW1 5842   2.759   0.494   4.527
 1941SOL    HW2 5843   2.832   0.421   4.654
 1942SOL     OW 5844   2.401   0.064   4.236
 1942SOL    HW1 5845   2.320   0.065   4.294
 1942SOL    HW2 5846   2.404   0.147   4.181
 1943SOL     OW 5847   3.296   1.188   3.765
 1943SOL    HW1 5848   3.328   1.112   3.822
 1943SOL    HW2 5849   3.204   1.215   3.795
 1944SOL     OW 5850   2.159   0.035   3.895
 1944SOL    HW1 5851   2.208   0.119   3.874
 1944SOL    HW2 5852   2.221  -0.030   3.940
 1945SOL     OW 5853   2.797   0.236   4.204
 1945SOL    HW1 5854   2.749   0.277   4.126
 1945SOL    HW2 5855   2.896   0.234   4.185
 1946SOL     OW 5856   3.089   1.570   4.517
 1946SOL    HW1 5857   3.110   1.644   4.452
 1946SOL    HW2 5858   3.157   1.570   4.590
 1947SOL     OW 5859   2.321   1.152   4.465
 1947SOL    HW1 5860   2.250   1.125   4.530
 1947SOL    HW2 5861   2.295   1.124   4.372
 1948SOL     OW 5862   3.133   1.797   4.315
 1948SOL    HW1 5863   3.177   1.861   4.251
 1948SOL    HW2 5864   3.083   1.849   4.385
 1949SOL     OW 5865   2.894   0.549   3.740
 1949SOL    HW1 5866   2.853   0.631   3.701
 1949SOL    HW2 5867   2.958   0.575   3.813
 1950SOL     OW 5868   2.728   0.454   4.366
 1950SOL    HW1 5869   2.696   0.526   4.304
 1950SOL    HW2 5870   2.752   0.373   4.313
 1951SOL     OW 5871   2.879   0.039   4.477
 1951SOL    HW1 5872   2.807   0.044   4.408
 1951SOL    HW2 5873   2.855  -0.030   4.546
 1952SOL     OW 5874   3.291   1.173   4.591
 1952SOL    HW1 5875   3.236   1.089   4.584
 1952SOL    HW2 5876   3.317   1.202   4.499
 1953SOL     OW 5877   3.328   0.590   4.716
 1953SOL    HW1 5878   3.298   0.495   4.723
 1953SOL    HW2 5879   3.401   0.606   4.782
 1954SOL     OW 5880   3.719   0.833   4.101
 1954SOL    HW1 5881   3.761   0.769   4.165
 1954SOL    HW2 5882   3.681   0.782   4.023
 1955SOL     OW 5883   2.350   1.385   3.898
 1955SOL    HW1 5884   2.263   1.370   3.945
 1955SOL    HW2 5885   2.333   1.411   3.803
 1956SOL     OW 5886   3.526   1.280   4.381
 1956SOL    HW1 5887   3.625   1.288   4.395
 1956SOL    HW2 5888   3.481   1.364   4.412
 1957SOL     OW 5889   3.252   0.575   3.802
 1957SOL    HW1 5890   3.198   0.554   3.883
 1957SOL    HW2 5891   3.343   0.534   3.811
 1958SOL     OW 5892   2.389   0.256   4.052
 1958SOL    HW1 5893   2.416   0.197   3.977
 1958SOL    HW2 5894   2.389   0.351   4.021
 1959SOL     OW 5895   2.973   1.195   4.824
 1959SOL    HW1 5896   2.933   1.239   4.905
 1959SOL    HW2 5897   2.932   1.232   4.741
 1960SOL     OW 5898   3.500   1.099   4.803
 1960SOL    HW1 5899   3.505   1.180   4.862
 1960SOL    HW2 5900   3.414   1.101   4.752
 1961SOL     OW 5901   2.567   1.050   4.092
 1961SOL    HW1 5902   2.553   1.057   4.191
 1961SOL    HW2 5903   2.651   0.999   4.074
 1962SOL     OW 5904   2.272   0.813   4.975
 1962SOL    HW1 5905   2.358   0.825   5.025
 1962SOL    HW2 5906   2.230   0.726   5.002
 1963SOL     OW 5907   2.229   1.100   4.225
 1963SOL    HW1 5908   2.222   1.183   4.169
 1963SOL    HW2 5909   2.233   1.020   4.165
 1964SOL     OW 5910   2.428   0.537   4.589
 1964SOL    HW1 5911   2.440   0.603   4.515
 1964SOL    HW2 5912   2.474   0.571   4.672
 1965SOL     OW 5913   3.114   1.348   4.112
 1965SOL    HW1 5914   3.164   1.425   4.152
 1965SOL    HW2 5915   3.019   1.350   4.144
 1966SOL     OW 5916   3.444   0.639   4.196
 1966SOL    HW1 5917   3.413   0.700   4.269
 1966SOL    HW2 5918   3.494   0.691   4.127
 1967SOL     OW 5919   2.216   1.510   5.053
 1967SOL    HW1 5920   2.195   1.466   4.966
 1967SOL    HW2 5921   2.313   1.536   5.056
 1968SOL     OW 5922   2.435   0.870   4.753
 1968SOL    HW1 5923   2.479   0.959   4.744
 1968SOL    HW2 5924   2.372   0.870   4.830
 1969SOL     OW 5925   3.071   0.525   3.999
 1969SOL    HW1 5926   3.084   0.441   4.053
 1969SOL    HW2 5927   3.042   0.599   4.059
 1970SOL     OW 5928   2.594   0.634   4.788
 1970SOL    HW1 5929   2.653   0.608   4.712
 1970SOL    HW2 5930   2.566   0.730   4.777
 1971SOL     OW 5931   2.169   0.063   4.342
 1971SOL    HW1 5932   2.158   0.157   4.375
 1971SOL    HW2 5933   2.164   0.000   4.419
 1972SOL     OW 5934   3.484   0.367   4.098
 1972SOL    HW1 5935   3.486   0.291   4.162
 1972SOL    HW2 5936   3.436   0.444   4.138
 1973SOL     OW 5937   2.885   0.766   4.690
 1973SOL    HW1 5938   2.900   0.787   4.786
 1973SOL    HW2 5939   2.855   0.671   4.681
 1974SOL     OW 5940   3.402   0.274   3.849
 1974SOL    HW1 5941   3.341   0.199   3.872
 1974SOL    HW2 5942   3.424   0.326   3.932
 1975SOL     OW 5943   3.165   0.838   3.766
 1975SOL    HW1 5944   3.199   0.745   3.781
 1975SOL    HW2 5945   3.183   0.865   3.671
 1976SOL     OW 5946   2.930   1.333   4.573
 1976SOL    HW1 5947   2.937   1.249   4.518
 1976SOL    HW2 5948   2.992   1.402   4.537
 1977SOL     OW 5949   2.181   0.810   4.673
 1977SOL    HW1 5950   2.274   0.846   4.678
 1977SOL    HW2 5951   2.175   0.725   4.725
 1978SOL     OW 5952   2.201   0.509   4.730
 1978SOL    HW1 5953   2.149   0.426   4.713
 1978SOL    HW2 5954   2.278   0.514   4.666
 1979SOL     OW 5955   1.870   1.326   3.924
 1979SOL    HW1 5956   1.777   1.347   3.893
 1979SOL    HW2 5957   1.880   1.227   3.937
 1980SOL     OW 5958   1.950   1.801   4.651
 1980SOL    HW1 5959   1.908   1.715   4.624
 1980SOL    HW2 5960   2.044   1.804   4.617
 1981SOL     OW 5961   2.366   1.568   4.634
 1981SOL    HW1 5962   2.432   1.642   4.643
 1981SOL    HW2 5963   2.410   1.489   4.592
 1982SOL     OW 5964   2.864   0.796   4.962
 1982SOL    HW1 5965   2.905   0.764   5.048
 1982SOL    HW2 5966   2.768   0.769   4.959
 1983SOL     OW 5967   1.902   0.544   4.838
 1983SOL    HW1 5968   1.987   0.511   4.797
 1983SOL    HW2 5969   1.915   0.559   4.936
 1984SOL     OW 5970   2.677   0.572   4.049
 1984SOL    HW1 5971   2.684   0.483   4.003
 1984SOL    HW2 5972   2.583   0.606   4.041
 1985SOL     OW 5973   2.533   0.464   4.993
 1985SOL    HW1 5974   2.499   0.375   4.963
 1985SOL    HW2 5975   2.559   0.518   4.913
 1986SOL     OW 5976   2.335   0.500   3.915
 1986SOL    HW1 5977   2.396   0.580   3.919
 1986SOL    HW2 5978   2.240   0.531   3.922
 1987SOL     OW 5979   3.164   0.855   4.033
 1987SOL    HW1 5980   3.078   0.824   4.075
 1987SOL    HW2 5981   3.160   0.841   3.934
 1988SOL     OW 5982   3.621   1.747   4.878
 1988SOL    HW1 5983   3.682   1.777   4.805
 1988SOL    HW2 5984   3.583   1.658   4.856
 1989SOL     OW 5985   1.945   1.258   4.746
 1989SOL    HW1 5986   1.940   1.257   4.846
 1989SOL    HW2 5987   1.862   1.217   4.708
 1990SOL     OW 5988   3.588   0.135   4.247
 1990SOL    HW1 5989   3.661   0.118   4.180
 1990SOL    HW2 5990   3.557   0.048   4.285
 1991SOL     OW 5991   3.250   1.573   4.201
 1991SOL    HW1 5992   3.317   1.585   4.127
 1991SOL    HW2 5993   3.210   1.662   4.224
 1992SOL     OW 5994   3.142   0.927   4.396
 1992SOL    HW1 5995   3.202   0.846   4.398
 1992SOL    HW2 5996   3.182   0.996   4.336
 1993SOL     OW 5997   2.534   1.616   3.878
 1993SOL    HW1 5998   2.543   1.626   3.779
 1993SOL    HW2 5999   2.494   1.527   3.899
 1994SOL     OW 6000   3.703   0.175   4.687
 1994SOL    HW1 6001   3.742   0.090   4.651
 1994SOL    HW2 6002   3.605   0.177   4.668
 1995SOL     OW 6003   2.125   0.326   4.444
 1995SOL    HW1 6004   2.046   0.377   4.410
 1995SOL    HW2 6005   2.116   0.311   4.542
 1996SOL     OW 6006   3.056   1.612   3.755
 1996SOL    HW1 6007   3.062   1.519   3.792
 1996SOL    HW2 6008   2.997   1.612   3.675
 1997SOL     OW 6009   2.778   0.910   4.015
 1997SOL    HW1 6010   2.841   0.948   3.947
 1997SOL    HW2 6011   2.818   0.827   4.054
 1998SOL     OW 6012   3.366   1.607   3.768
 1998SOL    HW1 6013   3.274   1.644   3.775
 1998SOL    HW2 6014   3.404   1.627   3.678
 1999SOL     OW 6015   2.901   1.098   4.420
 1999SOL    HW1 6016   2.831   1.051   4.474
 1999SOL    HW2 6017   2.960   1.030   4.377
 2000SOL     OW 6018   2.876   0.236   4.695
 2000SOL    HW1 6019   2.868   0.200   4.602
 2000SOL    HW2 6020   2.874   0.160   4.760
 2001SOL     OW 6021   2.452   1.487   4.215
 2001SOL    HW1 6022   2.494   1.429   4.145
 2001SOL    HW2 6023   2.408   1.566   4.171
 2002SOL     OW 6024   2.117   1.348   4.014
 2002SOL    HW1 6025   2.021   1.349   3.987
 2002SOL    HW2 6026   2.129   1.401   4.098
 2003SOL     OW 6027   1.937   0.345   3.757
 2003SOL    HW1 6028   1.845   0.317   3.728
 2003SOL    HW2 6029   1.968   0.422   3.701
 2004SOL     OW 6030   1.934   0.166   4.042
 2004SOL    HW1 6031   1.917   0.249   3.988
 2004SOL    HW2 6032   2.024   0.129   4.020
 2005SOL     OW 6033   3.045   1.335   3.843
 2005SOL    HW1 6034   2.946   1.324   3.845
 2005SOL    HW2 6035   3.079   1.350   3.936
 2006SOL     OW 6036   3.355   1.767   4.683
 2006SOL    HW1 6037   3.388   1.831   4.614
 2006SOL    HW2 6038   3.421   1.761   4.758
 2007SOL     OW 6039   3.536   0.883   4.978
 2007SOL    HW1 6040   3.509   0.794   4.941
 2007SOL    HW2 6041   3.537   0.951   4.905
 2008SOL     OW 6042   3.087   0.325   4.173
 2008SOL    HW1 6043   3.152   0.251   4.162
 2008SOL    HW2 6044   3.107   0.375   4.257
 2009SOL     OW 6045   2.456   0.745   4.376
 2009SOL    HW1 6046   2.506   0.830   4.357
 2009SOL    HW2 6047   2.368   0.747   4.328
 2010SOL     OW 6048   2.721   1.374   3.740
 2010SOL    HW1 6049   2.675   1.389   3.828
 2010SOL    HW2 6050   2.765   1.459   3.710
 2011SOL     OW 6051   2.523   1.790   4.677
 2011SOL    HW1 6052   2.477   1.878   4.664
 2011SOL    HW2 6053   2.622   1.802   4.670
 2012SOL     OW 6054   2.721   0.956   4.585
 2012SOL    HW1 6055   2.775   0.887   4.633
 2012SOL    HW2 6056   2.689   1.025   4.651
 2013SOL     OW 6057   2.945   0.984   3.811
 2013SOL    HW1 6058   2.922   1.037   3.729
 2013SOL    HW2 6059   3.026   0.928   3.792
 2014SOL     OW 6060   3.723   1.569   4.575
 2014SOL    HW1 6061   3.652   1.557   4.505
 2014SOL    HW2 6062   3.724   1.490   4.635
 2015SOL     OW 6063   1.941   1.240   4.377
 2015SOL    HW1 6064   1.940   1.193   4.465
 2015SOL    HW2 6065   2.023   1.212   4.326
 2016SOL     OW 6066   3.686   0.192   4.951
 2016SOL    HW1 6067   3.682   0.102   4.995
 2016SOL    HW2 6068   3.689   0.181   4.852
 2017SOL     OW 6069   2.290   0.424   4.244
 2017SOL    HW1 6070   2.320   0.352   4.182
 2017SOL    HW2 6071   2.251   0.384   4.327
 2018SOL     OW 6072   2.674   1.586   4.411
 2018SOL    HW1 6073   2.706   1.596   4.317
 2018SOL    HW2 6074   2.595   1.524   4.413
 2019SOL     OW 6075   3.286   0.214   4.836
 2019SOL    HW1 6076   3.338   0.149   4.891
 2019SOL    HW2 6077   3.237   0.277   4.897
 2020SOL     OW 6078   2.632   1.330   4.025
 2020SOL    HW1 6079   2.586   1.243   4.042
 2020SOL    HW2 6080   2.723   1.327   4.066
 2021SOL     OW 6081   3.214   0.052   3.892
 2021SOL    HW1 6082   3.249   0.011   3.808
 2021SOL    HW2 6083   3.124   0.014   3.912
 2022SOL     OW 6084   3.162   0.453   4.415
 2022SOL    HW1 6085   3.103   0.533   4.419
 2022SOL    HW2 6086   3.177   0.418   4.508
 2023SOL     OW 6087   3.455   0.221   4.606
 2023SOL    HW1 6088   3.371   0.220   4.660
 2023SOL    HW2 6089   3.457   0.304   4.550
 2024SOL     OW 6090   1.901   1.077   4.024
 2024SOL    HW1 6091   2.000   1.066   4.015
 2024SOL    HW2 6092   1.861   0.991   4.056
 2025SOL     OW 6093   2.737   1.646   4.061
 2025SOL    HW1 6094   2.660   1.611   4.007
 2025SOL    HW2 6095   2.705   1.717   4.123
 2026SOL     OW 6096   2.092   2.490   0.113
 2026SOL    HW1 6097   1.999   2.488   0.150
 2026SOL    HW2 6098   2.093   2.451   0.021
 2027SOL     OW 6099   2.087   2.137   0.996
 2027SOL    HW1 6100   2.122   2.120   1.088
 2027SOL    HW2 6101   1.999   2.092   0.984
 2028SOL     OW 6102   1.881   2.230   0.647
 2028SOL    HW1 6103   1.799   2.273   0.686
 2028SOL    HW2 6104   1.853   2.157   0.584
 2029SOL     OW 6105   2.431   3.137   1.165
 2029SOL    HW1 6106   2.338   3.130   1.128
 2029SOL    HW2 6107   2.442   3.226   1.209
 2030SOL     OW 6108   3.417   3.373   0.703
 2030SOL    HW1 6109   3.360   3.357   0.784
 2030SOL    HW2 6110   3.358   3.383   0.623
 2031SOL     OW 6111   2.997   2.565   0.717
 2031SOL    HW1 6112   3.054   2.643   0.692
 2031SOL    HW2 6113   2.937   2.591   0.793
 2032SOL     OW 6114   3.617   2.469   0.231
 2032SOL    HW1 6115   3.605   2.456   0.132
 2032SOL    HW2 6116   3.587   2.388   0.280
 2033SOL     OW 6117   2.630   3.006   1.023
 2033SOL    HW1 6118   2.552   3.023   1.083
 2033SOL    HW2 6119   2.664   3.093   0.987
 2034SOL     OW 6120   2.712   2.660   1.823
 2034SOL    HW1 6121   2.708   2.736   1.888
 2034SOL    HW2 6122   2.734   2.696   1.732
 2035SOL     OW 6123   2.547   2.874   0.665
 2035SOL    HW1 6124   2.616   2.858   0.735
 2035SOL    HW2 6125   2.474   2.931   0.703
 2036SOL     OW 6126   2.548   3.023   1.803
 2036SOL    HW1 6127   2.608   3.102   1.817
 2036SOL    HW2 6128   2.462   3.054   1.762
 2037SOL     OW 6129   2.197   3.297   1.061
 2037SOL    HW1 6130   2.119   3.266   1.008
 2037SOL    HW2 6131   2.255   3.355   1.004
 2038SOL     OW 6132   3.322   3.367   1.339
 2038SOL    HW1 6133   3.346   3.461   1.365
 2038SOL    HW2 6134   3.306   3.313   1.421
 2039SOL     OW 6135   2.300   2.254   1.499
 2039SOL    HW1 6136   2.382   2.198   1.508
 2039SOL    HW2 6137   2.219   2.196   1.503
 2040SOL     OW 6138   3.465   2.309   0.737
 2040SOL    HW1 6139   3.391   2.355   0.687
 2040SOL    HW2 6140   3.516   2.377   0.790
 2041SOL     OW 6141   2.093   3.575   0.483
 2041SOL    HW1 6142   2.127   3.652   0.537
 2041SOL    HW2 6143   2.137   3.575   0.393
 2042SOL     OW 6144   2.989   3.203   1.690
 2042SOL    HW1 6145   3.036   3.203   1.778
 2042SOL    HW2 6146   2.941   3.116   1.679
 2043SOL     OW 6147   2.092   3.296   0.538
 2043SOL    HW1 6148   2.066   3.392   0.538
 2043SOL    HW2 6149   2.021   3.242   0.583
 2044SOL     OW 6150   2.102   2.953   0.886
 2044SOL    HW1 6151   2.116   2.869   0.938
 2044SOL    HW2 6152   2.047   3.017   0.941
 2045SOL     OW 6153   2.482   3.648   1.439
 2045SOL    HW1 6154   2.390   3.631   1.474
 2045SOL    HW2 6155   2.510   3.740   1.465
 2046SOL     OW 6156   2.468   2.826   0.123
 2046SOL    HW1 6157   2.475   2.910   0.069
 2046SOL    HW2 6158   2.514   2.839   0.211
 2047SOL     OW 6159   3.456   1.976   1.480
 2047SOL    HW1 6160   3.438   2.043   1.408
 2047SOL    HW2 6161   3.453   2.022   1.569
 2048SOL     OW 6162   1.984   2.505   0.563
 2048SOL    HW1 6163   1.939   2.417   0.580
 2048SOL    HW2 6164   1.983   2.559   0.647
 2049SOL     OW 6165   3.704   3.629   0.359
 2049SOL    HW1 6166   3.758   3.600   0.439
 2049SOL    HW2 6167   3.734   3.719   0.330
 2050SOL     OW 6168   1.889   3.458   0.117
 2050SOL    HW1 6169   1.870   3.362   0.138
 2050SOL    HW2 6170   1.856   3.516   0.192
 2051SOL     OW 6171   3.551   2.784   0.612
 2051SOL    HW1 6172   3.646   2.755   0.620
 2051SOL    HW2 6173   3.543   2.849   0.537
 2052SOL     OW 6174   3.503   2.970   0.432
 2052SOL    HW1 6175   3.589   2.972   0.380
 2052SOL    HW2 6176   3.517   3.017   0.520
 2053SOL     OW 6177   1.975   2.599   1.597
 2053SOL    HW1 6178   2.063   2.586   1.642
 2053SOL    HW2 6179   1.962   2.696   1.575
 2054SOL     OW 6180   2.475   3.227   0.726
 2054SOL    HW1 6181   2.426   3.140   0.735
 2054SOL    HW2 6182   2.452   3.270   0.639
 2055SOL     OW 6183   3.155   3.090   1.423
 2055SOL    HW1 6184   3.192   3.017   1.365
 2055SOL    HW2 6185   3.207   3.095   1.508
 2056SOL     OW 6186   2.671   1.866   0.502
 2056SOL    HW1 6187   2.711   1.957   0.493
 2056SOL    HW2 6188   2.571   1.874   0.508
 2057SOL     OW 6189   2.059   2.838   1.264
 2057SOL    HW1 6190   2.148   2.793   1.250
 2057SOL    HW2 6191   1.986   2.773   1.245
 2058SOL     OW 6192   3.387   2.861   0.190
 2058SOL    HW1 6193   3.324   2.785   0.203
 2058SOL    HW2 6194   3.435   2.879   0.276
 2059SOL     OW 6195   3.049   3.654   1.616
 2059SOL    HW1 6196   3.073   3.714   1.540
 2059SOL    HW2 6197   3.056   3.559   1.586
 2060SOL     OW 6198   2.179   2.113   1.801
 2060SOL    HW1 6199   2.250   2.184   1.807
 2060SOL    HW2 6200   2.091   2.152   1.829
 2061SOL     OW 6201   3.328   3.279   0.953
 2061SOL    HW1 6202   3.269   3.285   1.033
 2061SOL    HW2 6203   3.313   3.191   0.907
 2062SOL     OW 6204   3.529   3.576   0.572
 2062SOL    HW1 6205   3.488   3.553   0.484
 2062SOL    HW2 6206   3.511   3.502   0.637
 2063SOL     OW 6207   2.460   2.591   0.270
 2063SOL    HW1 6208   2.484   2.660   0.202
 2063SOL    HW2 6209   2.382   2.624   0.324
 2064SOL     OW 6210   3.143   2.207   0.944
 2064SOL    HW1 6211   3.057   2.157   0.931
 2064SOL    HW2 6212   3.205   2.153   1.000
 2065SOL     OW 6213   3.438   3.524   0.307
 2065SOL    HW1 6214   3.527   3.570   0.310
 2065SOL    HW2 6215   3.417   3.500   0.212
 2066SOL     OW 6216   2.669   2.467   1.465
 2066SOL    HW1 6217   2.622   2.464   1.554
 2066SOL    HW2 6218   2.618   2.412   1.399
 2067SOL     OW 6219   3.256   2.331   1.674
 2067SOL    HW1 6220   3.236   2.374   1.762
 2067SOL    HW2 6221   3.334   2.269   1.683
 2068SOL     OW 6222   2.835   2.752   1.572
 2068SOL    HW1 6223   2.881   2.668   1.543
 2068SOL    HW2 6224   2.779   2.786   1.497
 2069SOL     OW 6225   2.853   2.272   1.242
 2069SOL    HW1 6226   2.776   2.306   1.296
 2069SOL    HW2 6227   2.819   2.221   1.163
 2070SOL     OW 6228   2.903   2.563   0.429
 2070SOL    HW1 6229   2.929   2.559   0.525
 2070SOL    HW2 6230   2.818   2.512   0.415
 2071SOL     OW 6231   1.938   2.673   0.789
 2071SOL    HW1 6232   2.037   2.661   0.798
 2071SOL    HW2 6233   1.914   2.768   0.810
 2072SOL     OW 6234   1.992   3.683   1.571
 2072SOL    HW1 6235   1.982   3.668   1.670
 2072SOL    HW2 6236   1.906   3.719   1.535
 2073SOL     OW 6237   2.727   2.210   0.195
 2073SOL    HW1 6238   2.786   2.273   0.146
 2073SOL    HW2 6239   2.746   2.116   0.166
 2074SOL     OW 6240   3.581   2.447   1.831
 2074SOL    HW1 6241   3.555   2.536   1.795
 2074SOL    HW2 6242   3.579   2.379   1.758
 2075SOL     OW 6243   3.224   3.006   0.545
 2075SOL    HW1 6244   3.307   2.977   0.497
 2075SOL    HW2 6245   3.175   3.073   0.489
 2076SOL     OW 6246   2.412   2.058   0.885
 2076SOL    HW1 6247   2.407   2.053   0.985
 2076SOL    HW2 6248   2.414   2.154   0.856
 2077SOL     OW 6249   2.870   3.318   0.477
 2077SOL    HW1 6250   2.824   3.390   0.425
 2077SOL    HW2 6251   2.866   3.338   0.575
 2078SOL     OW 6252   2.213   3.663   0.853
 2078SOL    HW1 6253   2.263   3.577   0.859
 2078SOL    HW2 6254   2.278   3.740   0.850
 2079SOL     OW 6255   3.657   2.928   0.873
 2079SOL    HW1 6256   3.595   2.913   0.797
 2079SOL    HW2 6257   3.605   2.939   0.958
 2080SOL     OW 6258   3.089   3.412   1.506
 2080SOL    HW1 6259   3.095   3.335   1.570
 2080SOL    HW2 6260   3.037   3.386   1.426
 2081SOL     OW 6261   2.183   2.805   0.242
 2081SOL    HW1 6262   2.265   2.844   0.200
 2081SOL    HW2 6263   2.156   2.723   0.193
 2082SOL     OW 6264   3.320   2.597   0.728
 2082SOL    HW1 6265   3.315   2.532   0.803
 2082SOL    HW2 6266   3.400   2.656   0.741
 2083SOL     OW 6267   2.323   3.128   1.727
 2083SOL    HW1 6268   2.273   3.129   1.641
 2083SOL    HW2 6269   2.260   3.110   1.803
 2084SOL     OW 6270   2.973   3.638   0.237
 2084SOL    HW1 6271   2.913   3.576   0.287
 2084SOL    HW2 6272   3.004   3.594   0.152
 2085SOL     OW 6273   2.064   2.147   1.498
 2085SOL    HW1 6274   1.984   2.207   1.485
 2085SOL    HW2 6275   2.054   2.098   1.584
 2086SOL     OW 6276   3.494   3.239   0.081
 2086SOL    HW1 6277   3.462   3.333   0.071
 2086SOL    HW2 6278   3.418   3.176   0.069
 2087SOL     OW 6279   2.326   3.605   0.323
 2087SOL    HW1 6280   2.359   3.644   0.409
 2087SOL    HW2 6281   2.402   3.598   0.258
 2088SOL     OW 6282   3.262   1.969   0.426
 2088SOL    HW1 6283   3.238   1.932   0.336
 2088SOL    HW2 6284   3.361   1.985   0.430
 2089SOL     OW 6285   2.111   3.647   1.241
 2089SOL    HW1 6286   2.168   3.582   1.291
 2089SOL    HW2 6287   2.095   3.614   1.148
 2090SOL     OW 6288   2.802   3.560   0.904
 2090SOL    HW1 6289   2.882   3.503   0.925
 2090SOL    HW2 6290   2.753   3.520   0.827
 2091SOL     OW 6291   2.244   2.562   0.480
 2091SOL    HW1 6292   2.289   2.472   0.477
 2091SOL    HW2 6293   2.150   2.551   0.513
 2092SOL     OW 6294   3.409   2.084   1.729
 2092SOL    HW1 6295   3.404   2.121   1.821
 2092SOL    HW2 6296   3.337   2.015   1.717
 2093SOL     OW 6297   2.476   1.984   0.117
 2093SOL    HW1 6298   2.574   1.962   0.124
 2093SOL    HW2 6299   2.445   1.967   0.024
 2094SOL     OW 6300   2.643   2.126   1.749
 2094SOL    HW1 6301   2.710   2.065   1.792
 2094SOL    HW2 6302   2.570   2.145   1.814
 2095SOL     OW 6303   2.750   3.376   1.195
 2095SOL    HW1 6304   2.727   3.351   1.101
 2095SOL    HW2 6305   2.811   3.307   1.234
 2096SOL     OW 6306   3.213   2.452   1.433
 2096SOL    HW1 6307   3.241   2.409   1.518
 2096SOL    HW2 6308   3.238   2.548   1.434
 2097SOL     OW 6309   2.665   3.264   0.924
 2097SOL    HW1 6310   2.755   3.278   0.882
 2097SOL    HW2 6311   2.594   3.266   0.853
 2098SOL     OW 6312   2.784   2.365   0.899
 2098SOL    HW1 6313   2.759   2.356   0.803
 2098SOL    HW2 6314   2.832   2.283   0.930
 2099SOL     OW 6315   2.401   1.926   0.512
 2099SOL    HW1 6316   2.320   1.927   0.570
 2099SOL    HW2 6317   2.404   2.009   0.457
 2100SOL     OW 6318   3.296   3.050   0.041
 2100SOL    HW1 6319   3.328   2.974   0.098
 2100SOL    HW2 6320   3.204   3.077   0.071
 2101SOL     OW 6321   2.797   2.098   0.480
 2101SOL    HW1 6322   2.749   2.139   0.402
 2101SOL    HW2 6323   2.896   2.096   0.461
 2102SOL     OW 6324   2.938   2.545   1.464
 2102SOL    HW1 6325   2.858   2.484   1.467
 2102SOL    HW2 6326   3.019   2.492   1.440
 2103SOL     OW 6327   3.089   3.432   0.793
 2103SOL    HW1 6328   3.110   3.506   0.728
 2103SOL    HW2 6329   3.157   3.432   0.866
 2104SOL     OW 6330   2.321   3.014   0.741
 2104SOL    HW1 6331   2.250   2.987   0.806
 2104SOL    HW2 6332   2.295   2.986   0.648
 2105SOL     OW 6333   3.133   3.659   0.591
 2105SOL    HW1 6334   3.177   3.723   0.527
 2105SOL    HW2 6335   3.083   3.711   0.661
 2106SOL     OW 6336   2.894   2.411   0.016
 2106SOL    HW1 6337   2.853   2.493  -0.023
 2106SOL    HW2 6338   2.958   2.437   0.089
 2107SOL     OW 6339   1.940   2.418   1.386
 2107SOL    HW1 6340   2.032   2.417   1.345
 2107SOL    HW2 6341   1.934   2.492   1.453
 2108SOL     OW 6342   2.423   2.084   1.147
 2108SOL    HW1 6343   2.461   2.000   1.184
 2108SOL    HW2 6344   2.335   2.103   1.191
 2109SOL     OW 6345   2.728   2.316   0.642
 2109SOL    HW1 6346   2.696   2.388   0.580
 2109SOL    HW2 6347   2.752   2.235   0.589
 2110SOL     OW 6348   2.879   1.901   0.753
 2110SOL    HW1 6349   2.807   1.906   0.684
 2110SOL    HW2 6350   2.855   1.832   0.822
 2111SOL     OW 6351   3.291   3.035   0.867
 2111SOL    HW1 6352   3.236   2.951   0.860
 2111SOL    HW2 6353   3.317   3.064   0.775
 2112SOL     OW 6354   3.328   2.452   0.992
 2112SOL    HW1 6355   3.298   2.357   0.999
 2112SOL    HW2 6356   3.401   2.468   1.058
 2113SOL     OW 6357   3.719   2.695   0.377
 2113SOL    HW1 6358   3.761   2.631   0.441
 2113SOL    HW2 6359   3.681   2.644   0.299
 2114SOL     OW 6360   2.350   3.247   0.174
 2114SOL    HW1 6361   2.263   3.232   0.221
 2114SOL    HW2 6362   2.333   3.273   0.079
 2115SOL     OW 6363   3.526   3.142   0.657
 2115SOL    HW1 6364   3.625   3.150   0.671
 2115SOL    HW2 6365   3.481   3.226   0.688
 2116SOL     OW 6366   3.252   2.437   0.078
 2116SOL    HW1 6367   3.198   2.416   0.159
 2116SOL    HW2 6368   3.343   2.396   0.087
 2117SOL     OW 6369   2.389   2.118   0.328
 2117SOL    HW1 6370   2.416   2.059   0.253
 2117SOL    HW2 6371   2.389   2.213   0.297
 2118SOL     OW 6372   3.616   3.085   1.588
 2118SOL    HW1 6373   3.707   3.046   1.575
 2118SOL    HW2 6374   3.624   3.181   1.612
 2119SOL     OW 6375   2.926   3.209   1.340
 2119SOL    HW1 6376   2.846   3.186   1.395
 2119SOL    HW2 6377   3.009   3.183   1.389
 2120SOL     OW 6378   3.454   3.491   1.625
 2120SOL    HW1 6379   3.481   3.525   1.535
 2120SOL    HW2 6380   3.533   3.453   1.671
 2121SOL     OW 6381   2.973   3.057   1.100
 2121SOL    HW1 6382   2.933   3.101   1.181
 2121SOL    HW2 6383   2.932   3.094   1.017
 2122SOL     OW 6384   3.500   2.961   1.079
 2122SOL    HW1 6385   3.505   3.042   1.138
 2122SOL    HW2 6386   3.414   2.963   1.028
 2123SOL     OW 6387   2.777   1.951   1.402
 2123SOL    HW1 6388   2.802   1.931   1.307
 2123SOL    HW2 6389   2.849   2.007   1.444
 2124SOL     OW 6390   2.842   2.978   1.719
 2124SOL    HW1 6391   2.743   2.984   1.729
 2124SOL    HW2 6392   2.865   2.898   1.663
 2125SOL     OW 6393   2.567   2.912   0.368
 2125SOL    HW1 6394   2.553   2.919   0.467
 2125SOL    HW2 6395   2.651   2.861   0.350
 2126SOL     OW 6396   2.272   2.675   1.251
 2126SOL    HW1 6397   2.358   2.687   1.301
 2126SOL    HW2 6398   2.230   2.588   1.278
 2127SOL     OW 6399   3.136   2.248   1.262
 2127SOL    HW1 6400   3.157   2.322   1.326
 2127SOL    HW2 6401   3.047   2.265   1.219
 2128SOL     OW 6402   1.926   3.426   1.331
 2128SOL    HW1 6403   1.880   3.508   1.297
 2128SOL    HW2 6404   2.024   3.445   1.340
 2129SOL     OW 6405   2.229   2.962   0.501
 2129SOL    HW1 6406   2.222   3.045   0.445
 2129SOL    HW2 6407   2.233   2.882   0.441
 2130SOL     OW 6408   2.428   2.399   0.865
 2130SOL    HW1 6409   2.440   2.465   0.791
 2130SOL    HW2 6410   2.474   2.433   0.948
 2131SOL     OW 6411   3.114   3.210   0.388
 2131SOL    HW1 6412   3.164   3.287   0.428
 2131SOL    HW2 6413   3.019   3.212   0.420
 2132SOL     OW 6414   3.134   3.307   1.142
 2132SOL    HW1 6415   3.181   3.320   1.229
 2132SOL    HW2 6416   3.068   3.233   1.151
 2133SOL     OW 6417   3.444   2.501   0.472
 2133SOL    HW1 6418   3.413   2.562   0.545
 2133SOL    HW2 6419   3.494   2.553   0.403
 2134SOL     OW 6420   2.216   3.372   1.329
 2134SOL    HW1 6421   2.195   3.328   1.242
 2134SOL    HW2 6422   2.313   3.398   1.332
 2135SOL     OW 6423   2.264   2.613   1.598
 2135SOL    HW1 6424   2.332   2.668   1.551
 2135SOL    HW2 6425   2.304   2.525   1.625
 2136SOL     OW 6426   3.449   2.641   1.670
 2136SOL    HW1 6427   3.357   2.679   1.665
 2136SOL    HW2 6428   3.509   2.688   1.605
 2137SOL     OW 6429   2.875   1.967   1.770
 2137SOL    HW1 6430   2.881   2.052   1.718
 2137SOL    HW2 6431   2.907   1.891   1.713
 2138SOL     OW 6432   2.366   1.912   1.740
 2138SOL    HW1 6433   2.324   1.855   1.670
 2138SOL    HW2 6434   2.300   1.981   1.772
 2139SOL     OW 6435   2.435   2.732   1.029
 2139SOL    HW1 6436   2.479   2.821   1.020
 2139SOL    HW2 6437   2.372   2.732   1.106
 2140SOL     OW 6438   3.222   2.724   1.045
 2140SOL    HW1 6439   3.147   2.724   0.979
 2140SOL    HW2 6440   3.259   2.632   1.054
 2141SOL     OW 6441   3.071   2.387   0.275
 2141SOL    HW1 6442   3.084   2.303   0.329
 2141SOL    HW2 6443   3.042   2.461   0.335
 2142SOL     OW 6444   2.169   2.075   1.231
 2142SOL    HW1 6445   2.146   2.112   1.321
 2142SOL    HW2 6446   2.139   1.980   1.225
 2143SOL     OW 6447   1.899   3.172   1.282
 2143SOL    HW1 6448   1.952   3.123   1.350
 2143SOL    HW2 6449   1.921   3.270   1.287
 2144SOL     OW 6450   2.594   2.496   1.064
 2144SOL    HW1 6451   2.653   2.470   0.988
 2144SOL    HW2 6452   2.566   2.592   1.053
 2145SOL     OW 6453   3.590   2.797   1.854
 2145SOL    HW1 6454   3.544   2.790   1.765
 2145SOL    HW2 6455   3.528   2.841   1.920
 2146SOL     OW 6456   2.169   1.925   0.618
 2146SOL    HW1 6457   2.158   2.019   0.651
 2146SOL    HW2 6458   2.164   1.862   0.695
 2147SOL     OW 6459   3.484   2.229   0.374
 2147SOL    HW1 6460   3.486   2.153   0.438
 2147SOL    HW2 6461   3.436   2.306   0.414
 2148SOL     OW 6462   2.885   2.628   0.966
 2148SOL    HW1 6463   2.900   2.649   1.062
 2148SOL    HW2 6464   2.855   2.533   0.957
 2149SOL     OW 6465   2.842   3.435   1.700
 2149SOL    HW1 6466   2.822   3.479   1.612
 2149SOL    HW2 6467   2.881   3.344   1.684
 2150SOL     OW 6468   3.721   3.380   1.605
 2150SOL    HW1 6469   3.735   3.407   1.510
 2150SOL    HW2 6470   3.804   3.402   1.658
 2151SOL     OW 6471   2.212   2.760   1.804
 2151SOL    HW1 6472   2.288   2.804   1.852
 2151SOL    HW2 6473   2.247   2.713   1.722
 2152SOL     OW 6474   3.402   2.136   0.125
 2152SOL    HW1 6475   3.341   2.061   0.148
 2152SOL    HW2 6476   3.424   2.188   0.208
 2153SOL     OW 6477   3.165   2.700   0.042
 2153SOL    HW1 6478   3.199   2.607   0.057
 2153SOL    HW2 6479   3.183   2.727  -0.053
 2154SOL     OW 6480   2.930   3.195   0.849
 2154SOL    HW1 6481   2.937   3.111   0.794
 2154SOL    HW2 6482   2.992   3.264   0.813
 2155SOL     OW 6483   2.181   2.672   0.949
 2155SOL    HW1 6484   2.274   2.708   0.954
 2155SOL    HW2 6485   2.175   2.587   1.001
 2156SOL     OW 6486   2.201   2.371   1.006
 2156SOL    HW1 6487   2.149   2.288   0.989
 2156SOL    HW2 6488   2.278   2.376   0.942
 2157SOL     OW 6489   3.000   2.242   1.678
 2157SOL    HW1 6490   2.955   2.305   1.742
 2157SOL    HW2 6491   3.093   2.273   1.661
 2158SOL     OW 6492   3.022   2.069   1.477
 2158SOL    HW1 6493   3.022   2.133   1.554
 2158SOL    HW2 6494   3.050   2.117   1.394
 2159SOL     OW 6495   1.870   3.188   0.200
 2159SOL    HW1 6496   1.777   3.209   0.169
 2159SOL    HW2 6497   1.880   3.089   0.213
 2160SOL     OW 6498   1.950   3.663   0.927
 2160SOL    HW1 6499   1.908   3.577   0.900
 2160SOL    HW2 6500   2.044   3.666   0.893
 2161SOL     OW 6501   2.366   3.430   0.910
 2161SOL    HW1 6502   2.432   3.504   0.919
 2161SOL    HW2 6503   2.410   3.351   0.868
 2162SOL     OW 6504   2.864   2.658   1.238
 2162SOL    HW1 6505   2.905   2.626   1.324
 2162SOL    HW2 6506   2.768   2.631   1.235
 2163SOL     OW 6507   1.902   2.406   1.114
 2163SOL    HW1 6508   1.987   2.373   1.073
 2163SOL    HW2 6509   1.915   2.421   1.212
 2164SOL     OW 6510   2.051   2.382   1.722
 2164SOL    HW1 6511   2.110   2.342   1.652
 2164SOL    HW2 6512   1.993   2.453   1.681
 2165SOL     OW 6513   3.231   2.812   1.660
 2165SOL    HW1 6514   3.270   2.901   1.680
 2165SOL    HW2 6515   3.241   2.792   1.563
 2166SOL     OW 6516   2.677   2.434   0.325
 2166SOL    HW1 6517   2.684   2.345   0.279
 2166SOL    HW2 6518   2.583   2.468   0.317
 2167SOL     OW 6519   3.519   2.466   1.206
 2167SOL    HW1 6520   3.481   2.397   1.268
 2167SOL    HW2 6521   3.601   2.430   1.162
 2168SOL     OW 6522   2.114   3.426   1.744
 2168SOL    HW1 6523   2.084   3.483   1.820
 2168SOL    HW2 6524   2.107   3.329   1.770
 2169SOL     OW 6525   2.533   2.326   1.269
 2169SOL    HW1 6526   2.499   2.237   1.239
 2169SOL    HW2 6527   2.559   2.380   1.189
 2170SOL     OW 6528   2.792   3.540   1.465
 2170SOL    HW1 6529   2.768   3.522   1.370
 2170SOL    HW2 6530   2.822   3.634   1.475
 2171SOL     OW 6531   2.335   2.362   0.191
 2171SOL    HW1 6532   2.396   2.442   0.195
 2171SOL    HW2 6533   2.240   2.393   0.198
 2172SOL     OW 6534   2.021   2.999   1.466
 2172SOL    HW1 6535   2.043   2.938   1.542
 2172SOL    HW2 6536   2.031   2.950   1.380
 2173SOL     OW 6537   3.209   2.921   1.234
 2173SOL    HW1 6538   3.233   2.858   1.160
 2173SOL    HW2 6539   3.119   2.961   1.216
 2174SOL     OW 6540   3.164   2.717   0.309
 2174SOL    HW1 6541   3.078   2.686   0.351
 2174SOL    HW2 6542   3.160   2.703   0.210
 2175SOL     OW 6543   3.621   3.609   1.154
 2175SOL    HW1 6544   3.682   3.639   1.081
 2175SOL    HW2 6545   3.583   3.520   1.132
 2176SOL     OW 6546   3.114   3.593   1.128
 2176SOL    HW1 6547   3.198   3.598   1.074
 2176SOL    HW2 6548   3.091   3.497   1.146
 2177SOL     OW 6549   1.945   3.120   1.022
 2177SOL    HW1 6550   1.940   3.119   1.122
 2177SOL    HW2 6551   1.862   3.079   0.984
 2178SOL     OW 6552   2.550   3.524   1.716
 2178SOL    HW1 6553   2.494   3.605   1.725
 2178SOL    HW2 6554   2.602   3.528   1.630
 2179SOL     OW 6555   2.765   1.948   0.133
 2179SOL    HW1 6556   2.816   1.949   0.047
 2179SOL    HW2 6557   2.821   1.906   0.204
 2180SOL     OW 6558   3.588   1.997   0.523
 2180SOL    HW1 6559   3.661   1.980   0.456
 2180SOL    HW2 6560   3.557   1.910   0.561
 2181SOL     OW 6561   3.250   3.435   0.477
 2181SOL    HW1 6562   3.317   3.447   0.403
 2181SOL    HW2 6563   3.210   3.524   0.500
 2182SOL     OW 6564   1.992   3.656   1.851
 2182SOL    HW1 6565   1.951   3.582   1.904
 2182SOL    HW2 6566   2.056   3.707   1.909
 2183SOL     OW 6567   3.142   2.789   0.672
 2183SOL    HW1 6568   3.202   2.708   0.674
 2183SOL    HW2 6569   3.182   2.858   0.612
 2184SOL     OW 6570   2.692   3.135   1.422
 2184SOL    HW1 6571   2.687   3.168   1.517
 2184SOL    HW2 6572   2.606   3.154   1.376
 2185SOL     OW 6573   2.534   3.478   0.154
 2185SOL    HW1 6574   2.543   3.488   0.055
 2185SOL    HW2 6575   2.494   3.389   0.175
 2186SOL     OW 6576   3.512   3.582   1.394
 2186SOL    HW1 6577   3.565   3.592   1.310
 2186SOL    HW2 6578   3.485   3.672   1.428
 2187SOL     OW 6579   3.703   2.037   0.963
 2187SOL    HW1 6580   3.742   1.952   0.927
 2187SOL    HW2 6581   3.605   2.039   0.944
 2188SOL     OW 6582   2.125   2.188   0.720
 2188SOL    HW1 6583   2.046   2.239   0.686
 2188SOL    HW2 6584   2.116   2.173   0.818
 2189SOL     OW 6585   3.056   3.474   0.031
 2189SOL    HW1 6586   3.062   3.381   0.068
 2189SOL    HW2 6587   2.997   3.474  -0.049
 2190SOL     OW 6588   2.684   2.864   1.372
 2190SOL    HW1 6589   2.724   2.863   1.280
 2190SOL    HW2 6590   2.694   2.956   1.412
 2191SOL     OW 6591   2.778   2.772   0.291
 2191SOL    HW1 6592   2.841   2.810   0.223
 2191SOL    HW2 6593   2.818   2.689   0.330
 2192SOL     OW 6594   3.366   3.469   0.044
 2192SOL    HW1 6595   3.274   3.506   0.051
 2192SOL    HW2 6596   3.404   3.489  -0.046
 2193SOL     OW 6597   2.234   3.150   1.490
 2193SOL    HW1 6598   2.221   3.243   1.456
 2193SOL    HW2 6599   2.150   3.098   1.477
 2194SOL     OW 6600   3.476   3.154   1.289
 2194SOL    HW1 6601   3.536   3.157   1.369
 2194SOL    HW2 6602   3.401   3.218   1.302
 2195SOL     OW 6603   2.901   2.960   0.696
 2195SOL    HW1 6604   2.831   2.913   0.750
 2195SOL    HW2 6605   2.960   2.892   0.653
 2196SOL     OW 6606   2.876   2.098   0.971
 2196SOL    HW1 6607   2.868   2.062   0.878
 2196SOL    HW2 6608   2.874   2.022   1.036
 2197SOL     OW 6609   2.452   3.349   0.491
 2197SOL    HW1 6610   2.494   3.291   0.421
 2197SOL    HW2 6611   2.408   3.428   0.447
 2198SOL     OW 6612   3.571   2.247   1.381
 2198SOL    HW1 6613   3.644   2.316   1.385
 2198SOL    HW2 6614   3.599   2.172   1.322
 2199SOL     OW 6615   2.117   3.210   0.290
 2199SOL    HW1 6616   2.021   3.211   0.263
 2199SOL    HW2 6617   2.129   3.263   0.374
 2200SOL     OW 6618   1.967   2.875   1.726
 2200SOL    HW1 6619   1.890   2.842   1.780
 2200SOL    HW2 6620   2.052   2.845   1.768
 2201SOL     OW 6621   2.534   2.065   1.489
 2201SOL    HW1 6622   2.624   2.049   1.449
 2201SOL    HW2 6623   2.542   2.070   1.588
 2202SOL     OW 6624   3.302   2.718   1.398
 2202SOL    HW1 6625   3.245   2.770   1.335
 2202SOL    HW2 6626   3.398   2.730   1.374
 2203SOL     OW 6627   1.934   2.028   0.318
 2203SOL    HW1 6628   1.917   2.111   0.264
 2203SOL    HW2 6629   2.024   1.991   0.296
 2204SOL     OW 6630   3.045   3.197   0.119
 2204SOL    HW1 6631   2.946   3.186   0.121
 2204SOL    HW2 6632   3.079   3.212   0.212
 2205SOL     OW 6633   2.475   2.704   1.431
 2205SOL    HW1 6634   2.531   2.785   1.414
 2205SOL    HW2 6635   2.534   2.624   1.434
 2206SOL     OW 6636   3.355   3.629   0.959
 2206SOL    HW1 6637   3.388   3.693   0.890
 2206SOL    HW2 6638   3.421   3.623   1.034
 2207SOL     OW 6639   2.578   2.427   1.708
 2207SOL    HW1 6640   2.597   2.492   1.782
 2207SOL    HW2 6641   2.638   2.347   1.717
 2208SOL     OW 6642   3.312   3.082   1.633
 2208SOL    HW1 6643   3.303   3.072   1.732
 2208SOL    HW2 6644   3.408   3.075   1.607
 2209SOL     OW 6645   2.252   3.603   1.560
 2209SOL    HW1 6646   2.161   3.644   1.558
 2209SOL    HW2 6647   2.245   3.509   1.592
 2210SOL     OW 6648   3.536   2.745   1.254
 2210SOL    HW1 6649   3.509   2.656   1.217
 2210SOL    HW2 6650   3.537   2.813   1.181
 2211SOL     OW 6651   3.087   2.187   0.449
 2211SOL    HW1 6652   3.152   2.113   0.438
 2211SOL    HW2 6653   3.107   2.237   0.533
 2212SOL     OW 6654   2.456   2.607   0.652
 2212SOL    HW1 6655   2.506   2.692   0.633
 2212SOL    HW2 6656   2.368   2.609   0.604
 2213SOL     OW 6657   3.639   2.204   1.642
 2213SOL    HW1 6658   3.622   2.235   1.548
 2213SOL    HW2 6659   3.555   2.167   1.680
 2214SOL     OW 6660   3.592   2.796   1.517
 2214SOL    HW1 6661   3.630   2.887   1.532
 2214SOL    HW2 6662   3.584   2.779   1.418
 2215SOL     OW 6663   2.721   3.236   0.016
 2215SOL    HW1 6664   2.675   3.251   0.104
 2215SOL    HW2 6665   2.765   3.321  -0.014
 2216SOL     OW 6666   2.523   3.652   0.953
 2216SOL    HW1 6667   2.477   3.740   0.940
 2216SOL    HW2 6668   2.622   3.664   0.946
 2217SOL     OW 6669   2.721   2.818   0.861
 2217SOL    HW1 6670   2.775   2.749   0.909
 2217SOL    HW2 6671   2.689   2.887   0.927
 2218SOL     OW 6672   2.945   2.846   0.087
 2218SOL    HW1 6673   2.922   2.899   0.005
 2218SOL    HW2 6674   3.026   2.790   0.068
 2219SOL     OW 6675   3.723   3.431   0.851
 2219SOL    HW1 6676   3.652   3.419   0.781
 2219SOL    HW2 6677   3.724   3.352   0.911
 2220SOL     OW 6678   2.083   3.176   1.844
 2220SOL    HW1 6679   2.018   3.103   1.823
 2220SOL    HW2 6680   2.087   3.190   1.942
 2221SOL     OW 6681   1.941   3.102   0.653
 2221SOL    HW1 6682   1.940   3.055   0.741
 2221SOL    HW2 6683   2.023   3.074   0.602
 2222SOL     OW 6684   2.534   3.253   1.624
 2222SOL    HW1 6685   2.456   3.203   1.662
 2222SOL    HW2 6686   2.531   3.348   1.655
 2223SOL     OW 6687   3.686   2.054   1.227
 2223SOL    HW1 6688   3.682   1.964   1.271
 2223SOL    HW2 6689   3.689   2.043   1.128
 2224SOL     OW 6690   2.290   2.286   0.520
 2224SOL    HW1 6691   2.320   2.214   0.458
 2224SOL    HW2 6692   2.251   2.246   0.603
 2225SOL     OW 6693   3.567   3.349   1.104
 2225SOL    HW1 6694   3.474   3.324   1.077
 2225SOL    HW2 6695   3.593   3.299   1.186
 2226SOL     OW 6696   2.179   2.409   1.280
 2226SOL    HW1 6697   2.217   2.350   1.352
 2226SOL    HW2 6698   2.219   2.383   1.192
 2227SOL     OW 6699   2.674   3.448   0.687
 2227SOL    HW1 6700   2.706   3.458   0.593
 2227SOL    HW2 6701   2.595   3.386   0.689
 2228SOL     OW 6702   3.286   2.076   1.112
 2228SOL    HW1 6703   3.338   2.011   1.167
 2228SOL    HW2 6704   3.237   2.139   1.173
 2229SOL     OW 6705   2.863   1.896   1.154
 2229SOL    HW1 6706   2.800   1.824   1.123
 2229SOL    HW2 6707   2.956   1.860   1.154
 2230SOL     OW 6708   2.632   3.192   0.301
 2230SOL    HW1 6709   2.586   3.105   0.318
 2230SOL    HW2 6710   2.723   3.189   0.342
 2231SOL     OW 6711   2.480   3.429   1.284
 2231SOL    HW1 6712   2.475   3.511   1.341
 2231SOL    HW2 6713   2.569   3.426   1.239
 2232SOL     OW 6714   3.214   1.914   0.168
 2232SOL    HW1 6715   3.249   1.873   0.084
 2232SOL    HW2 6716   3.124   1.876   0.188
 2233SOL     OW 6717   3.162   2.315   0.691
 2233SOL    HW1 6718   3.103   2.395   0.695
 2233SOL    HW2 6719   3.177   2.280   0.784
 2234SOL     OW 6720   3.455   2.083   0.882
 2234SOL    HW1 6721   3.371   2.082   0.936
 2234SOL    HW2 6722   3.457   2.166   0.826
 2235SOL     OW 6723   1.901   2.939   0.300
 2235SOL    HW1 6724   2.000   2.928   0.291
 2235SOL    HW2 6725   1.861   2.853   0.332
 2236SOL     OW 6726   2.737   3.508   0.337
 2236SOL    HW1 6727   2.660   3.473   0.283
 2236SOL    HW2 6728   2.705   3.579   0.399
 2237SOL     OW 6729   2.092   2.490   1.975
 2237SOL    HW1 6730   1.999   2.488   2.012
 2237SOL    HW2 6731   2.093   2.451   1.883
 2238SOL     OW 6732   2.087   2.137   2.858
 2238SOL    HW1 6733   2.122   2.120   2.950
 2238SOL    HW2 6734   1.999   2.092   2.846
 2239SOL     OW 6735   1.881   2.230   2.509
 2239SOL    HW1 6736   1.799   2.273   2.548
 2239SOL    HW2 6737   1.853   2.157   2.446
 2240SOL     OW 6738   2.431   3.137   3.027
 2240SOL    HW1 6739   2.338   3.130   2.990
 2240SOL    HW2 6740   2.442   3.226   3.071
 2241SOL     OW 6741   3.417   3.373   2.565
 2241SOL    HW1 6742   3.360   3.357   2.646
 2241SOL    HW2 6743   3.358   3.383   2.485
 2242SOL     OW 6744   2.997   2.565   2.579
 2242SOL    HW1 6745   3.054   2.643   2.554
 2242SOL    HW2 6746   2.937   2.591   2.655
 2243SOL     OW 6747   3.617   2.469   2.093
 2243SOL    HW1 6748   3.605   2.456   1.994
 2243SOL    HW2 6749   3.587   2.388   2.142
 2244SOL     OW 6750   2.630   3.006   2.885
 2244SOL    HW1 6751   2.552   3.023   2.945
 2244SOL    HW2 6752   2.664   3.093   2.849
 2245SOL     OW 6753   2.712   2.660   3.685
 2245SOL    HW1 6754   2.708   2.736   3.750
 2245SOL    HW2 6755   2.734   2.696   3.594
 2246SOL     OW 6756   2.547   2.874   2.527
 2246SOL    HW1 6757   2.616   2.858   2.597
 2246SOL    HW2 6758   2.474   2.931   2.565
 2247SOL     OW 6759   2.548   3.023   3.665
 2247SOL    HW1 6760   2.608   3.102   3.679
 2247SOL    HW2 6761   2.462   3.054   3.624
 2248SOL     OW 6762   2.197   3.297   2.923
 2248SOL    HW1 6763   2.119   3.266   2.870
 2248SOL    HW2 6764   2.255   3.355   2.866
 2249SOL     OW 6765   3.322   3.367   3.201
 2249SOL    HW1 6766   3.346   3.461   3.227
 2249SOL    HW2 6767   3.306   3.313   3.283
 2250SOL     OW 6768   2.300   2.254   3.361
 2250SOL    HW1 6769   2.382   2.198   3.370
 2250SOL    HW2 6770   2.219   2.196   3.365
 2251SOL     OW 6771   3.465   2.309   2.599
 2251SOL    HW1 6772   3.391   2.355   2.549
 2251SOL    HW2 6773   3.516   2.377   2.652
 2252SOL     OW 6774   2.093   3.575   2.345
 2252SOL    HW1 6775   2.127   3.652   2.399
 2252SOL    HW2 6776   2.137   3.575   2.255
 2253SOL     OW 6777   2.989   3.203   3.552
 2253SOL    HW1 6778   3.036   3.203   3.640
 2253SOL    HW2 6779   2.941   3.116   3.541
 2254SOL     OW 6780   2.092   3.296   2.400
 2254SOL    HW1 6781   2.066   3.392   2.400
 2254SOL    HW2 6782   2.021   3.242   2.445
 2255SOL     OW 6783   2.102   2.953   2.748
 2255SOL    HW1 6784   2.116   2.869   2.800
 2255SOL    HW2 6785   2.047   3.017   2.803
 2256SOL     OW 6786   2.482   3.648   3.301
 2256SOL    HW1 6787   2.390   3.631   3.336
 2256SOL    HW2 6788   2.510   3.740   3.327
 2257SOL     OW 6789   2.468   2.826   1.985
 2257SOL    HW1 6790   2.475   2.910   1.931
 2257SOL    HW2 6791   2.514   2.839   2.073
 2258SOL     OW 6792   3.456   1.976   3.342
 2258SOL    HW1 6793   3.438   2.043   3.270
 2258SOL    HW2 6794   3.453   2.022   3.431
 2259SOL     OW 6795   1.984   2.505   2.425
 2259SOL    HW1 6796   1.939   2.417   2.442
 2259SOL    HW2 6797   1.983   2.559   2.509
 2260SOL     OW 6798   3.704   3.629   2.221
 2260SOL    HW1 6799   3.758   3.600   2.301
 2260SOL    HW2 6800   3.734   3.719   2.192
 2261SOL     OW 6801   1.889   3.458   1.979
 2261SOL    HW1 6802   1.870   3.362   2.000
 2261SOL    HW2 6803   1.856   3.516   2.054
 2262SOL     OW 6804   3.551   2.784   2.474
 2262SOL    HW1 6805   3.646   2.755   2.482
 2262SOL    HW2 6806   3.543   2.849   2.399
 2263SOL     OW 6807   3.503   2.970   2.294
 2263SOL    HW1 6808   3.589   2.972   2.242
 2263SOL    HW2 6809   3.517   3.017   2.382
 2264SOL     OW 6810   1.975   2.599   3.459
 2264SOL    HW1 6811   2.063   2.586   3.504
 2264SOL    HW2 6812   1.962   2.696   3.437
 2265SOL     OW 6813   2.475   3.227   2.588
 2265SOL    HW1 6814   2.426   3.140   2.597
 2265SOL    HW2 6815   2.452   3.270   2.501
 2266SOL     OW 6816   3.155   3.090   3.285
 2266SOL    HW1 6817   3.192   3.017   3.227
 2266SOL    HW2 6818   3.207   3.095   3.370
 2267SOL     OW 6819   2.671   1.866   2.364
 2267SOL    HW1 6820   2.711   1.957   2.355
 2267SOL    HW2 6821   2.571   1.874   2.370
 2268SOL     OW 6822   2.059   2.838   3.126
 2268SOL    HW1 6823   2.148   2.793   3.112
 2268SOL    HW2 6824   1.986   2.773   3.107
 2269SOL     OW 6825   3.387   2.861   2.052
 2269SOL    HW1 6826   3.324   2.785   2.065
 2269SOL    HW2 6827   3.435   2.879   2.138
 2270SOL     OW 6828   3.049   3.654   3.478
 2270SOL    HW1 6829   3.073   3.714   3.402
 2270SOL    HW2 6830   3.056   3.559   3.448
 2271SOL     OW 6831   2.179   2.113   3.663
 2271SOL    HW1 6832   2.250   2.184   3.669
 2271SOL    HW2 6833   2.091   2.152   3.691
 2272SOL     OW 6834   3.328   3.279   2.815
 2272SOL    HW1 6835   3.269   3.285   2.895
 2272SOL    HW2 6836   3.313   3.191   2.769
 2273SOL     OW 6837   3.529   3.576   2.434
 2273SOL    HW1 6838   3.488   3.553   2.346
 2273SOL    HW2 6839   3.511   3.502   2.499
 2274SOL     OW 6840   3.143   2.207   2.806
 2274SOL    HW1 6841   3.057   2.157   2.793
 2274SOL    HW2 6842   3.205   2.153   2.862
 2275SOL     OW 6843   3.438   3.524   2.169
 2275SOL    HW1 6844   3.527   3.570   2.172
 2275SOL    HW2 6845   3.417   3.500   2.074
 2276SOL     OW 6846   2.669   2.467   3.327
 2276SOL    HW1 6847   2.622   2.464   3.416
 2276SOL    HW2 6848   2.618   2.412   3.261
 2277SOL     OW 6849   3.256   2.331   3.536
 2277SOL    HW1 6850   3.236   2.374   3.624
 2277SOL    HW2 6851   3.334   2.269   3.545
 2278SOL     OW 6852   2.835   2.752   3.434
 2278SOL    HW1 6853   2.881   2.668   3.405
 2278SOL    HW2 6854   2.779   2.786   3.359
 2279SOL     OW 6855   2.853   2.272   3.104
 2279SOL    HW1 6856   2.776   2.306   3.158
 2279SOL    HW2 6857   2.819   2.221   3.025
 2280SOL     OW 6858   2.903   2.563   2.291
 2280SOL    HW1 6859   2.929   2.559   2.387
 2280SOL    HW2 6860   2.818   2.512   2.277
 2281SOL     OW 6861   1.938   2.673   2.651
 2281SOL    HW1 6862   2.037   2.661   2.660
 2281SOL    HW2 6863   1.914   2.768   2.672
 2282SOL     OW 6864   1.992   3.683   3.433
 2282SOL    HW1 6865   1.982   3.668   3.532
 2282SOL    HW2 6866   1.906   3.719   3.397
 2283SOL     OW 6867   2.727   2.210   2.057
 2283SOL    HW1 6868   2.786   2.273   2.008
 2283SOL    HW2 6869   2.746   2.116   2.028
 2284SOL     OW 6870   3.581   2.447   3.693
 2284SOL    HW1 6871   3.555   2.536   3.657
 2284SOL    HW2 6872   3.579   2.379   3.620
 2285SOL     OW 6873   3.224   3.006   2.407
 2285SOL    HW1 6874   3.307   2.977   2.359
 2285SOL    HW2 6875   3.175   3.073   2.351
 2286SOL     OW 6876   2.870   3.318   2.339
 2286SOL    HW1 6877   2.824   3.390   2.287
 2286SOL    HW2 6878   2.866   3.338   2.437
 2287SOL     OW 6879   2.213   3.663   2.715
 2287SOL    HW1 6880   2.263   3.577   2.721
 2287SOL    HW2 6881   2.278   3.740   2.712
 2288SOL     OW 6882   3.657   2.928   2.735
 2288SOL    HW1 6883   3.595   2.913   2.659
 2288SOL    HW2 6884   3.605   2.939   2.820
 2289SOL     OW 6885   3.089   3.412   3.368
 2289SOL    HW1 6886   3.095   3.335   3.432
 2289SOL    HW2 6887   3.037   3.386   3.288
 2290SOL     OW 6888   2.183   2.805   2.104
 2290SOL    HW1 6889   2.265   2.844   2.062
 2290SOL    HW2 6890   2.156   2.723   2.055
 2291SOL     OW 6891   3.320   2.597   2.590
 2291SOL    HW1 6892   3.315   2.532   2.665
 2291SOL    HW2 6893   3.400   2.656   2.603
 2292SOL     OW 6894   2.323   3.128   3.589
 2292SOL    HW1 6895   2.273   3.129   3.503
 2292SOL    HW2 6896   2.260   3.110   3.665
 2293SOL     OW 6897   2.973   3.638   2.099
 2293SOL    HW1 6898   2.913   3.576   2.149
 2293SOL    HW2 6899   3.004   3.594   2.014
 2294SOL     OW 6900   2.064   2.147   3.360
 2294SOL    HW1 6901   1.984   2.207   3.347
 2294SOL    HW2 6902   2.054   2.098   3.446
 2295SOL     OW 6903   3.494   3.239   1.943
 2295SOL    HW1 6904   3.462   3.333   1.933
 2295SOL    HW2 6905   3.418   3.176   1.931
 2296SOL     OW 6906   2.326   3.605   2.185
 2296SOL    HW1 6907   2.359   3.644   2.271
 2296SOL    HW2 6908   2.402   3.598   2.120
 2297SOL     OW 6909   3.262   1.969   2.288
 2297SOL    HW1 6910   3.238   1.932   2.198
 2297SOL    HW2 6911   3.361   1.985   2.292
 2298SOL     OW 6912   2.111   3.647   3.103
 2298SOL    HW1 6913   2.168   3.582   3.153
 2298SOL    HW2 6914   2.095   3.614   3.010
 2299SOL     OW 6915   2.802   3.560   2.766
 2299SOL    HW1 6916   2.882   3.503   2.787
 2299SOL    HW2 6917   2.753   3.520   2.689
 2300SOL     OW 6918   3.409   2.084   3.591
 2300SOL    HW1 6919   3.404   2.121   3.683
 2300SOL    HW2 6920   3.337   2.015   3.579
 2301SOL     OW 6921   2.476   1.984   1.979
 2301SOL    HW1 6922   2.574   1.962   1.986
 2301SOL    HW2 6923   2.445   1.967   1.886
 2302SOL     OW 6924   2.643   2.126   3.611
 2302SOL    HW1 6925   2.710   2.065   3.654
 2302SOL    HW2 6926   2.570   2.145   3.676
 2303SOL     OW 6927   2.750   3.376   3.057
 2303SOL    HW1 6928   2.727   3.351   2.963
 2303SOL    HW2 6929   2.811   3.307   3.096
 2304SOL     OW 6930   3.213   2.452   3.295
 2304SOL    HW1 6931   3.241   2.409   3.380
 2304SOL    HW2 6932   3.238   2.548   3.296
 2305SOL     OW 6933   2.665   3.264   2.786
 2305SOL    HW1 6934   2.755   3.278   2.744
 2305SOL    HW2 6935   2.594   3.266   2.715
 2306SOL     OW 6936   2.401   1.926   2.374
 2306SOL    HW1 6937   2.320   1.927   2.432
 2306SOL    HW2 6938   2.404   2.009   2.319
 2307SOL     OW 6939   3.296   3.050   1.903
 2307SOL    HW1 6940   3.328   2.974   1.960
 2307SOL    HW2 6941   3.204   3.077   1.933
 2308SOL     OW 6942   2.159   1.897   2.033
 2308SOL    HW1 6943   2.208   1.981   2.012
 2308SOL    HW2 6944   2.221   1.832   2.078
 2309SOL     OW 6945   2.797   2.098   2.342
 2309SOL    HW1 6946   2.749   2.139   2.264
 2309SOL    HW2 6947   2.896   2.096   2.323
 2310SOL     OW 6948   2.938   2.545   3.326
 2310SOL    HW1 6949   2.858   2.484   3.329
 2310SOL    HW2 6950   3.019   2.492   3.302
 2311SOL     OW 6951   3.089   3.432   2.655
 2311SOL    HW1 6952   3.110   3.506   2.590
 2311SOL    HW2 6953   3.157   3.432   2.728
 2312SOL     OW 6954   2.321   3.014   2.603
 2312SOL    HW1 6955   2.250   2.987   2.668
 2312SOL    HW2 6956   2.295   2.986   2.510
 2313SOL     OW 6957   3.133   3.659   2.453
 2313SOL    HW1 6958   3.177   3.723   2.389
 2313SOL    HW2 6959   3.083   3.711   2.523
 2314SOL     OW 6960   2.894   2.411   1.878
 2314SOL    HW1 6961   2.853   2.493   1.839
 2314SOL    HW2 6962   2.958   2.437   1.951
 2315SOL     OW 6963   1.940   2.418   3.248
 2315SOL    HW1 6964   2.032   2.417   3.207
 2315SOL    HW2 6965   1.934   2.492   3.315
 2316SOL     OW 6966   2.423   2.084   3.009
 2316SOL    HW1 6967   2.461   2.000   3.046
 2316SOL    HW2 6968   2.335   2.103   3.053
 2317SOL     OW 6969   2.879   1.901   2.615
 2317SOL    HW1 6970   2.807   1.906   2.546
 2317SOL    HW2 6971   2.855   1.832   2.684
 2318SOL     OW 6972   3.291   3.035   2.729
 2318SOL    HW1 6973   3.236   2.951   2.722
 2318SOL    HW2 6974   3.317   3.064   2.637
 2319SOL     OW 6975   3.328   2.452   2.854
 2319SOL    HW1 6976   3.298   2.357   2.861
 2319SOL    HW2 6977   3.401   2.468   2.920
 2320SOL     OW 6978   3.719   2.695   2.239
 2320SOL    HW1 6979   3.761   2.631   2.303
 2320SOL    HW2 6980   3.681   2.644   2.161
 2321SOL     OW 6981   2.350   3.247   2.036
 2321SOL    HW1 6982   2.263   3.232   2.083
 2321SOL    HW2 6983   2.333   3.273   1.941
 2322SOL     OW 6984   3.526   3.142   2.519
 2322SOL    HW1 6985   3.625   3.150   2.533
 2322SOL    HW2 6986   3.481   3.226   2.550
 2323SOL     OW 6987   3.252   2.437   1.940
 2323SOL    HW1 6988   3.198   2.416   2.021
 2323SOL    HW2 6989   3.343   2.396   1.949
 2324SOL     OW 6990   3.616   3.085   3.450
 2324SOL    HW1 6991   3.707   3.046   3.437
 2324SOL    HW2 6992   3.624   3.181   3.474
 2325SOL     OW 6993   2.926   3.209   3.202
 2325SOL    HW1 6994   2.846   3.186   3.257
 2325SOL    HW2 6995   3.009   3.183   3.251
 2326SOL     OW 6996   3.454   3.491   3.487
 2326SOL    HW1 6997   3.481   3.525   3.397
 2326SOL    HW2 6998   3.533   3.453   3.533
 2327SOL     OW 6999   2.973   3.057   2.962
 2327SOL    HW1 7000   2.933   3.101   3.043
 2327SOL    HW2 7001   2.932   3.094   2.879
 2328SOL     OW 7002   3.500   2.961   2.941
 2328SOL    HW1 7003   3.505   3.042   3.000
 2328SOL    HW2 7004   3.414   2.963   2.890
 2329SOL     OW 7005   2.777   1.951   3.264
 2329SOL    HW1 7006   2.802   1.931   3.169
 2329SOL    HW2 7007   2.849   2.007   3.306
 2330SOL     OW 7008   2.842   2.978   3.581
 2330SOL    HW1 7009   2.743   2.984   3.591
 2330SOL    HW2 7010   2.865   2.898   3.525
 2331SOL     OW 7011   2.567   2.912   2.230
 2331SOL    HW1 7012   2.553   2.919   2.329
 2331SOL    HW2 7013   2.651   2.861   2.212
 2332SOL     OW 7014   2.272   2.675   3.113
 2332SOL    HW1 7015   2.358   2.687   3.163
 2332SOL    HW2 7016   2.230   2.588   3.140
 2333SOL     OW 7017   3.136   2.248   3.124
 2333SOL    HW1 7018   3.157   2.322   3.188
 2333SOL    HW2 7019   3.047   2.265   3.081
 2334SOL     OW 7020   1.926   3.426   3.193
 2334SOL    HW1 7021   1.880   3.508   3.159
 2334SOL    HW2 7022   2.024   3.445   3.202
 2335SOL     OW 7023   2.229   2.962   2.363
 2335SOL    HW1 7024   2.222   3.045   2.307
 2335SOL    HW2 7025   2.233   2.882   2.303
 2336SOL     OW 7026   3.114   3.210   2.250
 2336SOL    HW1 7027   3.164   3.287   2.290
 2336SOL    HW2 7028   3.019   3.212   2.282
 2337SOL     OW 7029   3.134   3.307   3.004
 2337SOL    HW1 7030   3.181   3.320   3.091
 2337SOL    HW2 7031   3.068   3.233   3.013
 2338SOL     OW 7032   3.444   2.501   2.334
 2338SOL    HW1 7033   3.413   2.562   2.407
 2338SOL    HW2 7034   3.494   2.553   2.265
 2339SOL     OW 7035   2.216   3.372   3.191
 2339SOL    HW1 7036   2.195   3.328   3.104
 2339SOL    HW2 7037   2.313   3.398   3.194
 2340SOL     OW 7038   2.264   2.613   3.460
 2340SOL    HW1 7039   2.332   2.668   3.413
 2340SOL    HW2 7040   2.304   2.525   3.487
 2341SOL     OW 7041   3.449   2.641   3.532
 2341SOL    HW1 7042   3.357   2.679   3.527
 2341SOL    HW2 7043   3.509   2.688   3.467
 2342SOL     OW 7044   2.875   1.967   3.632
 2342SOL    HW1 7045   2.881   2.052   3.580
 2342SOL    HW2 7046   2.907   1.891   3.575
 2343SOL     OW 7047   2.366   1.912   3.602
 2343SOL    HW1 7048   2.324   1.855   3.532
 2343SOL    HW2 7049   2.300   1.981   3.634
 2344SOL     OW 7050   2.435   2.732   2.891
 2344SOL    HW1 7051   2.479   2.821   2.882
 2344SOL    HW2 7052   2.372   2.732   2.968
 2345SOL     OW 7053   3.222   2.724   2.907
 2345SOL    HW1 7054   3.147   2.724   2.841
 2345SOL    HW2 7055   3.259   2.632   2.916
 2346SOL     OW 7056   3.071   2.387   2.137
 2346SOL    HW1 7057   3.084   2.303   2.191
 2346SOL    HW2 7058   3.042   2.461   2.197
 2347SOL     OW 7059   2.169   2.075   3.093
 2347SOL    HW1 7060   2.146   2.112   3.183
 2347SOL    HW2 7061   2.139   1.980   3.087
 2348SOL     OW 7062   1.899   3.172   3.144
 2348SOL    HW1 7063   1.952   3.123   3.212
 2348SOL    HW2 7064   1.921   3.270   3.149
 2349SOL     OW 7065   2.594   2.496   2.926
 2349SOL    HW1 7066   2.653   2.470   2.850
 2349SOL    HW2 7067   2.566   2.592   2.915
 2350SOL     OW 7068   3.590   2.797   3.716
 2350SOL    HW1 7069   3.544   2.790   3.627
 2350SOL    HW2 7070   3.528   2.841   3.782
 2351SOL     OW 7071   2.169   1.925   2.480
 2351SOL    HW1 7072   2.158   2.019   2.513
 2351SOL    HW2 7073   2.164   1.862   2.557
 2352SOL     OW 7074   3.484   2.229   2.236
 2352SOL    HW1 7075   3.486   2.153   2.300
 2352SOL    HW2 7076   3.436   2.306   2.276
 2353SOL     OW 7077   2.885   2.628   2.828
 2353SOL    HW1 7078   2.900   2.649   2.924
 2353SOL    HW2 7079   2.855   2.533   2.819
 2354SOL     OW 7080   2.842   3.435   3.562
 2354SOL    HW1 7081   2.822   3.479   3.474
 2354SOL    HW2 7082   2.881   3.344   3.546
 2355SOL     OW 7083   3.721   3.380   3.467
 2355SOL    HW1 7084   3.735   3.407   3.372
 2355SOL    HW2 7085   3.804   3.402   3.520
 2356SOL     OW 7086   2.212   2.760   3.666
 2356SOL    HW1 7087   2.288   2.804   3.714
 2356SOL    HW2 7088   2.247   2.713   3.584
 2357SOL     OW 7089   3.402   2.136   1.987
 2357SOL    HW1 7090   3.341   2.061   2.010
 2357SOL    HW2 7091   3.424   2.188   2.070
 2358SOL     OW 7092   3.165   2.700   1.904
 2358SOL    HW1 7093   3.199   2.607   1.919
 2358SOL    HW2 7094   3.183   2.727   1.809
 2359SOL     OW 7095   2.930   3.195   2.711
 2359SOL    HW1 7096   2.937   3.111   2.656
 2359SOL    HW2 7097   2.992   3.264   2.675
 2360SOL     OW 7098   2.181   2.672   2.811
 2360SOL    HW1 7099   2.274   2.708   2.816
 2360SOL    HW2 7100   2.175   2.587   2.863
 2361SOL     OW 7101   3.000   2.242   3.540
 2361SOL    HW1 7102   2.955   2.305   3.604
 2361SOL    HW2 7103   3.093   2.273   3.523
 2362SOL     OW 7104   3.022   2.069   3.339
 2362SOL    HW1 7105   3.022   2.133   3.416
 2362SOL    HW2 7106   3.050   2.117   3.256
 2363SOL     OW 7107   1.870   3.188   2.062
 2363SOL    HW1 7108   1.777   3.209   2.031
 2363SOL    HW2 7109   1.880   3.089   2.075
 2364SOL     OW 7110   1.950   3.663   2.789
 2364SOL    HW1 7111   1.908   3.577   2.762
 2364SOL    HW2 7112   2.044   3.666   2.755
 2365SOL     OW 7113   2.366   3.430   2.772
 2365SOL    HW1 7114   2.432   3.504   2.781
 2365SOL    HW2 7115   2.410   3.351   2.730
 2366SOL     OW 7116   2.864   2.658   3.100
 2366SOL    HW1 7117   2.905   2.626   3.186
 2366SOL    HW2 7118   2.768   2.631   3.097
 2367SOL     OW 7119   1.902   2.406   2.976
 2367SOL    HW1 7120   1.987   2.373   2.935
 2367SOL    HW2 7121   1.915   2.421   3.074
 2368SOL     OW 7122   2.051   2.382   3.584
 2368SOL    HW1 7123   2.110   2.342   3.514
 2368SOL    HW2 7124   1.993   2.453   3.543
 2369SOL     OW 7125   3.231   2.812   3.522
 2369SOL    HW1 7126   3.270   2.901   3.542
 2369SOL    HW2 7127   3.241   2.792   3.425
 2370SOL     OW 7128   2.677   2.434   2.187
 2370SOL    HW1 7129   2.684   2.345   2.141
 2370SOL    HW2 7130   2.583   2.468   2.179
 2371SOL     OW 7131   3.519   2.466   3.068
 2371SOL    HW1 7132   3.481   2.397   3.130
 2371SOL    HW2 7133   3.601   2.430   3.024
 2372SOL     OW 7134   2.114   3.426   3.606
 2372SOL    HW1 7135   2.084   3.483   3.682
 2372SOL    HW2 7136   2.107   3.329   3.632
 2373SOL     OW 7137   2.533   2.326   3.131
 2373SOL    HW1 7138   2.499   2.237   3.101
 2373SOL    HW2 7139   2.559   2.380   3.051
 2374SOL     OW 7140   2.792   3.540   3.327
 2374SOL    HW1 7141   2.768   3.522   3.232
 2374SOL    HW2 7142   2.822   3.634   3.337
 2375SOL     OW 7143   2.021   2.999   3.328
 2375SOL    HW1 7144   2.043   2.938   3.404
 2375SOL    HW2 7145   2.031   2.950   3.242
 2376SOL     OW 7146   3.209   2.921   3.096
 2376SOL    HW1 7147   3.233   2.858   3.022
 2376SOL    HW2 7148   3.119   2.961   3.078
 2377SOL     OW 7149   3.164   2.717   2.171
 2377SOL    HW1 7150   3.078   2.686   2.213
 2377SOL    HW2 7151   3.160   2.703   2.072
 2378SOL     OW 7152   3.621   3.609   3.016
 2378SOL    HW1 7153   3.682   3.639   2.943
 2378SOL    HW2 7154   3.583   3.520   2.994
 2379SOL     OW 7155   3.114   3.593   2.990
 2379SOL    HW1 7156   3.198   3.598   2.936
 2379SOL    HW2 7157   3.091   3.497   3.008
 2380SOL     OW 7158   1.945   3.120   2.884
 2380SOL    HW1 7159   1.940   3.119   2.984
 2380SOL    HW2 7160   1.862   3.079   2.846
 2381SOL     OW 7161   2.550   3.524   3.578
 2381SOL    HW1 7162   2.494   3.605   3.587
 2381SOL    HW2 7163   2.602   3.528   3.492
 2382SOL     OW 7164   3.588   1.997   2.385
 2382SOL    HW1 7165   3.661   1.980   2.318
 2382SOL    HW2 7166   3.557   1.910   2.423
 2383SOL     OW 7167   3.250   3.435   2.339
 2383SOL    HW1 7168   3.317   3.447   2.265
 2383SOL    HW2 7169   3.210   3.524   2.362
 2384SOL     OW 7170   1.992   3.656   3.713
 2384SOL    HW1 7171   1.951   3.582   3.766
 2384SOL    HW2 7172   2.056   3.707   3.771
 2385SOL     OW 7173   3.142   2.789   2.534
 2385SOL    HW1 7174   3.202   2.708   2.536
 2385SOL    HW2 7175   3.182   2.858   2.474
 2386SOL     OW 7176   2.692   3.135   3.284
 2386SOL    HW1 7177   2.687   3.168   3.379
 2386SOL    HW2 7178   2.606   3.154   3.238
 2387SOL     OW 7179   2.534   3.478   2.016
 2387SOL    HW1 7180   2.543   3.488   1.917
 2387SOL    HW2 7181   2.494   3.389   2.037
 2388SOL     OW 7182   3.512   3.582   3.256
 2388SOL    HW1 7183   3.565   3.592   3.172
 2388SOL    HW2 7184   3.485   3.672   3.290
 2389SOL     OW 7185   3.703   2.037   2.825
 2389SOL    HW1 7186   3.742   1.952   2.789
 2389SOL    HW2 7187   3.605   2.039   2.806
 2390SOL     OW 7188   2.125   2.188   2.582
 2390SOL    HW1 7189   2.046   2.239   2.548
 2390SOL    HW2 7190   2.116   2.173   2.680
 2391SOL     OW 7191   3.056   3.474   1.893
 2391SOL    HW1 7192   3.062   3.381   1.930
 2391SOL    HW2 7193   2.997   3.474   1.813
 2392SOL     OW 7194   2.684   2.864   3.234
 2392SOL    HW1 7195   2.724   2.863   3.142
 2392SOL    HW2 7196   2.694   2.956   3.274
 2393SOL     OW 7197   2.778   2.772   2.153
 2393SOL    HW1 7198   2.841   2.810   2.085
 2393SOL    HW2 7199   2.818   2.689   2.192
 2394SOL     OW 7200   3.366   3.469   1.906
 2394SOL    HW1 7201   3.274   3.506   1.913
 2394SOL    HW2 7202   3.404   3.489   1.816
 2395SOL     OW 7203   2.234   3.150   3.352
 2395SOL    HW1 7204   2.221   3.243   3.318
 2395SOL    HW2 7205   2.150   3.098   3.339
 2396SOL     OW 7206   3.476   3.154   3.151
 2396SOL    HW1 7207   3.536   3.157   3.231
 2396SOL    HW2 7208   3.401   3.218   3.164
 2397SOL     OW 7209   2.901   2.960   2.558
 2397SOL    HW1 7210   2.831   2.913   2.612
 2397SOL    HW2 7211   2.960   2.892   2.515
 2398SOL     OW 7212   2.876   2.098   2.833
 2398SOL    HW1 7213   2.868   2.062   2.740
 2398SOL    HW2 7214   2.874   2.022   2.898
 2399SOL     OW 7215   2.452   3.349   2.353
 2399SOL    HW1 7216   2.494   3.291   2.283
 2399SOL    HW2 7217   2.408   3.428   2.309
 2400SOL     OW 7218   3.571   2.247   3.243
 2400SOL    HW1 7219   3.644   2.316   3.247
 2400SOL    HW2 7220   3.599   2.172   3.184
 2401SOL     OW 7221   2.117   3.210   2.152
 2401SOL    HW1 7222   2.021   3.211   2.125
 2401SOL    HW2 7223   2.129   3.263   2.236
 2402SOL     OW 7224   1.967   2.875   3.588
 2402SOL    HW1 7225   1.890   2.842   3.642
 2402SOL    HW2 7226   2.052   2.845   3.630
 2403SOL     OW 7227   2.534   2.065   3.351
 2403SOL    HW1 7228   2.624   2.049   3.311
 2403SOL    HW2 7229   2.542   2.070   3.450
 2404SOL     OW 7230   1.937   2.207   1.895
 2404SOL    HW1 7231   1.845   2.179   1.866
 2404SOL    HW2 7232   1.968   2.284   1.839
 2405SOL     OW 7233   3.302   2.718   3.260
 2405SOL    HW1 7234   3.245   2.770   3.197
 2405SOL    HW2 7235   3.398   2.730   3.236
 2406SOL     OW 7236   1.934   2.028   2.180
 2406SOL    HW1 7237   1.917   2.111   2.126
 2406SOL    HW2 7238   2.024   1.991   2.158
 2407SOL     OW 7239   3.045   3.197   1.981
 2407SOL    HW1 7240   2.946   3.186   1.983
 2407SOL    HW2 7241   3.079   3.212   2.074
 2408SOL     OW 7242   2.475   2.704   3.293
 2408SOL    HW1 7243   2.531   2.785   3.276
 2408SOL    HW2 7244   2.534   2.624   3.296
 2409SOL     OW 7245   3.355   3.629   2.821
 2409SOL    HW1 7246   3.388   3.693   2.752
 2409SOL    HW2 7247   3.421   3.623   2.896
 2410SOL     OW 7248   2.578   2.427   3.570
 2410SOL    HW1 7249   2.597   2.492   3.644
 2410SOL    HW2 7250   2.638   2.347   3.579
 2411SOL     OW 7251   3.312   3.082   3.495
 2411SOL    HW1 7252   3.303   3.072   3.594
 2411SOL    HW2 7253   3.408   3.075   3.469
 2412SOL     OW 7254   2.252   3.603   3.422
 2412SOL    HW1 7255   2.161   3.644   3.420
 2412SOL    HW2 7256   2.245   3.509   3.454
 2413SOL     OW 7257   3.536   2.745   3.116
 2413SOL    HW1 7258   3.509   2.656   3.079
 2413SOL    HW2 7259   3.537   2.813   3.043
 2414SOL     OW 7260   3.087   2.187   2.311
 2414SOL    HW1 7261   3.152   2.113   2.300
 2414SOL    HW2 7262   3.107   2.237   2.395
 2415SOL     OW 7263   3.639   2.204   3.504
 2415SOL    HW1 7264   3.622   2.235   3.410
 2415SOL    HW2 7265   3.555   2.167   3.542
 2416SOL     OW 7266   3.592   2.796   3.379
 2416SOL    HW1 7267   3.630   2.887   3.394
 2416SOL    HW2 7268   3.584   2.779   3.280
 2417SOL     OW 7269   2.721   3.236   1.878
 2417SOL    HW1 7270   2.675   3.251   1.966
 2417SOL    HW2 7271   2.765   3.321   1.848
 2418SOL     OW 7272   2.523   3.652   2.815
 2418SOL    HW1 7273   2.477   3.740   2.802
 2418SOL    HW2 7274   2.622   3.664   2.808
 2419SOL     OW 7275   2.721   2.818   2.723
 2419SOL    HW1 7276   2.775   2.749   2.771
 2419SOL    HW2 7277   2.689   2.887   2.789
 2420SOL     OW 7278   2.945   2.846   1.949
 2420SOL    HW1 7279   2.922   2.899   1.867
 2420SOL    HW2 7280   3.026   2.790   1.930
 2421SOL     OW 7281   3.723   3.431   2.713
 2421SOL    HW1 7282   3.652   3.419   2.643
 2421SOL    HW2 7283   3.724   3.352   2.773
 2422SOL     OW 7284   2.083   3.176   3.706
 2422SOL    HW1 7285   2.018   3.103   3.685
 2422SOL    HW2 7286   2.087   3.190   3.804
 2423SOL     OW 7287   1.941   3.102   2.515
 2423SOL    HW1 7288   1.940   3.055   2.603
 2423SOL    HW2 7289   2.023   3.074   2.464
 2424SOL     OW 7290   2.534   3.253   3.486
 2424SOL    HW1 7291   2.456   3.203   3.524
 2424SOL    HW2 7292   2.531   3.348   3.517
 2425SOL     OW 7293   3.686   2.054   3.089
 2425SOL    HW1 7294   3.682   1.964   3.133
 2425SOL    HW2 7295   3.689   2.043   2.990
 2426SOL     OW 7296   3.567   3.349   2.966
 2426SOL    HW1 7297   3.474   3.324   2.939
 2426SOL    HW2 7298   3.593   3.299   3.048
 2427SOL     OW 7299   2.179   2.409   3.142
 2427SOL    HW1 7300   2.217   2.350   3.214
 2427SOL    HW2 7301   2.219   2.383   3.054
 2428SOL     OW 7302   2.674   3.448   2.549
 2428SOL    HW1 7303   2.706   3.458   2.455
 2428SOL    HW2 7304   2.595   3.386   2.551
 2429SOL     OW 7305   3.286   2.076   2.974
 2429SOL    HW1 7306   3.338   2.011   3.029
 2429SOL    HW2 7307   3.237   2.139   3.035
 2430SOL     OW 7308   2.863   1.896   3.016
 2430SOL    HW1 7309   2.800   1.824   2.985
 2430SOL    HW2 7310   2.956   1.860   3.016
 2431SOL     OW 7311   2.632   3.192   2.163
 2431SOL    HW1 7312   2.586   3.105   2.180
 2431SOL    HW2 7313   2.723   3.189   2.204
 2432SOL     OW 7314   2.480   3.429   3.146
 2432SOL    HW1 7315   2.475   3.511   3.203
 2432SOL    HW2 7316   2.569   3.426   3.101
 2433SOL     OW 7317   3.214   1.914   2.030
 2433SOL    HW1 7318   3.249   1.873   1.946
 2433SOL    HW2 7319   3.124   1.876   2.050
 2434SOL     OW 7320   3.162   2.315   2.553
 2434SOL    HW1 7321   3.103   2.395   2.557
 2434SOL    HW2 7322   3.177   2.280   2.646
 2435SOL     OW 7323   3.455   2.083   2.744
 2435SOL    HW1 7324   3.371   2.082   2.798
 2435SOL    HW2 7325   3.457   2.166   2.688
 2436SOL     OW 7326   1.901   2.939   2.162
 2436SOL    HW1 7327   2.000   2.928   2.153
 2436SOL    HW2 7328   1.861   2.853   2.194
 2437SOL     OW 7329   2.737   3.508   2.199
 2437SOL    HW1 7330   2.660   3.473   2.145
 2437SOL    HW2 7331   2.705   3.579   2.261
 2438SOL     OW 7332   2.092   2.490   3.837
 2438SOL    HW1 7333   1.999   2.488   3.874
 2438SOL    HW2 7334   2.093   2.451   3.745
 2439SOL     OW 7335   2.087   2.137   4.720
 2439SOL    HW1 7336   2.122   2.120   4.812
 2439SOL    HW2 7337   1.999   2.092   4.708
 2440SOL     OW 7338   1.881   2.230   4.371
 2440SOL    HW1 7339   1.799   2.273   4.410
 2440SOL    HW2 7340   1.853   2.157   4.308
 2441SOL     OW 7341   3.417   3.373   4.427
 2441SOL    HW1 7342   3.360   3.357   4.508
 2441SOL    HW2 7343   3.358   3.383   4.347
 2442SOL     OW 7344   2.997   2.565   4.441
 2442SOL    HW1 7345   3.054   2.643   4.416
 2442SOL    HW2 7346   2.937   2.591   4.517
 2443SOL     OW 7347   3.617   2.469   3.955
 2443SOL    HW1 7348   3.605   2.456   3.856
 2443SOL    HW2 7349   3.587   2.388   4.004
 2444SOL     OW 7350   2.630   3.006   4.747
 2444SOL    HW1 7351   2.552   3.023   4.807
 2444SOL    HW2 7352   2.664   3.093   4.711
 2445SOL     OW 7353   2.547   2.874   4.389
 2445SOL    HW1 7354   2.616   2.858   4.459
 2445SOL    HW2 7355   2.474   2.931   4.427
 2446SOL     OW 7356   2.197   3.297   4.785
 2446SOL    HW1 7357   2.119   3.266   4.732
 2446SOL    HW2 7358   2.255   3.355   4.728
 2447SOL     OW 7359   3.465   2.309   4.461
 2447SOL    HW1 7360   3.391   2.355   4.411
 2447SOL    HW2 7361   3.516   2.377   4.514
 2448SOL     OW 7362   2.093   3.575   4.207
 2448SOL    HW1 7363   2.127   3.652   4.261
 2448SOL    HW2 7364   2.137   3.575   4.117
 2449SOL     OW 7365   2.092   3.296   4.262
 2449SOL    HW1 7366   2.066   3.392   4.262
 2449SOL    HW2 7367   2.021   3.242   4.307
 2450SOL     OW 7368   2.102   2.953   4.610
 2450SOL    HW1 7369   2.116   2.869   4.662
 2450SOL    HW2 7370   2.047   3.017   4.665
 2451SOL     OW 7371   2.468   2.826   3.847
 2451SOL    HW1 7372   2.475   2.910   3.793
 2451SOL    HW2 7373   2.514   2.839   3.935
 2452SOL     OW 7374   1.984   2.505   4.287
 2452SOL    HW1 7375   1.939   2.417   4.304
 2452SOL    HW2 7376   1.983   2.559   4.371
 2453SOL     OW 7377   3.704   3.629   4.083
 2453SOL    HW1 7378   3.758   3.600   4.163
 2453SOL    HW2 7379   3.734   3.719   4.054
 2454SOL     OW 7380   1.889   3.458   3.841
 2454SOL    HW1 7381   1.870   3.362   3.862
 2454SOL    HW2 7382   1.856   3.516   3.916
 2455SOL     OW 7383   3.551   2.784   4.336
 2455SOL    HW1 7384   3.646   2.755   4.344
 2455SOL    HW2 7385   3.543   2.849   4.261
 2456SOL     OW 7386   3.503   2.970   4.156
 2456SOL    HW1 7387   3.589   2.972   4.104
 2456SOL    HW2 7388   3.517   3.017   4.244
 2457SOL     OW 7389   2.475   3.227   4.450
 2457SOL    HW1 7390   2.426   3.140   4.459
 2457SOL    HW2 7391   2.452   3.270   4.363
 2458SOL     OW 7392   2.671   1.866   4.226
 2458SOL    HW1 7393   2.711   1.957   4.217
 2458SOL    HW2 7394   2.571   1.874   4.232
 2459SOL     OW 7395   2.059   2.838   4.988
 2459SOL    HW1 7396   2.148   2.793   4.974
 2459SOL    HW2 7397   1.986   2.773   4.969
 2460SOL     OW 7398   3.387   2.861   3.914
 2460SOL    HW1 7399   3.324   2.785   3.927
 2460SOL    HW2 7400   3.435   2.879   4.000
 2461SOL     OW 7401   3.328   3.279   4.677
 2461SOL    HW1 7402   3.269   3.285   4.757
 2461SOL    HW2 7403   3.313   3.191   4.631
 2462SOL     OW 7404   3.529   3.576   4.296
 2462SOL    HW1 7405   3.488   3.553   4.208
 2462SOL    HW2 7406   3.511   3.502   4.361
 2463SOL     OW 7407   2.460   2.591   3.994
 2463SOL    HW1 7408   2.484   2.660   3.926
 2463SOL    HW2 7409   2.382   2.624   4.048
 2464SOL     OW 7410   3.143   2.207   4.668
 2464SOL    HW1 7411   3.057   2.157   4.655
 2464SOL    HW2 7412   3.205   2.153   4.724
 2465SOL     OW 7413   3.438   3.524   4.031
 2465SOL    HW1 7414   3.527   3.570   4.034
 2465SOL    HW2 7415   3.417   3.500   3.936
 2466SOL     OW 7416   2.903   2.563   4.153
 2466SOL    HW1 7417   2.929   2.559   4.249
 2466SOL    HW2 7418   2.818   2.512   4.139
 2467SOL     OW 7419   1.938   2.673   4.513
 2467SOL    HW1 7420   2.037   2.661   4.522
 2467SOL    HW2 7421   1.914   2.768   4.534
 2468SOL     OW 7422   2.727   2.210   3.919
 2468SOL    HW1 7423   2.786   2.273   3.870
 2468SOL    HW2 7424   2.746   2.116   3.890
 2469SOL     OW 7425   3.224   3.006   4.269
 2469SOL    HW1 7426   3.307   2.977   4.221
 2469SOL    HW2 7427   3.175   3.073   4.213
 2470SOL     OW 7428   2.412   2.058   4.609
 2470SOL    HW1 7429   2.407   2.053   4.709
 2470SOL    HW2 7430   2.414   2.154   4.580
 2471SOL     OW 7431   2.870   3.318   4.201
 2471SOL    HW1 7432   2.824   3.390   4.149
 2471SOL    HW2 7433   2.866   3.338   4.299
 2472SOL     OW 7434   2.213   3.663   4.577
 2472SOL    HW1 7435   2.263   3.577   4.583
 2472SOL    HW2 7436   2.278   3.740   4.574
 2473SOL     OW 7437   3.657   2.928   4.597
 2473SOL    HW1 7438   3.595   2.913   4.521
 2473SOL    HW2 7439   3.605   2.939   4.682
 2474SOL     OW 7440   2.183   2.805   3.966
 2474SOL    HW1 7441   2.265   2.844   3.924
 2474SOL    HW2 7442   2.156   2.723   3.917
 2475SOL     OW 7443   3.320   2.597   4.452
 2475SOL    HW1 7444   3.315   2.532   4.527
 2475SOL    HW2 7445   3.400   2.656   4.465
 2476SOL     OW 7446   2.973   3.638   3.961
 2476SOL    HW1 7447   2.913   3.576   4.011
 2476SOL    HW2 7448   3.004   3.594   3.876
 2477SOL     OW 7449   3.494   3.239   3.805
 2477SOL    HW1 7450   3.462   3.333   3.795
 2477SOL    HW2 7451   3.418   3.176   3.793
 2478SOL     OW 7452   2.326   3.605   4.047
 2478SOL    HW1 7453   2.359   3.644   4.133
 2478SOL    HW2 7454   2.402   3.598   3.982
 2479SOL     OW 7455   3.262   1.969   4.150
 2479SOL    HW1 7456   3.238   1.932   4.060
 2479SOL    HW2 7457   3.361   1.985   4.154
 2480SOL     OW 7458   2.111   3.647   4.965
 2480SOL    HW1 7459   2.168   3.582   5.015
 2480SOL    HW2 7460   2.095   3.614   4.872
 2481SOL     OW 7461   2.802   3.560   4.628
 2481SOL    HW1 7462   2.882   3.503   4.649
 2481SOL    HW2 7463   2.753   3.520   4.551
 2482SOL     OW 7464   2.244   2.562   4.204
 2482SOL    HW1 7465   2.289   2.472   4.201
 2482SOL    HW2 7466   2.150   2.551   4.237
 2483SOL     OW 7467   2.476   1.984   3.841
 2483SOL    HW1 7468   2.574   1.962   3.848
 2483SOL    HW2 7469   2.445   1.967   3.748
 2484SOL     OW 7470   2.665   3.264   4.648
 2484SOL    HW1 7471   2.755   3.278   4.606
 2484SOL    HW2 7472   2.594   3.266   4.577
 2485SOL     OW 7473   2.784   2.365   4.623
 2485SOL    HW1 7474   2.759   2.356   4.527
 2485SOL    HW2 7475   2.832   2.283   4.654
 2486SOL     OW 7476   2.401   1.926   4.236
 2486SOL    HW1 7477   2.320   1.927   4.294
 2486SOL    HW2 7478   2.404   2.009   4.181
 2487SOL     OW 7479   3.296   3.050   3.765
 2487SOL    HW1 7480   3.328   2.974   3.822
 2487SOL    HW2 7481   3.204   3.077   3.795
 2488SOL     OW 7482   2.159   1.897   3.895
 2488SOL    HW1 7483   2.208   1.981   3.874
 2488SOL    HW2 7484   2.221   1.832   3.940
 2489SOL     OW 7485   2.797   2.098   4.204
 2489SOL    HW1 7486   2.749   2.139   4.126
 2489SOL    HW2 7487   2.896   2.096   4.185
 2490SOL     OW 7488   3.089   3.432   4.517
 2490SOL    HW1 7489   3.110   3.506   4.452
 2490SOL    HW2 7490   3.157   3.432   4.590
 2491SOL     OW 7491   2.321   3.014   4.465
 2491SOL    HW1 7492   2.250   2.987   4.530
 2491SOL    HW2 7493   2.295   2.986   4.372
 2492SOL     OW 7494   3.133   3.659   4.315
 2492SOL    HW1 7495   3.177   3.723   4.251
 2492SOL    HW2 7496   3.083   3.711   4.385
 2493SOL     OW 7497   2.894   2.411   3.740
 2493SOL    HW1 7498   2.853   2.493   3.701
 2493SOL    HW2 7499   2.958   2.437   3.813
 2494SOL     OW 7500   2.728   2.316   4.366
 2494SOL    HW1 7501   2.696   2.388   4.304
 2494SOL    HW2 7502   2.752   2.235   4.313
 2495SOL     OW 7503   2.879   1.901   4.477
 2495SOL    HW1 7504   2.807   1.906   4.408
 2495SOL    HW2 7505   2.855   1.832   4.546
 2496SOL     OW 7506   3.291   3.035   4.591
 2496SOL    HW1 7507   3.236   2.951   4.584
 2496SOL    HW2 7508   3.317   3.064   4.499
 2497SOL     OW 7509   3.328   2.452   4.716
 2497SOL    HW1 7510   3.298   2.357   4.723
 2497SOL    HW2 7511   3.401   2.468   4.782
 2498SOL     OW 7512   3.719   2.695   4.101
 2498SOL    HW1 7513   3.761   2.631   4.165
 2498SOL    HW2 7514   3.681   2.644   4.023
 2499SOL     OW 7515   2.350   3.247   3.898
 2499SOL    HW1 7516   2.263   3.232   3.945
 2499SOL    HW2 7517   2.333   3.273   3.803
 2500SOL     OW 7518   3.526   3.142   4.381
 2500SOL    HW1 7519   3.625   3.150   4.395
 2500SOL    HW2 7520   3.481   3.226   4.412
 2501SOL     OW 7521   3.252   2.437   3.802
 2501SOL    HW1 7522   3.198   2.416   3.883
 2501SOL    HW2 7523   3.343   2.396   3.811
 2502SOL     OW 7524   2.389   2.118   4.052
 2502SOL    HW1 7525   2.416   2.059   3.977
 2502SOL    HW2 7526   2.389   2.213   4.021
 2503SOL     OW 7527   2.973   3.057   4.824
 2503SOL    HW1 7528   2.933   3.101   4.905
 2503SOL    HW2 7529   2.932   3.094   4.741
 2504SOL     OW 7530   3.500   2.961   4.803
 2504SOL    HW1 7531   3.505   3.042   4.862
 2504SOL    HW2 7532   3.414   2.963   4.752
 2505SOL     OW 7533   2.567   2.912   4.092
 2505SOL    HW1 7534   2.553   2.919   4.191
 2505SOL    HW2 7535   2.651   2.861   4.074
 2506SOL     OW 7536   2.272   2.675   4.975
 2506SOL    HW1 7537   2.358   2.687   5.025
 2506SOL    HW2 7538   2.230   2.588   5.002
 2507SOL     OW 7539   2.229   2.962   4.225
 2507SOL    HW1 7540   2.222   3.045   4.169
 2507SOL    HW2 7541   2.233   2.882   4.165
 2508SOL     OW 7542   2.428   2.399   4.589
 2508SOL    HW1 7543   2.440   2.465   4.515
 2508SOL    HW2 7544   2.474   2.433   4.672
 2509SOL     OW 7545   3.114   3.210   4.112
 2509SOL    HW1 7546   3.164   3.287   4.152
 2509SOL    HW2 7547   3.019   3.212   4.144
 2510SOL     OW 7548   3.444   2.501   4.196
 2510SOL    HW1 7549   3.413   2.562   4.269
 2510SOL    HW2 7550   3.494   2.553   4.127
 2511SOL     OW 7551   2.216   3.372   5.053
 2511SOL    HW1 7552   2.195   3.328   4.966
 2511SOL    HW2 7553   2.313   3.398   5.056
 2512SOL     OW 7554   2.435   2.732   4.753
 2512SOL    HW1 7555   2.479   2.821   4.744
 2512SOL    HW2 7556   2.372   2.732   4.830
 2513SOL     OW 7557   3.071   2.387   3.999
 2513SOL    HW1 7558   3.084   2.303   4.053
 2513SOL    HW2 7559   3.042   2.461   4.059
 2514SOL     OW 7560   2.169   2.075   4.955
 2514SOL    HW1 7561   2.146   2.112   5.045
 2514SOL    HW2 7562   2.139   1.980   4.949
 2515SOL     OW 7563   2.594   2.496   4.788
 2515SOL    HW1 7564   2.653   2.470   4.712
 2515SOL    HW2 7565   2.566   2.592   4.777
 2516SOL     OW 7566   2.169   1.925   4.342
 2516SOL    HW1 7567   2.158   2.019   4.375
 2516SOL    HW2 7568   2.164   1.862   4.419
 2517SOL     OW 7569   3.484   2.229   4.098
 2517SOL    HW1 7570   3.486   2.153   4.162
 2517SOL    HW2 7571   3.436   2.306   4.138
 2518SOL     OW 7572   2.885   2.628   4.690
 2518SOL    HW1 7573   2.900   2.649   4.786
 2518SOL    HW2 7574   2.855   2.533   4.681
 2519SOL     OW 7575   3.402   2.136   3.849
 2519SOL    HW1 7576   3.341   2.061   3.872
 2519SOL    HW2 7577   3.424   2.188   3.932
 2520SOL     OW 7578   3.165   2.700   3.766
 2520SOL    HW1 7579   3.199   2.607   3.781
 2520SOL    HW2 7580   3.183   2.727   3.671
 2521SOL     OW 7581   2.930   3.195   4.573
 2521SOL    HW1 7582   2.937   3.111   4.518
 2521SOL    HW2 7583   2.992   3.264   4.537
 2522SOL     OW 7584   2.181   2.672   4.673
 2522SOL    HW1 7585   2.274   2.708   4.678
 2522SOL    HW2 7586   2.175   2.587   4.725
 2523SOL     OW 7587   2.201   2.371   4.730
 2523SOL    HW1 7588   2.149   2.288   4.713
 2523SOL    HW2 7589   2.278   2.376   4.666
 2524SOL     OW 7590   1.870   3.188   3.924
 2524SOL    HW1 7591   1.777   3.209   3.893
 2524SOL    HW2 7592   1.880   3.089   3.937
 2525SOL     OW 7593   1.950   3.663   4.651
 2525SOL    HW1 7594   1.908   3.577   4.624
 2525SOL    HW2 7595   2.044   3.666   4.617
 2526SOL     OW 7596   2.366   3.430   4.634
 2526SOL    HW1 7597   2.432   3.504   4.643
 2526SOL    HW2 7598   2.410   3.351   4.592
 2527SOL     OW 7599   2.864   2.658   4.962
 2527SOL    HW1 7600   2.905   2.626   5.048
 2527SOL    HW2 7601   2.768   2.631   4.959
 2528SOL     OW 7602   1.902   2.406   4.838
 2528SOL    HW1 7603   1.987   2.373   4.797
 2528SOL    HW2 7604   1.915   2.421   4.936
 2529SOL     OW 7605   2.677   2.434   4.049
 2529SOL    HW1 7606   2.684   2.345   4.003
 2529SOL    HW2 7607   2.583   2.468   4.041
 2530SOL     OW 7608   2.533   2.326   4.993
 2530SOL    HW1 7609   2.499   2.237   4.963
 2530SOL    HW2 7610   2.559   2.380   4.913
 2531SOL     OW 7611   2.335   2.362   3.915
 2531SOL    HW1 7612   2.396   2.442   3.919
 2531SOL    HW2 7613   2.240   2.393   3.922
 2532SOL     OW 7614   3.164   2.717   4.033
 2532SOL    HW1 7615   3.078   2.686   4.075
 2532SOL    HW2 7616   3.160   2.703   3.934
 2533SOL     OW 7617   3.621   3.609   4.878
 2533SOL    HW1 7618   3.682   3.639   4.805
 2533SOL    HW2 7619   3.583   3.520   4.856
 2534SOL     OW 7620   1.945   3.120   4.746
 2534SOL    HW1 7621   1.940   3.119   4.846
 2534SOL    HW2 7622   1.862   3.079   4.708
 2535SOL     OW 7623   3.588   1.997   4.247
 2535SOL    HW1 7624   3.661   1.980   4.180
 2535SOL    HW2 7625   3.557   1.910   4.285
 2536SOL     OW 7626   3.250   3.435   4.201
 2536SOL    HW1 7627   3.317   3.447   4.127
 2536SOL    HW2 7628   3.210   3.524   4.224
 2537SOL     OW 7629   3.142   2.789   4.396
 2537SOL    HW1 7630   3.202   2.708   4.398
 2537SOL    HW2 7631   3.182   2.858   4.336
 2538SOL     OW 7632   2.534   3.478   3.878
 2538SOL    HW1 7633   2.543   3.488   3.779
 2538SOL    HW2 7634   2.494   3.389   3.899
 2539SOL     OW 7635   3.703   2.037   4.687
 2539SOL    HW1 7636   3.742   1.952   4.651
 2539SOL    HW2 7637   3.605   2.039   4.668
 2540SOL     OW 7638   2.125   2.188   4.444
 2540SOL    HW1 7639   2.046   2.239   4.410
 2540SOL    HW2 7640   2.116   2.173   4.542
 2541SOL     OW 7641   3.056   3.474   3.755
 2541SOL    HW1 7642   3.062   3.381   3.792
 2541SOL    HW2 7643   2.997   3.474   3.675
 2542SOL     OW 7644   2.778   2.772   4.015
 2542SOL    HW1 7645   2.841   2.810   3.947
 2542SOL    HW2 7646   2.818   2.689   4.054
 2543SOL     OW 7647   3.366   3.469   3.768
 2543SOL    HW1 7648   3.274   3.506   3.775
 2543SOL    HW2 7649   3.404   3.489   3.678
 2544SOL     OW 7650   2.901   2.960   4.420
 2544SOL    HW1 7651   2.831   2.913   4.474
 2544SOL    HW2 7652   2.960   2.892   4.377
 2545SOL     OW 7653   2.876   2.098   4.695
 2545SOL    HW1 7654   2.868   2.062   4.602
 2545SOL    HW2 7655   2.874   2.022   4.760
 2546SOL     OW 7656   2.452   3.349   4.215
 2546SOL    HW1 7657   2.494   3.291   4.145
 2546SOL    HW2 7658   2.408   3.428   4.171
 2547SOL     OW 7659   2.117   3.210   4.014
 2547SOL    HW1 7660   2.021   3.211   3.987
 2547SOL    HW2 7661   2.129   3.263   4.098
 2548SOL     OW 7662   1.937   2.207   3.757
 2548SOL    HW1 7663   1.845   2.179   3.728
 2548SOL    HW2 7664   1.968   2.284   3.701
 2549SOL     OW 7665   1.934   2.028   4.042
 2549SOL    HW1 7666   1.917   2.111   3.988
 2549SOL    HW2 7667   2.024   1.991   4.020
 2550SOL     OW 7668   3.045   3.197   3.843
 2550SOL    HW1 7669   2.946   3.186   3.845
 2550SOL    HW2 7670   3.079   3.212   3.936
 2551SOL     OW 7671   3.355   3.629   4.683
 2551SOL    HW1 7672   3.388   3.693   4.614
 2551SOL    HW2 7673   3.421   3.623   4.758
 2552SOL     OW 7674   3.536   2.745   4.978
 2552SOL    HW1 7675   3.509   2.656   4.941
 2552SOL    HW2 7676   3.537   2.813   4.905
 2553SOL     OW 7677   3.087   2.187   4.173
 2553SOL    HW1 7678   3.152   2.113   4.162
 2553SOL    HW2 7679   3.107   2.237   4.257
 2554SOL     OW 7680   2.456   2.607   4.376
 2554SOL    HW1 7681   2.506   2.692   4.357
 2554SOL    HW2 7682   2.368   2.609   4.328
 2555SOL     OW 7683   2.721   3.236   3.740
 2555SOL    HW1 7684   2.675   3.251   3.828
 2555SOL    HW2 7685   2.765   3.321   3.710
 2556SOL     OW 7686   2.523   3.652   4.677
 2556SOL    HW1 7687   2.477   3.740   4.664
 2556SOL    HW2 7688   2.622   3.664   4.670
 2557SOL     OW 7689   2.721   2.818   4.585
 2557SOL    HW1 7690   2.775   2.749   4.633
 2557SOL    HW2 7691   2.689   2.887   4.651
 2558SOL     OW 7692   2.945   2.846   3.811
 2558SOL    HW1 7693   2.922   2.899   3.729
 2558SOL    HW2 7694   3.026   2.790   3.792
 2559SOL     OW 7695   3.723   3.431   4.575
 2559SOL    HW1 7696   3.652   3.419   4.505
 2559SOL    HW2 7697   3.724   3.352   4.635
 2560SOL     OW 7698   1.941   3.102   4.377
 2560SOL    HW1 7699   1.940   3.055   4.465
 2560SOL    HW2 7700   2.023   3.074   4.326
 2561SOL     OW 7701   3.686   2.054   4.951
 2561SOL    HW1 7702   3.682   1.964   4.995
 2561SOL    HW2 7703   3.689   2.043   4.852
 2562SOL     OW 7704   2.290   2.286   4.244
 2562SOL    HW1 7705   2.320   2.214   4.182
 2562SOL    HW2 7706   2.251   2.246   4.327
 2563SOL     OW 7707   2.674   3.448   4.411
 2563SOL    HW1 7708   2.706   3.458   4.317
 2563SOL    HW2 7709   2.595   3.386   4.413
 2564SOL     OW 7710   3.286   2.076   4.836
 2564SOL    HW1 7711   3.338   2.011   4.891
 2564SOL    HW2 7712   3.237   2.139   4.897
 2565SOL     OW 7713   2.632   3.192   4.025
 2565SOL    HW1 7714   2.586   3.105   4.042
 2565SOL    HW2 7715   2.723   3.189   4.066
 2566SOL     OW 7716   3.214   1.914   3.892
 2566SOL    HW1 7717   3.249   1.873   3.808
 2566SOL    HW2 7718   3.124   1.876   3.912
 2567SOL     OW 7719   3.162   2.315   4.415
 2567SOL    HW1 7720   3.103   2.395   4.419
 2567SOL    HW2 7721   3.177   2.280   4.508
 2568SOL     OW 7722   3.455   2.083   4.606
 2568SOL    HW1 7723   3.371   2.082   4.660
 2568SOL    HW2 7724   3.457   2.166   4.550
 2569SOL     OW 7725   1.901   2.939   4.024
 2569SOL    HW1 7726   2.000   2.928   4.015
 2569SOL    HW2 7727   1.861   2.853   4.056
 2570SOL     OW 7728   2.737   3.508   4.061
 2570SOL    HW1 7729   2.660   3.473   4.007
 2570SOL    HW2 7730   2.705   3.579   4.123
 2571SOL     OW 7731   2.092   4.352   0.113
 2571SOL    HW1 7732   1.999   4.350   0.150
 2571SOL    HW2 7733   2.093   4.313   0.021
 2572SOL     OW 7734   2.087   3.999   0.996
 2572SOL    HW1 7735   2.122   3.982   1.088
 2572SOL    HW2 7736   1.999   3.954   0.984
 2573SOL     OW 7737   1.881   4.092   0.647
 2573SOL    HW1 7738   1.799   4.135   0.686
 2573SOL    HW2 7739   1.853   4.019   0.584
 2574SOL     OW 7740   2.997   4.427   0.717
 2574SOL    HW1 7741   3.054   4.505   0.692
 2574SOL    HW2 7742   2.937   4.453   0.793
 2575SOL     OW 7743   3.617   4.331   0.231
 2575SOL    HW1 7744   3.605   4.318   0.132
 2575SOL    HW2 7745   3.587   4.250   0.280
 2576SOL     OW 7746   2.630   4.868   1.023
 2576SOL    HW1 7747   2.552   4.885   1.083
 2576SOL    HW2 7748   2.664   4.955   0.987
 2577SOL     OW 7749   2.712   4.522   1.823
 2577SOL    HW1 7750   2.708   4.598   1.888
 2577SOL    HW2 7751   2.734   4.558   1.732
 2578SOL     OW 7752   2.547   4.736   0.665
 2578SOL    HW1 7753   2.616   4.720   0.735
 2578SOL    HW2 7754   2.474   4.793   0.703
 2579SOL     OW 7755   2.300   4.116   1.499
 2579SOL    HW1 7756   2.382   4.060   1.508
 2579SOL    HW2 7757   2.219   4.058   1.503
 2580SOL     OW 7758   3.465   4.171   0.737
 2580SOL    HW1 7759   3.391   4.217   0.687
 2580SOL    HW2 7760   3.516   4.239   0.790
 2581SOL     OW 7761   2.092   5.158   0.538
 2581SOL    HW1 7762   2.066   5.254   0.538
 2581SOL    HW2 7763   2.021   5.104   0.583
 2582SOL     OW 7764   2.102   4.815   0.886
 2582SOL    HW1 7765   2.116   4.731   0.938
 2582SOL    HW2 7766   2.047   4.879   0.941
 2583SOL     OW 7767   2.468   4.688   0.123
 2583SOL    HW1 7768   2.475   4.772   0.069
 2583SOL    HW2 7769   2.514   4.701   0.211
 2584SOL     OW 7770   3.456   3.838   1.480
 2584SOL    HW1 7771   3.438   3.905   1.408
 2584SOL    HW2 7772   3.453   3.884   1.569
 2585SOL     OW 7773   1.984   4.367   0.563
 2585SOL    HW1 7774   1.939   4.279   0.580
 2585SOL    HW2 7775   1.983   4.421   0.647
 2586SOL     OW 7776   3.551   4.646   0.612
 2586SOL    HW1 7777   3.646   4.617   0.620
 2586SOL    HW2 7778   3.543   4.711   0.537
 2587SOL     OW 7779   1.975   4.461   1.597
 2587SOL    HW1 7780   2.063   4.448   1.642
 2587SOL    HW2 7781   1.962   4.558   1.575
 2588SOL     OW 7782   3.155   4.952   1.423
 2588SOL    HW1 7783   3.192   4.879   1.365
 2588SOL    HW2 7784   3.207   4.957   1.508
 2589SOL     OW 7785   2.671   3.728   0.502
 2589SOL    HW1 7786   2.711   3.819   0.493
 2589SOL    HW2 7787   2.571   3.736   0.508
 2590SOL     OW 7788   2.059   4.700   1.264
 2590SOL    HW1 7789   2.148   4.655   1.250
 2590SOL    HW2 7790   1.986   4.635   1.245
 2591SOL     OW 7791   3.387   4.723   0.190
 2591SOL    HW1 7792   3.324   4.647   0.203
 2591SOL    HW2 7793   3.435   4.741   0.276
 2592SOL     OW 7794   2.179   3.975   1.801
 2592SOL    HW1 7795   2.250   4.046   1.807
 2592SOL    HW2 7796   2.091   4.014   1.829
 2593SOL     OW 7797   2.460   4.453   0.270
 2593SOL    HW1 7798   2.484   4.522   0.202
 2593SOL    HW2 7799   2.382   4.486   0.324
 2594SOL     OW 7800   3.143   4.069   0.944
 2594SOL    HW1 7801   3.057   4.019   0.931
 2594SOL    HW2 7802   3.205   4.015   1.000
 2595SOL     OW 7803   2.669   4.329   1.465
 2595SOL    HW1 7804   2.622   4.326   1.554
 2595SOL    HW2 7805   2.618   4.274   1.399
 2596SOL     OW 7806   3.256   4.193   1.674
 2596SOL    HW1 7807   3.236   4.236   1.762
 2596SOL    HW2 7808   3.334   4.131   1.683
 2597SOL     OW 7809   2.835   4.614   1.572
 2597SOL    HW1 7810   2.881   4.530   1.543
 2597SOL    HW2 7811   2.779   4.648   1.497
 2598SOL     OW 7812   2.853   4.134   1.242
 2598SOL    HW1 7813   2.776   4.168   1.296
 2598SOL    HW2 7814   2.819   4.083   1.163
 2599SOL     OW 7815   2.903   4.425   0.429
 2599SOL    HW1 7816   2.929   4.421   0.525
 2599SOL    HW2 7817   2.818   4.374   0.415
 2600SOL     OW 7818   1.938   4.535   0.789
 2600SOL    HW1 7819   2.037   4.523   0.798
 2600SOL    HW2 7820   1.914   4.630   0.810
 2601SOL     OW 7821   2.727   4.072   0.195
 2601SOL    HW1 7822   2.786   4.135   0.146
 2601SOL    HW2 7823   2.746   3.978   0.166
 2602SOL     OW 7824   3.581   4.309   1.831
 2602SOL    HW1 7825   3.555   4.398   1.795
 2602SOL    HW2 7826   3.579   4.241   1.758
 2603SOL     OW 7827   2.412   3.920   0.885
 2603SOL    HW1 7828   2.407   3.915   0.985
 2603SOL    HW2 7829   2.414   4.016   0.856
 2604SOL     OW 7830   3.657   4.790   0.873
 2604SOL    HW1 7831   3.595   4.775   0.797
 2604SOL    HW2 7832   3.605   4.801   0.958
 2605SOL     OW 7833   2.183   4.667   0.242
 2605SOL    HW1 7834   2.265   4.706   0.200
 2605SOL    HW2 7835   2.156   4.585   0.193
 2606SOL     OW 7836   3.320   4.459   0.728
 2606SOL    HW1 7837   3.315   4.394   0.803
 2606SOL    HW2 7838   3.400   4.518   0.741
 2607SOL     OW 7839   2.064   4.009   1.498
 2607SOL    HW1 7840   1.984   4.069   1.485
 2607SOL    HW2 7841   2.054   3.960   1.584
 2608SOL     OW 7842   3.262   3.831   0.426
 2608SOL    HW1 7843   3.238   3.794   0.336
 2608SOL    HW2 7844   3.361   3.847   0.430
 2609SOL     OW 7845   2.244   4.424   0.480
 2609SOL    HW1 7846   2.289   4.334   0.477
 2609SOL    HW2 7847   2.150   4.413   0.513
 2610SOL     OW 7848   3.409   3.946   1.729
 2610SOL    HW1 7849   3.404   3.983   1.821
 2610SOL    HW2 7850   3.337   3.877   1.717
 2611SOL     OW 7851   2.476   3.846   0.117
 2611SOL    HW1 7852   2.574   3.824   0.124
 2611SOL    HW2 7853   2.445   3.829   0.024
 2612SOL     OW 7854   2.643   3.988   1.749
 2612SOL    HW1 7855   2.710   3.927   1.792
 2612SOL    HW2 7856   2.570   4.007   1.814
 2613SOL     OW 7857   3.213   4.314   1.433
 2613SOL    HW1 7858   3.241   4.271   1.518
 2613SOL    HW2 7859   3.238   4.410   1.434
 2614SOL     OW 7860   2.784   4.227   0.899
 2614SOL    HW1 7861   2.759   4.218   0.803
 2614SOL    HW2 7862   2.832   4.145   0.930
 2615SOL     OW 7863   2.401   3.788   0.512
 2615SOL    HW1 7864   2.320   3.789   0.570
 2615SOL    HW2 7865   2.404   3.871   0.457
 2616SOL     OW 7866   2.797   3.960   0.480
 2616SOL    HW1 7867   2.749   4.001   0.402
 2616SOL    HW2 7868   2.896   3.958   0.461
 2617SOL     OW 7869   2.938   4.407   1.464
 2617SOL    HW1 7870   2.858   4.346   1.467
 2617SOL    HW2 7871   3.019   4.354   1.440
 2618SOL     OW 7872   2.321   4.876   0.741
 2618SOL    HW1 7873   2.250   4.849   0.806
 2618SOL    HW2 7874   2.295   4.848   0.648
 2619SOL     OW 7875   2.894   4.273   0.016
 2619SOL    HW1 7876   2.853   4.355  -0.023
 2619SOL    HW2 7877   2.958   4.299   0.089
 2620SOL     OW 7878   1.940   4.280   1.386
 2620SOL    HW1 7879   2.032   4.279   1.345
 2620SOL    HW2 7880   1.934   4.354   1.453
 2621SOL     OW 7881   2.423   3.946   1.147
 2621SOL    HW1 7882   2.461   3.862   1.184
 2621SOL    HW2 7883   2.335   3.965   1.191
 2622SOL     OW 7884   2.728   4.178   0.642
 2622SOL    HW1 7885   2.696   4.250   0.580
 2622SOL    HW2 7886   2.752   4.097   0.589
 2623SOL     OW 7887   2.879   3.763   0.753
 2623SOL    HW1 7888   2.807   3.768   0.684
 2623SOL    HW2 7889   2.855   3.694   0.822
 2624SOL     OW 7890   3.291   4.897   0.867
 2624SOL    HW1 7891   3.236   4.813   0.860
 2624SOL    HW2 7892   3.317   4.926   0.775
 2625SOL     OW 7893   3.328   4.314   0.992
 2625SOL    HW1 7894   3.298   4.219   0.999
 2625SOL    HW2 7895   3.401   4.330   1.058
 2626SOL     OW 7896   3.719   4.557   0.377
 2626SOL    HW1 7897   3.761   4.493   0.441
 2626SOL    HW2 7898   3.681   4.506   0.299
 2627SOL     OW 7899   3.252   4.299   0.078
 2627SOL    HW1 7900   3.198   4.278   0.159
 2627SOL    HW2 7901   3.343   4.258   0.087
 2628SOL     OW 7902   2.389   3.980   0.328
 2628SOL    HW1 7903   2.416   3.921   0.253
 2628SOL    HW2 7904   2.389   4.075   0.297
 2629SOL     OW 7905   3.616   4.947   1.588
 2629SOL    HW1 7906   3.707   4.908   1.575
 2629SOL    HW2 7907   3.624   5.043   1.612
 2630SOL     OW 7908   3.500   4.823   1.079
 2630SOL    HW1 7909   3.505   4.904   1.138
 2630SOL    HW2 7910   3.414   4.825   1.028
 2631SOL     OW 7911   2.777   3.813   1.402
 2631SOL    HW1 7912   2.802   3.793   1.307
 2631SOL    HW2 7913   2.849   3.869   1.444
 2632SOL     OW 7914   2.567   4.774   0.368
 2632SOL    HW1 7915   2.553   4.781   0.467
 2632SOL    HW2 7916   2.651   4.723   0.350
 2633SOL     OW 7917   2.272   4.537   1.251
 2633SOL    HW1 7918   2.358   4.549   1.301
 2633SOL    HW2 7919   2.230   4.450   1.278
 2634SOL     OW 7920   3.136   4.110   1.262
 2634SOL    HW1 7921   3.157   4.184   1.326
 2634SOL    HW2 7922   3.047   4.127   1.219
 2635SOL     OW 7923   2.229   4.824   0.501
 2635SOL    HW1 7924   2.222   4.907   0.445
 2635SOL    HW2 7925   2.233   4.744   0.441
 2636SOL     OW 7926   2.428   4.261   0.865
 2636SOL    HW1 7927   2.440   4.327   0.791
 2636SOL    HW2 7928   2.474   4.295   0.948
 2637SOL     OW 7929   3.444   4.363   0.472
 2637SOL    HW1 7930   3.413   4.424   0.545
 2637SOL    HW2 7931   3.494   4.415   0.403
 2638SOL     OW 7932   2.264   4.475   1.598
 2638SOL    HW1 7933   2.332   4.530   1.551
 2638SOL    HW2 7934   2.304   4.387   1.625
 2639SOL     OW 7935   3.449   4.503   1.670
 2639SOL    HW1 7936   3.357   4.541   1.665
 2639SOL    HW2 7937   3.509   4.550   1.605
 2640SOL     OW 7938   2.875   3.829   1.770
 2640SOL    HW1 7939   2.881   3.914   1.718
 2640SOL    HW2 7940   2.907   3.753   1.713
 2641SOL     OW 7941   2.366   3.774   1.740
 2641SOL    HW1 7942   2.324   3.717   1.670
 2641SOL    HW2 7943   2.300   3.843   1.772
 2642SOL     OW 7944   2.435   4.594   1.029
 2642SOL    HW1 7945   2.479   4.683   1.020
 2642SOL    HW2 7946   2.372   4.594   1.106
 2643SOL     OW 7947   3.222   4.586   1.045
 2643SOL    HW1 7948   3.147   4.586   0.979
 2643SOL    HW2 7949   3.259   4.494   1.054
 2644SOL     OW 7950   3.071   4.249   0.275
 2644SOL    HW1 7951   3.084   4.165   0.329
 2644SOL    HW2 7952   3.042   4.323   0.335
 2645SOL     OW 7953   2.169   3.937   1.231
 2645SOL    HW1 7954   2.146   3.974   1.321
 2645SOL    HW2 7955   2.139   3.842   1.225
 2646SOL     OW 7956   2.594   4.358   1.064
 2646SOL    HW1 7957   2.653   4.332   0.988
 2646SOL    HW2 7958   2.566   4.454   1.053
 2647SOL     OW 7959   3.590   4.659   1.854
 2647SOL    HW1 7960   3.544   4.652   1.765
 2647SOL    HW2 7961   3.528   4.703   1.920
 2648SOL     OW 7962   2.169   3.787   0.618
 2648SOL    HW1 7963   2.158   3.881   0.651
 2648SOL    HW2 7964   2.164   3.724   0.695
 2649SOL     OW 7965   3.484   4.091   0.374
 2649SOL    HW1 7966   3.486   4.015   0.438
 2649SOL    HW2 7967   3.436   4.168   0.414
 2650SOL     OW 7968   2.885   4.490   0.966
 2650SOL    HW1 7969   2.900   4.511   1.062
 2650SOL    HW2 7970   2.855   4.395   0.957
 2651SOL     OW 7971   2.212   4.622   1.804
 2651SOL    HW1 7972   2.288   4.666   1.852
 2651SOL    HW2 7973   2.247   4.575   1.722
 2652SOL     OW 7974   3.402   3.998   0.125
 2652SOL    HW1 7975   3.341   3.923   0.148
 2652SOL    HW2 7976   3.424   4.050   0.208
 2653SOL     OW 7977   3.165   4.562   0.042
 2653SOL    HW1 7978   3.199   4.469   0.057
 2653SOL    HW2 7979   3.183   4.589  -0.053
 2654SOL     OW 7980   2.181   4.534   0.949
 2654SOL    HW1 7981   2.274   4.570   0.954
 2654SOL    HW2 7982   2.175   4.449   1.001
 2655SOL     OW 7983   2.201   4.233   1.006
 2655SOL    HW1 7984   2.149   4.150   0.989
 2655SOL    HW2 7985   2.278   4.238   0.942
 2656SOL     OW 7986   3.000   4.104   1.678
 2656SOL    HW1 7987   2.955   4.167   1.742
 2656SOL    HW2 7988   3.093   4.135   1.661
 2657SOL     OW 7989   3.022   3.931   1.477
 2657SOL    HW1 7990   3.022   3.995   1.554
 2657SOL    HW2 7991   3.050   3.979   1.394
 2658SOL     OW 7992   2.864   4.520   1.238
 2658SOL    HW1 7993   2.905   4.488   1.324
 2658SOL    HW2 7994   2.768   4.493   1.235
 2659SOL     OW 7995   1.902   4.268   1.114
 2659SOL    HW1 7996   1.987   4.235   1.073
 2659SOL    HW2 7997   1.915   4.283   1.212
 2660SOL     OW 7998   2.051   4.244   1.722
 2660SOL    HW1 7999   2.110   4.204   1.652
 2660SOL    HW2 8000   1.993   4.315   1.681
 2661SOL     OW 8001   3.231   4.674   1.660
 2661SOL    HW1 8002   3.270   4.763   1.680
 2661SOL    HW2 8003   3.241   4.654   1.563
 2662SOL     OW 8004   2.677   4.296   0.325
 2662SOL    HW1 8005   2.684   4.207   0.279
 2662SOL    HW2 8006   2.583   4.330   0.317
 2663SOL     OW 8007   3.519   4.328   1.206
 2663SOL    HW1 8008   3.481   4.259   1.268
 2663SOL    HW2 8009   3.601   4.292   1.162
 2664SOL     OW 8010   2.533   4.188   1.269
 2664SOL    HW1 8011   2.499   4.099   1.239
 2664SOL    HW2 8012   2.559   4.242   1.189
 2665SOL     OW 8013   2.335   4.224   0.191
 2665SOL    HW1 8014   2.396   4.304   0.195
 2665SOL    HW2 8015   2.240   4.255   0.198
 2666SOL     OW 8016   2.021   4.861   1.466
 2666SOL    HW1 8017   2.043   4.800   1.542
 2666SOL    HW2 8018   2.031   4.812   1.380
 2667SOL     OW 8019   3.209   4.783   1.234
 2667SOL    HW1 8020   3.233   4.720   1.160
 2667SOL    HW2 8021   3.119   4.823   1.216
 2668SOL     OW 8022   3.164   4.579   0.309
 2668SOL    HW1 8023   3.078   4.548   0.351
 2668SOL    HW2 8024   3.160   4.565   0.210
 2669SOL     OW 8025   2.765   3.810   0.133
 2669SOL    HW1 8026   2.816   3.811   0.047
 2669SOL    HW2 8027   2.821   3.768   0.204
 2670SOL     OW 8028   3.588   3.859   0.523
 2670SOL    HW1 8029   3.661   3.842   0.456
 2670SOL    HW2 8030   3.557   3.772   0.561
 2671SOL     OW 8031   3.142   4.651   0.672
 2671SOL    HW1 8032   3.202   4.570   0.674
 2671SOL    HW2 8033   3.182   4.720   0.612
 2672SOL     OW 8034   3.703   3.899   0.963
 2672SOL    HW1 8035   3.742   3.814   0.927
 2672SOL    HW2 8036   3.605   3.901   0.944
 2673SOL     OW 8037   2.125   4.050   0.720
 2673SOL    HW1 8038   2.046   4.101   0.686
 2673SOL    HW2 8039   2.116   4.035   0.818
 2674SOL     OW 8040   2.684   4.726   1.372
 2674SOL    HW1 8041   2.724   4.725   1.280
 2674SOL    HW2 8042   2.694   4.818   1.412
 2675SOL     OW 8043   2.778   4.634   0.291
 2675SOL    HW1 8044   2.841   4.672   0.223
 2675SOL    HW2 8045   2.818   4.551   0.330
 2676SOL     OW 8046   2.234   5.012   1.490
 2676SOL    HW1 8047   2.221   5.105   1.456
 2676SOL    HW2 8048   2.150   4.960   1.477
 2677SOL     OW 8049   2.876   3.960   0.971
 2677SOL    HW1 8050   2.868   3.924   0.878
 2677SOL    HW2 8051   2.874   3.884   1.036
 2678SOL     OW 8052   3.571   4.109   1.381
 2678SOL    HW1 8053   3.644   4.178   1.385
 2678SOL    HW2 8054   3.599   4.034   1.322
 2679SOL     OW 8055   1.967   4.737   1.726
 2679SOL    HW1 8056   1.890   4.704   1.780
 2679SOL    HW2 8057   2.052   4.707   1.768
 2680SOL     OW 8058   2.534   3.927   1.489
 2680SOL    HW1 8059   2.624   3.911   1.449
 2680SOL    HW2 8060   2.542   3.932   1.588
 2681SOL     OW 8061   3.302   4.580   1.398
 2681SOL    HW1 8062   3.245   4.632   1.335
 2681SOL    HW2 8063   3.398   4.592   1.374
 2682SOL     OW 8064   1.934   3.890   0.318
 2682SOL    HW1 8065   1.917   3.973   0.264
 2682SOL    HW2 8066   2.024   3.853   0.296
 2683SOL     OW 8067   3.045   5.059   0.119
 2683SOL    HW1 8068   2.946   5.048   0.121
 2683SOL    HW2 8069   3.079   5.074   0.212
 2684SOL     OW 8070   2.475   4.566   1.431
 2684SOL    HW1 8071   2.531   4.647   1.414
 2684SOL    HW2 8072   2.534   4.486   1.434
 2685SOL     OW 8073   2.578   4.289   1.708
 2685SOL    HW1 8074   2.597   4.354   1.782
 2685SOL    HW2 8075   2.638   4.209   1.717
 2686SOL     OW 8076   3.536   4.607   1.254
 2686SOL    HW1 8077   3.509   4.518   1.217
 2686SOL    HW2 8078   3.537   4.675   1.181
 2687SOL     OW 8079   3.087   4.049   0.449
 2687SOL    HW1 8080   3.152   3.975   0.438
 2687SOL    HW2 8081   3.107   4.099   0.533
 2688SOL     OW 8082   2.456   4.469   0.652
 2688SOL    HW1 8083   2.506   4.554   0.633
 2688SOL    HW2 8084   2.368   4.471   0.604
 2689SOL     OW 8085   3.639   4.066   1.642
 2689SOL    HW1 8086   3.622   4.097   1.548
 2689SOL    HW2 8087   3.555   4.029   1.680
 2690SOL     OW 8088   3.592   4.658   1.517
 2690SOL    HW1 8089   3.630   4.749   1.532
 2690SOL    HW2 8090   3.584   4.641   1.418
 2691SOL     OW 8091   2.721   4.680   0.861
 2691SOL    HW1 8092   2.775   4.611   0.909
 2691SOL    HW2 8093   2.689   4.749   0.927
 2692SOL     OW 8094   2.945   4.708   0.087
 2692SOL    HW1 8095   2.922   4.761   0.005
 2692SOL    HW2 8096   3.026   4.652   0.068
 2693SOL     OW 8097   3.686   3.916   1.227
 2693SOL    HW1 8098   3.682   3.826   1.271
 2693SOL    HW2 8099   3.689   3.905   1.128
 2694SOL     OW 8100   2.290   4.148   0.520
 2694SOL    HW1 8101   2.320   4.076   0.458
 2694SOL    HW2 8102   2.251   4.108   0.603
 2695SOL     OW 8103   2.179   4.271   1.280
 2695SOL    HW1 8104   2.217   4.212   1.352
 2695SOL    HW2 8105   2.219   4.245   1.192
 2696SOL     OW 8106   3.286   3.938   1.112
 2696SOL    HW1 8107   3.338   3.873   1.167
 2696SOL    HW2 8108   3.237   4.001   1.173
 2697SOL     OW 8109   2.863   3.758   1.154
 2697SOL    HW1 8110   2.800   3.686   1.123
 2697SOL    HW2 8111   2.956   3.722   1.154
 2698SOL     OW 8112   2.632   5.054   0.301
 2698SOL    HW1 8113   2.586   4.967   0.318
 2698SOL    HW2 8114   2.723   5.051   0.342
 2699SOL     OW 8115   3.214   3.776   0.168
 2699SOL    HW1 8116   3.249   3.735   0.084
 2699SOL    HW2 8117   3.124   3.738   0.188
 2700SOL     OW 8118   3.162   4.177   0.691
 2700SOL    HW1 8119   3.103   4.257   0.695
 2700SOL    HW2 8120   3.177   4.142   0.784
 2701SOL     OW 8121   3.455   3.945   0.882
 2701SOL    HW1 8122   3.371   3.944   0.936
 2701SOL    HW2 8123   3.457   4.028   0.826
 2702SOL     OW 8124   1.901   4.801   0.300
 2702SOL    HW1 8125   2.000   4.790   0.291
 2702SOL    HW2 8126   1.861   4.715   0.332
 2703SOL     OW 8127   2.092   4.352   1.975
 2703SOL    HW1 8128   1.999   4.350   2.012
 2703SOL    HW2 8129   2.093   4.313   1.883
 2704SOL     OW 8130   2.087   3.999   2.858
 2704SOL    HW1 8131   2.122   3.982   2.950
 2704SOL    HW2 8132   1.999   3.954   2.846
 2705SOL     OW 8133   1.881   4.092   2.509
 2705SOL    HW1 8134   1.799   4.135   2.548
 2705SOL    HW2 8135   1.853   4.019   2.446
 2706SOL     OW 8136   2.997   4.427   2.579
 2706SOL    HW1 8137   3.054   4.505   2.554
 2706SOL    HW2 8138   2.937   4.453   2.655
 2707SOL     OW 8139   3.617   4.331   2.093
 2707SOL    HW1 8140   3.605   4.318   1.994
 2707SOL    HW2 8141   3.587   4.250   2.142
 2708SOL     OW 8142   2.630   4.868   2.885
 2708SOL    HW1 8143   2.552   4.885   2.945
 2708SOL    HW2 8144   2.664   4.955   2.849
 2709SOL     OW 8145   2.712   4.522   3.685
 2709SOL    HW1 8146   2.708   4.598   3.750
 2709SOL    HW2 8147   2.734   4.558   3.594
 2710SOL     OW 8148   2.547   4.736   2.527
 2710SOL    HW1 8149   2.616   4.720   2.597
 2710SOL    HW2 8150   2.474   4.793   2.565
 2711SOL     OW 8151   2.300   4.116   3.361
 2711SOL    HW1 8152   2.382   4.060   3.370
 2711SOL    HW2 8153   2.219   4.058   3.365
 2712SOL     OW 8154   3.465   4.171   2.599
 2712SOL    HW1 8155   3.391   4.217   2.549
 2712SOL    HW2 8156   3.516   4.239   2.652
 2713SOL     OW 8157   2.092   5.158   2.400
 2713SOL    HW1 8158   2.066   5.254   2.400
 2713SOL    HW2 8159   2.021   5.104   2.445
 2714SOL     OW 8160   2.102   4.815   2.748
 2714SOL    HW1 8161   2.116   4.731   2.800
 2714SOL    HW2 8162   2.047   4.879   2.803
 2715SOL     OW 8163   2.468   4.688   1.985
 2715SOL    HW1 8164   2.475   4.772   1.931
 2715SOL    HW2 8165   2.514   4.701   2.073
 2716SOL     OW 8166   3.456   3.838   3.342
 2716SOL    HW1 8167   3.438   3.905   3.270
 2716SOL    HW2 8168   3.453   3.884   3.431
 2717SOL     OW 8169   1.984   4.367   2.425
 2717SOL    HW1 8170   1.939   4.279   2.442
 2717SOL    HW2 8171   1.983   4.421   2.509
 2718SOL     OW 8172   3.551   4.646   2.474
 2718SOL    HW1 8173   3.646   4.617   2.482
 2718SOL    HW2 8174   3.543   4.711   2.399
 2719SOL     OW 8175   1.975   4.461   3.459
 2719SOL    HW1 8176   2.063   4.448   3.504
 2719SOL    HW2 8177   1.962   4.558   3.437
 2720SOL     OW 8178   3.155   4.952   3.285
 2720SOL    HW1 8179   3.192   4.879   3.227
 2720SOL    HW2 8180   3.207   4.957   3.370
 2721SOL     OW 8181   2.671   3.728   2.364
 2721SOL    HW1 8182   2.711   3.819   2.355
 2721SOL    HW2 8183   2.571   3.736   2.370
 2722SOL     OW 8184   2.059   4.700   3.126
 2722SOL    HW1 8185   2.148   4.655   3.112
 2722SOL    HW2 8186   1.986   4.635   3.107
 2723SOL     OW 8187   3.387   4.723   2.052
 2723SOL    HW1 8188   3.324   4.647   2.065
 2723SOL    HW2 8189   3.435   4.741   2.138
 2724SOL     OW 8190   2.179   3.975   3.663
 2724SOL    HW1 8191   2.250   4.046   3.669
 2724SOL    HW2 8192   2.091   4.014   3.691
 2725SOL     OW 8193   2.460   4.453   2.132
 2725SOL    HW1 8194   2.484   4.522   2.064
 2725SOL    HW2 8195   2.382   4.486   2.186
 2726SOL     OW 8196   3.143   4.069   2.806
 2726SOL    HW1 8197   3.057   4.019   2.793
 2726SOL    HW2 8198   3.205   4.015   2.862
 2727SOL     OW 8199   2.669   4.329   3.327
 2727SOL    HW1 8200   2.622   4.326   3.416
 2727SOL    HW2 8201   2.618   4.274   3.261
 2728SOL     OW 8202   3.256   4.193   3.536
 2728SOL    HW1 8203   3.236   4.236   3.624
 2728SOL    HW2 8204   3.334   4.131   3.545
 2729SOL     OW 8205   2.835   4.614   3.434
 2729SOL    HW1 8206   2.881   4.530   3.405
 2729SOL    HW2 8207   2.779   4.648   3.359
 2730SOL     OW 8208   2.853   4.134   3.104
 2730SOL    HW1 8209   2.776   4.168   3.158
 2730SOL    HW2 8210   2.819   4.083   3.025
 2731SOL     OW 8211   2.903   4.425   2.291
 2731SOL    HW1 8212   2.929   4.421   2.387
 2731SOL    HW2 8213   2.818   4.374   2.277
 2732SOL     OW 8214   1.938   4.535   2.651
 2732SOL    HW1 8215   2.037   4.523   2.660
 2732SOL    HW2 8216   1.914   4.630   2.672
 2733SOL     OW 8217   2.727   4.072   2.057
 2733SOL    HW1 8218   2.786   4.135   2.008
 2733SOL    HW2 8219   2.746   3.978   2.028
 2734SOL     OW 8220   3.581   4.309   3.693
 2734SOL    HW1 8221   3.555   4.398   3.657
 2734SOL    HW2 8222   3.579   4.241   3.620
 2735SOL     OW 8223   2.412   3.920   2.747
 2735SOL    HW1 8224   2.407   3.915   2.847
 2735SOL    HW2 8225   2.414   4.016   2.718
 2736SOL     OW 8226   3.657   4.790   2.735
 2736SOL    HW1 8227   3.595   4.775   2.659
 2736SOL    HW2 8228   3.605   4.801   2.820
 2737SOL     OW 8229   2.183   4.667   2.104
 2737SOL    HW1 8230   2.265   4.706   2.062
 2737SOL    HW2 8231   2.156   4.585   2.055
 2738SOL     OW 8232   3.320   4.459   2.590
 2738SOL    HW1 8233   3.315   4.394   2.665
 2738SOL    HW2 8234   3.400   4.518   2.603
 2739SOL     OW 8235   2.064   4.009   3.360
 2739SOL    HW1 8236   1.984   4.069   3.347
 2739SOL    HW2 8237   2.054   3.960   3.446
 2740SOL     OW 8238   3.262   3.831   2.288
 2740SOL    HW1 8239   3.238   3.794   2.198
 2740SOL    HW2 8240   3.361   3.847   2.292
 2741SOL     OW 8241   2.244   4.424   2.342
 2741SOL    HW1 8242   2.289   4.334   2.339
 2741SOL    HW2 8243   2.150   4.413   2.375
 2742SOL     OW 8244   3.409   3.946   3.591
 2742SOL    HW1 8245   3.404   3.983   3.683
 2742SOL    HW2 8246   3.337   3.877   3.579
 2743SOL     OW 8247   2.476   3.846   1.979
 2743SOL    HW1 8248   2.574   3.824   1.986
 2743SOL    HW2 8249   2.445   3.829   1.886
 2744SOL     OW 8250   2.643   3.988   3.611
 2744SOL    HW1 8251   2.710   3.927   3.654
 2744SOL    HW2 8252   2.570   4.007   3.676
 2745SOL     OW 8253   3.213   4.314   3.295
 2745SOL    HW1 8254   3.241   4.271   3.380
 2745SOL    HW2 8255   3.238   4.410   3.296
 2746SOL     OW 8256   2.784   4.227   2.761
 2746SOL    HW1 8257   2.759   4.218   2.665
 2746SOL    HW2 8258   2.832   4.145   2.792
 2747SOL     OW 8259   2.401   3.788   2.374
 2747SOL    HW1 8260   2.320   3.789   2.432
 2747SOL    HW2 8261   2.404   3.871   2.319
 2748SOL     OW 8262   2.159   3.759   2.033
 2748SOL    HW1 8263   2.208   3.843   2.012
 2748SOL    HW2 8264   2.221   3.694   2.078
 2749SOL     OW 8265   2.797   3.960   2.342
 2749SOL    HW1 8266   2.749   4.001   2.264
 2749SOL    HW2 8267   2.896   3.958   2.323
 2750SOL     OW 8268   2.938   4.407   3.326
 2750SOL    HW1 8269   2.858   4.346   3.329
 2750SOL    HW2 8270   3.019   4.354   3.302
 2751SOL     OW 8271   2.321   4.876   2.603
 2751SOL    HW1 8272   2.250   4.849   2.668
 2751SOL    HW2 8273   2.295   4.848   2.510
 2752SOL     OW 8274   2.894   4.273   1.878
 2752SOL    HW1 8275   2.853   4.355   1.839
 2752SOL    HW2 8276   2.958   4.299   1.951
 2753SOL     OW 8277   1.940   4.280   3.248
 2753SOL    HW1 8278   2.032   4.279   3.207
 2753SOL    HW2 8279   1.934   4.354   3.315
 2754SOL     OW 8280   2.423   3.946   3.009
 2754SOL    HW1 8281   2.461   3.862   3.046
 2754SOL    HW2 8282   2.335   3.965   3.053
 2755SOL     OW 8283   2.728   4.178   2.504
 2755SOL    HW1 8284   2.696   4.250   2.442
 2755SOL    HW2 8285   2.752   4.097   2.451
 2756SOL     OW 8286   2.879   3.763   2.615
 2756SOL    HW1 8287   2.807   3.768   2.546
 2756SOL    HW2 8288   2.855   3.694   2.684
 2757SOL     OW 8289   3.291   4.897   2.729
 2757SOL    HW1 8290   3.236   4.813   2.722
 2757SOL    HW2 8291   3.317   4.926   2.637
 2758SOL     OW 8292   3.328   4.314   2.854
 2758SOL    HW1 8293   3.298   4.219   2.861
 2758SOL    HW2 8294   3.401   4.330   2.920
 2759SOL     OW 8295   3.719   4.557   2.239
 2759SOL    HW1 8296   3.761   4.493   2.303
 2759SOL    HW2 8297   3.681   4.506   2.161
 2760SOL     OW 8298   3.252   4.299   1.940
 2760SOL    HW1 8299   3.198   4.278   2.021
 2760SOL    HW2 8300   3.343   4.258   1.949
 2761SOL     OW 8301   2.389   3.980   2.190
 2761SOL    HW1 8302   2.416   3.921   2.115
 2761SOL    HW2 8303   2.389   4.075   2.159
 2762SOL     OW 8304   3.616   4.947   3.450
 2762SOL    HW1 8305   3.707   4.908   3.437
 2762SOL    HW2 8306   3.624   5.043   3.474
 2763SOL     OW 8307   3.500   4.823   2.941
 2763SOL    HW1 8308   3.505   4.904   3.000
 2763SOL    HW2 8309   3.414   4.825   2.890
 2764SOL     OW 8310   2.777   3.813   3.264
 2764SOL    HW1 8311   2.802   3.793   3.169
 2764SOL    HW2 8312   2.849   3.869   3.306
 2765SOL     OW 8313   2.567   4.774   2.230
 2765SOL    HW1 8314   2.553   4.781   2.329
 2765SOL    HW2 8315   2.651   4.723   2.212
 2766SOL     OW 8316   2.272   4.537   3.113
 2766SOL    HW1 8317   2.358   4.549   3.163
 2766SOL    HW2 8318   2.230   4.450   3.140
 2767SOL     OW 8319   3.136   4.110   3.124
 2767SOL    HW1 8320   3.157   4.184   3.188
 2767SOL    HW2 8321   3.047   4.127   3.081
 2768SOL     OW 8322   2.229   4.824   2.363
 2768SOL    HW1 8323   2.222   4.907   2.307
 2768SOL    HW2 8324   2.233   4.744   2.303
 2769SOL     OW 8325   2.428   4.261   2.727
 2769SOL    HW1 8326   2.440   4.327   2.653
 2769SOL    HW2 8327   2.474   4.295   2.810
 2770SOL     OW 8328   3.444   4.363   2.334
 2770SOL    HW1 8329   3.413   4.424   2.407
 2770SOL    HW2 8330   3.494   4.415   2.265
 2771SOL     OW 8331   2.264   4.475   3.460
 2771SOL    HW1 8332   2.332   4.530   3.413
 2771SOL    HW2 8333   2.304   4.387   3.487
 2772SOL     OW 8334   3.449   4.503   3.532
 2772SOL    HW1 8335   3.357   4.541   3.527
 2772SOL    HW2 8336   3.509   4.550   3.467
 2773SOL     OW 8337   2.875   3.829   3.632
 2773SOL    HW1 8338   2.881   3.914   3.580
 2773SOL    HW2 8339   2.907   3.753   3.575
 2774SOL     OW 8340   2.366   3.774   3.602
 2774SOL    HW1 8341   2.324   3.717   3.532
 2774SOL    HW2 8342   2.300   3.843   3.634
 2775SOL     OW 8343   2.435   4.594   2.891
 2775SOL    HW1 8344   2.479   4.683   2.882
 2775SOL    HW2 8345   2.372   4.594   2.968
 2776SOL     OW 8346   3.222   4.586   2.907
 2776SOL    HW1 8347   3.147   4.586   2.841
 2776SOL    HW2 8348   3.259   4.494   2.916
 2777SOL     OW 8349   3.071   4.249   2.137
 2777SOL    HW1 8350   3.084   4.165   2.191
 2777SOL    HW2 8351   3.042   4.323   2.197
 2778SOL     OW 8352   2.169   3.937   3.093
 2778SOL    HW1 8353   2.146   3.974   3.183
 2778SOL    HW2 8354   2.139   3.842   3.087
 2779SOL     OW 8355   2.594   4.358   2.926
 2779SOL    HW1 8356   2.653   4.332   2.850
 2779SOL    HW2 8357   2.566   4.454   2.915
 2780SOL     OW 8358   3.590   4.659   3.716
 2780SOL    HW1 8359   3.544   4.652   3.627
 2780SOL    HW2 8360   3.528   4.703   3.782
 2781SOL     OW 8361   2.169   3.787   2.480
 2781SOL    HW1 8362   2.158   3.881   2.513
 2781SOL    HW2 8363   2.164   3.724   2.557
 2782SOL     OW 8364   3.484   4.091   2.236
 2782SOL    HW1 8365   3.486   4.015   2.300
 2782SOL    HW2 8366   3.436   4.168   2.276
 2783SOL     OW 8367   2.885   4.490   2.828
 2783SOL    HW1 8368   2.900   4.511   2.924
 2783SOL    HW2 8369   2.855   4.395   2.819
 2784SOL     OW 8370   2.212   4.622   3.666
 2784SOL    HW1 8371   2.288   4.666   3.714
 2784SOL    HW2 8372   2.247   4.575   3.584
 2785SOL     OW 8373   3.402   3.998   1.987
 2785SOL    HW1 8374   3.341   3.923   2.010
 2785SOL    HW2 8375   3.424   4.050   2.070
 2786SOL     OW 8376   3.165   4.562   1.904
 2786SOL    HW1 8377   3.199   4.469   1.919
 2786SOL    HW2 8378   3.183   4.589   1.809
 2787SOL     OW 8379   2.181   4.534   2.811
 2787SOL    HW1 8380   2.274   4.570   2.816
 2787SOL    HW2 8381   2.175   4.449   2.863
 2788SOL     OW 8382   2.201   4.233   2.868
 2788SOL    HW1 8383   2.149   4.150   2.851
 2788SOL    HW2 8384   2.278   4.238   2.804
 2789SOL     OW 8385   3.000   4.104   3.540
 2789SOL    HW1 8386   2.955   4.167   3.604
 2789SOL    HW2 8387   3.093   4.135   3.523
 2790SOL     OW 8388   3.022   3.931   3.339
 2790SOL    HW1 8389   3.022   3.995   3.416
 2790SOL    HW2 8390   3.050   3.979   3.256
 2791SOL     OW 8391   2.864   4.520   3.100
 2791SOL    HW1 8392   2.905   4.488   3.186
 2791SOL    HW2 8393   2.768   4.493   3.097
 2792SOL     OW 8394   1.902   4.268   2.976
 2792SOL    HW1 8395   1.987   4.235   2.935
 2792SOL    HW2 8396   1.915   4.283   3.074
 2793SOL     OW 8397   2.051   4.244   3.584
 2793SOL    HW1 8398   2.110   4.204   3.514
 2793SOL    HW2 8399   1.993   4.315   3.543
 2794SOL     OW 8400   3.231   4.674   3.522
 2794SOL    HW1 8401   3.270   4.763   3.542
 2794SOL    HW2 8402   3.241   4.654   3.425
 2795SOL     OW 8403   2.677   4.296   2.187
 2795SOL    HW1 8404   2.684   4.207   2.141
 2795SOL    HW2 8405   2.583   4.330   2.179
 2796SOL     OW 8406   3.519   4.328   3.068
 2796SOL    HW1 8407   3.481   4.259   3.130
 2796SOL    HW2 8408   3.601   4.292   3.024
 2797SOL     OW 8409   2.533   4.188   3.131
 2797SOL    HW1 8410   2.499   4.099   3.101
 2797SOL    HW2 8411   2.559   4.242   3.051
 2798SOL     OW 8412   2.335   4.224   2.053
 2798SOL    HW1 8413   2.396   4.304   2.057
 2798SOL    HW2 8414   2.240   4.255   2.060
 2799SOL     OW 8415   2.021   4.861   3.328
 2799SOL    HW1 8416   2.043   4.800   3.404
 2799SOL    HW2 8417   2.031   4.812   3.242
 2800SOL     OW 8418   3.209   4.783   3.096
 2800SOL    HW1 8419   3.233   4.720   3.022
 2800SOL    HW2 8420   3.119   4.823   3.078
 2801SOL     OW 8421   3.164   4.579   2.171
 2801SOL    HW1 8422   3.078   4.548   2.213
 2801SOL    HW2 8423   3.160   4.565   2.072
 2802SOL     OW 8424   3.588   3.859   2.385
 2802SOL    HW1 8425   3.661   3.842   2.318
 2802SOL    HW2 8426   3.557   3.772   2.423
 2803SOL     OW 8427   3.142   4.651   2.534
 2803SOL    HW1 8428   3.202   4.570   2.536
 2803SOL    HW2 8429   3.182   4.720   2.474
 2804SOL     OW 8430   3.703   3.899   2.825
 2804SOL    HW1 8431   3.742   3.814   2.789
 2804SOL    HW2 8432   3.605   3.901   2.806
 2805SOL     OW 8433   2.125   4.050   2.582
 2805SOL    HW1 8434   2.046   4.101   2.548
 2805SOL    HW2 8435   2.116   4.035   2.680
 2806SOL     OW 8436   2.684   4.726   3.234
 2806SOL    HW1 8437   2.724   4.725   3.142
 2806SOL    HW2 8438   2.694   4.818   3.274
 2807SOL     OW 8439   2.778   4.634   2.153
 2807SOL    HW1 8440   2.841   4.672   2.085
 2807SOL    HW2 8441   2.818   4.551   2.192
 2808SOL     OW 8442   2.234   5.012   3.352
 2808SOL    HW1 8443   2.221   5.105   3.318
 2808SOL    HW2 8444   2.150   4.960   3.339
 2809SOL     OW 8445   2.876   3.960   2.833
 2809SOL    HW1 8446   2.868   3.924   2.740
 2809SOL    HW2 8447   2.874   3.884   2.898
 2810SOL     OW 8448   3.571   4.109   3.243
 2810SOL    HW1 8449   3.644   4.178   3.247
 2810SOL    HW2 8450   3.599   4.034   3.184
 2811SOL     OW 8451   1.967   4.737   3.588
 2811SOL    HW1 8452   1.890   4.704   3.642
 2811SOL    HW2 8453   2.052   4.707   3.630
 2812SOL     OW 8454   2.534   3.927   3.351
 2812SOL    HW1 8455   2.624   3.911   3.311
 2812SOL    HW2 8456   2.542   3.932   3.450
 2813SOL     OW 8457   1.937   4.069   1.895
 2813SOL    HW1 8458   1.845   4.041   1.866
 2813SOL    HW2 8459   1.968   4.146   1.839
 2814SOL     OW 8460   3.302   4.580   3.260
 2814SOL    HW1 8461   3.245   4.632   3.197
 2814SOL    HW2 8462   3.398   4.592   3.236
 2815SOL     OW 8463   1.934   3.890   2.180
 2815SOL    HW1 8464   1.917   3.973   2.126
 2815SOL    HW2 8465   2.024   3.853   2.158
 2816SOL     OW 8466   3.045   5.059   1.981
 2816SOL    HW1 8467   2.946   5.048   1.983
 2816SOL    HW2 8468   3.079   5.074   2.074
 2817SOL     OW 8469   2.475   4.566   3.293
 2817SOL    HW1 8470   2.531   4.647   3.276
 2817SOL    HW2 8471   2.534   4.486   3.296
 2818SOL     OW 8472   2.578   4.289   3.570
 2818SOL    HW1 8473   2.597   4.354   3.644
 2818SOL    HW2 8474   2.638   4.209   3.579
 2819SOL     OW 8475   3.536   4.607   3.116
 2819SOL    HW1 8476   3.509   4.518   3.079
 2819SOL    HW2 8477   3.537   4.675   3.043
 2820SOL     OW 8478   3.087   4.049   2.311
 2820SOL    HW1 8479   3.152   3.975   2.300
 2820SOL    HW2 8480   3.107   4.099   2.395
 2821SOL     OW 8481   2.456   4.469   2.514
 2821SOL    HW1 8482   2.506   4.554   2.495
 2821SOL    HW2 8483   2.368   4.471   2.466
 2822SOL     OW 8484   3.639   4.066   3.504
 2822SOL    HW1 8485   3.622   4.097   3.410
 2822SOL    HW2 8486   3.555   4.029   3.542
 2823SOL     OW 8487   3.592   4.658   3.379
 2823SOL    HW1 8488   3.630   4.749   3.394
 2823SOL    HW2 8489   3.584   4.641   3.280
 2824SOL     OW 8490   2.721   4.680   2.723
 2824SOL    HW1 8491   2.775   4.611   2.771
 2824SOL    HW2 8492   2.689   4.749   2.789
 2825SOL     OW 8493   2.945   4.708   1.949
 2825SOL    HW1 8494   2.922   4.761   1.867
 2825SOL    HW2 8495   3.026   4.652   1.930
 2826SOL     OW 8496   3.686   3.916   3.089
 2826SOL    HW1 8497   3.682   3.826   3.133
 2826SOL    HW2 8498   3.689   3.905   2.990
 2827SOL     OW 8499   2.290   4.148   2.382
 2827SOL    HW1 8500   2.320   4.076   2.320
 2827SOL    HW2 8501   2.251   4.108   2.465
 2828SOL     OW 8502   2.179   4.271   3.142
 2828SOL    HW1 8503   2.217   4.212   3.214
 2828SOL    HW2 8504   2.219   4.245   3.054
 2829SOL     OW 8505   3.286   3.938   2.974
 2829SOL    HW1 8506   3.338   3.873   3.029
 2829SOL    HW2 8507   3.237   4.001   3.035
 2830SOL     OW 8508   2.863   3.758   3.016
 2830SOL    HW1 8509   2.800   3.686   2.985
 2830SOL    HW2 8510   2.956   3.722   3.016
 2831SOL     OW 8511   2.632   5.054   2.163
 2831SOL    HW1 8512   2.586   4.967   2.180
 2831SOL    HW2 8513   2.723   5.051   2.204
 2832SOL     OW 8514   3.214   3.776   2.030
 2832SOL    HW1 8515   3.249   3.735   1.946
 2832SOL    HW2 8516   3.124   3.738   2.050
 2833SOL     OW 8517   3.162   4.177   2.553
 2833SOL    HW1 8518   3.103   4.257   2.557
 2833SOL    HW2 8519   3.177   4.142   2.646
 2834SOL     OW 8520   3.455   3.945   2.744
 2834SOL    HW1 8521   3.371   3.944   2.798
 2834SOL    HW2 8522   3.457   4.028   2.688
 2835SOL     OW 8523   1.901   4.801   2.162
 2835SOL    HW1 8524   2.000   4.790   2.153
 2835SOL    HW2 8525   1.861   4.715   2.194
 2836SOL     OW 8526   2.092   4.352   3.837
 2836SOL    HW1 8527   1.999   4.350   3.874
 2836SOL    HW2 8528   2.093   4.313   3.745
 2837SOL     OW 8529   2.087   3.999   4.720
 2837SOL    HW1 8530   2.122   3.982   4.812
 2837SOL    HW2 8531   1.999   3.954   4.708
 2838SOL     OW 8532   1.881   4.092   4.371
 2838SOL    HW1 8533   1.799   4.135   4.410
 2838SOL    HW2 8534   1.853   4.019   4.308
 2839SOL     OW 8535   2.997   4.427   4.441
 2839SOL    HW1 8536   3.054   4.505   4.416
 2839SOL    HW2 8537   2.937   4.453   4.517
 2840SOL     OW 8538   3.617   4.331   3.955
 2840SOL    HW1 8539   3.605   4.318   3.856
 2840SOL    HW2 8540   3.587   4.250   4.004
 2841SOL     OW 8541   2.630   4.868   4.747
 2841SOL    HW1 8542   2.552   4.885   4.807
 2841SOL    HW2 8543   2.664   4.955   4.711
 2842SOL     OW 8544   2.547   4.736   4.389
 2842SOL    HW1 8545   2.616   4.720   4.459
 2842SOL    HW2 8546   2.474   4.793   4.427
 2843SOL     OW 8547   3.465   4.171   4.461
 2843SOL    HW1 8548   3.391   4.217   4.411
 2843SOL    HW2 8549   3.516   4.239   4.514
 2844SOL     OW 8550   2.092   5.158   4.262
 2844SOL    HW1 8551   2.066   5.254   4.262
 2844SOL    HW2 8552   2.021   5.104   4.307
 2845SOL     OW 8553   2.102   4.815   4.610
 2845SOL    HW1 8554   2.116   4.731   4.662
 2845SOL    HW2 8555   2.047   4.879   4.665
 2846SOL     OW 8556   2.468   4.688   3.847
 2846SOL    HW1 8557   2.475   4.772   3.793
 2846SOL    HW2 8558   2.514   4.701   3.935
 2847SOL     OW 8559   1.984   4.367   4.287
 2847SOL    HW1 8560   1.939   4.279   4.304
 2847SOL    HW2 8561   1.983   4.421   4.371
 2848SOL     OW 8562   3.551   4.646   4.336
 2848SOL    HW1 8563   3.646   4.617   4.344
 2848SOL    HW2 8564   3.543   4.711   4.261
 2849SOL     OW 8565   2.671   3.728   4.226
 2849SOL    HW1 8566   2.711   3.819   4.217
 2849SOL    HW2 8567   2.571   3.736   4.232
 2850SOL     OW 8568   2.059   4.700   4.988
 2850SOL    HW1 8569   2.148   4.655   4.974
 2850SOL    HW2 8570   1.986   4.635   4.969
 2851SOL     OW 8571   3.387   4.723   3.914
 2851SOL    HW1 8572   3.324   4.647   3.927
 2851SOL    HW2 8573   3.435   4.741   4.000
 2852SOL     OW 8574   2.460   4.453   3.994
 2852SOL    HW1 8575   2.484   4.522   3.926
 2852SOL    HW2 8576   2.382   4.486   4.048
 2853SOL     OW 8577   3.143   4.069   4.668
 2853SOL    HW1 8578   3.057   4.019   4.655
 2853SOL    HW2 8579   3.205   4.015   4.724
 2854SOL     OW 8580   2.903   4.425   4.153
 2854SOL    HW1 8581   2.929   4.421   4.249
 2854SOL    HW2 8582   2.818   4.374   4.139
 2855SOL     OW 8583   1.938   4.535   4.513
 2855SOL    HW1 8584   2.037   4.523   4.522
 2855SOL    HW2 8585   1.914   4.630   4.534
 2856SOL     OW 8586   2.727   4.072   3.919
 2856SOL    HW1 8587   2.786   4.135   3.870
 2856SOL    HW2 8588   2.746   3.978   3.890
 2857SOL     OW 8589   2.412   3.920   4.609
 2857SOL    HW1 8590   2.407   3.915   4.709
 2857SOL    HW2 8591   2.414   4.016   4.580
 2858SOL     OW 8592   3.657   4.790   4.597
 2858SOL    HW1 8593   3.595   4.775   4.521
 2858SOL    HW2 8594   3.605   4.801   4.682
 2859SOL     OW 8595   2.183   4.667   3.966
 2859SOL    HW1 8596   2.265   4.706   3.924
 2859SOL    HW2 8597   2.156   4.585   3.917
 2860SOL     OW 8598   3.320   4.459   4.452
 2860SOL    HW1 8599   3.315   4.394   4.527
 2860SOL    HW2 8600   3.400   4.518   4.465
 2861SOL     OW 8601   3.262   3.831   4.150
 2861SOL    HW1 8602   3.238   3.794   4.060
 2861SOL    HW2 8603   3.361   3.847   4.154
 2862SOL     OW 8604   2.244   4.424   4.204
 2862SOL    HW1 8605   2.289   4.334   4.201
 2862SOL    HW2 8606   2.150   4.413   4.237
 2863SOL     OW 8607   2.476   3.846   3.841
 2863SOL    HW1 8608   2.574   3.824   3.848
 2863SOL    HW2 8609   2.445   3.829   3.748
 2864SOL     OW 8610   2.784   4.227   4.623
 2864SOL    HW1 8611   2.759   4.218   4.527
 2864SOL    HW2 8612   2.832   4.145   4.654
 2865SOL     OW 8613   2.401   3.788   4.236
 2865SOL    HW1 8614   2.320   3.789   4.294
 2865SOL    HW2 8615   2.404   3.871   4.181
 2866SOL     OW 8616   2.159   3.759   3.895
 2866SOL    HW1 8617   2.208   3.843   3.874
 2866SOL    HW2 8618   2.221   3.694   3.940
 2867SOL     OW 8619   2.797   3.960   4.204
 2867SOL    HW1 8620   2.749   4.001   4.126
 2867SOL    HW2 8621   2.896   3.958   4.185
 2868SOL     OW 8622   2.321   4.876   4.465
 2868SOL    HW1 8623   2.250   4.849   4.530
 2868SOL    HW2 8624   2.295   4.848   4.372
 2869SOL     OW 8625   2.894   4.273   3.740
 2869SOL    HW1 8626   2.853   4.355   3.701
 2869SOL    HW2 8627   2.958   4.299   3.813
 2870SOL     OW 8628   2.728   4.178   4.366
 2870SOL    HW1 8629   2.696   4.250   4.304
 2870SOL    HW2 8630   2.752   4.097   4.313
 2871SOL     OW 8631   2.879   3.763   4.477
 2871SOL    HW1 8632   2.807   3.768   4.408
 2871SOL    HW2 8633   2.855   3.694   4.546
 2872SOL     OW 8634   3.291   4.897   4.591
 2872SOL    HW1 8635   3.236   4.813   4.584
 2872SOL    HW2 8636   3.317   4.926   4.499
 2873SOL     OW 8637   3.328   4.314   4.716
 2873SOL    HW1 8638   3.298   4.219   4.723
 2873SOL    HW2 8639   3.401   4.330   4.782
 2874SOL     OW 8640   3.719   4.557   4.101
 2874SOL    HW1 8641   3.761   4.493   4.165
 2874SOL    HW2 8642   3.681   4.506   4.023
 2875SOL     OW 8643   3.252   4.299   3.802
 2875SOL    HW1 8644   3.198   4.278   3.883
 2875SOL    HW2 8645   3.343   4.258   3.811
 2876SOL     OW 8646   2.389   3.980   4.052
 2876SOL    HW1 8647   2.416   3.921   3.977
 2876SOL    HW2 8648   2.389   4.075   4.021
 2877SOL     OW 8649   3.500   4.823   4.803
 2877SOL    HW1 8650   3.505   4.904   4.862
 2877SOL    HW2 8651   3.414   4.825   4.752
 2878SOL     OW 8652   2.567   4.774   4.092
 2878SOL    HW1 8653   2.553   4.781   4.191
 2878SOL    HW2 8654   2.651   4.723   4.074
 2879SOL     OW 8655   2.272   4.537   4.975
 2879SOL    HW1 8656   2.358   4.549   5.025
 2879SOL    HW2 8657   2.230   4.450   5.002
 2880SOL     OW 8658   2.229   4.824   4.225
 2880SOL    HW1 8659   2.222   4.907   4.169
 2880SOL    HW2 8660   2.233   4.744   4.165
 2881SOL     OW 8661   2.428   4.261   4.589
 2881SOL    HW1 8662   2.440   4.327   4.515
 2881SOL    HW2 8663   2.474   4.295   4.672
 2882SOL     OW 8664   3.444   4.363   4.196
 2882SOL    HW1 8665   3.413   4.424   4.269
 2882SOL    HW2 8666   3.494   4.415   4.127
 2883SOL     OW 8667   2.435   4.594   4.753
 2883SOL    HW1 8668   2.479   4.683   4.744
 2883SOL    HW2 8669   2.372   4.594   4.830
 2884SOL     OW 8670   3.071   4.249   3.999
 2884SOL    HW1 8671   3.084   4.165   4.053
 2884SOL    HW2 8672   3.042   4.323   4.059
 2885SOL     OW 8673   2.169   3.937   4.955
 2885SOL    HW1 8674   2.146   3.974   5.045
 2885SOL    HW2 8675   2.139   3.842   4.949
 2886SOL     OW 8676   2.594   4.358   4.788
 2886SOL    HW1 8677   2.653   4.332   4.712
 2886SOL    HW2 8678   2.566   4.454   4.777
 2887SOL     OW 8679   2.169   3.787   4.342
 2887SOL    HW1 8680   2.158   3.881   4.375
 2887SOL    HW2 8681   2.164   3.724   4.419
 2888SOL     OW 8682   3.484   4.091   4.098
 2888SOL    HW1 8683   3.486   4.015   4.162
 2888SOL    HW2 8684   3.436   4.168   4.138
 2889SOL     OW 8685   2.885   4.490   4.690
 2889SOL    HW1 8686   2.900   4.511   4.786
 2889SOL    HW2 8687   2.855   4.395   4.681
 2890SOL     OW 8688   3.402   3.998   3.849
 2890SOL    HW1 8689   3.341   3.923   3.872
 2890SOL    HW2 8690   3.424   4.050   3.932
 2891SOL     OW 8691   3.165   4.562   3.766
 2891SOL    HW1 8692   3.199   4.469   3.781
 2891SOL    HW2 8693   3.183   4.589   3.671
 2892SOL     OW 8694   2.181   4.534   4.673
 2892SOL    HW1 8695   2.274   4.570   4.678
 2892SOL    HW2 8696   2.175   4.449   4.725
 2893SOL     OW 8697   2.201   4.233   4.730
 2893SOL    HW1 8698   2.149   4.150   4.713
 2893SOL    HW2 8699   2.278   4.238   4.666
 2894SOL     OW 8700   2.864   4.520   4.962
 2894SOL    HW1 8701   2.905   4.488   5.048
 2894SOL    HW2 8702   2.768   4.493   4.959
 2895SOL     OW 8703   1.902   4.268   4.838
 2895SOL    HW1 8704   1.987   4.235   4.797
 2895SOL    HW2 8705   1.915   4.283   4.936
 2896SOL     OW 8706   2.677   4.296   4.049
 2896SOL    HW1 8707   2.684   4.207   4.003
 2896SOL    HW2 8708   2.583   4.330   4.041
 2897SOL     OW 8709   2.533   4.188   4.993
 2897SOL    HW1 8710   2.499   4.099   4.963
 2897SOL    HW2 8711   2.559   4.242   4.913
 2898SOL     OW 8712   2.335   4.224   3.915
 2898SOL    HW1 8713   2.396   4.304   3.919
 2898SOL    HW2 8714   2.240   4.255   3.922
 2899SOL     OW 8715   3.164   4.579   4.033
 2899SOL    HW1 8716   3.078   4.548   4.075
 2899SOL    HW2 8717   3.160   4.565   3.934
 2900SOL     OW 8718   3.588   3.859   4.247
 2900SOL    HW1 8719   3.661   3.842   4.180
 2900SOL    HW2 8720   3.557   3.772   4.285
 2901SOL     OW 8721   3.142   4.651   4.396
 2901SOL    HW1 8722   3.202   4.570   4.398
 2901SOL    HW2 8723   3.182   4.720   4.336
 2902SOL     OW 8724   3.703   3.899   4.687
 2902SOL    HW1 8725   3.742   3.814   4.651
 2902SOL    HW2 8726   3.605   3.901   4.668
 2903SOL     OW 8727   2.125   4.050   4.444
 2903SOL    HW1 8728   2.046   4.101   4.410
 2903SOL    HW2 8729   2.116   4.035   4.542
 2904SOL     OW 8730   2.778   4.634   4.015
 2904SOL    HW1 8731   2.841   4.672   3.947
 2904SOL    HW2 8732   2.818   4.551   4.054
 2905SOL     OW 8733   2.876   3.960   4.695
 2905SOL    HW1 8734   2.868   3.924   4.602
 2905SOL    HW2 8735   2.874   3.884   4.760
 2906SOL     OW 8736   1.937   4.069   3.757
 2906SOL    HW1 8737   1.845   4.041   3.728
 2906SOL    HW2 8738   1.968   4.146   3.701
 2907SOL     OW 8739   1.934   3.890   4.042
 2907SOL    HW1 8740   1.917   3.973   3.988
 2907SOL    HW2 8741   2.024   3.853   4.020
 2908SOL     OW 8742   3.045   5.059   3.843
 2908SOL    HW1 8743   2.946   5.048   3.845
 2908SOL    HW2 8744   3.079   5.074   3.936
 2909SOL     OW 8745   3.536   4.607   4.978
 2909SOL    HW1 8746   3.509   4.518   4.941
 2909SOL    HW2 8747   3.537   4.675   4.905
 2910SOL     OW 8748   3.087   4.049   4.173
 2910SOL    HW1 8749   3.152   3.975   4.162
 2910SOL    HW2 8750   3.107   4.099   4.257
 2911SOL     OW 8751   2.456   4.469   4.376
 2911SOL    HW1 8752   2.506   4.554   4.357
 2911SOL    HW2 8753   2.368   4.471   4.328
 2912SOL     OW 8754   2.721   4.680   4.585
 2912SOL    HW1 8755   2.775   4.611   4.633
 2912SOL    HW2 8756   2.689   4.749   4.651
 2913SOL     OW 8757   2.945   4.708   3.811
 2913SOL    HW1 8758   2.922   4.761   3.729
 2913SOL    HW2 8759   3.026   4.652   3.792
 2914SOL     OW 8760   3.686   3.916   4.951
 2914SOL    HW1 8761   3.682   3.826   4.995
 2914SOL    HW2 8762   3.689   3.905   4.852
 2915SOL     OW 8763   2.290   4.148   4.244
 2915SOL    HW1 8764   2.320   4.076   4.182
 2915SOL    HW2 8765   2.251   4.108   4.327
 2916SOL     OW 8766   3.286   3.938   4.836
 2916SOL    HW1 8767   3.338   3.873   4.891
 2916SOL    HW2 8768   3.237   4.001   4.897
 2917SOL     OW 8769   2.632   5.054   4.025
 2917SOL    HW1 8770   2.586   4.967   4.042
 2917SOL    HW2 8771   2.723   5.051   4.066
 2918SOL     OW 8772   3.214   3.776   3.892
 2918SOL    HW1 8773   3.249   3.735   3.808
 2918SOL    HW2 8774   3.124   3.738   3.912
 2919SOL     OW 8775   3.162   4.177   4.415
 2919SOL    HW1 8776   3.103   4.257   4.419
 2919SOL    HW2 8777   3.177   4.142   4.508
 2920SOL     OW 8778   3.455   3.945   4.606
 2920SOL    HW1 8779   3.371   3.944   4.660
 2920SOL    HW2 8780   3.457   4.028   4.550
 2921SOL     OW 8781   1.901   4.801   4.024
 2921SOL    HW1 8782   2.000   4.790   4.015
 2921SOL    HW2 8783   1.861   4.715   4.056
 2922SOL     OW 8784   3.954   0.628   0.113
 2922SOL    HW1 8785   3.861   0.626   0.150
 2922SOL    HW2 8786   3.955   0.589   0.021
 2923SOL     OW 8787   3.949   0.275   0.996
 2923SOL    HW1 8788   3.984   0.258   1.088
 2923SOL    HW2 8789   3.861   0.230   0.984
 2924SOL     OW 8790   3.743   0.368   0.647
 2924SOL    HW1 8791   3.661   0.411   0.686
 2924SOL    HW2 8792   3.715   0.295   0.584
 2925SOL     OW 8793   4.293   1.275   1.165
 2925SOL    HW1 8794   4.200   1.268   1.128
 2925SOL    HW2 8795   4.304   1.364   1.209
 2926SOL     OW 8796   4.492   1.144   1.023
 2926SOL    HW1 8797   4.414   1.161   1.083
 2926SOL    HW2 8798   4.526   1.231   0.987
 2927SOL     OW 8799   4.574   0.798   1.823
 2927SOL    HW1 8800   4.570   0.874   1.888
 2927SOL    HW2 8801   4.596   0.834   1.732
 2928SOL     OW 8802   4.409   1.012   0.665
 2928SOL    HW1 8803   4.478   0.996   0.735
 2928SOL    HW2 8804   4.336   1.069   0.703
 2929SOL     OW 8805   4.410   1.161   1.803
 2929SOL    HW1 8806   4.470   1.240   1.817
 2929SOL    HW2 8807   4.324   1.192   1.762
 2930SOL     OW 8808   4.059   1.435   1.061
 2930SOL    HW1 8809   3.981   1.404   1.008
 2930SOL    HW2 8810   4.117   1.493   1.004
 2931SOL     OW 8811   4.162   0.392   1.499
 2931SOL    HW1 8812   4.244   0.336   1.508
 2931SOL    HW2 8813   4.081   0.334   1.503
 2932SOL     OW 8814   3.955   1.713   0.483
 2932SOL    HW1 8815   3.989   1.790   0.537
 2932SOL    HW2 8816   3.999   1.713   0.393
 2933SOL     OW 8817   4.851   1.341   1.690
 2933SOL    HW1 8818   4.898   1.341   1.778
 2933SOL    HW2 8819   4.803   1.254   1.679
 2934SOL     OW 8820   3.954   1.434   0.538
 2934SOL    HW1 8821   3.928   1.530   0.538
 2934SOL    HW2 8822   3.883   1.380   0.583
 2935SOL     OW 8823   3.964   1.091   0.886
 2935SOL    HW1 8824   3.978   1.007   0.938
 2935SOL    HW2 8825   3.909   1.155   0.941
 2936SOL     OW 8826   4.344   1.786   1.439
 2936SOL    HW1 8827   4.252   1.769   1.474
 2936SOL    HW2 8828   4.372   1.878   1.465
 2937SOL     OW 8829   4.330   0.964   0.123
 2937SOL    HW1 8830   4.337   1.048   0.069
 2937SOL    HW2 8831   4.376   0.977   0.211
 2938SOL     OW 8832   3.846   0.643   0.563
 2938SOL    HW1 8833   3.801   0.555   0.580
 2938SOL    HW2 8834   3.845   0.697   0.647
 2939SOL     OW 8835   3.751   1.596   0.117
 2939SOL    HW1 8836   3.732   1.500   0.138
 2939SOL    HW2 8837   3.718   1.654   0.192
 2940SOL     OW 8838   3.837   0.737   1.597
 2940SOL    HW1 8839   3.925   0.724   1.642
 2940SOL    HW2 8840   3.824   0.834   1.575
 2941SOL     OW 8841   4.337   1.365   0.726
 2941SOL    HW1 8842   4.288   1.278   0.735
 2941SOL    HW2 8843   4.314   1.408   0.639
 2942SOL     OW 8844   4.533   0.004   0.502
 2942SOL    HW1 8845   4.573   0.095   0.493
 2942SOL    HW2 8846   4.433   0.012   0.508
 2943SOL     OW 8847   3.921   0.976   1.264
 2943SOL    HW1 8848   4.010   0.931   1.250
 2943SOL    HW2 8849   3.848   0.911   1.245
 2944SOL     OW 8850   4.041   0.251   1.801
 2944SOL    HW1 8851   4.112   0.322   1.807
 2944SOL    HW2 8852   3.953   0.290   1.829
 2945SOL     OW 8853   4.322   0.729   0.270
 2945SOL    HW1 8854   4.346   0.798   0.202
 2945SOL    HW2 8855   4.244   0.762   0.324
 2946SOL     OW 8856   4.531   0.605   1.465
 2946SOL    HW1 8857   4.484   0.602   1.554
 2946SOL    HW2 8858   4.480   0.550   1.399
 2947SOL     OW 8859   4.697   0.890   1.572
 2947SOL    HW1 8860   4.743   0.806   1.543
 2947SOL    HW2 8861   4.641   0.924   1.497
 2948SOL     OW 8862   4.715   0.410   1.242
 2948SOL    HW1 8863   4.638   0.444   1.296
 2948SOL    HW2 8864   4.681   0.359   1.163
 2949SOL     OW 8865   4.765   0.701   0.429
 2949SOL    HW1 8866   4.791   0.697   0.525
 2949SOL    HW2 8867   4.680   0.650   0.415
 2950SOL     OW 8868   3.800   0.811   0.789
 2950SOL    HW1 8869   3.899   0.799   0.798
 2950SOL    HW2 8870   3.776   0.906   0.810
 2951SOL     OW 8871   3.854   1.821   1.571
 2951SOL    HW1 8872   3.844   1.806   1.670
 2951SOL    HW2 8873   3.768   1.857   1.535
 2952SOL     OW 8874   4.589   0.348   0.195
 2952SOL    HW1 8875   4.648   0.411   0.146
 2952SOL    HW2 8876   4.608   0.254   0.166
 2953SOL     OW 8877   4.274   0.196   0.885
 2953SOL    HW1 8878   4.269   0.191   0.985
 2953SOL    HW2 8879   4.276   0.292   0.856
 2954SOL     OW 8880   4.732   1.456   0.477
 2954SOL    HW1 8881   4.686   1.528   0.425
 2954SOL    HW2 8882   4.728   1.476   0.575
 2955SOL     OW 8883   4.075   1.801   0.853
 2955SOL    HW1 8884   4.125   1.715   0.859
 2955SOL    HW2 8885   4.140   1.878   0.850
 2956SOL     OW 8886   4.045   0.943   0.242
 2956SOL    HW1 8887   4.127   0.982   0.200
 2956SOL    HW2 8888   4.018   0.861   0.193
 2957SOL     OW 8889   4.185   1.266   1.727
 2957SOL    HW1 8890   4.135   1.267   1.641
 2957SOL    HW2 8891   4.122   1.248   1.803
 2958SOL     OW 8892   3.926   0.285   1.498
 2958SOL    HW1 8893   3.846   0.345   1.485
 2958SOL    HW2 8894   3.916   0.236   1.584
 2959SOL     OW 8895   4.188   1.743   0.323
 2959SOL    HW1 8896   4.221   1.782   0.409
 2959SOL    HW2 8897   4.264   1.736   0.258
 2960SOL     OW 8898   3.973   1.785   1.241
 2960SOL    HW1 8899   4.030   1.720   1.291
 2960SOL    HW2 8900   3.957   1.752   1.148
 2961SOL     OW 8901   4.664   1.698   0.904
 2961SOL    HW1 8902   4.744   1.641   0.925
 2961SOL    HW2 8903   4.615   1.658   0.827
 2962SOL     OW 8904   4.106   0.700   0.480
 2962SOL    HW1 8905   4.151   0.610   0.477
 2962SOL    HW2 8906   4.012   0.689   0.513
 2963SOL     OW 8907   4.338   0.122   0.117
 2963SOL    HW1 8908   4.436   0.100   0.124
 2963SOL    HW2 8909   4.307   0.105   0.024
 2964SOL     OW 8910   4.505   0.264   1.749
 2964SOL    HW1 8911   4.572   0.203   1.792
 2964SOL    HW2 8912   4.432   0.283   1.814
 2965SOL     OW 8913   4.612   1.514   1.195
 2965SOL    HW1 8914   4.589   1.489   1.101
 2965SOL    HW2 8915   4.673   1.445   1.234
 2966SOL     OW 8916   4.527   1.402   0.924
 2966SOL    HW1 8917   4.617   1.416   0.882
 2966SOL    HW2 8918   4.456   1.404   0.853
 2967SOL     OW 8919   4.646   0.503   0.899
 2967SOL    HW1 8920   4.621   0.494   0.803
 2967SOL    HW2 8921   4.694   0.421   0.930
 2968SOL     OW 8922   4.263   0.064   0.512
 2968SOL    HW1 8923   4.182   0.065   0.570
 2968SOL    HW2 8924   4.266   0.147   0.457
 2969SOL     OW 8925   5.158   1.188   0.041
 2969SOL    HW1 8926   5.190   1.112   0.098
 2969SOL    HW2 8927   5.066   1.215   0.071
 2970SOL     OW 8928   4.021   0.035   0.171
 2970SOL    HW1 8929   4.070   0.119   0.150
 2970SOL    HW2 8930   4.083  -0.030   0.216
 2971SOL     OW 8931   4.659   0.236   0.480
 2971SOL    HW1 8932   4.611   0.277   0.402
 2971SOL    HW2 8933   4.758   0.234   0.461
 2972SOL     OW 8934   4.951   1.570   0.793
 2972SOL    HW1 8935   4.972   1.644   0.728
 2972SOL    HW2 8936   5.019   1.570   0.866
 2973SOL     OW 8937   4.183   1.152   0.741
 2973SOL    HW1 8938   4.112   1.125   0.806
 2973SOL    HW2 8939   4.157   1.124   0.648
 2974SOL     OW 8940   4.995   1.797   0.591
 2974SOL    HW1 8941   5.039   1.861   0.527
 2974SOL    HW2 8942   4.945   1.849   0.661
 2975SOL     OW 8943   4.756   0.549   0.016
 2975SOL    HW1 8944   4.715   0.631  -0.023
 2975SOL    HW2 8945   4.820   0.575   0.089
 2976SOL     OW 8946   3.802   0.556   1.386
 2976SOL    HW1 8947   3.894   0.555   1.345
 2976SOL    HW2 8948   3.796   0.630   1.453
 2977SOL     OW 8949   4.285   0.222   1.147
 2977SOL    HW1 8950   4.323   0.138   1.184
 2977SOL    HW2 8951   4.197   0.241   1.191
 2978SOL     OW 8952   4.590   0.454   0.642
 2978SOL    HW1 8953   4.558   0.526   0.580
 2978SOL    HW2 8954   4.614   0.373   0.589
 2979SOL     OW 8955   4.741   0.039   0.753
 2979SOL    HW1 8956   4.669   0.044   0.684
 2979SOL    HW2 8957   4.717  -0.030   0.822
 2980SOL     OW 8958   4.212   1.385   0.174
 2980SOL    HW1 8959   4.125   1.370   0.221
 2980SOL    HW2 8960   4.195   1.411   0.079
 2981SOL     OW 8961   4.251   0.256   0.328
 2981SOL    HW1 8962   4.278   0.197   0.253
 2981SOL    HW2 8963   4.251   0.351   0.297
 2982SOL     OW 8964   4.639   0.089   1.402
 2982SOL    HW1 8965   4.664   0.069   1.307
 2982SOL    HW2 8966   4.711   0.145   1.444
 2983SOL     OW 8967   4.704   1.116   1.719
 2983SOL    HW1 8968   4.605   1.122   1.729
 2983SOL    HW2 8969   4.727   1.036   1.663
 2984SOL     OW 8970   4.429   1.050   0.368
 2984SOL    HW1 8971   4.415   1.057   0.467
 2984SOL    HW2 8972   4.513   0.999   0.350
 2985SOL     OW 8973   4.134   0.813   1.251
 2985SOL    HW1 8974   4.220   0.825   1.301
 2985SOL    HW2 8975   4.092   0.726   1.278
 2986SOL     OW 8976   3.788   1.564   1.331
 2986SOL    HW1 8977   3.742   1.646   1.297
 2986SOL    HW2 8978   3.886   1.583   1.340
 2987SOL     OW 8979   4.091   1.100   0.501
 2987SOL    HW1 8980   4.084   1.183   0.445
 2987SOL    HW2 8981   4.095   1.020   0.441
 2988SOL     OW 8982   4.290   0.537   0.865
 2988SOL    HW1 8983   4.302   0.603   0.791
 2988SOL    HW2 8984   4.336   0.571   0.948
 2989SOL     OW 8985   4.078   1.510   1.329
 2989SOL    HW1 8986   4.057   1.466   1.242
 2989SOL    HW2 8987   4.175   1.536   1.332
 2990SOL     OW 8988   4.126   0.751   1.598
 2990SOL    HW1 8989   4.194   0.806   1.551
 2990SOL    HW2 8990   4.166   0.663   1.625
 2991SOL     OW 8991   4.737   0.105   1.770
 2991SOL    HW1 8992   4.743   0.190   1.718
 2991SOL    HW2 8993   4.769   0.029   1.713
 2992SOL     OW 8994   4.228   0.050   1.740
 2992SOL    HW1 8995   4.186  -0.007   1.670
 2992SOL    HW2 8996   4.162   0.119   1.772
 2993SOL     OW 8997   4.297   0.870   1.029
 2993SOL    HW1 8998   4.341   0.959   1.020
 2993SOL    HW2 8999   4.234   0.870   1.106
 2994SOL     OW 9000   4.933   0.525   0.275
 2994SOL    HW1 9001   4.946   0.441   0.329
 2994SOL    HW2 9002   4.904   0.599   0.335
 2995SOL     OW 9003   4.031   0.213   1.231
 2995SOL    HW1 9004   4.008   0.250   1.321
 2995SOL    HW2 9005   4.001   0.118   1.225
 2996SOL     OW 9006   3.761   1.310   1.282
 2996SOL    HW1 9007   3.814   1.261   1.350
 2996SOL    HW2 9008   3.783   1.408   1.287
 2997SOL     OW 9009   4.456   0.634   1.064
 2997SOL    HW1 9010   4.515   0.608   0.988
 2997SOL    HW2 9011   4.428   0.730   1.053
 2998SOL     OW 9012   4.031   0.063   0.618
 2998SOL    HW1 9013   4.020   0.157   0.651
 2998SOL    HW2 9014   4.026   0.000   0.695
 2999SOL     OW 9015   4.747   0.766   0.966
 2999SOL    HW1 9016   4.762   0.787   1.062
 2999SOL    HW2 9017   4.717   0.671   0.957
 3000SOL     OW 9018   4.704   1.573   1.700
 3000SOL    HW1 9019   4.684   1.617   1.612
 3000SOL    HW2 9020   4.743   1.482   1.684
 3001SOL     OW 9021   4.074   0.898   1.804
 3001SOL    HW1 9022   4.150   0.942   1.852
 3001SOL    HW2 9023   4.109   0.851   1.722
 3002SOL     OW 9024   4.792   1.333   0.849
 3002SOL    HW1 9025   4.799   1.249   0.794
 3002SOL    HW2 9026   4.854   1.402   0.813
 3003SOL     OW 9027   4.043   0.810   0.949
 3003SOL    HW1 9028   4.136   0.846   0.954
 3003SOL    HW2 9029   4.037   0.725   1.001
 3004SOL     OW 9030   4.063   0.509   1.006
 3004SOL    HW1 9031   4.011   0.426   0.989
 3004SOL    HW2 9032   4.140   0.514   0.942
 3005SOL     OW 9033   4.862   0.380   1.678
 3005SOL    HW1 9034   4.817   0.443   1.742
 3005SOL    HW2 9035   4.955   0.411   1.661
 3006SOL     OW 9036   3.732   1.326   0.200
 3006SOL    HW1 9037   3.639   1.347   0.169
 3006SOL    HW2 9038   3.742   1.227   0.213
 3007SOL     OW 9039   3.812   1.801   0.927
 3007SOL    HW1 9040   3.770   1.715   0.900
 3007SOL    HW2 9041   3.906   1.804   0.893
 3008SOL     OW 9042   4.228   1.568   0.910
 3008SOL    HW1 9043   4.294   1.642   0.919
 3008SOL    HW2 9044   4.272   1.489   0.868
 3009SOL     OW 9045   4.726   0.796   1.238
 3009SOL    HW1 9046   4.767   0.764   1.324
 3009SOL    HW2 9047   4.630   0.769   1.235
 3010SOL     OW 9048   3.764   0.544   1.114
 3010SOL    HW1 9049   3.849   0.511   1.073
 3010SOL    HW2 9050   3.777   0.559   1.212
 3011SOL     OW 9051   3.913   0.520   1.722
 3011SOL    HW1 9052   3.972   0.480   1.652
 3011SOL    HW2 9053   3.855   0.591   1.681
 3012SOL     OW 9054   4.539   0.572   0.325
 3012SOL    HW1 9055   4.546   0.483   0.279
 3012SOL    HW2 9056   4.445   0.606   0.317
 3013SOL     OW 9057   3.976   1.564   1.744
 3013SOL    HW1 9058   3.946   1.621   1.820
 3013SOL    HW2 9059   3.969   1.467   1.770
 3014SOL     OW 9060   4.395   0.464   1.269
 3014SOL    HW1 9061   4.361   0.375   1.239
 3014SOL    HW2 9062   4.421   0.518   1.189
 3015SOL     OW 9063   4.654   1.678   1.465
 3015SOL    HW1 9064   4.630   1.660   1.370
 3015SOL    HW2 9065   4.684   1.772   1.475
 3016SOL     OW 9066   4.197   0.500   0.191
 3016SOL    HW1 9067   4.258   0.580   0.195
 3016SOL    HW2 9068   4.102   0.531   0.198
 3017SOL     OW 9069   3.883   1.137   1.466
 3017SOL    HW1 9070   3.905   1.076   1.542
 3017SOL    HW2 9071   3.893   1.088   1.380
 3018SOL     OW 9072   5.026   0.855   0.309
 3018SOL    HW1 9073   4.940   0.824   0.351
 3018SOL    HW2 9074   5.022   0.841   0.210
 3019SOL     OW 9075   3.807   1.258   1.022
 3019SOL    HW1 9076   3.802   1.257   1.122
 3019SOL    HW2 9077   3.724   1.217   0.984
 3020SOL     OW 9078   4.412   1.662   1.716
 3020SOL    HW1 9079   4.356   1.743   1.725
 3020SOL    HW2 9080   4.464   1.666   1.630
 3021SOL     OW 9081   4.627   0.086   0.133
 3021SOL    HW1 9082   4.678   0.087   0.047
 3021SOL    HW2 9083   4.683   0.044   0.204
 3022SOL     OW 9084   3.854   1.794   1.851
 3022SOL    HW1 9085   3.813   1.720   1.904
 3022SOL    HW2 9086   3.918   1.845   1.909
 3023SOL     OW 9087   4.554   1.273   1.422
 3023SOL    HW1 9088   4.549   1.306   1.517
 3023SOL    HW2 9089   4.468   1.292   1.376
 3024SOL     OW 9090   4.396   1.616   0.154
 3024SOL    HW1 9091   4.405   1.626   0.055
 3024SOL    HW2 9092   4.356   1.527   0.175
 3025SOL     OW 9093   3.987   0.326   0.720
 3025SOL    HW1 9094   3.908   0.377   0.686
 3025SOL    HW2 9095   3.978   0.311   0.818
 3026SOL     OW 9096   4.546   1.002   1.372
 3026SOL    HW1 9097   4.586   1.001   1.280
 3026SOL    HW2 9098   4.556   1.094   1.412
 3027SOL     OW 9099   4.640   0.910   0.291
 3027SOL    HW1 9100   4.703   0.948   0.223
 3027SOL    HW2 9101   4.680   0.827   0.330
 3028SOL     OW 9102   4.096   1.288   1.490
 3028SOL    HW1 9103   4.083   1.381   1.456
 3028SOL    HW2 9104   4.012   1.236   1.477
 3029SOL     OW 9105   4.763   1.098   0.696
 3029SOL    HW1 9106   4.693   1.051   0.750
 3029SOL    HW2 9107   4.822   1.030   0.653
 3030SOL     OW 9108   4.738   0.236   0.971
 3030SOL    HW1 9109   4.730   0.200   0.878
 3030SOL    HW2 9110   4.736   0.160   1.036
 3031SOL     OW 9111   4.314   1.487   0.491
 3031SOL    HW1 9112   4.356   1.429   0.421
 3031SOL    HW2 9113   4.270   1.566   0.447
 3032SOL     OW 9114   3.979   1.348   0.290
 3032SOL    HW1 9115   3.883   1.349   0.263
 3032SOL    HW2 9116   3.991   1.401   0.374
 3033SOL     OW 9117   3.829   1.013   1.726
 3033SOL    HW1 9118   3.752   0.980   1.780
 3033SOL    HW2 9119   3.914   0.983   1.768
 3034SOL     OW 9120   4.396   0.203   1.489
 3034SOL    HW1 9121   4.486   0.187   1.449
 3034SOL    HW2 9122   4.404   0.208   1.588
 3035SOL     OW 9123   3.796   0.166   0.318
 3035SOL    HW1 9124   3.779   0.249   0.264
 3035SOL    HW2 9125   3.886   0.129   0.296
 3036SOL     OW 9126   4.337   0.842   1.431
 3036SOL    HW1 9127   4.393   0.923   1.414
 3036SOL    HW2 9128   4.396   0.762   1.434
 3037SOL     OW 9129   4.440   0.565   1.708
 3037SOL    HW1 9130   4.459   0.630   1.782
 3037SOL    HW2 9131   4.500   0.485   1.717
 3038SOL     OW 9132   4.114   1.741   1.560
 3038SOL    HW1 9133   4.023   1.782   1.558
 3038SOL    HW2 9134   4.107   1.647   1.592
 3039SOL     OW 9135   4.318   0.745   0.652
 3039SOL    HW1 9136   4.368   0.830   0.633
 3039SOL    HW2 9137   4.230   0.747   0.604
 3040SOL     OW 9138   4.583   1.374   0.016
 3040SOL    HW1 9139   4.537   1.389   0.104
 3040SOL    HW2 9140   4.627   1.459  -0.014
 3041SOL     OW 9141   4.385   1.790   0.953
 3041SOL    HW1 9142   4.339   1.878   0.940
 3041SOL    HW2 9143   4.484   1.802   0.946
 3042SOL     OW 9144   4.583   0.956   0.861
 3042SOL    HW1 9145   4.637   0.887   0.909
 3042SOL    HW2 9146   4.551   1.025   0.927
 3043SOL     OW 9147   4.807   0.984   0.087
 3043SOL    HW1 9148   4.784   1.037   0.005
 3043SOL    HW2 9149   4.888   0.928   0.068
 3044SOL     OW 9150   3.945   1.314   1.844
 3044SOL    HW1 9151   3.880   1.241   1.823
 3044SOL    HW2 9152   3.949   1.328   1.942
 3045SOL     OW 9153   3.803   1.240   0.653
 3045SOL    HW1 9154   3.802   1.193   0.741
 3045SOL    HW2 9155   3.885   1.212   0.602
 3046SOL     OW 9156   4.396   1.391   1.624
 3046SOL    HW1 9157   4.318   1.341   1.662
 3046SOL    HW2 9158   4.393   1.486   1.655
 3047SOL     OW 9159   4.152   0.424   0.520
 3047SOL    HW1 9160   4.182   0.352   0.458
 3047SOL    HW2 9161   4.113   0.384   0.603
 3048SOL     OW 9162   4.041   0.547   1.280
 3048SOL    HW1 9163   4.079   0.488   1.352
 3048SOL    HW2 9164   4.081   0.521   1.192
 3049SOL     OW 9165   4.536   1.586   0.687
 3049SOL    HW1 9166   4.568   1.596   0.593
 3049SOL    HW2 9167   4.457   1.524   0.689
 3050SOL     OW 9168   4.725   0.034   1.154
 3050SOL    HW1 9169   4.662  -0.038   1.123
 3050SOL    HW2 9170   4.818  -0.002   1.154
 3051SOL     OW 9171   4.494   1.330   0.301
 3051SOL    HW1 9172   4.448   1.243   0.318
 3051SOL    HW2 9173   4.585   1.327   0.342
 3052SOL     OW 9174   4.342   1.567   1.284
 3052SOL    HW1 9175   4.337   1.649   1.341
 3052SOL    HW2 9176   4.431   1.564   1.239
 3053SOL     OW 9177   3.763   1.077   0.300
 3053SOL    HW1 9178   3.862   1.066   0.291
 3053SOL    HW2 9179   3.723   0.991   0.332
 3054SOL     OW 9180   4.599   1.646   0.337
 3054SOL    HW1 9181   4.522   1.611   0.283
 3054SOL    HW2 9182   4.567   1.717   0.399
 3055SOL     OW 9183   3.954   0.628   1.975
 3055SOL    HW1 9184   3.861   0.626   2.012
 3055SOL    HW2 9185   3.955   0.589   1.883
 3056SOL     OW 9186   3.949   0.275   2.858
 3056SOL    HW1 9187   3.984   0.258   2.950
 3056SOL    HW2 9188   3.861   0.230   2.846
 3057SOL     OW 9189   3.743   0.368   2.509
 3057SOL    HW1 9190   3.661   0.411   2.548
 3057SOL    HW2 9191   3.715   0.295   2.446
 3058SOL     OW 9192   4.293   1.275   3.027
 3058SOL    HW1 9193   4.200   1.268   2.990
 3058SOL    HW2 9194   4.304   1.364   3.071
 3059SOL     OW 9195   4.492   1.144   2.885
 3059SOL    HW1 9196   4.414   1.161   2.945
 3059SOL    HW2 9197   4.526   1.231   2.849
 3060SOL     OW 9198   4.574   0.798   3.685
 3060SOL    HW1 9199   4.570   0.874   3.750
 3060SOL    HW2 9200   4.596   0.834   3.594
 3061SOL     OW 9201   4.409   1.012   2.527
 3061SOL    HW1 9202   4.478   0.996   2.597
 3061SOL    HW2 9203   4.336   1.069   2.565
 3062SOL     OW 9204   4.410   1.161   3.665
 3062SOL    HW1 9205   4.470   1.240   3.679
 3062SOL    HW2 9206   4.324   1.192   3.624
 3063SOL     OW 9207   4.059   1.435   2.923
 3063SOL    HW1 9208   3.981   1.404   2.870
 3063SOL    HW2 9209   4.117   1.493   2.866
 3064SOL     OW 9210   4.162   0.392   3.361
 3064SOL    HW1 9211   4.244   0.336   3.370
 3064SOL    HW2 9212   4.081   0.334   3.365
 3065SOL     OW 9213   3.955   1.713   2.345
 3065SOL    HW1 9214   3.989   1.790   2.399
 3065SOL    HW2 9215   3.999   1.713   2.255
 3066SOL     OW 9216   4.851   1.341   3.552
 3066SOL    HW1 9217   4.898   1.341   3.640
 3066SOL    HW2 9218   4.803   1.254   3.541
 3067SOL     OW 9219   3.954   1.434   2.400
 3067SOL    HW1 9220   3.928   1.530   2.400
 3067SOL    HW2 9221   3.883   1.380   2.445
 3068SOL     OW 9222   3.964   1.091   2.748
 3068SOL    HW1 9223   3.978   1.007   2.800
 3068SOL    HW2 9224   3.909   1.155   2.803
 3069SOL     OW 9225   4.344   1.786   3.301
 3069SOL    HW1 9226   4.252   1.769   3.336
 3069SOL    HW2 9227   4.372   1.878   3.327
 3070SOL     OW 9228   4.330   0.964   1.985
 3070SOL    HW1 9229   4.337   1.048   1.931
 3070SOL    HW2 9230   4.376   0.977   2.073
 3071SOL     OW 9231   3.846   0.643   2.425
 3071SOL    HW1 9232   3.801   0.555   2.442
 3071SOL    HW2 9233   3.845   0.697   2.509
 3072SOL     OW 9234   3.751   1.596   1.979
 3072SOL    HW1 9235   3.732   1.500   2.000
 3072SOL    HW2 9236   3.718   1.654   2.054
 3073SOL     OW 9237   3.837   0.737   3.459
 3073SOL    HW1 9238   3.925   0.724   3.504
 3073SOL    HW2 9239   3.824   0.834   3.437
 3074SOL     OW 9240   4.337   1.365   2.588
 3074SOL    HW1 9241   4.288   1.278   2.597
 3074SOL    HW2 9242   4.314   1.408   2.501
 3075SOL     OW 9243   4.533   0.004   2.364
 3075SOL    HW1 9244   4.573   0.095   2.355
 3075SOL    HW2 9245   4.433   0.012   2.370
 3076SOL     OW 9246   3.921   0.976   3.126
 3076SOL    HW1 9247   4.010   0.931   3.112
 3076SOL    HW2 9248   3.848   0.911   3.107
 3077SOL     OW 9249   4.041   0.251   3.663
 3077SOL    HW1 9250   4.112   0.322   3.669
 3077SOL    HW2 9251   3.953   0.290   3.691
 3078SOL     OW 9252   4.322   0.729   2.132
 3078SOL    HW1 9253   4.346   0.798   2.064
 3078SOL    HW2 9254   4.244   0.762   2.186
 3079SOL     OW 9255   4.531   0.605   3.327
 3079SOL    HW1 9256   4.484   0.602   3.416
 3079SOL    HW2 9257   4.480   0.550   3.261
 3080SOL     OW 9258   4.697   0.890   3.434
 3080SOL    HW1 9259   4.743   0.806   3.405
 3080SOL    HW2 9260   4.641   0.924   3.359
 3081SOL     OW 9261   4.715   0.410   3.104
 3081SOL    HW1 9262   4.638   0.444   3.158
 3081SOL    HW2 9263   4.681   0.359   3.025
 3082SOL     OW 9264   4.765   0.701   2.291
 3082SOL    HW1 9265   4.791   0.697   2.387
 3082SOL    HW2 9266   4.680   0.650   2.277
 3083SOL     OW 9267   3.800   0.811   2.651
 3083SOL    HW1 9268   3.899   0.799   2.660
 3083SOL    HW2 9269   3.776   0.906   2.672
 3084SOL     OW 9270   3.854   1.821   3.433
 3084SOL    HW1 9271   3.844   1.806   3.532
 3084SOL    HW2 9272   3.768   1.857   3.397
 3085SOL     OW 9273   4.589   0.348   2.057
 3085SOL    HW1 9274   4.648   0.411   2.008
 3085SOL    HW2 9275   4.608   0.254   2.028
 3086SOL     OW 9276   4.274   0.196   2.747
 3086SOL    HW1 9277   4.269   0.191   2.847
 3086SOL    HW2 9278   4.276   0.292   2.718
 3087SOL     OW 9279   4.732   1.456   2.339
 3087SOL    HW1 9280   4.686   1.528   2.287
 3087SOL    HW2 9281   4.728   1.476   2.437
 3088SOL     OW 9282   4.075   1.801   2.715
 3088SOL    HW1 9283   4.125   1.715   2.721
 3088SOL    HW2 9284   4.140   1.878   2.712
 3089SOL     OW 9285   4.045   0.943   2.104
 3089SOL    HW1 9286   4.127   0.982   2.062
 3089SOL    HW2 9287   4.018   0.861   2.055
 3090SOL     OW 9288   4.185   1.266   3.589
 3090SOL    HW1 9289   4.135   1.267   3.503
 3090SOL    HW2 9290   4.122   1.248   3.665
 3091SOL     OW 9291   3.926   0.285   3.360
 3091SOL    HW1 9292   3.846   0.345   3.347
 3091SOL    HW2 9293   3.916   0.236   3.446
 3092SOL     OW 9294   4.188   1.743   2.185
 3092SOL    HW1 9295   4.221   1.782   2.271
 3092SOL    HW2 9296   4.264   1.736   2.120
 3093SOL     OW 9297   3.973   1.785   3.103
 3093SOL    HW1 9298   4.030   1.720   3.153
 3093SOL    HW2 9299   3.957   1.752   3.010
 3094SOL     OW 9300   4.664   1.698   2.766
 3094SOL    HW1 9301   4.744   1.641   2.787
 3094SOL    HW2 9302   4.615   1.658   2.689
 3095SOL     OW 9303   4.106   0.700   2.342
 3095SOL    HW1 9304   4.151   0.610   2.339
 3095SOL    HW2 9305   4.012   0.689   2.375
 3096SOL     OW 9306   4.338   0.122   1.979
 3096SOL    HW1 9307   4.436   0.100   1.986
 3096SOL    HW2 9308   4.307   0.105   1.886
 3097SOL     OW 9309   4.505   0.264   3.611
 3097SOL    HW1 9310   4.572   0.203   3.654
 3097SOL    HW2 9311   4.432   0.283   3.676
 3098SOL     OW 9312   4.612   1.514   3.057
 3098SOL    HW1 9313   4.589   1.489   2.963
 3098SOL    HW2 9314   4.673   1.445   3.096
 3099SOL     OW 9315   4.527   1.402   2.786
 3099SOL    HW1 9316   4.617   1.416   2.744
 3099SOL    HW2 9317   4.456   1.404   2.715
 3100SOL     OW 9318   4.646   0.503   2.761
 3100SOL    HW1 9319   4.621   0.494   2.665
 3100SOL    HW2 9320   4.694   0.421   2.792
 3101SOL     OW 9321   4.263   0.064   2.374
 3101SOL    HW1 9322   4.182   0.065   2.432
 3101SOL    HW2 9323   4.266   0.147   2.319
 3102SOL     OW 9324   4.021   0.035   2.033
 3102SOL    HW1 9325   4.070   0.119   2.012
 3102SOL    HW2 9326   4.083  -0.030   2.078
 3103SOL     OW 9327   4.659   0.236   2.342
 3103SOL    HW1 9328   4.611   0.277   2.264
 3103SOL    HW2 9329   4.758   0.234   2.323
 3104SOL     OW 9330   4.951   1.570   2.655
 3104SOL    HW1 9331   4.972   1.644   2.590
 3104SOL    HW2 9332   5.019   1.570   2.728
 3105SOL     OW 9333   4.183   1.152   2.603
 3105SOL    HW1 9334   4.112   1.125   2.668
 3105SOL    HW2 9335   4.157   1.124   2.510
 3106SOL     OW 9336   4.995   1.797   2.453
 3106SOL    HW1 9337   5.039   1.861   2.389
 3106SOL    HW2 9338   4.945   1.849   2.523
 3107SOL     OW 9339   4.756   0.549   1.878
 3107SOL    HW1 9340   4.715   0.631   1.839
 3107SOL    HW2 9341   4.820   0.575   1.951
 3108SOL     OW 9342   3.802   0.556   3.248
 3108SOL    HW1 9343   3.894   0.555   3.207
 3108SOL    HW2 9344   3.796   0.630   3.315
 3109SOL     OW 9345   4.285   0.222   3.009
 3109SOL    HW1 9346   4.323   0.138   3.046
 3109SOL    HW2 9347   4.197   0.241   3.053
 3110SOL     OW 9348   4.590   0.454   2.504
 3110SOL    HW1 9349   4.558   0.526   2.442
 3110SOL    HW2 9350   4.614   0.373   2.451
 3111SOL     OW 9351   4.741   0.039   2.615
 3111SOL    HW1 9352   4.669   0.044   2.546
 3111SOL    HW2 9353   4.717  -0.030   2.684
 3112SOL     OW 9354   4.212   1.385   2.036
 3112SOL    HW1 9355   4.125   1.370   2.083
 3112SOL    HW2 9356   4.195   1.411   1.941
 3113SOL     OW 9357   4.251   0.256   2.190
 3113SOL    HW1 9358   4.278   0.197   2.115
 3113SOL    HW2 9359   4.251   0.351   2.159
 3114SOL     OW 9360   4.639   0.089   3.264
 3114SOL    HW1 9361   4.664   0.069   3.169
 3114SOL    HW2 9362   4.711   0.145   3.306
 3115SOL     OW 9363   4.704   1.116   3.581
 3115SOL    HW1 9364   4.605   1.122   3.591
 3115SOL    HW2 9365   4.727   1.036   3.525
 3116SOL     OW 9366   4.429   1.050   2.230
 3116SOL    HW1 9367   4.415   1.057   2.329
 3116SOL    HW2 9368   4.513   0.999   2.212
 3117SOL     OW 9369   4.134   0.813   3.113
 3117SOL    HW1 9370   4.220   0.825   3.163
 3117SOL    HW2 9371   4.092   0.726   3.140
 3118SOL     OW 9372   3.788   1.564   3.193
 3118SOL    HW1 9373   3.742   1.646   3.159
 3118SOL    HW2 9374   3.886   1.583   3.202
 3119SOL     OW 9375   4.091   1.100   2.363
 3119SOL    HW1 9376   4.084   1.183   2.307
 3119SOL    HW2 9377   4.095   1.020   2.303
 3120SOL     OW 9378   4.290   0.537   2.727
 3120SOL    HW1 9379   4.302   0.603   2.653
 3120SOL    HW2 9380   4.336   0.571   2.810
 3121SOL     OW 9381   4.078   1.510   3.191
 3121SOL    HW1 9382   4.057   1.466   3.104
 3121SOL    HW2 9383   4.175   1.536   3.194
 3122SOL     OW 9384   4.126   0.751   3.460
 3122SOL    HW1 9385   4.194   0.806   3.413
 3122SOL    HW2 9386   4.166   0.663   3.487
 3123SOL     OW 9387   4.737   0.105   3.632
 3123SOL    HW1 9388   4.743   0.190   3.580
 3123SOL    HW2 9389   4.769   0.029   3.575
 3124SOL     OW 9390   4.228   0.050   3.602
 3124SOL    HW1 9391   4.186  -0.007   3.532
 3124SOL    HW2 9392   4.162   0.119   3.634
 3125SOL     OW 9393   4.297   0.870   2.891
 3125SOL    HW1 9394   4.341   0.959   2.882
 3125SOL    HW2 9395   4.234   0.870   2.968
 3126SOL     OW 9396   4.933   0.525   2.137
 3126SOL    HW1 9397   4.946   0.441   2.191
 3126SOL    HW2 9398   4.904   0.599   2.197
 3127SOL     OW 9399   4.031   0.213   3.093
 3127SOL    HW1 9400   4.008   0.250   3.183
 3127SOL    HW2 9401   4.001   0.118   3.087
 3128SOL     OW 9402   3.761   1.310   3.144
 3128SOL    HW1 9403   3.814   1.261   3.212
 3128SOL    HW2 9404   3.783   1.408   3.149
 3129SOL     OW 9405   4.456   0.634   2.926
 3129SOL    HW1 9406   4.515   0.608   2.850
 3129SOL    HW2 9407   4.428   0.730   2.915
 3130SOL     OW 9408   4.031   0.063   2.480
 3130SOL    HW1 9409   4.020   0.157   2.513
 3130SOL    HW2 9410   4.026   0.000   2.557
 3131SOL     OW 9411   4.747   0.766   2.828
 3131SOL    HW1 9412   4.762   0.787   2.924
 3131SOL    HW2 9413   4.717   0.671   2.819
 3132SOL     OW 9414   4.704   1.573   3.562
 3132SOL    HW1 9415   4.684   1.617   3.474
 3132SOL    HW2 9416   4.743   1.482   3.546
 3133SOL     OW 9417   4.074   0.898   3.666
 3133SOL    HW1 9418   4.150   0.942   3.714
 3133SOL    HW2 9419   4.109   0.851   3.584
 3134SOL     OW 9420   4.792   1.333   2.711
 3134SOL    HW1 9421   4.799   1.249   2.656
 3134SOL    HW2 9422   4.854   1.402   2.675
 3135SOL     OW 9423   4.043   0.810   2.811
 3135SOL    HW1 9424   4.136   0.846   2.816
 3135SOL    HW2 9425   4.037   0.725   2.863
 3136SOL     OW 9426   4.063   0.509   2.868
 3136SOL    HW1 9427   4.011   0.426   2.851
 3136SOL    HW2 9428   4.140   0.514   2.804
 3137SOL     OW 9429   4.862   0.380   3.540
 3137SOL    HW1 9430   4.817   0.443   3.604
 3137SOL    HW2 9431   4.955   0.411   3.523
 3138SOL     OW 9432   3.732   1.326   2.062
 3138SOL    HW1 9433   3.639   1.347   2.031
 3138SOL    HW2 9434   3.742   1.227   2.075
 3139SOL     OW 9435   3.812   1.801   2.789
 3139SOL    HW1 9436   3.770   1.715   2.762
 3139SOL    HW2 9437   3.906   1.804   2.755
 3140SOL     OW 9438   4.228   1.568   2.772
 3140SOL    HW1 9439   4.294   1.642   2.781
 3140SOL    HW2 9440   4.272   1.489   2.730
 3141SOL     OW 9441   4.726   0.796   3.100
 3141SOL    HW1 9442   4.767   0.764   3.186
 3141SOL    HW2 9443   4.630   0.769   3.097
 3142SOL     OW 9444   3.764   0.544   2.976
 3142SOL    HW1 9445   3.849   0.511   2.935
 3142SOL    HW2 9446   3.777   0.559   3.074
 3143SOL     OW 9447   3.913   0.520   3.584
 3143SOL    HW1 9448   3.972   0.480   3.514
 3143SOL    HW2 9449   3.855   0.591   3.543
 3144SOL     OW 9450   4.539   0.572   2.187
 3144SOL    HW1 9451   4.546   0.483   2.141
 3144SOL    HW2 9452   4.445   0.606   2.179
 3145SOL     OW 9453   3.976   1.564   3.606
 3145SOL    HW1 9454   3.946   1.621   3.682
 3145SOL    HW2 9455   3.969   1.467   3.632
 3146SOL     OW 9456   4.395   0.464   3.131
 3146SOL    HW1 9457   4.361   0.375   3.101
 3146SOL    HW2 9458   4.421   0.518   3.051
 3147SOL     OW 9459   4.654   1.678   3.327
 3147SOL    HW1 9460   4.630   1.660   3.232
 3147SOL    HW2 9461   4.684   1.772   3.337
 3148SOL     OW 9462   4.197   0.500   2.053
 3148SOL    HW1 9463   4.258   0.580   2.057
 3148SOL    HW2 9464   4.102   0.531   2.060
 3149SOL     OW 9465   3.883   1.137   3.328
 3149SOL    HW1 9466   3.905   1.076   3.404
 3149SOL    HW2 9467   3.893   1.088   3.242
 3150SOL     OW 9468   5.026   0.855   2.171
 3150SOL    HW1 9469   4.940   0.824   2.213
 3150SOL    HW2 9470   5.022   0.841   2.072
 3151SOL     OW 9471   3.807   1.258   2.884
 3151SOL    HW1 9472   3.802   1.257   2.984
 3151SOL    HW2 9473   3.724   1.217   2.846
 3152SOL     OW 9474   4.412   1.662   3.578
 3152SOL    HW1 9475   4.356   1.743   3.587
 3152SOL    HW2 9476   4.464   1.666   3.492
 3153SOL     OW 9477   3.854   1.794   3.713
 3153SOL    HW1 9478   3.813   1.720   3.766
 3153SOL    HW2 9479   3.918   1.845   3.771
 3154SOL     OW 9480   4.554   1.273   3.284
 3154SOL    HW1 9481   4.549   1.306   3.379
 3154SOL    HW2 9482   4.468   1.292   3.238
 3155SOL     OW 9483   4.396   1.616   2.016
 3155SOL    HW1 9484   4.405   1.626   1.917
 3155SOL    HW2 9485   4.356   1.527   2.037
 3156SOL     OW 9486   3.987   0.326   2.582
 3156SOL    HW1 9487   3.908   0.377   2.548
 3156SOL    HW2 9488   3.978   0.311   2.680
 3157SOL     OW 9489   4.546   1.002   3.234
 3157SOL    HW1 9490   4.586   1.001   3.142
 3157SOL    HW2 9491   4.556   1.094   3.274
 3158SOL     OW 9492   4.640   0.910   2.153
 3158SOL    HW1 9493   4.703   0.948   2.085
 3158SOL    HW2 9494   4.680   0.827   2.192
 3159SOL     OW 9495   4.096   1.288   3.352
 3159SOL    HW1 9496   4.083   1.381   3.318
 3159SOL    HW2 9497   4.012   1.236   3.339
 3160SOL     OW 9498   4.763   1.098   2.558
 3160SOL    HW1 9499   4.693   1.051   2.612
 3160SOL    HW2 9500   4.822   1.030   2.515
 3161SOL     OW 9501   4.738   0.236   2.833
 3161SOL    HW1 9502   4.730   0.200   2.740
 3161SOL    HW2 9503   4.736   0.160   2.898
 3162SOL     OW 9504   4.314   1.487   2.353
 3162SOL    HW1 9505   4.356   1.429   2.283
 3162SOL    HW2 9506   4.270   1.566   2.309
 3163SOL     OW 9507   3.979   1.348   2.152
 3163SOL    HW1 9508   3.883   1.349   2.125
 3163SOL    HW2 9509   3.991   1.401   2.236
 3164SOL     OW 9510   3.829   1.013   3.588
 3164SOL    HW1 9511   3.752   0.980   3.642
 3164SOL    HW2 9512   3.914   0.983   3.630
 3165SOL     OW 9513   4.396   0.203   3.351
 3165SOL    HW1 9514   4.486   0.187   3.311
 3165SOL    HW2 9515   4.404   0.208   3.450
 3166SOL     OW 9516   3.799   0.345   1.895
 3166SOL    HW1 9517   3.707   0.317   1.866
 3166SOL    HW2 9518   3.830   0.422   1.839
 3167SOL     OW 9519   3.796   0.166   2.180
 3167SOL    HW1 9520   3.779   0.249   2.126
 3167SOL    HW2 9521   3.886   0.129   2.158
 3168SOL     OW 9522   4.337   0.842   3.293
 3168SOL    HW1 9523   4.393   0.923   3.276
 3168SOL    HW2 9524   4.396   0.762   3.296
 3169SOL     OW 9525   4.440   0.565   3.570
 3169SOL    HW1 9526   4.459   0.630   3.644
 3169SOL    HW2 9527   4.500   0.485   3.579
 3170SOL     OW 9528   4.114   1.741   3.422
 3170SOL    HW1 9529   4.023   1.782   3.420
 3170SOL    HW2 9530   4.107   1.647   3.454
 3171SOL     OW 9531   4.318   0.745   2.514
 3171SOL    HW1 9532   4.368   0.830   2.495
 3171SOL    HW2 9533   4.230   0.747   2.466
 3172SOL     OW 9534   4.583   1.374   1.878
 3172SOL    HW1 9535   4.537   1.389   1.966
 3172SOL    HW2 9536   4.627   1.459   1.848
 3173SOL     OW 9537   4.385   1.790   2.815
 3173SOL    HW1 9538   4.339   1.878   2.802
 3173SOL    HW2 9539   4.484   1.802   2.808
 3174SOL     OW 9540   4.583   0.956   2.723
 3174SOL    HW1 9541   4.637   0.887   2.771
 3174SOL    HW2 9542   4.551   1.025   2.789
 3175SOL     OW 9543   4.807   0.984   1.949
 3175SOL    HW1 9544   4.784   1.037   1.867
 3175SOL    HW2 9545   4.888   0.928   1.930
 3176SOL     OW 9546   3.945   1.314   3.706
 3176SOL    HW1 9547   3.880   1.241   3.685
 3176SOL    HW2 9548   3.949   1.328   3.804
 3177SOL     OW 9549   3.803   1.240   2.515
 3177SOL    HW1 9550   3.802   1.193   2.603
 3177SOL    HW2 9551   3.885   1.212   2.464
 3178SOL     OW 9552   4.396   1.391   3.486
 3178SOL    HW1 9553   4.318   1.341   3.524
 3178SOL    HW2 9554   4.393   1.486   3.517
 3179SOL     OW 9555   4.152   0.424   2.382
 3179SOL    HW1 9556   4.182   0.352   2.320
 3179SOL    HW2 9557   4.113   0.384   2.465
 3180SOL     OW 9558   4.041   0.547   3.142
 3180SOL    HW1 9559   4.079   0.488   3.214
 3180SOL    HW2 9560   4.081   0.521   3.054
 3181SOL     OW 9561   4.536   1.586   2.549
 3181SOL    HW1 9562   4.568   1.596   2.455
 3181SOL    HW2 9563   4.457   1.524   2.551
 3182SOL     OW 9564   4.725   0.034   3.016
 3182SOL    HW1 9565   4.662  -0.038   2.985
 3182SOL    HW2 9566   4.818  -0.002   3.016
 3183SOL     OW 9567   4.494   1.330   2.163
 3183SOL    HW1 9568   4.448   1.243   2.180
 3183SOL    HW2 9569   4.585   1.327   2.204
 3184SOL     OW 9570   4.342   1.567   3.146
 3184SOL    HW1 9571   4.337   1.649   3.203
 3184SOL    HW2 9572   4.431   1.564   3.101
 3185SOL     OW 9573   3.763   1.077   2.162
 3185SOL    HW1 9574   3.862   1.066   2.153
 3185SOL    HW2 9575   3.723   0.991   2.194
 3186SOL     OW 9576   4.599   1.646   2.199
 3186SOL    HW1 9577   4.522   1.611   2.145
 3186SOL    HW2 9578   4.567   1.717   2.261
 3187SOL     OW 9579   3.954   0.628   3.837
 3187SOL    HW1 9580   3.861   0.626   3.874
 3187SOL    HW2 9581   3.955   0.589   3.745
 3188SOL     OW 9582   3.949   0.275   4.720
 3188SOL    HW1 9583   3.984   0.258   4.812
 3188SOL    HW2 9584   3.861   0.230   4.708
 3189SOL     OW 9585   3.743   0.368   4.371
 3189SOL    HW1 9586   3.661   0.411   4.410
 3189SOL    HW2 9587   3.715   0.295   4.308
 3190SOL     OW 9588   4.492   1.144   4.747
 3190SOL    HW1 9589   4.414   1.161   4.807
 3190SOL    HW2 9590   4.526   1.231   4.711
 3191SOL     OW 9591   4.409   1.012   4.389
 3191SOL    HW1 9592   4.478   0.996   4.459
 3191SOL    HW2 9593   4.336   1.069   4.427
 3192SOL     OW 9594   4.059   1.435   4.785
 3192SOL    HW1 9595   3.981   1.404   4.732
 3192SOL    HW2 9596   4.117   1.493   4.728
 3193SOL     OW 9597   3.955   1.713   4.207
 3193SOL    HW1 9598   3.989   1.790   4.261
 3193SOL    HW2 9599   3.999   1.713   4.117
 3194SOL     OW 9600   3.954   1.434   4.262
 3194SOL    HW1 9601   3.928   1.530   4.262
 3194SOL    HW2 9602   3.883   1.380   4.307
 3195SOL     OW 9603   3.964   1.091   4.610
 3195SOL    HW1 9604   3.978   1.007   4.662
 3195SOL    HW2 9605   3.909   1.155   4.665
 3196SOL     OW 9606   4.330   0.964   3.847
 3196SOL    HW1 9607   4.337   1.048   3.793
 3196SOL    HW2 9608   4.376   0.977   3.935
 3197SOL     OW 9609   3.846   0.643   4.287
 3197SOL    HW1 9610   3.801   0.555   4.304
 3197SOL    HW2 9611   3.845   0.697   4.371
 3198SOL     OW 9612   3.751   1.596   3.841
 3198SOL    HW1 9613   3.732   1.500   3.862
 3198SOL    HW2 9614   3.718   1.654   3.916
 3199SOL     OW 9615   4.337   1.365   4.450
 3199SOL    HW1 9616   4.288   1.278   4.459
 3199SOL    HW2 9617   4.314   1.408   4.363
 3200SOL     OW 9618   4.533   0.004   4.226
 3200SOL    HW1 9619   4.573   0.095   4.217
 3200SOL    HW2 9620   4.433   0.012   4.232
 3201SOL     OW 9621   3.921   0.976   4.988
 3201SOL    HW1 9622   4.010   0.931   4.974
 3201SOL    HW2 9623   3.848   0.911   4.969
 3202SOL     OW 9624   4.322   0.729   3.994
 3202SOL    HW1 9625   4.346   0.798   3.926
 3202SOL    HW2 9626   4.244   0.762   4.048
 3203SOL     OW 9627   4.765   0.701   4.153
 3203SOL    HW1 9628   4.791   0.697   4.249
 3203SOL    HW2 9629   4.680   0.650   4.139
 3204SOL     OW 9630   3.800   0.811   4.513
 3204SOL    HW1 9631   3.899   0.799   4.522
 3204SOL    HW2 9632   3.776   0.906   4.534
 3205SOL     OW 9633   4.589   0.348   3.919
 3205SOL    HW1 9634   4.648   0.411   3.870
 3205SOL    HW2 9635   4.608   0.254   3.890
 3206SOL     OW 9636   4.274   0.196   4.609
 3206SOL    HW1 9637   4.269   0.191   4.709
 3206SOL    HW2 9638   4.276   0.292   4.580
 3207SOL     OW 9639   4.732   1.456   4.201
 3207SOL    HW1 9640   4.686   1.528   4.149
 3207SOL    HW2 9641   4.728   1.476   4.299
 3208SOL     OW 9642   4.075   1.801   4.577
 3208SOL    HW1 9643   4.125   1.715   4.583
 3208SOL    HW2 9644   4.140   1.878   4.574
 3209SOL     OW 9645   4.045   0.943   3.966
 3209SOL    HW1 9646   4.127   0.982   3.924
 3209SOL    HW2 9647   4.018   0.861   3.917
 3210SOL     OW 9648   4.188   1.743   4.047
 3210SOL    HW1 9649   4.221   1.782   4.133
 3210SOL    HW2 9650   4.264   1.736   3.982
 3211SOL     OW 9651   3.973   1.785   4.965
 3211SOL    HW1 9652   4.030   1.720   5.015
 3211SOL    HW2 9653   3.957   1.752   4.872
 3212SOL     OW 9654   4.664   1.698   4.628
 3212SOL    HW1 9655   4.744   1.641   4.649
 3212SOL    HW2 9656   4.615   1.658   4.551
 3213SOL     OW 9657   4.106   0.700   4.204
 3213SOL    HW1 9658   4.151   0.610   4.201
 3213SOL    HW2 9659   4.012   0.689   4.237
 3214SOL     OW 9660   4.338   0.122   3.841
 3214SOL    HW1 9661   4.436   0.100   3.848
 3214SOL    HW2 9662   4.307   0.105   3.748
 3215SOL     OW 9663   4.527   1.402   4.648
 3215SOL    HW1 9664   4.617   1.416   4.606
 3215SOL    HW2 9665   4.456   1.404   4.577
 3216SOL     OW 9666   4.646   0.503   4.623
 3216SOL    HW1 9667   4.621   0.494   4.527
 3216SOL    HW2 9668   4.694   0.421   4.654
 3217SOL     OW 9669   4.263   0.064   4.236
 3217SOL    HW1 9670   4.182   0.065   4.294
 3217SOL    HW2 9671   4.266   0.147   4.181
 3218SOL     OW 9672   4.021   0.035   3.895
 3218SOL    HW1 9673   4.070   0.119   3.874
 3218SOL    HW2 9674   4.083  -0.030   3.940
 3219SOL     OW 9675   4.659   0.236   4.204
 3219SOL    HW1 9676   4.611   0.277   4.126
 3219SOL    HW2 9677   4.758   0.234   4.185
 3220SOL     OW 9678   4.951   1.570   4.517
 3220SOL    HW1 9679   4.972   1.644   4.452
 3220SOL    HW2 9680   5.019   1.570   4.590
 3221SOL     OW 9681   4.183   1.152   4.465
 3221SOL    HW1 9682   4.112   1.125   4.530
 3221SOL    HW2 9683   4.157   1.124   4.372
 3222SOL     OW 9684   4.995   1.797   4.315
 3222SOL    HW1 9685   5.039   1.861   4.251
 3222SOL    HW2 9686   4.945   1.849   4.385
 3223SOL     OW 9687   4.756   0.549   3.740
 3223SOL    HW1 9688   4.715   0.631   3.701
 3223SOL    HW2 9689   4.820   0.575   3.813
 3224SOL     OW 9690   4.590   0.454   4.366
 3224SOL    HW1 9691   4.558   0.526   4.304
 3224SOL    HW2 9692   4.614   0.373   4.313
 3225SOL     OW 9693   4.741   0.039   4.477
 3225SOL    HW1 9694   4.669   0.044   4.408
 3225SOL    HW2 9695   4.717  -0.030   4.546
 3226SOL     OW 9696   4.212   1.385   3.898
 3226SOL    HW1 9697   4.125   1.370   3.945
 3226SOL    HW2 9698   4.195   1.411   3.803
 3227SOL     OW 9699   4.251   0.256   4.052
 3227SOL    HW1 9700   4.278   0.197   3.977
 3227SOL    HW2 9701   4.251   0.351   4.021
 3228SOL     OW 9702   4.429   1.050   4.092
 3228SOL    HW1 9703   4.415   1.057   4.191
 3228SOL    HW2 9704   4.513   0.999   4.074
 3229SOL     OW 9705   4.134   0.813   4.975
 3229SOL    HW1 9706   4.220   0.825   5.025
 3229SOL    HW2 9707   4.092   0.726   5.002
 3230SOL     OW 9708   4.091   1.100   4.225
 3230SOL    HW1 9709   4.084   1.183   4.169
 3230SOL    HW2 9710   4.095   1.020   4.165
 3231SOL     OW 9711   4.290   0.537   4.589
 3231SOL    HW1 9712   4.302   0.603   4.515
 3231SOL    HW2 9713   4.336   0.571   4.672
 3232SOL     OW 9714   4.078   1.510   5.053
 3232SOL    HW1 9715   4.057   1.466   4.966
 3232SOL    HW2 9716   4.175   1.536   5.056
 3233SOL     OW 9717   4.297   0.870   4.753
 3233SOL    HW1 9718   4.341   0.959   4.744
 3233SOL    HW2 9719   4.234   0.870   4.830
 3234SOL     OW 9720   4.933   0.525   3.999
 3234SOL    HW1 9721   4.946   0.441   4.053
 3234SOL    HW2 9722   4.904   0.599   4.059
 3235SOL     OW 9723   4.456   0.634   4.788
 3235SOL    HW1 9724   4.515   0.608   4.712
 3235SOL    HW2 9725   4.428   0.730   4.777
 3236SOL     OW 9726   4.031   0.063   4.342
 3236SOL    HW1 9727   4.020   0.157   4.375
 3236SOL    HW2 9728   4.026   0.000   4.419
 3237SOL     OW 9729   4.747   0.766   4.690
 3237SOL    HW1 9730   4.762   0.787   4.786
 3237SOL    HW2 9731   4.717   0.671   4.681
 3238SOL     OW 9732   4.792   1.333   4.573
 3238SOL    HW1 9733   4.799   1.249   4.518
 3238SOL    HW2 9734   4.854   1.402   4.537
 3239SOL     OW 9735   4.043   0.810   4.673
 3239SOL    HW1 9736   4.136   0.846   4.678
 3239SOL    HW2 9737   4.037   0.725   4.725
 3240SOL     OW 9738   4.063   0.509   4.730
 3240SOL    HW1 9739   4.011   0.426   4.713
 3240SOL    HW2 9740   4.140   0.514   4.666
 3241SOL     OW 9741   3.732   1.326   3.924
 3241SOL    HW1 9742   3.639   1.347   3.893
 3241SOL    HW2 9743   3.742   1.227   3.937
 3242SOL     OW 9744   3.812   1.801   4.651
 3242SOL    HW1 9745   3.770   1.715   4.624
 3242SOL    HW2 9746   3.906   1.804   4.617
 3243SOL     OW 9747   4.228   1.568   4.634
 3243SOL    HW1 9748   4.294   1.642   4.643
 3243SOL    HW2 9749   4.272   1.489   4.592
 3244SOL     OW 9750   4.726   0.796   4.962
 3244SOL    HW1 9751   4.767   0.764   5.048
 3244SOL    HW2 9752   4.630   0.769   4.959
 3245SOL     OW 9753   3.764   0.544   4.838
 3245SOL    HW1 9754   3.849   0.511   4.797
 3245SOL    HW2 9755   3.777   0.559   4.936
 3246SOL     OW 9756   4.539   0.572   4.049
 3246SOL    HW1 9757   4.546   0.483   4.003
 3246SOL    HW2 9758   4.445   0.606   4.041
 3247SOL     OW 9759   4.395   0.464   4.993
 3247SOL    HW1 9760   4.361   0.375   4.963
 3247SOL    HW2 9761   4.421   0.518   4.913
 3248SOL     OW 9762   4.197   0.500   3.915
 3248SOL    HW1 9763   4.258   0.580   3.919
 3248SOL    HW2 9764   4.102   0.531   3.922
 3249SOL     OW 9765   5.026   0.855   4.033
 3249SOL    HW1 9766   4.940   0.824   4.075
 3249SOL    HW2 9767   5.022   0.841   3.934
 3250SOL     OW 9768   3.807   1.258   4.746
 3250SOL    HW1 9769   3.802   1.257   4.846
 3250SOL    HW2 9770   3.724   1.217   4.708
 3251SOL     OW 9771   4.396   1.616   3.878
 3251SOL    HW1 9772   4.405   1.626   3.779
 3251SOL    HW2 9773   4.356   1.527   3.899
 3252SOL     OW 9774   3.987   0.326   4.444
 3252SOL    HW1 9775   3.908   0.377   4.410
 3252SOL    HW2 9776   3.978   0.311   4.542
 3253SOL     OW 9777   4.640   0.910   4.015
 3253SOL    HW1 9778   4.703   0.948   3.947
 3253SOL    HW2 9779   4.680   0.827   4.054
 3254SOL     OW 9780   4.763   1.098   4.420
 3254SOL    HW1 9781   4.693   1.051   4.474
 3254SOL    HW2 9782   4.822   1.030   4.377
 3255SOL     OW 9783   4.738   0.236   4.695
 3255SOL    HW1 9784   4.730   0.200   4.602
 3255SOL    HW2 9785   4.736   0.160   4.760
 3256SOL     OW 9786   4.314   1.487   4.215
 3256SOL    HW1 9787   4.356   1.429   4.145
 3256SOL    HW2 9788   4.270   1.566   4.171
 3257SOL     OW 9789   3.979   1.348   4.014
 3257SOL    HW1 9790   3.883   1.349   3.987
 3257SOL    HW2 9791   3.991   1.401   4.098
 3258SOL     OW 9792   3.799   0.345   3.757
 3258SOL    HW1 9793   3.707   0.317   3.728
 3258SOL    HW2 9794   3.830   0.422   3.701
 3259SOL     OW 9795   3.796   0.166   4.042
 3259SOL    HW1 9796   3.779   0.249   3.988
 3259SOL    HW2 9797   3.886   0.129   4.020
 3260SOL     OW 9798   4.318   0.745   4.376
 3260SOL    HW1 9799   4.368   0.830   4.357
 3260SOL    HW2 9800   4.230   0.747   4.328
 3261SOL     OW 9801   4.583   1.374   3.740
 3261SOL    HW1 9802   4.537   1.389   3.828
 3261SOL    HW2 9803   4.627   1.459   3.710
 3262SOL     OW 9804   4.385   1.790   4.677
 3262SOL    HW1 9805   4.339   1.878   4.664
 3262SOL    HW2 9806   4.484   1.802   4.670
 3263SOL     OW 9807   4.583   0.956   4.585
 3263SOL    HW1 9808   4.637   0.887   4.633
 3263SOL    HW2 9809   4.551   1.025   4.651
 3264SOL     OW 9810   4.807   0.984   3.811
 3264SOL    HW1 9811   4.784   1.037   3.729
 3264SOL    HW2 9812   4.888   0.928   3.792
 3265SOL     OW 9813   3.803   1.240   4.377
 3265SOL    HW1 9814   3.802   1.193   4.465
 3265SOL    HW2 9815   3.885   1.212   4.326
 3266SOL     OW 9816   4.152   0.424   4.244
 3266SOL    HW1 9817   4.182   0.352   4.182
 3266SOL    HW2 9818   4.113   0.384   4.327
 3267SOL     OW 9819   4.536   1.586   4.411
 3267SOL    HW1 9820   4.568   1.596   4.317
 3267SOL    HW2 9821   4.457   1.524   4.413
 3268SOL     OW 9822   4.494   1.330   4.025
 3268SOL    HW1 9823   4.448   1.243   4.042
 3268SOL    HW2 9824   4.585   1.327   4.066
 3269SOL     OW 9825   3.763   1.077   4.024
 3269SOL    HW1 9826   3.862   1.066   4.015
 3269SOL    HW2 9827   3.723   0.991   4.056
 3270SOL     OW 9828   4.599   1.646   4.061
 3270SOL    HW1 9829   4.522   1.611   4.007
 3270SOL    HW2 9830   4.567   1.717   4.123
 3271SOL     OW 9831   3.954   2.490   0.113
 3271SOL    HW1 9832   3.861   2.488   0.150
 3271SOL    HW2 9833   3.955   2.451   0.021
 3272SOL     OW 9834   3.949   2.137   0.996
 3272SOL    HW1 9835   3.984   2.120   1.088
 3272SOL    HW2 9836   3.861   2.092   0.984
 3273SOL     OW 9837   3.743   2.230   0.647
 3273SOL    HW1 9838   3.661   2.273   0.686
 3273SOL    HW2 9839   3.715   2.157   0.584
 3274SOL     OW 9840   4.293   3.137   1.165
 3274SOL    HW1 9841   4.200   3.130   1.128
 3274SOL    HW2 9842   4.304   3.226   1.209
 3275SOL     OW 9843   4.492   3.006   1.023
 3275SOL    HW1 9844   4.414   3.023   1.083
 3275SOL    HW2 9845   4.526   3.093   0.987
 3276SOL     OW 9846   4.574   2.660   1.823
 3276SOL    HW1 9847   4.570   2.736   1.888
 3276SOL    HW2 9848   4.596   2.696   1.732
 3277SOL     OW 9849   4.409   2.874   0.665
 3277SOL    HW1 9850   4.478   2.858   0.735
 3277SOL    HW2 9851   4.336   2.931   0.703
 3278SOL     OW 9852   4.410   3.023   1.803
 3278SOL    HW1 9853   4.470   3.102   1.817
 3278SOL    HW2 9854   4.324   3.054   1.762
 3279SOL     OW 9855   4.059   3.297   1.061
 3279SOL    HW1 9856   3.981   3.266   1.008
 3279SOL    HW2 9857   4.117   3.355   1.004
 3280SOL     OW 9858   4.162   2.254   1.499
 3280SOL    HW1 9859   4.244   2.198   1.508
 3280SOL    HW2 9860   4.081   2.196   1.503
 3281SOL     OW 9861   3.955   3.575   0.483
 3281SOL    HW1 9862   3.989   3.652   0.537
 3281SOL    HW2 9863   3.999   3.575   0.393
 3282SOL     OW 9864   4.851   3.203   1.690
 3282SOL    HW1 9865   4.898   3.203   1.778
 3282SOL    HW2 9866   4.803   3.116   1.679
 3283SOL     OW 9867   3.954   3.296   0.538
 3283SOL    HW1 9868   3.928   3.392   0.538
 3283SOL    HW2 9869   3.883   3.242   0.583
 3284SOL     OW 9870   3.964   2.953   0.886
 3284SOL    HW1 9871   3.978   2.869   0.938
 3284SOL    HW2 9872   3.909   3.017   0.941
 3285SOL     OW 9873   4.344   3.648   1.439
 3285SOL    HW1 9874   4.252   3.631   1.474
 3285SOL    HW2 9875   4.372   3.740   1.465
 3286SOL     OW 9876   4.330   2.826   0.123
 3286SOL    HW1 9877   4.337   2.910   0.069
 3286SOL    HW2 9878   4.376   2.839   0.211
 3287SOL     OW 9879   3.846   2.505   0.563
 3287SOL    HW1 9880   3.801   2.417   0.580
 3287SOL    HW2 9881   3.845   2.559   0.647
 3288SOL     OW 9882   3.751   3.458   0.117
 3288SOL    HW1 9883   3.732   3.362   0.138
 3288SOL    HW2 9884   3.718   3.516   0.192
 3289SOL     OW 9885   3.837   2.599   1.597
 3289SOL    HW1 9886   3.925   2.586   1.642
 3289SOL    HW2 9887   3.824   2.696   1.575
 3290SOL     OW 9888   4.337   3.227   0.726
 3290SOL    HW1 9889   4.288   3.140   0.735
 3290SOL    HW2 9890   4.314   3.270   0.639
 3291SOL     OW 9891   4.533   1.866   0.502
 3291SOL    HW1 9892   4.573   1.957   0.493
 3291SOL    HW2 9893   4.433   1.874   0.508
 3292SOL     OW 9894   3.921   2.838   1.264
 3292SOL    HW1 9895   4.010   2.793   1.250
 3292SOL    HW2 9896   3.848   2.773   1.245
 3293SOL     OW 9897   4.041   2.113   1.801
 3293SOL    HW1 9898   4.112   2.184   1.807
 3293SOL    HW2 9899   3.953   2.152   1.829
 3294SOL     OW 9900   4.322   2.591   0.270
 3294SOL    HW1 9901   4.346   2.660   0.202
 3294SOL    HW2 9902   4.244   2.624   0.324
 3295SOL     OW 9903   4.531   2.467   1.465
 3295SOL    HW1 9904   4.484   2.464   1.554
 3295SOL    HW2 9905   4.480   2.412   1.399
 3296SOL     OW 9906   4.697   2.752   1.572
 3296SOL    HW1 9907   4.743   2.668   1.543
 3296SOL    HW2 9908   4.641   2.786   1.497
 3297SOL     OW 9909   4.715   2.272   1.242
 3297SOL    HW1 9910   4.638   2.306   1.296
 3297SOL    HW2 9911   4.681   2.221   1.163
 3298SOL     OW 9912   4.765   2.563   0.429
 3298SOL    HW1 9913   4.791   2.559   0.525
 3298SOL    HW2 9914   4.680   2.512   0.415
 3299SOL     OW 9915   3.800   2.673   0.789
 3299SOL    HW1 9916   3.899   2.661   0.798
 3299SOL    HW2 9917   3.776   2.768   0.810
 3300SOL     OW 9918   3.854   3.683   1.571
 3300SOL    HW1 9919   3.844   3.668   1.670
 3300SOL    HW2 9920   3.768   3.719   1.535
 3301SOL     OW 9921   4.589   2.210   0.195
 3301SOL    HW1 9922   4.648   2.273   0.146
 3301SOL    HW2 9923   4.608   2.116   0.166
 3302SOL     OW 9924   4.274   2.058   0.885
 3302SOL    HW1 9925   4.269   2.053   0.985
 3302SOL    HW2 9926   4.276   2.154   0.856
 3303SOL     OW 9927   4.732   3.318   0.477
 3303SOL    HW1 9928   4.686   3.390   0.425
 3303SOL    HW2 9929   4.728   3.338   0.575
 3304SOL     OW 9930   4.075   3.663   0.853
 3304SOL    HW1 9931   4.125   3.577   0.859
 3304SOL    HW2 9932   4.140   3.740   0.850
 3305SOL     OW 9933   4.045   2.805   0.242
 3305SOL    HW1 9934   4.127   2.844   0.200
 3305SOL    HW2 9935   4.018   2.723   0.193
 3306SOL     OW 9936   4.185   3.128   1.727
 3306SOL    HW1 9937   4.135   3.129   1.641
 3306SOL    HW2 9938   4.122   3.110   1.803
 3307SOL     OW 9939   3.926   2.147   1.498
 3307SOL    HW1 9940   3.846   2.207   1.485
 3307SOL    HW2 9941   3.916   2.098   1.584
 3308SOL     OW 9942   4.188   3.605   0.323
 3308SOL    HW1 9943   4.221   3.644   0.409
 3308SOL    HW2 9944   4.264   3.598   0.258
 3309SOL     OW 9945   3.973   3.647   1.241
 3309SOL    HW1 9946   4.030   3.582   1.291
 3309SOL    HW2 9947   3.957   3.614   1.148
 3310SOL     OW 9948   4.664   3.560   0.904
 3310SOL    HW1 9949   4.744   3.503   0.925
 3310SOL    HW2 9950   4.615   3.520   0.827
 3311SOL     OW 9951   4.106   2.562   0.480
 3311SOL    HW1 9952   4.151   2.472   0.477
 3311SOL    HW2 9953   4.012   2.551   0.513
 3312SOL     OW 9954   4.338   1.984   0.117
 3312SOL    HW1 9955   4.436   1.962   0.124
 3312SOL    HW2 9956   4.307   1.967   0.024
 3313SOL     OW 9957   4.505   2.126   1.749
 3313SOL    HW1 9958   4.572   2.065   1.792
 3313SOL    HW2 9959   4.432   2.145   1.814
 3314SOL     OW 9960   4.612   3.376   1.195
 3314SOL    HW1 9961   4.589   3.351   1.101
 3314SOL    HW2 9962   4.673   3.307   1.234
 3315SOL     OW 9963   4.527   3.264   0.924
 3315SOL    HW1 9964   4.617   3.278   0.882
 3315SOL    HW2 9965   4.456   3.266   0.853
 3316SOL     OW 9966   4.646   2.365   0.899
 3316SOL    HW1 9967   4.621   2.356   0.803
 3316SOL    HW2 9968   4.694   2.283   0.930
 3317SOL     OW 9969   4.263   1.926   0.512
 3317SOL    HW1 9970   4.182   1.927   0.570
 3317SOL    HW2 9971   4.266   2.009   0.457
 3318SOL     OW 9972   5.158   3.050   0.041
 3318SOL    HW1 9973   5.190   2.974   0.098
 3318SOL    HW2 9974   5.066   3.077   0.071
 3319SOL     OW 9975   4.659   2.098   0.480
 3319SOL    HW1 9976   4.611   2.139   0.402
 3319SOL    HW2 9977   4.758   2.096   0.461
 3320SOL     OW 9978   4.951   3.432   0.793
 3320SOL    HW1 9979   4.972   3.506   0.728
 3320SOL    HW2 9980   5.019   3.432   0.866
 3321SOL     OW 9981   4.183   3.014   0.741
 3321SOL    HW1 9982   4.112   2.987   0.806
 3321SOL    HW2 9983   4.157   2.986   0.648
 3322SOL     OW 9984   4.995   3.659   0.591
 3322SOL    HW1 9985   5.039   3.723   0.527
 3322SOL    HW2 9986   4.945   3.711   0.661
 3323SOL     OW 9987   4.756   2.411   0.016
 3323SOL    HW1 9988   4.715   2.493  -0.023
 3323SOL    HW2 9989   4.820   2.437   0.089
 3324SOL     OW 9990   3.802   2.418   1.386
 3324SOL    HW1 9991   3.894   2.417   1.345
 3324SOL    HW2 9992   3.796   2.492   1.453
 3325SOL     OW 9993   4.285   2.084   1.147
 3325SOL    HW1 9994   4.323   2.000   1.184
 3325SOL    HW2 9995   4.197   2.103   1.191
 3326SOL     OW 9996   4.590   2.316   0.642
 3326SOL    HW1 9997   4.558   2.388   0.580
 3326SOL    HW2 9998   4.614   2.235   0.589
 3327SOL     OW 9999   4.741   1.901   0.753
 3327SOL    HW110000   4.669   1.906   0.684
 3327SOL    HW210001   4.717   1.832   0.822
 3328SOL     OW10002   4.212   3.247   0.174
 3328SOL    HW110003   4.125   3.232   0.221
 3328SOL    HW210004   4.195   3.273   0.079
 3329SOL     OW10005   4.251   2.118   0.328
 3329SOL    HW110006   4.278   2.059   0.253
 3329SOL    HW210007   4.251   2.213   0.297
 3330SOL     OW10008   4.639   1.951   1.402
 3330SOL    HW110009   4.664   1.931   1.307
 3330SOL    HW210010   4.711   2.007   1.444
 3331SOL     OW10011   4.704   2.978   1.719
 3331SOL    HW110012   4.605   2.984   1.729
 3331SOL    HW210013   4.727   2.898   1.663
 3332SOL     OW10014   4.429   2.912   0.368
 3332SOL    HW110015   4.415   2.919   0.467
 3332SOL    HW210016   4.513   2.861   0.350
 3333SOL     OW10017   4.134   2.675   1.251
 3333SOL    HW110018   4.220   2.687   1.301
 3333SOL    HW210019   4.092   2.588   1.278
 3334SOL     OW10020   3.788   3.426   1.331
 3334SOL    HW110021   3.742   3.508   1.297
 3334SOL    HW210022   3.886   3.445   1.340
 3335SOL     OW10023   4.091   2.962   0.501
 3335SOL    HW110024   4.084   3.045   0.445
 3335SOL    HW210025   4.095   2.882   0.441
 3336SOL     OW10026   4.290   2.399   0.865
 3336SOL    HW110027   4.302   2.465   0.791
 3336SOL    HW210028   4.336   2.433   0.948
 3337SOL     OW10029   4.078   3.372   1.329
 3337SOL    HW110030   4.057   3.328   1.242
 3337SOL    HW210031   4.175   3.398   1.332
 3338SOL     OW10032   4.126   2.613   1.598
 3338SOL    HW110033   4.194   2.668   1.551
 3338SOL    HW210034   4.166   2.525   1.625
 3339SOL     OW10035   4.737   1.967   1.770
 3339SOL    HW110036   4.743   2.052   1.718
 3339SOL    HW210037   4.769   1.891   1.713
 3340SOL     OW10038   4.228   1.912   1.740
 3340SOL    HW110039   4.186   1.855   1.670
 3340SOL    HW210040   4.162   1.981   1.772
 3341SOL     OW10041   4.297   2.732   1.029
 3341SOL    HW110042   4.341   2.821   1.020
 3341SOL    HW210043   4.234   2.732   1.106
 3342SOL     OW10044   4.933   2.387   0.275
 3342SOL    HW110045   4.946   2.303   0.329
 3342SOL    HW210046   4.904   2.461   0.335
 3343SOL     OW10047   4.031   2.075   1.231
 3343SOL    HW110048   4.008   2.112   1.321
 3343SOL    HW210049   4.001   1.980   1.225
 3344SOL     OW10050   3.761   3.172   1.282
 3344SOL    HW110051   3.814   3.123   1.350
 3344SOL    HW210052   3.783   3.270   1.287
 3345SOL     OW10053   4.456   2.496   1.064
 3345SOL    HW110054   4.515   2.470   0.988
 3345SOL    HW210055   4.428   2.592   1.053
 3346SOL     OW10056   4.031   1.925   0.618
 3346SOL    HW110057   4.020   2.019   0.651
 3346SOL    HW210058   4.026   1.862   0.695
 3347SOL     OW10059   4.747   2.628   0.966
 3347SOL    HW110060   4.762   2.649   1.062
 3347SOL    HW210061   4.717   2.533   0.957
 3348SOL     OW10062   4.704   3.435   1.700
 3348SOL    HW110063   4.684   3.479   1.612
 3348SOL    HW210064   4.743   3.344   1.684
 3349SOL     OW10065   4.074   2.760   1.804
 3349SOL    HW110066   4.150   2.804   1.852
 3349SOL    HW210067   4.109   2.713   1.722
 3350SOL     OW10068   4.792   3.195   0.849
 3350SOL    HW110069   4.799   3.111   0.794
 3350SOL    HW210070   4.854   3.264   0.813
 3351SOL     OW10071   4.043   2.672   0.949
 3351SOL    HW110072   4.136   2.708   0.954
 3351SOL    HW210073   4.037   2.587   1.001
 3352SOL     OW10074   4.063   2.371   1.006
 3352SOL    HW110075   4.011   2.288   0.989
 3352SOL    HW210076   4.140   2.376   0.942
 3353SOL     OW10077   4.862   2.242   1.678
 3353SOL    HW110078   4.817   2.305   1.742
 3353SOL    HW210079   4.955   2.273   1.661
 3354SOL     OW10080   4.884   2.069   1.477
 3354SOL    HW110081   4.884   2.133   1.554
 3354SOL    HW210082   4.912   2.117   1.394
 3355SOL     OW10083   3.732   3.188   0.200
 3355SOL    HW110084   3.639   3.209   0.169
 3355SOL    HW210085   3.742   3.089   0.213
 3356SOL     OW10086   3.812   3.663   0.927
 3356SOL    HW110087   3.770   3.577   0.900
 3356SOL    HW210088   3.906   3.666   0.893
 3357SOL     OW10089   4.228   3.430   0.910
 3357SOL    HW110090   4.294   3.504   0.919
 3357SOL    HW210091   4.272   3.351   0.868
 3358SOL     OW10092   4.726   2.658   1.238
 3358SOL    HW110093   4.767   2.626   1.324
 3358SOL    HW210094   4.630   2.631   1.235
 3359SOL     OW10095   3.764   2.406   1.114
 3359SOL    HW110096   3.849   2.373   1.073
 3359SOL    HW210097   3.777   2.421   1.212
 3360SOL     OW10098   3.913   2.382   1.722
 3360SOL    HW110099   3.972   2.342   1.652
 3360SOL    HW210100   3.855   2.453   1.681
 3361SOL     OW10101   4.539   2.434   0.325
 3361SOL    HW110102   4.546   2.345   0.279
 3361SOL    HW210103   4.445   2.468   0.317
 3362SOL     OW10104   3.976   3.426   1.744
 3362SOL    HW110105   3.946   3.483   1.820
 3362SOL    HW210106   3.969   3.329   1.770
 3363SOL     OW10107   4.395   2.326   1.269
 3363SOL    HW110108   4.361   2.237   1.239
 3363SOL    HW210109   4.421   2.380   1.189
 3364SOL     OW10110   4.654   3.540   1.465
 3364SOL    HW110111   4.630   3.522   1.370
 3364SOL    HW210112   4.684   3.634   1.475
 3365SOL     OW10113   4.197   2.362   0.191
 3365SOL    HW110114   4.258   2.442   0.195
 3365SOL    HW210115   4.102   2.393   0.198
 3366SOL     OW10116   3.883   2.999   1.466
 3366SOL    HW110117   3.905   2.938   1.542
 3366SOL    HW210118   3.893   2.950   1.380
 3367SOL     OW10119   5.026   2.717   0.309
 3367SOL    HW110120   4.940   2.686   0.351
 3367SOL    HW210121   5.022   2.703   0.210
 3368SOL     OW10122   3.807   3.120   1.022
 3368SOL    HW110123   3.802   3.119   1.122
 3368SOL    HW210124   3.724   3.079   0.984
 3369SOL     OW10125   4.412   3.524   1.716
 3369SOL    HW110126   4.356   3.605   1.725
 3369SOL    HW210127   4.464   3.528   1.630
 3370SOL     OW10128   4.627   1.948   0.133
 3370SOL    HW110129   4.678   1.949   0.047
 3370SOL    HW210130   4.683   1.906   0.204
 3371SOL     OW10131   3.854   3.656   1.851
 3371SOL    HW110132   3.813   3.582   1.904
 3371SOL    HW210133   3.918   3.707   1.909
 3372SOL     OW10134   4.554   3.135   1.422
 3372SOL    HW110135   4.549   3.168   1.517
 3372SOL    HW210136   4.468   3.154   1.376
 3373SOL     OW10137   4.396   3.478   0.154
 3373SOL    HW110138   4.405   3.488   0.055
 3373SOL    HW210139   4.356   3.389   0.175
 3374SOL     OW10140   3.987   2.188   0.720
 3374SOL    HW110141   3.908   2.239   0.686
 3374SOL    HW210142   3.978   2.173   0.818
 3375SOL     OW10143   4.546   2.864   1.372
 3375SOL    HW110144   4.586   2.863   1.280
 3375SOL    HW210145   4.556   2.956   1.412
 3376SOL     OW10146   4.640   2.772   0.291
 3376SOL    HW110147   4.703   2.810   0.223
 3376SOL    HW210148   4.680   2.689   0.330
 3377SOL     OW10149   4.096   3.150   1.490
 3377SOL    HW110150   4.083   3.243   1.456
 3377SOL    HW210151   4.012   3.098   1.477
 3378SOL     OW10152   4.763   2.960   0.696
 3378SOL    HW110153   4.693   2.913   0.750
 3378SOL    HW210154   4.822   2.892   0.653
 3379SOL     OW10155   4.738   2.098   0.971
 3379SOL    HW110156   4.730   2.062   0.878
 3379SOL    HW210157   4.736   2.022   1.036
 3380SOL     OW10158   4.314   3.349   0.491
 3380SOL    HW110159   4.356   3.291   0.421
 3380SOL    HW210160   4.270   3.428   0.447
 3381SOL     OW10161   3.979   3.210   0.290
 3381SOL    HW110162   3.883   3.211   0.263
 3381SOL    HW210163   3.991   3.263   0.374
 3382SOL     OW10164   3.829   2.875   1.726
 3382SOL    HW110165   3.752   2.842   1.780
 3382SOL    HW210166   3.914   2.845   1.768
 3383SOL     OW10167   4.396   2.065   1.489
 3383SOL    HW110168   4.486   2.049   1.449
 3383SOL    HW210169   4.404   2.070   1.588
 3384SOL     OW10170   3.796   2.028   0.318
 3384SOL    HW110171   3.779   2.111   0.264
 3384SOL    HW210172   3.886   1.991   0.296
 3385SOL     OW10173   4.337   2.704   1.431
 3385SOL    HW110174   4.393   2.785   1.414
 3385SOL    HW210175   4.396   2.624   1.434
 3386SOL     OW10176   4.440   2.427   1.708
 3386SOL    HW110177   4.459   2.492   1.782
 3386SOL    HW210178   4.500   2.347   1.717
 3387SOL     OW10179   4.114   3.603   1.560
 3387SOL    HW110180   4.023   3.644   1.558
 3387SOL    HW210181   4.107   3.509   1.592
 3388SOL     OW10182   4.318   2.607   0.652
 3388SOL    HW110183   4.368   2.692   0.633
 3388SOL    HW210184   4.230   2.609   0.604
 3389SOL     OW10185   4.583   3.236   0.016
 3389SOL    HW110186   4.537   3.251   0.104
 3389SOL    HW210187   4.627   3.321  -0.014
 3390SOL     OW10188   4.385   3.652   0.953
 3390SOL    HW110189   4.339   3.740   0.940
 3390SOL    HW210190   4.484   3.664   0.946
 3391SOL     OW10191   4.583   2.818   0.861
 3391SOL    HW110192   4.637   2.749   0.909
 3391SOL    HW210193   4.551   2.887   0.927
 3392SOL     OW10194   4.807   2.846   0.087
 3392SOL    HW110195   4.784   2.899   0.005
 3392SOL    HW210196   4.888   2.790   0.068
 3393SOL     OW10197   3.945   3.176   1.844
 3393SOL    HW110198   3.880   3.103   1.823
 3393SOL    HW210199   3.949   3.190   1.942
 3394SOL     OW10200   3.803   3.102   0.653
 3394SOL    HW110201   3.802   3.055   0.741
 3394SOL    HW210202   3.885   3.074   0.602
 3395SOL     OW10203   4.396   3.253   1.624
 3395SOL    HW110204   4.318   3.203   1.662
 3395SOL    HW210205   4.393   3.348   1.655
 3396SOL     OW10206   4.152   2.286   0.520
 3396SOL    HW110207   4.182   2.214   0.458
 3396SOL    HW210208   4.113   2.246   0.603
 3397SOL     OW10209   4.041   2.409   1.280
 3397SOL    HW110210   4.079   2.350   1.352
 3397SOL    HW210211   4.081   2.383   1.192
 3398SOL     OW10212   4.536   3.448   0.687
 3398SOL    HW110213   4.568   3.458   0.593
 3398SOL    HW210214   4.457   3.386   0.689
 3399SOL     OW10215   4.725   1.896   1.154
 3399SOL    HW110216   4.662   1.824   1.123
 3399SOL    HW210217   4.818   1.860   1.154
 3400SOL     OW10218   4.494   3.192   0.301
 3400SOL    HW110219   4.448   3.105   0.318
 3400SOL    HW210220   4.585   3.189   0.342
 3401SOL     OW10221   4.342   3.429   1.284
 3401SOL    HW110222   4.337   3.511   1.341
 3401SOL    HW210223   4.431   3.426   1.239
 3402SOL     OW10224   3.763   2.939   0.300
 3402SOL    HW110225   3.862   2.928   0.291
 3402SOL    HW210226   3.723   2.853   0.332
 3403SOL     OW10227   4.599   3.508   0.337
 3403SOL    HW110228   4.522   3.473   0.283
 3403SOL    HW210229   4.567   3.579   0.399
 3404SOL     OW10230   3.954   2.490   1.975
 3404SOL    HW110231   3.861   2.488   2.012
 3404SOL    HW210232   3.955   2.451   1.883
 3405SOL     OW10233   3.949   2.137   2.858
 3405SOL    HW110234   3.984   2.120   2.950
 3405SOL    HW210235   3.861   2.092   2.846
 3406SOL     OW10236   3.743   2.230   2.509
 3406SOL    HW110237   3.661   2.273   2.548
 3406SOL    HW210238   3.715   2.157   2.446
 3407SOL     OW10239   4.293   3.137   3.027
 3407SOL    HW110240   4.200   3.130   2.990
 3407SOL    HW210241   4.304   3.226   3.071
 3408SOL     OW10242   4.492   3.006   2.885
 3408SOL    HW110243   4.414   3.023   2.945
 3408SOL    HW210244   4.526   3.093   2.849
 3409SOL     OW10245   4.574   2.660   3.685
 3409SOL    HW110246   4.570   2.736   3.750
 3409SOL    HW210247   4.596   2.696   3.594
 3410SOL     OW10248   4.409   2.874   2.527
 3410SOL    HW110249   4.478   2.858   2.597
 3410SOL    HW210250   4.336   2.931   2.565
 3411SOL     OW10251   4.410   3.023   3.665
 3411SOL    HW110252   4.470   3.102   3.679
 3411SOL    HW210253   4.324   3.054   3.624
 3412SOL     OW10254   4.059   3.297   2.923
 3412SOL    HW110255   3.981   3.266   2.870
 3412SOL    HW210256   4.117   3.355   2.866
 3413SOL     OW10257   4.162   2.254   3.361
 3413SOL    HW110258   4.244   2.198   3.370
 3413SOL    HW210259   4.081   2.196   3.365
 3414SOL     OW10260   3.955   3.575   2.345
 3414SOL    HW110261   3.989   3.652   2.399
 3414SOL    HW210262   3.999   3.575   2.255
 3415SOL     OW10263   4.851   3.203   3.552
 3415SOL    HW110264   4.898   3.203   3.640
 3415SOL    HW210265   4.803   3.116   3.541
 3416SOL     OW10266   3.954   3.296   2.400
 3416SOL    HW110267   3.928   3.392   2.400
 3416SOL    HW210268   3.883   3.242   2.445
 3417SOL     OW10269   3.964   2.953   2.748
 3417SOL    HW110270   3.978   2.869   2.800
 3417SOL    HW210271   3.909   3.017   2.803
 3418SOL     OW10272   4.344   3.648   3.301
 3418SOL    HW110273   4.252   3.631   3.336
 3418SOL    HW210274   4.372   3.740   3.327
 3419SOL     OW10275   4.330   2.826   1.985
 3419SOL    HW110276   4.337   2.910   1.931
 3419SOL    HW210277   4.376   2.839   2.073
 3420SOL     OW10278   3.846   2.505   2.425
 3420SOL    HW110279   3.801   2.417   2.442
 3420SOL    HW210280   3.845   2.559   2.509
 3421SOL     OW10281   3.751   3.458   1.979
 3421SOL    HW110282   3.732   3.362   2.000
 3421SOL    HW210283   3.718   3.516   2.054
 3422SOL     OW10284   3.837   2.599   3.459
 3422SOL    HW110285   3.925   2.586   3.504
 3422SOL    HW210286   3.824   2.696   3.437
 3423SOL     OW10287   4.337   3.227   2.588
 3423SOL    HW110288   4.288   3.140   2.597
 3423SOL    HW210289   4.314   3.270   2.501
 3424SOL     OW10290   4.533   1.866   2.364
 3424SOL    HW110291   4.573   1.957   2.355
 3424SOL    HW210292   4.433   1.874   2.370
 3425SOL     OW10293   3.921   2.838   3.126
 3425SOL    HW110294   4.010   2.793   3.112
 3425SOL    HW210295   3.848   2.773   3.107
 3426SOL     OW10296   4.041   2.113   3.663
 3426SOL    HW110297   4.112   2.184   3.669
 3426SOL    HW210298   3.953   2.152   3.691
 3427SOL     OW10299   4.322   2.591   2.132
 3427SOL    HW110300   4.346   2.660   2.064
 3427SOL    HW210301   4.244   2.624   2.186
 3428SOL     OW10302   4.531   2.467   3.327
 3428SOL    HW110303   4.484   2.464   3.416
 3428SOL    HW210304   4.480   2.412   3.261
 3429SOL     OW10305   4.697   2.752   3.434
 3429SOL    HW110306   4.743   2.668   3.405
 3429SOL    HW210307   4.641   2.786   3.359
 3430SOL     OW10308   4.715   2.272   3.104
 3430SOL    HW110309   4.638   2.306   3.158
 3430SOL    HW210310   4.681   2.221   3.025
 3431SOL     OW10311   4.765   2.563   2.291
 3431SOL    HW110312   4.791   2.559   2.387
 3431SOL    HW210313   4.680   2.512   2.277
 3432SOL     OW10314   3.800   2.673   2.651
 3432SOL    HW110315   3.899   2.661   2.660
 3432SOL    HW210316   3.776   2.768   2.672
 3433SOL     OW10317   3.854   3.683   3.433
 3433SOL    HW110318   3.844   3.668   3.532
 3433SOL    HW210319   3.768   3.719   3.397
 3434SOL     OW10320   4.589   2.210   2.057
 3434SOL    HW110321   4.648   2.273   2.008
 3434SOL    HW210322   4.608   2.116   2.028
 3435SOL     OW10323   4.274   2.058   2.747
 3435SOL    HW110324   4.269   2.053   2.847
 3435SOL    HW210325   4.276   2.154   2.718
 3436SOL     OW10326   4.732   3.318   2.339
 3436SOL    HW110327   4.686   3.390   2.287
 3436SOL    HW210328   4.728   3.338   2.437
 3437SOL     OW10329   4.075   3.663   2.715
 3437SOL    HW110330   4.125   3.577   2.721
 3437SOL    HW210331   4.140   3.740   2.712
 3438SOL     OW10332   4.045   2.805   2.104
 3438SOL    HW110333   4.127   2.844   2.062
 3438SOL    HW210334   4.018   2.723   2.055
 3439SOL     OW10335   4.185   3.128   3.589
 3439SOL    HW110336   4.135   3.129   3.503
 3439SOL    HW210337   4.122   3.110   3.665
 3440SOL     OW10338   3.926   2.147   3.360
 3440SOL    HW110339   3.846   2.207   3.347
 3440SOL    HW210340   3.916   2.098   3.446
 3441SOL     OW10341   4.188   3.605   2.185
 3441SOL    HW110342   4.221   3.644   2.271
 3441SOL    HW210343   4.264   3.598   2.120
 3442SOL     OW10344   3.973   3.647   3.103
 3442SOL    HW110345   4.030   3.582   3.153
 3442SOL    HW210346   3.957   3.614   3.010
 3443SOL     OW10347   4.664   3.560   2.766
 3443SOL    HW110348   4.744   3.503   2.787
 3443SOL    HW210349   4.615   3.520   2.689
 3444SOL     OW10350   4.106   2.562   2.342
 3444SOL    HW110351   4.151   2.472   2.339
 3444SOL    HW210352   4.012   2.551   2.375
 3445SOL     OW10353   4.338   1.984   1.979
 3445SOL    HW110354   4.436   1.962   1.986
 3445SOL    HW210355   4.307   1.967   1.886
 3446SOL     OW10356   4.505   2.126   3.611
 3446SOL    HW110357   4.572   2.065   3.654
 3446SOL    HW210358   4.432   2.145   3.676
 3447SOL     OW10359   4.612   3.376   3.057
 3447SOL    HW110360   4.589   3.351   2.963
 3447SOL    HW210361   4.673   3.307   3.096
 3448SOL     OW10362   4.527   3.264   2.786
 3448SOL    HW110363   4.617   3.278   2.744
 3448SOL    HW210364   4.456   3.266   2.715
 3449SOL     OW10365   4.646   2.365   2.761
 3449SOL    HW110366   4.621   2.356   2.665
 3449SOL    HW210367   4.694   2.283   2.792
 3450SOL     OW10368   4.263   1.926   2.374
 3450SOL    HW110369   4.182   1.927   2.432
 3450SOL    HW210370   4.266   2.009   2.319
 3451SOL     OW10371   4.021   1.897   2.033
 3451SOL    HW110372   4.070   1.981   2.012
 3451SOL    HW210373   4.083   1.832   2.078
 3452SOL     OW10374   4.659   2.098   2.342
 3452SOL    HW110375   4.611   2.139   2.264
 3452SOL    HW210376   4.758   2.096   2.323
 3453SOL     OW10377   4.951   3.432   2.655
 3453SOL    HW110378   4.972   3.506   2.590
 3453SOL    HW210379   5.019   3.432   2.728
 3454SOL     OW10380   4.183   3.014   2.603
 3454SOL    HW110381   4.112   2.987   2.668
 3454SOL    HW210382   4.157   2.986   2.510
 3455SOL     OW10383   4.995   3.659   2.453
 3455SOL    HW110384   5.039   3.723   2.389
 3455SOL    HW210385   4.945   3.711   2.523
 3456SOL     OW10386   4.756   2.411   1.878
 3456SOL    HW110387   4.715   2.493   1.839
 3456SOL    HW210388   4.820   2.437   1.951
 3457SOL     OW10389   3.802   2.418   3.248
 3457SOL    HW110390   3.894   2.417   3.207
 3457SOL    HW210391   3.796   2.492   3.315
 3458SOL     OW10392   4.285   2.084   3.009
 3458SOL    HW110393   4.323   2.000   3.046
 3458SOL    HW210394   4.197   2.103   3.053
 3459SOL     OW10395   4.590   2.316   2.504
 3459SOL    HW110396   4.558   2.388   2.442
 3459SOL    HW210397   4.614   2.235   2.451
 3460SOL     OW10398   4.741   1.901   2.615
 3460SOL    HW110399   4.669   1.906   2.546
 3460SOL    HW210400   4.717   1.832   2.684
 3461SOL     OW10401   4.212   3.247   2.036
 3461SOL    HW110402   4.125   3.232   2.083
 3461SOL    HW210403   4.195   3.273   1.941
 3462SOL     OW10404   4.251   2.118   2.190
 3462SOL    HW110405   4.278   2.059   2.115
 3462SOL    HW210406   4.251   2.213   2.159
 3463SOL     OW10407   4.639   1.951   3.264
 3463SOL    HW110408   4.664   1.931   3.169
 3463SOL    HW210409   4.711   2.007   3.306
 3464SOL     OW10410   4.704   2.978   3.581
 3464SOL    HW110411   4.605   2.984   3.591
 3464SOL    HW210412   4.727   2.898   3.525
 3465SOL     OW10413   4.429   2.912   2.230
 3465SOL    HW110414   4.415   2.919   2.329
 3465SOL    HW210415   4.513   2.861   2.212
 3466SOL     OW10416   4.134   2.675   3.113
 3466SOL    HW110417   4.220   2.687   3.163
 3466SOL    HW210418   4.092   2.588   3.140
 3467SOL     OW10419   3.788   3.426   3.193
 3467SOL    HW110420   3.742   3.508   3.159
 3467SOL    HW210421   3.886   3.445   3.202
 3468SOL     OW10422   4.091   2.962   2.363
 3468SOL    HW110423   4.084   3.045   2.307
 3468SOL    HW210424   4.095   2.882   2.303
 3469SOL     OW10425   4.290   2.399   2.727
 3469SOL    HW110426   4.302   2.465   2.653
 3469SOL    HW210427   4.336   2.433   2.810
 3470SOL     OW10428   4.078   3.372   3.191
 3470SOL    HW110429   4.057   3.328   3.104
 3470SOL    HW210430   4.175   3.398   3.194
 3471SOL     OW10431   4.126   2.613   3.460
 3471SOL    HW110432   4.194   2.668   3.413
 3471SOL    HW210433   4.166   2.525   3.487
 3472SOL     OW10434   4.737   1.967   3.632
 3472SOL    HW110435   4.743   2.052   3.580
 3472SOL    HW210436   4.769   1.891   3.575
 3473SOL     OW10437   4.228   1.912   3.602
 3473SOL    HW110438   4.186   1.855   3.532
 3473SOL    HW210439   4.162   1.981   3.634
 3474SOL     OW10440   4.297   2.732   2.891
 3474SOL    HW110441   4.341   2.821   2.882
 3474SOL    HW210442   4.234   2.732   2.968
 3475SOL     OW10443   4.933   2.387   2.137
 3475SOL    HW110444   4.946   2.303   2.191
 3475SOL    HW210445   4.904   2.461   2.197
 3476SOL     OW10446   4.031   2.075   3.093
 3476SOL    HW110447   4.008   2.112   3.183
 3476SOL    HW210448   4.001   1.980   3.087
 3477SOL     OW10449   3.761   3.172   3.144
 3477SOL    HW110450   3.814   3.123   3.212
 3477SOL    HW210451   3.783   3.270   3.149
 3478SOL     OW10452   4.456   2.496   2.926
 3478SOL    HW110453   4.515   2.470   2.850
 3478SOL    HW210454   4.428   2.592   2.915
 3479SOL     OW10455   4.031   1.925   2.480
 3479SOL    HW110456   4.020   2.019   2.513
 3479SOL    HW210457   4.026   1.862   2.557
 3480SOL     OW10458   4.747   2.628   2.828
 3480SOL    HW110459   4.762   2.649   2.924
 3480SOL    HW210460   4.717   2.533   2.819
 3481SOL     OW10461   4.704   3.435   3.562
 3481SOL    HW110462   4.684   3.479   3.474
 3481SOL    HW210463   4.743   3.344   3.546
 3482SOL     OW10464   4.074   2.760   3.666
 3482SOL    HW110465   4.150   2.804   3.714
 3482SOL    HW210466   4.109   2.713   3.584
 3483SOL     OW10467   4.792   3.195   2.711
 3483SOL    HW110468   4.799   3.111   2.656
 3483SOL    HW210469   4.854   3.264   2.675
 3484SOL     OW10470   4.043   2.672   2.811
 3484SOL    HW110471   4.136   2.708   2.816
 3484SOL    HW210472   4.037   2.587   2.863
 3485SOL     OW10473   4.063   2.371   2.868
 3485SOL    HW110474   4.011   2.288   2.851
 3485SOL    HW210475   4.140   2.376   2.804
 3486SOL     OW10476   4.862   2.242   3.540
 3486SOL    HW110477   4.817   2.305   3.604
 3486SOL    HW210478   4.955   2.273   3.523
 3487SOL     OW10479   4.884   2.069   3.339
 3487SOL    HW110480   4.884   2.133   3.416
 3487SOL    HW210481   4.912   2.117   3.256
 3488SOL     OW10482   3.732   3.188   2.062
 3488SOL    HW110483   3.639   3.209   2.031
 3488SOL    HW210484   3.742   3.089   2.075
 3489SOL     OW10485   3.812   3.663   2.789
 3489SOL    HW110486   3.770   3.577   2.762
 3489SOL    HW210487   3.906   3.666   2.755
 3490SOL     OW10488   4.228   3.430   2.772
 3490SOL    HW110489   4.294   3.504   2.781
 3490SOL    HW210490   4.272   3.351   2.730
 3491SOL     OW10491   4.726   2.658   3.100
 3491SOL    HW110492   4.767   2.626   3.186
 3491SOL    HW210493   4.630   2.631   3.097
 3492SOL     OW10494   3.764   2.406   2.976
 3492SOL    HW110495   3.849   2.373   2.935
 3492SOL    HW210496   3.777   2.421   3.074
 3493SOL     OW10497   3.913   2.382   3.584
 3493SOL    HW110498   3.972   2.342   3.514
 3493SOL    HW210499   3.855   2.453   3.543
 3494SOL     OW10500   4.539   2.434   2.187
 3494SOL    HW110501   4.546   2.345   2.141
 3494SOL    HW210502   4.445   2.468   2.179
 3495SOL     OW10503   3.976   3.426   3.606
 3495SOL    HW110504   3.946   3.483   3.682
 3495SOL    HW210505   3.969   3.329   3.632
 3496SOL     OW10506   4.395   2.326   3.131
 3496SOL    HW110507   4.361   2.237   3.101
 3496SOL    HW210508   4.421   2.380   3.051
 3497SOL     OW10509   4.654   3.540   3.327
 3497SOL    HW110510   4.630   3.522   3.232
 3497SOL    HW210511   4.684   3.634   3.337
 3498SOL     OW10512   4.197   2.362   2.053
 3498SOL    HW110513   4.258   2.442   2.057
 3498SOL    HW210514   4.102   2.393   2.060
 3499SOL     OW10515   3.883   2.999   3.328
 3499SOL    HW110516   3.905   2.938   3.404
 3499SOL    HW210517   3.893   2.950   3.242
 3500SOL     OW10518   5.026   2.717   2.171
 3500SOL    HW110519   4.940   2.686   2.213
 3500SOL    HW210520   5.022   2.703   2.072
 3501SOL     OW10521   3.807   3.120   2.884
 3501SOL    HW110522   3.802   3.119   2.984
 3501SOL    HW210523   3.724   3.079   2.846
 3502SOL     OW10524   4.412   3.524   3.578
 3502SOL    HW110525   4.356   3.605   3.587
 3502SOL    HW210526   4.464   3.528   3.492
 3503SOL     OW10527   3.854   3.656   3.713
 3503SOL    HW110528   3.813   3.582   3.766
 3503SOL    HW210529   3.918   3.707   3.771
 3504SOL     OW10530   4.554   3.135   3.284
 3504SOL    HW110531   4.549   3.168   3.379
 3504SOL    HW210532   4.468   3.154   3.238
 3505SOL     OW10533   4.396   3.478   2.016
 3505SOL    HW110534   4.405   3.488   1.917
 3505SOL    HW210535   4.356   3.389   2.037
 3506SOL     OW10536   3.987   2.188   2.582
 3506SOL    HW110537   3.908   2.239   2.548
 3506SOL    HW210538   3.978   2.173   2.680
 3507SOL     OW10539   4.546   2.864   3.234
 3507SOL    HW110540   4.586   2.863   3.142
 3507SOL    HW210541   4.556   2.956   3.274
 3508SOL     OW10542   4.640   2.772   2.153
 3508SOL    HW110543   4.703   2.810   2.085
 3508SOL    HW210544   4.680   2.689   2.192
 3509SOL     OW10545   4.096   3.150   3.352
 3509SOL    HW110546   4.083   3.243   3.318
 3509SOL    HW210547   4.012   3.098   3.339
 3510SOL     OW10548   4.763   2.960   2.558
 3510SOL    HW110549   4.693   2.913   2.612
 3510SOL    HW210550   4.822   2.892   2.515
 3511SOL     OW10551   4.738   2.098   2.833
 3511SOL    HW110552   4.730   2.062   2.740
 3511SOL    HW210553   4.736   2.022   2.898
 3512SOL     OW10554   4.314   3.349   2.353
 3512SOL    HW110555   4.356   3.291   2.283
 3512SOL    HW210556   4.270   3.428   2.309
 3513SOL     OW10557   3.979   3.210   2.152
 3513SOL    HW110558   3.883   3.211   2.125
 3513SOL    HW210559   3.991   3.263   2.236
 3514SOL     OW10560   3.829   2.875   3.588
 3514SOL    HW110561   3.752   2.842   3.642
 3514SOL    HW210562   3.914   2.845   3.630
 3515SOL     OW10563   4.396   2.065   3.351
 3515SOL    HW110564   4.486   2.049   3.311
 3515SOL    HW210565   4.404   2.070   3.450
 3516SOL     OW10566   3.799   2.207   1.895
 3516SOL    HW110567   3.707   2.179   1.866
 3516SOL    HW210568   3.830   2.284   1.839
 3517SOL     OW10569   3.796   2.028   2.180
 3517SOL    HW110570   3.779   2.111   2.126
 3517SOL    HW210571   3.886   1.991   2.158
 3518SOL     OW10572   4.337   2.704   3.293
 3518SOL    HW110573   4.393   2.785   3.276
 3518SOL    HW210574   4.396   2.624   3.296
 3519SOL     OW10575   4.440   2.427   3.570
 3519SOL    HW110576   4.459   2.492   3.644
 3519SOL    HW210577   4.500   2.347   3.579
 3520SOL     OW10578   4.114   3.603   3.422
 3520SOL    HW110579   4.023   3.644   3.420
 3520SOL    HW210580   4.107   3.509   3.454
 3521SOL     OW10581   4.318   2.607   2.514
 3521SOL    HW110582   4.368   2.692   2.495
 3521SOL    HW210583   4.230   2.609   2.466
 3522SOL     OW10584   4.583   3.236   1.878
 3522SOL    HW110585   4.537   3.251   1.966
 3522SOL    HW210586   4.627   3.321   1.848
 3523SOL     OW10587   4.385   3.652   2.815
 3523SOL    HW110588   4.339   3.740   2.802
 3523SOL    HW210589   4.484   3.664   2.808
 3524SOL     OW10590   4.583   2.818   2.723
 3524SOL    HW110591   4.637   2.749   2.771
 3524SOL    HW210592   4.551   2.887   2.789
 3525SOL     OW10593   4.807   2.846   1.949
 3525SOL    HW110594   4.784   2.899   1.867
 3525SOL    HW210595   4.888   2.790   1.930
 3526SOL     OW10596   3.945   3.176   3.706
 3526SOL    HW110597   3.880   3.103   3.685
 3526SOL    HW210598   3.949   3.190   3.804
 3527SOL     OW10599   3.803   3.102   2.515
 3527SOL    HW110600   3.802   3.055   2.603
 3527SOL    HW210601   3.885   3.074   2.464
 3528SOL     OW10602   4.396   3.253   3.486
 3528SOL    HW110603   4.318   3.203   3.524
 3528SOL    HW210604   4.393   3.348   3.517
 3529SOL     OW10605   4.152   2.286   2.382
 3529SOL    HW110606   4.182   2.214   2.320
 3529SOL    HW210607   4.113   2.246   2.465
 3530SOL     OW10608   4.041   2.409   3.142
 3530SOL    HW110609   4.079   2.350   3.214
 3530SOL    HW210610   4.081   2.383   3.054
 3531SOL     OW10611   4.536   3.448   2.549
 3531SOL    HW110612   4.568   3.458   2.455
 3531SOL    HW210613   4.457   3.386   2.551
 3532SOL     OW10614   4.725   1.896   3.016
 3532SOL    HW110615   4.662   1.824   2.985
 3532SOL    HW210616   4.818   1.860   3.016
 3533SOL     OW10617   4.494   3.192   2.163
 3533SOL    HW110618   4.448   3.105   2.180
 3533SOL    HW210619   4.585   3.189   2.204
 3534SOL     OW10620   4.342   3.429   3.146
 3534SOL    HW110621   4.337   3.511   3.203
 3534SOL    HW210622   4.431   3.426   3.101
 3535SOL     OW10623   3.763   2.939   2.162
 3535SOL    HW110624   3.862   2.928   2.153
 3535SOL    HW210625   3.723   2.853   2.194
 3536SOL     OW10626   4.599   3.508   2.199
 3536SOL    HW110627   4.522   3.473   2.145
 3536SOL    HW210628   4.567   3.579   2.261
 3537SOL     OW10629   3.954   2.490   3.837
 3537SOL    HW110630   3.861   2.488   3.874
 3537SOL    HW210631   3.955   2.451   3.745
 3538SOL     OW10632   3.949   2.137   4.720
 3538SOL    HW110633   3.984   2.120   4.812
 3538SOL    HW210634   3.861   2.092   4.708
 3539SOL     OW10635   3.743   2.230   4.371
 3539SOL    HW110636   3.661   2.273   4.410
 3539SOL    HW210637   3.715   2.157   4.308
 3540SOL     OW10638   4.492   3.006   4.747
 3540SOL    HW110639   4.414   3.023   4.807
 3540SOL    HW210640   4.526   3.093   4.711
 3541SOL     OW10641   4.409   2.874   4.389
 3541SOL    HW110642   4.478   2.858   4.459
 3541SOL    HW210643   4.336   2.931   4.427
 3542SOL     OW10644   4.059   3.297   4.785
 3542SOL    HW110645   3.981   3.266   4.732
 3542SOL    HW210646   4.117   3.355   4.728
 3543SOL     OW10647   3.955   3.575   4.207
 3543SOL    HW110648   3.989   3.652   4.261
 3543SOL    HW210649   3.999   3.575   4.117
 3544SOL     OW10650   3.954   3.296   4.262
 3544SOL    HW110651   3.928   3.392   4.262
 3544SOL    HW210652   3.883   3.242   4.307
 3545SOL     OW10653   3.964   2.953   4.610
 3545SOL    HW110654   3.978   2.869   4.662
 3545SOL    HW210655   3.909   3.017   4.665
 3546SOL     OW10656   4.330   2.826   3.847
 3546SOL    HW110657   4.337   2.910   3.793
 3546SOL    HW210658   4.376   2.839   3.935
 3547SOL     OW10659   3.846   2.505   4.287
 3547SOL    HW110660   3.801   2.417   4.304
 3547SOL    HW210661   3.845   2.559   4.371
 3548SOL     OW10662   3.751   3.458   3.841
 3548SOL    HW110663   3.732   3.362   3.862
 3548SOL    HW210664   3.718   3.516   3.916
 3549SOL     OW10665   4.337   3.227   4.450
 3549SOL    HW110666   4.288   3.140   4.459
 3549SOL    HW210667   4.314   3.270   4.363
 3550SOL     OW10668   4.533   1.866   4.226
 3550SOL    HW110669   4.573   1.957   4.217
 3550SOL    HW210670   4.433   1.874   4.232
 3551SOL     OW10671   3.921   2.838   4.988
 3551SOL    HW110672   4.010   2.793   4.974
 3551SOL    HW210673   3.848   2.773   4.969
 3552SOL     OW10674   4.322   2.591   3.994
 3552SOL    HW110675   4.346   2.660   3.926
 3552SOL    HW210676   4.244   2.624   4.048
 3553SOL     OW10677   4.765   2.563   4.153
 3553SOL    HW110678   4.791   2.559   4.249
 3553SOL    HW210679   4.680   2.512   4.139
 3554SOL     OW10680   3.800   2.673   4.513
 3554SOL    HW110681   3.899   2.661   4.522
 3554SOL    HW210682   3.776   2.768   4.534
 3555SOL     OW10683   4.589   2.210   3.919
 3555SOL    HW110684   4.648   2.273   3.870
 3555SOL    HW210685   4.608   2.116   3.890
 3556SOL     OW10686   4.274   2.058   4.609
 3556SOL    HW110687   4.269   2.053   4.709
 3556SOL    HW210688   4.276   2.154   4.580
 3557SOL     OW10689   4.732   3.318   4.201
 3557SOL    HW110690   4.686   3.390   4.149
 3557SOL    HW210691   4.728   3.338   4.299
 3558SOL     OW10692   4.075   3.663   4.577
 3558SOL    HW110693   4.125   3.577   4.583
 3558SOL    HW210694   4.140   3.740   4.574
 3559SOL     OW10695   4.045   2.805   3.966
 3559SOL    HW110696   4.127   2.844   3.924
 3559SOL    HW210697   4.018   2.723   3.917
 3560SOL     OW10698   4.188   3.605   4.047
 3560SOL    HW110699   4.221   3.644   4.133
 3560SOL    HW210700   4.264   3.598   3.982
 3561SOL     OW10701   3.973   3.647   4.965
 3561SOL    HW110702   4.030   3.582   5.015
 3561SOL    HW210703   3.957   3.614   4.872
 3562SOL     OW10704   4.664   3.560   4.628
 3562SOL    HW110705   4.744   3.503   4.649
 3562SOL    HW210706   4.615   3.520   4.551
 3563SOL     OW10707   4.106   2.562   4.204
 3563SOL    HW110708   4.151   2.472   4.201
 3563SOL    HW210709   4.012   2.551   4.237
 3564SOL     OW10710   4.338   1.984   3.841
 3564SOL    HW110711   4.436   1.962   3.848
 3564SOL    HW210712   4.307   1.967   3.748
 3565SOL     OW10713   4.527   3.264   4.648
 3565SOL    HW110714   4.617   3.278   4.606
 3565SOL    HW210715   4.456   3.266   4.577
 3566SOL     OW10716   4.646   2.365   4.623
 3566SOL    HW110717   4.621   2.356   4.527
 3566SOL    HW210718   4.694   2.283   4.654
 3567SOL     OW10719   4.263   1.926   4.236
 3567SOL    HW110720   4.182   1.927   4.294
 3567SOL    HW210721   4.266   2.009   4.181
 3568SOL     OW10722   4.021   1.897   3.895
 3568SOL    HW110723   4.070   1.981   3.874
 3568SOL    HW210724   4.083   1.832   3.940
 3569SOL     OW10725   4.659   2.098   4.204
 3569SOL    HW110726   4.611   2.139   4.126
 3569SOL    HW210727   4.758   2.096   4.185
 3570SOL     OW10728   4.951   3.432   4.517
 3570SOL    HW110729   4.972   3.506   4.452
 3570SOL    HW210730   5.019   3.432   4.590
 3571SOL     OW10731   4.183   3.014   4.465
 3571SOL    HW110732   4.112   2.987   4.530
 3571SOL    HW210733   4.157   2.986   4.372
 3572SOL     OW10734   4.995   3.659   4.315
 3572SOL    HW110735   5.039   3.723   4.251
 3572SOL    HW210736   4.945   3.711   4.385
 3573SOL     OW10737   4.756   2.411   3.740
 3573SOL    HW110738   4.715   2.493   3.701
 3573SOL    HW210739   4.820   2.437   3.813
 3574SOL     OW10740   4.590   2.316   4.366
 3574SOL    HW110741   4.558   2.388   4.304
 3574SOL    HW210742   4.614   2.235   4.313
 3575SOL     OW10743   4.741   1.901   4.477
 3575SOL    HW110744   4.669   1.906   4.408
 3575SOL    HW210745   4.717   1.832   4.546
 3576SOL     OW10746   4.212   3.247   3.898
 3576SOL    HW110747   4.125   3.232   3.945
 3576SOL    HW210748   4.195   3.273   3.803
 3577SOL     OW10749   4.251   2.118   4.052
 3577SOL    HW110750   4.278   2.059   3.977
 3577SOL    HW210751   4.251   2.213   4.021
 3578SOL     OW10752   4.429   2.912   4.092
 3578SOL    HW110753   4.415   2.919   4.191
 3578SOL    HW210754   4.513   2.861   4.074
 3579SOL     OW10755   4.134   2.675   4.975
 3579SOL    HW110756   4.220   2.687   5.025
 3579SOL    HW210757   4.092   2.588   5.002
 3580SOL     OW10758   4.091   2.962   4.225
 3580SOL    HW110759   4.084   3.045   4.169
 3580SOL    HW210760   4.095   2.882   4.165
 3581SOL     OW10761   4.290   2.399   4.589
 3581SOL    HW110762   4.302   2.465   4.515
 3581SOL    HW210763   4.336   2.433   4.672
 3582SOL     OW10764   4.078   3.372   5.053
 3582SOL    HW110765   4.057   3.328   4.966
 3582SOL    HW210766   4.175   3.398   5.056
 3583SOL     OW10767   4.297   2.732   4.753
 3583SOL    HW110768   4.341   2.821   4.744
 3583SOL    HW210769   4.234   2.732   4.830
 3584SOL     OW10770   4.933   2.387   3.999
 3584SOL    HW110771   4.946   2.303   4.053
 3584SOL    HW210772   4.904   2.461   4.059
 3585SOL     OW10773   4.031   2.075   4.955
 3585SOL    HW110774   4.008   2.112   5.045
 3585SOL    HW210775   4.001   1.980   4.949
 3586SOL     OW10776   4.456   2.496   4.788
 3586SOL    HW110777   4.515   2.470   4.712
 3586SOL    HW210778   4.428   2.592   4.777
 3587SOL     OW10779   4.031   1.925   4.342
 3587SOL    HW110780   4.020   2.019   4.375
 3587SOL    HW210781   4.026   1.862   4.419
 3588SOL     OW10782   4.747   2.628   4.690
 3588SOL    HW110783   4.762   2.649   4.786
 3588SOL    HW210784   4.717   2.533   4.681
 3589SOL     OW10785   4.792   3.195   4.573
 3589SOL    HW110786   4.799   3.111   4.518
 3589SOL    HW210787   4.854   3.264   4.537
 3590SOL     OW10788   4.043   2.672   4.673
 3590SOL    HW110789   4.136   2.708   4.678
 3590SOL    HW210790   4.037   2.587   4.725
 3591SOL     OW10791   4.063   2.371   4.730
 3591SOL    HW110792   4.011   2.288   4.713
 3591SOL    HW210793   4.140   2.376   4.666
 3592SOL     OW10794   3.732   3.188   3.924
 3592SOL    HW110795   3.639   3.209   3.893
 3592SOL    HW210796   3.742   3.089   3.937
 3593SOL     OW10797   3.812   3.663   4.651
 3593SOL    HW110798   3.770   3.577   4.624
 3593SOL    HW210799   3.906   3.666   4.617
 3594SOL     OW10800   4.228   3.430   4.634
 3594SOL    HW110801   4.294   3.504   4.643
 3594SOL    HW210802   4.272   3.351   4.592
 3595SOL     OW10803   4.726   2.658   4.962
 3595SOL    HW110804   4.767   2.626   5.048
 3595SOL    HW210805   4.630   2.631   4.959
 3596SOL     OW10806   3.764   2.406   4.838
 3596SOL    HW110807   3.849   2.373   4.797
 3596SOL    HW210808   3.777   2.421   4.936
 3597SOL     OW10809   4.539   2.434   4.049
 3597SOL    HW110810   4.546   2.345   4.003
 3597SOL    HW210811   4.445   2.468   4.041
 3598SOL     OW10812   4.395   2.326   4.993
 3598SOL    HW110813   4.361   2.237   4.963
 3598SOL    HW210814   4.421   2.380   4.913
 3599SOL     OW10815   4.197   2.362   3.915
 3599SOL    HW110816   4.258   2.442   3.919
 3599SOL    HW210817   4.102   2.393   3.922
 3600SOL     OW10818   5.026   2.717   4.033
 3600SOL    HW110819   4.940   2.686   4.075
 3600SOL    HW210820   5.022   2.703   3.934
 3601SOL     OW10821   3.807   3.120   4.746
 3601SOL    HW110822   3.802   3.119   4.846
 3601SOL    HW210823   3.724   3.079   4.708
 3602SOL     OW10824   4.396   3.478   3.878
 3602SOL    HW110825   4.405   3.488   3.779
 3602SOL    HW210826   4.356   3.389   3.899
 3603SOL     OW10827   3.987   2.188   4.444
 3603SOL    HW110828   3.908   2.239   4.410
 3603SOL    HW210829   3.978   2.173   4.542
 3604SOL     OW10830   4.640   2.772   4.015
 3604SOL    HW110831   4.703   2.810   3.947
 3604SOL    HW210832   4.680   2.689   4.054
 3605SOL     OW10833   4.763   2.960   4.420
 3605SOL    HW110834   4.693   2.913   4.474
 3605SOL    HW210835   4.822   2.892   4.377
 3606SOL     OW10836   4.738   2.098   4.695
 3606SOL    HW110837   4.730   2.062   4.602
 3606SOL    HW210838   4.736   2.022   4.760
 3607SOL     OW10839   4.314   3.349   4.215
 3607SOL    HW110840   4.356   3.291   4.145
 3607SOL    HW210841   4.270   3.428   4.171
 3608SOL     OW10842   3.979   3.210   4.014
 3608SOL    HW110843   3.883   3.211   3.987
 3608SOL    HW210844   3.991   3.263   4.098
 3609SOL     OW10845   3.799   2.207   3.757
 3609SOL    HW110846   3.707   2.179   3.728
 3609SOL    HW210847   3.830   2.284   3.701
 3610SOL     OW10848   3.796   2.028   4.042
 3610SOL    HW110849   3.779   2.111   3.988
 3610SOL    HW210850   3.886   1.991   4.020
 3611SOL     OW10851   4.318   2.607   4.376
 3611SOL    HW110852   4.368   2.692   4.357
 3611SOL    HW210853   4.230   2.609   4.328
 3612SOL     OW10854   4.583   3.236   3.740
 3612SOL    HW110855   4.537   3.251   3.828
 3612SOL    HW210856   4.627   3.321   3.710
 3613SOL     OW10857   4.385   3.652   4.677
 3613SOL    HW110858   4.339   3.740   4.664
 3613SOL    HW210859   4.484   3.664   4.670
 3614SOL     OW10860   4.583   2.818   4.585
 3614SOL    HW110861   4.637   2.749   4.633
 3614SOL    HW210862   4.551   2.887   4.651
 3615SOL     OW10863   4.807   2.846   3.811
 3615SOL    HW110864   4.784   2.899   3.729
 3615SOL    HW210865   4.888   2.790   3.792
 3616SOL     OW10866   3.803   3.102   4.377
 3616SOL    HW110867   3.802   3.055   4.465
 3616SOL    HW210868   3.885   3.074   4.326
 3617SOL     OW10869   4.152   2.286   4.244
 3617SOL    HW110870   4.182   2.214   4.182
 3617SOL    HW210871   4.113   2.246   4.327
 3618SOL     OW10872   4.536   3.448   4.411
 3618SOL    HW110873   4.568   3.458   4.317
 3618SOL    HW210874   4.457   3.386   4.413
 3619SOL     OW10875   4.494   3.192   4.025
 3619SOL    HW110876   4.448   3.105   4.042
 3619SOL    HW210877   4.585   3.189   4.066
 3620SOL     OW10878   3.763   2.939   4.024
 3620SOL    HW110879   3.862   2.928   4.015
 3620SOL    HW210880   3.723   2.853   4.056
 3621SOL     OW10881   4.599   3.508   4.061
 3621SOL    HW110882   4.522   3.473   4.007
 3621SOL    HW210883   4.567   3.579   4.123
 3622SOL     OW10884   3.954   4.352   0.113
 3622SOL    HW110885   3.861   4.350   0.150
 3622SOL    HW210886   3.955   4.313   0.021
 3623SOL     OW10887   3.949   3.999   0.996
 3623SOL    HW110888   3.984   3.982   1.088
 3623SOL    HW210889   3.861   3.954   0.984
 3624SOL     OW10890   3.743   4.092   0.647
 3624SOL    HW110891   3.661   4.135   0.686
 3624SOL    HW210892   3.715   4.019   0.584
 3625SOL     OW10893   4.492   4.868   1.023
 3625SOL    HW110894   4.414   4.885   1.083
 3625SOL    HW210895   4.526   4.955   0.987
 3626SOL     OW10896   4.574   4.522   1.823
 3626SOL    HW110897   4.570   4.598   1.888
 3626SOL    HW210898   4.596   4.558   1.732
 3627SOL     OW10899   4.409   4.736   0.665
 3627SOL    HW110900   4.478   4.720   0.735
 3627SOL    HW210901   4.336   4.793   0.703
 3628SOL     OW10902   4.162   4.116   1.499
 3628SOL    HW110903   4.244   4.060   1.508
 3628SOL    HW210904   4.081   4.058   1.503
 3629SOL     OW10905   3.954   5.158   0.538
 3629SOL    HW110906   3.928   5.254   0.538
 3629SOL    HW210907   3.883   5.104   0.583
 3630SOL     OW10908   3.964   4.815   0.886
 3630SOL    HW110909   3.978   4.731   0.938
 3630SOL    HW210910   3.909   4.879   0.941
 3631SOL     OW10911   4.330   4.688   0.123
 3631SOL    HW110912   4.337   4.772   0.069
 3631SOL    HW210913   4.376   4.701   0.211
 3632SOL     OW10914   3.846   4.367   0.563
 3632SOL    HW110915   3.801   4.279   0.580
 3632SOL    HW210916   3.845   4.421   0.647
 3633SOL     OW10917   3.837   4.461   1.597
 3633SOL    HW110918   3.925   4.448   1.642
 3633SOL    HW210919   3.824   4.558   1.575
 3634SOL     OW10920   4.533   3.728   0.502
 3634SOL    HW110921   4.573   3.819   0.493
 3634SOL    HW210922   4.433   3.736   0.508
 3635SOL     OW10923   3.921   4.700   1.264
 3635SOL    HW110924   4.010   4.655   1.250
 3635SOL    HW210925   3.848   4.635   1.245
 3636SOL     OW10926   4.041   3.975   1.801
 3636SOL    HW110927   4.112   4.046   1.807
 3636SOL    HW210928   3.953   4.014   1.829
 3637SOL     OW10929   4.322   4.453   0.270
 3637SOL    HW110930   4.346   4.522   0.202
 3637SOL    HW210931   4.244   4.486   0.324
 3638SOL     OW10932   4.531   4.329   1.465
 3638SOL    HW110933   4.484   4.326   1.554
 3638SOL    HW210934   4.480   4.274   1.399
 3639SOL     OW10935   4.697   4.614   1.572
 3639SOL    HW110936   4.743   4.530   1.543
 3639SOL    HW210937   4.641   4.648   1.497
 3640SOL     OW10938   4.715   4.134   1.242
 3640SOL    HW110939   4.638   4.168   1.296
 3640SOL    HW210940   4.681   4.083   1.163
 3641SOL     OW10941   4.765   4.425   0.429
 3641SOL    HW110942   4.791   4.421   0.525
 3641SOL    HW210943   4.680   4.374   0.415
 3642SOL     OW10944   3.800   4.535   0.789
 3642SOL    HW110945   3.899   4.523   0.798
 3642SOL    HW210946   3.776   4.630   0.810
 3643SOL     OW10947   4.589   4.072   0.195
 3643SOL    HW110948   4.648   4.135   0.146
 3643SOL    HW210949   4.608   3.978   0.166
 3644SOL     OW10950   4.274   3.920   0.885
 3644SOL    HW110951   4.269   3.915   0.985
 3644SOL    HW210952   4.276   4.016   0.856
 3645SOL     OW10953   4.045   4.667   0.242
 3645SOL    HW110954   4.127   4.706   0.200
 3645SOL    HW210955   4.018   4.585   0.193
 3646SOL     OW10956   3.926   4.009   1.498
 3646SOL    HW110957   3.846   4.069   1.485
 3646SOL    HW210958   3.916   3.960   1.584
 3647SOL     OW10959   4.106   4.424   0.480
 3647SOL    HW110960   4.151   4.334   0.477
 3647SOL    HW210961   4.012   4.413   0.513
 3648SOL     OW10962   4.338   3.846   0.117
 3648SOL    HW110963   4.436   3.824   0.124
 3648SOL    HW210964   4.307   3.829   0.024
 3649SOL     OW10965   4.505   3.988   1.749
 3649SOL    HW110966   4.572   3.927   1.792
 3649SOL    HW210967   4.432   4.007   1.814
 3650SOL     OW10968   4.646   4.227   0.899
 3650SOL    HW110969   4.621   4.218   0.803
 3650SOL    HW210970   4.694   4.145   0.930
 3651SOL     OW10971   4.263   3.788   0.512
 3651SOL    HW110972   4.182   3.789   0.570
 3651SOL    HW210973   4.266   3.871   0.457
 3652SOL     OW10974   4.659   3.960   0.480
 3652SOL    HW110975   4.611   4.001   0.402
 3652SOL    HW210976   4.758   3.958   0.461
 3653SOL     OW10977   4.183   4.876   0.741
 3653SOL    HW110978   4.112   4.849   0.806
 3653SOL    HW210979   4.157   4.848   0.648
 3654SOL     OW10980   4.756   4.273   0.016
 3654SOL    HW110981   4.715   4.355  -0.023
 3654SOL    HW210982   4.820   4.299   0.089
 3655SOL     OW10983   3.802   4.280   1.386
 3655SOL    HW110984   3.894   4.279   1.345
 3655SOL    HW210985   3.796   4.354   1.453
 3656SOL     OW10986   4.285   3.946   1.147
 3656SOL    HW110987   4.323   3.862   1.184
 3656SOL    HW210988   4.197   3.965   1.191
 3657SOL     OW10989   4.590   4.178   0.642
 3657SOL    HW110990   4.558   4.250   0.580
 3657SOL    HW210991   4.614   4.097   0.589
 3658SOL     OW10992   4.741   3.763   0.753
 3658SOL    HW110993   4.669   3.768   0.684
 3658SOL    HW210994   4.717   3.694   0.822
 3659SOL     OW10995   4.251   3.980   0.328
 3659SOL    HW110996   4.278   3.921   0.253
 3659SOL    HW210997   4.251   4.075   0.297
 3660SOL     OW10998   4.639   3.813   1.402
 3660SOL    HW110999   4.664   3.793   1.307
 3660SOL    HW211000   4.711   3.869   1.444
 3661SOL     OW11001   4.429   4.774   0.368
 3661SOL    HW111002   4.415   4.781   0.467
 3661SOL    HW211003   4.513   4.723   0.350
 3662SOL     OW11004   4.134   4.537   1.251
 3662SOL    HW111005   4.220   4.549   1.301
 3662SOL    HW211006   4.092   4.450   1.278
 3663SOL     OW11007   4.091   4.824   0.501
 3663SOL    HW111008   4.084   4.907   0.445
 3663SOL    HW211009   4.095   4.744   0.441
 3664SOL     OW11010   4.290   4.261   0.865
 3664SOL    HW111011   4.302   4.327   0.791
 3664SOL    HW211012   4.336   4.295   0.948
 3665SOL     OW11013   4.126   4.475   1.598
 3665SOL    HW111014   4.194   4.530   1.551
 3665SOL    HW211015   4.166   4.387   1.625
 3666SOL     OW11016   4.737   3.829   1.770
 3666SOL    HW111017   4.743   3.914   1.718
 3666SOL    HW211018   4.769   3.753   1.713
 3667SOL     OW11019   4.228   3.774   1.740
 3667SOL    HW111020   4.186   3.717   1.670
 3667SOL    HW211021   4.162   3.843   1.772
 3668SOL     OW11022   4.297   4.594   1.029
 3668SOL    HW111023   4.341   4.683   1.020
 3668SOL    HW211024   4.234   4.594   1.106
 3669SOL     OW11025   4.933   4.249   0.275
 3669SOL    HW111026   4.946   4.165   0.329
 3669SOL    HW211027   4.904   4.323   0.335
 3670SOL     OW11028   4.031   3.937   1.231
 3670SOL    HW111029   4.008   3.974   1.321
 3670SOL    HW211030   4.001   3.842   1.225
 3671SOL     OW11031   4.456   4.358   1.064
 3671SOL    HW111032   4.515   4.332   0.988
 3671SOL    HW211033   4.428   4.454   1.053
 3672SOL     OW11034   4.031   3.787   0.618
 3672SOL    HW111035   4.020   3.881   0.651
 3672SOL    HW211036   4.026   3.724   0.695
 3673SOL     OW11037   4.747   4.490   0.966
 3673SOL    HW111038   4.762   4.511   1.062
 3673SOL    HW211039   4.717   4.395   0.957
 3674SOL     OW11040   4.074   4.622   1.804
 3674SOL    HW111041   4.150   4.666   1.852
 3674SOL    HW211042   4.109   4.575   1.722
 3675SOL     OW11043   4.043   4.534   0.949
 3675SOL    HW111044   4.136   4.570   0.954
 3675SOL    HW211045   4.037   4.449   1.001
 3676SOL     OW11046   4.063   4.233   1.006
 3676SOL    HW111047   4.011   4.150   0.989
 3676SOL    HW211048   4.140   4.238   0.942
 3677SOL     OW11049   4.862   4.104   1.678
 3677SOL    HW111050   4.817   4.167   1.742
 3677SOL    HW211051   4.955   4.135   1.661
 3678SOL     OW11052   4.884   3.931   1.477
 3678SOL    HW111053   4.884   3.995   1.554
 3678SOL    HW211054   4.912   3.979   1.394
 3679SOL     OW11055   4.726   4.520   1.238
 3679SOL    HW111056   4.767   4.488   1.324
 3679SOL    HW211057   4.630   4.493   1.235
 3680SOL     OW11058   3.764   4.268   1.114
 3680SOL    HW111059   3.849   4.235   1.073
 3680SOL    HW211060   3.777   4.283   1.212
 3681SOL     OW11061   3.913   4.244   1.722
 3681SOL    HW111062   3.972   4.204   1.652
 3681SOL    HW211063   3.855   4.315   1.681
 3682SOL     OW11064   4.539   4.296   0.325
 3682SOL    HW111065   4.546   4.207   0.279
 3682SOL    HW211066   4.445   4.330   0.317
 3683SOL     OW11067   4.395   4.188   1.269
 3683SOL    HW111068   4.361   4.099   1.239
 3683SOL    HW211069   4.421   4.242   1.189
 3684SOL     OW11070   4.197   4.224   0.191
 3684SOL    HW111071   4.258   4.304   0.195
 3684SOL    HW211072   4.102   4.255   0.198
 3685SOL     OW11073   3.883   4.861   1.466
 3685SOL    HW111074   3.905   4.800   1.542
 3685SOL    HW211075   3.893   4.812   1.380
 3686SOL     OW11076   5.026   4.579   0.309
 3686SOL    HW111077   4.940   4.548   0.351
 3686SOL    HW211078   5.022   4.565   0.210
 3687SOL     OW11079   4.627   3.810   0.133
 3687SOL    HW111080   4.678   3.811   0.047
 3687SOL    HW211081   4.683   3.768   0.204
 3688SOL     OW11082   3.987   4.050   0.720
 3688SOL    HW111083   3.908   4.101   0.686
 3688SOL    HW211084   3.978   4.035   0.818
 3689SOL     OW11085   4.546   4.726   1.372
 3689SOL    HW111086   4.586   4.725   1.280
 3689SOL    HW211087   4.556   4.818   1.412
 3690SOL     OW11088   4.640   4.634   0.291
 3690SOL    HW111089   4.703   4.672   0.223
 3690SOL    HW211090   4.680   4.551   0.330
 3691SOL     OW11091   4.096   5.012   1.490
 3691SOL    HW111092   4.083   5.105   1.456
 3691SOL    HW211093   4.012   4.960   1.477
 3692SOL     OW11094   4.738   3.960   0.971
 3692SOL    HW111095   4.730   3.924   0.878
 3692SOL    HW211096   4.736   3.884   1.036
 3693SOL     OW11097   3.829   4.737   1.726
 3693SOL    HW111098   3.752   4.704   1.780
 3693SOL    HW211099   3.914   4.707   1.768
 3694SOL     OW11100   4.396   3.927   1.489
 3694SOL    HW111101   4.486   3.911   1.449
 3694SOL    HW211102   4.404   3.932   1.588
 3695SOL     OW11103   3.796   3.890   0.318
 3695SOL    HW111104   3.779   3.973   0.264
 3695SOL    HW211105   3.886   3.853   0.296
 3696SOL     OW11106   4.337   4.566   1.431
 3696SOL    HW111107   4.393   4.647   1.414
 3696SOL    HW211108   4.396   4.486   1.434
 3697SOL     OW11109   4.440   4.289   1.708
 3697SOL    HW111110   4.459   4.354   1.782
 3697SOL    HW211111   4.500   4.209   1.717
 3698SOL     OW11112   4.318   4.469   0.652
 3698SOL    HW111113   4.368   4.554   0.633
 3698SOL    HW211114   4.230   4.471   0.604
 3699SOL     OW11115   4.583   4.680   0.861
 3699SOL    HW111116   4.637   4.611   0.909
 3699SOL    HW211117   4.551   4.749   0.927
 3700SOL     OW11118   4.807   4.708   0.087
 3700SOL    HW111119   4.784   4.761   0.005
 3700SOL    HW211120   4.888   4.652   0.068
 3701SOL     OW11121   4.152   4.148   0.520
 3701SOL    HW111122   4.182   4.076   0.458
 3701SOL    HW211123   4.113   4.108   0.603
 3702SOL     OW11124   4.041   4.271   1.280
 3702SOL    HW111125   4.079   4.212   1.352
 3702SOL    HW211126   4.081   4.245   1.192
 3703SOL     OW11127   4.725   3.758   1.154
 3703SOL    HW111128   4.662   3.686   1.123
 3703SOL    HW211129   4.818   3.722   1.154
 3704SOL     OW11130   4.494   5.054   0.301
 3704SOL    HW111131   4.448   4.967   0.318
 3704SOL    HW211132   4.585   5.051   0.342
 3705SOL     OW11133   3.763   4.801   0.300
 3705SOL    HW111134   3.862   4.790   0.291
 3705SOL    HW211135   3.723   4.715   0.332
 3706SOL     OW11136   3.954   4.352   1.975
 3706SOL    HW111137   3.861   4.350   2.012
 3706SOL    HW211138   3.955   4.313   1.883
 3707SOL     OW11139   3.949   3.999   2.858
 3707SOL    HW111140   3.984   3.982   2.950
 3707SOL    HW211141   3.861   3.954   2.846
 3708SOL     OW11142   3.743   4.092   2.509
 3708SOL    HW111143   3.661   4.135   2.548
 3708SOL    HW211144   3.715   4.019   2.446
 3709SOL     OW11145   4.492   4.868   2.885
 3709SOL    HW111146   4.414   4.885   2.945
 3709SOL    HW211147   4.526   4.955   2.849
 3710SOL     OW11148   4.574   4.522   3.685
 3710SOL    HW111149   4.570   4.598   3.750
 3710SOL    HW211150   4.596   4.558   3.594
 3711SOL     OW11151   4.409   4.736   2.527
 3711SOL    HW111152   4.478   4.720   2.597
 3711SOL    HW211153   4.336   4.793   2.565
 3712SOL     OW11154   4.162   4.116   3.361
 3712SOL    HW111155   4.244   4.060   3.370
 3712SOL    HW211156   4.081   4.058   3.365
 3713SOL     OW11157   3.954   5.158   2.400
 3713SOL    HW111158   3.928   5.254   2.400
 3713SOL    HW211159   3.883   5.104   2.445
 3714SOL     OW11160   3.964   4.815   2.748
 3714SOL    HW111161   3.978   4.731   2.800
 3714SOL    HW211162   3.909   4.879   2.803
 3715SOL     OW11163   4.330   4.688   1.985
 3715SOL    HW111164   4.337   4.772   1.931
 3715SOL    HW211165   4.376   4.701   2.073
 3716SOL     OW11166   3.846   4.367   2.425
 3716SOL    HW111167   3.801   4.279   2.442
 3716SOL    HW211168   3.845   4.421   2.509
 3717SOL     OW11169   3.837   4.461   3.459
 3717SOL    HW111170   3.925   4.448   3.504
 3717SOL    HW211171   3.824   4.558   3.437
 3718SOL     OW11172   4.533   3.728   2.364
 3718SOL    HW111173   4.573   3.819   2.355
 3718SOL    HW211174   4.433   3.736   2.370
 3719SOL     OW11175   3.921   4.700   3.126
 3719SOL    HW111176   4.010   4.655   3.112
 3719SOL    HW211177   3.848   4.635   3.107
 3720SOL     OW11178   4.041   3.975   3.663
 3720SOL    HW111179   4.112   4.046   3.669
 3720SOL    HW211180   3.953   4.014   3.691
 3721SOL     OW11181   4.322   4.453   2.132
 3721SOL    HW111182   4.346   4.522   2.064
 3721SOL    HW211183   4.244   4.486   2.186
 3722SOL     OW11184   4.531   4.329   3.327
 3722SOL    HW111185   4.484   4.326   3.416
 3722SOL    HW211186   4.480   4.274   3.261
 3723SOL     OW11187   4.697   4.614   3.434
 3723SOL    HW111188   4.743   4.530   3.405
 3723SOL    HW211189   4.641   4.648   3.359
 3724SOL     OW11190   4.715   4.134   3.104
 3724SOL    HW111191   4.638   4.168   3.158
 3724SOL    HW211192   4.681   4.083   3.025
 3725SOL     OW11193   4.765   4.425   2.291
 3725SOL    HW111194   4.791   4.421   2.387
 3725SOL    HW211195   4.680   4.374   2.277
 3726SOL     OW11196   3.800   4.535   2.651
 3726SOL    HW111197   3.899   4.523   2.660
 3726SOL    HW211198   3.776   4.630   2.672
 3727SOL     OW11199   4.589   4.072   2.057
 3727SOL    HW111200   4.648   4.135   2.008
 3727SOL    HW211201   4.608   3.978   2.028
 3728SOL     OW11202   4.274   3.920   2.747
 3728SOL    HW111203   4.269   3.915   2.847
 3728SOL    HW211204   4.276   4.016   2.718
 3729SOL     OW11205   4.045   4.667   2.104
 3729SOL    HW111206   4.127   4.706   2.062
 3729SOL    HW211207   4.018   4.585   2.055
 3730SOL     OW11208   3.926   4.009   3.360
 3730SOL    HW111209   3.846   4.069   3.347
 3730SOL    HW211210   3.916   3.960   3.446
 3731SOL     OW11211   4.106   4.424   2.342
 3731SOL    HW111212   4.151   4.334   2.339
 3731SOL    HW211213   4.012   4.413   2.375
 3732SOL     OW11214   4.338   3.846   1.979
 3732SOL    HW111215   4.436   3.824   1.986
 3732SOL    HW211216   4.307   3.829   1.886
 3733SOL     OW11217   4.505   3.988   3.611
 3733SOL    HW111218   4.572   3.927   3.654
 3733SOL    HW211219   4.432   4.007   3.676
 3734SOL     OW11220   4.646   4.227   2.761
 3734SOL    HW111221   4.621   4.218   2.665
 3734SOL    HW211222   4.694   4.145   2.792
 3735SOL     OW11223   4.263   3.788   2.374
 3735SOL    HW111224   4.182   3.789   2.432
 3735SOL    HW211225   4.266   3.871   2.319
 3736SOL     OW11226   4.021   3.759   2.033
 3736SOL    HW111227   4.070   3.843   2.012
 3736SOL    HW211228   4.083   3.694   2.078
 3737SOL     OW11229   4.659   3.960   2.342
 3737SOL    HW111230   4.611   4.001   2.264
 3737SOL    HW211231   4.758   3.958   2.323
 3738SOL     OW11232   4.183   4.876   2.603
 3738SOL    HW111233   4.112   4.849   2.668
 3738SOL    HW211234   4.157   4.848   2.510
 3739SOL     OW11235   4.756   4.273   1.878
 3739SOL    HW111236   4.715   4.355   1.839
 3739SOL    HW211237   4.820   4.299   1.951
 3740SOL     OW11238   3.802   4.280   3.248
 3740SOL    HW111239   3.894   4.279   3.207
 3740SOL    HW211240   3.796   4.354   3.315
 3741SOL     OW11241   4.285   3.946   3.009
 3741SOL    HW111242   4.323   3.862   3.046
 3741SOL    HW211243   4.197   3.965   3.053
 3742SOL     OW11244   4.590   4.178   2.504
 3742SOL    HW111245   4.558   4.250   2.442
 3742SOL    HW211246   4.614   4.097   2.451
 3743SOL     OW11247   4.741   3.763   2.615
 3743SOL    HW111248   4.669   3.768   2.546
 3743SOL    HW211249   4.717   3.694   2.684
 3744SOL     OW11250   4.251   3.980   2.190
 3744SOL    HW111251   4.278   3.921   2.115
 3744SOL    HW211252   4.251   4.075   2.159
 3745SOL     OW11253   4.639   3.813   3.264
 3745SOL    HW111254   4.664   3.793   3.169
 3745SOL    HW211255   4.711   3.869   3.306
 3746SOL     OW11256   4.429   4.774   2.230
 3746SOL    HW111257   4.415   4.781   2.329
 3746SOL    HW211258   4.513   4.723   2.212
 3747SOL     OW11259   4.134   4.537   3.113
 3747SOL    HW111260   4.220   4.549   3.163
 3747SOL    HW211261   4.092   4.450   3.140
 3748SOL     OW11262   4.091   4.824   2.363
 3748SOL    HW111263   4.084   4.907   2.307
 3748SOL    HW211264   4.095   4.744   2.303
 3749SOL     OW11265   4.290   4.261   2.727
 3749SOL    HW111266   4.302   4.327   2.653
 3749SOL    HW211267   4.336   4.295   2.810
 3750SOL     OW11268   4.126   4.475   3.460
 3750SOL    HW111269   4.194   4.530   3.413
 3750SOL    HW211270   4.166   4.387   3.487
 3751SOL     OW11271   4.737   3.829   3.632
 3751SOL    HW111272   4.743   3.914   3.580
 3751SOL    HW211273   4.769   3.753   3.575
 3752SOL     OW11274   4.228   3.774   3.602
 3752SOL    HW111275   4.186   3.717   3.532
 3752SOL    HW211276   4.162   3.843   3.634
 3753SOL     OW11277   4.297   4.594   2.891
 3753SOL    HW111278   4.341   4.683   2.882
 3753SOL    HW211279   4.234   4.594   2.968
 3754SOL     OW11280   4.933   4.249   2.137
 3754SOL    HW111281   4.946   4.165   2.191
 3754SOL    HW211282   4.904   4.323   2.197
 3755SOL     OW11283   4.031   3.937   3.093
 3755SOL    HW111284   4.008   3.974   3.183
 3755SOL    HW211285   4.001   3.842   3.087
 3756SOL     OW11286   4.456   4.358   2.926
 3756SOL    HW111287   4.515   4.332   2.850
 3756SOL    HW211288   4.428   4.454   2.915
 3757SOL     OW11289   4.031   3.787   2.480
 3757SOL    HW111290   4.020   3.881   2.513
 3757SOL    HW211291   4.026   3.724   2.557
 3758SOL     OW11292   4.747   4.490   2.828
 3758SOL    HW111293   4.762   4.511   2.924
 3758SOL    HW211294   4.717   4.395   2.819
 3759SOL     OW11295   4.074   4.622   3.666
 3759SOL    HW111296   4.150   4.666   3.714
 3759SOL    HW211297   4.109   4.575   3.584
 3760SOL     OW11298   4.043   4.534   2.811
 3760SOL    HW111299   4.136   4.570   2.816
 3760SOL    HW211300   4.037   4.449   2.863
 3761SOL     OW11301   4.063   4.233   2.868
 3761SOL    HW111302   4.011   4.150   2.851
 3761SOL    HW211303   4.140   4.238   2.804
 3762SOL     OW11304   4.862   4.104   3.540
 3762SOL    HW111305   4.817   4.167   3.604
 3762SOL    HW211306   4.955   4.135   3.523
 3763SOL     OW11307   4.884   3.931   3.339
 3763SOL    HW111308   4.884   3.995   3.416
 3763SOL    HW211309   4.912   3.979   3.256
 3764SOL     OW11310   4.726   4.520   3.100
 3764SOL    HW111311   4.767   4.488   3.186
 3764SOL    HW211312   4.630   4.493   3.097
 3765SOL     OW11313   3.764   4.268   2.976
 3765SOL    HW111314   3.849   4.235   2.935
 3765SOL    HW211315   3.777   4.283   3.074
 3766SOL     OW11316   3.913   4.244   3.584
 3766SOL    HW111317   3.972   4.204   3.514
 3766SOL    HW211318   3.855   4.315   3.543
 3767SOL     OW11319   4.539   4.296   2.187
 3767SOL    HW111320   4.546   4.207   2.141
 3767SOL    HW211321   4.445   4.330   2.179
 3768SOL     OW11322   4.395   4.188   3.131
 3768SOL    HW111323   4.361   4.099   3.101
 3768SOL    HW211324   4.421   4.242   3.051
 3769SOL     OW11325   4.197   4.224   2.053
 3769SOL    HW111326   4.258   4.304   2.057
 3769SOL    HW211327   4.102   4.255   2.060
 3770SOL     OW11328   3.883   4.861   3.328
 3770SOL    HW111329   3.905   4.800   3.404
 3770SOL    HW211330   3.893   4.812   3.242
 3771SOL     OW11331   5.026   4.579   2.171
 3771SOL    HW111332   4.940   4.548   2.213
 3771SOL    HW211333   5.022   4.565   2.072
 3772SOL     OW11334   3.987   4.050   2.582
 3772SOL    HW111335   3.908   4.101   2.548
 3772SOL    HW211336   3.978   4.035   2.680
 3773SOL     OW11337   4.546   4.726   3.234
 3773SOL    HW111338   4.586   4.725   3.142
 3773SOL    HW211339   4.556   4.818   3.274
 3774SOL     OW11340   4.640   4.634   2.153
 3774SOL    HW111341   4.703   4.672   2.085
 3774SOL    HW211342   4.680   4.551   2.192
 3775SOL     OW11343   4.096   5.012   3.352
 3775SOL    HW111344   4.083   5.105   3.318
 3775SOL    HW211345   4.012   4.960   3.339
 3776SOL     OW11346   4.738   3.960   2.833
 3776SOL    HW111347   4.730   3.924   2.740
 3776SOL    HW211348   4.736   3.884   2.898
 3777SOL     OW11349   3.829   4.737   3.588
 3777SOL    HW111350   3.752   4.704   3.642
 3777SOL    HW211351   3.914   4.707   3.630
 3778SOL     OW11352   4.396   3.927   3.351
 3778SOL    HW111353   4.486   3.911   3.311
 3778SOL    HW211354   4.404   3.932   3.450
 3779SOL     OW11355   3.799   4.069   1.895
 3779SOL    HW111356   3.707   4.041   1.866
 3779SOL    HW211357   3.830   4.146   1.839
 3780SOL     OW11358   3.796   3.890   2.180
 3780SOL    HW111359   3.779   3.973   2.126
 3780SOL    HW211360   3.886   3.853   2.158
 3781SOL     OW11361   4.337   4.566   3.293
 3781SOL    HW111362   4.393   4.647   3.276
 3781SOL    HW211363   4.396   4.486   3.296
 3782SOL     OW11364   4.440   4.289   3.570
 3782SOL    HW111365   4.459   4.354   3.644
 3782SOL    HW211366   4.500   4.209   3.579
 3783SOL     OW11367   4.318   4.469   2.514
 3783SOL    HW111368   4.368   4.554   2.495
 3783SOL    HW211369   4.230   4.471   2.466
 3784SOL     OW11370   4.583   4.680   2.723
 3784SOL    HW111371   4.637   4.611   2.771
 3784SOL    HW211372   4.551   4.749   2.789
 3785SOL     OW11373   4.807   4.708   1.949
 3785SOL    HW111374   4.784   4.761   1.867
 3785SOL    HW211375   4.888   4.652   1.930
 3786SOL     OW11376   4.152   4.148   2.382
 3786SOL    HW111377   4.182   4.076   2.320
 3786SOL    HW211378   4.113   4.108   2.465
 3787SOL     OW11379   4.041   4.271   3.142
 3787SOL    HW111380   4.079   4.212   3.214
 3787SOL    HW211381   4.081   4.245   3.054
 3788SOL     OW11382   4.725   3.758   3.016
 3788SOL    HW111383   4.662   3.686   2.985
 3788SOL    HW211384   4.818   3.722   3.016
 3789SOL     OW11385   4.494   5.054   2.163
 3789SOL    HW111386   4.448   4.967   2.180
 3789SOL    HW211387   4.585   5.051   2.204
 3790SOL     OW11388   3.763   4.801   2.162
 3790SOL    HW111389   3.862   4.790   2.153
 3790SOL    HW211390   3.723   4.715   2.194
 3791SOL     OW11391   3.954   4.352   3.837
 3791SOL    HW111392   3.861   4.350   3.874
 3791SOL    HW211393   3.955   4.313   3.745
 3792SOL     OW11394   3.949   3.999   4.720
 3792SOL    HW111395   3.984   3.982   4.812
 3792SOL    HW211396   3.861   3.954   4.708
 3793SOL     OW11397   3.743   4.092   4.371
 3793SOL    HW111398   3.661   4.135   4.410
 3793SOL    HW211399   3.715   4.019   4.308
 3794SOL     OW11400   4.492   4.868   4.747
 3794SOL    HW111401   4.414   4.885   4.807
 3794SOL    HW211402   4.526   4.955   4.711
 3795SOL     OW11403   4.409   4.736   4.389
 3795SOL    HW111404   4.478   4.720   4.459
 3795SOL    HW211405   4.336   4.793   4.427
 3796SOL     OW11406   3.954   5.158   4.262
 3796SOL    HW111407   3.928   5.254   4.262
 3796SOL    HW211408   3.883   5.104   4.307
 3797SOL     OW11409   3.964   4.815   4.610
 3797SOL    HW111410   3.978   4.731   4.662
 3797SOL    HW211411   3.909   4.879   4.665
 3798SOL     OW11412   4.330   4.688   3.847
 3798SOL    HW111413   4.337   4.772   3.793
 3798SOL    HW211414   4.376   4.701   3.935
 3799SOL     OW11415   3.846   4.367   4.287
 3799SOL    HW111416   3.801   4.279   4.304
 3799SOL    HW211417   3.845   4.421   4.371
 3800SOL     OW11418   4.533   3.728   4.226
 3800SOL    HW111419   4.573   3.819   4.217
 3800SOL    HW211420   4.433   3.736   4.232
 3801SOL     OW11421   3.921   4.700   4.988
 3801SOL    HW111422   4.010   4.655   4.974
 3801SOL    HW211423   3.848   4.635   4.969
 3802SOL     OW11424   4.322   4.453   3.994
 3802SOL    HW111425   4.346   4.522   3.926
 3802SOL    HW211426   4.244   4.486   4.048
 3803SOL     OW11427   4.765   4.425   4.153
 3803SOL    HW111428   4.791   4.421   4.249
 3803SOL    HW211429   4.680   4.374   4.139
 3804SOL     OW11430   3.800   4.535   4.513
 3804SOL    HW111431   3.899   4.523   4.522
 3804SOL    HW211432   3.776   4.630   4.534
 3805SOL     OW11433   4.589   4.072   3.919
 3805SOL    HW111434   4.648   4.135   3.870
 3805SOL    HW211435   4.608   3.978   3.890
 3806SOL     OW11436   4.274   3.920   4.609
 3806SOL    HW111437   4.269   3.915   4.709
 3806SOL    HW211438   4.276   4.016   4.580
 3807SOL     OW11439   4.045   4.667   3.966
 3807SOL    HW111440   4.127   4.706   3.924
 3807SOL    HW211441   4.018   4.585   3.917
 3808SOL     OW11442   4.106   4.424   4.204
 3808SOL    HW111443   4.151   4.334   4.201
 3808SOL    HW211444   4.012   4.413   4.237
 3809SOL     OW11445   4.338   3.846   3.841
 3809SOL    HW111446   4.436   3.824   3.848
 3809SOL    HW211447   4.307   3.829   3.748
 3810SOL     OW11448   4.646   4.227   4.623
 3810SOL    HW111449   4.621   4.218   4.527
 3810SOL    HW211450   4.694   4.145   4.654
 3811SOL     OW11451   4.263   3.788   4.236
 3811SOL    HW111452   4.182   3.789   4.294
 3811SOL    HW211453   4.266   3.871   4.181
 3812SOL     OW11454   4.021   3.759   3.895
 3812SOL    HW111455   4.070   3.843   3.874
 3812SOL    HW211456   4.083   3.694   3.940
 3813SOL     OW11457   4.659   3.960   4.204
 3813SOL    HW111458   4.611   4.001   4.126
 3813SOL    HW211459   4.758   3.958   4.185
 3814SOL     OW11460   4.183   4.876   4.465
 3814SOL    HW111461   4.112   4.849   4.530
 3814SOL    HW211462   4.157   4.848   4.372
 3815SOL     OW11463   4.756   4.273   3.740
 3815SOL    HW111464   4.715   4.355   3.701
 3815SOL    HW211465   4.820   4.299   3.813
 3816SOL     OW11466   4.590   4.178   4.366
 3816SOL    HW111467   4.558   4.250   4.304
 3816SOL    HW211468   4.614   4.097   4.313
 3817SOL     OW11469   4.741   3.763   4.477
 3817SOL    HW111470   4.669   3.768   4.408
 3817SOL    HW211471   4.717   3.694   4.546
 3818SOL     OW11472   4.251   3.980   4.052
 3818SOL    HW111473   4.278   3.921   3.977
 3818SOL    HW211474   4.251   4.075   4.021
 3819SOL     OW11475   4.429   4.774   4.092
 3819SOL    HW111476   4.415   4.781   4.191
 3819SOL    HW211477   4.513   4.723   4.074
 3820SOL     OW11478   4.134   4.537   4.975
 3820SOL    HW111479   4.220   4.549   5.025
 3820SOL    HW211480   4.092   4.450   5.002
 3821SOL     OW11481   4.091   4.824   4.225
 3821SOL    HW111482   4.084   4.907   4.169
 3821SOL    HW211483   4.095   4.744   4.165
 3822SOL     OW11484   4.290   4.261   4.589
 3822SOL    HW111485   4.302   4.327   4.515
 3822SOL    HW211486   4.336   4.295   4.672
 3823SOL     OW11487   4.297   4.594   4.753
 3823SOL    HW111488   4.341   4.683   4.744
 3823SOL    HW211489   4.234   4.594   4.830
 3824SOL     OW11490   4.933   4.249   3.999
 3824SOL    HW111491   4.946   4.165   4.053
 3824SOL    HW211492   4.904   4.323   4.059
 3825SOL     OW11493   4.031   3.937   4.955
 3825SOL    HW111494   4.008   3.974   5.045
 3825SOL    HW211495   4.001   3.842   4.949
 3826SOL     OW11496   4.456   4.358   4.788
 3826SOL    HW111497   4.515   4.332   4.712
 3826SOL    HW211498   4.428   4.454   4.777
 3827SOL     OW11499   4.031   3.787   4.342
 3827SOL    HW111500   4.020   3.881   4.375
 3827SOL    HW211501   4.026   3.724   4.419
 3828SOL     OW11502   4.747   4.490   4.690
 3828SOL    HW111503   4.762   4.511   4.786
 3828SOL    HW211504   4.717   4.395   4.681
 3829SOL     OW11505   4.043   4.534   4.673
 3829SOL    HW111506   4.136   4.570   4.678
 3829SOL    HW211507   4.037   4.449   4.725
 3830SOL     OW11508   4.063   4.233   4.730
 3830SOL    HW111509   4.011   4.150   4.713
 3830SOL    HW211510   4.140   4.238   4.666
 3831SOL     OW11511   4.726   4.520   4.962
 3831SOL    HW111512   4.767   4.488   5.048
 3831SOL    HW211513   4.630   4.493   4.959
 3832SOL     OW11514   3.764   4.268   4.838
 3832SOL    HW111515   3.849   4.235   4.797
 3832SOL    HW211516   3.777   4.283   4.936
 3833SOL     OW11517   4.539   4.296   4.049
 3833SOL    HW111518   4.546   4.207   4.003
 3833SOL    HW211519   4.445   4.330   4.041
 3834SOL     OW11520   4.395   4.188   4.993
 3834SOL    HW111521   4.361   4.099   4.963
 3834SOL    HW211522   4.421   4.242   4.913
 3835SOL     OW11523   4.197   4.224   3.915
 3835SOL    HW111524   4.258   4.304   3.919
 3835SOL    HW211525   4.102   4.255   3.922
 3836SOL     OW11526   5.026   4.579   4.033
 3836SOL    HW111527   4.940   4.548   4.075
 3836SOL    HW211528   5.022   4.565   3.934
 3837SOL     OW11529   3.987   4.050   4.444
 3837SOL    HW111530   3.908   4.101   4.410
 3837SOL    HW211531   3.978   4.035   4.542
 3838SOL     OW11532   4.640   4.634   4.015
 3838SOL    HW111533   4.703   4.672   3.947
 3838SOL    HW211534   4.680   4.551   4.054
 3839SOL     OW11535   4.738   3.960   4.695
 3839SOL    HW111536   4.730   3.924   4.602
 3839SOL    HW211537   4.736   3.884   4.760
 3840SOL     OW11538   3.799   4.069   3.757
 3840SOL    HW111539   3.707   4.041   3.728
 3840SOL    HW211540   3.830   4.146   3.701
 3841SOL     OW11541   3.796   3.890   4.042
 3841SOL    HW111542   3.779   3.973   3.988
 3841SOL    HW211543   3.886   3.853   4.020
 3842SOL     OW11544   4.318   4.469   4.376
 3842SOL    HW111545   4.368   4.554   4.357
 3842SOL    HW211546   4.230   4.471   4.328
 3843SOL     OW11547   4.583   4.680   4.585
 3843SOL    HW111548   4.637   4.611   4.633
 3843SOL    HW211549   4.551   4.749   4.651
 3844SOL     OW11550   4.807   4.708   3.811
 3844SOL    HW111551   4.784   4.761   3.729
 3844SOL    HW211552   4.888   4.652   3.792
 3845SOL     OW11553   4.152   4.148   4.244
 3845SOL    HW111554   4.182   4.076   4.182
 3845SOL    HW211555   4.113   4.108   4.327
 3846SOL     OW11556   4.494   5.054   4.025
 3846SOL    HW111557   4.448   4.967   4.042
 3846SOL    HW211558   4.585   5.051   4.066
 3847SOL     OW11559   3.763   4.801   4.024
 3847SOL    HW111560   3.862   4.790   4.015
 3847SOL    HW211561   3.723   4.715   4.056
   4.90606   4.90606   4.90606
