mobley_6102880_GMX.gro created by acpype (v: 2023.10.27) on Wed May 20 23:57:56 2026
   23
    1MOL     C1    1   2.369   2.544   2.113
    1MOL     C2    2   2.624   2.287   2.726
    1MOL     C3    3   2.373   2.422   2.181
    1MOL     C4    4   2.361   2.664   2.184
    1MOL     C5    5   2.669   2.366   2.621
    1MOL     C6    6   2.491   2.291   2.766
    1MOL     C7    7   2.369   2.420   2.320
    1MOL     C8    8   2.357   2.662   2.324
    1MOL     C9    9   2.579   2.450   2.554
    1MOL    C10   10   2.401   2.375   2.699
    1MOL    C11   11   2.361   2.540   2.392
    1MOL    C12   12   2.446   2.455   2.593
    1MOL     O1   13   2.357   2.538   2.528
    1MOL     H1   14   2.372   2.546   2.004
    1MOL     H2   15   2.694   2.221   2.778
    1MOL     H3   16   2.379   2.329   2.125
    1MOL     H4   17   2.358   2.759   2.131
    1MOL     H5   18   2.773   2.362   2.590
    1MOL     H6   19   2.456   2.229   2.848
    1MOL     H7   20   2.371   2.325   2.373
    1MOL     H8   21   2.351   2.755   2.379
    1MOL     H9   22   2.615   2.512   2.472
    1MOL    H10   23   2.297   2.379   2.730
   4.90606   4.90606   4.90606
