; mobley_4715906_GMX_OPLS.top created by acpype (v: 2023.10.27) on Thu May 21 00:01:57 2026

; Include forcefield parameters
#include "ffoplsaa.itp"

; Include mobley_4715906_GMX.itp topology
#include "mobley_4715906_GMX.itp"

; Ligand position restraints
#ifdef POSRES_LIG
#include "posre_mobley_4715906.itp"
#endif

[ system ]
 mobley_4715906

[ molecules ]
; Compound        nmols
 mobley_4715906   1     
