cis_12_dimethylcyclohexane
    24
   0.7400000   0.0390000   0.8070000   0.2010000   0.8940000   1.9490000
   1.0620000  -1.3800000   1.2710000   1.1340000   0.8900000   3.1580000
   2.0170000  -1.4140000   2.4780000   1.4550000  -0.5380000   3.6250000
   3.4430000  -1.0420000   2.0540000   2.3660000  -0.5070000   4.8530000
   0.0040000   0.0030000  -0.0040000   1.6430000   0.5060000   0.3970000
   0.0530000   1.9230000   1.6010000  -0.7830000   0.5160000   2.2510000
   0.1260000  -1.8830000   1.5450000   1.4910000  -1.9500000   0.4380000
   2.0620000   1.4160000   2.9020000   0.6670000   1.4530000   3.9750000
   2.0640000  -2.4500000   2.8370000   0.5110000  -0.9950000   3.9520000
   3.7250000  -0.0690000   2.4670000   4.1580000  -1.7880000   2.4140000
   3.5190000  -0.9890000   0.9640000   3.2150000   0.1620000   4.6840000
   1.8170000  -0.1530000   5.7300000   2.7540000  -1.5080000   5.0690000
