%VERSION  VERSION_STAMP = V0001.000  DATE = 05/21/26  00:01:58                  
%FLAG TITLE                                                                     
%FORMAT(20a4)                                                                   
cis_12_dimethylcyclohexane                                                      
%FLAG POINTERS                                                                  
%FORMAT(10I8)                                                                   
      24       2      16       8      38      10      61      11       0       0
     143       1       8      10      11       4       7       3       3       0
       0       0       0       0       0       0       0       0      24       0
       0
%FLAG ATOM_NAME                                                                 
%FORMAT(20a4)                                                                   
C1  C2  C3  C4  C5  C6  C7  C8  H1  H2  H3  H4  H5  H6  H7  H8  H9  H10 H11 H12 
H13 H14 H15 H16 
%FLAG CHARGE                                                                    
%FORMAT(5E16.8)                                                                 
 -1.37396142E+00 -1.37396142E+00 -1.31929452E+00 -1.31929452E+00 -1.06964901E+00
 -1.06964901E+00 -1.61449578E+00 -1.61449578E+00  6.91536285E-01  6.91536285E-01
  6.91536285E-01  6.91536285E-01  7.00647435E-01  7.00647435E-01  7.00647435E-01
  7.00647435E-01  7.78092210E-01  7.78092210E-01  6.08023484E-01  6.08023484E-01
  6.08023484E-01  6.08023484E-01  6.08023484E-01  6.08023484E-01
%FLAG ATOMIC_NUMBER                                                             
%FORMAT(10I8)                                                                   
       6       6       6       6       6       6       6       6       1       1
       1       1       1       1       1       1       1       1       1       1
       1       1       1       1
%FLAG MASS                                                                      
%FORMAT(5E16.8)                                                                 
  1.20100000E+01  1.20100000E+01  1.20100000E+01  1.20100000E+01  1.20100000E+01
  1.20100000E+01  1.20100000E+01  1.20100000E+01  1.00800000E+00  1.00800000E+00
  1.00800000E+00  1.00800000E+00  1.00800000E+00  1.00800000E+00  1.00800000E+00
  1.00800000E+00  1.00800000E+00  1.00800000E+00  1.00800000E+00  1.00800000E+00
  1.00800000E+00  1.00800000E+00  1.00800000E+00  1.00800000E+00
%FLAG ATOM_TYPE_INDEX                                                           
%FORMAT(10I8)                                                                   
       1       1       1       1       1       1       1       1       2       2
       2       2       2       2       2       2       2       2       2       2
       2       2       2       2
%FLAG NUMBER_EXCLUDED_ATOMS                                                     
%FORMAT(10I8)                                                                   
      15      14      16      15      17      16       8       7       5       4
       3       2       2       1       2       1       4       3       2       1
       1       2       1       1
%FLAG NONBONDED_PARM_INDEX                                                      
%FORMAT(10I8)                                                                   
       1       2       2       3
%FLAG RESIDUE_LABEL                                                             
%FORMAT(20a4)                                                                   
MOL 
%FLAG RESIDUE_POINTER                                                           
%FORMAT(10I8)                                                                   
       1
%FLAG BOND_FORCE_CONSTANT                                                       
%FORMAT(5E16.8)                                                                 
  2.26810000E+02  3.42750000E+02  2.23800000E+02  3.45250000E+02
%FLAG BOND_EQUIL_VALUE                                                          
%FORMAT(5E16.8)                                                                 
  1.53840000E+00  1.09790000E+00  1.54280000E+00  1.09620000E+00
%FLAG ANGLE_FORCE_CONSTANT                                                      
%FORMAT(5E16.8)                                                                 
  6.01800000E+01  4.32300000E+01  5.99900000E+01  4.28900000E+01  4.35200000E+01
  3.59300000E+01  3.58000000E+01
%FLAG ANGLE_EQUIL_VALUE                                                         
%FORMAT(5E16.8)                                                                 
  1.93836350E+00  1.91026369E+00  1.94482122E+00  1.93085858E+00  1.87553162E+00
  1.86087085E+00  1.88024401E+00
%FLAG DIHEDRAL_FORCE_CONSTANT                                                   
%FORMAT(5E16.8)                                                                 
  5.20000000E-01  1.30000000E-01  1.20000000E-01
%FLAG DIHEDRAL_PERIODICITY                                                      
%FORMAT(5E16.8)                                                                 
  3.00000000E+00  3.00000000E+00  3.00000000E+00
%FLAG DIHEDRAL_PHASE                                                            
%FORMAT(5E16.8)                                                                 
  0.00000000E+00  0.00000000E+00  0.00000000E+00
%FLAG SCEE_SCALE_FACTOR                                                         
%FORMAT(5E16.8)                                                                 
  1.20000000E+00  1.20000000E+00  1.20000000E+00
%FLAG SCNB_SCALE_FACTOR                                                         
%FORMAT(5E16.8)                                                                 
  2.00000000E+00  2.00000000E+00  2.00000000E+00
%FLAG SOLTY                                                                     
%FORMAT(5E16.8)                                                                 
  0.00000000E+00  0.00000000E+00  0.00000000E+00
%FLAG LENNARD_JONES_ACOEF                                                       
%FORMAT(5E16.8)                                                                 
  1.02073671E+06  1.00235148E+05  7.94617769E+03
%FLAG LENNARD_JONES_BCOEF                                                       
%FORMAT(5E16.8)                                                                 
  6.63431737E+02  1.37787728E+02  2.57122925E+01
%FLAG BONDS_INC_HYDROGEN                                                        
%FORMAT(10I8)                                                                   
       0      24       2       0      27       2       3      30       2       3
      33       2       6      36       2       6      39       2       9      42
       2       9      45       2      12      48       2      15      51       2
      18      54       4      18      57       4      18      60       4      21
      63       4      21      66       4      21      69       4
%FLAG BONDS_WITHOUT_HYDROGEN                                                    
%FORMAT(10I8)                                                                   
       0       3       1       0       6       1       3       9       1       6
      12       1       9      15       1      12      15       1      12      18
       3      15      21       3
%FLAG ANGLES_INC_HYDROGEN                                                       
%FORMAT(10I8)                                                                   
       0       3      30       2       0       3      33       2       0       6
      36       2       0       6      39       2       3       0      24       2
       3       0      27       2       3       9      42       2       3       9
      45       2       6       0      24       2       6       0      27       2
       6      12      48       2       9       3      30       2       9       3
      33       2       9      15      51       2      12       6      36       2
      12       6      39       2      12      15      51       2      12      18
      54       4      12      18      57       4      12      18      60       4
      15       9      42       2      15       9      45       2      15      12
      48       2      15      21      63       4      15      21      66       4
      15      21      69       4      18      12      48       5      21      15
      51       5      24       0      27       6      30       3      33       6
      36       6      39       6      42       9      45       6      54      18
      57       7      54      18      60       7      57      18      60       7
      63      21      66       7      63      21      69       7      66      21
      69       7
%FLAG ANGLES_WITHOUT_HYDROGEN                                                   
%FORMAT(10I8)                                                                   
       0       3       9       1       0       6      12       1       3       0
       6       1       3       9      15       1       6      12      15       1
       6      12      18       3       9      15      12       1       9      15
      21       3      12      15      21       3      15      12      18       3
%FLAG DIHEDRALS_INC_HYDROGEN                                                    
%FORMAT(10I8)                                                                   
       0       3       9      42       2       0       3       9      45       2
       0       6      12      48       2       3       0       6      36       2
       3       0       6      39       2       3       9      15      51       2
       6       0       3      30       2       6       0       3      33       2
       6      12      15      51       2       6      12      18      54       2
       6      12      18      57       2       6      12      18      60       2
      24       0       3       9       2      27       0       3       9       2
       9      15      12      48       2       9      15      21      63       2
       9      15      21      66       2       9      15      21      69       2
      24       0       6      12       2      27       0       6      12       2
      12      15       9      42       2      12      15       9      45       2
      12      15      21      63       2      12      15      21      66       2
      12      15      21      69       2      15       9       3      30       2
      15       9       3      33       2      15      12       6      36       2
      15      12       6      39       2      15      12      18      54       2
      15      12      18      57       2      15      12      18      60       2
      18      12       6      36       2      18      12       6      39       2
      18      12      15      51       2      21      15       9      42       2
      21      15       9      45       2      21      15      12      48       2
      24       0       3      30       3      24       0       3      33       3
      24       0       6      36       3      24       0       6      39       3
      27       0       3      30       3      27       0       3      33       3
      27       0       6      36       3      27       0       6      39       3
      30       3       9      42       3      30       3       9      45       3
      33       3       9      42       3      33       3       9      45       3
      36       6      12      48       3      39       6      12      48       3
      42       9      15      51       3      45       9      15      51       3
      48      12      15      51       3      48      12      18      54       3
      48      12      18      57       3      48      12      18      60       3
      51      15      21      63       3      51      15      21      66       3
      51      15      21      69       3
%FLAG DIHEDRALS_WITHOUT_HYDROGEN                                                
%FORMAT(10I8)                                                                   
       0       3       9      15       1       0       6     -12      15       1
       0       6      12      18       1       3       0       6      12       1
       3       9     -15      12       1       3       9      15      21       1
       6       0       3       9       1       6      12     -15       9       1
       6      12      15      21       1       9      15      12      18       1
      18      12      15      21       1
%FLAG EXCLUDED_ATOMS_LIST                                                       
%FORMAT(10I8)                                                                   
       2       3       4       5       6       7       9      10      11      12
      13      14      15      16      17       3       4       5       6       8
       9      10      11      12      13      14      15      16      18       4
       5       6       7       8       9      10      11      12      13      14
      17      18      19      20      21       5       6       7       8       9
      10      11      12      15      16      17      18      22      23      24
       6       7       8       9      10      13      14      15      16      17
      18      19      20      21      22      23      24       7       8      11
      12      13      14      15      16      17      18      19      20      21
      22      23      24       8      13      14      17      18      19      20
      21      15      16      17      18      22      23      24      10      11
      12      13      14      11      12      13      14      12      15      16
      15      16      14      17      17      16      18      18      18      19
      20      21      22      23      24      20      21      21       0      23
      24      24       0
%FLAG HBOND_ACOEF                                                               
%FORMAT(5E16.8)                                                                 

%FLAG HBOND_BCOEF                                                               
%FORMAT(5E16.8)                                                                 

%FLAG HBCUT                                                                     
%FORMAT(5E16.8)                                                                 

%FLAG AMBER_ATOM_TYPE                                                           
%FORMAT(20a4)                                                                   
c6  c6  c6  c6  c6  c6  c3  c3  hc  hc  hc  hc  hc  hc  hc  hc  hc  hc  hc  hc  
hc  hc  hc  hc  
%FLAG TREE_CHAIN_CLASSIFICATION                                                 
%FORMAT(20a4)                                                                   
BLA BLA BLA BLA BLA BLA BLA BLA BLA BLA BLA BLA BLA BLA BLA BLA BLA BLA BLA BLA 
BLA BLA BLA BLA 
%FLAG JOIN_ARRAY                                                                
%FORMAT(10I8)                                                                   
       0       0       0       0       0       0       0       0       0       0
       0       0       0       0       0       0       0       0       0       0
       0       0       0       0
%FLAG IROTAT                                                                    
%FORMAT(10I8)                                                                   
       0       0       0       0       0       0       0       0       0       0
       0       0       0       0       0       0       0       0       0       0
       0       0       0       0
%FLAG RADIUS_SET                                                                
%FORMAT(1a80)                                                                   
modified Bondi radii (mbondi)                                                   
%FLAG RADII                                                                     
%FORMAT(5E16.8)                                                                 
  1.70000000E+00  1.70000000E+00  1.70000000E+00  1.70000000E+00  1.70000000E+00
  1.70000000E+00  1.70000000E+00  1.70000000E+00  1.30000000E+00  1.30000000E+00
  1.30000000E+00  1.30000000E+00  1.30000000E+00  1.30000000E+00  1.30000000E+00
  1.30000000E+00  1.30000000E+00  1.30000000E+00  1.30000000E+00  1.30000000E+00
  1.30000000E+00  1.30000000E+00  1.30000000E+00  1.30000000E+00
%FLAG SCREEN                                                                    
%FORMAT(5E16.8)                                                                 
  7.20000000E-01  7.20000000E-01  7.20000000E-01  7.20000000E-01  7.20000000E-01
  7.20000000E-01  7.20000000E-01  7.20000000E-01  8.50000000E-01  8.50000000E-01
  8.50000000E-01  8.50000000E-01  8.50000000E-01  8.50000000E-01  8.50000000E-01
  8.50000000E-01  8.50000000E-01  8.50000000E-01  8.50000000E-01  8.50000000E-01
  8.50000000E-01  8.50000000E-01  8.50000000E-01  8.50000000E-01
%FLAG IPOL                                                                      
%FORMAT(1I8)                                                                    
       0
