; mobley_6743808_GMX_OPLS.top created by acpype (v: 2023.10.27) on Wed May 20 23:43:51 2026

; Include forcefield parameters
#include "ffoplsaa.itp"

; Include mobley_6743808_GMX.itp topology
#include "mobley_6743808_GMX.itp"

; Ligand position restraints
#ifdef POSRES_LIG
#include "posre_mobley_6743808.itp"
#endif

[ system ]
 mobley_6743808

[ molecules ]
; Compound        nmols
 mobley_6743808   1     
