34_dimethylphenol
    19
   0.8320000  -0.3950000   0.5750000   0.8350000  -0.2830000   1.9660000
   2.9710000  -1.4090000   2.0520000   1.8990000  -1.0140000  -0.0770000
   2.9680000  -1.5200000   0.6620000   1.9040000  -0.7900000   2.7040000
   1.8740000  -1.1210000  -1.5660000   4.1200000  -2.1880000  -0.0140000
   1.9070000  -0.6790000   4.0610000  -0.0050000   0.0030000   0.0090000
   0.0010000   0.2010000   2.4670000   3.8030000  -1.8030000   2.6310000
   2.0530000  -2.1580000  -1.8750000   0.9070000  -0.7980000  -1.9710000
   2.6410000  -0.4840000  -2.0230000   4.8840000  -2.4650000   0.7220000
   3.8000000  -3.0940000  -0.5430000   4.5780000  -1.5280000  -0.7620000
   1.2270000  -0.0330000   4.3250000
