mobley_6743808_GMX.gro created by acpype (v: 2023.10.27) on Wed May 20 23:43:51 2026
 19
    1  MOL   C1    1   0.083  -0.040   0.057
    1  MOL   C2    2   0.084  -0.028   0.197
    1  MOL   C3    3   0.297  -0.141   0.205
    1  MOL   C4    4   0.190  -0.101  -0.008
    1  MOL   C5    5   0.297  -0.152   0.066
    1  MOL   C6    6   0.190  -0.079   0.270
    1  MOL   C7    7   0.187  -0.112  -0.157
    1  MOL   C8    8   0.412  -0.219  -0.001
    1  MOL   O1    9   0.191  -0.068   0.406
    1  MOL   H1   10  -0.001   0.000   0.001
    1  MOL   H2   11   0.000   0.020   0.247
    1  MOL   H3   12   0.380  -0.180   0.263
    1  MOL   H4   13   0.205  -0.216  -0.188
    1  MOL   H5   14   0.091  -0.080  -0.197
    1  MOL   H6   15   0.264  -0.048  -0.202
    1  MOL   H7   16   0.488  -0.246   0.072
    1  MOL   H8   17   0.380  -0.309  -0.054
    1  MOL   H9   18   0.458  -0.153  -0.076
    1  MOL  H10   19   0.123  -0.003   0.433
    9.77800     6.59000    12.69600
