mobley_4039055_GMX.gro created by acpype (v: 2023.10.27) on Wed May 20 23:53:30 2026
 9492
    1MOL     C1    1   2.351   2.420   2.305
    1MOL     C2    2   2.254   2.387   2.390
    1MOL     C3    3   2.195   2.250   2.381
    1MOL     C4    4   2.351   2.206   2.193
    1MOL     N1    5   2.399   2.335   2.210
    1MOL     N2    6   2.249   2.170   2.282
    1MOL     O1    7   2.105   2.212   2.456
    1MOL     O2    8   2.395   2.129   2.107
    1MOL    BR1    9   2.189   2.504   2.520
    1MOL     H1   10   2.398   2.518   2.306
    1MOL     H2   11   2.473   2.367   2.148
    1MOL     H3   12   2.212   2.076   2.273
    2SOL     OW   13   0.230   0.628   0.113
    2SOL    HW1   14   0.137   0.626   0.150
    2SOL    HW2   15   0.231   0.589   0.021
    3SOL     OW   16   0.225   0.275   0.996
    3SOL    HW1   17   0.260   0.258   1.088
    3SOL    HW2   18   0.137   0.230   0.984
    4SOL     OW   19   0.019   0.368   0.647
    4SOL    HW1   20  -0.063   0.411   0.686
    4SOL    HW2   21  -0.009   0.295   0.584
    5SOL     OW   22   0.569   1.275   1.165
    5SOL    HW1   23   0.476   1.268   1.128
    5SOL    HW2   24   0.580   1.364   1.209
    6SOL     OW   25   1.555   1.511   0.703
    6SOL    HW1   26   1.498   1.495   0.784
    6SOL    HW2   27   1.496   1.521   0.623
    7SOL     OW   28   1.135   0.703   0.717
    7SOL    HW1   29   1.192   0.781   0.692
    7SOL    HW2   30   1.075   0.729   0.793
    8SOL     OW   31   1.755   0.607   0.231
    8SOL    HW1   32   1.743   0.594   0.132
    8SOL    HW2   33   1.725   0.526   0.280
    9SOL     OW   34   0.768   1.144   1.023
    9SOL    HW1   35   0.690   1.161   1.083
    9SOL    HW2   36   0.802   1.231   0.987
   10SOL     OW   37   0.850   0.798   1.823
   10SOL    HW1   38   0.846   0.874   1.888
   10SOL    HW2   39   0.872   0.834   1.732
   11SOL     OW   40   0.685   1.012   0.665
   11SOL    HW1   41   0.754   0.996   0.735
   11SOL    HW2   42   0.612   1.069   0.703
   12SOL     OW   43   0.686   1.161   1.803
   12SOL    HW1   44   0.746   1.240   1.817
   12SOL    HW2   45   0.600   1.192   1.762
   13SOL     OW   46   0.335   1.435   1.061
   13SOL    HW1   47   0.257   1.404   1.008
   13SOL    HW2   48   0.393   1.493   1.004
   14SOL     OW   49   1.460   1.505   1.339
   14SOL    HW1   50   1.484   1.599   1.365
   14SOL    HW2   51   1.444   1.451   1.421
   15SOL     OW   52   0.438   0.392   1.499
   15SOL    HW1   53   0.520   0.336   1.508
   15SOL    HW2   54   0.357   0.334   1.503
   16SOL     OW   55   1.603   0.447   0.737
   16SOL    HW1   56   1.529   0.493   0.687
   16SOL    HW2   57   1.654   0.515   0.790
   17SOL     OW   58   0.231   1.713   0.483
   17SOL    HW1   59   0.265   1.790   0.537
   17SOL    HW2   60   0.275   1.713   0.393
   18SOL     OW   61   1.127   1.341   1.690
   18SOL    HW1   62   1.174   1.341   1.778
   18SOL    HW2   63   1.079   1.254   1.679
   19SOL     OW   64   0.230   1.434   0.538
   19SOL    HW1   65   0.204   1.530   0.538
   19SOL    HW2   66   0.159   1.380   0.583
   20SOL     OW   67   0.240   1.091   0.886
   20SOL    HW1   68   0.254   1.007   0.938
   20SOL    HW2   69   0.185   1.155   0.941
   21SOL     OW   70   0.620   1.786   1.439
   21SOL    HW1   71   0.528   1.769   1.474
   21SOL    HW2   72   0.648   1.878   1.465
   22SOL     OW   73   0.606   0.964   0.123
   22SOL    HW1   74   0.613   1.048   0.069
   22SOL    HW2   75   0.652   0.977   0.211
   23SOL     OW   76   1.594   0.114   1.480
   23SOL    HW1   77   1.576   0.181   1.408
   23SOL    HW2   78   1.591   0.160   1.569
   24SOL     OW   79   0.122   0.643   0.563
   24SOL    HW1   80   0.077   0.555   0.580
   24SOL    HW2   81   0.121   0.697   0.647
   25SOL     OW   82   1.842   1.767   0.359
   25SOL    HW1   83   1.896   1.738   0.439
   25SOL    HW2   84   1.872   1.857   0.330
   26SOL     OW   85   0.027   1.596   0.117
   26SOL    HW1   86   0.008   1.500   0.138
   26SOL    HW2   87  -0.006   1.654   0.192
   27SOL     OW   88   1.689   0.922   0.612
   27SOL    HW1   89   1.784   0.893   0.620
   27SOL    HW2   90   1.681   0.987   0.537
   28SOL     OW   91   1.641   1.108   0.432
   28SOL    HW1   92   1.727   1.110   0.380
   28SOL    HW2   93   1.655   1.155   0.520
   29SOL     OW   94   0.113   0.737   1.597
   29SOL    HW1   95   0.201   0.724   1.642
   29SOL    HW2   96   0.100   0.834   1.575
   30SOL     OW   97   0.613   1.365   0.726
   30SOL    HW1   98   0.564   1.278   0.735
   30SOL    HW2   99   0.590   1.408   0.639
   31SOL     OW  100   1.293   1.228   1.423
   31SOL    HW1  101   1.330   1.155   1.365
   31SOL    HW2  102   1.345   1.233   1.508
   32SOL     OW  103   0.809   0.004   0.502
   32SOL    HW1  104   0.849   0.095   0.493
   32SOL    HW2  105   0.709   0.012   0.508
   33SOL     OW  106   0.197   0.976   1.264
   33SOL    HW1  107   0.286   0.931   1.250
   33SOL    HW2  108   0.124   0.911   1.245
   34SOL     OW  109   1.525   0.999   0.190
   34SOL    HW1  110   1.462   0.923   0.203
   34SOL    HW2  111   1.573   1.017   0.276
   35SOL     OW  112   1.187   1.792   1.616
   35SOL    HW1  113   1.211   1.852   1.540
   35SOL    HW2  114   1.194   1.697   1.586
   36SOL     OW  115   0.317   0.251   1.801
   36SOL    HW1  116   0.388   0.322   1.807
   36SOL    HW2  117   0.229   0.290   1.829
   37SOL     OW  118   1.466   1.417   0.953
   37SOL    HW1  119   1.407   1.423   1.033
   37SOL    HW2  120   1.451   1.329   0.907
   38SOL     OW  121   1.667   1.714   0.572
   38SOL    HW1  122   1.626   1.691   0.484
   38SOL    HW2  123   1.649   1.640   0.637
   39SOL     OW  124   0.598   0.729   0.270
   39SOL    HW1  125   0.622   0.798   0.202
   39SOL    HW2  126   0.520   0.762   0.324
   40SOL     OW  127   1.281   0.345   0.944
   40SOL    HW1  128   1.195   0.295   0.931
   40SOL    HW2  129   1.343   0.291   1.000
   41SOL     OW  130   1.576   1.662   0.307
   41SOL    HW1  131   1.665   1.708   0.310
   41SOL    HW2  132   1.555   1.638   0.212
   42SOL     OW  133   0.807   0.605   1.465
   42SOL    HW1  134   0.760   0.602   1.554
   42SOL    HW2  135   0.756   0.550   1.399
   43SOL     OW  136   1.394   0.469   1.674
   43SOL    HW1  137   1.374   0.512   1.762
   43SOL    HW2  138   1.472   0.407   1.683
   44SOL     OW  139   0.973   0.890   1.572
   44SOL    HW1  140   1.019   0.806   1.543
   44SOL    HW2  141   0.917   0.924   1.497
   45SOL     OW  142   0.991   0.410   1.242
   45SOL    HW1  143   0.914   0.444   1.296
   45SOL    HW2  144   0.957   0.359   1.163
   46SOL     OW  145   1.041   0.701   0.429
   46SOL    HW1  146   1.067   0.697   0.525
   46SOL    HW2  147   0.956   0.650   0.415
   47SOL     OW  148   0.076   0.811   0.789
   47SOL    HW1  149   0.175   0.799   0.798
   47SOL    HW2  150   0.052   0.906   0.810
   48SOL     OW  151   0.130   1.821   1.571
   48SOL    HW1  152   0.120   1.806   1.670
   48SOL    HW2  153   0.044   1.857   1.535
   49SOL     OW  154   0.865   0.348   0.195
   49SOL    HW1  155   0.924   0.411   0.146
   49SOL    HW2  156   0.884   0.254   0.166
   50SOL     OW  157   1.719   0.585   1.831
   50SOL    HW1  158   1.693   0.674   1.795
   50SOL    HW2  159   1.717   0.517   1.758
   51SOL     OW  160   1.362   1.144   0.545
   51SOL    HW1  161   1.445   1.115   0.497
   51SOL    HW2  162   1.313   1.211   0.489
   52SOL     OW  163   0.550   0.196   0.885
   52SOL    HW1  164   0.545   0.191   0.985
   52SOL    HW2  165   0.552   0.292   0.856
   53SOL     OW  166   1.008   1.456   0.477
   53SOL    HW1  167   0.962   1.528   0.425
   53SOL    HW2  168   1.004   1.476   0.575
   54SOL     OW  169   0.351   1.801   0.853
   54SOL    HW1  170   0.401   1.715   0.859
   54SOL    HW2  171   0.416   1.878   0.850
   55SOL     OW  172   1.795   1.066   0.873
   55SOL    HW1  173   1.733   1.051   0.797
   55SOL    HW2  174   1.743   1.077   0.958
   56SOL     OW  175   1.227   1.550   1.506
   56SOL    HW1  176   1.233   1.473   1.570
   56SOL    HW2  177   1.175   1.524   1.426
   57SOL     OW  178   0.321   0.943   0.242
   57SOL    HW1  179   0.403   0.982   0.200
   57SOL    HW2  180   0.294   0.861   0.193
   58SOL     OW  181   1.458   0.735   0.728
   58SOL    HW1  182   1.453   0.670   0.803
   58SOL    HW2  183   1.538   0.794   0.741
   59SOL     OW  184   0.461   1.266   1.727
   59SOL    HW1  185   0.411   1.267   1.641
   59SOL    HW2  186   0.398   1.248   1.803
   60SOL     OW  187   1.111   1.776   0.237
   60SOL    HW1  188   1.051   1.714   0.287
   60SOL    HW2  189   1.142   1.732   0.152
   61SOL     OW  190   0.202   0.285   1.498
   61SOL    HW1  191   0.122   0.345   1.485
   61SOL    HW2  192   0.192   0.236   1.584
   62SOL     OW  193   1.632   1.377   0.081
   62SOL    HW1  194   1.600   1.471   0.071
   62SOL    HW2  195   1.556   1.314   0.069
   63SOL     OW  196   0.464   1.743   0.323
   63SOL    HW1  197   0.497   1.782   0.409
   63SOL    HW2  198   0.540   1.736   0.258
   64SOL     OW  199   1.400   0.107   0.426
   64SOL    HW1  200   1.376   0.070   0.336
   64SOL    HW2  201   1.499   0.123   0.430
   65SOL     OW  202   0.249   1.785   1.241
   65SOL    HW1  203   0.306   1.720   1.291
   65SOL    HW2  204   0.233   1.752   1.148
   66SOL     OW  205   0.940   1.698   0.904
   66SOL    HW1  206   1.020   1.641   0.925
   66SOL    HW2  207   0.891   1.658   0.827
   67SOL     OW  208   0.382   0.700   0.480
   67SOL    HW1  209   0.427   0.610   0.477
   67SOL    HW2  210   0.288   0.689   0.513
   68SOL     OW  211   1.547   0.222   1.729
   68SOL    HW1  212   1.542   0.259   1.821
   68SOL    HW2  213   1.475   0.153   1.717
   69SOL     OW  214   0.614   0.122   0.117
   69SOL    HW1  215   0.712   0.100   0.124
   69SOL    HW2  216   0.583   0.105   0.024
   70SOL     OW  217   0.781   0.264   1.749
   70SOL    HW1  218   0.848   0.203   1.792
   70SOL    HW2  219   0.708   0.283   1.814
   71SOL     OW  220   0.888   1.514   1.195
   71SOL    HW1  221   0.865   1.489   1.101
   71SOL    HW2  222   0.949   1.445   1.234
   72SOL     OW  223   1.351   0.590   1.433
   72SOL    HW1  224   1.379   0.547   1.518
   72SOL    HW2  225   1.376   0.686   1.434
   73SOL     OW  226   0.803   1.402   0.924
   73SOL    HW1  227   0.893   1.416   0.882
   73SOL    HW2  228   0.732   1.404   0.853
   74SOL     OW  229   0.922   0.503   0.899
   74SOL    HW1  230   0.897   0.494   0.803
   74SOL    HW2  231   0.970   0.421   0.930
   75SOL     OW  232   0.539   0.064   0.512
   75SOL    HW1  233   0.458   0.065   0.570
   75SOL    HW2  234   0.542   0.147   0.457
   76SOL     OW  235   1.434   1.188   0.041
   76SOL    HW1  236   1.466   1.112   0.098
   76SOL    HW2  237   1.342   1.215   0.071
   77SOL     OW  238   0.297   0.035   0.171
   77SOL    HW1  239   0.346   0.119   0.150
   77SOL    HW2  240   0.359  -0.030   0.216
   78SOL     OW  241   0.935   0.236   0.480
   78SOL    HW1  242   0.887   0.277   0.402
   78SOL    HW2  243   1.034   0.234   0.461
   79SOL     OW  244   1.076   0.683   1.464
   79SOL    HW1  245   0.996   0.622   1.467
   79SOL    HW2  246   1.157   0.630   1.440
   80SOL     OW  247   1.227   1.570   0.793
   80SOL    HW1  248   1.248   1.644   0.728
   80SOL    HW2  249   1.295   1.570   0.866
   81SOL     OW  250   0.459   1.152   0.741
   81SOL    HW1  251   0.388   1.125   0.806
   81SOL    HW2  252   0.433   1.124   0.648
   82SOL     OW  253   1.271   1.797   0.591
   82SOL    HW1  254   1.315   1.861   0.527
   82SOL    HW2  255   1.221   1.849   0.661
   83SOL     OW  256   1.032   0.549   0.016
   83SOL    HW1  257   0.991   0.631  -0.023
   83SOL    HW2  258   1.096   0.575   0.089
   84SOL     OW  259   0.078   0.556   1.386
   84SOL    HW1  260   0.170   0.555   1.345
   84SOL    HW2  261   0.072   0.630   1.453
   85SOL     OW  262   0.561   0.222   1.147
   85SOL    HW1  263   0.599   0.138   1.184
   85SOL    HW2  264   0.473   0.241   1.191
   86SOL     OW  265   0.866   0.454   0.642
   86SOL    HW1  266   0.834   0.526   0.580
   86SOL    HW2  267   0.890   0.373   0.589
   87SOL     OW  268   1.017   0.039   0.753
   87SOL    HW1  269   0.945   0.044   0.684
   87SOL    HW2  270   0.993  -0.030   0.822
   88SOL     OW  271   1.429   1.173   0.867
   88SOL    HW1  272   1.374   1.089   0.860
   88SOL    HW2  273   1.455   1.202   0.775
   89SOL     OW  274   1.466   0.590   0.992
   89SOL    HW1  275   1.436   0.495   0.999
   89SOL    HW2  276   1.539   0.606   1.058
   90SOL     OW  277   1.857   0.833   0.377
   90SOL    HW1  278   1.899   0.769   0.441
   90SOL    HW2  279   1.819   0.782   0.299
   91SOL     OW  280   0.488   1.385   0.174
   91SOL    HW1  281   0.401   1.370   0.221
   91SOL    HW2  282   0.471   1.411   0.079
   92SOL     OW  283   1.664   1.280   0.657
   92SOL    HW1  284   1.763   1.288   0.671
   92SOL    HW2  285   1.619   1.364   0.688
   93SOL     OW  286   1.390   0.575   0.078
   93SOL    HW1  287   1.336   0.554   0.159
   93SOL    HW2  288   1.481   0.534   0.087
   94SOL     OW  289   0.527   0.256   0.328
   94SOL    HW1  290   0.554   0.197   0.253
   94SOL    HW2  291   0.527   0.351   0.297
   95SOL     OW  292   1.754   1.223   1.588
   95SOL    HW1  293   1.845   1.184   1.575
   95SOL    HW2  294   1.762   1.319   1.612
   96SOL     OW  295   1.064   1.347   1.340
   96SOL    HW1  296   0.984   1.324   1.395
   96SOL    HW2  297   1.147   1.321   1.389
   97SOL     OW  298   1.592   1.629   1.625
   97SOL    HW1  299   1.619   1.663   1.535
   97SOL    HW2  300   1.671   1.591   1.671
   98SOL     OW  301   1.111   1.195   1.100
   98SOL    HW1  302   1.071   1.239   1.181
   98SOL    HW2  303   1.070   1.232   1.017
   99SOL     OW  304   1.638   1.099   1.079
   99SOL    HW1  305   1.643   1.180   1.138
   99SOL    HW2  306   1.552   1.101   1.028
  100SOL     OW  307   0.915   0.089   1.402
  100SOL    HW1  308   0.940   0.069   1.307
  100SOL    HW2  309   0.987   0.145   1.444
  101SOL     OW  310   0.980   1.116   1.719
  101SOL    HW1  311   0.881   1.122   1.729
  101SOL    HW2  312   1.003   1.036   1.663
  102SOL     OW  313   0.705   1.050   0.368
  102SOL    HW1  314   0.691   1.057   0.467
  102SOL    HW2  315   0.789   0.999   0.350
  103SOL     OW  316   0.410   0.813   1.251
  103SOL    HW1  317   0.496   0.825   1.301
  103SOL    HW2  318   0.368   0.726   1.278
  104SOL     OW  319   1.274   0.386   1.262
  104SOL    HW1  320   1.295   0.460   1.326
  104SOL    HW2  321   1.185   0.403   1.219
  105SOL     OW  322   0.064   1.564   1.331
  105SOL    HW1  323   0.018   1.646   1.297
  105SOL    HW2  324   0.162   1.583   1.340
  106SOL     OW  325   0.367   1.100   0.501
  106SOL    HW1  326   0.360   1.183   0.445
  106SOL    HW2  327   0.371   1.020   0.441
  107SOL     OW  328   0.566   0.537   0.865
  107SOL    HW1  329   0.578   0.603   0.791
  107SOL    HW2  330   0.612   0.571   0.948
  108SOL     OW  331   1.252   1.348   0.388
  108SOL    HW1  332   1.302   1.425   0.428
  108SOL    HW2  333   1.157   1.350   0.420
  109SOL     OW  334   1.272   1.445   1.142
  109SOL    HW1  335   1.319   1.458   1.229
  109SOL    HW2  336   1.206   1.371   1.151
  110SOL     OW  337   1.582   0.639   0.472
  110SOL    HW1  338   1.551   0.700   0.545
  110SOL    HW2  339   1.632   0.691   0.403
  111SOL     OW  340   0.354   1.510   1.329
  111SOL    HW1  341   0.333   1.466   1.242
  111SOL    HW2  342   0.451   1.536   1.332
  112SOL     OW  343   0.402   0.751   1.598
  112SOL    HW1  344   0.470   0.806   1.551
  112SOL    HW2  345   0.442   0.663   1.625
  113SOL     OW  346   1.587   0.779   1.670
  113SOL    HW1  347   1.495   0.817   1.665
  113SOL    HW2  348   1.647   0.826   1.605
  114SOL     OW  349   1.013   0.105   1.770
  114SOL    HW1  350   1.019   0.190   1.718
  114SOL    HW2  351   1.045   0.029   1.713
  115SOL     OW  352   0.504   0.050   1.740
  115SOL    HW1  353   0.462  -0.007   1.670
  115SOL    HW2  354   0.438   0.119   1.772
  116SOL     OW  355   0.573   0.870   1.029
  116SOL    HW1  356   0.617   0.959   1.020
  116SOL    HW2  357   0.510   0.870   1.106
  117SOL     OW  358   1.360   0.862   1.045
  117SOL    HW1  359   1.285   0.862   0.979
  117SOL    HW2  360   1.397   0.770   1.054
  118SOL     OW  361   1.209   0.525   0.275
  118SOL    HW1  362   1.222   0.441   0.329
  118SOL    HW2  363   1.180   0.599   0.335
  119SOL     OW  364   0.307   0.213   1.231
  119SOL    HW1  365   0.284   0.250   1.321
  119SOL    HW2  366   0.277   0.118   1.225
  120SOL     OW  367   0.037   1.310   1.282
  120SOL    HW1  368   0.090   1.261   1.350
  120SOL    HW2  369   0.059   1.408   1.287
  121SOL     OW  370   0.732   0.634   1.064
  121SOL    HW1  371   0.791   0.608   0.988
  121SOL    HW2  372   0.704   0.730   1.053
  122SOL     OW  373   1.728   0.935   1.854
  122SOL    HW1  374   1.682   0.928   1.765
  122SOL    HW2  375   1.666   0.979   1.920
  123SOL     OW  376   0.307   0.063   0.618
  123SOL    HW1  377   0.296   0.157   0.651
  123SOL    HW2  378   0.302   0.000   0.695
  124SOL     OW  379   1.622   0.367   0.374
  124SOL    HW1  380   1.624   0.291   0.438
  124SOL    HW2  381   1.574   0.444   0.414
  125SOL     OW  382   1.023   0.766   0.966
  125SOL    HW1  383   1.038   0.787   1.062
  125SOL    HW2  384   0.993   0.671   0.957
  126SOL     OW  385   0.980   1.573   1.700
  126SOL    HW1  386   0.960   1.617   1.612
  126SOL    HW2  387   1.019   1.482   1.684
  127SOL     OW  388   1.859   1.518   1.605
  127SOL    HW1  389   1.873   1.545   1.510
  127SOL    HW2  390   1.942   1.540   1.658
  128SOL     OW  391   0.350   0.898   1.804
  128SOL    HW1  392   0.426   0.942   1.852
  128SOL    HW2  393   0.385   0.851   1.722
  129SOL     OW  394   1.540   0.274   0.125
  129SOL    HW1  395   1.479   0.199   0.148
  129SOL    HW2  396   1.562   0.326   0.208
  130SOL     OW  397   1.303   0.838   0.042
  130SOL    HW1  398   1.337   0.745   0.057
  130SOL    HW2  399   1.321   0.865  -0.053
  131SOL     OW  400   1.068   1.333   0.849
  131SOL    HW1  401   1.075   1.249   0.794
  131SOL    HW2  402   1.130   1.402   0.813
  132SOL     OW  403   0.319   0.810   0.949
  132SOL    HW1  404   0.412   0.846   0.954
  132SOL    HW2  405   0.313   0.725   1.001
  133SOL     OW  406   0.339   0.509   1.006
  133SOL    HW1  407   0.287   0.426   0.989
  133SOL    HW2  408   0.416   0.514   0.942
  134SOL     OW  409   1.138   0.380   1.678
  134SOL    HW1  410   1.093   0.443   1.742
  134SOL    HW2  411   1.231   0.411   1.661
  135SOL     OW  412   1.160   0.207   1.477
  135SOL    HW1  413   1.160   0.271   1.554
  135SOL    HW2  414   1.188   0.255   1.394
  136SOL     OW  415   0.008   1.326   0.200
  136SOL    HW1  416  -0.085   1.347   0.169
  136SOL    HW2  417   0.018   1.227   0.213
  137SOL     OW  418   0.088   1.801   0.927
  137SOL    HW1  419   0.046   1.715   0.900
  137SOL    HW2  420   0.182   1.804   0.893
  138SOL     OW  421   0.504   1.568   0.910
  138SOL    HW1  422   0.570   1.642   0.919
  138SOL    HW2  423   0.548   1.489   0.868
  139SOL     OW  424   1.002   0.796   1.238
  139SOL    HW1  425   1.043   0.764   1.324
  139SOL    HW2  426   0.906   0.769   1.235
  140SOL     OW  427   0.040   0.544   1.114
  140SOL    HW1  428   0.125   0.511   1.073
  140SOL    HW2  429   0.053   0.559   1.212
  141SOL     OW  430   0.189   0.520   1.722
  141SOL    HW1  431   0.248   0.480   1.652
  141SOL    HW2  432   0.131   0.591   1.681
  142SOL     OW  433   1.369   0.950   1.660
  142SOL    HW1  434   1.408   1.039   1.680
  142SOL    HW2  435   1.379   0.930   1.563
  143SOL     OW  436   0.815   0.572   0.325
  143SOL    HW1  437   0.822   0.483   0.279
  143SOL    HW2  438   0.721   0.606   0.317
  144SOL     OW  439   1.657   0.604   1.206
  144SOL    HW1  440   1.619   0.535   1.268
  144SOL    HW2  441   1.739   0.568   1.162
  145SOL     OW  442   0.252   1.564   1.744
  145SOL    HW1  443   0.222   1.621   1.820
  145SOL    HW2  444   0.245   1.467   1.770
  146SOL     OW  445   0.671   0.464   1.269
  146SOL    HW1  446   0.637   0.375   1.239
  146SOL    HW2  447   0.697   0.518   1.189
  147SOL     OW  448   0.930   1.678   1.465
  147SOL    HW1  449   0.906   1.660   1.370
  147SOL    HW2  450   0.960   1.772   1.475
  148SOL     OW  451   0.473   0.500   0.191
  148SOL    HW1  452   0.534   0.580   0.195
  148SOL    HW2  453   0.378   0.531   0.198
  149SOL     OW  454   0.159   1.137   1.466
  149SOL    HW1  455   0.181   1.076   1.542
  149SOL    HW2  456   0.169   1.088   1.380
  150SOL     OW  457   1.347   1.059   1.234
  150SOL    HW1  458   1.371   0.996   1.160
  150SOL    HW2  459   1.257   1.099   1.216
  151SOL     OW  460   1.302   0.855   0.309
  151SOL    HW1  461   1.216   0.824   0.351
  151SOL    HW2  462   1.298   0.841   0.210
  152SOL     OW  463   1.759   1.747   1.154
  152SOL    HW1  464   1.820   1.777   1.081
  152SOL    HW2  465   1.721   1.658   1.132
  153SOL     OW  466   1.252   1.731   1.128
  153SOL    HW1  467   1.336   1.736   1.074
  153SOL    HW2  468   1.229   1.635   1.146
  154SOL     OW  469   0.083   1.258   1.022
  154SOL    HW1  470   0.078   1.257   1.122
  154SOL    HW2  471   0.000   1.217   0.984
  155SOL     OW  472   0.688   1.662   1.716
  155SOL    HW1  473   0.632   1.743   1.725
  155SOL    HW2  474   0.740   1.666   1.630
  156SOL     OW  475   0.903   0.086   0.133
  156SOL    HW1  476   0.954   0.087   0.047
  156SOL    HW2  477   0.959   0.044   0.204
  157SOL     OW  478   1.726   0.135   0.523
  157SOL    HW1  479   1.799   0.118   0.456
  157SOL    HW2  480   1.695   0.048   0.561
  158SOL     OW  481   1.388   1.573   0.477
  158SOL    HW1  482   1.455   1.585   0.403
  158SOL    HW2  483   1.348   1.662   0.500
  159SOL     OW  484   0.130   1.794   1.851
  159SOL    HW1  485   0.089   1.720   1.904
  159SOL    HW2  486   0.194   1.845   1.909
  160SOL     OW  487   1.280   0.927   0.672
  160SOL    HW1  488   1.340   0.846   0.674
  160SOL    HW2  489   1.320   0.996   0.612
  161SOL     OW  490   0.830   1.273   1.422
  161SOL    HW1  491   0.825   1.306   1.517
  161SOL    HW2  492   0.744   1.292   1.376
  162SOL     OW  493   0.672   1.616   0.154
  162SOL    HW1  494   0.681   1.626   0.055
  162SOL    HW2  495   0.632   1.527   0.175
  163SOL     OW  496   1.650   1.720   1.394
  163SOL    HW1  497   1.703   1.730   1.310
  163SOL    HW2  498   1.623   1.810   1.428
  164SOL     OW  499   1.841   0.175   0.963
  164SOL    HW1  500   1.880   0.090   0.927
  164SOL    HW2  501   1.743   0.177   0.944
  165SOL     OW  502   0.263   0.326   0.720
  165SOL    HW1  503   0.184   0.377   0.686
  165SOL    HW2  504   0.254   0.311   0.818
  166SOL     OW  505   1.194   1.612   0.031
  166SOL    HW1  506   1.200   1.519   0.068
  166SOL    HW2  507   1.135   1.612  -0.049
  167SOL     OW  508   0.822   1.002   1.372
  167SOL    HW1  509   0.862   1.001   1.280
  167SOL    HW2  510   0.832   1.094   1.412
  168SOL     OW  511   0.916   0.910   0.291
  168SOL    HW1  512   0.979   0.948   0.223
  168SOL    HW2  513   0.956   0.827   0.330
  169SOL     OW  514   1.504   1.607   0.044
  169SOL    HW1  515   1.412   1.644   0.051
  169SOL    HW2  516   1.542   1.627  -0.046
  170SOL     OW  517   0.372   1.288   1.490
  170SOL    HW1  518   0.359   1.381   1.456
  170SOL    HW2  519   0.288   1.236   1.477
  171SOL     OW  520   1.614   1.292   1.289
  171SOL    HW1  521   1.674   1.295   1.369
  171SOL    HW2  522   1.539   1.356   1.302
  172SOL     OW  523   1.039   1.098   0.696
  172SOL    HW1  524   0.969   1.051   0.750
  172SOL    HW2  525   1.098   1.030   0.653
  173SOL     OW  526   1.014   0.236   0.971
  173SOL    HW1  527   1.006   0.200   0.878
  173SOL    HW2  528   1.012   0.160   1.036
  174SOL     OW  529   0.590   1.487   0.491
  174SOL    HW1  530   0.632   1.429   0.421
  174SOL    HW2  531   0.546   1.566   0.447
  175SOL     OW  532   1.709   0.385   1.381
  175SOL    HW1  533   1.782   0.454   1.385
  175SOL    HW2  534   1.737   0.310   1.322
  176SOL     OW  535   0.255   1.348   0.290
  176SOL    HW1  536   0.159   1.349   0.263
  176SOL    HW2  537   0.267   1.401   0.374
  177SOL     OW  538   0.105   1.013   1.726
  177SOL    HW1  539   0.028   0.980   1.780
  177SOL    HW2  540   0.190   0.983   1.768
  178SOL     OW  541   0.672   0.203   1.489
  178SOL    HW1  542   0.762   0.187   1.449
  178SOL    HW2  543   0.680   0.208   1.588
  179SOL     OW  544   0.075   0.345   0.033
  179SOL    HW1  545  -0.017   0.317   0.004
  179SOL    HW2  546   0.106   0.422  -0.023
  180SOL     OW  547   1.440   0.856   1.398
  180SOL    HW1  548   1.383   0.908   1.335
  180SOL    HW2  549   1.536   0.868   1.374
  181SOL     OW  550   0.072   0.166   0.318
  181SOL    HW1  551   0.055   0.249   0.264
  181SOL    HW2  552   0.162   0.129   0.296
  182SOL     OW  553   1.183   1.335   0.119
  182SOL    HW1  554   1.084   1.324   0.121
  182SOL    HW2  555   1.217   1.350   0.212
  183SOL     OW  556   0.613   0.842   1.431
  183SOL    HW1  557   0.669   0.923   1.414
  183SOL    HW2  558   0.672   0.762   1.434
  184SOL     OW  559   1.493   1.767   0.959
  184SOL    HW1  560   1.526   1.831   0.890
  184SOL    HW2  561   1.559   1.761   1.034
  185SOL     OW  562   0.716   0.565   1.708
  185SOL    HW1  563   0.735   0.630   1.782
  185SOL    HW2  564   0.776   0.485   1.717
  186SOL     OW  565   1.450   1.220   1.633
  186SOL    HW1  566   1.441   1.210   1.732
  186SOL    HW2  567   1.546   1.213   1.607
  187SOL     OW  568   0.390   1.741   1.560
  187SOL    HW1  569   0.299   1.782   1.558
  187SOL    HW2  570   0.383   1.647   1.592
  188SOL     OW  571   1.674   0.883   1.254
  188SOL    HW1  572   1.647   0.794   1.217
  188SOL    HW2  573   1.675   0.951   1.181
  189SOL     OW  574   1.225   0.325   0.449
  189SOL    HW1  575   1.290   0.251   0.438
  189SOL    HW2  576   1.245   0.375   0.533
  190SOL     OW  577   0.594   0.745   0.652
  190SOL    HW1  578   0.644   0.830   0.633
  190SOL    HW2  579   0.506   0.747   0.604
  191SOL     OW  580   1.777   0.342   1.642
  191SOL    HW1  581   1.760   0.373   1.548
  191SOL    HW2  582   1.693   0.305   1.680
  192SOL     OW  583   1.730   0.934   1.517
  192SOL    HW1  584   1.768   1.025   1.532
  192SOL    HW2  585   1.722   0.917   1.418
  193SOL     OW  586   0.859   1.374   0.016
  193SOL    HW1  587   0.813   1.389   0.104
  193SOL    HW2  588   0.903   1.459  -0.014
  194SOL     OW  589   0.661   1.790   0.953
  194SOL    HW1  590   0.615   1.878   0.940
  194SOL    HW2  591   0.760   1.802   0.946
  195SOL     OW  592   0.859   0.956   0.861
  195SOL    HW1  593   0.913   0.887   0.909
  195SOL    HW2  594   0.827   1.025   0.927
  196SOL     OW  595   1.083   0.984   0.087
  196SOL    HW1  596   1.060   1.037   0.005
  196SOL    HW2  597   1.164   0.928   0.068
  197SOL     OW  598   1.861   1.569   0.851
  197SOL    HW1  599   1.790   1.557   0.781
  197SOL    HW2  600   1.862   1.490   0.911
  198SOL     OW  601   0.221   1.314   1.844
  198SOL    HW1  602   0.156   1.241   1.823
  198SOL    HW2  603   0.225   1.328   1.942
  199SOL     OW  604   0.079   1.240   0.653
  199SOL    HW1  605   0.078   1.193   0.741
  199SOL    HW2  606   0.161   1.212   0.602
  200SOL     OW  607   0.672   1.391   1.624
  200SOL    HW1  608   0.594   1.341   1.662
  200SOL    HW2  609   0.669   1.486   1.655
  201SOL     OW  610   1.824   0.192   1.227
  201SOL    HW1  611   1.820   0.102   1.271
  201SOL    HW2  612   1.827   0.181   1.128
  202SOL     OW  613   0.428   0.424   0.520
  202SOL    HW1  614   0.458   0.352   0.458
  202SOL    HW2  615   0.389   0.384   0.603
  203SOL     OW  616   1.705   1.487   1.104
  203SOL    HW1  617   1.612   1.462   1.077
  203SOL    HW2  618   1.731   1.437   1.186
  204SOL     OW  619   0.317   0.547   1.280
  204SOL    HW1  620   0.355   0.488   1.352
  204SOL    HW2  621   0.357   0.521   1.192
  205SOL     OW  622   0.812   1.586   0.687
  205SOL    HW1  623   0.844   1.596   0.593
  205SOL    HW2  624   0.733   1.524   0.689
  206SOL     OW  625   1.424   0.214   1.112
  206SOL    HW1  626   1.476   0.149   1.167
  206SOL    HW2  627   1.375   0.277   1.173
  207SOL     OW  628   1.001   0.034   1.154
  207SOL    HW1  629   0.938  -0.038   1.123
  207SOL    HW2  630   1.094  -0.002   1.154
  208SOL     OW  631   0.770   1.330   0.301
  208SOL    HW1  632   0.724   1.243   0.318
  208SOL    HW2  633   0.861   1.327   0.342
  209SOL     OW  634   0.618   1.567   1.284
  209SOL    HW1  635   0.613   1.649   1.341
  209SOL    HW2  636   0.707   1.564   1.239
  210SOL     OW  637   1.352   0.052   0.168
  210SOL    HW1  638   1.387   0.011   0.084
  210SOL    HW2  639   1.262   0.014   0.188
  211SOL     OW  640   1.300   0.453   0.691
  211SOL    HW1  641   1.241   0.533   0.695
  211SOL    HW2  642   1.315   0.418   0.784
  212SOL     OW  643   1.593   0.221   0.882
  212SOL    HW1  644   1.509   0.220   0.936
  212SOL    HW2  645   1.595   0.304   0.826
  213SOL     OW  646   0.039   1.077   0.300
  213SOL    HW1  647   0.138   1.066   0.291
  213SOL    HW2  648  -0.001   0.991   0.332
  214SOL     OW  649   0.875   1.646   0.337
  214SOL    HW1  650   0.798   1.611   0.283
  214SOL    HW2  651   0.843   1.717   0.399
  215SOL     OW  652   0.230   0.628   1.975
  215SOL    HW1  653   0.137   0.626   2.012
  215SOL    HW2  654   0.231   0.589   1.883
  216SOL     OW  655   0.225   0.275   2.858
  216SOL    HW1  656   0.260   0.258   2.950
  216SOL    HW2  657   0.137   0.230   2.846
  217SOL     OW  658   0.019   0.368   2.509
  217SOL    HW1  659  -0.063   0.411   2.548
  217SOL    HW2  660  -0.009   0.295   2.446
  218SOL     OW  661   0.569   1.275   3.027
  218SOL    HW1  662   0.476   1.268   2.990
  218SOL    HW2  663   0.580   1.364   3.071
  219SOL     OW  664   1.555   1.511   2.565
  219SOL    HW1  665   1.498   1.495   2.646
  219SOL    HW2  666   1.496   1.521   2.485
  220SOL     OW  667   1.135   0.703   2.579
  220SOL    HW1  668   1.192   0.781   2.554
  220SOL    HW2  669   1.075   0.729   2.655
  221SOL     OW  670   1.755   0.607   2.093
  221SOL    HW1  671   1.743   0.594   1.994
  221SOL    HW2  672   1.725   0.526   2.142
  222SOL     OW  673   0.768   1.144   2.885
  222SOL    HW1  674   0.690   1.161   2.945
  222SOL    HW2  675   0.802   1.231   2.849
  223SOL     OW  676   0.850   0.798   3.685
  223SOL    HW1  677   0.846   0.874   3.750
  223SOL    HW2  678   0.872   0.834   3.594
  224SOL     OW  679   0.685   1.012   2.527
  224SOL    HW1  680   0.754   0.996   2.597
  224SOL    HW2  681   0.612   1.069   2.565
  225SOL     OW  682   0.686   1.161   3.665
  225SOL    HW1  683   0.746   1.240   3.679
  225SOL    HW2  684   0.600   1.192   3.624
  226SOL     OW  685   0.335   1.435   2.923
  226SOL    HW1  686   0.257   1.404   2.870
  226SOL    HW2  687   0.393   1.493   2.866
  227SOL     OW  688   1.460   1.505   3.201
  227SOL    HW1  689   1.484   1.599   3.227
  227SOL    HW2  690   1.444   1.451   3.283
  228SOL     OW  691   0.438   0.392   3.361
  228SOL    HW1  692   0.520   0.336   3.370
  228SOL    HW2  693   0.357   0.334   3.365
  229SOL     OW  694   1.603   0.447   2.599
  229SOL    HW1  695   1.529   0.493   2.549
  229SOL    HW2  696   1.654   0.515   2.652
  230SOL     OW  697   0.231   1.713   2.345
  230SOL    HW1  698   0.265   1.790   2.399
  230SOL    HW2  699   0.275   1.713   2.255
  231SOL     OW  700   1.127   1.341   3.552
  231SOL    HW1  701   1.174   1.341   3.640
  231SOL    HW2  702   1.079   1.254   3.541
  232SOL     OW  703   0.230   1.434   2.400
  232SOL    HW1  704   0.204   1.530   2.400
  232SOL    HW2  705   0.159   1.380   2.445
  233SOL     OW  706   0.240   1.091   2.748
  233SOL    HW1  707   0.254   1.007   2.800
  233SOL    HW2  708   0.185   1.155   2.803
  234SOL     OW  709   0.620   1.786   3.301
  234SOL    HW1  710   0.528   1.769   3.336
  234SOL    HW2  711   0.648   1.878   3.327
  235SOL     OW  712   0.606   0.964   1.985
  235SOL    HW1  713   0.613   1.048   1.931
  235SOL    HW2  714   0.652   0.977   2.073
  236SOL     OW  715   1.594   0.114   3.342
  236SOL    HW1  716   1.576   0.181   3.270
  236SOL    HW2  717   1.591   0.160   3.431
  237SOL     OW  718   0.122   0.643   2.425
  237SOL    HW1  719   0.077   0.555   2.442
  237SOL    HW2  720   0.121   0.697   2.509
  238SOL     OW  721   1.842   1.767   2.221
  238SOL    HW1  722   1.896   1.738   2.301
  238SOL    HW2  723   1.872   1.857   2.192
  239SOL     OW  724   0.027   1.596   1.979
  239SOL    HW1  725   0.008   1.500   2.000
  239SOL    HW2  726  -0.006   1.654   2.054
  240SOL     OW  727   1.689   0.922   2.474
  240SOL    HW1  728   1.784   0.893   2.482
  240SOL    HW2  729   1.681   0.987   2.399
  241SOL     OW  730   1.641   1.108   2.294
  241SOL    HW1  731   1.727   1.110   2.242
  241SOL    HW2  732   1.655   1.155   2.382
  242SOL     OW  733   0.113   0.737   3.459
  242SOL    HW1  734   0.201   0.724   3.504
  242SOL    HW2  735   0.100   0.834   3.437
  243SOL     OW  736   0.613   1.365   2.588
  243SOL    HW1  737   0.564   1.278   2.597
  243SOL    HW2  738   0.590   1.408   2.501
  244SOL     OW  739   1.293   1.228   3.285
  244SOL    HW1  740   1.330   1.155   3.227
  244SOL    HW2  741   1.345   1.233   3.370
  245SOL     OW  742   0.809   0.004   2.364
  245SOL    HW1  743   0.849   0.095   2.355
  245SOL    HW2  744   0.709   0.012   2.370
  246SOL     OW  745   0.197   0.976   3.126
  246SOL    HW1  746   0.286   0.931   3.112
  246SOL    HW2  747   0.124   0.911   3.107
  247SOL     OW  748   1.525   0.999   2.052
  247SOL    HW1  749   1.462   0.923   2.065
  247SOL    HW2  750   1.573   1.017   2.138
  248SOL     OW  751   1.187   1.792   3.478
  248SOL    HW1  752   1.211   1.852   3.402
  248SOL    HW2  753   1.194   1.697   3.448
  249SOL     OW  754   0.317   0.251   3.663
  249SOL    HW1  755   0.388   0.322   3.669
  249SOL    HW2  756   0.229   0.290   3.691
  250SOL     OW  757   1.466   1.417   2.815
  250SOL    HW1  758   1.407   1.423   2.895
  250SOL    HW2  759   1.451   1.329   2.769
  251SOL     OW  760   1.667   1.714   2.434
  251SOL    HW1  761   1.626   1.691   2.346
  251SOL    HW2  762   1.649   1.640   2.499
  252SOL     OW  763   0.598   0.729   2.132
  252SOL    HW1  764   0.622   0.798   2.064
  252SOL    HW2  765   0.520   0.762   2.186
  253SOL     OW  766   1.281   0.345   2.806
  253SOL    HW1  767   1.195   0.295   2.793
  253SOL    HW2  768   1.343   0.291   2.862
  254SOL     OW  769   1.576   1.662   2.169
  254SOL    HW1  770   1.665   1.708   2.172
  254SOL    HW2  771   1.555   1.638   2.074
  255SOL     OW  772   0.807   0.605   3.327
  255SOL    HW1  773   0.760   0.602   3.416
  255SOL    HW2  774   0.756   0.550   3.261
  256SOL     OW  775   1.394   0.469   3.536
  256SOL    HW1  776   1.374   0.512   3.624
  256SOL    HW2  777   1.472   0.407   3.545
  257SOL     OW  778   0.973   0.890   3.434
  257SOL    HW1  779   1.019   0.806   3.405
  257SOL    HW2  780   0.917   0.924   3.359
  258SOL     OW  781   0.991   0.410   3.104
  258SOL    HW1  782   0.914   0.444   3.158
  258SOL    HW2  783   0.957   0.359   3.025
  259SOL     OW  784   1.041   0.701   2.291
  259SOL    HW1  785   1.067   0.697   2.387
  259SOL    HW2  786   0.956   0.650   2.277
  260SOL     OW  787   0.076   0.811   2.651
  260SOL    HW1  788   0.175   0.799   2.660
  260SOL    HW2  789   0.052   0.906   2.672
  261SOL     OW  790   0.130   1.821   3.433
  261SOL    HW1  791   0.120   1.806   3.532
  261SOL    HW2  792   0.044   1.857   3.397
  262SOL     OW  793   0.865   0.348   2.057
  262SOL    HW1  794   0.924   0.411   2.008
  262SOL    HW2  795   0.884   0.254   2.028
  263SOL     OW  796   1.719   0.585   3.693
  263SOL    HW1  797   1.693   0.674   3.657
  263SOL    HW2  798   1.717   0.517   3.620
  264SOL     OW  799   1.362   1.144   2.407
  264SOL    HW1  800   1.445   1.115   2.359
  264SOL    HW2  801   1.313   1.211   2.351
  265SOL     OW  802   0.550   0.196   2.747
  265SOL    HW1  803   0.545   0.191   2.847
  265SOL    HW2  804   0.552   0.292   2.718
  266SOL     OW  805   1.008   1.456   2.339
  266SOL    HW1  806   0.962   1.528   2.287
  266SOL    HW2  807   1.004   1.476   2.437
  267SOL     OW  808   0.351   1.801   2.715
  267SOL    HW1  809   0.401   1.715   2.721
  267SOL    HW2  810   0.416   1.878   2.712
  268SOL     OW  811   1.795   1.066   2.735
  268SOL    HW1  812   1.733   1.051   2.659
  268SOL    HW2  813   1.743   1.077   2.820
  269SOL     OW  814   1.227   1.550   3.368
  269SOL    HW1  815   1.233   1.473   3.432
  269SOL    HW2  816   1.175   1.524   3.288
  270SOL     OW  817   0.321   0.943   2.104
  270SOL    HW1  818   0.403   0.982   2.062
  270SOL    HW2  819   0.294   0.861   2.055
  271SOL     OW  820   1.458   0.735   2.590
  271SOL    HW1  821   1.453   0.670   2.665
  271SOL    HW2  822   1.538   0.794   2.603
  272SOL     OW  823   0.461   1.266   3.589
  272SOL    HW1  824   0.411   1.267   3.503
  272SOL    HW2  825   0.398   1.248   3.665
  273SOL     OW  826   1.111   1.776   2.099
  273SOL    HW1  827   1.051   1.714   2.149
  273SOL    HW2  828   1.142   1.732   2.014
  274SOL     OW  829   0.202   0.285   3.360
  274SOL    HW1  830   0.122   0.345   3.347
  274SOL    HW2  831   0.192   0.236   3.446
  275SOL     OW  832   1.632   1.377   1.943
  275SOL    HW1  833   1.600   1.471   1.933
  275SOL    HW2  834   1.556   1.314   1.931
  276SOL     OW  835   0.464   1.743   2.185
  276SOL    HW1  836   0.497   1.782   2.271
  276SOL    HW2  837   0.540   1.736   2.120
  277SOL     OW  838   1.400   0.107   2.288
  277SOL    HW1  839   1.376   0.070   2.198
  277SOL    HW2  840   1.499   0.123   2.292
  278SOL     OW  841   0.249   1.785   3.103
  278SOL    HW1  842   0.306   1.720   3.153
  278SOL    HW2  843   0.233   1.752   3.010
  279SOL     OW  844   0.940   1.698   2.766
  279SOL    HW1  845   1.020   1.641   2.787
  279SOL    HW2  846   0.891   1.658   2.689
  280SOL     OW  847   0.382   0.700   2.342
  280SOL    HW1  848   0.427   0.610   2.339
  280SOL    HW2  849   0.288   0.689   2.375
  281SOL     OW  850   1.547   0.222   3.591
  281SOL    HW1  851   1.542   0.259   3.683
  281SOL    HW2  852   1.475   0.153   3.579
  282SOL     OW  853   0.614   0.122   1.979
  282SOL    HW1  854   0.712   0.100   1.986
  282SOL    HW2  855   0.583   0.105   1.886
  283SOL     OW  856   0.781   0.264   3.611
  283SOL    HW1  857   0.848   0.203   3.654
  283SOL    HW2  858   0.708   0.283   3.676
  284SOL     OW  859   0.888   1.514   3.057
  284SOL    HW1  860   0.865   1.489   2.963
  284SOL    HW2  861   0.949   1.445   3.096
  285SOL     OW  862   1.351   0.590   3.295
  285SOL    HW1  863   1.379   0.547   3.380
  285SOL    HW2  864   1.376   0.686   3.296
  286SOL     OW  865   0.803   1.402   2.786
  286SOL    HW1  866   0.893   1.416   2.744
  286SOL    HW2  867   0.732   1.404   2.715
  287SOL     OW  868   0.922   0.503   2.761
  287SOL    HW1  869   0.897   0.494   2.665
  287SOL    HW2  870   0.970   0.421   2.792
  288SOL     OW  871   0.539   0.064   2.374
  288SOL    HW1  872   0.458   0.065   2.432
  288SOL    HW2  873   0.542   0.147   2.319
  289SOL     OW  874   1.434   1.188   1.903
  289SOL    HW1  875   1.466   1.112   1.960
  289SOL    HW2  876   1.342   1.215   1.933
  290SOL     OW  877   0.297   0.035   2.033
  290SOL    HW1  878   0.346   0.119   2.012
  290SOL    HW2  879   0.359  -0.030   2.078
  291SOL     OW  880   0.935   0.236   2.342
  291SOL    HW1  881   0.887   0.277   2.264
  291SOL    HW2  882   1.034   0.234   2.323
  292SOL     OW  883   1.076   0.683   3.326
  292SOL    HW1  884   0.996   0.622   3.329
  292SOL    HW2  885   1.157   0.630   3.302
  293SOL     OW  886   1.227   1.570   2.655
  293SOL    HW1  887   1.248   1.644   2.590
  293SOL    HW2  888   1.295   1.570   2.728
  294SOL     OW  889   0.459   1.152   2.603
  294SOL    HW1  890   0.388   1.125   2.668
  294SOL    HW2  891   0.433   1.124   2.510
  295SOL     OW  892   1.271   1.797   2.453
  295SOL    HW1  893   1.315   1.861   2.389
  295SOL    HW2  894   1.221   1.849   2.523
  296SOL     OW  895   1.032   0.549   1.878
  296SOL    HW1  896   0.991   0.631   1.839
  296SOL    HW2  897   1.096   0.575   1.951
  297SOL     OW  898   0.078   0.556   3.248
  297SOL    HW1  899   0.170   0.555   3.207
  297SOL    HW2  900   0.072   0.630   3.315
  298SOL     OW  901   0.561   0.222   3.009
  298SOL    HW1  902   0.599   0.138   3.046
  298SOL    HW2  903   0.473   0.241   3.053
  299SOL     OW  904   0.866   0.454   2.504
  299SOL    HW1  905   0.834   0.526   2.442
  299SOL    HW2  906   0.890   0.373   2.451
  300SOL     OW  907   1.017   0.039   2.615
  300SOL    HW1  908   0.945   0.044   2.546
  300SOL    HW2  909   0.993  -0.030   2.684
  301SOL     OW  910   1.429   1.173   2.729
  301SOL    HW1  911   1.374   1.089   2.722
  301SOL    HW2  912   1.455   1.202   2.637
  302SOL     OW  913   1.466   0.590   2.854
  302SOL    HW1  914   1.436   0.495   2.861
  302SOL    HW2  915   1.539   0.606   2.920
  303SOL     OW  916   1.857   0.833   2.239
  303SOL    HW1  917   1.899   0.769   2.303
  303SOL    HW2  918   1.819   0.782   2.161
  304SOL     OW  919   0.488   1.385   2.036
  304SOL    HW1  920   0.401   1.370   2.083
  304SOL    HW2  921   0.471   1.411   1.941
  305SOL     OW  922   1.664   1.280   2.519
  305SOL    HW1  923   1.763   1.288   2.533
  305SOL    HW2  924   1.619   1.364   2.550
  306SOL     OW  925   1.390   0.575   1.940
  306SOL    HW1  926   1.336   0.554   2.021
  306SOL    HW2  927   1.481   0.534   1.949
  307SOL     OW  928   0.527   0.256   2.190
  307SOL    HW1  929   0.554   0.197   2.115
  307SOL    HW2  930   0.527   0.351   2.159
  308SOL     OW  931   1.754   1.223   3.450
  308SOL    HW1  932   1.845   1.184   3.437
  308SOL    HW2  933   1.762   1.319   3.474
  309SOL     OW  934   1.064   1.347   3.202
  309SOL    HW1  935   0.984   1.324   3.257
  309SOL    HW2  936   1.147   1.321   3.251
  310SOL     OW  937   1.592   1.629   3.487
  310SOL    HW1  938   1.619   1.663   3.397
  310SOL    HW2  939   1.671   1.591   3.533
  311SOL     OW  940   1.111   1.195   2.962
  311SOL    HW1  941   1.071   1.239   3.043
  311SOL    HW2  942   1.070   1.232   2.879
  312SOL     OW  943   1.638   1.099   2.941
  312SOL    HW1  944   1.643   1.180   3.000
  312SOL    HW2  945   1.552   1.101   2.890
  313SOL     OW  946   0.915   0.089   3.264
  313SOL    HW1  947   0.940   0.069   3.169
  313SOL    HW2  948   0.987   0.145   3.306
  314SOL     OW  949   0.980   1.116   3.581
  314SOL    HW1  950   0.881   1.122   3.591
  314SOL    HW2  951   1.003   1.036   3.525
  315SOL     OW  952   0.705   1.050   2.230
  315SOL    HW1  953   0.691   1.057   2.329
  315SOL    HW2  954   0.789   0.999   2.212
  316SOL     OW  955   0.410   0.813   3.113
  316SOL    HW1  956   0.496   0.825   3.163
  316SOL    HW2  957   0.368   0.726   3.140
  317SOL     OW  958   1.274   0.386   3.124
  317SOL    HW1  959   1.295   0.460   3.188
  317SOL    HW2  960   1.185   0.403   3.081
  318SOL     OW  961   0.064   1.564   3.193
  318SOL    HW1  962   0.018   1.646   3.159
  318SOL    HW2  963   0.162   1.583   3.202
  319SOL     OW  964   0.367   1.100   2.363
  319SOL    HW1  965   0.360   1.183   2.307
  319SOL    HW2  966   0.371   1.020   2.303
  320SOL     OW  967   0.566   0.537   2.727
  320SOL    HW1  968   0.578   0.603   2.653
  320SOL    HW2  969   0.612   0.571   2.810
  321SOL     OW  970   1.252   1.348   2.250
  321SOL    HW1  971   1.302   1.425   2.290
  321SOL    HW2  972   1.157   1.350   2.282
  322SOL     OW  973   1.272   1.445   3.004
  322SOL    HW1  974   1.319   1.458   3.091
  322SOL    HW2  975   1.206   1.371   3.013
  323SOL     OW  976   1.582   0.639   2.334
  323SOL    HW1  977   1.551   0.700   2.407
  323SOL    HW2  978   1.632   0.691   2.265
  324SOL     OW  979   0.354   1.510   3.191
  324SOL    HW1  980   0.333   1.466   3.104
  324SOL    HW2  981   0.451   1.536   3.194
  325SOL     OW  982   0.402   0.751   3.460
  325SOL    HW1  983   0.470   0.806   3.413
  325SOL    HW2  984   0.442   0.663   3.487
  326SOL     OW  985   1.587   0.779   3.532
  326SOL    HW1  986   1.495   0.817   3.527
  326SOL    HW2  987   1.647   0.826   3.467
  327SOL     OW  988   1.013   0.105   3.632
  327SOL    HW1  989   1.019   0.190   3.580
  327SOL    HW2  990   1.045   0.029   3.575
  328SOL     OW  991   0.504   0.050   3.602
  328SOL    HW1  992   0.462  -0.007   3.532
  328SOL    HW2  993   0.438   0.119   3.634
  329SOL     OW  994   0.573   0.870   2.891
  329SOL    HW1  995   0.617   0.959   2.882
  329SOL    HW2  996   0.510   0.870   2.968
  330SOL     OW  997   1.360   0.862   2.907
  330SOL    HW1  998   1.285   0.862   2.841
  330SOL    HW2  999   1.397   0.770   2.916
  331SOL     OW 1000   1.209   0.525   2.137
  331SOL    HW1 1001   1.222   0.441   2.191
  331SOL    HW2 1002   1.180   0.599   2.197
  332SOL     OW 1003   0.307   0.213   3.093
  332SOL    HW1 1004   0.284   0.250   3.183
  332SOL    HW2 1005   0.277   0.118   3.087
  333SOL     OW 1006   0.037   1.310   3.144
  333SOL    HW1 1007   0.090   1.261   3.212
  333SOL    HW2 1008   0.059   1.408   3.149
  334SOL     OW 1009   0.732   0.634   2.926
  334SOL    HW1 1010   0.791   0.608   2.850
  334SOL    HW2 1011   0.704   0.730   2.915
  335SOL     OW 1012   1.728   0.935   3.716
  335SOL    HW1 1013   1.682   0.928   3.627
  335SOL    HW2 1014   1.666   0.979   3.782
  336SOL     OW 1015   0.307   0.063   2.480
  336SOL    HW1 1016   0.296   0.157   2.513
  336SOL    HW2 1017   0.302   0.000   2.557
  337SOL     OW 1018   1.622   0.367   2.236
  337SOL    HW1 1019   1.624   0.291   2.300
  337SOL    HW2 1020   1.574   0.444   2.276
  338SOL     OW 1021   1.023   0.766   2.828
  338SOL    HW1 1022   1.038   0.787   2.924
  338SOL    HW2 1023   0.993   0.671   2.819
  339SOL     OW 1024   0.980   1.573   3.562
  339SOL    HW1 1025   0.960   1.617   3.474
  339SOL    HW2 1026   1.019   1.482   3.546
  340SOL     OW 1027   1.859   1.518   3.467
  340SOL    HW1 1028   1.873   1.545   3.372
  340SOL    HW2 1029   1.942   1.540   3.520
  341SOL     OW 1030   0.350   0.898   3.666
  341SOL    HW1 1031   0.426   0.942   3.714
  341SOL    HW2 1032   0.385   0.851   3.584
  342SOL     OW 1033   1.540   0.274   1.987
  342SOL    HW1 1034   1.479   0.199   2.010
  342SOL    HW2 1035   1.562   0.326   2.070
  343SOL     OW 1036   1.303   0.838   1.904
  343SOL    HW1 1037   1.337   0.745   1.919
  343SOL    HW2 1038   1.321   0.865   1.809
  344SOL     OW 1039   1.068   1.333   2.711
  344SOL    HW1 1040   1.075   1.249   2.656
  344SOL    HW2 1041   1.130   1.402   2.675
  345SOL     OW 1042   0.319   0.810   2.811
  345SOL    HW1 1043   0.412   0.846   2.816
  345SOL    HW2 1044   0.313   0.725   2.863
  346SOL     OW 1045   0.339   0.509   2.868
  346SOL    HW1 1046   0.287   0.426   2.851
  346SOL    HW2 1047   0.416   0.514   2.804
  347SOL     OW 1048   1.138   0.380   3.540
  347SOL    HW1 1049   1.093   0.443   3.604
  347SOL    HW2 1050   1.231   0.411   3.523
  348SOL     OW 1051   1.160   0.207   3.339
  348SOL    HW1 1052   1.160   0.271   3.416
  348SOL    HW2 1053   1.188   0.255   3.256
  349SOL     OW 1054   0.008   1.326   2.062
  349SOL    HW1 1055  -0.085   1.347   2.031
  349SOL    HW2 1056   0.018   1.227   2.075
  350SOL     OW 1057   0.088   1.801   2.789
  350SOL    HW1 1058   0.046   1.715   2.762
  350SOL    HW2 1059   0.182   1.804   2.755
  351SOL     OW 1060   0.504   1.568   2.772
  351SOL    HW1 1061   0.570   1.642   2.781
  351SOL    HW2 1062   0.548   1.489   2.730
  352SOL     OW 1063   1.002   0.796   3.100
  352SOL    HW1 1064   1.043   0.764   3.186
  352SOL    HW2 1065   0.906   0.769   3.097
  353SOL     OW 1066   0.040   0.544   2.976
  353SOL    HW1 1067   0.125   0.511   2.935
  353SOL    HW2 1068   0.053   0.559   3.074
  354SOL     OW 1069   0.189   0.520   3.584
  354SOL    HW1 1070   0.248   0.480   3.514
  354SOL    HW2 1071   0.131   0.591   3.543
  355SOL     OW 1072   1.369   0.950   3.522
  355SOL    HW1 1073   1.408   1.039   3.542
  355SOL    HW2 1074   1.379   0.930   3.425
  356SOL     OW 1075   0.815   0.572   2.187
  356SOL    HW1 1076   0.822   0.483   2.141
  356SOL    HW2 1077   0.721   0.606   2.179
  357SOL     OW 1078   1.657   0.604   3.068
  357SOL    HW1 1079   1.619   0.535   3.130
  357SOL    HW2 1080   1.739   0.568   3.024
  358SOL     OW 1081   0.252   1.564   3.606
  358SOL    HW1 1082   0.222   1.621   3.682
  358SOL    HW2 1083   0.245   1.467   3.632
  359SOL     OW 1084   0.671   0.464   3.131
  359SOL    HW1 1085   0.637   0.375   3.101
  359SOL    HW2 1086   0.697   0.518   3.051
  360SOL     OW 1087   0.930   1.678   3.327
  360SOL    HW1 1088   0.906   1.660   3.232
  360SOL    HW2 1089   0.960   1.772   3.337
  361SOL     OW 1090   0.473   0.500   2.053
  361SOL    HW1 1091   0.534   0.580   2.057
  361SOL    HW2 1092   0.378   0.531   2.060
  362SOL     OW 1093   0.159   1.137   3.328
  362SOL    HW1 1094   0.181   1.076   3.404
  362SOL    HW2 1095   0.169   1.088   3.242
  363SOL     OW 1096   1.347   1.059   3.096
  363SOL    HW1 1097   1.371   0.996   3.022
  363SOL    HW2 1098   1.257   1.099   3.078
  364SOL     OW 1099   1.302   0.855   2.171
  364SOL    HW1 1100   1.216   0.824   2.213
  364SOL    HW2 1101   1.298   0.841   2.072
  365SOL     OW 1102   1.759   1.747   3.016
  365SOL    HW1 1103   1.820   1.777   2.943
  365SOL    HW2 1104   1.721   1.658   2.994
  366SOL     OW 1105   1.252   1.731   2.990
  366SOL    HW1 1106   1.336   1.736   2.936
  366SOL    HW2 1107   1.229   1.635   3.008
  367SOL     OW 1108   0.083   1.258   2.884
  367SOL    HW1 1109   0.078   1.257   2.984
  367SOL    HW2 1110   0.000   1.217   2.846
  368SOL     OW 1111   0.688   1.662   3.578
  368SOL    HW1 1112   0.632   1.743   3.587
  368SOL    HW2 1113   0.740   1.666   3.492
  369SOL     OW 1114   1.726   0.135   2.385
  369SOL    HW1 1115   1.799   0.118   2.318
  369SOL    HW2 1116   1.695   0.048   2.423
  370SOL     OW 1117   1.388   1.573   2.339
  370SOL    HW1 1118   1.455   1.585   2.265
  370SOL    HW2 1119   1.348   1.662   2.362
  371SOL     OW 1120   0.130   1.794   3.713
  371SOL    HW1 1121   0.089   1.720   3.766
  371SOL    HW2 1122   0.194   1.845   3.771
  372SOL     OW 1123   1.280   0.927   2.534
  372SOL    HW1 1124   1.340   0.846   2.536
  372SOL    HW2 1125   1.320   0.996   2.474
  373SOL     OW 1126   0.830   1.273   3.284
  373SOL    HW1 1127   0.825   1.306   3.379
  373SOL    HW2 1128   0.744   1.292   3.238
  374SOL     OW 1129   0.672   1.616   2.016
  374SOL    HW1 1130   0.681   1.626   1.917
  374SOL    HW2 1131   0.632   1.527   2.037
  375SOL     OW 1132   1.650   1.720   3.256
  375SOL    HW1 1133   1.703   1.730   3.172
  375SOL    HW2 1134   1.623   1.810   3.290
  376SOL     OW 1135   1.841   0.175   2.825
  376SOL    HW1 1136   1.880   0.090   2.789
  376SOL    HW2 1137   1.743   0.177   2.806
  377SOL     OW 1138   0.263   0.326   2.582
  377SOL    HW1 1139   0.184   0.377   2.548
  377SOL    HW2 1140   0.254   0.311   2.680
  378SOL     OW 1141   1.194   1.612   1.893
  378SOL    HW1 1142   1.200   1.519   1.930
  378SOL    HW2 1143   1.135   1.612   1.813
  379SOL     OW 1144   0.822   1.002   3.234
  379SOL    HW1 1145   0.862   1.001   3.142
  379SOL    HW2 1146   0.832   1.094   3.274
  380SOL     OW 1147   0.916   0.910   2.153
  380SOL    HW1 1148   0.979   0.948   2.085
  380SOL    HW2 1149   0.956   0.827   2.192
  381SOL     OW 1150   1.504   1.607   1.906
  381SOL    HW1 1151   1.412   1.644   1.913
  381SOL    HW2 1152   1.542   1.627   1.816
  382SOL     OW 1153   0.372   1.288   3.352
  382SOL    HW1 1154   0.359   1.381   3.318
  382SOL    HW2 1155   0.288   1.236   3.339
  383SOL     OW 1156   1.614   1.292   3.151
  383SOL    HW1 1157   1.674   1.295   3.231
  383SOL    HW2 1158   1.539   1.356   3.164
  384SOL     OW 1159   1.039   1.098   2.558
  384SOL    HW1 1160   0.969   1.051   2.612
  384SOL    HW2 1161   1.098   1.030   2.515
  385SOL     OW 1162   1.014   0.236   2.833
  385SOL    HW1 1163   1.006   0.200   2.740
  385SOL    HW2 1164   1.012   0.160   2.898
  386SOL     OW 1165   0.590   1.487   2.353
  386SOL    HW1 1166   0.632   1.429   2.283
  386SOL    HW2 1167   0.546   1.566   2.309
  387SOL     OW 1168   1.709   0.385   3.243
  387SOL    HW1 1169   1.782   0.454   3.247
  387SOL    HW2 1170   1.737   0.310   3.184
  388SOL     OW 1171   0.255   1.348   2.152
  388SOL    HW1 1172   0.159   1.349   2.125
  388SOL    HW2 1173   0.267   1.401   2.236
  389SOL     OW 1174   0.105   1.013   3.588
  389SOL    HW1 1175   0.028   0.980   3.642
  389SOL    HW2 1176   0.190   0.983   3.630
  390SOL     OW 1177   0.672   0.203   3.351
  390SOL    HW1 1178   0.762   0.187   3.311
  390SOL    HW2 1179   0.680   0.208   3.450
  391SOL     OW 1180   0.075   0.345   1.895
  391SOL    HW1 1181  -0.017   0.317   1.866
  391SOL    HW2 1182   0.106   0.422   1.839
  392SOL     OW 1183   1.440   0.856   3.260
  392SOL    HW1 1184   1.383   0.908   3.197
  392SOL    HW2 1185   1.536   0.868   3.236
  393SOL     OW 1186   0.072   0.166   2.180
  393SOL    HW1 1187   0.055   0.249   2.126
  393SOL    HW2 1188   0.162   0.129   2.158
  394SOL     OW 1189   1.183   1.335   1.981
  394SOL    HW1 1190   1.084   1.324   1.983
  394SOL    HW2 1191   1.217   1.350   2.074
  395SOL     OW 1192   0.613   0.842   3.293
  395SOL    HW1 1193   0.669   0.923   3.276
  395SOL    HW2 1194   0.672   0.762   3.296
  396SOL     OW 1195   1.493   1.767   2.821
  396SOL    HW1 1196   1.526   1.831   2.752
  396SOL    HW2 1197   1.559   1.761   2.896
  397SOL     OW 1198   0.716   0.565   3.570
  397SOL    HW1 1199   0.735   0.630   3.644
  397SOL    HW2 1200   0.776   0.485   3.579
  398SOL     OW 1201   1.450   1.220   3.495
  398SOL    HW1 1202   1.441   1.210   3.594
  398SOL    HW2 1203   1.546   1.213   3.469
  399SOL     OW 1204   0.390   1.741   3.422
  399SOL    HW1 1205   0.299   1.782   3.420
  399SOL    HW2 1206   0.383   1.647   3.454
  400SOL     OW 1207   1.674   0.883   3.116
  400SOL    HW1 1208   1.647   0.794   3.079
  400SOL    HW2 1209   1.675   0.951   3.043
  401SOL     OW 1210   1.225   0.325   2.311
  401SOL    HW1 1211   1.290   0.251   2.300
  401SOL    HW2 1212   1.245   0.375   2.395
  402SOL     OW 1213   0.594   0.745   2.514
  402SOL    HW1 1214   0.644   0.830   2.495
  402SOL    HW2 1215   0.506   0.747   2.466
  403SOL     OW 1216   1.777   0.342   3.504
  403SOL    HW1 1217   1.760   0.373   3.410
  403SOL    HW2 1218   1.693   0.305   3.542
  404SOL     OW 1219   1.730   0.934   3.379
  404SOL    HW1 1220   1.768   1.025   3.394
  404SOL    HW2 1221   1.722   0.917   3.280
  405SOL     OW 1222   0.859   1.374   1.878
  405SOL    HW1 1223   0.813   1.389   1.966
  405SOL    HW2 1224   0.903   1.459   1.848
  406SOL     OW 1225   0.661   1.790   2.815
  406SOL    HW1 1226   0.615   1.878   2.802
  406SOL    HW2 1227   0.760   1.802   2.808
  407SOL     OW 1228   0.859   0.956   2.723
  407SOL    HW1 1229   0.913   0.887   2.771
  407SOL    HW2 1230   0.827   1.025   2.789
  408SOL     OW 1231   1.083   0.984   1.949
  408SOL    HW1 1232   1.060   1.037   1.867
  408SOL    HW2 1233   1.164   0.928   1.930
  409SOL     OW 1234   1.861   1.569   2.713
  409SOL    HW1 1235   1.790   1.557   2.643
  409SOL    HW2 1236   1.862   1.490   2.773
  410SOL     OW 1237   0.221   1.314   3.706
  410SOL    HW1 1238   0.156   1.241   3.685
  410SOL    HW2 1239   0.225   1.328   3.804
  411SOL     OW 1240   0.079   1.240   2.515
  411SOL    HW1 1241   0.078   1.193   2.603
  411SOL    HW2 1242   0.161   1.212   2.464
  412SOL     OW 1243   0.672   1.391   3.486
  412SOL    HW1 1244   0.594   1.341   3.524
  412SOL    HW2 1245   0.669   1.486   3.517
  413SOL     OW 1246   1.824   0.192   3.089
  413SOL    HW1 1247   1.820   0.102   3.133
  413SOL    HW2 1248   1.827   0.181   2.990
  414SOL     OW 1249   0.428   0.424   2.382
  414SOL    HW1 1250   0.458   0.352   2.320
  414SOL    HW2 1251   0.389   0.384   2.465
  415SOL     OW 1252   1.705   1.487   2.966
  415SOL    HW1 1253   1.612   1.462   2.939
  415SOL    HW2 1254   1.731   1.437   3.048
  416SOL     OW 1255   0.317   0.547   3.142
  416SOL    HW1 1256   0.355   0.488   3.214
  416SOL    HW2 1257   0.357   0.521   3.054
  417SOL     OW 1258   0.812   1.586   2.549
  417SOL    HW1 1259   0.844   1.596   2.455
  417SOL    HW2 1260   0.733   1.524   2.551
  418SOL     OW 1261   1.424   0.214   2.974
  418SOL    HW1 1262   1.476   0.149   3.029
  418SOL    HW2 1263   1.375   0.277   3.035
  419SOL     OW 1264   1.001   0.034   3.016
  419SOL    HW1 1265   0.938  -0.038   2.985
  419SOL    HW2 1266   1.094  -0.002   3.016
  420SOL     OW 1267   0.770   1.330   2.163
  420SOL    HW1 1268   0.724   1.243   2.180
  420SOL    HW2 1269   0.861   1.327   2.204
  421SOL     OW 1270   0.618   1.567   3.146
  421SOL    HW1 1271   0.613   1.649   3.203
  421SOL    HW2 1272   0.707   1.564   3.101
  422SOL     OW 1273   1.352   0.052   2.030
  422SOL    HW1 1274   1.387   0.011   1.946
  422SOL    HW2 1275   1.262   0.014   2.050
  423SOL     OW 1276   1.300   0.453   2.553
  423SOL    HW1 1277   1.241   0.533   2.557
  423SOL    HW2 1278   1.315   0.418   2.646
  424SOL     OW 1279   1.593   0.221   2.744
  424SOL    HW1 1280   1.509   0.220   2.798
  424SOL    HW2 1281   1.595   0.304   2.688
  425SOL     OW 1282   0.039   1.077   2.162
  425SOL    HW1 1283   0.138   1.066   2.153
  425SOL    HW2 1284  -0.001   0.991   2.194
  426SOL     OW 1285   0.875   1.646   2.199
  426SOL    HW1 1286   0.798   1.611   2.145
  426SOL    HW2 1287   0.843   1.717   2.261
  427SOL     OW 1288   0.230   0.628   3.837
  427SOL    HW1 1289   0.137   0.626   3.874
  427SOL    HW2 1290   0.231   0.589   3.745
  428SOL     OW 1291   0.019   0.368   4.371
  428SOL    HW1 1292  -0.063   0.411   4.410
  428SOL    HW2 1293  -0.009   0.295   4.308
  429SOL     OW 1294   1.555   1.511   4.427
  429SOL    HW1 1295   1.498   1.495   4.508
  429SOL    HW2 1296   1.496   1.521   4.347
  430SOL     OW 1297   1.135   0.703   4.441
  430SOL    HW1 1298   1.192   0.781   4.416
  430SOL    HW2 1299   1.075   0.729   4.517
  431SOL     OW 1300   1.755   0.607   3.955
  431SOL    HW1 1301   1.743   0.594   3.856
  431SOL    HW2 1302   1.725   0.526   4.004
  432SOL     OW 1303   0.768   1.144   4.747
  432SOL    HW1 1304   0.690   1.161   4.807
  432SOL    HW2 1305   0.802   1.231   4.711
  433SOL     OW 1306   0.685   1.012   4.389
  433SOL    HW1 1307   0.754   0.996   4.459
  433SOL    HW2 1308   0.612   1.069   4.427
  434SOL     OW 1309   1.603   0.447   4.461
  434SOL    HW1 1310   1.529   0.493   4.411
  434SOL    HW2 1311   1.654   0.515   4.514
  435SOL     OW 1312   0.231   1.713   4.207
  435SOL    HW1 1313   0.265   1.790   4.261
  435SOL    HW2 1314   0.275   1.713   4.117
  436SOL     OW 1315   0.230   1.434   4.262
  436SOL    HW1 1316   0.204   1.530   4.262
  436SOL    HW2 1317   0.159   1.380   4.307
  437SOL     OW 1318   0.240   1.091   4.610
  437SOL    HW1 1319   0.254   1.007   4.662
  437SOL    HW2 1320   0.185   1.155   4.665
  438SOL     OW 1321   0.606   0.964   3.847
  438SOL    HW1 1322   0.613   1.048   3.793
  438SOL    HW2 1323   0.652   0.977   3.935
  439SOL     OW 1324   0.122   0.643   4.287
  439SOL    HW1 1325   0.077   0.555   4.304
  439SOL    HW2 1326   0.121   0.697   4.371
  440SOL     OW 1327   1.842   1.767   4.083
  440SOL    HW1 1328   1.896   1.738   4.163
  440SOL    HW2 1329   1.872   1.857   4.054
  441SOL     OW 1330   0.027   1.596   3.841
  441SOL    HW1 1331   0.008   1.500   3.862
  441SOL    HW2 1332  -0.006   1.654   3.916
  442SOL     OW 1333   1.689   0.922   4.336
  442SOL    HW1 1334   1.784   0.893   4.344
  442SOL    HW2 1335   1.681   0.987   4.261
  443SOL     OW 1336   1.641   1.108   4.156
  443SOL    HW1 1337   1.727   1.110   4.104
  443SOL    HW2 1338   1.655   1.155   4.244
  444SOL     OW 1339   0.613   1.365   4.450
  444SOL    HW1 1340   0.564   1.278   4.459
  444SOL    HW2 1341   0.590   1.408   4.363
  445SOL     OW 1342   0.809   0.004   4.226
  445SOL    HW1 1343   0.849   0.095   4.217
  445SOL    HW2 1344   0.709   0.012   4.232
  446SOL     OW 1345   1.525   0.999   3.914
  446SOL    HW1 1346   1.462   0.923   3.927
  446SOL    HW2 1347   1.573   1.017   4.000
  447SOL     OW 1348   1.667   1.714   4.296
  447SOL    HW1 1349   1.626   1.691   4.208
  447SOL    HW2 1350   1.649   1.640   4.361
  448SOL     OW 1351   0.598   0.729   3.994
  448SOL    HW1 1352   0.622   0.798   3.926
  448SOL    HW2 1353   0.520   0.762   4.048
  449SOL     OW 1354   1.281   0.345   4.668
  449SOL    HW1 1355   1.195   0.295   4.655
  449SOL    HW2 1356   1.343   0.291   4.724
  450SOL     OW 1357   1.576   1.662   4.031
  450SOL    HW1 1358   1.665   1.708   4.034
  450SOL    HW2 1359   1.555   1.638   3.936
  451SOL     OW 1360   1.041   0.701   4.153
  451SOL    HW1 1361   1.067   0.697   4.249
  451SOL    HW2 1362   0.956   0.650   4.139
  452SOL     OW 1363   0.076   0.811   4.513
  452SOL    HW1 1364   0.175   0.799   4.522
  452SOL    HW2 1365   0.052   0.906   4.534
  453SOL     OW 1366   0.865   0.348   3.919
  453SOL    HW1 1367   0.924   0.411   3.870
  453SOL    HW2 1368   0.884   0.254   3.890
  454SOL     OW 1369   1.362   1.144   4.269
  454SOL    HW1 1370   1.445   1.115   4.221
  454SOL    HW2 1371   1.313   1.211   4.213
  455SOL     OW 1372   1.008   1.456   4.201
  455SOL    HW1 1373   0.962   1.528   4.149
  455SOL    HW2 1374   1.004   1.476   4.299
  456SOL     OW 1375   0.351   1.801   4.577
  456SOL    HW1 1376   0.401   1.715   4.583
  456SOL    HW2 1377   0.416   1.878   4.574
  457SOL     OW 1378   1.795   1.066   4.597
  457SOL    HW1 1379   1.733   1.051   4.521
  457SOL    HW2 1380   1.743   1.077   4.682
  458SOL     OW 1381   0.321   0.943   3.966
  458SOL    HW1 1382   0.403   0.982   3.924
  458SOL    HW2 1383   0.294   0.861   3.917
  459SOL     OW 1384   1.458   0.735   4.452
  459SOL    HW1 1385   1.453   0.670   4.527
  459SOL    HW2 1386   1.538   0.794   4.465
  460SOL     OW 1387   1.111   1.776   3.961
  460SOL    HW1 1388   1.051   1.714   4.011
  460SOL    HW2 1389   1.142   1.732   3.876
  461SOL     OW 1390   1.632   1.377   3.805
  461SOL    HW1 1391   1.600   1.471   3.795
  461SOL    HW2 1392   1.556   1.314   3.793
  462SOL     OW 1393   0.464   1.743   4.047
  462SOL    HW1 1394   0.497   1.782   4.133
  462SOL    HW2 1395   0.540   1.736   3.982
  463SOL     OW 1396   1.400   0.107   4.150
  463SOL    HW1 1397   1.376   0.070   4.060
  463SOL    HW2 1398   1.499   0.123   4.154
  464SOL     OW 1399   0.940   1.698   4.628
  464SOL    HW1 1400   1.020   1.641   4.649
  464SOL    HW2 1401   0.891   1.658   4.551
  465SOL     OW 1402   0.382   0.700   4.204
  465SOL    HW1 1403   0.427   0.610   4.201
  465SOL    HW2 1404   0.288   0.689   4.237
  466SOL     OW 1405   0.614   0.122   3.841
  466SOL    HW1 1406   0.712   0.100   3.848
  466SOL    HW2 1407   0.583   0.105   3.748
  467SOL     OW 1408   0.539   0.064   4.236
  467SOL    HW1 1409   0.458   0.065   4.294
  467SOL    HW2 1410   0.542   0.147   4.181
  468SOL     OW 1411   1.434   1.188   3.765
  468SOL    HW1 1412   1.466   1.112   3.822
  468SOL    HW2 1413   1.342   1.215   3.795
  469SOL     OW 1414   0.297   0.035   3.895
  469SOL    HW1 1415   0.346   0.119   3.874
  469SOL    HW2 1416   0.359  -0.030   3.940
  470SOL     OW 1417   0.935   0.236   4.204
  470SOL    HW1 1418   0.887   0.277   4.126
  470SOL    HW2 1419   1.034   0.234   4.185
  471SOL     OW 1420   0.459   1.152   4.465
  471SOL    HW1 1421   0.388   1.125   4.530
  471SOL    HW2 1422   0.433   1.124   4.372
  472SOL     OW 1423   1.271   1.797   4.315
  472SOL    HW1 1424   1.315   1.861   4.251
  472SOL    HW2 1425   1.221   1.849   4.385
  473SOL     OW 1426   1.032   0.549   3.740
  473SOL    HW1 1427   0.991   0.631   3.701
  473SOL    HW2 1428   1.096   0.575   3.813
  474SOL     OW 1429   0.866   0.454   4.366
  474SOL    HW1 1430   0.834   0.526   4.304
  474SOL    HW2 1431   0.890   0.373   4.313
  475SOL     OW 1432   1.017   0.039   4.477
  475SOL    HW1 1433   0.945   0.044   4.408
  475SOL    HW2 1434   0.993  -0.030   4.546
  476SOL     OW 1435   1.857   0.833   4.101
  476SOL    HW1 1436   1.899   0.769   4.165
  476SOL    HW2 1437   1.819   0.782   4.023
  477SOL     OW 1438   0.488   1.385   3.898
  477SOL    HW1 1439   0.401   1.370   3.945
  477SOL    HW2 1440   0.471   1.411   3.803
  478SOL     OW 1441   1.664   1.280   4.381
  478SOL    HW1 1442   1.763   1.288   4.395
  478SOL    HW2 1443   1.619   1.364   4.412
  479SOL     OW 1444   1.390   0.575   3.802
  479SOL    HW1 1445   1.336   0.554   3.883
  479SOL    HW2 1446   1.481   0.534   3.811
  480SOL     OW 1447   0.527   0.256   4.052
  480SOL    HW1 1448   0.554   0.197   3.977
  480SOL    HW2 1449   0.527   0.351   4.021
  481SOL     OW 1450   0.705   1.050   4.092
  481SOL    HW1 1451   0.691   1.057   4.191
  481SOL    HW2 1452   0.789   0.999   4.074
  482SOL     OW 1453   0.367   1.100   4.225
  482SOL    HW1 1454   0.360   1.183   4.169
  482SOL    HW2 1455   0.371   1.020   4.165
  483SOL     OW 1456   0.566   0.537   4.589
  483SOL    HW1 1457   0.578   0.603   4.515
  483SOL    HW2 1458   0.612   0.571   4.672
  484SOL     OW 1459   1.252   1.348   4.112
  484SOL    HW1 1460   1.302   1.425   4.152
  484SOL    HW2 1461   1.157   1.350   4.144
  485SOL     OW 1462   1.582   0.639   4.196
  485SOL    HW1 1463   1.551   0.700   4.269
  485SOL    HW2 1464   1.632   0.691   4.127
  486SOL     OW 1465   1.209   0.525   3.999
  486SOL    HW1 1466   1.222   0.441   4.053
  486SOL    HW2 1467   1.180   0.599   4.059
  487SOL     OW 1468   0.307   0.063   4.342
  487SOL    HW1 1469   0.296   0.157   4.375
  487SOL    HW2 1470   0.302   0.000   4.419
  488SOL     OW 1471   1.622   0.367   4.098
  488SOL    HW1 1472   1.624   0.291   4.162
  488SOL    HW2 1473   1.574   0.444   4.138
  489SOL     OW 1474   1.540   0.274   3.849
  489SOL    HW1 1475   1.479   0.199   3.872
  489SOL    HW2 1476   1.562   0.326   3.932
  490SOL     OW 1477   1.303   0.838   3.766
  490SOL    HW1 1478   1.337   0.745   3.781
  490SOL    HW2 1479   1.321   0.865   3.671
  491SOL     OW 1480   0.008   1.326   3.924
  491SOL    HW1 1481  -0.085   1.347   3.893
  491SOL    HW2 1482   0.018   1.227   3.937
  492SOL     OW 1483   0.815   0.572   4.049
  492SOL    HW1 1484   0.822   0.483   4.003
  492SOL    HW2 1485   0.721   0.606   4.041
  493SOL     OW 1486   0.473   0.500   3.915
  493SOL    HW1 1487   0.534   0.580   3.919
  493SOL    HW2 1488   0.378   0.531   3.922
  494SOL     OW 1489   1.302   0.855   4.033
  494SOL    HW1 1490   1.216   0.824   4.075
  494SOL    HW2 1491   1.298   0.841   3.934
  495SOL     OW 1492   1.726   0.135   4.247
  495SOL    HW1 1493   1.799   0.118   4.180
  495SOL    HW2 1494   1.695   0.048   4.285
  496SOL     OW 1495   1.388   1.573   4.201
  496SOL    HW1 1496   1.455   1.585   4.127
  496SOL    HW2 1497   1.348   1.662   4.224
  497SOL     OW 1498   1.280   0.927   4.396
  497SOL    HW1 1499   1.340   0.846   4.398
  497SOL    HW2 1500   1.320   0.996   4.336
  498SOL     OW 1501   0.672   1.616   3.878
  498SOL    HW1 1502   0.681   1.626   3.779
  498SOL    HW2 1503   0.632   1.527   3.899
  499SOL     OW 1504   1.841   0.175   4.687
  499SOL    HW1 1505   1.880   0.090   4.651
  499SOL    HW2 1506   1.743   0.177   4.668
  500SOL     OW 1507   0.263   0.326   4.444
  500SOL    HW1 1508   0.184   0.377   4.410
  500SOL    HW2 1509   0.254   0.311   4.542
  501SOL     OW 1510   1.194   1.612   3.755
  501SOL    HW1 1511   1.200   1.519   3.792
  501SOL    HW2 1512   1.135   1.612   3.675
  502SOL     OW 1513   0.916   0.910   4.015
  502SOL    HW1 1514   0.979   0.948   3.947
  502SOL    HW2 1515   0.956   0.827   4.054
  503SOL     OW 1516   1.504   1.607   3.768
  503SOL    HW1 1517   1.412   1.644   3.775
  503SOL    HW2 1518   1.542   1.627   3.678
  504SOL     OW 1519   1.039   1.098   4.420
  504SOL    HW1 1520   0.969   1.051   4.474
  504SOL    HW2 1521   1.098   1.030   4.377
  505SOL     OW 1522   0.590   1.487   4.215
  505SOL    HW1 1523   0.632   1.429   4.145
  505SOL    HW2 1524   0.546   1.566   4.171
  506SOL     OW 1525   0.255   1.348   4.014
  506SOL    HW1 1526   0.159   1.349   3.987
  506SOL    HW2 1527   0.267   1.401   4.098
  507SOL     OW 1528   0.075   0.345   3.757
  507SOL    HW1 1529  -0.017   0.317   3.728
  507SOL    HW2 1530   0.106   0.422   3.701
  508SOL     OW 1531   0.072   0.166   4.042
  508SOL    HW1 1532   0.055   0.249   3.988
  508SOL    HW2 1533   0.162   0.129   4.020
  509SOL     OW 1534   1.183   1.335   3.843
  509SOL    HW1 1535   1.084   1.324   3.845
  509SOL    HW2 1536   1.217   1.350   3.936
  510SOL     OW 1537   1.225   0.325   4.173
  510SOL    HW1 1538   1.290   0.251   4.162
  510SOL    HW2 1539   1.245   0.375   4.257
  511SOL     OW 1540   0.594   0.745   4.376
  511SOL    HW1 1541   0.644   0.830   4.357
  511SOL    HW2 1542   0.506   0.747   4.328
  512SOL     OW 1543   0.859   1.374   3.740
  512SOL    HW1 1544   0.813   1.389   3.828
  512SOL    HW2 1545   0.903   1.459   3.710
  513SOL     OW 1546   0.661   1.790   4.677
  513SOL    HW1 1547   0.615   1.878   4.664
  513SOL    HW2 1548   0.760   1.802   4.670
  514SOL     OW 1549   0.859   0.956   4.585
  514SOL    HW1 1550   0.913   0.887   4.633
  514SOL    HW2 1551   0.827   1.025   4.651
  515SOL     OW 1552   1.083   0.984   3.811
  515SOL    HW1 1553   1.060   1.037   3.729
  515SOL    HW2 1554   1.164   0.928   3.792
  516SOL     OW 1555   0.079   1.240   4.377
  516SOL    HW1 1556   0.078   1.193   4.465
  516SOL    HW2 1557   0.161   1.212   4.326
  517SOL     OW 1558   0.428   0.424   4.244
  517SOL    HW1 1559   0.458   0.352   4.182
  517SOL    HW2 1560   0.389   0.384   4.327
  518SOL     OW 1561   0.812   1.586   4.411
  518SOL    HW1 1562   0.844   1.596   4.317
  518SOL    HW2 1563   0.733   1.524   4.413
  519SOL     OW 1564   0.770   1.330   4.025
  519SOL    HW1 1565   0.724   1.243   4.042
  519SOL    HW2 1566   0.861   1.327   4.066
  520SOL     OW 1567   1.352   0.052   3.892
  520SOL    HW1 1568   1.387   0.011   3.808
  520SOL    HW2 1569   1.262   0.014   3.912
  521SOL     OW 1570   1.300   0.453   4.415
  521SOL    HW1 1571   1.241   0.533   4.419
  521SOL    HW2 1572   1.315   0.418   4.508
  522SOL     OW 1573   0.039   1.077   4.024
  522SOL    HW1 1574   0.138   1.066   4.015
  522SOL    HW2 1575  -0.001   0.991   4.056
  523SOL     OW 1576   0.875   1.646   4.061
  523SOL    HW1 1577   0.798   1.611   4.007
  523SOL    HW2 1578   0.843   1.717   4.123
  524SOL     OW 1579   0.230   2.490   0.113
  524SOL    HW1 1580   0.137   2.488   0.150
  524SOL    HW2 1581   0.231   2.451   0.021
  525SOL     OW 1582   0.225   2.137   0.996
  525SOL    HW1 1583   0.260   2.120   1.088
  525SOL    HW2 1584   0.137   2.092   0.984
  526SOL     OW 1585   0.019   2.230   0.647
  526SOL    HW1 1586  -0.063   2.273   0.686
  526SOL    HW2 1587  -0.009   2.157   0.584
  527SOL     OW 1588   0.569   3.137   1.165
  527SOL    HW1 1589   0.476   3.130   1.128
  527SOL    HW2 1590   0.580   3.226   1.209
  528SOL     OW 1591   1.555   3.373   0.703
  528SOL    HW1 1592   1.498   3.357   0.784
  528SOL    HW2 1593   1.496   3.383   0.623
  529SOL     OW 1594   1.135   2.565   0.717
  529SOL    HW1 1595   1.192   2.643   0.692
  529SOL    HW2 1596   1.075   2.591   0.793
  530SOL     OW 1597   1.755   2.469   0.231
  530SOL    HW1 1598   1.743   2.456   0.132
  530SOL    HW2 1599   1.725   2.388   0.280
  531SOL     OW 1600   0.768   3.006   1.023
  531SOL    HW1 1601   0.690   3.023   1.083
  531SOL    HW2 1602   0.802   3.093   0.987
  532SOL     OW 1603   0.850   2.660   1.823
  532SOL    HW1 1604   0.846   2.736   1.888
  532SOL    HW2 1605   0.872   2.696   1.732
  533SOL     OW 1606   0.685   2.874   0.665
  533SOL    HW1 1607   0.754   2.858   0.735
  533SOL    HW2 1608   0.612   2.931   0.703
  534SOL     OW 1609   0.686   3.023   1.803
  534SOL    HW1 1610   0.746   3.102   1.817
  534SOL    HW2 1611   0.600   3.054   1.762
  535SOL     OW 1612   0.335   3.297   1.061
  535SOL    HW1 1613   0.257   3.266   1.008
  535SOL    HW2 1614   0.393   3.355   1.004
  536SOL     OW 1615   1.460   3.367   1.339
  536SOL    HW1 1616   1.484   3.461   1.365
  536SOL    HW2 1617   1.444   3.313   1.421
  537SOL     OW 1618   0.438   2.254   1.499
  537SOL    HW1 1619   0.520   2.198   1.508
  537SOL    HW2 1620   0.357   2.196   1.503
  538SOL     OW 1621   1.603   2.309   0.737
  538SOL    HW1 1622   1.529   2.355   0.687
  538SOL    HW2 1623   1.654   2.377   0.790
  539SOL     OW 1624   0.231   3.575   0.483
  539SOL    HW1 1625   0.265   3.652   0.537
  539SOL    HW2 1626   0.275   3.575   0.393
  540SOL     OW 1627   1.127   3.203   1.690
  540SOL    HW1 1628   1.174   3.203   1.778
  540SOL    HW2 1629   1.079   3.116   1.679
  541SOL     OW 1630   0.230   3.296   0.538
  541SOL    HW1 1631   0.204   3.392   0.538
  541SOL    HW2 1632   0.159   3.242   0.583
  542SOL     OW 1633   0.240   2.953   0.886
  542SOL    HW1 1634   0.254   2.869   0.938
  542SOL    HW2 1635   0.185   3.017   0.941
  543SOL     OW 1636   0.620   3.648   1.439
  543SOL    HW1 1637   0.528   3.631   1.474
  543SOL    HW2 1638   0.648   3.740   1.465
  544SOL     OW 1639   0.606   2.826   0.123
  544SOL    HW1 1640   0.613   2.910   0.069
  544SOL    HW2 1641   0.652   2.839   0.211
  545SOL     OW 1642   1.594   1.976   1.480
  545SOL    HW1 1643   1.576   2.043   1.408
  545SOL    HW2 1644   1.591   2.022   1.569
  546SOL     OW 1645   0.122   2.505   0.563
  546SOL    HW1 1646   0.077   2.417   0.580
  546SOL    HW2 1647   0.121   2.559   0.647
  547SOL     OW 1648   1.842   3.629   0.359
  547SOL    HW1 1649   1.896   3.600   0.439
  547SOL    HW2 1650   1.872   3.719   0.330
  548SOL     OW 1651   0.027   3.458   0.117
  548SOL    HW1 1652   0.008   3.362   0.138
  548SOL    HW2 1653  -0.006   3.516   0.192
  549SOL     OW 1654   1.689   2.784   0.612
  549SOL    HW1 1655   1.784   2.755   0.620
  549SOL    HW2 1656   1.681   2.849   0.537
  550SOL     OW 1657   1.641   2.970   0.432
  550SOL    HW1 1658   1.727   2.972   0.380
  550SOL    HW2 1659   1.655   3.017   0.520
  551SOL     OW 1660   0.113   2.599   1.597
  551SOL    HW1 1661   0.201   2.586   1.642
  551SOL    HW2 1662   0.100   2.696   1.575
  552SOL     OW 1663   0.613   3.227   0.726
  552SOL    HW1 1664   0.564   3.140   0.735
  552SOL    HW2 1665   0.590   3.270   0.639
  553SOL     OW 1666   1.293   3.090   1.423
  553SOL    HW1 1667   1.330   3.017   1.365
  553SOL    HW2 1668   1.345   3.095   1.508
  554SOL     OW 1669   0.809   1.866   0.502
  554SOL    HW1 1670   0.849   1.957   0.493
  554SOL    HW2 1671   0.709   1.874   0.508
  555SOL     OW 1672   0.197   2.838   1.264
  555SOL    HW1 1673   0.286   2.793   1.250
  555SOL    HW2 1674   0.124   2.773   1.245
  556SOL     OW 1675   1.525   2.861   0.190
  556SOL    HW1 1676   1.462   2.785   0.203
  556SOL    HW2 1677   1.573   2.879   0.276
  557SOL     OW 1678   1.187   3.654   1.616
  557SOL    HW1 1679   1.211   3.714   1.540
  557SOL    HW2 1680   1.194   3.559   1.586
  558SOL     OW 1681   0.317   2.113   1.801
  558SOL    HW1 1682   0.388   2.184   1.807
  558SOL    HW2 1683   0.229   2.152   1.829
  559SOL     OW 1684   1.466   3.279   0.953
  559SOL    HW1 1685   1.407   3.285   1.033
  559SOL    HW2 1686   1.451   3.191   0.907
  560SOL     OW 1687   1.667   3.576   0.572
  560SOL    HW1 1688   1.626   3.553   0.484
  560SOL    HW2 1689   1.649   3.502   0.637
  561SOL     OW 1690   0.598   2.591   0.270
  561SOL    HW1 1691   0.622   2.660   0.202
  561SOL    HW2 1692   0.520   2.624   0.324
  562SOL     OW 1693   1.281   2.207   0.944
  562SOL    HW1 1694   1.195   2.157   0.931
  562SOL    HW2 1695   1.343   2.153   1.000
  563SOL     OW 1696   1.576   3.524   0.307
  563SOL    HW1 1697   1.665   3.570   0.310
  563SOL    HW2 1698   1.555   3.500   0.212
  564SOL     OW 1699   0.807   2.467   1.465
  564SOL    HW1 1700   0.760   2.464   1.554
  564SOL    HW2 1701   0.756   2.412   1.399
  565SOL     OW 1702   1.394   2.331   1.674
  565SOL    HW1 1703   1.374   2.374   1.762
  565SOL    HW2 1704   1.472   2.269   1.683
  566SOL     OW 1705   0.973   2.752   1.572
  566SOL    HW1 1706   1.019   2.668   1.543
  566SOL    HW2 1707   0.917   2.786   1.497
  567SOL     OW 1708   0.991   2.272   1.242
  567SOL    HW1 1709   0.914   2.306   1.296
  567SOL    HW2 1710   0.957   2.221   1.163
  568SOL     OW 1711   1.041   2.563   0.429
  568SOL    HW1 1712   1.067   2.559   0.525
  568SOL    HW2 1713   0.956   2.512   0.415
  569SOL     OW 1714   0.076   2.673   0.789
  569SOL    HW1 1715   0.175   2.661   0.798
  569SOL    HW2 1716   0.052   2.768   0.810
  570SOL     OW 1717   0.130   3.683   1.571
  570SOL    HW1 1718   0.120   3.668   1.670
  570SOL    HW2 1719   0.044   3.719   1.535
  571SOL     OW 1720   0.865   2.210   0.195
  571SOL    HW1 1721   0.924   2.273   0.146
  571SOL    HW2 1722   0.884   2.116   0.166
  572SOL     OW 1723   1.719   2.447   1.831
  572SOL    HW1 1724   1.693   2.536   1.795
  572SOL    HW2 1725   1.717   2.379   1.758
  573SOL     OW 1726   1.362   3.006   0.545
  573SOL    HW1 1727   1.445   2.977   0.497
  573SOL    HW2 1728   1.313   3.073   0.489
  574SOL     OW 1729   0.550   2.058   0.885
  574SOL    HW1 1730   0.545   2.053   0.985
  574SOL    HW2 1731   0.552   2.154   0.856
  575SOL     OW 1732   1.008   3.318   0.477
  575SOL    HW1 1733   0.962   3.390   0.425
  575SOL    HW2 1734   1.004   3.338   0.575
  576SOL     OW 1735   0.351   3.663   0.853
  576SOL    HW1 1736   0.401   3.577   0.859
  576SOL    HW2 1737   0.416   3.740   0.850
  577SOL     OW 1738   1.795   2.928   0.873
  577SOL    HW1 1739   1.733   2.913   0.797
  577SOL    HW2 1740   1.743   2.939   0.958
  578SOL     OW 1741   1.227   3.412   1.506
  578SOL    HW1 1742   1.233   3.335   1.570
  578SOL    HW2 1743   1.175   3.386   1.426
  579SOL     OW 1744   0.321   2.805   0.242
  579SOL    HW1 1745   0.403   2.844   0.200
  579SOL    HW2 1746   0.294   2.723   0.193
  580SOL     OW 1747   1.458   2.597   0.728
  580SOL    HW1 1748   1.453   2.532   0.803
  580SOL    HW2 1749   1.538   2.656   0.741
  581SOL     OW 1750   0.461   3.128   1.727
  581SOL    HW1 1751   0.411   3.129   1.641
  581SOL    HW2 1752   0.398   3.110   1.803
  582SOL     OW 1753   1.111   3.638   0.237
  582SOL    HW1 1754   1.051   3.576   0.287
  582SOL    HW2 1755   1.142   3.594   0.152
  583SOL     OW 1756   0.202   2.147   1.498
  583SOL    HW1 1757   0.122   2.207   1.485
  583SOL    HW2 1758   0.192   2.098   1.584
  584SOL     OW 1759   1.632   3.239   0.081
  584SOL    HW1 1760   1.600   3.333   0.071
  584SOL    HW2 1761   1.556   3.176   0.069
  585SOL     OW 1762   0.464   3.605   0.323
  585SOL    HW1 1763   0.497   3.644   0.409
  585SOL    HW2 1764   0.540   3.598   0.258
  586SOL     OW 1765   1.400   1.969   0.426
  586SOL    HW1 1766   1.376   1.932   0.336
  586SOL    HW2 1767   1.499   1.985   0.430
  587SOL     OW 1768   0.249   3.647   1.241
  587SOL    HW1 1769   0.306   3.582   1.291
  587SOL    HW2 1770   0.233   3.614   1.148
  588SOL     OW 1771   0.940   3.560   0.904
  588SOL    HW1 1772   1.020   3.503   0.925
  588SOL    HW2 1773   0.891   3.520   0.827
  589SOL     OW 1774   0.382   2.562   0.480
  589SOL    HW1 1775   0.427   2.472   0.477
  589SOL    HW2 1776   0.288   2.551   0.513
  590SOL     OW 1777   1.547   2.084   1.729
  590SOL    HW1 1778   1.542   2.121   1.821
  590SOL    HW2 1779   1.475   2.015   1.717
  591SOL     OW 1780   0.781   2.126   1.749
  591SOL    HW1 1781   0.848   2.065   1.792
  591SOL    HW2 1782   0.708   2.145   1.814
  592SOL     OW 1783   0.888   3.376   1.195
  592SOL    HW1 1784   0.865   3.351   1.101
  592SOL    HW2 1785   0.949   3.307   1.234
  593SOL     OW 1786   1.351   2.452   1.433
  593SOL    HW1 1787   1.379   2.409   1.518
  593SOL    HW2 1788   1.376   2.548   1.434
  594SOL     OW 1789   0.803   3.264   0.924
  594SOL    HW1 1790   0.893   3.278   0.882
  594SOL    HW2 1791   0.732   3.266   0.853
  595SOL     OW 1792   0.922   2.365   0.899
  595SOL    HW1 1793   0.897   2.356   0.803
  595SOL    HW2 1794   0.970   2.283   0.930
  596SOL     OW 1795   0.539   1.926   0.512
  596SOL    HW1 1796   0.458   1.927   0.570
  596SOL    HW2 1797   0.542   2.009   0.457
  597SOL     OW 1798   1.434   3.050   0.041
  597SOL    HW1 1799   1.466   2.974   0.098
  597SOL    HW2 1800   1.342   3.077   0.071
  598SOL     OW 1801   0.297   1.897   0.171
  598SOL    HW1 1802   0.346   1.981   0.150
  598SOL    HW2 1803   0.359   1.832   0.216
  599SOL     OW 1804   0.935   2.098   0.480
  599SOL    HW1 1805   0.887   2.139   0.402
  599SOL    HW2 1806   1.034   2.096   0.461
  600SOL     OW 1807   1.076   2.545   1.464
  600SOL    HW1 1808   0.996   2.484   1.467
  600SOL    HW2 1809   1.157   2.492   1.440
  601SOL     OW 1810   1.227   3.432   0.793
  601SOL    HW1 1811   1.248   3.506   0.728
  601SOL    HW2 1812   1.295   3.432   0.866
  602SOL     OW 1813   0.459   3.014   0.741
  602SOL    HW1 1814   0.388   2.987   0.806
  602SOL    HW2 1815   0.433   2.986   0.648
  603SOL     OW 1816   1.271   3.659   0.591
  603SOL    HW1 1817   1.315   3.723   0.527
  603SOL    HW2 1818   1.221   3.711   0.661
  604SOL     OW 1819   1.032   2.411   0.016
  604SOL    HW1 1820   0.991   2.493  -0.023
  604SOL    HW2 1821   1.096   2.437   0.089
  605SOL     OW 1822   0.078   2.418   1.386
  605SOL    HW1 1823   0.170   2.417   1.345
  605SOL    HW2 1824   0.072   2.492   1.453
  606SOL     OW 1825   0.561   2.084   1.147
  606SOL    HW1 1826   0.599   2.000   1.184
  606SOL    HW2 1827   0.473   2.103   1.191
  607SOL     OW 1828   0.866   2.316   0.642
  607SOL    HW1 1829   0.834   2.388   0.580
  607SOL    HW2 1830   0.890   2.235   0.589
  608SOL     OW 1831   1.017   1.901   0.753
  608SOL    HW1 1832   0.945   1.906   0.684
  608SOL    HW2 1833   0.993   1.832   0.822
  609SOL     OW 1834   1.429   3.035   0.867
  609SOL    HW1 1835   1.374   2.951   0.860
  609SOL    HW2 1836   1.455   3.064   0.775
  610SOL     OW 1837   1.466   2.452   0.992
  610SOL    HW1 1838   1.436   2.357   0.999
  610SOL    HW2 1839   1.539   2.468   1.058
  611SOL     OW 1840   1.857   2.695   0.377
  611SOL    HW1 1841   1.899   2.631   0.441
  611SOL    HW2 1842   1.819   2.644   0.299
  612SOL     OW 1843   0.488   3.247   0.174
  612SOL    HW1 1844   0.401   3.232   0.221
  612SOL    HW2 1845   0.471   3.273   0.079
  613SOL     OW 1846   1.664   3.142   0.657
  613SOL    HW1 1847   1.763   3.150   0.671
  613SOL    HW2 1848   1.619   3.226   0.688
  614SOL     OW 1849   1.390   2.437   0.078
  614SOL    HW1 1850   1.336   2.416   0.159
  614SOL    HW2 1851   1.481   2.396   0.087
  615SOL     OW 1852   0.527   2.118   0.328
  615SOL    HW1 1853   0.554   2.059   0.253
  615SOL    HW2 1854   0.527   2.213   0.297
  616SOL     OW 1855   1.754   3.085   1.588
  616SOL    HW1 1856   1.845   3.046   1.575
  616SOL    HW2 1857   1.762   3.181   1.612
  617SOL     OW 1858   1.064   3.209   1.340
  617SOL    HW1 1859   0.984   3.186   1.395
  617SOL    HW2 1860   1.147   3.183   1.389
  618SOL     OW 1861   1.592   3.491   1.625
  618SOL    HW1 1862   1.619   3.525   1.535
  618SOL    HW2 1863   1.671   3.453   1.671
  619SOL     OW 1864   1.111   3.057   1.100
  619SOL    HW1 1865   1.071   3.101   1.181
  619SOL    HW2 1866   1.070   3.094   1.017
  620SOL     OW 1867   1.638   2.961   1.079
  620SOL    HW1 1868   1.643   3.042   1.138
  620SOL    HW2 1869   1.552   2.963   1.028
  621SOL     OW 1870   0.915   1.951   1.402
  621SOL    HW1 1871   0.940   1.931   1.307
  621SOL    HW2 1872   0.987   2.007   1.444
  622SOL     OW 1873   0.980   2.978   1.719
  622SOL    HW1 1874   0.881   2.984   1.729
  622SOL    HW2 1875   1.003   2.898   1.663
  623SOL     OW 1876   0.705   2.912   0.368
  623SOL    HW1 1877   0.691   2.919   0.467
  623SOL    HW2 1878   0.789   2.861   0.350
  624SOL     OW 1879   0.410   2.675   1.251
  624SOL    HW1 1880   0.496   2.687   1.301
  624SOL    HW2 1881   0.368   2.588   1.278
  625SOL     OW 1882   1.274   2.248   1.262
  625SOL    HW1 1883   1.295   2.322   1.326
  625SOL    HW2 1884   1.185   2.265   1.219
  626SOL     OW 1885   0.064   3.426   1.331
  626SOL    HW1 1886   0.018   3.508   1.297
  626SOL    HW2 1887   0.162   3.445   1.340
  627SOL     OW 1888   0.367   2.962   0.501
  627SOL    HW1 1889   0.360   3.045   0.445
  627SOL    HW2 1890   0.371   2.882   0.441
  628SOL     OW 1891   0.566   2.399   0.865
  628SOL    HW1 1892   0.578   2.465   0.791
  628SOL    HW2 1893   0.612   2.433   0.948
  629SOL     OW 1894   1.252   3.210   0.388
  629SOL    HW1 1895   1.302   3.287   0.428
  629SOL    HW2 1896   1.157   3.212   0.420
  630SOL     OW 1897   1.272   3.307   1.142
  630SOL    HW1 1898   1.319   3.320   1.229
  630SOL    HW2 1899   1.206   3.233   1.151
  631SOL     OW 1900   1.582   2.501   0.472
  631SOL    HW1 1901   1.551   2.562   0.545
  631SOL    HW2 1902   1.632   2.553   0.403
  632SOL     OW 1903   0.354   3.372   1.329
  632SOL    HW1 1904   0.333   3.328   1.242
  632SOL    HW2 1905   0.451   3.398   1.332
  633SOL     OW 1906   0.402   2.613   1.598
  633SOL    HW1 1907   0.470   2.668   1.551
  633SOL    HW2 1908   0.442   2.525   1.625
  634SOL     OW 1909   1.587   2.641   1.670
  634SOL    HW1 1910   1.495   2.679   1.665
  634SOL    HW2 1911   1.647   2.688   1.605
  635SOL     OW 1912   1.013   1.967   1.770
  635SOL    HW1 1913   1.019   2.052   1.718
  635SOL    HW2 1914   1.045   1.891   1.713
  636SOL     OW 1915   0.504   1.912   1.740
  636SOL    HW1 1916   0.462   1.855   1.670
  636SOL    HW2 1917   0.438   1.981   1.772
  637SOL     OW 1918   0.573   2.732   1.029
  637SOL    HW1 1919   0.617   2.821   1.020
  637SOL    HW2 1920   0.510   2.732   1.106
  638SOL     OW 1921   1.360   2.724   1.045
  638SOL    HW1 1922   1.285   2.724   0.979
  638SOL    HW2 1923   1.397   2.632   1.054
  639SOL     OW 1924   1.209   2.387   0.275
  639SOL    HW1 1925   1.222   2.303   0.329
  639SOL    HW2 1926   1.180   2.461   0.335
  640SOL     OW 1927   0.307   2.075   1.231
  640SOL    HW1 1928   0.284   2.112   1.321
  640SOL    HW2 1929   0.277   1.980   1.225
  641SOL     OW 1930   0.037   3.172   1.282
  641SOL    HW1 1931   0.090   3.123   1.350
  641SOL    HW2 1932   0.059   3.270   1.287
  642SOL     OW 1933   0.732   2.496   1.064
  642SOL    HW1 1934   0.791   2.470   0.988
  642SOL    HW2 1935   0.704   2.592   1.053
  643SOL     OW 1936   1.728   2.797   1.854
  643SOL    HW1 1937   1.682   2.790   1.765
  643SOL    HW2 1938   1.666   2.841   1.920
  644SOL     OW 1939   0.307   1.925   0.618
  644SOL    HW1 1940   0.296   2.019   0.651
  644SOL    HW2 1941   0.302   1.862   0.695
  645SOL     OW 1942   1.622   2.229   0.374
  645SOL    HW1 1943   1.624   2.153   0.438
  645SOL    HW2 1944   1.574   2.306   0.414
  646SOL     OW 1945   1.023   2.628   0.966
  646SOL    HW1 1946   1.038   2.649   1.062
  646SOL    HW2 1947   0.993   2.533   0.957
  647SOL     OW 1948   0.980   3.435   1.700
  647SOL    HW1 1949   0.960   3.479   1.612
  647SOL    HW2 1950   1.019   3.344   1.684
  648SOL     OW 1951   1.859   3.380   1.605
  648SOL    HW1 1952   1.873   3.407   1.510
  648SOL    HW2 1953   1.942   3.402   1.658
  649SOL     OW 1954   0.350   2.760   1.804
  649SOL    HW1 1955   0.426   2.804   1.852
  649SOL    HW2 1956   0.385   2.713   1.722
  650SOL     OW 1957   1.540   2.136   0.125
  650SOL    HW1 1958   1.479   2.061   0.148
  650SOL    HW2 1959   1.562   2.188   0.208
  651SOL     OW 1960   1.303   2.700   0.042
  651SOL    HW1 1961   1.337   2.607   0.057
  651SOL    HW2 1962   1.321   2.727  -0.053
  652SOL     OW 1963   1.068   3.195   0.849
  652SOL    HW1 1964   1.075   3.111   0.794
  652SOL    HW2 1965   1.130   3.264   0.813
  653SOL     OW 1966   0.319   2.672   0.949
  653SOL    HW1 1967   0.412   2.708   0.954
  653SOL    HW2 1968   0.313   2.587   1.001
  654SOL     OW 1969   0.339   2.371   1.006
  654SOL    HW1 1970   0.287   2.288   0.989
  654SOL    HW2 1971   0.416   2.376   0.942
  655SOL     OW 1972   1.138   2.242   1.678
  655SOL    HW1 1973   1.093   2.305   1.742
  655SOL    HW2 1974   1.231   2.273   1.661
  656SOL     OW 1975   1.160   2.069   1.477
  656SOL    HW1 1976   1.160   2.133   1.554
  656SOL    HW2 1977   1.188   2.117   1.394
  657SOL     OW 1978   0.008   3.188   0.200
  657SOL    HW1 1979  -0.085   3.209   0.169
  657SOL    HW2 1980   0.018   3.089   0.213
  658SOL     OW 1981   0.088   3.663   0.927
  658SOL    HW1 1982   0.046   3.577   0.900
  658SOL    HW2 1983   0.182   3.666   0.893
  659SOL     OW 1984   0.504   3.430   0.910
  659SOL    HW1 1985   0.570   3.504   0.919
  659SOL    HW2 1986   0.548   3.351   0.868
  660SOL     OW 1987   1.002   2.658   1.238
  660SOL    HW1 1988   1.043   2.626   1.324
  660SOL    HW2 1989   0.906   2.631   1.235
  661SOL     OW 1990   0.040   2.406   1.114
  661SOL    HW1 1991   0.125   2.373   1.073
  661SOL    HW2 1992   0.053   2.421   1.212
  662SOL     OW 1993   0.189   2.382   1.722
  662SOL    HW1 1994   0.248   2.342   1.652
  662SOL    HW2 1995   0.131   2.453   1.681
  663SOL     OW 1996   1.369   2.812   1.660
  663SOL    HW1 1997   1.408   2.901   1.680
  663SOL    HW2 1998   1.379   2.792   1.563
  664SOL     OW 1999   0.815   2.434   0.325
  664SOL    HW1 2000   0.822   2.345   0.279
  664SOL    HW2 2001   0.721   2.468   0.317
  665SOL     OW 2002   1.657   2.466   1.206
  665SOL    HW1 2003   1.619   2.397   1.268
  665SOL    HW2 2004   1.739   2.430   1.162
  666SOL     OW 2005   0.252   3.426   1.744
  666SOL    HW1 2006   0.222   3.483   1.820
  666SOL    HW2 2007   0.245   3.329   1.770
  667SOL     OW 2008   0.671   2.326   1.269
  667SOL    HW1 2009   0.637   2.237   1.239
  667SOL    HW2 2010   0.697   2.380   1.189
  668SOL     OW 2011   0.930   3.540   1.465
  668SOL    HW1 2012   0.906   3.522   1.370
  668SOL    HW2 2013   0.960   3.634   1.475
  669SOL     OW 2014   0.473   2.362   0.191
  669SOL    HW1 2015   0.534   2.442   0.195
  669SOL    HW2 2016   0.378   2.393   0.198
  670SOL     OW 2017   0.159   2.999   1.466
  670SOL    HW1 2018   0.181   2.938   1.542
  670SOL    HW2 2019   0.169   2.950   1.380
  671SOL     OW 2020   1.347   2.921   1.234
  671SOL    HW1 2021   1.371   2.858   1.160
  671SOL    HW2 2022   1.257   2.961   1.216
  672SOL     OW 2023   1.302   2.717   0.309
  672SOL    HW1 2024   1.216   2.686   0.351
  672SOL    HW2 2025   1.298   2.703   0.210
  673SOL     OW 2026   1.759   3.609   1.154
  673SOL    HW1 2027   1.820   3.639   1.081
  673SOL    HW2 2028   1.721   3.520   1.132
  674SOL     OW 2029   1.252   3.593   1.128
  674SOL    HW1 2030   1.336   3.598   1.074
  674SOL    HW2 2031   1.229   3.497   1.146
  675SOL     OW 2032   0.083   3.120   1.022
  675SOL    HW1 2033   0.078   3.119   1.122
  675SOL    HW2 2034   0.000   3.079   0.984
  676SOL     OW 2035   0.688   3.524   1.716
  676SOL    HW1 2036   0.632   3.605   1.725
  676SOL    HW2 2037   0.740   3.528   1.630
  677SOL     OW 2038   0.903   1.948   0.133
  677SOL    HW1 2039   0.954   1.949   0.047
  677SOL    HW2 2040   0.959   1.906   0.204
  678SOL     OW 2041   1.726   1.997   0.523
  678SOL    HW1 2042   1.799   1.980   0.456
  678SOL    HW2 2043   1.695   1.910   0.561
  679SOL     OW 2044   1.388   3.435   0.477
  679SOL    HW1 2045   1.455   3.447   0.403
  679SOL    HW2 2046   1.348   3.524   0.500
  680SOL     OW 2047   0.130   3.656   1.851
  680SOL    HW1 2048   0.089   3.582   1.904
  680SOL    HW2 2049   0.194   3.707   1.909
  681SOL     OW 2050   1.280   2.789   0.672
  681SOL    HW1 2051   1.340   2.708   0.674
  681SOL    HW2 2052   1.320   2.858   0.612
  682SOL     OW 2053   0.830   3.135   1.422
  682SOL    HW1 2054   0.825   3.168   1.517
  682SOL    HW2 2055   0.744   3.154   1.376
  683SOL     OW 2056   0.672   3.478   0.154
  683SOL    HW1 2057   0.681   3.488   0.055
  683SOL    HW2 2058   0.632   3.389   0.175
  684SOL     OW 2059   1.650   3.582   1.394
  684SOL    HW1 2060   1.703   3.592   1.310
  684SOL    HW2 2061   1.623   3.672   1.428
  685SOL     OW 2062   1.841   2.037   0.963
  685SOL    HW1 2063   1.880   1.952   0.927
  685SOL    HW2 2064   1.743   2.039   0.944
  686SOL     OW 2065   0.263   2.188   0.720
  686SOL    HW1 2066   0.184   2.239   0.686
  686SOL    HW2 2067   0.254   2.173   0.818
  687SOL     OW 2068   1.194   3.474   0.031
  687SOL    HW1 2069   1.200   3.381   0.068
  687SOL    HW2 2070   1.135   3.474  -0.049
  688SOL     OW 2071   0.822   2.864   1.372
  688SOL    HW1 2072   0.862   2.863   1.280
  688SOL    HW2 2073   0.832   2.956   1.412
  689SOL     OW 2074   0.916   2.772   0.291
  689SOL    HW1 2075   0.979   2.810   0.223
  689SOL    HW2 2076   0.956   2.689   0.330
  690SOL     OW 2077   1.504   3.469   0.044
  690SOL    HW1 2078   1.412   3.506   0.051
  690SOL    HW2 2079   1.542   3.489  -0.046
  691SOL     OW 2080   0.372   3.150   1.490
  691SOL    HW1 2081   0.359   3.243   1.456
  691SOL    HW2 2082   0.288   3.098   1.477
  692SOL     OW 2083   1.614   3.154   1.289
  692SOL    HW1 2084   1.674   3.157   1.369
  692SOL    HW2 2085   1.539   3.218   1.302
  693SOL     OW 2086   1.039   2.960   0.696
  693SOL    HW1 2087   0.969   2.913   0.750
  693SOL    HW2 2088   1.098   2.892   0.653
  694SOL     OW 2089   1.014   2.098   0.971
  694SOL    HW1 2090   1.006   2.062   0.878
  694SOL    HW2 2091   1.012   2.022   1.036
  695SOL     OW 2092   0.590   3.349   0.491
  695SOL    HW1 2093   0.632   3.291   0.421
  695SOL    HW2 2094   0.546   3.428   0.447
  696SOL     OW 2095   1.709   2.247   1.381
  696SOL    HW1 2096   1.782   2.316   1.385
  696SOL    HW2 2097   1.737   2.172   1.322
  697SOL     OW 2098   0.255   3.210   0.290
  697SOL    HW1 2099   0.159   3.211   0.263
  697SOL    HW2 2100   0.267   3.263   0.374
  698SOL     OW 2101   0.105   2.875   1.726
  698SOL    HW1 2102   0.028   2.842   1.780
  698SOL    HW2 2103   0.190   2.845   1.768
  699SOL     OW 2104   0.672   2.065   1.489
  699SOL    HW1 2105   0.762   2.049   1.449
  699SOL    HW2 2106   0.680   2.070   1.588
  700SOL     OW 2107   0.075   2.207   0.033
  700SOL    HW1 2108  -0.017   2.179   0.004
  700SOL    HW2 2109   0.106   2.284  -0.023
  701SOL     OW 2110   1.440   2.718   1.398
  701SOL    HW1 2111   1.383   2.770   1.335
  701SOL    HW2 2112   1.536   2.730   1.374
  702SOL     OW 2113   0.072   2.028   0.318
  702SOL    HW1 2114   0.055   2.111   0.264
  702SOL    HW2 2115   0.162   1.991   0.296
  703SOL     OW 2116   1.183   3.197   0.119
  703SOL    HW1 2117   1.084   3.186   0.121
  703SOL    HW2 2118   1.217   3.212   0.212
  704SOL     OW 2119   0.613   2.704   1.431
  704SOL    HW1 2120   0.669   2.785   1.414
  704SOL    HW2 2121   0.672   2.624   1.434
  705SOL     OW 2122   1.493   3.629   0.959
  705SOL    HW1 2123   1.526   3.693   0.890
  705SOL    HW2 2124   1.559   3.623   1.034
  706SOL     OW 2125   0.716   2.427   1.708
  706SOL    HW1 2126   0.735   2.492   1.782
  706SOL    HW2 2127   0.776   2.347   1.717
  707SOL     OW 2128   1.450   3.082   1.633
  707SOL    HW1 2129   1.441   3.072   1.732
  707SOL    HW2 2130   1.546   3.075   1.607
  708SOL     OW 2131   0.390   3.603   1.560
  708SOL    HW1 2132   0.299   3.644   1.558
  708SOL    HW2 2133   0.383   3.509   1.592
  709SOL     OW 2134   1.674   2.745   1.254
  709SOL    HW1 2135   1.647   2.656   1.217
  709SOL    HW2 2136   1.675   2.813   1.181
  710SOL     OW 2137   1.225   2.187   0.449
  710SOL    HW1 2138   1.290   2.113   0.438
  710SOL    HW2 2139   1.245   2.237   0.533
  711SOL     OW 2140   0.594   2.607   0.652
  711SOL    HW1 2141   0.644   2.692   0.633
  711SOL    HW2 2142   0.506   2.609   0.604
  712SOL     OW 2143   1.777   2.204   1.642
  712SOL    HW1 2144   1.760   2.235   1.548
  712SOL    HW2 2145   1.693   2.167   1.680
  713SOL     OW 2146   1.730   2.796   1.517
  713SOL    HW1 2147   1.768   2.887   1.532
  713SOL    HW2 2148   1.722   2.779   1.418
  714SOL     OW 2149   0.859   3.236   0.016
  714SOL    HW1 2150   0.813   3.251   0.104
  714SOL    HW2 2151   0.903   3.321  -0.014
  715SOL     OW 2152   0.661   3.652   0.953
  715SOL    HW1 2153   0.615   3.740   0.940
  715SOL    HW2 2154   0.760   3.664   0.946
  716SOL     OW 2155   0.859   2.818   0.861
  716SOL    HW1 2156   0.913   2.749   0.909
  716SOL    HW2 2157   0.827   2.887   0.927
  717SOL     OW 2158   1.083   2.846   0.087
  717SOL    HW1 2159   1.060   2.899   0.005
  717SOL    HW2 2160   1.164   2.790   0.068
  718SOL     OW 2161   1.861   3.431   0.851
  718SOL    HW1 2162   1.790   3.419   0.781
  718SOL    HW2 2163   1.862   3.352   0.911
  719SOL     OW 2164   0.221   3.176   1.844
  719SOL    HW1 2165   0.156   3.103   1.823
  719SOL    HW2 2166   0.225   3.190   1.942
  720SOL     OW 2167   0.079   3.102   0.653
  720SOL    HW1 2168   0.078   3.055   0.741
  720SOL    HW2 2169   0.161   3.074   0.602
  721SOL     OW 2170   0.672   3.253   1.624
  721SOL    HW1 2171   0.594   3.203   1.662
  721SOL    HW2 2172   0.669   3.348   1.655
  722SOL     OW 2173   1.824   2.054   1.227
  722SOL    HW1 2174   1.820   1.964   1.271
  722SOL    HW2 2175   1.827   2.043   1.128
  723SOL     OW 2176   0.428   2.286   0.520
  723SOL    HW1 2177   0.458   2.214   0.458
  723SOL    HW2 2178   0.389   2.246   0.603
  724SOL     OW 2179   1.705   3.349   1.104
  724SOL    HW1 2180   1.612   3.324   1.077
  724SOL    HW2 2181   1.731   3.299   1.186
  725SOL     OW 2182   0.317   2.409   1.280
  725SOL    HW1 2183   0.355   2.350   1.352
  725SOL    HW2 2184   0.357   2.383   1.192
  726SOL     OW 2185   0.812   3.448   0.687
  726SOL    HW1 2186   0.844   3.458   0.593
  726SOL    HW2 2187   0.733   3.386   0.689
  727SOL     OW 2188   1.424   2.076   1.112
  727SOL    HW1 2189   1.476   2.011   1.167
  727SOL    HW2 2190   1.375   2.139   1.173
  728SOL     OW 2191   1.001   1.896   1.154
  728SOL    HW1 2192   0.938   1.824   1.123
  728SOL    HW2 2193   1.094   1.860   1.154
  729SOL     OW 2194   0.770   3.192   0.301
  729SOL    HW1 2195   0.724   3.105   0.318
  729SOL    HW2 2196   0.861   3.189   0.342
  730SOL     OW 2197   0.618   3.429   1.284
  730SOL    HW1 2198   0.613   3.511   1.341
  730SOL    HW2 2199   0.707   3.426   1.239
  731SOL     OW 2200   1.352   1.914   0.168
  731SOL    HW1 2201   1.387   1.873   0.084
  731SOL    HW2 2202   1.262   1.876   0.188
  732SOL     OW 2203   1.300   2.315   0.691
  732SOL    HW1 2204   1.241   2.395   0.695
  732SOL    HW2 2205   1.315   2.280   0.784
  733SOL     OW 2206   1.593   2.083   0.882
  733SOL    HW1 2207   1.509   2.082   0.936
  733SOL    HW2 2208   1.595   2.166   0.826
  734SOL     OW 2209   0.039   2.939   0.300
  734SOL    HW1 2210   0.138   2.928   0.291
  734SOL    HW2 2211  -0.001   2.853   0.332
  735SOL     OW 2212   0.875   3.508   0.337
  735SOL    HW1 2213   0.798   3.473   0.283
  735SOL    HW2 2214   0.843   3.579   0.399
  736SOL     OW 2215   0.230   2.490   1.975
  736SOL    HW1 2216   0.137   2.488   2.012
  736SOL    HW2 2217   0.231   2.451   1.883
  737SOL     OW 2218   0.225   2.137   2.858
  737SOL    HW1 2219   0.260   2.120   2.950
  737SOL    HW2 2220   0.137   2.092   2.846
  738SOL     OW 2221   0.019   2.230   2.509
  738SOL    HW1 2222  -0.063   2.273   2.548
  738SOL    HW2 2223  -0.009   2.157   2.446
  739SOL     OW 2224   0.569   3.137   3.027
  739SOL    HW1 2225   0.476   3.130   2.990
  739SOL    HW2 2226   0.580   3.226   3.071
  740SOL     OW 2227   1.555   3.373   2.565
  740SOL    HW1 2228   1.498   3.357   2.646
  740SOL    HW2 2229   1.496   3.383   2.485
  741SOL     OW 2230   1.135   2.565   2.579
  741SOL    HW1 2231   1.192   2.643   2.554
  741SOL    HW2 2232   1.075   2.591   2.655
  742SOL     OW 2233   1.755   2.469   2.093
  742SOL    HW1 2234   1.743   2.456   1.994
  742SOL    HW2 2235   1.725   2.388   2.142
  743SOL     OW 2236   0.768   3.006   2.885
  743SOL    HW1 2237   0.690   3.023   2.945
  743SOL    HW2 2238   0.802   3.093   2.849
  744SOL     OW 2239   0.850   2.660   3.685
  744SOL    HW1 2240   0.846   2.736   3.750
  744SOL    HW2 2241   0.872   2.696   3.594
  745SOL     OW 2242   0.685   2.874   2.527
  745SOL    HW1 2243   0.754   2.858   2.597
  745SOL    HW2 2244   0.612   2.931   2.565
  746SOL     OW 2245   0.686   3.023   3.665
  746SOL    HW1 2246   0.746   3.102   3.679
  746SOL    HW2 2247   0.600   3.054   3.624
  747SOL     OW 2248   0.335   3.297   2.923
  747SOL    HW1 2249   0.257   3.266   2.870
  747SOL    HW2 2250   0.393   3.355   2.866
  748SOL     OW 2251   1.460   3.367   3.201
  748SOL    HW1 2252   1.484   3.461   3.227
  748SOL    HW2 2253   1.444   3.313   3.283
  749SOL     OW 2254   0.438   2.254   3.361
  749SOL    HW1 2255   0.520   2.198   3.370
  749SOL    HW2 2256   0.357   2.196   3.365
  750SOL     OW 2257   1.603   2.309   2.599
  750SOL    HW1 2258   1.529   2.355   2.549
  750SOL    HW2 2259   1.654   2.377   2.652
  751SOL     OW 2260   0.231   3.575   2.345
  751SOL    HW1 2261   0.265   3.652   2.399
  751SOL    HW2 2262   0.275   3.575   2.255
  752SOL     OW 2263   1.127   3.203   3.552
  752SOL    HW1 2264   1.174   3.203   3.640
  752SOL    HW2 2265   1.079   3.116   3.541
  753SOL     OW 2266   0.230   3.296   2.400
  753SOL    HW1 2267   0.204   3.392   2.400
  753SOL    HW2 2268   0.159   3.242   2.445
  754SOL     OW 2269   0.240   2.953   2.748
  754SOL    HW1 2270   0.254   2.869   2.800
  754SOL    HW2 2271   0.185   3.017   2.803
  755SOL     OW 2272   0.620   3.648   3.301
  755SOL    HW1 2273   0.528   3.631   3.336
  755SOL    HW2 2274   0.648   3.740   3.327
  756SOL     OW 2275   0.606   2.826   1.985
  756SOL    HW1 2276   0.613   2.910   1.931
  756SOL    HW2 2277   0.652   2.839   2.073
  757SOL     OW 2278   1.594   1.976   3.342
  757SOL    HW1 2279   1.576   2.043   3.270
  757SOL    HW2 2280   1.591   2.022   3.431
  758SOL     OW 2281   0.122   2.505   2.425
  758SOL    HW1 2282   0.077   2.417   2.442
  758SOL    HW2 2283   0.121   2.559   2.509
  759SOL     OW 2284   1.842   3.629   2.221
  759SOL    HW1 2285   1.896   3.600   2.301
  759SOL    HW2 2286   1.872   3.719   2.192
  760SOL     OW 2287   0.027   3.458   1.979
  760SOL    HW1 2288   0.008   3.362   2.000
  760SOL    HW2 2289  -0.006   3.516   2.054
  761SOL     OW 2290   1.689   2.784   2.474
  761SOL    HW1 2291   1.784   2.755   2.482
  761SOL    HW2 2292   1.681   2.849   2.399
  762SOL     OW 2293   1.641   2.970   2.294
  762SOL    HW1 2294   1.727   2.972   2.242
  762SOL    HW2 2295   1.655   3.017   2.382
  763SOL     OW 2296   0.113   2.599   3.459
  763SOL    HW1 2297   0.201   2.586   3.504
  763SOL    HW2 2298   0.100   2.696   3.437
  764SOL     OW 2299   0.613   3.227   2.588
  764SOL    HW1 2300   0.564   3.140   2.597
  764SOL    HW2 2301   0.590   3.270   2.501
  765SOL     OW 2302   1.293   3.090   3.285
  765SOL    HW1 2303   1.330   3.017   3.227
  765SOL    HW2 2304   1.345   3.095   3.370
  766SOL     OW 2305   0.809   1.866   2.364
  766SOL    HW1 2306   0.849   1.957   2.355
  766SOL    HW2 2307   0.709   1.874   2.370
  767SOL     OW 2308   0.197   2.838   3.126
  767SOL    HW1 2309   0.286   2.793   3.112
  767SOL    HW2 2310   0.124   2.773   3.107
  768SOL     OW 2311   1.525   2.861   2.052
  768SOL    HW1 2312   1.462   2.785   2.065
  768SOL    HW2 2313   1.573   2.879   2.138
  769SOL     OW 2314   1.187   3.654   3.478
  769SOL    HW1 2315   1.211   3.714   3.402
  769SOL    HW2 2316   1.194   3.559   3.448
  770SOL     OW 2317   0.317   2.113   3.663
  770SOL    HW1 2318   0.388   2.184   3.669
  770SOL    HW2 2319   0.229   2.152   3.691
  771SOL     OW 2320   1.466   3.279   2.815
  771SOL    HW1 2321   1.407   3.285   2.895
  771SOL    HW2 2322   1.451   3.191   2.769
  772SOL     OW 2323   1.667   3.576   2.434
  772SOL    HW1 2324   1.626   3.553   2.346
  772SOL    HW2 2325   1.649   3.502   2.499
  773SOL     OW 2326   0.598   2.591   2.132
  773SOL    HW1 2327   0.622   2.660   2.064
  773SOL    HW2 2328   0.520   2.624   2.186
  774SOL     OW 2329   1.281   2.207   2.806
  774SOL    HW1 2330   1.195   2.157   2.793
  774SOL    HW2 2331   1.343   2.153   2.862
  775SOL     OW 2332   1.576   3.524   2.169
  775SOL    HW1 2333   1.665   3.570   2.172
  775SOL    HW2 2334   1.555   3.500   2.074
  776SOL     OW 2335   0.807   2.467   3.327
  776SOL    HW1 2336   0.760   2.464   3.416
  776SOL    HW2 2337   0.756   2.412   3.261
  777SOL     OW 2338   1.394   2.331   3.536
  777SOL    HW1 2339   1.374   2.374   3.624
  777SOL    HW2 2340   1.472   2.269   3.545
  778SOL     OW 2341   0.973   2.752   3.434
  778SOL    HW1 2342   1.019   2.668   3.405
  778SOL    HW2 2343   0.917   2.786   3.359
  779SOL     OW 2344   0.991   2.272   3.104
  779SOL    HW1 2345   0.914   2.306   3.158
  779SOL    HW2 2346   0.957   2.221   3.025
  780SOL     OW 2347   1.041   2.563   2.291
  780SOL    HW1 2348   1.067   2.559   2.387
  780SOL    HW2 2349   0.956   2.512   2.277
  781SOL     OW 2350   0.076   2.673   2.651
  781SOL    HW1 2351   0.175   2.661   2.660
  781SOL    HW2 2352   0.052   2.768   2.672
  782SOL     OW 2353   0.130   3.683   3.433
  782SOL    HW1 2354   0.120   3.668   3.532
  782SOL    HW2 2355   0.044   3.719   3.397
  783SOL     OW 2356   0.865   2.210   2.057
  783SOL    HW1 2357   0.924   2.273   2.008
  783SOL    HW2 2358   0.884   2.116   2.028
  784SOL     OW 2359   1.719   2.447   3.693
  784SOL    HW1 2360   1.693   2.536   3.657
  784SOL    HW2 2361   1.717   2.379   3.620
  785SOL     OW 2362   1.362   3.006   2.407
  785SOL    HW1 2363   1.445   2.977   2.359
  785SOL    HW2 2364   1.313   3.073   2.351
  786SOL     OW 2365   0.550   2.058   2.747
  786SOL    HW1 2366   0.545   2.053   2.847
  786SOL    HW2 2367   0.552   2.154   2.718
  787SOL     OW 2368   1.008   3.318   2.339
  787SOL    HW1 2369   0.962   3.390   2.287
  787SOL    HW2 2370   1.004   3.338   2.437
  788SOL     OW 2371   0.351   3.663   2.715
  788SOL    HW1 2372   0.401   3.577   2.721
  788SOL    HW2 2373   0.416   3.740   2.712
  789SOL     OW 2374   1.795   2.928   2.735
  789SOL    HW1 2375   1.733   2.913   2.659
  789SOL    HW2 2376   1.743   2.939   2.820
  790SOL     OW 2377   1.227   3.412   3.368
  790SOL    HW1 2378   1.233   3.335   3.432
  790SOL    HW2 2379   1.175   3.386   3.288
  791SOL     OW 2380   0.321   2.805   2.104
  791SOL    HW1 2381   0.403   2.844   2.062
  791SOL    HW2 2382   0.294   2.723   2.055
  792SOL     OW 2383   1.458   2.597   2.590
  792SOL    HW1 2384   1.453   2.532   2.665
  792SOL    HW2 2385   1.538   2.656   2.603
  793SOL     OW 2386   0.461   3.128   3.589
  793SOL    HW1 2387   0.411   3.129   3.503
  793SOL    HW2 2388   0.398   3.110   3.665
  794SOL     OW 2389   1.111   3.638   2.099
  794SOL    HW1 2390   1.051   3.576   2.149
  794SOL    HW2 2391   1.142   3.594   2.014
  795SOL     OW 2392   0.202   2.147   3.360
  795SOL    HW1 2393   0.122   2.207   3.347
  795SOL    HW2 2394   0.192   2.098   3.446
  796SOL     OW 2395   1.632   3.239   1.943
  796SOL    HW1 2396   1.600   3.333   1.933
  796SOL    HW2 2397   1.556   3.176   1.931
  797SOL     OW 2398   0.464   3.605   2.185
  797SOL    HW1 2399   0.497   3.644   2.271
  797SOL    HW2 2400   0.540   3.598   2.120
  798SOL     OW 2401   1.400   1.969   2.288
  798SOL    HW1 2402   1.376   1.932   2.198
  798SOL    HW2 2403   1.499   1.985   2.292
  799SOL     OW 2404   0.249   3.647   3.103
  799SOL    HW1 2405   0.306   3.582   3.153
  799SOL    HW2 2406   0.233   3.614   3.010
  800SOL     OW 2407   0.940   3.560   2.766
  800SOL    HW1 2408   1.020   3.503   2.787
  800SOL    HW2 2409   0.891   3.520   2.689
  801SOL     OW 2410   0.382   2.562   2.342
  801SOL    HW1 2411   0.427   2.472   2.339
  801SOL    HW2 2412   0.288   2.551   2.375
  802SOL     OW 2413   1.547   2.084   3.591
  802SOL    HW1 2414   1.542   2.121   3.683
  802SOL    HW2 2415   1.475   2.015   3.579
  803SOL     OW 2416   0.614   1.984   1.979
  803SOL    HW1 2417   0.712   1.962   1.986
  803SOL    HW2 2418   0.583   1.967   1.886
  804SOL     OW 2419   0.781   2.126   3.611
  804SOL    HW1 2420   0.848   2.065   3.654
  804SOL    HW2 2421   0.708   2.145   3.676
  805SOL     OW 2422   0.888   3.376   3.057
  805SOL    HW1 2423   0.865   3.351   2.963
  805SOL    HW2 2424   0.949   3.307   3.096
  806SOL     OW 2425   1.351   2.452   3.295
  806SOL    HW1 2426   1.379   2.409   3.380
  806SOL    HW2 2427   1.376   2.548   3.296
  807SOL     OW 2428   0.803   3.264   2.786
  807SOL    HW1 2429   0.893   3.278   2.744
  807SOL    HW2 2430   0.732   3.266   2.715
  808SOL     OW 2431   0.922   2.365   2.761
  808SOL    HW1 2432   0.897   2.356   2.665
  808SOL    HW2 2433   0.970   2.283   2.792
  809SOL     OW 2434   0.539   1.926   2.374
  809SOL    HW1 2435   0.458   1.927   2.432
  809SOL    HW2 2436   0.542   2.009   2.319
  810SOL     OW 2437   1.434   3.050   1.903
  810SOL    HW1 2438   1.466   2.974   1.960
  810SOL    HW2 2439   1.342   3.077   1.933
  811SOL     OW 2440   0.297   1.897   2.033
  811SOL    HW1 2441   0.346   1.981   2.012
  811SOL    HW2 2442   0.359   1.832   2.078
  812SOL     OW 2443   0.935   2.098   2.342
  812SOL    HW1 2444   0.887   2.139   2.264
  812SOL    HW2 2445   1.034   2.096   2.323
  813SOL     OW 2446   1.076   2.545   3.326
  813SOL    HW1 2447   0.996   2.484   3.329
  813SOL    HW2 2448   1.157   2.492   3.302
  814SOL     OW 2449   1.227   3.432   2.655
  814SOL    HW1 2450   1.248   3.506   2.590
  814SOL    HW2 2451   1.295   3.432   2.728
  815SOL     OW 2452   0.459   3.014   2.603
  815SOL    HW1 2453   0.388   2.987   2.668
  815SOL    HW2 2454   0.433   2.986   2.510
  816SOL     OW 2455   1.271   3.659   2.453
  816SOL    HW1 2456   1.315   3.723   2.389
  816SOL    HW2 2457   1.221   3.711   2.523
  817SOL     OW 2458   1.032   2.411   1.878
  817SOL    HW1 2459   0.991   2.493   1.839
  817SOL    HW2 2460   1.096   2.437   1.951
  818SOL     OW 2461   0.078   2.418   3.248
  818SOL    HW1 2462   0.170   2.417   3.207
  818SOL    HW2 2463   0.072   2.492   3.315
  819SOL     OW 2464   0.561   2.084   3.009
  819SOL    HW1 2465   0.599   2.000   3.046
  819SOL    HW2 2466   0.473   2.103   3.053
  820SOL     OW 2467   0.866   2.316   2.504
  820SOL    HW1 2468   0.834   2.388   2.442
  820SOL    HW2 2469   0.890   2.235   2.451
  821SOL     OW 2470   1.017   1.901   2.615
  821SOL    HW1 2471   0.945   1.906   2.546
  821SOL    HW2 2472   0.993   1.832   2.684
  822SOL     OW 2473   1.429   3.035   2.729
  822SOL    HW1 2474   1.374   2.951   2.722
  822SOL    HW2 2475   1.455   3.064   2.637
  823SOL     OW 2476   1.466   2.452   2.854
  823SOL    HW1 2477   1.436   2.357   2.861
  823SOL    HW2 2478   1.539   2.468   2.920
  824SOL     OW 2479   1.857   2.695   2.239
  824SOL    HW1 2480   1.899   2.631   2.303
  824SOL    HW2 2481   1.819   2.644   2.161
  825SOL     OW 2482   0.488   3.247   2.036
  825SOL    HW1 2483   0.401   3.232   2.083
  825SOL    HW2 2484   0.471   3.273   1.941
  826SOL     OW 2485   1.664   3.142   2.519
  826SOL    HW1 2486   1.763   3.150   2.533
  826SOL    HW2 2487   1.619   3.226   2.550
  827SOL     OW 2488   1.390   2.437   1.940
  827SOL    HW1 2489   1.336   2.416   2.021
  827SOL    HW2 2490   1.481   2.396   1.949
  828SOL     OW 2491   0.527   2.118   2.190
  828SOL    HW1 2492   0.554   2.059   2.115
  828SOL    HW2 2493   0.527   2.213   2.159
  829SOL     OW 2494   1.754   3.085   3.450
  829SOL    HW1 2495   1.845   3.046   3.437
  829SOL    HW2 2496   1.762   3.181   3.474
  830SOL     OW 2497   1.064   3.209   3.202
  830SOL    HW1 2498   0.984   3.186   3.257
  830SOL    HW2 2499   1.147   3.183   3.251
  831SOL     OW 2500   1.592   3.491   3.487
  831SOL    HW1 2501   1.619   3.525   3.397
  831SOL    HW2 2502   1.671   3.453   3.533
  832SOL     OW 2503   1.111   3.057   2.962
  832SOL    HW1 2504   1.071   3.101   3.043
  832SOL    HW2 2505   1.070   3.094   2.879
  833SOL     OW 2506   1.638   2.961   2.941
  833SOL    HW1 2507   1.643   3.042   3.000
  833SOL    HW2 2508   1.552   2.963   2.890
  834SOL     OW 2509   0.915   1.951   3.264
  834SOL    HW1 2510   0.940   1.931   3.169
  834SOL    HW2 2511   0.987   2.007   3.306
  835SOL     OW 2512   0.980   2.978   3.581
  835SOL    HW1 2513   0.881   2.984   3.591
  835SOL    HW2 2514   1.003   2.898   3.525
  836SOL     OW 2515   0.705   2.912   2.230
  836SOL    HW1 2516   0.691   2.919   2.329
  836SOL    HW2 2517   0.789   2.861   2.212
  837SOL     OW 2518   0.410   2.675   3.113
  837SOL    HW1 2519   0.496   2.687   3.163
  837SOL    HW2 2520   0.368   2.588   3.140
  838SOL     OW 2521   1.274   2.248   3.124
  838SOL    HW1 2522   1.295   2.322   3.188
  838SOL    HW2 2523   1.185   2.265   3.081
  839SOL     OW 2524   0.064   3.426   3.193
  839SOL    HW1 2525   0.018   3.508   3.159
  839SOL    HW2 2526   0.162   3.445   3.202
  840SOL     OW 2527   0.367   2.962   2.363
  840SOL    HW1 2528   0.360   3.045   2.307
  840SOL    HW2 2529   0.371   2.882   2.303
  841SOL     OW 2530   0.566   2.399   2.727
  841SOL    HW1 2531   0.578   2.465   2.653
  841SOL    HW2 2532   0.612   2.433   2.810
  842SOL     OW 2533   1.252   3.210   2.250
  842SOL    HW1 2534   1.302   3.287   2.290
  842SOL    HW2 2535   1.157   3.212   2.282
  843SOL     OW 2536   1.272   3.307   3.004
  843SOL    HW1 2537   1.319   3.320   3.091
  843SOL    HW2 2538   1.206   3.233   3.013
  844SOL     OW 2539   1.582   2.501   2.334
  844SOL    HW1 2540   1.551   2.562   2.407
  844SOL    HW2 2541   1.632   2.553   2.265
  845SOL     OW 2542   0.354   3.372   3.191
  845SOL    HW1 2543   0.333   3.328   3.104
  845SOL    HW2 2544   0.451   3.398   3.194
  846SOL     OW 2545   0.402   2.613   3.460
  846SOL    HW1 2546   0.470   2.668   3.413
  846SOL    HW2 2547   0.442   2.525   3.487
  847SOL     OW 2548   1.587   2.641   3.532
  847SOL    HW1 2549   1.495   2.679   3.527
  847SOL    HW2 2550   1.647   2.688   3.467
  848SOL     OW 2551   1.013   1.967   3.632
  848SOL    HW1 2552   1.019   2.052   3.580
  848SOL    HW2 2553   1.045   1.891   3.575
  849SOL     OW 2554   0.504   1.912   3.602
  849SOL    HW1 2555   0.462   1.855   3.532
  849SOL    HW2 2556   0.438   1.981   3.634
  850SOL     OW 2557   0.573   2.732   2.891
  850SOL    HW1 2558   0.617   2.821   2.882
  850SOL    HW2 2559   0.510   2.732   2.968
  851SOL     OW 2560   1.360   2.724   2.907
  851SOL    HW1 2561   1.285   2.724   2.841
  851SOL    HW2 2562   1.397   2.632   2.916
  852SOL     OW 2563   1.209   2.387   2.137
  852SOL    HW1 2564   1.222   2.303   2.191
  852SOL    HW2 2565   1.180   2.461   2.197
  853SOL     OW 2566   0.307   2.075   3.093
  853SOL    HW1 2567   0.284   2.112   3.183
  853SOL    HW2 2568   0.277   1.980   3.087
  854SOL     OW 2569   0.037   3.172   3.144
  854SOL    HW1 2570   0.090   3.123   3.212
  854SOL    HW2 2571   0.059   3.270   3.149
  855SOL     OW 2572   0.732   2.496   2.926
  855SOL    HW1 2573   0.791   2.470   2.850
  855SOL    HW2 2574   0.704   2.592   2.915
  856SOL     OW 2575   1.728   2.797   3.716
  856SOL    HW1 2576   1.682   2.790   3.627
  856SOL    HW2 2577   1.666   2.841   3.782
  857SOL     OW 2578   0.307   1.925   2.480
  857SOL    HW1 2579   0.296   2.019   2.513
  857SOL    HW2 2580   0.302   1.862   2.557
  858SOL     OW 2581   1.622   2.229   2.236
  858SOL    HW1 2582   1.624   2.153   2.300
  858SOL    HW2 2583   1.574   2.306   2.276
  859SOL     OW 2584   1.023   2.628   2.828
  859SOL    HW1 2585   1.038   2.649   2.924
  859SOL    HW2 2586   0.993   2.533   2.819
  860SOL     OW 2587   0.980   3.435   3.562
  860SOL    HW1 2588   0.960   3.479   3.474
  860SOL    HW2 2589   1.019   3.344   3.546
  861SOL     OW 2590   1.859   3.380   3.467
  861SOL    HW1 2591   1.873   3.407   3.372
  861SOL    HW2 2592   1.942   3.402   3.520
  862SOL     OW 2593   0.350   2.760   3.666
  862SOL    HW1 2594   0.426   2.804   3.714
  862SOL    HW2 2595   0.385   2.713   3.584
  863SOL     OW 2596   1.540   2.136   1.987
  863SOL    HW1 2597   1.479   2.061   2.010
  863SOL    HW2 2598   1.562   2.188   2.070
  864SOL     OW 2599   1.303   2.700   1.904
  864SOL    HW1 2600   1.337   2.607   1.919
  864SOL    HW2 2601   1.321   2.727   1.809
  865SOL     OW 2602   1.068   3.195   2.711
  865SOL    HW1 2603   1.075   3.111   2.656
  865SOL    HW2 2604   1.130   3.264   2.675
  866SOL     OW 2605   0.319   2.672   2.811
  866SOL    HW1 2606   0.412   2.708   2.816
  866SOL    HW2 2607   0.313   2.587   2.863
  867SOL     OW 2608   0.339   2.371   2.868
  867SOL    HW1 2609   0.287   2.288   2.851
  867SOL    HW2 2610   0.416   2.376   2.804
  868SOL     OW 2611   1.138   2.242   3.540
  868SOL    HW1 2612   1.093   2.305   3.604
  868SOL    HW2 2613   1.231   2.273   3.523
  869SOL     OW 2614   1.160   2.069   3.339
  869SOL    HW1 2615   1.160   2.133   3.416
  869SOL    HW2 2616   1.188   2.117   3.256
  870SOL     OW 2617   0.008   3.188   2.062
  870SOL    HW1 2618  -0.085   3.209   2.031
  870SOL    HW2 2619   0.018   3.089   2.075
  871SOL     OW 2620   0.088   3.663   2.789
  871SOL    HW1 2621   0.046   3.577   2.762
  871SOL    HW2 2622   0.182   3.666   2.755
  872SOL     OW 2623   0.504   3.430   2.772
  872SOL    HW1 2624   0.570   3.504   2.781
  872SOL    HW2 2625   0.548   3.351   2.730
  873SOL     OW 2626   1.002   2.658   3.100
  873SOL    HW1 2627   1.043   2.626   3.186
  873SOL    HW2 2628   0.906   2.631   3.097
  874SOL     OW 2629   0.040   2.406   2.976
  874SOL    HW1 2630   0.125   2.373   2.935
  874SOL    HW2 2631   0.053   2.421   3.074
  875SOL     OW 2632   0.189   2.382   3.584
  875SOL    HW1 2633   0.248   2.342   3.514
  875SOL    HW2 2634   0.131   2.453   3.543
  876SOL     OW 2635   1.369   2.812   3.522
  876SOL    HW1 2636   1.408   2.901   3.542
  876SOL    HW2 2637   1.379   2.792   3.425
  877SOL     OW 2638   0.815   2.434   2.187
  877SOL    HW1 2639   0.822   2.345   2.141
  877SOL    HW2 2640   0.721   2.468   2.179
  878SOL     OW 2641   1.657   2.466   3.068
  878SOL    HW1 2642   1.619   2.397   3.130
  878SOL    HW2 2643   1.739   2.430   3.024
  879SOL     OW 2644   0.252   3.426   3.606
  879SOL    HW1 2645   0.222   3.483   3.682
  879SOL    HW2 2646   0.245   3.329   3.632
  880SOL     OW 2647   0.671   2.326   3.131
  880SOL    HW1 2648   0.637   2.237   3.101
  880SOL    HW2 2649   0.697   2.380   3.051
  881SOL     OW 2650   0.930   3.540   3.327
  881SOL    HW1 2651   0.906   3.522   3.232
  881SOL    HW2 2652   0.960   3.634   3.337
  882SOL     OW 2653   0.473   2.362   2.053
  882SOL    HW1 2654   0.534   2.442   2.057
  882SOL    HW2 2655   0.378   2.393   2.060
  883SOL     OW 2656   0.159   2.999   3.328
  883SOL    HW1 2657   0.181   2.938   3.404
  883SOL    HW2 2658   0.169   2.950   3.242
  884SOL     OW 2659   1.347   2.921   3.096
  884SOL    HW1 2660   1.371   2.858   3.022
  884SOL    HW2 2661   1.257   2.961   3.078
  885SOL     OW 2662   1.302   2.717   2.171
  885SOL    HW1 2663   1.216   2.686   2.213
  885SOL    HW2 2664   1.298   2.703   2.072
  886SOL     OW 2665   1.759   3.609   3.016
  886SOL    HW1 2666   1.820   3.639   2.943
  886SOL    HW2 2667   1.721   3.520   2.994
  887SOL     OW 2668   1.252   3.593   2.990
  887SOL    HW1 2669   1.336   3.598   2.936
  887SOL    HW2 2670   1.229   3.497   3.008
  888SOL     OW 2671   0.083   3.120   2.884
  888SOL    HW1 2672   0.078   3.119   2.984
  888SOL    HW2 2673   0.000   3.079   2.846
  889SOL     OW 2674   0.688   3.524   3.578
  889SOL    HW1 2675   0.632   3.605   3.587
  889SOL    HW2 2676   0.740   3.528   3.492
  890SOL     OW 2677   1.726   1.997   2.385
  890SOL    HW1 2678   1.799   1.980   2.318
  890SOL    HW2 2679   1.695   1.910   2.423
  891SOL     OW 2680   1.388   3.435   2.339
  891SOL    HW1 2681   1.455   3.447   2.265
  891SOL    HW2 2682   1.348   3.524   2.362
  892SOL     OW 2683   0.130   3.656   3.713
  892SOL    HW1 2684   0.089   3.582   3.766
  892SOL    HW2 2685   0.194   3.707   3.771
  893SOL     OW 2686   1.280   2.789   2.534
  893SOL    HW1 2687   1.340   2.708   2.536
  893SOL    HW2 2688   1.320   2.858   2.474
  894SOL     OW 2689   0.830   3.135   3.284
  894SOL    HW1 2690   0.825   3.168   3.379
  894SOL    HW2 2691   0.744   3.154   3.238
  895SOL     OW 2692   0.672   3.478   2.016
  895SOL    HW1 2693   0.681   3.488   1.917
  895SOL    HW2 2694   0.632   3.389   2.037
  896SOL     OW 2695   1.650   3.582   3.256
  896SOL    HW1 2696   1.703   3.592   3.172
  896SOL    HW2 2697   1.623   3.672   3.290
  897SOL     OW 2698   1.841   2.037   2.825
  897SOL    HW1 2699   1.880   1.952   2.789
  897SOL    HW2 2700   1.743   2.039   2.806
  898SOL     OW 2701   0.263   2.188   2.582
  898SOL    HW1 2702   0.184   2.239   2.548
  898SOL    HW2 2703   0.254   2.173   2.680
  899SOL     OW 2704   1.194   3.474   1.893
  899SOL    HW1 2705   1.200   3.381   1.930
  899SOL    HW2 2706   1.135   3.474   1.813
  900SOL     OW 2707   0.822   2.864   3.234
  900SOL    HW1 2708   0.862   2.863   3.142
  900SOL    HW2 2709   0.832   2.956   3.274
  901SOL     OW 2710   0.916   2.772   2.153
  901SOL    HW1 2711   0.979   2.810   2.085
  901SOL    HW2 2712   0.956   2.689   2.192
  902SOL     OW 2713   1.504   3.469   1.906
  902SOL    HW1 2714   1.412   3.506   1.913
  902SOL    HW2 2715   1.542   3.489   1.816
  903SOL     OW 2716   0.372   3.150   3.352
  903SOL    HW1 2717   0.359   3.243   3.318
  903SOL    HW2 2718   0.288   3.098   3.339
  904SOL     OW 2719   1.614   3.154   3.151
  904SOL    HW1 2720   1.674   3.157   3.231
  904SOL    HW2 2721   1.539   3.218   3.164
  905SOL     OW 2722   1.039   2.960   2.558
  905SOL    HW1 2723   0.969   2.913   2.612
  905SOL    HW2 2724   1.098   2.892   2.515
  906SOL     OW 2725   1.014   2.098   2.833
  906SOL    HW1 2726   1.006   2.062   2.740
  906SOL    HW2 2727   1.012   2.022   2.898
  907SOL     OW 2728   0.590   3.349   2.353
  907SOL    HW1 2729   0.632   3.291   2.283
  907SOL    HW2 2730   0.546   3.428   2.309
  908SOL     OW 2731   1.709   2.247   3.243
  908SOL    HW1 2732   1.782   2.316   3.247
  908SOL    HW2 2733   1.737   2.172   3.184
  909SOL     OW 2734   0.255   3.210   2.152
  909SOL    HW1 2735   0.159   3.211   2.125
  909SOL    HW2 2736   0.267   3.263   2.236
  910SOL     OW 2737   0.105   2.875   3.588
  910SOL    HW1 2738   0.028   2.842   3.642
  910SOL    HW2 2739   0.190   2.845   3.630
  911SOL     OW 2740   0.672   2.065   3.351
  911SOL    HW1 2741   0.762   2.049   3.311
  911SOL    HW2 2742   0.680   2.070   3.450
  912SOL     OW 2743   0.075   2.207   1.895
  912SOL    HW1 2744  -0.017   2.179   1.866
  912SOL    HW2 2745   0.106   2.284   1.839
  913SOL     OW 2746   1.440   2.718   3.260
  913SOL    HW1 2747   1.383   2.770   3.197
  913SOL    HW2 2748   1.536   2.730   3.236
  914SOL     OW 2749   0.072   2.028   2.180
  914SOL    HW1 2750   0.055   2.111   2.126
  914SOL    HW2 2751   0.162   1.991   2.158
  915SOL     OW 2752   1.183   3.197   1.981
  915SOL    HW1 2753   1.084   3.186   1.983
  915SOL    HW2 2754   1.217   3.212   2.074
  916SOL     OW 2755   0.613   2.704   3.293
  916SOL    HW1 2756   0.669   2.785   3.276
  916SOL    HW2 2757   0.672   2.624   3.296
  917SOL     OW 2758   1.493   3.629   2.821
  917SOL    HW1 2759   1.526   3.693   2.752
  917SOL    HW2 2760   1.559   3.623   2.896
  918SOL     OW 2761   0.716   2.427   3.570
  918SOL    HW1 2762   0.735   2.492   3.644
  918SOL    HW2 2763   0.776   2.347   3.579
  919SOL     OW 2764   1.450   3.082   3.495
  919SOL    HW1 2765   1.441   3.072   3.594
  919SOL    HW2 2766   1.546   3.075   3.469
  920SOL     OW 2767   0.390   3.603   3.422
  920SOL    HW1 2768   0.299   3.644   3.420
  920SOL    HW2 2769   0.383   3.509   3.454
  921SOL     OW 2770   1.674   2.745   3.116
  921SOL    HW1 2771   1.647   2.656   3.079
  921SOL    HW2 2772   1.675   2.813   3.043
  922SOL     OW 2773   1.225   2.187   2.311
  922SOL    HW1 2774   1.290   2.113   2.300
  922SOL    HW2 2775   1.245   2.237   2.395
  923SOL     OW 2776   0.594   2.607   2.514
  923SOL    HW1 2777   0.644   2.692   2.495
  923SOL    HW2 2778   0.506   2.609   2.466
  924SOL     OW 2779   1.777   2.204   3.504
  924SOL    HW1 2780   1.760   2.235   3.410
  924SOL    HW2 2781   1.693   2.167   3.542
  925SOL     OW 2782   1.730   2.796   3.379
  925SOL    HW1 2783   1.768   2.887   3.394
  925SOL    HW2 2784   1.722   2.779   3.280
  926SOL     OW 2785   0.859   3.236   1.878
  926SOL    HW1 2786   0.813   3.251   1.966
  926SOL    HW2 2787   0.903   3.321   1.848
  927SOL     OW 2788   0.661   3.652   2.815
  927SOL    HW1 2789   0.615   3.740   2.802
  927SOL    HW2 2790   0.760   3.664   2.808
  928SOL     OW 2791   0.859   2.818   2.723
  928SOL    HW1 2792   0.913   2.749   2.771
  928SOL    HW2 2793   0.827   2.887   2.789
  929SOL     OW 2794   1.083   2.846   1.949
  929SOL    HW1 2795   1.060   2.899   1.867
  929SOL    HW2 2796   1.164   2.790   1.930
  930SOL     OW 2797   1.861   3.431   2.713
  930SOL    HW1 2798   1.790   3.419   2.643
  930SOL    HW2 2799   1.862   3.352   2.773
  931SOL     OW 2800   0.221   3.176   3.706
  931SOL    HW1 2801   0.156   3.103   3.685
  931SOL    HW2 2802   0.225   3.190   3.804
  932SOL     OW 2803   0.079   3.102   2.515
  932SOL    HW1 2804   0.078   3.055   2.603
  932SOL    HW2 2805   0.161   3.074   2.464
  933SOL     OW 2806   0.672   3.253   3.486
  933SOL    HW1 2807   0.594   3.203   3.524
  933SOL    HW2 2808   0.669   3.348   3.517
  934SOL     OW 2809   1.824   2.054   3.089
  934SOL    HW1 2810   1.820   1.964   3.133
  934SOL    HW2 2811   1.827   2.043   2.990
  935SOL     OW 2812   0.428   2.286   2.382
  935SOL    HW1 2813   0.458   2.214   2.320
  935SOL    HW2 2814   0.389   2.246   2.465
  936SOL     OW 2815   1.705   3.349   2.966
  936SOL    HW1 2816   1.612   3.324   2.939
  936SOL    HW2 2817   1.731   3.299   3.048
  937SOL     OW 2818   0.317   2.409   3.142
  937SOL    HW1 2819   0.355   2.350   3.214
  937SOL    HW2 2820   0.357   2.383   3.054
  938SOL     OW 2821   0.812   3.448   2.549
  938SOL    HW1 2822   0.844   3.458   2.455
  938SOL    HW2 2823   0.733   3.386   2.551
  939SOL     OW 2824   1.424   2.076   2.974
  939SOL    HW1 2825   1.476   2.011   3.029
  939SOL    HW2 2826   1.375   2.139   3.035
  940SOL     OW 2827   1.001   1.896   3.016
  940SOL    HW1 2828   0.938   1.824   2.985
  940SOL    HW2 2829   1.094   1.860   3.016
  941SOL     OW 2830   0.770   3.192   2.163
  941SOL    HW1 2831   0.724   3.105   2.180
  941SOL    HW2 2832   0.861   3.189   2.204
  942SOL     OW 2833   0.618   3.429   3.146
  942SOL    HW1 2834   0.613   3.511   3.203
  942SOL    HW2 2835   0.707   3.426   3.101
  943SOL     OW 2836   1.352   1.914   2.030
  943SOL    HW1 2837   1.387   1.873   1.946
  943SOL    HW2 2838   1.262   1.876   2.050
  944SOL     OW 2839   1.300   2.315   2.553
  944SOL    HW1 2840   1.241   2.395   2.557
  944SOL    HW2 2841   1.315   2.280   2.646
  945SOL     OW 2842   1.593   2.083   2.744
  945SOL    HW1 2843   1.509   2.082   2.798
  945SOL    HW2 2844   1.595   2.166   2.688
  946SOL     OW 2845   0.039   2.939   2.162
  946SOL    HW1 2846   0.138   2.928   2.153
  946SOL    HW2 2847  -0.001   2.853   2.194
  947SOL     OW 2848   0.875   3.508   2.199
  947SOL    HW1 2849   0.798   3.473   2.145
  947SOL    HW2 2850   0.843   3.579   2.261
  948SOL     OW 2851   0.230   2.490   3.837
  948SOL    HW1 2852   0.137   2.488   3.874
  948SOL    HW2 2853   0.231   2.451   3.745
  949SOL     OW 2854   0.019   2.230   4.371
  949SOL    HW1 2855  -0.063   2.273   4.410
  949SOL    HW2 2856  -0.009   2.157   4.308
  950SOL     OW 2857   1.555   3.373   4.427
  950SOL    HW1 2858   1.498   3.357   4.508
  950SOL    HW2 2859   1.496   3.383   4.347
  951SOL     OW 2860   1.135   2.565   4.441
  951SOL    HW1 2861   1.192   2.643   4.416
  951SOL    HW2 2862   1.075   2.591   4.517
  952SOL     OW 2863   1.755   2.469   3.955
  952SOL    HW1 2864   1.743   2.456   3.856
  952SOL    HW2 2865   1.725   2.388   4.004
  953SOL     OW 2866   0.768   3.006   4.747
  953SOL    HW1 2867   0.690   3.023   4.807
  953SOL    HW2 2868   0.802   3.093   4.711
  954SOL     OW 2869   0.685   2.874   4.389
  954SOL    HW1 2870   0.754   2.858   4.459
  954SOL    HW2 2871   0.612   2.931   4.427
  955SOL     OW 2872   1.603   2.309   4.461
  955SOL    HW1 2873   1.529   2.355   4.411
  955SOL    HW2 2874   1.654   2.377   4.514
  956SOL     OW 2875   0.231   3.575   4.207
  956SOL    HW1 2876   0.265   3.652   4.261
  956SOL    HW2 2877   0.275   3.575   4.117
  957SOL     OW 2878   0.230   3.296   4.262
  957SOL    HW1 2879   0.204   3.392   4.262
  957SOL    HW2 2880   0.159   3.242   4.307
  958SOL     OW 2881   0.240   2.953   4.610
  958SOL    HW1 2882   0.254   2.869   4.662
  958SOL    HW2 2883   0.185   3.017   4.665
  959SOL     OW 2884   0.606   2.826   3.847
  959SOL    HW1 2885   0.613   2.910   3.793
  959SOL    HW2 2886   0.652   2.839   3.935
  960SOL     OW 2887   0.122   2.505   4.287
  960SOL    HW1 2888   0.077   2.417   4.304
  960SOL    HW2 2889   0.121   2.559   4.371
  961SOL     OW 2890   1.842   3.629   4.083
  961SOL    HW1 2891   1.896   3.600   4.163
  961SOL    HW2 2892   1.872   3.719   4.054
  962SOL     OW 2893   0.027   3.458   3.841
  962SOL    HW1 2894   0.008   3.362   3.862
  962SOL    HW2 2895  -0.006   3.516   3.916
  963SOL     OW 2896   1.689   2.784   4.336
  963SOL    HW1 2897   1.784   2.755   4.344
  963SOL    HW2 2898   1.681   2.849   4.261
  964SOL     OW 2899   1.641   2.970   4.156
  964SOL    HW1 2900   1.727   2.972   4.104
  964SOL    HW2 2901   1.655   3.017   4.244
  965SOL     OW 2902   0.613   3.227   4.450
  965SOL    HW1 2903   0.564   3.140   4.459
  965SOL    HW2 2904   0.590   3.270   4.363
  966SOL     OW 2905   0.809   1.866   4.226
  966SOL    HW1 2906   0.849   1.957   4.217
  966SOL    HW2 2907   0.709   1.874   4.232
  967SOL     OW 2908   1.525   2.861   3.914
  967SOL    HW1 2909   1.462   2.785   3.927
  967SOL    HW2 2910   1.573   2.879   4.000
  968SOL     OW 2911   1.667   3.576   4.296
  968SOL    HW1 2912   1.626   3.553   4.208
  968SOL    HW2 2913   1.649   3.502   4.361
  969SOL     OW 2914   0.598   2.591   3.994
  969SOL    HW1 2915   0.622   2.660   3.926
  969SOL    HW2 2916   0.520   2.624   4.048
  970SOL     OW 2917   1.281   2.207   4.668
  970SOL    HW1 2918   1.195   2.157   4.655
  970SOL    HW2 2919   1.343   2.153   4.724
  971SOL     OW 2920   1.576   3.524   4.031
  971SOL    HW1 2921   1.665   3.570   4.034
  971SOL    HW2 2922   1.555   3.500   3.936
  972SOL     OW 2923   1.041   2.563   4.153
  972SOL    HW1 2924   1.067   2.559   4.249
  972SOL    HW2 2925   0.956   2.512   4.139
  973SOL     OW 2926   0.076   2.673   4.513
  973SOL    HW1 2927   0.175   2.661   4.522
  973SOL    HW2 2928   0.052   2.768   4.534
  974SOL     OW 2929   0.865   2.210   3.919
  974SOL    HW1 2930   0.924   2.273   3.870
  974SOL    HW2 2931   0.884   2.116   3.890
  975SOL     OW 2932   1.362   3.006   4.269
  975SOL    HW1 2933   1.445   2.977   4.221
  975SOL    HW2 2934   1.313   3.073   4.213
  976SOL     OW 2935   0.550   2.058   4.609
  976SOL    HW1 2936   0.545   2.053   4.709
  976SOL    HW2 2937   0.552   2.154   4.580
  977SOL     OW 2938   1.008   3.318   4.201
  977SOL    HW1 2939   0.962   3.390   4.149
  977SOL    HW2 2940   1.004   3.338   4.299
  978SOL     OW 2941   0.351   3.663   4.577
  978SOL    HW1 2942   0.401   3.577   4.583
  978SOL    HW2 2943   0.416   3.740   4.574
  979SOL     OW 2944   1.795   2.928   4.597
  979SOL    HW1 2945   1.733   2.913   4.521
  979SOL    HW2 2946   1.743   2.939   4.682
  980SOL     OW 2947   0.321   2.805   3.966
  980SOL    HW1 2948   0.403   2.844   3.924
  980SOL    HW2 2949   0.294   2.723   3.917
  981SOL     OW 2950   1.458   2.597   4.452
  981SOL    HW1 2951   1.453   2.532   4.527
  981SOL    HW2 2952   1.538   2.656   4.465
  982SOL     OW 2953   1.111   3.638   3.961
  982SOL    HW1 2954   1.051   3.576   4.011
  982SOL    HW2 2955   1.142   3.594   3.876
  983SOL     OW 2956   1.632   3.239   3.805
  983SOL    HW1 2957   1.600   3.333   3.795
  983SOL    HW2 2958   1.556   3.176   3.793
  984SOL     OW 2959   0.464   3.605   4.047
  984SOL    HW1 2960   0.497   3.644   4.133
  984SOL    HW2 2961   0.540   3.598   3.982
  985SOL     OW 2962   1.400   1.969   4.150
  985SOL    HW1 2963   1.376   1.932   4.060
  985SOL    HW2 2964   1.499   1.985   4.154
  986SOL     OW 2965   0.940   3.560   4.628
  986SOL    HW1 2966   1.020   3.503   4.649
  986SOL    HW2 2967   0.891   3.520   4.551
  987SOL     OW 2968   0.382   2.562   4.204
  987SOL    HW1 2969   0.427   2.472   4.201
  987SOL    HW2 2970   0.288   2.551   4.237
  988SOL     OW 2971   0.614   1.984   3.841
  988SOL    HW1 2972   0.712   1.962   3.848
  988SOL    HW2 2973   0.583   1.967   3.748
  989SOL     OW 2974   0.539   1.926   4.236
  989SOL    HW1 2975   0.458   1.927   4.294
  989SOL    HW2 2976   0.542   2.009   4.181
  990SOL     OW 2977   1.434   3.050   3.765
  990SOL    HW1 2978   1.466   2.974   3.822
  990SOL    HW2 2979   1.342   3.077   3.795
  991SOL     OW 2980   0.297   1.897   3.895
  991SOL    HW1 2981   0.346   1.981   3.874
  991SOL    HW2 2982   0.359   1.832   3.940
  992SOL     OW 2983   0.935   2.098   4.204
  992SOL    HW1 2984   0.887   2.139   4.126
  992SOL    HW2 2985   1.034   2.096   4.185
  993SOL     OW 2986   0.459   3.014   4.465
  993SOL    HW1 2987   0.388   2.987   4.530
  993SOL    HW2 2988   0.433   2.986   4.372
  994SOL     OW 2989   1.271   3.659   4.315
  994SOL    HW1 2990   1.315   3.723   4.251
  994SOL    HW2 2991   1.221   3.711   4.385
  995SOL     OW 2992   1.032   2.411   3.740
  995SOL    HW1 2993   0.991   2.493   3.701
  995SOL    HW2 2994   1.096   2.437   3.813
  996SOL     OW 2995   0.866   2.316   4.366
  996SOL    HW1 2996   0.834   2.388   4.304
  996SOL    HW2 2997   0.890   2.235   4.313
  997SOL     OW 2998   1.017   1.901   4.477
  997SOL    HW1 2999   0.945   1.906   4.408
  997SOL    HW2 3000   0.993   1.832   4.546
  998SOL     OW 3001   1.857   2.695   4.101
  998SOL    HW1 3002   1.899   2.631   4.165
  998SOL    HW2 3003   1.819   2.644   4.023
  999SOL     OW 3004   0.488   3.247   3.898
  999SOL    HW1 3005   0.401   3.232   3.945
  999SOL    HW2 3006   0.471   3.273   3.803
 1000SOL     OW 3007   1.664   3.142   4.381
 1000SOL    HW1 3008   1.763   3.150   4.395
 1000SOL    HW2 3009   1.619   3.226   4.412
 1001SOL     OW 3010   1.390   2.437   3.802
 1001SOL    HW1 3011   1.336   2.416   3.883
 1001SOL    HW2 3012   1.481   2.396   3.811
 1002SOL     OW 3013   0.527   2.118   4.052
 1002SOL    HW1 3014   0.554   2.059   3.977
 1002SOL    HW2 3015   0.527   2.213   4.021
 1003SOL     OW 3016   0.705   2.912   4.092
 1003SOL    HW1 3017   0.691   2.919   4.191
 1003SOL    HW2 3018   0.789   2.861   4.074
 1004SOL     OW 3019   0.367   2.962   4.225
 1004SOL    HW1 3020   0.360   3.045   4.169
 1004SOL    HW2 3021   0.371   2.882   4.165
 1005SOL     OW 3022   0.566   2.399   4.589
 1005SOL    HW1 3023   0.578   2.465   4.515
 1005SOL    HW2 3024   0.612   2.433   4.672
 1006SOL     OW 3025   1.252   3.210   4.112
 1006SOL    HW1 3026   1.302   3.287   4.152
 1006SOL    HW2 3027   1.157   3.212   4.144
 1007SOL     OW 3028   1.582   2.501   4.196
 1007SOL    HW1 3029   1.551   2.562   4.269
 1007SOL    HW2 3030   1.632   2.553   4.127
 1008SOL     OW 3031   1.209   2.387   3.999
 1008SOL    HW1 3032   1.222   2.303   4.053
 1008SOL    HW2 3033   1.180   2.461   4.059
 1009SOL     OW 3034   0.307   1.925   4.342
 1009SOL    HW1 3035   0.296   2.019   4.375
 1009SOL    HW2 3036   0.302   1.862   4.419
 1010SOL     OW 3037   1.622   2.229   4.098
 1010SOL    HW1 3038   1.624   2.153   4.162
 1010SOL    HW2 3039   1.574   2.306   4.138
 1011SOL     OW 3040   1.540   2.136   3.849
 1011SOL    HW1 3041   1.479   2.061   3.872
 1011SOL    HW2 3042   1.562   2.188   3.932
 1012SOL     OW 3043   1.303   2.700   3.766
 1012SOL    HW1 3044   1.337   2.607   3.781
 1012SOL    HW2 3045   1.321   2.727   3.671
 1013SOL     OW 3046   0.008   3.188   3.924
 1013SOL    HW1 3047  -0.085   3.209   3.893
 1013SOL    HW2 3048   0.018   3.089   3.937
 1014SOL     OW 3049   0.815   2.434   4.049
 1014SOL    HW1 3050   0.822   2.345   4.003
 1014SOL    HW2 3051   0.721   2.468   4.041
 1015SOL     OW 3052   0.473   2.362   3.915
 1015SOL    HW1 3053   0.534   2.442   3.919
 1015SOL    HW2 3054   0.378   2.393   3.922
 1016SOL     OW 3055   1.302   2.717   4.033
 1016SOL    HW1 3056   1.216   2.686   4.075
 1016SOL    HW2 3057   1.298   2.703   3.934
 1017SOL     OW 3058   1.726   1.997   4.247
 1017SOL    HW1 3059   1.799   1.980   4.180
 1017SOL    HW2 3060   1.695   1.910   4.285
 1018SOL     OW 3061   1.388   3.435   4.201
 1018SOL    HW1 3062   1.455   3.447   4.127
 1018SOL    HW2 3063   1.348   3.524   4.224
 1019SOL     OW 3064   1.280   2.789   4.396
 1019SOL    HW1 3065   1.340   2.708   4.398
 1019SOL    HW2 3066   1.320   2.858   4.336
 1020SOL     OW 3067   0.672   3.478   3.878
 1020SOL    HW1 3068   0.681   3.488   3.779
 1020SOL    HW2 3069   0.632   3.389   3.899
 1021SOL     OW 3070   1.841   2.037   4.687
 1021SOL    HW1 3071   1.880   1.952   4.651
 1021SOL    HW2 3072   1.743   2.039   4.668
 1022SOL     OW 3073   0.263   2.188   4.444
 1022SOL    HW1 3074   0.184   2.239   4.410
 1022SOL    HW2 3075   0.254   2.173   4.542
 1023SOL     OW 3076   1.194   3.474   3.755
 1023SOL    HW1 3077   1.200   3.381   3.792
 1023SOL    HW2 3078   1.135   3.474   3.675
 1024SOL     OW 3079   0.916   2.772   4.015
 1024SOL    HW1 3080   0.979   2.810   3.947
 1024SOL    HW2 3081   0.956   2.689   4.054
 1025SOL     OW 3082   1.504   3.469   3.768
 1025SOL    HW1 3083   1.412   3.506   3.775
 1025SOL    HW2 3084   1.542   3.489   3.678
 1026SOL     OW 3085   1.039   2.960   4.420
 1026SOL    HW1 3086   0.969   2.913   4.474
 1026SOL    HW2 3087   1.098   2.892   4.377
 1027SOL     OW 3088   0.590   3.349   4.215
 1027SOL    HW1 3089   0.632   3.291   4.145
 1027SOL    HW2 3090   0.546   3.428   4.171
 1028SOL     OW 3091   0.255   3.210   4.014
 1028SOL    HW1 3092   0.159   3.211   3.987
 1028SOL    HW2 3093   0.267   3.263   4.098
 1029SOL     OW 3094   0.075   2.207   3.757
 1029SOL    HW1 3095  -0.017   2.179   3.728
 1029SOL    HW2 3096   0.106   2.284   3.701
 1030SOL     OW 3097   0.072   2.028   4.042
 1030SOL    HW1 3098   0.055   2.111   3.988
 1030SOL    HW2 3099   0.162   1.991   4.020
 1031SOL     OW 3100   1.183   3.197   3.843
 1031SOL    HW1 3101   1.084   3.186   3.845
 1031SOL    HW2 3102   1.217   3.212   3.936
 1032SOL     OW 3103   1.225   2.187   4.173
 1032SOL    HW1 3104   1.290   2.113   4.162
 1032SOL    HW2 3105   1.245   2.237   4.257
 1033SOL     OW 3106   0.594   2.607   4.376
 1033SOL    HW1 3107   0.644   2.692   4.357
 1033SOL    HW2 3108   0.506   2.609   4.328
 1034SOL     OW 3109   0.859   3.236   3.740
 1034SOL    HW1 3110   0.813   3.251   3.828
 1034SOL    HW2 3111   0.903   3.321   3.710
 1035SOL     OW 3112   0.661   3.652   4.677
 1035SOL    HW1 3113   0.615   3.740   4.664
 1035SOL    HW2 3114   0.760   3.664   4.670
 1036SOL     OW 3115   0.859   2.818   4.585
 1036SOL    HW1 3116   0.913   2.749   4.633
 1036SOL    HW2 3117   0.827   2.887   4.651
 1037SOL     OW 3118   1.083   2.846   3.811
 1037SOL    HW1 3119   1.060   2.899   3.729
 1037SOL    HW2 3120   1.164   2.790   3.792
 1038SOL     OW 3121   0.079   3.102   4.377
 1038SOL    HW1 3122   0.078   3.055   4.465
 1038SOL    HW2 3123   0.161   3.074   4.326
 1039SOL     OW 3124   0.428   2.286   4.244
 1039SOL    HW1 3125   0.458   2.214   4.182
 1039SOL    HW2 3126   0.389   2.246   4.327
 1040SOL     OW 3127   0.812   3.448   4.411
 1040SOL    HW1 3128   0.844   3.458   4.317
 1040SOL    HW2 3129   0.733   3.386   4.413
 1041SOL     OW 3130   0.770   3.192   4.025
 1041SOL    HW1 3131   0.724   3.105   4.042
 1041SOL    HW2 3132   0.861   3.189   4.066
 1042SOL     OW 3133   1.352   1.914   3.892
 1042SOL    HW1 3134   1.387   1.873   3.808
 1042SOL    HW2 3135   1.262   1.876   3.912
 1043SOL     OW 3136   1.300   2.315   4.415
 1043SOL    HW1 3137   1.241   2.395   4.419
 1043SOL    HW2 3138   1.315   2.280   4.508
 1044SOL     OW 3139   0.039   2.939   4.024
 1044SOL    HW1 3140   0.138   2.928   4.015
 1044SOL    HW2 3141  -0.001   2.853   4.056
 1045SOL     OW 3142   0.875   3.508   4.061
 1045SOL    HW1 3143   0.798   3.473   4.007
 1045SOL    HW2 3144   0.843   3.579   4.123
 1046SOL     OW 3145   0.230   4.352   0.113
 1046SOL    HW1 3146   0.137   4.350   0.150
 1046SOL    HW2 3147   0.231   4.313   0.021
 1047SOL     OW 3148   0.225   3.999   0.996
 1047SOL    HW1 3149   0.260   3.982   1.088
 1047SOL    HW2 3150   0.137   3.954   0.984
 1048SOL     OW 3151   0.019   4.092   0.647
 1048SOL    HW1 3152  -0.063   4.135   0.686
 1048SOL    HW2 3153  -0.009   4.019   0.584
 1049SOL     OW 3154   1.135   4.427   0.717
 1049SOL    HW1 3155   1.192   4.505   0.692
 1049SOL    HW2 3156   1.075   4.453   0.793
 1050SOL     OW 3157   1.755   4.331   0.231
 1050SOL    HW1 3158   1.743   4.318   0.132
 1050SOL    HW2 3159   1.725   4.250   0.280
 1051SOL     OW 3160   0.850   4.522   1.823
 1051SOL    HW1 3161   0.846   4.598   1.888
 1051SOL    HW2 3162   0.872   4.558   1.732
 1052SOL     OW 3163   0.685   4.736   0.665
 1052SOL    HW1 3164   0.754   4.720   0.735
 1052SOL    HW2 3165   0.612   4.793   0.703
 1053SOL     OW 3166   0.438   4.116   1.499
 1053SOL    HW1 3167   0.520   4.060   1.508
 1053SOL    HW2 3168   0.357   4.058   1.503
 1054SOL     OW 3169   1.603   4.171   0.737
 1054SOL    HW1 3170   1.529   4.217   0.687
 1054SOL    HW2 3171   1.654   4.239   0.790
 1055SOL     OW 3172   1.594   3.838   1.480
 1055SOL    HW1 3173   1.576   3.905   1.408
 1055SOL    HW2 3174   1.591   3.884   1.569
 1056SOL     OW 3175   0.122   4.367   0.563
 1056SOL    HW1 3176   0.077   4.279   0.580
 1056SOL    HW2 3177   0.121   4.421   0.647
 1057SOL     OW 3178   0.113   4.461   1.597
 1057SOL    HW1 3179   0.201   4.448   1.642
 1057SOL    HW2 3180   0.100   4.558   1.575
 1058SOL     OW 3181   0.809   3.728   0.502
 1058SOL    HW1 3182   0.849   3.819   0.493
 1058SOL    HW2 3183   0.709   3.736   0.508
 1059SOL     OW 3184   0.317   3.975   1.801
 1059SOL    HW1 3185   0.388   4.046   1.807
 1059SOL    HW2 3186   0.229   4.014   1.829
 1060SOL     OW 3187   0.598   4.453   0.270
 1060SOL    HW1 3188   0.622   4.522   0.202
 1060SOL    HW2 3189   0.520   4.486   0.324
 1061SOL     OW 3190   1.281   4.069   0.944
 1061SOL    HW1 3191   1.195   4.019   0.931
 1061SOL    HW2 3192   1.343   4.015   1.000
 1062SOL     OW 3193   0.807   4.329   1.465
 1062SOL    HW1 3194   0.760   4.326   1.554
 1062SOL    HW2 3195   0.756   4.274   1.399
 1063SOL     OW 3196   1.394   4.193   1.674
 1063SOL    HW1 3197   1.374   4.236   1.762
 1063SOL    HW2 3198   1.472   4.131   1.683
 1064SOL     OW 3199   0.991   4.134   1.242
 1064SOL    HW1 3200   0.914   4.168   1.296
 1064SOL    HW2 3201   0.957   4.083   1.163
 1065SOL     OW 3202   1.041   4.425   0.429
 1065SOL    HW1 3203   1.067   4.421   0.525
 1065SOL    HW2 3204   0.956   4.374   0.415
 1066SOL     OW 3205   0.076   4.535   0.789
 1066SOL    HW1 3206   0.175   4.523   0.798
 1066SOL    HW2 3207   0.052   4.630   0.810
 1067SOL     OW 3208   0.865   4.072   0.195
 1067SOL    HW1 3209   0.924   4.135   0.146
 1067SOL    HW2 3210   0.884   3.978   0.166
 1068SOL     OW 3211   1.719   4.309   1.831
 1068SOL    HW1 3212   1.693   4.398   1.795
 1068SOL    HW2 3213   1.717   4.241   1.758
 1069SOL     OW 3214   0.550   3.920   0.885
 1069SOL    HW1 3215   0.545   3.915   0.985
 1069SOL    HW2 3216   0.552   4.016   0.856
 1070SOL     OW 3217   1.458   4.459   0.728
 1070SOL    HW1 3218   1.453   4.394   0.803
 1070SOL    HW2 3219   1.538   4.518   0.741
 1071SOL     OW 3220   0.202   4.009   1.498
 1071SOL    HW1 3221   0.122   4.069   1.485
 1071SOL    HW2 3222   0.192   3.960   1.584
 1072SOL     OW 3223   1.400   3.831   0.426
 1072SOL    HW1 3224   1.376   3.794   0.336
 1072SOL    HW2 3225   1.499   3.847   0.430
 1073SOL     OW 3226   0.382   4.424   0.480
 1073SOL    HW1 3227   0.427   4.334   0.477
 1073SOL    HW2 3228   0.288   4.413   0.513
 1074SOL     OW 3229   1.547   3.946   1.729
 1074SOL    HW1 3230   1.542   3.983   1.821
 1074SOL    HW2 3231   1.475   3.877   1.717
 1075SOL     OW 3232   0.781   3.988   1.749
 1075SOL    HW1 3233   0.848   3.927   1.792
 1075SOL    HW2 3234   0.708   4.007   1.814
 1076SOL     OW 3235   1.351   4.314   1.433
 1076SOL    HW1 3236   1.379   4.271   1.518
 1076SOL    HW2 3237   1.376   4.410   1.434
 1077SOL     OW 3238   0.922   4.227   0.899
 1077SOL    HW1 3239   0.897   4.218   0.803
 1077SOL    HW2 3240   0.970   4.145   0.930
 1078SOL     OW 3241   0.539   3.788   0.512
 1078SOL    HW1 3242   0.458   3.789   0.570
 1078SOL    HW2 3243   0.542   3.871   0.457
 1079SOL     OW 3244   0.297   3.759   0.171
 1079SOL    HW1 3245   0.346   3.843   0.150
 1079SOL    HW2 3246   0.359   3.694   0.216
 1080SOL     OW 3247   0.935   3.960   0.480
 1080SOL    HW1 3248   0.887   4.001   0.402
 1080SOL    HW2 3249   1.034   3.958   0.461
 1081SOL     OW 3250   1.076   4.407   1.464
 1081SOL    HW1 3251   0.996   4.346   1.467
 1081SOL    HW2 3252   1.157   4.354   1.440
 1082SOL     OW 3253   1.032   4.273   0.016
 1082SOL    HW1 3254   0.991   4.355  -0.023
 1082SOL    HW2 3255   1.096   4.299   0.089
 1083SOL     OW 3256   0.078   4.280   1.386
 1083SOL    HW1 3257   0.170   4.279   1.345
 1083SOL    HW2 3258   0.072   4.354   1.453
 1084SOL     OW 3259   0.561   3.946   1.147
 1084SOL    HW1 3260   0.599   3.862   1.184
 1084SOL    HW2 3261   0.473   3.965   1.191
 1085SOL     OW 3262   0.866   4.178   0.642
 1085SOL    HW1 3263   0.834   4.250   0.580
 1085SOL    HW2 3264   0.890   4.097   0.589
 1086SOL     OW 3265   1.017   3.763   0.753
 1086SOL    HW1 3266   0.945   3.768   0.684
 1086SOL    HW2 3267   0.993   3.694   0.822
 1087SOL     OW 3268   1.466   4.314   0.992
 1087SOL    HW1 3269   1.436   4.219   0.999
 1087SOL    HW2 3270   1.539   4.330   1.058
 1088SOL     OW 3271   1.857   4.557   0.377
 1088SOL    HW1 3272   1.899   4.493   0.441
 1088SOL    HW2 3273   1.819   4.506   0.299
 1089SOL     OW 3274   1.390   4.299   0.078
 1089SOL    HW1 3275   1.336   4.278   0.159
 1089SOL    HW2 3276   1.481   4.258   0.087
 1090SOL     OW 3277   0.527   3.980   0.328
 1090SOL    HW1 3278   0.554   3.921   0.253
 1090SOL    HW2 3279   0.527   4.075   0.297
 1091SOL     OW 3280   0.915   3.813   1.402
 1091SOL    HW1 3281   0.940   3.793   1.307
 1091SOL    HW2 3282   0.987   3.869   1.444
 1092SOL     OW 3283   0.705   4.774   0.368
 1092SOL    HW1 3284   0.691   4.781   0.467
 1092SOL    HW2 3285   0.789   4.723   0.350
 1093SOL     OW 3286   0.410   4.537   1.251
 1093SOL    HW1 3287   0.496   4.549   1.301
 1093SOL    HW2 3288   0.368   4.450   1.278
 1094SOL     OW 3289   1.274   4.110   1.262
 1094SOL    HW1 3290   1.295   4.184   1.326
 1094SOL    HW2 3291   1.185   4.127   1.219
 1095SOL     OW 3292   0.566   4.261   0.865
 1095SOL    HW1 3293   0.578   4.327   0.791
 1095SOL    HW2 3294   0.612   4.295   0.948
 1096SOL     OW 3295   1.582   4.363   0.472
 1096SOL    HW1 3296   1.551   4.424   0.545
 1096SOL    HW2 3297   1.632   4.415   0.403
 1097SOL     OW 3298   1.587   4.503   1.670
 1097SOL    HW1 3299   1.495   4.541   1.665
 1097SOL    HW2 3300   1.647   4.550   1.605
 1098SOL     OW 3301   1.013   3.829   1.770
 1098SOL    HW1 3302   1.019   3.914   1.718
 1098SOL    HW2 3303   1.045   3.753   1.713
 1099SOL     OW 3304   0.504   3.774   1.740
 1099SOL    HW1 3305   0.462   3.717   1.670
 1099SOL    HW2 3306   0.438   3.843   1.772
 1100SOL     OW 3307   1.360   4.586   1.045
 1100SOL    HW1 3308   1.285   4.586   0.979
 1100SOL    HW2 3309   1.397   4.494   1.054
 1101SOL     OW 3310   1.209   4.249   0.275
 1101SOL    HW1 3311   1.222   4.165   0.329
 1101SOL    HW2 3312   1.180   4.323   0.335
 1102SOL     OW 3313   0.307   3.937   1.231
 1102SOL    HW1 3314   0.284   3.974   1.321
 1102SOL    HW2 3315   0.277   3.842   1.225
 1103SOL     OW 3316   0.732   4.358   1.064
 1103SOL    HW1 3317   0.791   4.332   0.988
 1103SOL    HW2 3318   0.704   4.454   1.053
 1104SOL     OW 3319   1.728   4.659   1.854
 1104SOL    HW1 3320   1.682   4.652   1.765
 1104SOL    HW2 3321   1.666   4.703   1.920
 1105SOL     OW 3322   0.307   3.787   0.618
 1105SOL    HW1 3323   0.296   3.881   0.651
 1105SOL    HW2 3324   0.302   3.724   0.695
 1106SOL     OW 3325   1.622   4.091   0.374
 1106SOL    HW1 3326   1.624   4.015   0.438
 1106SOL    HW2 3327   1.574   4.168   0.414
 1107SOL     OW 3328   1.540   3.998   0.125
 1107SOL    HW1 3329   1.479   3.923   0.148
 1107SOL    HW2 3330   1.562   4.050   0.208
 1108SOL     OW 3331   0.319   4.534   0.949
 1108SOL    HW1 3332   0.412   4.570   0.954
 1108SOL    HW2 3333   0.313   4.449   1.001
 1109SOL     OW 3334   0.339   4.233   1.006
 1109SOL    HW1 3335   0.287   4.150   0.989
 1109SOL    HW2 3336   0.416   4.238   0.942
 1110SOL     OW 3337   1.138   4.104   1.678
 1110SOL    HW1 3338   1.093   4.167   1.742
 1110SOL    HW2 3339   1.231   4.135   1.661
 1111SOL     OW 3340   1.160   3.931   1.477
 1111SOL    HW1 3341   1.160   3.995   1.554
 1111SOL    HW2 3342   1.188   3.979   1.394
 1112SOL     OW 3343   0.040   4.268   1.114
 1112SOL    HW1 3344   0.125   4.235   1.073
 1112SOL    HW2 3345   0.053   4.283   1.212
 1113SOL     OW 3346   0.189   4.244   1.722
 1113SOL    HW1 3347   0.248   4.204   1.652
 1113SOL    HW2 3348   0.131   4.315   1.681
 1114SOL     OW 3349   0.815   4.296   0.325
 1114SOL    HW1 3350   0.822   4.207   0.279
 1114SOL    HW2 3351   0.721   4.330   0.317
 1115SOL     OW 3352   1.657   4.328   1.206
 1115SOL    HW1 3353   1.619   4.259   1.268
 1115SOL    HW2 3354   1.739   4.292   1.162
 1116SOL     OW 3355   0.671   4.188   1.269
 1116SOL    HW1 3356   0.637   4.099   1.239
 1116SOL    HW2 3357   0.697   4.242   1.189
 1117SOL     OW 3358   0.473   4.224   0.191
 1117SOL    HW1 3359   0.534   4.304   0.195
 1117SOL    HW2 3360   0.378   4.255   0.198
 1118SOL     OW 3361   0.903   3.810   0.133
 1118SOL    HW1 3362   0.954   3.811   0.047
 1118SOL    HW2 3363   0.959   3.768   0.204
 1119SOL     OW 3364   1.726   3.859   0.523
 1119SOL    HW1 3365   1.799   3.842   0.456
 1119SOL    HW2 3366   1.695   3.772   0.561
 1120SOL     OW 3367   1.280   4.651   0.672
 1120SOL    HW1 3368   1.340   4.570   0.674
 1120SOL    HW2 3369   1.320   4.720   0.612
 1121SOL     OW 3370   1.841   3.899   0.963
 1121SOL    HW1 3371   1.880   3.814   0.927
 1121SOL    HW2 3372   1.743   3.901   0.944
 1122SOL     OW 3373   0.263   4.050   0.720
 1122SOL    HW1 3374   0.184   4.101   0.686
 1122SOL    HW2 3375   0.254   4.035   0.818
 1123SOL     OW 3376   1.014   3.960   0.971
 1123SOL    HW1 3377   1.006   3.924   0.878
 1123SOL    HW2 3378   1.012   3.884   1.036
 1124SOL     OW 3379   1.709   4.109   1.381
 1124SOL    HW1 3380   1.782   4.178   1.385
 1124SOL    HW2 3381   1.737   4.034   1.322
 1125SOL     OW 3382   0.105   4.737   1.726
 1125SOL    HW1 3383   0.028   4.704   1.780
 1125SOL    HW2 3384   0.190   4.707   1.768
 1126SOL     OW 3385   0.672   3.927   1.489
 1126SOL    HW1 3386   0.762   3.911   1.449
 1126SOL    HW2 3387   0.680   3.932   1.588
 1127SOL     OW 3388   0.075   4.069   0.033
 1127SOL    HW1 3389  -0.017   4.041   0.004
 1127SOL    HW2 3390   0.106   4.146  -0.023
 1128SOL     OW 3391   1.440   4.580   1.398
 1128SOL    HW1 3392   1.383   4.632   1.335
 1128SOL    HW2 3393   1.536   4.592   1.374
 1129SOL     OW 3394   0.072   3.890   0.318
 1129SOL    HW1 3395   0.055   3.973   0.264
 1129SOL    HW2 3396   0.162   3.853   0.296
 1130SOL     OW 3397   0.613   4.566   1.431
 1130SOL    HW1 3398   0.669   4.647   1.414
 1130SOL    HW2 3399   0.672   4.486   1.434
 1131SOL     OW 3400   0.716   4.289   1.708
 1131SOL    HW1 3401   0.735   4.354   1.782
 1131SOL    HW2 3402   0.776   4.209   1.717
 1132SOL     OW 3403   1.674   4.607   1.254
 1132SOL    HW1 3404   1.647   4.518   1.217
 1132SOL    HW2 3405   1.675   4.675   1.181
 1133SOL     OW 3406   1.225   4.049   0.449
 1133SOL    HW1 3407   1.290   3.975   0.438
 1133SOL    HW2 3408   1.245   4.099   0.533
 1134SOL     OW 3409   0.594   4.469   0.652
 1134SOL    HW1 3410   0.644   4.554   0.633
 1134SOL    HW2 3411   0.506   4.471   0.604
 1135SOL     OW 3412   1.777   4.066   1.642
 1135SOL    HW1 3413   1.760   4.097   1.548
 1135SOL    HW2 3414   1.693   4.029   1.680
 1136SOL     OW 3415   1.824   3.916   1.227
 1136SOL    HW1 3416   1.820   3.826   1.271
 1136SOL    HW2 3417   1.827   3.905   1.128
 1137SOL     OW 3418   0.428   4.148   0.520
 1137SOL    HW1 3419   0.458   4.076   0.458
 1137SOL    HW2 3420   0.389   4.108   0.603
 1138SOL     OW 3421   0.317   4.271   1.280
 1138SOL    HW1 3422   0.355   4.212   1.352
 1138SOL    HW2 3423   0.357   4.245   1.192
 1139SOL     OW 3424   1.424   3.938   1.112
 1139SOL    HW1 3425   1.476   3.873   1.167
 1139SOL    HW2 3426   1.375   4.001   1.173
 1140SOL     OW 3427   1.001   3.758   1.154
 1140SOL    HW1 3428   0.938   3.686   1.123
 1140SOL    HW2 3429   1.094   3.722   1.154
 1141SOL     OW 3430   1.352   3.776   0.168
 1141SOL    HW1 3431   1.387   3.735   0.084
 1141SOL    HW2 3432   1.262   3.738   0.188
 1142SOL     OW 3433   1.300   4.177   0.691
 1142SOL    HW1 3434   1.241   4.257   0.695
 1142SOL    HW2 3435   1.315   4.142   0.784
 1143SOL     OW 3436   1.593   3.945   0.882
 1143SOL    HW1 3437   1.509   3.944   0.936
 1143SOL    HW2 3438   1.595   4.028   0.826
 1144SOL     OW 3439   0.230   4.352   1.975
 1144SOL    HW1 3440   0.137   4.350   2.012
 1144SOL    HW2 3441   0.231   4.313   1.883
 1145SOL     OW 3442   0.225   3.999   2.858
 1145SOL    HW1 3443   0.260   3.982   2.950
 1145SOL    HW2 3444   0.137   3.954   2.846
 1146SOL     OW 3445   0.019   4.092   2.509
 1146SOL    HW1 3446  -0.063   4.135   2.548
 1146SOL    HW2 3447  -0.009   4.019   2.446
 1147SOL     OW 3448   1.135   4.427   2.579
 1147SOL    HW1 3449   1.192   4.505   2.554
 1147SOL    HW2 3450   1.075   4.453   2.655
 1148SOL     OW 3451   1.755   4.331   2.093
 1148SOL    HW1 3452   1.743   4.318   1.994
 1148SOL    HW2 3453   1.725   4.250   2.142
 1149SOL     OW 3454   0.850   4.522   3.685
 1149SOL    HW1 3455   0.846   4.598   3.750
 1149SOL    HW2 3456   0.872   4.558   3.594
 1150SOL     OW 3457   0.685   4.736   2.527
 1150SOL    HW1 3458   0.754   4.720   2.597
 1150SOL    HW2 3459   0.612   4.793   2.565
 1151SOL     OW 3460   0.438   4.116   3.361
 1151SOL    HW1 3461   0.520   4.060   3.370
 1151SOL    HW2 3462   0.357   4.058   3.365
 1152SOL     OW 3463   1.603   4.171   2.599
 1152SOL    HW1 3464   1.529   4.217   2.549
 1152SOL    HW2 3465   1.654   4.239   2.652
 1153SOL     OW 3466   1.594   3.838   3.342
 1153SOL    HW1 3467   1.576   3.905   3.270
 1153SOL    HW2 3468   1.591   3.884   3.431
 1154SOL     OW 3469   0.122   4.367   2.425
 1154SOL    HW1 3470   0.077   4.279   2.442
 1154SOL    HW2 3471   0.121   4.421   2.509
 1155SOL     OW 3472   0.113   4.461   3.459
 1155SOL    HW1 3473   0.201   4.448   3.504
 1155SOL    HW2 3474   0.100   4.558   3.437
 1156SOL     OW 3475   0.809   3.728   2.364
 1156SOL    HW1 3476   0.849   3.819   2.355
 1156SOL    HW2 3477   0.709   3.736   2.370
 1157SOL     OW 3478   0.317   3.975   3.663
 1157SOL    HW1 3479   0.388   4.046   3.669
 1157SOL    HW2 3480   0.229   4.014   3.691
 1158SOL     OW 3481   0.598   4.453   2.132
 1158SOL    HW1 3482   0.622   4.522   2.064
 1158SOL    HW2 3483   0.520   4.486   2.186
 1159SOL     OW 3484   1.281   4.069   2.806
 1159SOL    HW1 3485   1.195   4.019   2.793
 1159SOL    HW2 3486   1.343   4.015   2.862
 1160SOL     OW 3487   0.807   4.329   3.327
 1160SOL    HW1 3488   0.760   4.326   3.416
 1160SOL    HW2 3489   0.756   4.274   3.261
 1161SOL     OW 3490   1.394   4.193   3.536
 1161SOL    HW1 3491   1.374   4.236   3.624
 1161SOL    HW2 3492   1.472   4.131   3.545
 1162SOL     OW 3493   0.991   4.134   3.104
 1162SOL    HW1 3494   0.914   4.168   3.158
 1162SOL    HW2 3495   0.957   4.083   3.025
 1163SOL     OW 3496   1.041   4.425   2.291
 1163SOL    HW1 3497   1.067   4.421   2.387
 1163SOL    HW2 3498   0.956   4.374   2.277
 1164SOL     OW 3499   0.076   4.535   2.651
 1164SOL    HW1 3500   0.175   4.523   2.660
 1164SOL    HW2 3501   0.052   4.630   2.672
 1165SOL     OW 3502   0.865   4.072   2.057
 1165SOL    HW1 3503   0.924   4.135   2.008
 1165SOL    HW2 3504   0.884   3.978   2.028
 1166SOL     OW 3505   1.719   4.309   3.693
 1166SOL    HW1 3506   1.693   4.398   3.657
 1166SOL    HW2 3507   1.717   4.241   3.620
 1167SOL     OW 3508   0.550   3.920   2.747
 1167SOL    HW1 3509   0.545   3.915   2.847
 1167SOL    HW2 3510   0.552   4.016   2.718
 1168SOL     OW 3511   1.458   4.459   2.590
 1168SOL    HW1 3512   1.453   4.394   2.665
 1168SOL    HW2 3513   1.538   4.518   2.603
 1169SOL     OW 3514   0.202   4.009   3.360
 1169SOL    HW1 3515   0.122   4.069   3.347
 1169SOL    HW2 3516   0.192   3.960   3.446
 1170SOL     OW 3517   1.400   3.831   2.288
 1170SOL    HW1 3518   1.376   3.794   2.198
 1170SOL    HW2 3519   1.499   3.847   2.292
 1171SOL     OW 3520   0.382   4.424   2.342
 1171SOL    HW1 3521   0.427   4.334   2.339
 1171SOL    HW2 3522   0.288   4.413   2.375
 1172SOL     OW 3523   1.547   3.946   3.591
 1172SOL    HW1 3524   1.542   3.983   3.683
 1172SOL    HW2 3525   1.475   3.877   3.579
 1173SOL     OW 3526   0.614   3.846   1.979
 1173SOL    HW1 3527   0.712   3.824   1.986
 1173SOL    HW2 3528   0.583   3.829   1.886
 1174SOL     OW 3529   0.781   3.988   3.611
 1174SOL    HW1 3530   0.848   3.927   3.654
 1174SOL    HW2 3531   0.708   4.007   3.676
 1175SOL     OW 3532   1.351   4.314   3.295
 1175SOL    HW1 3533   1.379   4.271   3.380
 1175SOL    HW2 3534   1.376   4.410   3.296
 1176SOL     OW 3535   0.922   4.227   2.761
 1176SOL    HW1 3536   0.897   4.218   2.665
 1176SOL    HW2 3537   0.970   4.145   2.792
 1177SOL     OW 3538   0.539   3.788   2.374
 1177SOL    HW1 3539   0.458   3.789   2.432
 1177SOL    HW2 3540   0.542   3.871   2.319
 1178SOL     OW 3541   0.297   3.759   2.033
 1178SOL    HW1 3542   0.346   3.843   2.012
 1178SOL    HW2 3543   0.359   3.694   2.078
 1179SOL     OW 3544   0.935   3.960   2.342
 1179SOL    HW1 3545   0.887   4.001   2.264
 1179SOL    HW2 3546   1.034   3.958   2.323
 1180SOL     OW 3547   1.076   4.407   3.326
 1180SOL    HW1 3548   0.996   4.346   3.329
 1180SOL    HW2 3549   1.157   4.354   3.302
 1181SOL     OW 3550   1.032   4.273   1.878
 1181SOL    HW1 3551   0.991   4.355   1.839
 1181SOL    HW2 3552   1.096   4.299   1.951
 1182SOL     OW 3553   0.078   4.280   3.248
 1182SOL    HW1 3554   0.170   4.279   3.207
 1182SOL    HW2 3555   0.072   4.354   3.315
 1183SOL     OW 3556   0.561   3.946   3.009
 1183SOL    HW1 3557   0.599   3.862   3.046
 1183SOL    HW2 3558   0.473   3.965   3.053
 1184SOL     OW 3559   0.866   4.178   2.504
 1184SOL    HW1 3560   0.834   4.250   2.442
 1184SOL    HW2 3561   0.890   4.097   2.451
 1185SOL     OW 3562   1.017   3.763   2.615
 1185SOL    HW1 3563   0.945   3.768   2.546
 1185SOL    HW2 3564   0.993   3.694   2.684
 1186SOL     OW 3565   1.466   4.314   2.854
 1186SOL    HW1 3566   1.436   4.219   2.861
 1186SOL    HW2 3567   1.539   4.330   2.920
 1187SOL     OW 3568   1.857   4.557   2.239
 1187SOL    HW1 3569   1.899   4.493   2.303
 1187SOL    HW2 3570   1.819   4.506   2.161
 1188SOL     OW 3571   1.390   4.299   1.940
 1188SOL    HW1 3572   1.336   4.278   2.021
 1188SOL    HW2 3573   1.481   4.258   1.949
 1189SOL     OW 3574   0.527   3.980   2.190
 1189SOL    HW1 3575   0.554   3.921   2.115
 1189SOL    HW2 3576   0.527   4.075   2.159
 1190SOL     OW 3577   0.915   3.813   3.264
 1190SOL    HW1 3578   0.940   3.793   3.169
 1190SOL    HW2 3579   0.987   3.869   3.306
 1191SOL     OW 3580   0.705   4.774   2.230
 1191SOL    HW1 3581   0.691   4.781   2.329
 1191SOL    HW2 3582   0.789   4.723   2.212
 1192SOL     OW 3583   0.410   4.537   3.113
 1192SOL    HW1 3584   0.496   4.549   3.163
 1192SOL    HW2 3585   0.368   4.450   3.140
 1193SOL     OW 3586   1.274   4.110   3.124
 1193SOL    HW1 3587   1.295   4.184   3.188
 1193SOL    HW2 3588   1.185   4.127   3.081
 1194SOL     OW 3589   0.566   4.261   2.727
 1194SOL    HW1 3590   0.578   4.327   2.653
 1194SOL    HW2 3591   0.612   4.295   2.810
 1195SOL     OW 3592   1.582   4.363   2.334
 1195SOL    HW1 3593   1.551   4.424   2.407
 1195SOL    HW2 3594   1.632   4.415   2.265
 1196SOL     OW 3595   1.587   4.503   3.532
 1196SOL    HW1 3596   1.495   4.541   3.527
 1196SOL    HW2 3597   1.647   4.550   3.467
 1197SOL     OW 3598   1.013   3.829   3.632
 1197SOL    HW1 3599   1.019   3.914   3.580
 1197SOL    HW2 3600   1.045   3.753   3.575
 1198SOL     OW 3601   0.504   3.774   3.602
 1198SOL    HW1 3602   0.462   3.717   3.532
 1198SOL    HW2 3603   0.438   3.843   3.634
 1199SOL     OW 3604   1.360   4.586   2.907
 1199SOL    HW1 3605   1.285   4.586   2.841
 1199SOL    HW2 3606   1.397   4.494   2.916
 1200SOL     OW 3607   1.209   4.249   2.137
 1200SOL    HW1 3608   1.222   4.165   2.191
 1200SOL    HW2 3609   1.180   4.323   2.197
 1201SOL     OW 3610   0.307   3.937   3.093
 1201SOL    HW1 3611   0.284   3.974   3.183
 1201SOL    HW2 3612   0.277   3.842   3.087
 1202SOL     OW 3613   0.732   4.358   2.926
 1202SOL    HW1 3614   0.791   4.332   2.850
 1202SOL    HW2 3615   0.704   4.454   2.915
 1203SOL     OW 3616   1.728   4.659   3.716
 1203SOL    HW1 3617   1.682   4.652   3.627
 1203SOL    HW2 3618   1.666   4.703   3.782
 1204SOL     OW 3619   0.307   3.787   2.480
 1204SOL    HW1 3620   0.296   3.881   2.513
 1204SOL    HW2 3621   0.302   3.724   2.557
 1205SOL     OW 3622   1.622   4.091   2.236
 1205SOL    HW1 3623   1.624   4.015   2.300
 1205SOL    HW2 3624   1.574   4.168   2.276
 1206SOL     OW 3625   1.540   3.998   1.987
 1206SOL    HW1 3626   1.479   3.923   2.010
 1206SOL    HW2 3627   1.562   4.050   2.070
 1207SOL     OW 3628   0.319   4.534   2.811
 1207SOL    HW1 3629   0.412   4.570   2.816
 1207SOL    HW2 3630   0.313   4.449   2.863
 1208SOL     OW 3631   0.339   4.233   2.868
 1208SOL    HW1 3632   0.287   4.150   2.851
 1208SOL    HW2 3633   0.416   4.238   2.804
 1209SOL     OW 3634   1.138   4.104   3.540
 1209SOL    HW1 3635   1.093   4.167   3.604
 1209SOL    HW2 3636   1.231   4.135   3.523
 1210SOL     OW 3637   1.160   3.931   3.339
 1210SOL    HW1 3638   1.160   3.995   3.416
 1210SOL    HW2 3639   1.188   3.979   3.256
 1211SOL     OW 3640   0.040   4.268   2.976
 1211SOL    HW1 3641   0.125   4.235   2.935
 1211SOL    HW2 3642   0.053   4.283   3.074
 1212SOL     OW 3643   0.189   4.244   3.584
 1212SOL    HW1 3644   0.248   4.204   3.514
 1212SOL    HW2 3645   0.131   4.315   3.543
 1213SOL     OW 3646   0.815   4.296   2.187
 1213SOL    HW1 3647   0.822   4.207   2.141
 1213SOL    HW2 3648   0.721   4.330   2.179
 1214SOL     OW 3649   1.657   4.328   3.068
 1214SOL    HW1 3650   1.619   4.259   3.130
 1214SOL    HW2 3651   1.739   4.292   3.024
 1215SOL     OW 3652   0.671   4.188   3.131
 1215SOL    HW1 3653   0.637   4.099   3.101
 1215SOL    HW2 3654   0.697   4.242   3.051
 1216SOL     OW 3655   0.473   4.224   2.053
 1216SOL    HW1 3656   0.534   4.304   2.057
 1216SOL    HW2 3657   0.378   4.255   2.060
 1217SOL     OW 3658   1.726   3.859   2.385
 1217SOL    HW1 3659   1.799   3.842   2.318
 1217SOL    HW2 3660   1.695   3.772   2.423
 1218SOL     OW 3661   1.280   4.651   2.534
 1218SOL    HW1 3662   1.340   4.570   2.536
 1218SOL    HW2 3663   1.320   4.720   2.474
 1219SOL     OW 3664   1.841   3.899   2.825
 1219SOL    HW1 3665   1.880   3.814   2.789
 1219SOL    HW2 3666   1.743   3.901   2.806
 1220SOL     OW 3667   0.263   4.050   2.582
 1220SOL    HW1 3668   0.184   4.101   2.548
 1220SOL    HW2 3669   0.254   4.035   2.680
 1221SOL     OW 3670   0.916   4.634   2.153
 1221SOL    HW1 3671   0.979   4.672   2.085
 1221SOL    HW2 3672   0.956   4.551   2.192
 1222SOL     OW 3673   1.014   3.960   2.833
 1222SOL    HW1 3674   1.006   3.924   2.740
 1222SOL    HW2 3675   1.012   3.884   2.898
 1223SOL     OW 3676   1.709   4.109   3.243
 1223SOL    HW1 3677   1.782   4.178   3.247
 1223SOL    HW2 3678   1.737   4.034   3.184
 1224SOL     OW 3679   0.105   4.737   3.588
 1224SOL    HW1 3680   0.028   4.704   3.642
 1224SOL    HW2 3681   0.190   4.707   3.630
 1225SOL     OW 3682   0.672   3.927   3.351
 1225SOL    HW1 3683   0.762   3.911   3.311
 1225SOL    HW2 3684   0.680   3.932   3.450
 1226SOL     OW 3685   0.075   4.069   1.895
 1226SOL    HW1 3686  -0.017   4.041   1.866
 1226SOL    HW2 3687   0.106   4.146   1.839
 1227SOL     OW 3688   1.440   4.580   3.260
 1227SOL    HW1 3689   1.383   4.632   3.197
 1227SOL    HW2 3690   1.536   4.592   3.236
 1228SOL     OW 3691   0.072   3.890   2.180
 1228SOL    HW1 3692   0.055   3.973   2.126
 1228SOL    HW2 3693   0.162   3.853   2.158
 1229SOL     OW 3694   0.613   4.566   3.293
 1229SOL    HW1 3695   0.669   4.647   3.276
 1229SOL    HW2 3696   0.672   4.486   3.296
 1230SOL     OW 3697   0.716   4.289   3.570
 1230SOL    HW1 3698   0.735   4.354   3.644
 1230SOL    HW2 3699   0.776   4.209   3.579
 1231SOL     OW 3700   1.674   4.607   3.116
 1231SOL    HW1 3701   1.647   4.518   3.079
 1231SOL    HW2 3702   1.675   4.675   3.043
 1232SOL     OW 3703   1.225   4.049   2.311
 1232SOL    HW1 3704   1.290   3.975   2.300
 1232SOL    HW2 3705   1.245   4.099   2.395
 1233SOL     OW 3706   0.594   4.469   2.514
 1233SOL    HW1 3707   0.644   4.554   2.495
 1233SOL    HW2 3708   0.506   4.471   2.466
 1234SOL     OW 3709   1.777   4.066   3.504
 1234SOL    HW1 3710   1.760   4.097   3.410
 1234SOL    HW2 3711   1.693   4.029   3.542
 1235SOL     OW 3712   1.824   3.916   3.089
 1235SOL    HW1 3713   1.820   3.826   3.133
 1235SOL    HW2 3714   1.827   3.905   2.990
 1236SOL     OW 3715   0.428   4.148   2.382
 1236SOL    HW1 3716   0.458   4.076   2.320
 1236SOL    HW2 3717   0.389   4.108   2.465
 1237SOL     OW 3718   0.317   4.271   3.142
 1237SOL    HW1 3719   0.355   4.212   3.214
 1237SOL    HW2 3720   0.357   4.245   3.054
 1238SOL     OW 3721   1.424   3.938   2.974
 1238SOL    HW1 3722   1.476   3.873   3.029
 1238SOL    HW2 3723   1.375   4.001   3.035
 1239SOL     OW 3724   1.001   3.758   3.016
 1239SOL    HW1 3725   0.938   3.686   2.985
 1239SOL    HW2 3726   1.094   3.722   3.016
 1240SOL     OW 3727   1.352   3.776   2.030
 1240SOL    HW1 3728   1.387   3.735   1.946
 1240SOL    HW2 3729   1.262   3.738   2.050
 1241SOL     OW 3730   1.300   4.177   2.553
 1241SOL    HW1 3731   1.241   4.257   2.557
 1241SOL    HW2 3732   1.315   4.142   2.646
 1242SOL     OW 3733   1.593   3.945   2.744
 1242SOL    HW1 3734   1.509   3.944   2.798
 1242SOL    HW2 3735   1.595   4.028   2.688
 1243SOL     OW 3736   0.230   4.352   3.837
 1243SOL    HW1 3737   0.137   4.350   3.874
 1243SOL    HW2 3738   0.231   4.313   3.745
 1244SOL     OW 3739   0.019   4.092   4.371
 1244SOL    HW1 3740  -0.063   4.135   4.410
 1244SOL    HW2 3741  -0.009   4.019   4.308
 1245SOL     OW 3742   1.135   4.427   4.441
 1245SOL    HW1 3743   1.192   4.505   4.416
 1245SOL    HW2 3744   1.075   4.453   4.517
 1246SOL     OW 3745   1.755   4.331   3.955
 1246SOL    HW1 3746   1.743   4.318   3.856
 1246SOL    HW2 3747   1.725   4.250   4.004
 1247SOL     OW 3748   0.685   4.736   4.389
 1247SOL    HW1 3749   0.754   4.720   4.459
 1247SOL    HW2 3750   0.612   4.793   4.427
 1248SOL     OW 3751   1.603   4.171   4.461
 1248SOL    HW1 3752   1.529   4.217   4.411
 1248SOL    HW2 3753   1.654   4.239   4.514
 1249SOL     OW 3754   0.122   4.367   4.287
 1249SOL    HW1 3755   0.077   4.279   4.304
 1249SOL    HW2 3756   0.121   4.421   4.371
 1250SOL     OW 3757   0.809   3.728   4.226
 1250SOL    HW1 3758   0.849   3.819   4.217
 1250SOL    HW2 3759   0.709   3.736   4.232
 1251SOL     OW 3760   0.598   4.453   3.994
 1251SOL    HW1 3761   0.622   4.522   3.926
 1251SOL    HW2 3762   0.520   4.486   4.048
 1252SOL     OW 3763   1.281   4.069   4.668
 1252SOL    HW1 3764   1.195   4.019   4.655
 1252SOL    HW2 3765   1.343   4.015   4.724
 1253SOL     OW 3766   1.041   4.425   4.153
 1253SOL    HW1 3767   1.067   4.421   4.249
 1253SOL    HW2 3768   0.956   4.374   4.139
 1254SOL     OW 3769   0.076   4.535   4.513
 1254SOL    HW1 3770   0.175   4.523   4.522
 1254SOL    HW2 3771   0.052   4.630   4.534
 1255SOL     OW 3772   0.865   4.072   3.919
 1255SOL    HW1 3773   0.924   4.135   3.870
 1255SOL    HW2 3774   0.884   3.978   3.890
 1256SOL     OW 3775   0.550   3.920   4.609
 1256SOL    HW1 3776   0.545   3.915   4.709
 1256SOL    HW2 3777   0.552   4.016   4.580
 1257SOL     OW 3778   1.458   4.459   4.452
 1257SOL    HW1 3779   1.453   4.394   4.527
 1257SOL    HW2 3780   1.538   4.518   4.465
 1258SOL     OW 3781   1.400   3.831   4.150
 1258SOL    HW1 3782   1.376   3.794   4.060
 1258SOL    HW2 3783   1.499   3.847   4.154
 1259SOL     OW 3784   0.382   4.424   4.204
 1259SOL    HW1 3785   0.427   4.334   4.201
 1259SOL    HW2 3786   0.288   4.413   4.237
 1260SOL     OW 3787   0.614   3.846   3.841
 1260SOL    HW1 3788   0.712   3.824   3.848
 1260SOL    HW2 3789   0.583   3.829   3.748
 1261SOL     OW 3790   0.539   3.788   4.236
 1261SOL    HW1 3791   0.458   3.789   4.294
 1261SOL    HW2 3792   0.542   3.871   4.181
 1262SOL     OW 3793   0.297   3.759   3.895
 1262SOL    HW1 3794   0.346   3.843   3.874
 1262SOL    HW2 3795   0.359   3.694   3.940
 1263SOL     OW 3796   0.935   3.960   4.204
 1263SOL    HW1 3797   0.887   4.001   4.126
 1263SOL    HW2 3798   1.034   3.958   4.185
 1264SOL     OW 3799   0.459   4.876   4.465
 1264SOL    HW1 3800   0.388   4.849   4.530
 1264SOL    HW2 3801   0.433   4.848   4.372
 1265SOL     OW 3802   1.032   4.273   3.740
 1265SOL    HW1 3803   0.991   4.355   3.701
 1265SOL    HW2 3804   1.096   4.299   3.813
 1266SOL     OW 3805   0.866   4.178   4.366
 1266SOL    HW1 3806   0.834   4.250   4.304
 1266SOL    HW2 3807   0.890   4.097   4.313
 1267SOL     OW 3808   1.017   3.763   4.477
 1267SOL    HW1 3809   0.945   3.768   4.408
 1267SOL    HW2 3810   0.993   3.694   4.546
 1268SOL     OW 3811   1.857   4.557   4.101
 1268SOL    HW1 3812   1.899   4.493   4.165
 1268SOL    HW2 3813   1.819   4.506   4.023
 1269SOL     OW 3814   1.390   4.299   3.802
 1269SOL    HW1 3815   1.336   4.278   3.883
 1269SOL    HW2 3816   1.481   4.258   3.811
 1270SOL     OW 3817   0.527   3.980   4.052
 1270SOL    HW1 3818   0.554   3.921   3.977
 1270SOL    HW2 3819   0.527   4.075   4.021
 1271SOL     OW 3820   0.705   4.774   4.092
 1271SOL    HW1 3821   0.691   4.781   4.191
 1271SOL    HW2 3822   0.789   4.723   4.074
 1272SOL     OW 3823   0.566   4.261   4.589
 1272SOL    HW1 3824   0.578   4.327   4.515
 1272SOL    HW2 3825   0.612   4.295   4.672
 1273SOL     OW 3826   1.582   4.363   4.196
 1273SOL    HW1 3827   1.551   4.424   4.269
 1273SOL    HW2 3828   1.632   4.415   4.127
 1274SOL     OW 3829   1.209   4.249   3.999
 1274SOL    HW1 3830   1.222   4.165   4.053
 1274SOL    HW2 3831   1.180   4.323   4.059
 1275SOL     OW 3832   0.307   3.787   4.342
 1275SOL    HW1 3833   0.296   3.881   4.375
 1275SOL    HW2 3834   0.302   3.724   4.419
 1276SOL     OW 3835   1.622   4.091   4.098
 1276SOL    HW1 3836   1.624   4.015   4.162
 1276SOL    HW2 3837   1.574   4.168   4.138
 1277SOL     OW 3838   1.540   3.998   3.849
 1277SOL    HW1 3839   1.479   3.923   3.872
 1277SOL    HW2 3840   1.562   4.050   3.932
 1278SOL     OW 3841   0.815   4.296   4.049
 1278SOL    HW1 3842   0.822   4.207   4.003
 1278SOL    HW2 3843   0.721   4.330   4.041
 1279SOL     OW 3844   0.473   4.224   3.915
 1279SOL    HW1 3845   0.534   4.304   3.919
 1279SOL    HW2 3846   0.378   4.255   3.922
 1280SOL     OW 3847   1.726   3.859   4.247
 1280SOL    HW1 3848   1.799   3.842   4.180
 1280SOL    HW2 3849   1.695   3.772   4.285
 1281SOL     OW 3850   1.280   4.651   4.396
 1281SOL    HW1 3851   1.340   4.570   4.398
 1281SOL    HW2 3852   1.320   4.720   4.336
 1282SOL     OW 3853   1.841   3.899   4.687
 1282SOL    HW1 3854   1.880   3.814   4.651
 1282SOL    HW2 3855   1.743   3.901   4.668
 1283SOL     OW 3856   0.263   4.050   4.444
 1283SOL    HW1 3857   0.184   4.101   4.410
 1283SOL    HW2 3858   0.254   4.035   4.542
 1284SOL     OW 3859   0.916   4.634   4.015
 1284SOL    HW1 3860   0.979   4.672   3.947
 1284SOL    HW2 3861   0.956   4.551   4.054
 1285SOL     OW 3862   0.075   4.069   3.757
 1285SOL    HW1 3863  -0.017   4.041   3.728
 1285SOL    HW2 3864   0.106   4.146   3.701
 1286SOL     OW 3865   0.072   3.890   4.042
 1286SOL    HW1 3866   0.055   3.973   3.988
 1286SOL    HW2 3867   0.162   3.853   4.020
 1287SOL     OW 3868   1.225   4.049   4.173
 1287SOL    HW1 3869   1.290   3.975   4.162
 1287SOL    HW2 3870   1.245   4.099   4.257
 1288SOL     OW 3871   0.594   4.469   4.376
 1288SOL    HW1 3872   0.644   4.554   4.357
 1288SOL    HW2 3873   0.506   4.471   4.328
 1289SOL     OW 3874   0.428   4.148   4.244
 1289SOL    HW1 3875   0.458   4.076   4.182
 1289SOL    HW2 3876   0.389   4.108   4.327
 1290SOL     OW 3877   1.352   3.776   3.892
 1290SOL    HW1 3878   1.387   3.735   3.808
 1290SOL    HW2 3879   1.262   3.738   3.912
 1291SOL     OW 3880   1.300   4.177   4.415
 1291SOL    HW1 3881   1.241   4.257   4.419
 1291SOL    HW2 3882   1.315   4.142   4.508
 1292SOL     OW 3883   2.092   0.628   0.113
 1292SOL    HW1 3884   1.999   0.626   0.150
 1292SOL    HW2 3885   2.093   0.589   0.021
 1293SOL     OW 3886   2.087   0.275   0.996
 1293SOL    HW1 3887   2.122   0.258   1.088
 1293SOL    HW2 3888   1.999   0.230   0.984
 1294SOL     OW 3889   1.881   0.368   0.647
 1294SOL    HW1 3890   1.799   0.411   0.686
 1294SOL    HW2 3891   1.853   0.295   0.584
 1295SOL     OW 3892   2.431   1.275   1.165
 1295SOL    HW1 3893   2.338   1.268   1.128
 1295SOL    HW2 3894   2.442   1.364   1.209
 1296SOL     OW 3895   3.417   1.511   0.703
 1296SOL    HW1 3896   3.360   1.495   0.784
 1296SOL    HW2 3897   3.358   1.521   0.623
 1297SOL     OW 3898   2.997   0.703   0.717
 1297SOL    HW1 3899   3.054   0.781   0.692
 1297SOL    HW2 3900   2.937   0.729   0.793
 1298SOL     OW 3901   3.617   0.607   0.231
 1298SOL    HW1 3902   3.605   0.594   0.132
 1298SOL    HW2 3903   3.587   0.526   0.280
 1299SOL     OW 3904   2.630   1.144   1.023
 1299SOL    HW1 3905   2.552   1.161   1.083
 1299SOL    HW2 3906   2.664   1.231   0.987
 1300SOL     OW 3907   2.712   0.798   1.823
 1300SOL    HW1 3908   2.708   0.874   1.888
 1300SOL    HW2 3909   2.734   0.834   1.732
 1301SOL     OW 3910   2.547   1.012   0.665
 1301SOL    HW1 3911   2.616   0.996   0.735
 1301SOL    HW2 3912   2.474   1.069   0.703
 1302SOL     OW 3913   2.548   1.161   1.803
 1302SOL    HW1 3914   2.608   1.240   1.817
 1302SOL    HW2 3915   2.462   1.192   1.762
 1303SOL     OW 3916   2.197   1.435   1.061
 1303SOL    HW1 3917   2.119   1.404   1.008
 1303SOL    HW2 3918   2.255   1.493   1.004
 1304SOL     OW 3919   3.322   1.505   1.339
 1304SOL    HW1 3920   3.346   1.599   1.365
 1304SOL    HW2 3921   3.306   1.451   1.421
 1305SOL     OW 3922   2.300   0.392   1.499
 1305SOL    HW1 3923   2.382   0.336   1.508
 1305SOL    HW2 3924   2.219   0.334   1.503
 1306SOL     OW 3925   3.465   0.447   0.737
 1306SOL    HW1 3926   3.391   0.493   0.687
 1306SOL    HW2 3927   3.516   0.515   0.790
 1307SOL     OW 3928   2.093   1.713   0.483
 1307SOL    HW1 3929   2.127   1.790   0.537
 1307SOL    HW2 3930   2.137   1.713   0.393
 1308SOL     OW 3931   2.989   1.341   1.690
 1308SOL    HW1 3932   3.036   1.341   1.778
 1308SOL    HW2 3933   2.941   1.254   1.679
 1309SOL     OW 3934   2.092   1.434   0.538
 1309SOL    HW1 3935   2.066   1.530   0.538
 1309SOL    HW2 3936   2.021   1.380   0.583
 1310SOL     OW 3937   2.102   1.091   0.886
 1310SOL    HW1 3938   2.116   1.007   0.938
 1310SOL    HW2 3939   2.047   1.155   0.941
 1311SOL     OW 3940   2.482   1.786   1.439
 1311SOL    HW1 3941   2.390   1.769   1.474
 1311SOL    HW2 3942   2.510   1.878   1.465
 1312SOL     OW 3943   2.468   0.964   0.123
 1312SOL    HW1 3944   2.475   1.048   0.069
 1312SOL    HW2 3945   2.514   0.977   0.211
 1313SOL     OW 3946   3.456   0.114   1.480
 1313SOL    HW1 3947   3.438   0.181   1.408
 1313SOL    HW2 3948   3.453   0.160   1.569
 1314SOL     OW 3949   1.984   0.643   0.563
 1314SOL    HW1 3950   1.939   0.555   0.580
 1314SOL    HW2 3951   1.983   0.697   0.647
 1315SOL     OW 3952   3.704   1.767   0.359
 1315SOL    HW1 3953   3.758   1.738   0.439
 1315SOL    HW2 3954   3.734   1.857   0.330
 1316SOL     OW 3955   1.889   1.596   0.117
 1316SOL    HW1 3956   1.870   1.500   0.138
 1316SOL    HW2 3957   1.856   1.654   0.192
 1317SOL     OW 3958   3.551   0.922   0.612
 1317SOL    HW1 3959   3.646   0.893   0.620
 1317SOL    HW2 3960   3.543   0.987   0.537
 1318SOL     OW 3961   3.503   1.108   0.432
 1318SOL    HW1 3962   3.589   1.110   0.380
 1318SOL    HW2 3963   3.517   1.155   0.520
 1319SOL     OW 3964   1.975   0.737   1.597
 1319SOL    HW1 3965   2.063   0.724   1.642
 1319SOL    HW2 3966   1.962   0.834   1.575
 1320SOL     OW 3967   2.475   1.365   0.726
 1320SOL    HW1 3968   2.426   1.278   0.735
 1320SOL    HW2 3969   2.452   1.408   0.639
 1321SOL     OW 3970   3.155   1.228   1.423
 1321SOL    HW1 3971   3.192   1.155   1.365
 1321SOL    HW2 3972   3.207   1.233   1.508
 1322SOL     OW 3973   2.671   0.004   0.502
 1322SOL    HW1 3974   2.711   0.095   0.493
 1322SOL    HW2 3975   2.571   0.012   0.508
 1323SOL     OW 3976   2.059   0.976   1.264
 1323SOL    HW1 3977   2.148   0.931   1.250
 1323SOL    HW2 3978   1.986   0.911   1.245
 1324SOL     OW 3979   3.387   0.999   0.190
 1324SOL    HW1 3980   3.324   0.923   0.203
 1324SOL    HW2 3981   3.435   1.017   0.276
 1325SOL     OW 3982   3.049   1.792   1.616
 1325SOL    HW1 3983   3.073   1.852   1.540
 1325SOL    HW2 3984   3.056   1.697   1.586
 1326SOL     OW 3985   2.179   0.251   1.801
 1326SOL    HW1 3986   2.250   0.322   1.807
 1326SOL    HW2 3987   2.091   0.290   1.829
 1327SOL     OW 3988   3.328   1.417   0.953
 1327SOL    HW1 3989   3.269   1.423   1.033
 1327SOL    HW2 3990   3.313   1.329   0.907
 1328SOL     OW 3991   3.529   1.714   0.572
 1328SOL    HW1 3992   3.488   1.691   0.484
 1328SOL    HW2 3993   3.511   1.640   0.637
 1329SOL     OW 3994   2.460   0.729   0.270
 1329SOL    HW1 3995   2.484   0.798   0.202
 1329SOL    HW2 3996   2.382   0.762   0.324
 1330SOL     OW 3997   3.143   0.345   0.944
 1330SOL    HW1 3998   3.057   0.295   0.931
 1330SOL    HW2 3999   3.205   0.291   1.000
 1331SOL     OW 4000   3.438   1.662   0.307
 1331SOL    HW1 4001   3.527   1.708   0.310
 1331SOL    HW2 4002   3.417   1.638   0.212
 1332SOL     OW 4003   2.669   0.605   1.465
 1332SOL    HW1 4004   2.622   0.602   1.554
 1332SOL    HW2 4005   2.618   0.550   1.399
 1333SOL     OW 4006   3.256   0.469   1.674
 1333SOL    HW1 4007   3.236   0.512   1.762
 1333SOL    HW2 4008   3.334   0.407   1.683
 1334SOL     OW 4009   2.835   0.890   1.572
 1334SOL    HW1 4010   2.881   0.806   1.543
 1334SOL    HW2 4011   2.779   0.924   1.497
 1335SOL     OW 4012   2.853   0.410   1.242
 1335SOL    HW1 4013   2.776   0.444   1.296
 1335SOL    HW2 4014   2.819   0.359   1.163
 1336SOL     OW 4015   2.903   0.701   0.429
 1336SOL    HW1 4016   2.929   0.697   0.525
 1336SOL    HW2 4017   2.818   0.650   0.415
 1337SOL     OW 4018   1.938   0.811   0.789
 1337SOL    HW1 4019   2.037   0.799   0.798
 1337SOL    HW2 4020   1.914   0.906   0.810
 1338SOL     OW 4021   1.992   1.821   1.571
 1338SOL    HW1 4022   1.982   1.806   1.670
 1338SOL    HW2 4023   1.906   1.857   1.535
 1339SOL     OW 4024   2.727   0.348   0.195
 1339SOL    HW1 4025   2.786   0.411   0.146
 1339SOL    HW2 4026   2.746   0.254   0.166
 1340SOL     OW 4027   3.581   0.585   1.831
 1340SOL    HW1 4028   3.555   0.674   1.795
 1340SOL    HW2 4029   3.579   0.517   1.758
 1341SOL     OW 4030   3.224   1.144   0.545
 1341SOL    HW1 4031   3.307   1.115   0.497
 1341SOL    HW2 4032   3.175   1.211   0.489
 1342SOL     OW 4033   2.412   0.196   0.885
 1342SOL    HW1 4034   2.407   0.191   0.985
 1342SOL    HW2 4035   2.414   0.292   0.856
 1343SOL     OW 4036   2.870   1.456   0.477
 1343SOL    HW1 4037   2.824   1.528   0.425
 1343SOL    HW2 4038   2.866   1.476   0.575
 1344SOL     OW 4039   2.213   1.801   0.853
 1344SOL    HW1 4040   2.263   1.715   0.859
 1344SOL    HW2 4041   2.278   1.878   0.850
 1345SOL     OW 4042   3.657   1.066   0.873
 1345SOL    HW1 4043   3.595   1.051   0.797
 1345SOL    HW2 4044   3.605   1.077   0.958
 1346SOL     OW 4045   3.089   1.550   1.506
 1346SOL    HW1 4046   3.095   1.473   1.570
 1346SOL    HW2 4047   3.037   1.524   1.426
 1347SOL     OW 4048   2.183   0.943   0.242
 1347SOL    HW1 4049   2.265   0.982   0.200
 1347SOL    HW2 4050   2.156   0.861   0.193
 1348SOL     OW 4051   3.320   0.735   0.728
 1348SOL    HW1 4052   3.315   0.670   0.803
 1348SOL    HW2 4053   3.400   0.794   0.741
 1349SOL     OW 4054   2.323   1.266   1.727
 1349SOL    HW1 4055   2.273   1.267   1.641
 1349SOL    HW2 4056   2.260   1.248   1.803
 1350SOL     OW 4057   2.973   1.776   0.237
 1350SOL    HW1 4058   2.913   1.714   0.287
 1350SOL    HW2 4059   3.004   1.732   0.152
 1351SOL     OW 4060   2.064   0.285   1.498
 1351SOL    HW1 4061   1.984   0.345   1.485
 1351SOL    HW2 4062   2.054   0.236   1.584
 1352SOL     OW 4063   3.494   1.377   0.081
 1352SOL    HW1 4064   3.462   1.471   0.071
 1352SOL    HW2 4065   3.418   1.314   0.069
 1353SOL     OW 4066   2.326   1.743   0.323
 1353SOL    HW1 4067   2.359   1.782   0.409
 1353SOL    HW2 4068   2.402   1.736   0.258
 1354SOL     OW 4069   3.262   0.107   0.426
 1354SOL    HW1 4070   3.238   0.070   0.336
 1354SOL    HW2 4071   3.361   0.123   0.430
 1355SOL     OW 4072   2.111   1.785   1.241
 1355SOL    HW1 4073   2.168   1.720   1.291
 1355SOL    HW2 4074   2.095   1.752   1.148
 1356SOL     OW 4075   2.802   1.698   0.904
 1356SOL    HW1 4076   2.882   1.641   0.925
 1356SOL    HW2 4077   2.753   1.658   0.827
 1357SOL     OW 4078   2.244   0.700   0.480
 1357SOL    HW1 4079   2.289   0.610   0.477
 1357SOL    HW2 4080   2.150   0.689   0.513
 1358SOL     OW 4081   3.409   0.222   1.729
 1358SOL    HW1 4082   3.404   0.259   1.821
 1358SOL    HW2 4083   3.337   0.153   1.717
 1359SOL     OW 4084   2.476   0.122   0.117
 1359SOL    HW1 4085   2.574   0.100   0.124
 1359SOL    HW2 4086   2.445   0.105   0.024
 1360SOL     OW 4087   2.643   0.264   1.749
 1360SOL    HW1 4088   2.710   0.203   1.792
 1360SOL    HW2 4089   2.570   0.283   1.814
 1361SOL     OW 4090   2.750   1.514   1.195
 1361SOL    HW1 4091   2.727   1.489   1.101
 1361SOL    HW2 4092   2.811   1.445   1.234
 1362SOL     OW 4093   3.213   0.590   1.433
 1362SOL    HW1 4094   3.241   0.547   1.518
 1362SOL    HW2 4095   3.238   0.686   1.434
 1363SOL     OW 4096   2.665   1.402   0.924
 1363SOL    HW1 4097   2.755   1.416   0.882
 1363SOL    HW2 4098   2.594   1.404   0.853
 1364SOL     OW 4099   2.784   0.503   0.899
 1364SOL    HW1 4100   2.759   0.494   0.803
 1364SOL    HW2 4101   2.832   0.421   0.930
 1365SOL     OW 4102   2.401   0.064   0.512
 1365SOL    HW1 4103   2.320   0.065   0.570
 1365SOL    HW2 4104   2.404   0.147   0.457
 1366SOL     OW 4105   3.296   1.188   0.041
 1366SOL    HW1 4106   3.328   1.112   0.098
 1366SOL    HW2 4107   3.204   1.215   0.071
 1367SOL     OW 4108   2.159   0.035   0.171
 1367SOL    HW1 4109   2.208   0.119   0.150
 1367SOL    HW2 4110   2.221  -0.030   0.216
 1368SOL     OW 4111   2.797   0.236   0.480
 1368SOL    HW1 4112   2.749   0.277   0.402
 1368SOL    HW2 4113   2.896   0.234   0.461
 1369SOL     OW 4114   2.938   0.683   1.464
 1369SOL    HW1 4115   2.858   0.622   1.467
 1369SOL    HW2 4116   3.019   0.630   1.440
 1370SOL     OW 4117   3.089   1.570   0.793
 1370SOL    HW1 4118   3.110   1.644   0.728
 1370SOL    HW2 4119   3.157   1.570   0.866
 1371SOL     OW 4120   2.321   1.152   0.741
 1371SOL    HW1 4121   2.250   1.125   0.806
 1371SOL    HW2 4122   2.295   1.124   0.648
 1372SOL     OW 4123   3.133   1.797   0.591
 1372SOL    HW1 4124   3.177   1.861   0.527
 1372SOL    HW2 4125   3.083   1.849   0.661
 1373SOL     OW 4126   2.894   0.549   0.016
 1373SOL    HW1 4127   2.853   0.631  -0.023
 1373SOL    HW2 4128   2.958   0.575   0.089
 1374SOL     OW 4129   1.940   0.556   1.386
 1374SOL    HW1 4130   2.032   0.555   1.345
 1374SOL    HW2 4131   1.934   0.630   1.453
 1375SOL     OW 4132   2.423   0.222   1.147
 1375SOL    HW1 4133   2.461   0.138   1.184
 1375SOL    HW2 4134   2.335   0.241   1.191
 1376SOL     OW 4135   2.728   0.454   0.642
 1376SOL    HW1 4136   2.696   0.526   0.580
 1376SOL    HW2 4137   2.752   0.373   0.589
 1377SOL     OW 4138   2.879   0.039   0.753
 1377SOL    HW1 4139   2.807   0.044   0.684
 1377SOL    HW2 4140   2.855  -0.030   0.822
 1378SOL     OW 4141   3.291   1.173   0.867
 1378SOL    HW1 4142   3.236   1.089   0.860
 1378SOL    HW2 4143   3.317   1.202   0.775
 1379SOL     OW 4144   3.328   0.590   0.992
 1379SOL    HW1 4145   3.298   0.495   0.999
 1379SOL    HW2 4146   3.401   0.606   1.058
 1380SOL     OW 4147   3.719   0.833   0.377
 1380SOL    HW1 4148   3.761   0.769   0.441
 1380SOL    HW2 4149   3.681   0.782   0.299
 1381SOL     OW 4150   2.350   1.385   0.174
 1381SOL    HW1 4151   2.263   1.370   0.221
 1381SOL    HW2 4152   2.333   1.411   0.079
 1382SOL     OW 4153   3.526   1.280   0.657
 1382SOL    HW1 4154   3.625   1.288   0.671
 1382SOL    HW2 4155   3.481   1.364   0.688
 1383SOL     OW 4156   3.252   0.575   0.078
 1383SOL    HW1 4157   3.198   0.554   0.159
 1383SOL    HW2 4158   3.343   0.534   0.087
 1384SOL     OW 4159   2.389   0.256   0.328
 1384SOL    HW1 4160   2.416   0.197   0.253
 1384SOL    HW2 4161   2.389   0.351   0.297
 1385SOL     OW 4162   3.616   1.223   1.588
 1385SOL    HW1 4163   3.707   1.184   1.575
 1385SOL    HW2 4164   3.624   1.319   1.612
 1386SOL     OW 4165   2.926   1.347   1.340
 1386SOL    HW1 4166   2.846   1.324   1.395
 1386SOL    HW2 4167   3.009   1.321   1.389
 1387SOL     OW 4168   3.454   1.629   1.625
 1387SOL    HW1 4169   3.481   1.663   1.535
 1387SOL    HW2 4170   3.533   1.591   1.671
 1388SOL     OW 4171   2.973   1.195   1.100
 1388SOL    HW1 4172   2.933   1.239   1.181
 1388SOL    HW2 4173   2.932   1.232   1.017
 1389SOL     OW 4174   3.500   1.099   1.079
 1389SOL    HW1 4175   3.505   1.180   1.138
 1389SOL    HW2 4176   3.414   1.101   1.028
 1390SOL     OW 4177   2.777   0.089   1.402
 1390SOL    HW1 4178   2.802   0.069   1.307
 1390SOL    HW2 4179   2.849   0.145   1.444
 1391SOL     OW 4180   2.842   1.116   1.719
 1391SOL    HW1 4181   2.743   1.122   1.729
 1391SOL    HW2 4182   2.865   1.036   1.663
 1392SOL     OW 4183   2.567   1.050   0.368
 1392SOL    HW1 4184   2.553   1.057   0.467
 1392SOL    HW2 4185   2.651   0.999   0.350
 1393SOL     OW 4186   2.272   0.813   1.251
 1393SOL    HW1 4187   2.358   0.825   1.301
 1393SOL    HW2 4188   2.230   0.726   1.278
 1394SOL     OW 4189   3.136   0.386   1.262
 1394SOL    HW1 4190   3.157   0.460   1.326
 1394SOL    HW2 4191   3.047   0.403   1.219
 1395SOL     OW 4192   1.926   1.564   1.331
 1395SOL    HW1 4193   1.880   1.646   1.297
 1395SOL    HW2 4194   2.024   1.583   1.340
 1396SOL     OW 4195   2.229   1.100   0.501
 1396SOL    HW1 4196   2.222   1.183   0.445
 1396SOL    HW2 4197   2.233   1.020   0.441
 1397SOL     OW 4198   2.428   0.537   0.865
 1397SOL    HW1 4199   2.440   0.603   0.791
 1397SOL    HW2 4200   2.474   0.571   0.948
 1398SOL     OW 4201   3.114   1.348   0.388
 1398SOL    HW1 4202   3.164   1.425   0.428
 1398SOL    HW2 4203   3.019   1.350   0.420
 1399SOL     OW 4204   3.134   1.445   1.142
 1399SOL    HW1 4205   3.181   1.458   1.229
 1399SOL    HW2 4206   3.068   1.371   1.151
 1400SOL     OW 4207   3.444   0.639   0.472
 1400SOL    HW1 4208   3.413   0.700   0.545
 1400SOL    HW2 4209   3.494   0.691   0.403
 1401SOL     OW 4210   2.216   1.510   1.329
 1401SOL    HW1 4211   2.195   1.466   1.242
 1401SOL    HW2 4212   2.313   1.536   1.332
 1402SOL     OW 4213   2.264   0.751   1.598
 1402SOL    HW1 4214   2.332   0.806   1.551
 1402SOL    HW2 4215   2.304   0.663   1.625
 1403SOL     OW 4216   3.449   0.779   1.670
 1403SOL    HW1 4217   3.357   0.817   1.665
 1403SOL    HW2 4218   3.509   0.826   1.605
 1404SOL     OW 4219   2.875   0.105   1.770
 1404SOL    HW1 4220   2.881   0.190   1.718
 1404SOL    HW2 4221   2.907   0.029   1.713
 1405SOL     OW 4222   2.366   0.050   1.740
 1405SOL    HW1 4223   2.324  -0.007   1.670
 1405SOL    HW2 4224   2.300   0.119   1.772
 1406SOL     OW 4225   2.435   0.870   1.029
 1406SOL    HW1 4226   2.479   0.959   1.020
 1406SOL    HW2 4227   2.372   0.870   1.106
 1407SOL     OW 4228   3.222   0.862   1.045
 1407SOL    HW1 4229   3.147   0.862   0.979
 1407SOL    HW2 4230   3.259   0.770   1.054
 1408SOL     OW 4231   3.071   0.525   0.275
 1408SOL    HW1 4232   3.084   0.441   0.329
 1408SOL    HW2 4233   3.042   0.599   0.335
 1409SOL     OW 4234   2.169   0.213   1.231
 1409SOL    HW1 4235   2.146   0.250   1.321
 1409SOL    HW2 4236   2.139   0.118   1.225
 1410SOL     OW 4237   1.899   1.310   1.282
 1410SOL    HW1 4238   1.952   1.261   1.350
 1410SOL    HW2 4239   1.921   1.408   1.287
 1411SOL     OW 4240   2.594   0.634   1.064
 1411SOL    HW1 4241   2.653   0.608   0.988
 1411SOL    HW2 4242   2.566   0.730   1.053
 1412SOL     OW 4243   3.590   0.935   1.854
 1412SOL    HW1 4244   3.544   0.928   1.765
 1412SOL    HW2 4245   3.528   0.979   1.920
 1413SOL     OW 4246   2.169   0.063   0.618
 1413SOL    HW1 4247   2.158   0.157   0.651
 1413SOL    HW2 4248   2.164   0.000   0.695
 1414SOL     OW 4249   3.484   0.367   0.374
 1414SOL    HW1 4250   3.486   0.291   0.438
 1414SOL    HW2 4251   3.436   0.444   0.414
 1415SOL     OW 4252   2.885   0.766   0.966
 1415SOL    HW1 4253   2.900   0.787   1.062
 1415SOL    HW2 4254   2.855   0.671   0.957
 1416SOL     OW 4255   2.842   1.573   1.700
 1416SOL    HW1 4256   2.822   1.617   1.612
 1416SOL    HW2 4257   2.881   1.482   1.684
 1417SOL     OW 4258   3.721   1.518   1.605
 1417SOL    HW1 4259   3.735   1.545   1.510
 1417SOL    HW2 4260   3.804   1.540   1.658
 1418SOL     OW 4261   2.212   0.898   1.804
 1418SOL    HW1 4262   2.288   0.942   1.852
 1418SOL    HW2 4263   2.247   0.851   1.722
 1419SOL     OW 4264   3.402   0.274   0.125
 1419SOL    HW1 4265   3.341   0.199   0.148
 1419SOL    HW2 4266   3.424   0.326   0.208
 1420SOL     OW 4267   3.165   0.838   0.042
 1420SOL    HW1 4268   3.199   0.745   0.057
 1420SOL    HW2 4269   3.183   0.865  -0.053
 1421SOL     OW 4270   2.930   1.333   0.849
 1421SOL    HW1 4271   2.937   1.249   0.794
 1421SOL    HW2 4272   2.992   1.402   0.813
 1422SOL     OW 4273   2.181   0.810   0.949
 1422SOL    HW1 4274   2.274   0.846   0.954
 1422SOL    HW2 4275   2.175   0.725   1.001
 1423SOL     OW 4276   2.201   0.509   1.006
 1423SOL    HW1 4277   2.149   0.426   0.989
 1423SOL    HW2 4278   2.278   0.514   0.942
 1424SOL     OW 4279   3.000   0.380   1.678
 1424SOL    HW1 4280   2.955   0.443   1.742
 1424SOL    HW2 4281   3.093   0.411   1.661
 1425SOL     OW 4282   3.022   0.207   1.477
 1425SOL    HW1 4283   3.022   0.271   1.554
 1425SOL    HW2 4284   3.050   0.255   1.394
 1426SOL     OW 4285   1.870   1.326   0.200
 1426SOL    HW1 4286   1.777   1.347   0.169
 1426SOL    HW2 4287   1.880   1.227   0.213
 1427SOL     OW 4288   1.950   1.801   0.927
 1427SOL    HW1 4289   1.908   1.715   0.900
 1427SOL    HW2 4290   2.044   1.804   0.893
 1428SOL     OW 4291   2.366   1.568   0.910
 1428SOL    HW1 4292   2.432   1.642   0.919
 1428SOL    HW2 4293   2.410   1.489   0.868
 1429SOL     OW 4294   2.864   0.796   1.238
 1429SOL    HW1 4295   2.905   0.764   1.324
 1429SOL    HW2 4296   2.768   0.769   1.235
 1430SOL     OW 4297   1.902   0.544   1.114
 1430SOL    HW1 4298   1.987   0.511   1.073
 1430SOL    HW2 4299   1.915   0.559   1.212
 1431SOL     OW 4300   2.051   0.520   1.722
 1431SOL    HW1 4301   2.110   0.480   1.652
 1431SOL    HW2 4302   1.993   0.591   1.681
 1432SOL     OW 4303   3.231   0.950   1.660
 1432SOL    HW1 4304   3.270   1.039   1.680
 1432SOL    HW2 4305   3.241   0.930   1.563
 1433SOL     OW 4306   2.677   0.572   0.325
 1433SOL    HW1 4307   2.684   0.483   0.279
 1433SOL    HW2 4308   2.583   0.606   0.317
 1434SOL     OW 4309   3.519   0.604   1.206
 1434SOL    HW1 4310   3.481   0.535   1.268
 1434SOL    HW2 4311   3.601   0.568   1.162
 1435SOL     OW 4312   2.114   1.564   1.744
 1435SOL    HW1 4313   2.084   1.621   1.820
 1435SOL    HW2 4314   2.107   1.467   1.770
 1436SOL     OW 4315   2.533   0.464   1.269
 1436SOL    HW1 4316   2.499   0.375   1.239
 1436SOL    HW2 4317   2.559   0.518   1.189
 1437SOL     OW 4318   2.792   1.678   1.465
 1437SOL    HW1 4319   2.768   1.660   1.370
 1437SOL    HW2 4320   2.822   1.772   1.475
 1438SOL     OW 4321   2.335   0.500   0.191
 1438SOL    HW1 4322   2.396   0.580   0.195
 1438SOL    HW2 4323   2.240   0.531   0.198
 1439SOL     OW 4324   2.021   1.137   1.466
 1439SOL    HW1 4325   2.043   1.076   1.542
 1439SOL    HW2 4326   2.031   1.088   1.380
 1440SOL     OW 4327   3.209   1.059   1.234
 1440SOL    HW1 4328   3.233   0.996   1.160
 1440SOL    HW2 4329   3.119   1.099   1.216
 1441SOL     OW 4330   3.164   0.855   0.309
 1441SOL    HW1 4331   3.078   0.824   0.351
 1441SOL    HW2 4332   3.160   0.841   0.210
 1442SOL     OW 4333   3.621   1.747   1.154
 1442SOL    HW1 4334   3.682   1.777   1.081
 1442SOL    HW2 4335   3.583   1.658   1.132
 1443SOL     OW 4336   3.114   1.731   1.128
 1443SOL    HW1 4337   3.198   1.736   1.074
 1443SOL    HW2 4338   3.091   1.635   1.146
 1444SOL     OW 4339   1.945   1.258   1.022
 1444SOL    HW1 4340   1.940   1.257   1.122
 1444SOL    HW2 4341   1.862   1.217   0.984
 1445SOL     OW 4342   2.550   1.662   1.716
 1445SOL    HW1 4343   2.494   1.743   1.725
 1445SOL    HW2 4344   2.602   1.666   1.630
 1446SOL     OW 4345   2.765   0.086   0.133
 1446SOL    HW1 4346   2.816   0.087   0.047
 1446SOL    HW2 4347   2.821   0.044   0.204
 1447SOL     OW 4348   3.588   0.135   0.523
 1447SOL    HW1 4349   3.661   0.118   0.456
 1447SOL    HW2 4350   3.557   0.048   0.561
 1448SOL     OW 4351   3.250   1.573   0.477
 1448SOL    HW1 4352   3.317   1.585   0.403
 1448SOL    HW2 4353   3.210   1.662   0.500
 1449SOL     OW 4354   1.992   1.794   1.851
 1449SOL    HW1 4355   1.951   1.720   1.904
 1449SOL    HW2 4356   2.056   1.845   1.909
 1450SOL     OW 4357   3.142   0.927   0.672
 1450SOL    HW1 4358   3.202   0.846   0.674
 1450SOL    HW2 4359   3.182   0.996   0.612
 1451SOL     OW 4360   2.692   1.273   1.422
 1451SOL    HW1 4361   2.687   1.306   1.517
 1451SOL    HW2 4362   2.606   1.292   1.376
 1452SOL     OW 4363   2.534   1.616   0.154
 1452SOL    HW1 4364   2.543   1.626   0.055
 1452SOL    HW2 4365   2.494   1.527   0.175
 1453SOL     OW 4366   3.512   1.720   1.394
 1453SOL    HW1 4367   3.565   1.730   1.310
 1453SOL    HW2 4368   3.485   1.810   1.428
 1454SOL     OW 4369   3.703   0.175   0.963
 1454SOL    HW1 4370   3.742   0.090   0.927
 1454SOL    HW2 4371   3.605   0.177   0.944
 1455SOL     OW 4372   2.125   0.326   0.720
 1455SOL    HW1 4373   2.046   0.377   0.686
 1455SOL    HW2 4374   2.116   0.311   0.818
 1456SOL     OW 4375   3.056   1.612   0.031
 1456SOL    HW1 4376   3.062   1.519   0.068
 1456SOL    HW2 4377   2.997   1.612  -0.049
 1457SOL     OW 4378   2.684   1.002   1.372
 1457SOL    HW1 4379   2.724   1.001   1.280
 1457SOL    HW2 4380   2.694   1.094   1.412
 1458SOL     OW 4381   2.778   0.910   0.291
 1458SOL    HW1 4382   2.841   0.948   0.223
 1458SOL    HW2 4383   2.818   0.827   0.330
 1459SOL     OW 4384   3.366   1.607   0.044
 1459SOL    HW1 4385   3.274   1.644   0.051
 1459SOL    HW2 4386   3.404   1.627  -0.046
 1460SOL     OW 4387   2.234   1.288   1.490
 1460SOL    HW1 4388   2.221   1.381   1.456
 1460SOL    HW2 4389   2.150   1.236   1.477
 1461SOL     OW 4390   3.476   1.292   1.289
 1461SOL    HW1 4391   3.536   1.295   1.369
 1461SOL    HW2 4392   3.401   1.356   1.302
 1462SOL     OW 4393   2.901   1.098   0.696
 1462SOL    HW1 4394   2.831   1.051   0.750
 1462SOL    HW2 4395   2.960   1.030   0.653
 1463SOL     OW 4396   2.876   0.236   0.971
 1463SOL    HW1 4397   2.868   0.200   0.878
 1463SOL    HW2 4398   2.874   0.160   1.036
 1464SOL     OW 4399   2.452   1.487   0.491
 1464SOL    HW1 4400   2.494   1.429   0.421
 1464SOL    HW2 4401   2.408   1.566   0.447
 1465SOL     OW 4402   3.571   0.385   1.381
 1465SOL    HW1 4403   3.644   0.454   1.385
 1465SOL    HW2 4404   3.599   0.310   1.322
 1466SOL     OW 4405   2.117   1.348   0.290
 1466SOL    HW1 4406   2.021   1.349   0.263
 1466SOL    HW2 4407   2.129   1.401   0.374
 1467SOL     OW 4408   1.967   1.013   1.726
 1467SOL    HW1 4409   1.890   0.980   1.780
 1467SOL    HW2 4410   2.052   0.983   1.768
 1468SOL     OW 4411   2.534   0.203   1.489
 1468SOL    HW1 4412   2.624   0.187   1.449
 1468SOL    HW2 4413   2.542   0.208   1.588
 1469SOL     OW 4414   1.937   0.345   0.033
 1469SOL    HW1 4415   1.845   0.317   0.004
 1469SOL    HW2 4416   1.968   0.422  -0.023
 1470SOL     OW 4417   3.302   0.856   1.398
 1470SOL    HW1 4418   3.245   0.908   1.335
 1470SOL    HW2 4419   3.398   0.868   1.374
 1471SOL     OW 4420   1.934   0.166   0.318
 1471SOL    HW1 4421   1.917   0.249   0.264
 1471SOL    HW2 4422   2.024   0.129   0.296
 1472SOL     OW 4423   3.045   1.335   0.119
 1472SOL    HW1 4424   2.946   1.324   0.121
 1472SOL    HW2 4425   3.079   1.350   0.212
 1473SOL     OW 4426   2.475   0.842   1.431
 1473SOL    HW1 4427   2.531   0.923   1.414
 1473SOL    HW2 4428   2.534   0.762   1.434
 1474SOL     OW 4429   3.355   1.767   0.959
 1474SOL    HW1 4430   3.388   1.831   0.890
 1474SOL    HW2 4431   3.421   1.761   1.034
 1475SOL     OW 4432   2.578   0.565   1.708
 1475SOL    HW1 4433   2.597   0.630   1.782
 1475SOL    HW2 4434   2.638   0.485   1.717
 1476SOL     OW 4435   3.312   1.220   1.633
 1476SOL    HW1 4436   3.303   1.210   1.732
 1476SOL    HW2 4437   3.408   1.213   1.607
 1477SOL     OW 4438   2.252   1.741   1.560
 1477SOL    HW1 4439   2.161   1.782   1.558
 1477SOL    HW2 4440   2.245   1.647   1.592
 1478SOL     OW 4441   3.536   0.883   1.254
 1478SOL    HW1 4442   3.509   0.794   1.217
 1478SOL    HW2 4443   3.537   0.951   1.181
 1479SOL     OW 4444   3.087   0.325   0.449
 1479SOL    HW1 4445   3.152   0.251   0.438
 1479SOL    HW2 4446   3.107   0.375   0.533
 1480SOL     OW 4447   2.456   0.745   0.652
 1480SOL    HW1 4448   2.506   0.830   0.633
 1480SOL    HW2 4449   2.368   0.747   0.604
 1481SOL     OW 4450   3.639   0.342   1.642
 1481SOL    HW1 4451   3.622   0.373   1.548
 1481SOL    HW2 4452   3.555   0.305   1.680
 1482SOL     OW 4453   3.592   0.934   1.517
 1482SOL    HW1 4454   3.630   1.025   1.532
 1482SOL    HW2 4455   3.584   0.917   1.418
 1483SOL     OW 4456   2.721   1.374   0.016
 1483SOL    HW1 4457   2.675   1.389   0.104
 1483SOL    HW2 4458   2.765   1.459  -0.014
 1484SOL     OW 4459   2.523   1.790   0.953
 1484SOL    HW1 4460   2.477   1.878   0.940
 1484SOL    HW2 4461   2.622   1.802   0.946
 1485SOL     OW 4462   2.721   0.956   0.861
 1485SOL    HW1 4463   2.775   0.887   0.909
 1485SOL    HW2 4464   2.689   1.025   0.927
 1486SOL     OW 4465   2.945   0.984   0.087
 1486SOL    HW1 4466   2.922   1.037   0.005
 1486SOL    HW2 4467   3.026   0.928   0.068
 1487SOL     OW 4468   3.723   1.569   0.851
 1487SOL    HW1 4469   3.652   1.557   0.781
 1487SOL    HW2 4470   3.724   1.490   0.911
 1488SOL     OW 4471   2.083   1.314   1.844
 1488SOL    HW1 4472   2.018   1.241   1.823
 1488SOL    HW2 4473   2.087   1.328   1.942
 1489SOL     OW 4474   1.941   1.240   0.653
 1489SOL    HW1 4475   1.940   1.193   0.741
 1489SOL    HW2 4476   2.023   1.212   0.602
 1490SOL     OW 4477   2.534   1.391   1.624
 1490SOL    HW1 4478   2.456   1.341   1.662
 1490SOL    HW2 4479   2.531   1.486   1.655
 1491SOL     OW 4480   3.686   0.192   1.227
 1491SOL    HW1 4481   3.682   0.102   1.271
 1491SOL    HW2 4482   3.689   0.181   1.128
 1492SOL     OW 4483   2.290   0.424   0.520
 1492SOL    HW1 4484   2.320   0.352   0.458
 1492SOL    HW2 4485   2.251   0.384   0.603
 1493SOL     OW 4486   3.567   1.487   1.104
 1493SOL    HW1 4487   3.474   1.462   1.077
 1493SOL    HW2 4488   3.593   1.437   1.186
 1494SOL     OW 4489   2.179   0.547   1.280
 1494SOL    HW1 4490   2.217   0.488   1.352
 1494SOL    HW2 4491   2.219   0.521   1.192
 1495SOL     OW 4492   2.674   1.586   0.687
 1495SOL    HW1 4493   2.706   1.596   0.593
 1495SOL    HW2 4494   2.595   1.524   0.689
 1496SOL     OW 4495   3.286   0.214   1.112
 1496SOL    HW1 4496   3.338   0.149   1.167
 1496SOL    HW2 4497   3.237   0.277   1.173
 1497SOL     OW 4498   2.863   0.034   1.154
 1497SOL    HW1 4499   2.800  -0.038   1.123
 1497SOL    HW2 4500   2.956  -0.002   1.154
 1498SOL     OW 4501   2.632   1.330   0.301
 1498SOL    HW1 4502   2.586   1.243   0.318
 1498SOL    HW2 4503   2.723   1.327   0.342
 1499SOL     OW 4504   2.480   1.567   1.284
 1499SOL    HW1 4505   2.475   1.649   1.341
 1499SOL    HW2 4506   2.569   1.564   1.239
 1500SOL     OW 4507   3.214   0.052   0.168
 1500SOL    HW1 4508   3.249   0.011   0.084
 1500SOL    HW2 4509   3.124   0.014   0.188
 1501SOL     OW 4510   3.162   0.453   0.691
 1501SOL    HW1 4511   3.103   0.533   0.695
 1501SOL    HW2 4512   3.177   0.418   0.784
 1502SOL     OW 4513   3.455   0.221   0.882
 1502SOL    HW1 4514   3.371   0.220   0.936
 1502SOL    HW2 4515   3.457   0.304   0.826
 1503SOL     OW 4516   1.901   1.077   0.300
 1503SOL    HW1 4517   2.000   1.066   0.291
 1503SOL    HW2 4518   1.861   0.991   0.332
 1504SOL     OW 4519   2.737   1.646   0.337
 1504SOL    HW1 4520   2.660   1.611   0.283
 1504SOL    HW2 4521   2.705   1.717   0.399
 1505SOL     OW 4522   2.092   0.628   1.975
 1505SOL    HW1 4523   1.999   0.626   2.012
 1505SOL    HW2 4524   2.093   0.589   1.883
 1506SOL     OW 4525   2.087   0.275   2.858
 1506SOL    HW1 4526   2.122   0.258   2.950
 1506SOL    HW2 4527   1.999   0.230   2.846
 1507SOL     OW 4528   1.881   0.368   2.509
 1507SOL    HW1 4529   1.799   0.411   2.548
 1507SOL    HW2 4530   1.853   0.295   2.446
 1508SOL     OW 4531   2.431   1.275   3.027
 1508SOL    HW1 4532   2.338   1.268   2.990
 1508SOL    HW2 4533   2.442   1.364   3.071
 1509SOL     OW 4534   3.417   1.511   2.565
 1509SOL    HW1 4535   3.360   1.495   2.646
 1509SOL    HW2 4536   3.358   1.521   2.485
 1510SOL     OW 4537   2.997   0.703   2.579
 1510SOL    HW1 4538   3.054   0.781   2.554
 1510SOL    HW2 4539   2.937   0.729   2.655
 1511SOL     OW 4540   3.617   0.607   2.093
 1511SOL    HW1 4541   3.605   0.594   1.994
 1511SOL    HW2 4542   3.587   0.526   2.142
 1512SOL     OW 4543   2.630   1.144   2.885
 1512SOL    HW1 4544   2.552   1.161   2.945
 1512SOL    HW2 4545   2.664   1.231   2.849
 1513SOL     OW 4546   2.712   0.798   3.685
 1513SOL    HW1 4547   2.708   0.874   3.750
 1513SOL    HW2 4548   2.734   0.834   3.594
 1514SOL     OW 4549   2.547   1.012   2.527
 1514SOL    HW1 4550   2.616   0.996   2.597
 1514SOL    HW2 4551   2.474   1.069   2.565
 1515SOL     OW 4552   2.548   1.161   3.665
 1515SOL    HW1 4553   2.608   1.240   3.679
 1515SOL    HW2 4554   2.462   1.192   3.624
 1516SOL     OW 4555   2.197   1.435   2.923
 1516SOL    HW1 4556   2.119   1.404   2.870
 1516SOL    HW2 4557   2.255   1.493   2.866
 1517SOL     OW 4558   3.322   1.505   3.201
 1517SOL    HW1 4559   3.346   1.599   3.227
 1517SOL    HW2 4560   3.306   1.451   3.283
 1518SOL     OW 4561   2.300   0.392   3.361
 1518SOL    HW1 4562   2.382   0.336   3.370
 1518SOL    HW2 4563   2.219   0.334   3.365
 1519SOL     OW 4564   3.465   0.447   2.599
 1519SOL    HW1 4565   3.391   0.493   2.549
 1519SOL    HW2 4566   3.516   0.515   2.652
 1520SOL     OW 4567   2.093   1.713   2.345
 1520SOL    HW1 4568   2.127   1.790   2.399
 1520SOL    HW2 4569   2.137   1.713   2.255
 1521SOL     OW 4570   2.989   1.341   3.552
 1521SOL    HW1 4571   3.036   1.341   3.640
 1521SOL    HW2 4572   2.941   1.254   3.541
 1522SOL     OW 4573   2.092   1.434   2.400
 1522SOL    HW1 4574   2.066   1.530   2.400
 1522SOL    HW2 4575   2.021   1.380   2.445
 1523SOL     OW 4576   2.102   1.091   2.748
 1523SOL    HW1 4577   2.116   1.007   2.800
 1523SOL    HW2 4578   2.047   1.155   2.803
 1524SOL     OW 4579   2.482   1.786   3.301
 1524SOL    HW1 4580   2.390   1.769   3.336
 1524SOL    HW2 4581   2.510   1.878   3.327
 1525SOL     OW 4582   2.468   0.964   1.985
 1525SOL    HW1 4583   2.475   1.048   1.931
 1525SOL    HW2 4584   2.514   0.977   2.073
 1526SOL     OW 4585   3.456   0.114   3.342
 1526SOL    HW1 4586   3.438   0.181   3.270
 1526SOL    HW2 4587   3.453   0.160   3.431
 1527SOL     OW 4588   1.984   0.643   2.425
 1527SOL    HW1 4589   1.939   0.555   2.442
 1527SOL    HW2 4590   1.983   0.697   2.509
 1528SOL     OW 4591   3.704   1.767   2.221
 1528SOL    HW1 4592   3.758   1.738   2.301
 1528SOL    HW2 4593   3.734   1.857   2.192
 1529SOL     OW 4594   1.889   1.596   1.979
 1529SOL    HW1 4595   1.870   1.500   2.000
 1529SOL    HW2 4596   1.856   1.654   2.054
 1530SOL     OW 4597   3.551   0.922   2.474
 1530SOL    HW1 4598   3.646   0.893   2.482
 1530SOL    HW2 4599   3.543   0.987   2.399
 1531SOL     OW 4600   3.503   1.108   2.294
 1531SOL    HW1 4601   3.589   1.110   2.242
 1531SOL    HW2 4602   3.517   1.155   2.382
 1532SOL     OW 4603   1.975   0.737   3.459
 1532SOL    HW1 4604   2.063   0.724   3.504
 1532SOL    HW2 4605   1.962   0.834   3.437
 1533SOL     OW 4606   2.475   1.365   2.588
 1533SOL    HW1 4607   2.426   1.278   2.597
 1533SOL    HW2 4608   2.452   1.408   2.501
 1534SOL     OW 4609   3.155   1.228   3.285
 1534SOL    HW1 4610   3.192   1.155   3.227
 1534SOL    HW2 4611   3.207   1.233   3.370
 1535SOL     OW 4612   2.671   0.004   2.364
 1535SOL    HW1 4613   2.711   0.095   2.355
 1535SOL    HW2 4614   2.571   0.012   2.370
 1536SOL     OW 4615   2.059   0.976   3.126
 1536SOL    HW1 4616   2.148   0.931   3.112
 1536SOL    HW2 4617   1.986   0.911   3.107
 1537SOL     OW 4618   3.387   0.999   2.052
 1537SOL    HW1 4619   3.324   0.923   2.065
 1537SOL    HW2 4620   3.435   1.017   2.138
 1538SOL     OW 4621   3.049   1.792   3.478
 1538SOL    HW1 4622   3.073   1.852   3.402
 1538SOL    HW2 4623   3.056   1.697   3.448
 1539SOL     OW 4624   2.179   0.251   3.663
 1539SOL    HW1 4625   2.250   0.322   3.669
 1539SOL    HW2 4626   2.091   0.290   3.691
 1540SOL     OW 4627   3.328   1.417   2.815
 1540SOL    HW1 4628   3.269   1.423   2.895
 1540SOL    HW2 4629   3.313   1.329   2.769
 1541SOL     OW 4630   3.529   1.714   2.434
 1541SOL    HW1 4631   3.488   1.691   2.346
 1541SOL    HW2 4632   3.511   1.640   2.499
 1542SOL     OW 4633   2.460   0.729   2.132
 1542SOL    HW1 4634   2.484   0.798   2.064
 1542SOL    HW2 4635   2.382   0.762   2.186
 1543SOL     OW 4636   3.143   0.345   2.806
 1543SOL    HW1 4637   3.057   0.295   2.793
 1543SOL    HW2 4638   3.205   0.291   2.862
 1544SOL     OW 4639   3.438   1.662   2.169
 1544SOL    HW1 4640   3.527   1.708   2.172
 1544SOL    HW2 4641   3.417   1.638   2.074
 1545SOL     OW 4642   2.669   0.605   3.327
 1545SOL    HW1 4643   2.622   0.602   3.416
 1545SOL    HW2 4644   2.618   0.550   3.261
 1546SOL     OW 4645   3.256   0.469   3.536
 1546SOL    HW1 4646   3.236   0.512   3.624
 1546SOL    HW2 4647   3.334   0.407   3.545
 1547SOL     OW 4648   2.835   0.890   3.434
 1547SOL    HW1 4649   2.881   0.806   3.405
 1547SOL    HW2 4650   2.779   0.924   3.359
 1548SOL     OW 4651   2.853   0.410   3.104
 1548SOL    HW1 4652   2.776   0.444   3.158
 1548SOL    HW2 4653   2.819   0.359   3.025
 1549SOL     OW 4654   2.903   0.701   2.291
 1549SOL    HW1 4655   2.929   0.697   2.387
 1549SOL    HW2 4656   2.818   0.650   2.277
 1550SOL     OW 4657   1.938   0.811   2.651
 1550SOL    HW1 4658   2.037   0.799   2.660
 1550SOL    HW2 4659   1.914   0.906   2.672
 1551SOL     OW 4660   1.992   1.821   3.433
 1551SOL    HW1 4661   1.982   1.806   3.532
 1551SOL    HW2 4662   1.906   1.857   3.397
 1552SOL     OW 4663   2.727   0.348   2.057
 1552SOL    HW1 4664   2.786   0.411   2.008
 1552SOL    HW2 4665   2.746   0.254   2.028
 1553SOL     OW 4666   3.581   0.585   3.693
 1553SOL    HW1 4667   3.555   0.674   3.657
 1553SOL    HW2 4668   3.579   0.517   3.620
 1554SOL     OW 4669   3.224   1.144   2.407
 1554SOL    HW1 4670   3.307   1.115   2.359
 1554SOL    HW2 4671   3.175   1.211   2.351
 1555SOL     OW 4672   2.412   0.196   2.747
 1555SOL    HW1 4673   2.407   0.191   2.847
 1555SOL    HW2 4674   2.414   0.292   2.718
 1556SOL     OW 4675   2.870   1.456   2.339
 1556SOL    HW1 4676   2.824   1.528   2.287
 1556SOL    HW2 4677   2.866   1.476   2.437
 1557SOL     OW 4678   2.213   1.801   2.715
 1557SOL    HW1 4679   2.263   1.715   2.721
 1557SOL    HW2 4680   2.278   1.878   2.712
 1558SOL     OW 4681   3.657   1.066   2.735
 1558SOL    HW1 4682   3.595   1.051   2.659
 1558SOL    HW2 4683   3.605   1.077   2.820
 1559SOL     OW 4684   3.089   1.550   3.368
 1559SOL    HW1 4685   3.095   1.473   3.432
 1559SOL    HW2 4686   3.037   1.524   3.288
 1560SOL     OW 4687   2.183   0.943   2.104
 1560SOL    HW1 4688   2.265   0.982   2.062
 1560SOL    HW2 4689   2.156   0.861   2.055
 1561SOL     OW 4690   3.320   0.735   2.590
 1561SOL    HW1 4691   3.315   0.670   2.665
 1561SOL    HW2 4692   3.400   0.794   2.603
 1562SOL     OW 4693   2.323   1.266   3.589
 1562SOL    HW1 4694   2.273   1.267   3.503
 1562SOL    HW2 4695   2.260   1.248   3.665
 1563SOL     OW 4696   2.973   1.776   2.099
 1563SOL    HW1 4697   2.913   1.714   2.149
 1563SOL    HW2 4698   3.004   1.732   2.014
 1564SOL     OW 4699   2.064   0.285   3.360
 1564SOL    HW1 4700   1.984   0.345   3.347
 1564SOL    HW2 4701   2.054   0.236   3.446
 1565SOL     OW 4702   3.494   1.377   1.943
 1565SOL    HW1 4703   3.462   1.471   1.933
 1565SOL    HW2 4704   3.418   1.314   1.931
 1566SOL     OW 4705   2.326   1.743   2.185
 1566SOL    HW1 4706   2.359   1.782   2.271
 1566SOL    HW2 4707   2.402   1.736   2.120
 1567SOL     OW 4708   3.262   0.107   2.288
 1567SOL    HW1 4709   3.238   0.070   2.198
 1567SOL    HW2 4710   3.361   0.123   2.292
 1568SOL     OW 4711   2.111   1.785   3.103
 1568SOL    HW1 4712   2.168   1.720   3.153
 1568SOL    HW2 4713   2.095   1.752   3.010
 1569SOL     OW 4714   2.802   1.698   2.766
 1569SOL    HW1 4715   2.882   1.641   2.787
 1569SOL    HW2 4716   2.753   1.658   2.689
 1570SOL     OW 4717   2.244   0.700   2.342
 1570SOL    HW1 4718   2.289   0.610   2.339
 1570SOL    HW2 4719   2.150   0.689   2.375
 1571SOL     OW 4720   3.409   0.222   3.591
 1571SOL    HW1 4721   3.404   0.259   3.683
 1571SOL    HW2 4722   3.337   0.153   3.579
 1572SOL     OW 4723   2.476   0.122   1.979
 1572SOL    HW1 4724   2.574   0.100   1.986
 1572SOL    HW2 4725   2.445   0.105   1.886
 1573SOL     OW 4726   2.643   0.264   3.611
 1573SOL    HW1 4727   2.710   0.203   3.654
 1573SOL    HW2 4728   2.570   0.283   3.676
 1574SOL     OW 4729   2.750   1.514   3.057
 1574SOL    HW1 4730   2.727   1.489   2.963
 1574SOL    HW2 4731   2.811   1.445   3.096
 1575SOL     OW 4732   3.213   0.590   3.295
 1575SOL    HW1 4733   3.241   0.547   3.380
 1575SOL    HW2 4734   3.238   0.686   3.296
 1576SOL     OW 4735   2.665   1.402   2.786
 1576SOL    HW1 4736   2.755   1.416   2.744
 1576SOL    HW2 4737   2.594   1.404   2.715
 1577SOL     OW 4738   2.784   0.503   2.761
 1577SOL    HW1 4739   2.759   0.494   2.665
 1577SOL    HW2 4740   2.832   0.421   2.792
 1578SOL     OW 4741   2.401   0.064   2.374
 1578SOL    HW1 4742   2.320   0.065   2.432
 1578SOL    HW2 4743   2.404   0.147   2.319
 1579SOL     OW 4744   3.296   1.188   1.903
 1579SOL    HW1 4745   3.328   1.112   1.960
 1579SOL    HW2 4746   3.204   1.215   1.933
 1580SOL     OW 4747   2.159   0.035   2.033
 1580SOL    HW1 4748   2.208   0.119   2.012
 1580SOL    HW2 4749   2.221  -0.030   2.078
 1581SOL     OW 4750   2.797   0.236   2.342
 1581SOL    HW1 4751   2.749   0.277   2.264
 1581SOL    HW2 4752   2.896   0.234   2.323
 1582SOL     OW 4753   2.938   0.683   3.326
 1582SOL    HW1 4754   2.858   0.622   3.329
 1582SOL    HW2 4755   3.019   0.630   3.302
 1583SOL     OW 4756   3.089   1.570   2.655
 1583SOL    HW1 4757   3.110   1.644   2.590
 1583SOL    HW2 4758   3.157   1.570   2.728
 1584SOL     OW 4759   2.321   1.152   2.603
 1584SOL    HW1 4760   2.250   1.125   2.668
 1584SOL    HW2 4761   2.295   1.124   2.510
 1585SOL     OW 4762   3.133   1.797   2.453
 1585SOL    HW1 4763   3.177   1.861   2.389
 1585SOL    HW2 4764   3.083   1.849   2.523
 1586SOL     OW 4765   2.894   0.549   1.878
 1586SOL    HW1 4766   2.853   0.631   1.839
 1586SOL    HW2 4767   2.958   0.575   1.951
 1587SOL     OW 4768   1.940   0.556   3.248
 1587SOL    HW1 4769   2.032   0.555   3.207
 1587SOL    HW2 4770   1.934   0.630   3.315
 1588SOL     OW 4771   2.423   0.222   3.009
 1588SOL    HW1 4772   2.461   0.138   3.046
 1588SOL    HW2 4773   2.335   0.241   3.053
 1589SOL     OW 4774   2.728   0.454   2.504
 1589SOL    HW1 4775   2.696   0.526   2.442
 1589SOL    HW2 4776   2.752   0.373   2.451
 1590SOL     OW 4777   2.879   0.039   2.615
 1590SOL    HW1 4778   2.807   0.044   2.546
 1590SOL    HW2 4779   2.855  -0.030   2.684
 1591SOL     OW 4780   3.291   1.173   2.729
 1591SOL    HW1 4781   3.236   1.089   2.722
 1591SOL    HW2 4782   3.317   1.202   2.637
 1592SOL     OW 4783   3.328   0.590   2.854
 1592SOL    HW1 4784   3.298   0.495   2.861
 1592SOL    HW2 4785   3.401   0.606   2.920
 1593SOL     OW 4786   3.719   0.833   2.239
 1593SOL    HW1 4787   3.761   0.769   2.303
 1593SOL    HW2 4788   3.681   0.782   2.161
 1594SOL     OW 4789   2.350   1.385   2.036
 1594SOL    HW1 4790   2.263   1.370   2.083
 1594SOL    HW2 4791   2.333   1.411   1.941
 1595SOL     OW 4792   3.526   1.280   2.519
 1595SOL    HW1 4793   3.625   1.288   2.533
 1595SOL    HW2 4794   3.481   1.364   2.550
 1596SOL     OW 4795   3.252   0.575   1.940
 1596SOL    HW1 4796   3.198   0.554   2.021
 1596SOL    HW2 4797   3.343   0.534   1.949
 1597SOL     OW 4798   2.389   0.256   2.190
 1597SOL    HW1 4799   2.416   0.197   2.115
 1597SOL    HW2 4800   2.389   0.351   2.159
 1598SOL     OW 4801   3.616   1.223   3.450
 1598SOL    HW1 4802   3.707   1.184   3.437
 1598SOL    HW2 4803   3.624   1.319   3.474
 1599SOL     OW 4804   2.926   1.347   3.202
 1599SOL    HW1 4805   2.846   1.324   3.257
 1599SOL    HW2 4806   3.009   1.321   3.251
 1600SOL     OW 4807   3.454   1.629   3.487
 1600SOL    HW1 4808   3.481   1.663   3.397
 1600SOL    HW2 4809   3.533   1.591   3.533
 1601SOL     OW 4810   2.973   1.195   2.962
 1601SOL    HW1 4811   2.933   1.239   3.043
 1601SOL    HW2 4812   2.932   1.232   2.879
 1602SOL     OW 4813   3.500   1.099   2.941
 1602SOL    HW1 4814   3.505   1.180   3.000
 1602SOL    HW2 4815   3.414   1.101   2.890
 1603SOL     OW 4816   2.777   0.089   3.264
 1603SOL    HW1 4817   2.802   0.069   3.169
 1603SOL    HW2 4818   2.849   0.145   3.306
 1604SOL     OW 4819   2.842   1.116   3.581
 1604SOL    HW1 4820   2.743   1.122   3.591
 1604SOL    HW2 4821   2.865   1.036   3.525
 1605SOL     OW 4822   2.567   1.050   2.230
 1605SOL    HW1 4823   2.553   1.057   2.329
 1605SOL    HW2 4824   2.651   0.999   2.212
 1606SOL     OW 4825   2.272   0.813   3.113
 1606SOL    HW1 4826   2.358   0.825   3.163
 1606SOL    HW2 4827   2.230   0.726   3.140
 1607SOL     OW 4828   3.136   0.386   3.124
 1607SOL    HW1 4829   3.157   0.460   3.188
 1607SOL    HW2 4830   3.047   0.403   3.081
 1608SOL     OW 4831   1.926   1.564   3.193
 1608SOL    HW1 4832   1.880   1.646   3.159
 1608SOL    HW2 4833   2.024   1.583   3.202
 1609SOL     OW 4834   2.229   1.100   2.363
 1609SOL    HW1 4835   2.222   1.183   2.307
 1609SOL    HW2 4836   2.233   1.020   2.303
 1610SOL     OW 4837   2.428   0.537   2.727
 1610SOL    HW1 4838   2.440   0.603   2.653
 1610SOL    HW2 4839   2.474   0.571   2.810
 1611SOL     OW 4840   3.114   1.348   2.250
 1611SOL    HW1 4841   3.164   1.425   2.290
 1611SOL    HW2 4842   3.019   1.350   2.282
 1612SOL     OW 4843   3.134   1.445   3.004
 1612SOL    HW1 4844   3.181   1.458   3.091
 1612SOL    HW2 4845   3.068   1.371   3.013
 1613SOL     OW 4846   3.444   0.639   2.334
 1613SOL    HW1 4847   3.413   0.700   2.407
 1613SOL    HW2 4848   3.494   0.691   2.265
 1614SOL     OW 4849   2.216   1.510   3.191
 1614SOL    HW1 4850   2.195   1.466   3.104
 1614SOL    HW2 4851   2.313   1.536   3.194
 1615SOL     OW 4852   2.264   0.751   3.460
 1615SOL    HW1 4853   2.332   0.806   3.413
 1615SOL    HW2 4854   2.304   0.663   3.487
 1616SOL     OW 4855   3.449   0.779   3.532
 1616SOL    HW1 4856   3.357   0.817   3.527
 1616SOL    HW2 4857   3.509   0.826   3.467
 1617SOL     OW 4858   2.875   0.105   3.632
 1617SOL    HW1 4859   2.881   0.190   3.580
 1617SOL    HW2 4860   2.907   0.029   3.575
 1618SOL     OW 4861   2.366   0.050   3.602
 1618SOL    HW1 4862   2.324  -0.007   3.532
 1618SOL    HW2 4863   2.300   0.119   3.634
 1619SOL     OW 4864   2.435   0.870   2.891
 1619SOL    HW1 4865   2.479   0.959   2.882
 1619SOL    HW2 4866   2.372   0.870   2.968
 1620SOL     OW 4867   3.222   0.862   2.907
 1620SOL    HW1 4868   3.147   0.862   2.841
 1620SOL    HW2 4869   3.259   0.770   2.916
 1621SOL     OW 4870   3.071   0.525   2.137
 1621SOL    HW1 4871   3.084   0.441   2.191
 1621SOL    HW2 4872   3.042   0.599   2.197
 1622SOL     OW 4873   2.169   0.213   3.093
 1622SOL    HW1 4874   2.146   0.250   3.183
 1622SOL    HW2 4875   2.139   0.118   3.087
 1623SOL     OW 4876   1.899   1.310   3.144
 1623SOL    HW1 4877   1.952   1.261   3.212
 1623SOL    HW2 4878   1.921   1.408   3.149
 1624SOL     OW 4879   2.594   0.634   2.926
 1624SOL    HW1 4880   2.653   0.608   2.850
 1624SOL    HW2 4881   2.566   0.730   2.915
 1625SOL     OW 4882   3.590   0.935   3.716
 1625SOL    HW1 4883   3.544   0.928   3.627
 1625SOL    HW2 4884   3.528   0.979   3.782
 1626SOL     OW 4885   2.169   0.063   2.480
 1626SOL    HW1 4886   2.158   0.157   2.513
 1626SOL    HW2 4887   2.164   0.000   2.557
 1627SOL     OW 4888   3.484   0.367   2.236
 1627SOL    HW1 4889   3.486   0.291   2.300
 1627SOL    HW2 4890   3.436   0.444   2.276
 1628SOL     OW 4891   2.885   0.766   2.828
 1628SOL    HW1 4892   2.900   0.787   2.924
 1628SOL    HW2 4893   2.855   0.671   2.819
 1629SOL     OW 4894   2.842   1.573   3.562
 1629SOL    HW1 4895   2.822   1.617   3.474
 1629SOL    HW2 4896   2.881   1.482   3.546
 1630SOL     OW 4897   3.721   1.518   3.467
 1630SOL    HW1 4898   3.735   1.545   3.372
 1630SOL    HW2 4899   3.804   1.540   3.520
 1631SOL     OW 4900   2.212   0.898   3.666
 1631SOL    HW1 4901   2.288   0.942   3.714
 1631SOL    HW2 4902   2.247   0.851   3.584
 1632SOL     OW 4903   3.402   0.274   1.987
 1632SOL    HW1 4904   3.341   0.199   2.010
 1632SOL    HW2 4905   3.424   0.326   2.070
 1633SOL     OW 4906   3.165   0.838   1.904
 1633SOL    HW1 4907   3.199   0.745   1.919
 1633SOL    HW2 4908   3.183   0.865   1.809
 1634SOL     OW 4909   2.930   1.333   2.711
 1634SOL    HW1 4910   2.937   1.249   2.656
 1634SOL    HW2 4911   2.992   1.402   2.675
 1635SOL     OW 4912   2.181   0.810   2.811
 1635SOL    HW1 4913   2.274   0.846   2.816
 1635SOL    HW2 4914   2.175   0.725   2.863
 1636SOL     OW 4915   2.201   0.509   2.868
 1636SOL    HW1 4916   2.149   0.426   2.851
 1636SOL    HW2 4917   2.278   0.514   2.804
 1637SOL     OW 4918   3.000   0.380   3.540
 1637SOL    HW1 4919   2.955   0.443   3.604
 1637SOL    HW2 4920   3.093   0.411   3.523
 1638SOL     OW 4921   3.022   0.207   3.339
 1638SOL    HW1 4922   3.022   0.271   3.416
 1638SOL    HW2 4923   3.050   0.255   3.256
 1639SOL     OW 4924   1.870   1.326   2.062
 1639SOL    HW1 4925   1.777   1.347   2.031
 1639SOL    HW2 4926   1.880   1.227   2.075
 1640SOL     OW 4927   1.950   1.801   2.789
 1640SOL    HW1 4928   1.908   1.715   2.762
 1640SOL    HW2 4929   2.044   1.804   2.755
 1641SOL     OW 4930   2.366   1.568   2.772
 1641SOL    HW1 4931   2.432   1.642   2.781
 1641SOL    HW2 4932   2.410   1.489   2.730
 1642SOL     OW 4933   2.864   0.796   3.100
 1642SOL    HW1 4934   2.905   0.764   3.186
 1642SOL    HW2 4935   2.768   0.769   3.097
 1643SOL     OW 4936   1.902   0.544   2.976
 1643SOL    HW1 4937   1.987   0.511   2.935
 1643SOL    HW2 4938   1.915   0.559   3.074
 1644SOL     OW 4939   2.051   0.520   3.584
 1644SOL    HW1 4940   2.110   0.480   3.514
 1644SOL    HW2 4941   1.993   0.591   3.543
 1645SOL     OW 4942   3.231   0.950   3.522
 1645SOL    HW1 4943   3.270   1.039   3.542
 1645SOL    HW2 4944   3.241   0.930   3.425
 1646SOL     OW 4945   2.677   0.572   2.187
 1646SOL    HW1 4946   2.684   0.483   2.141
 1646SOL    HW2 4947   2.583   0.606   2.179
 1647SOL     OW 4948   3.519   0.604   3.068
 1647SOL    HW1 4949   3.481   0.535   3.130
 1647SOL    HW2 4950   3.601   0.568   3.024
 1648SOL     OW 4951   2.114   1.564   3.606
 1648SOL    HW1 4952   2.084   1.621   3.682
 1648SOL    HW2 4953   2.107   1.467   3.632
 1649SOL     OW 4954   2.533   0.464   3.131
 1649SOL    HW1 4955   2.499   0.375   3.101
 1649SOL    HW2 4956   2.559   0.518   3.051
 1650SOL     OW 4957   2.792   1.678   3.327
 1650SOL    HW1 4958   2.768   1.660   3.232
 1650SOL    HW2 4959   2.822   1.772   3.337
 1651SOL     OW 4960   2.335   0.500   2.053
 1651SOL    HW1 4961   2.396   0.580   2.057
 1651SOL    HW2 4962   2.240   0.531   2.060
 1652SOL     OW 4963   2.021   1.137   3.328
 1652SOL    HW1 4964   2.043   1.076   3.404
 1652SOL    HW2 4965   2.031   1.088   3.242
 1653SOL     OW 4966   3.209   1.059   3.096
 1653SOL    HW1 4967   3.233   0.996   3.022
 1653SOL    HW2 4968   3.119   1.099   3.078
 1654SOL     OW 4969   3.164   0.855   2.171
 1654SOL    HW1 4970   3.078   0.824   2.213
 1654SOL    HW2 4971   3.160   0.841   2.072
 1655SOL     OW 4972   3.621   1.747   3.016
 1655SOL    HW1 4973   3.682   1.777   2.943
 1655SOL    HW2 4974   3.583   1.658   2.994
 1656SOL     OW 4975   3.114   1.731   2.990
 1656SOL    HW1 4976   3.198   1.736   2.936
 1656SOL    HW2 4977   3.091   1.635   3.008
 1657SOL     OW 4978   1.945   1.258   2.884
 1657SOL    HW1 4979   1.940   1.257   2.984
 1657SOL    HW2 4980   1.862   1.217   2.846
 1658SOL     OW 4981   2.550   1.662   3.578
 1658SOL    HW1 4982   2.494   1.743   3.587
 1658SOL    HW2 4983   2.602   1.666   3.492
 1659SOL     OW 4984   3.588   0.135   2.385
 1659SOL    HW1 4985   3.661   0.118   2.318
 1659SOL    HW2 4986   3.557   0.048   2.423
 1660SOL     OW 4987   3.250   1.573   2.339
 1660SOL    HW1 4988   3.317   1.585   2.265
 1660SOL    HW2 4989   3.210   1.662   2.362
 1661SOL     OW 4990   1.992   1.794   3.713
 1661SOL    HW1 4991   1.951   1.720   3.766
 1661SOL    HW2 4992   2.056   1.845   3.771
 1662SOL     OW 4993   3.142   0.927   2.534
 1662SOL    HW1 4994   3.202   0.846   2.536
 1662SOL    HW2 4995   3.182   0.996   2.474
 1663SOL     OW 4996   2.692   1.273   3.284
 1663SOL    HW1 4997   2.687   1.306   3.379
 1663SOL    HW2 4998   2.606   1.292   3.238
 1664SOL     OW 4999   2.534   1.616   2.016
 1664SOL    HW1 5000   2.543   1.626   1.917
 1664SOL    HW2 5001   2.494   1.527   2.037
 1665SOL     OW 5002   3.512   1.720   3.256
 1665SOL    HW1 5003   3.565   1.730   3.172
 1665SOL    HW2 5004   3.485   1.810   3.290
 1666SOL     OW 5005   3.703   0.175   2.825
 1666SOL    HW1 5006   3.742   0.090   2.789
 1666SOL    HW2 5007   3.605   0.177   2.806
 1667SOL     OW 5008   2.125   0.326   2.582
 1667SOL    HW1 5009   2.046   0.377   2.548
 1667SOL    HW2 5010   2.116   0.311   2.680
 1668SOL     OW 5011   3.056   1.612   1.893
 1668SOL    HW1 5012   3.062   1.519   1.930
 1668SOL    HW2 5013   2.997   1.612   1.813
 1669SOL     OW 5014   2.684   1.002   3.234
 1669SOL    HW1 5015   2.724   1.001   3.142
 1669SOL    HW2 5016   2.694   1.094   3.274
 1670SOL     OW 5017   2.778   0.910   2.153
 1670SOL    HW1 5018   2.841   0.948   2.085
 1670SOL    HW2 5019   2.818   0.827   2.192
 1671SOL     OW 5020   3.366   1.607   1.906
 1671SOL    HW1 5021   3.274   1.644   1.913
 1671SOL    HW2 5022   3.404   1.627   1.816
 1672SOL     OW 5023   2.234   1.288   3.352
 1672SOL    HW1 5024   2.221   1.381   3.318
 1672SOL    HW2 5025   2.150   1.236   3.339
 1673SOL     OW 5026   3.476   1.292   3.151
 1673SOL    HW1 5027   3.536   1.295   3.231
 1673SOL    HW2 5028   3.401   1.356   3.164
 1674SOL     OW 5029   2.901   1.098   2.558
 1674SOL    HW1 5030   2.831   1.051   2.612
 1674SOL    HW2 5031   2.960   1.030   2.515
 1675SOL     OW 5032   2.876   0.236   2.833
 1675SOL    HW1 5033   2.868   0.200   2.740
 1675SOL    HW2 5034   2.874   0.160   2.898
 1676SOL     OW 5035   2.452   1.487   2.353
 1676SOL    HW1 5036   2.494   1.429   2.283
 1676SOL    HW2 5037   2.408   1.566   2.309
 1677SOL     OW 5038   3.571   0.385   3.243
 1677SOL    HW1 5039   3.644   0.454   3.247
 1677SOL    HW2 5040   3.599   0.310   3.184
 1678SOL     OW 5041   2.117   1.348   2.152
 1678SOL    HW1 5042   2.021   1.349   2.125
 1678SOL    HW2 5043   2.129   1.401   2.236
 1679SOL     OW 5044   1.967   1.013   3.588
 1679SOL    HW1 5045   1.890   0.980   3.642
 1679SOL    HW2 5046   2.052   0.983   3.630
 1680SOL     OW 5047   2.534   0.203   3.351
 1680SOL    HW1 5048   2.624   0.187   3.311
 1680SOL    HW2 5049   2.542   0.208   3.450
 1681SOL     OW 5050   1.937   0.345   1.895
 1681SOL    HW1 5051   1.845   0.317   1.866
 1681SOL    HW2 5052   1.968   0.422   1.839
 1682SOL     OW 5053   3.302   0.856   3.260
 1682SOL    HW1 5054   3.245   0.908   3.197
 1682SOL    HW2 5055   3.398   0.868   3.236
 1683SOL     OW 5056   1.934   0.166   2.180
 1683SOL    HW1 5057   1.917   0.249   2.126
 1683SOL    HW2 5058   2.024   0.129   2.158
 1684SOL     OW 5059   3.045   1.335   1.981
 1684SOL    HW1 5060   2.946   1.324   1.983
 1684SOL    HW2 5061   3.079   1.350   2.074
 1685SOL     OW 5062   2.475   0.842   3.293
 1685SOL    HW1 5063   2.531   0.923   3.276
 1685SOL    HW2 5064   2.534   0.762   3.296
 1686SOL     OW 5065   3.355   1.767   2.821
 1686SOL    HW1 5066   3.388   1.831   2.752
 1686SOL    HW2 5067   3.421   1.761   2.896
 1687SOL     OW 5068   2.578   0.565   3.570
 1687SOL    HW1 5069   2.597   0.630   3.644
 1687SOL    HW2 5070   2.638   0.485   3.579
 1688SOL     OW 5071   3.312   1.220   3.495
 1688SOL    HW1 5072   3.303   1.210   3.594
 1688SOL    HW2 5073   3.408   1.213   3.469
 1689SOL     OW 5074   2.252   1.741   3.422
 1689SOL    HW1 5075   2.161   1.782   3.420
 1689SOL    HW2 5076   2.245   1.647   3.454
 1690SOL     OW 5077   3.536   0.883   3.116
 1690SOL    HW1 5078   3.509   0.794   3.079
 1690SOL    HW2 5079   3.537   0.951   3.043
 1691SOL     OW 5080   3.087   0.325   2.311
 1691SOL    HW1 5081   3.152   0.251   2.300
 1691SOL    HW2 5082   3.107   0.375   2.395
 1692SOL     OW 5083   2.456   0.745   2.514
 1692SOL    HW1 5084   2.506   0.830   2.495
 1692SOL    HW2 5085   2.368   0.747   2.466
 1693SOL     OW 5086   3.639   0.342   3.504
 1693SOL    HW1 5087   3.622   0.373   3.410
 1693SOL    HW2 5088   3.555   0.305   3.542
 1694SOL     OW 5089   3.592   0.934   3.379
 1694SOL    HW1 5090   3.630   1.025   3.394
 1694SOL    HW2 5091   3.584   0.917   3.280
 1695SOL     OW 5092   2.721   1.374   1.878
 1695SOL    HW1 5093   2.675   1.389   1.966
 1695SOL    HW2 5094   2.765   1.459   1.848
 1696SOL     OW 5095   2.523   1.790   2.815
 1696SOL    HW1 5096   2.477   1.878   2.802
 1696SOL    HW2 5097   2.622   1.802   2.808
 1697SOL     OW 5098   2.721   0.956   2.723
 1697SOL    HW1 5099   2.775   0.887   2.771
 1697SOL    HW2 5100   2.689   1.025   2.789
 1698SOL     OW 5101   2.945   0.984   1.949
 1698SOL    HW1 5102   2.922   1.037   1.867
 1698SOL    HW2 5103   3.026   0.928   1.930
 1699SOL     OW 5104   3.723   1.569   2.713
 1699SOL    HW1 5105   3.652   1.557   2.643
 1699SOL    HW2 5106   3.724   1.490   2.773
 1700SOL     OW 5107   2.083   1.314   3.706
 1700SOL    HW1 5108   2.018   1.241   3.685
 1700SOL    HW2 5109   2.087   1.328   3.804
 1701SOL     OW 5110   1.941   1.240   2.515
 1701SOL    HW1 5111   1.940   1.193   2.603
 1701SOL    HW2 5112   2.023   1.212   2.464
 1702SOL     OW 5113   2.534   1.391   3.486
 1702SOL    HW1 5114   2.456   1.341   3.524
 1702SOL    HW2 5115   2.531   1.486   3.517
 1703SOL     OW 5116   3.686   0.192   3.089
 1703SOL    HW1 5117   3.682   0.102   3.133
 1703SOL    HW2 5118   3.689   0.181   2.990
 1704SOL     OW 5119   2.290   0.424   2.382
 1704SOL    HW1 5120   2.320   0.352   2.320
 1704SOL    HW2 5121   2.251   0.384   2.465
 1705SOL     OW 5122   3.567   1.487   2.966
 1705SOL    HW1 5123   3.474   1.462   2.939
 1705SOL    HW2 5124   3.593   1.437   3.048
 1706SOL     OW 5125   2.179   0.547   3.142
 1706SOL    HW1 5126   2.217   0.488   3.214
 1706SOL    HW2 5127   2.219   0.521   3.054
 1707SOL     OW 5128   2.674   1.586   2.549
 1707SOL    HW1 5129   2.706   1.596   2.455
 1707SOL    HW2 5130   2.595   1.524   2.551
 1708SOL     OW 5131   3.286   0.214   2.974
 1708SOL    HW1 5132   3.338   0.149   3.029
 1708SOL    HW2 5133   3.237   0.277   3.035
 1709SOL     OW 5134   2.863   0.034   3.016
 1709SOL    HW1 5135   2.800  -0.038   2.985
 1709SOL    HW2 5136   2.956  -0.002   3.016
 1710SOL     OW 5137   2.632   1.330   2.163
 1710SOL    HW1 5138   2.586   1.243   2.180
 1710SOL    HW2 5139   2.723   1.327   2.204
 1711SOL     OW 5140   2.480   1.567   3.146
 1711SOL    HW1 5141   2.475   1.649   3.203
 1711SOL    HW2 5142   2.569   1.564   3.101
 1712SOL     OW 5143   3.214   0.052   2.030
 1712SOL    HW1 5144   3.249   0.011   1.946
 1712SOL    HW2 5145   3.124   0.014   2.050
 1713SOL     OW 5146   3.162   0.453   2.553
 1713SOL    HW1 5147   3.103   0.533   2.557
 1713SOL    HW2 5148   3.177   0.418   2.646
 1714SOL     OW 5149   3.455   0.221   2.744
 1714SOL    HW1 5150   3.371   0.220   2.798
 1714SOL    HW2 5151   3.457   0.304   2.688
 1715SOL     OW 5152   1.901   1.077   2.162
 1715SOL    HW1 5153   2.000   1.066   2.153
 1715SOL    HW2 5154   1.861   0.991   2.194
 1716SOL     OW 5155   2.737   1.646   2.199
 1716SOL    HW1 5156   2.660   1.611   2.145
 1716SOL    HW2 5157   2.705   1.717   2.261
 1717SOL     OW 5158   2.092   0.628   3.837
 1717SOL    HW1 5159   1.999   0.626   3.874
 1717SOL    HW2 5160   2.093   0.589   3.745
 1718SOL     OW 5161   1.881   0.368   4.371
 1718SOL    HW1 5162   1.799   0.411   4.410
 1718SOL    HW2 5163   1.853   0.295   4.308
 1719SOL     OW 5164   3.417   1.511   4.427
 1719SOL    HW1 5165   3.360   1.495   4.508
 1719SOL    HW2 5166   3.358   1.521   4.347
 1720SOL     OW 5167   2.997   0.703   4.441
 1720SOL    HW1 5168   3.054   0.781   4.416
 1720SOL    HW2 5169   2.937   0.729   4.517
 1721SOL     OW 5170   3.617   0.607   3.955
 1721SOL    HW1 5171   3.605   0.594   3.856
 1721SOL    HW2 5172   3.587   0.526   4.004
 1722SOL     OW 5173   2.630   1.144   4.747
 1722SOL    HW1 5174   2.552   1.161   4.807
 1722SOL    HW2 5175   2.664   1.231   4.711
 1723SOL     OW 5176   2.547   1.012   4.389
 1723SOL    HW1 5177   2.616   0.996   4.459
 1723SOL    HW2 5178   2.474   1.069   4.427
 1724SOL     OW 5179   3.465   0.447   4.461
 1724SOL    HW1 5180   3.391   0.493   4.411
 1724SOL    HW2 5181   3.516   0.515   4.514
 1725SOL     OW 5182   2.093   1.713   4.207
 1725SOL    HW1 5183   2.127   1.790   4.261
 1725SOL    HW2 5184   2.137   1.713   4.117
 1726SOL     OW 5185   2.092   1.434   4.262
 1726SOL    HW1 5186   2.066   1.530   4.262
 1726SOL    HW2 5187   2.021   1.380   4.307
 1727SOL     OW 5188   2.102   1.091   4.610
 1727SOL    HW1 5189   2.116   1.007   4.662
 1727SOL    HW2 5190   2.047   1.155   4.665
 1728SOL     OW 5191   2.468   0.964   3.847
 1728SOL    HW1 5192   2.475   1.048   3.793
 1728SOL    HW2 5193   2.514   0.977   3.935
 1729SOL     OW 5194   1.984   0.643   4.287
 1729SOL    HW1 5195   1.939   0.555   4.304
 1729SOL    HW2 5196   1.983   0.697   4.371
 1730SOL     OW 5197   3.704   1.767   4.083
 1730SOL    HW1 5198   3.758   1.738   4.163
 1730SOL    HW2 5199   3.734   1.857   4.054
 1731SOL     OW 5200   1.889   1.596   3.841
 1731SOL    HW1 5201   1.870   1.500   3.862
 1731SOL    HW2 5202   1.856   1.654   3.916
 1732SOL     OW 5203   3.551   0.922   4.336
 1732SOL    HW1 5204   3.646   0.893   4.344
 1732SOL    HW2 5205   3.543   0.987   4.261
 1733SOL     OW 5206   3.503   1.108   4.156
 1733SOL    HW1 5207   3.589   1.110   4.104
 1733SOL    HW2 5208   3.517   1.155   4.244
 1734SOL     OW 5209   2.475   1.365   4.450
 1734SOL    HW1 5210   2.426   1.278   4.459
 1734SOL    HW2 5211   2.452   1.408   4.363
 1735SOL     OW 5212   2.671   0.004   4.226
 1735SOL    HW1 5213   2.711   0.095   4.217
 1735SOL    HW2 5214   2.571   0.012   4.232
 1736SOL     OW 5215   3.387   0.999   3.914
 1736SOL    HW1 5216   3.324   0.923   3.927
 1736SOL    HW2 5217   3.435   1.017   4.000
 1737SOL     OW 5218   3.529   1.714   4.296
 1737SOL    HW1 5219   3.488   1.691   4.208
 1737SOL    HW2 5220   3.511   1.640   4.361
 1738SOL     OW 5221   2.460   0.729   3.994
 1738SOL    HW1 5222   2.484   0.798   3.926
 1738SOL    HW2 5223   2.382   0.762   4.048
 1739SOL     OW 5224   3.143   0.345   4.668
 1739SOL    HW1 5225   3.057   0.295   4.655
 1739SOL    HW2 5226   3.205   0.291   4.724
 1740SOL     OW 5227   3.438   1.662   4.031
 1740SOL    HW1 5228   3.527   1.708   4.034
 1740SOL    HW2 5229   3.417   1.638   3.936
 1741SOL     OW 5230   2.903   0.701   4.153
 1741SOL    HW1 5231   2.929   0.697   4.249
 1741SOL    HW2 5232   2.818   0.650   4.139
 1742SOL     OW 5233   1.938   0.811   4.513
 1742SOL    HW1 5234   2.037   0.799   4.522
 1742SOL    HW2 5235   1.914   0.906   4.534
 1743SOL     OW 5236   2.727   0.348   3.919
 1743SOL    HW1 5237   2.786   0.411   3.870
 1743SOL    HW2 5238   2.746   0.254   3.890
 1744SOL     OW 5239   3.224   1.144   4.269
 1744SOL    HW1 5240   3.307   1.115   4.221
 1744SOL    HW2 5241   3.175   1.211   4.213
 1745SOL     OW 5242   2.870   1.456   4.201
 1745SOL    HW1 5243   2.824   1.528   4.149
 1745SOL    HW2 5244   2.866   1.476   4.299
 1746SOL     OW 5245   2.213   1.801   4.577
 1746SOL    HW1 5246   2.263   1.715   4.583
 1746SOL    HW2 5247   2.278   1.878   4.574
 1747SOL     OW 5248   3.657   1.066   4.597
 1747SOL    HW1 5249   3.595   1.051   4.521
 1747SOL    HW2 5250   3.605   1.077   4.682
 1748SOL     OW 5251   2.183   0.943   3.966
 1748SOL    HW1 5252   2.265   0.982   3.924
 1748SOL    HW2 5253   2.156   0.861   3.917
 1749SOL     OW 5254   3.320   0.735   4.452
 1749SOL    HW1 5255   3.315   0.670   4.527
 1749SOL    HW2 5256   3.400   0.794   4.465
 1750SOL     OW 5257   2.973   1.776   3.961
 1750SOL    HW1 5258   2.913   1.714   4.011
 1750SOL    HW2 5259   3.004   1.732   3.876
 1751SOL     OW 5260   3.494   1.377   3.805
 1751SOL    HW1 5261   3.462   1.471   3.795
 1751SOL    HW2 5262   3.418   1.314   3.793
 1752SOL     OW 5263   2.326   1.743   4.047
 1752SOL    HW1 5264   2.359   1.782   4.133
 1752SOL    HW2 5265   2.402   1.736   3.982
 1753SOL     OW 5266   3.262   0.107   4.150
 1753SOL    HW1 5267   3.238   0.070   4.060
 1753SOL    HW2 5268   3.361   0.123   4.154
 1754SOL     OW 5269   2.802   1.698   4.628
 1754SOL    HW1 5270   2.882   1.641   4.649
 1754SOL    HW2 5271   2.753   1.658   4.551
 1755SOL     OW 5272   2.244   0.700   4.204
 1755SOL    HW1 5273   2.289   0.610   4.201
 1755SOL    HW2 5274   2.150   0.689   4.237
 1756SOL     OW 5275   2.476   0.122   3.841
 1756SOL    HW1 5276   2.574   0.100   3.848
 1756SOL    HW2 5277   2.445   0.105   3.748
 1757SOL     OW 5278   2.401   0.064   4.236
 1757SOL    HW1 5279   2.320   0.065   4.294
 1757SOL    HW2 5280   2.404   0.147   4.181
 1758SOL     OW 5281   3.296   1.188   3.765
 1758SOL    HW1 5282   3.328   1.112   3.822
 1758SOL    HW2 5283   3.204   1.215   3.795
 1759SOL     OW 5284   2.159   0.035   3.895
 1759SOL    HW1 5285   2.208   0.119   3.874
 1759SOL    HW2 5286   2.221  -0.030   3.940
 1760SOL     OW 5287   2.797   0.236   4.204
 1760SOL    HW1 5288   2.749   0.277   4.126
 1760SOL    HW2 5289   2.896   0.234   4.185
 1761SOL     OW 5290   2.321   1.152   4.465
 1761SOL    HW1 5291   2.250   1.125   4.530
 1761SOL    HW2 5292   2.295   1.124   4.372
 1762SOL     OW 5293   3.133   1.797   4.315
 1762SOL    HW1 5294   3.177   1.861   4.251
 1762SOL    HW2 5295   3.083   1.849   4.385
 1763SOL     OW 5296   2.894   0.549   3.740
 1763SOL    HW1 5297   2.853   0.631   3.701
 1763SOL    HW2 5298   2.958   0.575   3.813
 1764SOL     OW 5299   2.728   0.454   4.366
 1764SOL    HW1 5300   2.696   0.526   4.304
 1764SOL    HW2 5301   2.752   0.373   4.313
 1765SOL     OW 5302   2.879   0.039   4.477
 1765SOL    HW1 5303   2.807   0.044   4.408
 1765SOL    HW2 5304   2.855  -0.030   4.546
 1766SOL     OW 5305   3.719   0.833   4.101
 1766SOL    HW1 5306   3.761   0.769   4.165
 1766SOL    HW2 5307   3.681   0.782   4.023
 1767SOL     OW 5308   2.350   1.385   3.898
 1767SOL    HW1 5309   2.263   1.370   3.945
 1767SOL    HW2 5310   2.333   1.411   3.803
 1768SOL     OW 5311   3.526   1.280   4.381
 1768SOL    HW1 5312   3.625   1.288   4.395
 1768SOL    HW2 5313   3.481   1.364   4.412
 1769SOL     OW 5314   3.252   0.575   3.802
 1769SOL    HW1 5315   3.198   0.554   3.883
 1769SOL    HW2 5316   3.343   0.534   3.811
 1770SOL     OW 5317   2.389   0.256   4.052
 1770SOL    HW1 5318   2.416   0.197   3.977
 1770SOL    HW2 5319   2.389   0.351   4.021
 1771SOL     OW 5320   2.567   1.050   4.092
 1771SOL    HW1 5321   2.553   1.057   4.191
 1771SOL    HW2 5322   2.651   0.999   4.074
 1772SOL     OW 5323   2.229   1.100   4.225
 1772SOL    HW1 5324   2.222   1.183   4.169
 1772SOL    HW2 5325   2.233   1.020   4.165
 1773SOL     OW 5326   2.428   0.537   4.589
 1773SOL    HW1 5327   2.440   0.603   4.515
 1773SOL    HW2 5328   2.474   0.571   4.672
 1774SOL     OW 5329   3.114   1.348   4.112
 1774SOL    HW1 5330   3.164   1.425   4.152
 1774SOL    HW2 5331   3.019   1.350   4.144
 1775SOL     OW 5332   3.444   0.639   4.196
 1775SOL    HW1 5333   3.413   0.700   4.269
 1775SOL    HW2 5334   3.494   0.691   4.127
 1776SOL     OW 5335   3.071   0.525   3.999
 1776SOL    HW1 5336   3.084   0.441   4.053
 1776SOL    HW2 5337   3.042   0.599   4.059
 1777SOL     OW 5338   2.169   0.063   4.342
 1777SOL    HW1 5339   2.158   0.157   4.375
 1777SOL    HW2 5340   2.164   0.000   4.419
 1778SOL     OW 5341   3.484   0.367   4.098
 1778SOL    HW1 5342   3.486   0.291   4.162
 1778SOL    HW2 5343   3.436   0.444   4.138
 1779SOL     OW 5344   3.402   0.274   3.849
 1779SOL    HW1 5345   3.341   0.199   3.872
 1779SOL    HW2 5346   3.424   0.326   3.932
 1780SOL     OW 5347   3.165   0.838   3.766
 1780SOL    HW1 5348   3.199   0.745   3.781
 1780SOL    HW2 5349   3.183   0.865   3.671
 1781SOL     OW 5350   1.870   1.326   3.924
 1781SOL    HW1 5351   1.777   1.347   3.893
 1781SOL    HW2 5352   1.880   1.227   3.937
 1782SOL     OW 5353   2.677   0.572   4.049
 1782SOL    HW1 5354   2.684   0.483   4.003
 1782SOL    HW2 5355   2.583   0.606   4.041
 1783SOL     OW 5356   2.335   0.500   3.915
 1783SOL    HW1 5357   2.396   0.580   3.919
 1783SOL    HW2 5358   2.240   0.531   3.922
 1784SOL     OW 5359   3.164   0.855   4.033
 1784SOL    HW1 5360   3.078   0.824   4.075
 1784SOL    HW2 5361   3.160   0.841   3.934
 1785SOL     OW 5362   3.588   0.135   4.247
 1785SOL    HW1 5363   3.661   0.118   4.180
 1785SOL    HW2 5364   3.557   0.048   4.285
 1786SOL     OW 5365   3.250   1.573   4.201
 1786SOL    HW1 5366   3.317   1.585   4.127
 1786SOL    HW2 5367   3.210   1.662   4.224
 1787SOL     OW 5368   3.142   0.927   4.396
 1787SOL    HW1 5369   3.202   0.846   4.398
 1787SOL    HW2 5370   3.182   0.996   4.336
 1788SOL     OW 5371   2.534   1.616   3.878
 1788SOL    HW1 5372   2.543   1.626   3.779
 1788SOL    HW2 5373   2.494   1.527   3.899
 1789SOL     OW 5374   3.703   0.175   4.687
 1789SOL    HW1 5375   3.742   0.090   4.651
 1789SOL    HW2 5376   3.605   0.177   4.668
 1790SOL     OW 5377   2.125   0.326   4.444
 1790SOL    HW1 5378   2.046   0.377   4.410
 1790SOL    HW2 5379   2.116   0.311   4.542
 1791SOL     OW 5380   3.056   1.612   3.755
 1791SOL    HW1 5381   3.062   1.519   3.792
 1791SOL    HW2 5382   2.997   1.612   3.675
 1792SOL     OW 5383   2.778   0.910   4.015
 1792SOL    HW1 5384   2.841   0.948   3.947
 1792SOL    HW2 5385   2.818   0.827   4.054
 1793SOL     OW 5386   3.366   1.607   3.768
 1793SOL    HW1 5387   3.274   1.644   3.775
 1793SOL    HW2 5388   3.404   1.627   3.678
 1794SOL     OW 5389   2.901   1.098   4.420
 1794SOL    HW1 5390   2.831   1.051   4.474
 1794SOL    HW2 5391   2.960   1.030   4.377
 1795SOL     OW 5392   2.452   1.487   4.215
 1795SOL    HW1 5393   2.494   1.429   4.145
 1795SOL    HW2 5394   2.408   1.566   4.171
 1796SOL     OW 5395   2.117   1.348   4.014
 1796SOL    HW1 5396   2.021   1.349   3.987
 1796SOL    HW2 5397   2.129   1.401   4.098
 1797SOL     OW 5398   1.937   0.345   3.757
 1797SOL    HW1 5399   1.845   0.317   3.728
 1797SOL    HW2 5400   1.968   0.422   3.701
 1798SOL     OW 5401   1.934   0.166   4.042
 1798SOL    HW1 5402   1.917   0.249   3.988
 1798SOL    HW2 5403   2.024   0.129   4.020
 1799SOL     OW 5404   3.045   1.335   3.843
 1799SOL    HW1 5405   2.946   1.324   3.845
 1799SOL    HW2 5406   3.079   1.350   3.936
 1800SOL     OW 5407   3.087   0.325   4.173
 1800SOL    HW1 5408   3.152   0.251   4.162
 1800SOL    HW2 5409   3.107   0.375   4.257
 1801SOL     OW 5410   2.456   0.745   4.376
 1801SOL    HW1 5411   2.506   0.830   4.357
 1801SOL    HW2 5412   2.368   0.747   4.328
 1802SOL     OW 5413   2.721   1.374   3.740
 1802SOL    HW1 5414   2.675   1.389   3.828
 1802SOL    HW2 5415   2.765   1.459   3.710
 1803SOL     OW 5416   2.523   1.790   4.677
 1803SOL    HW1 5417   2.477   1.878   4.664
 1803SOL    HW2 5418   2.622   1.802   4.670
 1804SOL     OW 5419   2.721   0.956   4.585
 1804SOL    HW1 5420   2.775   0.887   4.633
 1804SOL    HW2 5421   2.689   1.025   4.651
 1805SOL     OW 5422   2.945   0.984   3.811
 1805SOL    HW1 5423   2.922   1.037   3.729
 1805SOL    HW2 5424   3.026   0.928   3.792
 1806SOL     OW 5425   1.941   1.240   4.377
 1806SOL    HW1 5426   1.940   1.193   4.465
 1806SOL    HW2 5427   2.023   1.212   4.326
 1807SOL     OW 5428   2.290   0.424   4.244
 1807SOL    HW1 5429   2.320   0.352   4.182
 1807SOL    HW2 5430   2.251   0.384   4.327
 1808SOL     OW 5431   2.674   1.586   4.411
 1808SOL    HW1 5432   2.706   1.596   4.317
 1808SOL    HW2 5433   2.595   1.524   4.413
 1809SOL     OW 5434   2.632   1.330   4.025
 1809SOL    HW1 5435   2.586   1.243   4.042
 1809SOL    HW2 5436   2.723   1.327   4.066
 1810SOL     OW 5437   3.214   0.052   3.892
 1810SOL    HW1 5438   3.249   0.011   3.808
 1810SOL    HW2 5439   3.124   0.014   3.912
 1811SOL     OW 5440   3.162   0.453   4.415
 1811SOL    HW1 5441   3.103   0.533   4.419
 1811SOL    HW2 5442   3.177   0.418   4.508
 1812SOL     OW 5443   1.901   1.077   4.024
 1812SOL    HW1 5444   2.000   1.066   4.015
 1812SOL    HW2 5445   1.861   0.991   4.056
 1813SOL     OW 5446   2.737   1.646   4.061
 1813SOL    HW1 5447   2.660   1.611   4.007
 1813SOL    HW2 5448   2.705   1.717   4.123
 1814SOL     OW 5449   2.092   2.490   0.113
 1814SOL    HW1 5450   1.999   2.488   0.150
 1814SOL    HW2 5451   2.093   2.451   0.021
 1815SOL     OW 5452   2.087   2.137   0.996
 1815SOL    HW1 5453   2.122   2.120   1.088
 1815SOL    HW2 5454   1.999   2.092   0.984
 1816SOL     OW 5455   1.881   2.230   0.647
 1816SOL    HW1 5456   1.799   2.273   0.686
 1816SOL    HW2 5457   1.853   2.157   0.584
 1817SOL     OW 5458   2.431   3.137   1.165
 1817SOL    HW1 5459   2.338   3.130   1.128
 1817SOL    HW2 5460   2.442   3.226   1.209
 1818SOL     OW 5461   3.417   3.373   0.703
 1818SOL    HW1 5462   3.360   3.357   0.784
 1818SOL    HW2 5463   3.358   3.383   0.623
 1819SOL     OW 5464   2.997   2.565   0.717
 1819SOL    HW1 5465   3.054   2.643   0.692
 1819SOL    HW2 5466   2.937   2.591   0.793
 1820SOL     OW 5467   3.617   2.469   0.231
 1820SOL    HW1 5468   3.605   2.456   0.132
 1820SOL    HW2 5469   3.587   2.388   0.280
 1821SOL     OW 5470   2.630   3.006   1.023
 1821SOL    HW1 5471   2.552   3.023   1.083
 1821SOL    HW2 5472   2.664   3.093   0.987
 1822SOL     OW 5473   2.712   2.660   1.823
 1822SOL    HW1 5474   2.708   2.736   1.888
 1822SOL    HW2 5475   2.734   2.696   1.732
 1823SOL     OW 5476   2.547   2.874   0.665
 1823SOL    HW1 5477   2.616   2.858   0.735
 1823SOL    HW2 5478   2.474   2.931   0.703
 1824SOL     OW 5479   2.548   3.023   1.803
 1824SOL    HW1 5480   2.608   3.102   1.817
 1824SOL    HW2 5481   2.462   3.054   1.762
 1825SOL     OW 5482   2.197   3.297   1.061
 1825SOL    HW1 5483   2.119   3.266   1.008
 1825SOL    HW2 5484   2.255   3.355   1.004
 1826SOL     OW 5485   3.322   3.367   1.339
 1826SOL    HW1 5486   3.346   3.461   1.365
 1826SOL    HW2 5487   3.306   3.313   1.421
 1827SOL     OW 5488   2.300   2.254   1.499
 1827SOL    HW1 5489   2.382   2.198   1.508
 1827SOL    HW2 5490   2.219   2.196   1.503
 1828SOL     OW 5491   3.465   2.309   0.737
 1828SOL    HW1 5492   3.391   2.355   0.687
 1828SOL    HW2 5493   3.516   2.377   0.790
 1829SOL     OW 5494   2.093   3.575   0.483
 1829SOL    HW1 5495   2.127   3.652   0.537
 1829SOL    HW2 5496   2.137   3.575   0.393
 1830SOL     OW 5497   2.989   3.203   1.690
 1830SOL    HW1 5498   3.036   3.203   1.778
 1830SOL    HW2 5499   2.941   3.116   1.679
 1831SOL     OW 5500   2.092   3.296   0.538
 1831SOL    HW1 5501   2.066   3.392   0.538
 1831SOL    HW2 5502   2.021   3.242   0.583
 1832SOL     OW 5503   2.102   2.953   0.886
 1832SOL    HW1 5504   2.116   2.869   0.938
 1832SOL    HW2 5505   2.047   3.017   0.941
 1833SOL     OW 5506   2.482   3.648   1.439
 1833SOL    HW1 5507   2.390   3.631   1.474
 1833SOL    HW2 5508   2.510   3.740   1.465
 1834SOL     OW 5509   2.468   2.826   0.123
 1834SOL    HW1 5510   2.475   2.910   0.069
 1834SOL    HW2 5511   2.514   2.839   0.211
 1835SOL     OW 5512   3.456   1.976   1.480
 1835SOL    HW1 5513   3.438   2.043   1.408
 1835SOL    HW2 5514   3.453   2.022   1.569
 1836SOL     OW 5515   1.984   2.505   0.563
 1836SOL    HW1 5516   1.939   2.417   0.580
 1836SOL    HW2 5517   1.983   2.559   0.647
 1837SOL     OW 5518   3.704   3.629   0.359
 1837SOL    HW1 5519   3.758   3.600   0.439
 1837SOL    HW2 5520   3.734   3.719   0.330
 1838SOL     OW 5521   1.889   3.458   0.117
 1838SOL    HW1 5522   1.870   3.362   0.138
 1838SOL    HW2 5523   1.856   3.516   0.192
 1839SOL     OW 5524   3.551   2.784   0.612
 1839SOL    HW1 5525   3.646   2.755   0.620
 1839SOL    HW2 5526   3.543   2.849   0.537
 1840SOL     OW 5527   3.503   2.970   0.432
 1840SOL    HW1 5528   3.589   2.972   0.380
 1840SOL    HW2 5529   3.517   3.017   0.520
 1841SOL     OW 5530   1.975   2.599   1.597
 1841SOL    HW1 5531   2.063   2.586   1.642
 1841SOL    HW2 5532   1.962   2.696   1.575
 1842SOL     OW 5533   2.475   3.227   0.726
 1842SOL    HW1 5534   2.426   3.140   0.735
 1842SOL    HW2 5535   2.452   3.270   0.639
 1843SOL     OW 5536   3.155   3.090   1.423
 1843SOL    HW1 5537   3.192   3.017   1.365
 1843SOL    HW2 5538   3.207   3.095   1.508
 1844SOL     OW 5539   2.671   1.866   0.502
 1844SOL    HW1 5540   2.711   1.957   0.493
 1844SOL    HW2 5541   2.571   1.874   0.508
 1845SOL     OW 5542   2.059   2.838   1.264
 1845SOL    HW1 5543   2.148   2.793   1.250
 1845SOL    HW2 5544   1.986   2.773   1.245
 1846SOL     OW 5545   3.387   2.861   0.190
 1846SOL    HW1 5546   3.324   2.785   0.203
 1846SOL    HW2 5547   3.435   2.879   0.276
 1847SOL     OW 5548   3.049   3.654   1.616
 1847SOL    HW1 5549   3.073   3.714   1.540
 1847SOL    HW2 5550   3.056   3.559   1.586
 1848SOL     OW 5551   2.179   2.113   1.801
 1848SOL    HW1 5552   2.250   2.184   1.807
 1848SOL    HW2 5553   2.091   2.152   1.829
 1849SOL     OW 5554   3.328   3.279   0.953
 1849SOL    HW1 5555   3.269   3.285   1.033
 1849SOL    HW2 5556   3.313   3.191   0.907
 1850SOL     OW 5557   3.529   3.576   0.572
 1850SOL    HW1 5558   3.488   3.553   0.484
 1850SOL    HW2 5559   3.511   3.502   0.637
 1851SOL     OW 5560   2.460   2.591   0.270
 1851SOL    HW1 5561   2.484   2.660   0.202
 1851SOL    HW2 5562   2.382   2.624   0.324
 1852SOL     OW 5563   3.143   2.207   0.944
 1852SOL    HW1 5564   3.057   2.157   0.931
 1852SOL    HW2 5565   3.205   2.153   1.000
 1853SOL     OW 5566   3.438   3.524   0.307
 1853SOL    HW1 5567   3.527   3.570   0.310
 1853SOL    HW2 5568   3.417   3.500   0.212
 1854SOL     OW 5569   2.669   2.467   1.465
 1854SOL    HW1 5570   2.622   2.464   1.554
 1854SOL    HW2 5571   2.618   2.412   1.399
 1855SOL     OW 5572   3.256   2.331   1.674
 1855SOL    HW1 5573   3.236   2.374   1.762
 1855SOL    HW2 5574   3.334   2.269   1.683
 1856SOL     OW 5575   2.835   2.752   1.572
 1856SOL    HW1 5576   2.881   2.668   1.543
 1856SOL    HW2 5577   2.779   2.786   1.497
 1857SOL     OW 5578   2.853   2.272   1.242
 1857SOL    HW1 5579   2.776   2.306   1.296
 1857SOL    HW2 5580   2.819   2.221   1.163
 1858SOL     OW 5581   2.903   2.563   0.429
 1858SOL    HW1 5582   2.929   2.559   0.525
 1858SOL    HW2 5583   2.818   2.512   0.415
 1859SOL     OW 5584   1.938   2.673   0.789
 1859SOL    HW1 5585   2.037   2.661   0.798
 1859SOL    HW2 5586   1.914   2.768   0.810
 1860SOL     OW 5587   1.992   3.683   1.571
 1860SOL    HW1 5588   1.982   3.668   1.670
 1860SOL    HW2 5589   1.906   3.719   1.535
 1861SOL     OW 5590   2.727   2.210   0.195
 1861SOL    HW1 5591   2.786   2.273   0.146
 1861SOL    HW2 5592   2.746   2.116   0.166
 1862SOL     OW 5593   3.581   2.447   1.831
 1862SOL    HW1 5594   3.555   2.536   1.795
 1862SOL    HW2 5595   3.579   2.379   1.758
 1863SOL     OW 5596   3.224   3.006   0.545
 1863SOL    HW1 5597   3.307   2.977   0.497
 1863SOL    HW2 5598   3.175   3.073   0.489
 1864SOL     OW 5599   2.412   2.058   0.885
 1864SOL    HW1 5600   2.407   2.053   0.985
 1864SOL    HW2 5601   2.414   2.154   0.856
 1865SOL     OW 5602   2.870   3.318   0.477
 1865SOL    HW1 5603   2.824   3.390   0.425
 1865SOL    HW2 5604   2.866   3.338   0.575
 1866SOL     OW 5605   2.213   3.663   0.853
 1866SOL    HW1 5606   2.263   3.577   0.859
 1866SOL    HW2 5607   2.278   3.740   0.850
 1867SOL     OW 5608   3.657   2.928   0.873
 1867SOL    HW1 5609   3.595   2.913   0.797
 1867SOL    HW2 5610   3.605   2.939   0.958
 1868SOL     OW 5611   3.089   3.412   1.506
 1868SOL    HW1 5612   3.095   3.335   1.570
 1868SOL    HW2 5613   3.037   3.386   1.426
 1869SOL     OW 5614   2.183   2.805   0.242
 1869SOL    HW1 5615   2.265   2.844   0.200
 1869SOL    HW2 5616   2.156   2.723   0.193
 1870SOL     OW 5617   3.320   2.597   0.728
 1870SOL    HW1 5618   3.315   2.532   0.803
 1870SOL    HW2 5619   3.400   2.656   0.741
 1871SOL     OW 5620   2.323   3.128   1.727
 1871SOL    HW1 5621   2.273   3.129   1.641
 1871SOL    HW2 5622   2.260   3.110   1.803
 1872SOL     OW 5623   2.973   3.638   0.237
 1872SOL    HW1 5624   2.913   3.576   0.287
 1872SOL    HW2 5625   3.004   3.594   0.152
 1873SOL     OW 5626   2.064   2.147   1.498
 1873SOL    HW1 5627   1.984   2.207   1.485
 1873SOL    HW2 5628   2.054   2.098   1.584
 1874SOL     OW 5629   3.494   3.239   0.081
 1874SOL    HW1 5630   3.462   3.333   0.071
 1874SOL    HW2 5631   3.418   3.176   0.069
 1875SOL     OW 5632   2.326   3.605   0.323
 1875SOL    HW1 5633   2.359   3.644   0.409
 1875SOL    HW2 5634   2.402   3.598   0.258
 1876SOL     OW 5635   3.262   1.969   0.426
 1876SOL    HW1 5636   3.238   1.932   0.336
 1876SOL    HW2 5637   3.361   1.985   0.430
 1877SOL     OW 5638   2.111   3.647   1.241
 1877SOL    HW1 5639   2.168   3.582   1.291
 1877SOL    HW2 5640   2.095   3.614   1.148
 1878SOL     OW 5641   2.802   3.560   0.904
 1878SOL    HW1 5642   2.882   3.503   0.925
 1878SOL    HW2 5643   2.753   3.520   0.827
 1879SOL     OW 5644   2.244   2.562   0.480
 1879SOL    HW1 5645   2.289   2.472   0.477
 1879SOL    HW2 5646   2.150   2.551   0.513
 1880SOL     OW 5647   3.409   2.084   1.729
 1880SOL    HW1 5648   3.404   2.121   1.821
 1880SOL    HW2 5649   3.337   2.015   1.717
 1881SOL     OW 5650   2.643   2.126   1.749
 1881SOL    HW1 5651   2.710   2.065   1.792
 1881SOL    HW2 5652   2.570   2.145   1.814
 1882SOL     OW 5653   2.750   3.376   1.195
 1882SOL    HW1 5654   2.727   3.351   1.101
 1882SOL    HW2 5655   2.811   3.307   1.234
 1883SOL     OW 5656   3.213   2.452   1.433
 1883SOL    HW1 5657   3.241   2.409   1.518
 1883SOL    HW2 5658   3.238   2.548   1.434
 1884SOL     OW 5659   2.665   3.264   0.924
 1884SOL    HW1 5660   2.755   3.278   0.882
 1884SOL    HW2 5661   2.594   3.266   0.853
 1885SOL     OW 5662   2.784   2.365   0.899
 1885SOL    HW1 5663   2.759   2.356   0.803
 1885SOL    HW2 5664   2.832   2.283   0.930
 1886SOL     OW 5665   2.401   1.926   0.512
 1886SOL    HW1 5666   2.320   1.927   0.570
 1886SOL    HW2 5667   2.404   2.009   0.457
 1887SOL     OW 5668   3.296   3.050   0.041
 1887SOL    HW1 5669   3.328   2.974   0.098
 1887SOL    HW2 5670   3.204   3.077   0.071
 1888SOL     OW 5671   2.159   1.897   0.171
 1888SOL    HW1 5672   2.208   1.981   0.150
 1888SOL    HW2 5673   2.221   1.832   0.216
 1889SOL     OW 5674   2.797   2.098   0.480
 1889SOL    HW1 5675   2.749   2.139   0.402
 1889SOL    HW2 5676   2.896   2.096   0.461
 1890SOL     OW 5677   2.938   2.545   1.464
 1890SOL    HW1 5678   2.858   2.484   1.467
 1890SOL    HW2 5679   3.019   2.492   1.440
 1891SOL     OW 5680   3.089   3.432   0.793
 1891SOL    HW1 5681   3.110   3.506   0.728
 1891SOL    HW2 5682   3.157   3.432   0.866
 1892SOL     OW 5683   2.321   3.014   0.741
 1892SOL    HW1 5684   2.250   2.987   0.806
 1892SOL    HW2 5685   2.295   2.986   0.648
 1893SOL     OW 5686   3.133   3.659   0.591
 1893SOL    HW1 5687   3.177   3.723   0.527
 1893SOL    HW2 5688   3.083   3.711   0.661
 1894SOL     OW 5689   2.894   2.411   0.016
 1894SOL    HW1 5690   2.853   2.493  -0.023
 1894SOL    HW2 5691   2.958   2.437   0.089
 1895SOL     OW 5692   1.940   2.418   1.386
 1895SOL    HW1 5693   2.032   2.417   1.345
 1895SOL    HW2 5694   1.934   2.492   1.453
 1896SOL     OW 5695   2.423   2.084   1.147
 1896SOL    HW1 5696   2.461   2.000   1.184
 1896SOL    HW2 5697   2.335   2.103   1.191
 1897SOL     OW 5698   2.728   2.316   0.642
 1897SOL    HW1 5699   2.696   2.388   0.580
 1897SOL    HW2 5700   2.752   2.235   0.589
 1898SOL     OW 5701   2.879   1.901   0.753
 1898SOL    HW1 5702   2.807   1.906   0.684
 1898SOL    HW2 5703   2.855   1.832   0.822
 1899SOL     OW 5704   3.291   3.035   0.867
 1899SOL    HW1 5705   3.236   2.951   0.860
 1899SOL    HW2 5706   3.317   3.064   0.775
 1900SOL     OW 5707   3.328   2.452   0.992
 1900SOL    HW1 5708   3.298   2.357   0.999
 1900SOL    HW2 5709   3.401   2.468   1.058
 1901SOL     OW 5710   3.719   2.695   0.377
 1901SOL    HW1 5711   3.761   2.631   0.441
 1901SOL    HW2 5712   3.681   2.644   0.299
 1902SOL     OW 5713   2.350   3.247   0.174
 1902SOL    HW1 5714   2.263   3.232   0.221
 1902SOL    HW2 5715   2.333   3.273   0.079
 1903SOL     OW 5716   3.526   3.142   0.657
 1903SOL    HW1 5717   3.625   3.150   0.671
 1903SOL    HW2 5718   3.481   3.226   0.688
 1904SOL     OW 5719   3.252   2.437   0.078
 1904SOL    HW1 5720   3.198   2.416   0.159
 1904SOL    HW2 5721   3.343   2.396   0.087
 1905SOL     OW 5722   2.389   2.118   0.328
 1905SOL    HW1 5723   2.416   2.059   0.253
 1905SOL    HW2 5724   2.389   2.213   0.297
 1906SOL     OW 5725   3.616   3.085   1.588
 1906SOL    HW1 5726   3.707   3.046   1.575
 1906SOL    HW2 5727   3.624   3.181   1.612
 1907SOL     OW 5728   2.926   3.209   1.340
 1907SOL    HW1 5729   2.846   3.186   1.395
 1907SOL    HW2 5730   3.009   3.183   1.389
 1908SOL     OW 5731   3.454   3.491   1.625
 1908SOL    HW1 5732   3.481   3.525   1.535
 1908SOL    HW2 5733   3.533   3.453   1.671
 1909SOL     OW 5734   2.973   3.057   1.100
 1909SOL    HW1 5735   2.933   3.101   1.181
 1909SOL    HW2 5736   2.932   3.094   1.017
 1910SOL     OW 5737   3.500   2.961   1.079
 1910SOL    HW1 5738   3.505   3.042   1.138
 1910SOL    HW2 5739   3.414   2.963   1.028
 1911SOL     OW 5740   2.777   1.951   1.402
 1911SOL    HW1 5741   2.802   1.931   1.307
 1911SOL    HW2 5742   2.849   2.007   1.444
 1912SOL     OW 5743   2.842   2.978   1.719
 1912SOL    HW1 5744   2.743   2.984   1.729
 1912SOL    HW2 5745   2.865   2.898   1.663
 1913SOL     OW 5746   2.567   2.912   0.368
 1913SOL    HW1 5747   2.553   2.919   0.467
 1913SOL    HW2 5748   2.651   2.861   0.350
 1914SOL     OW 5749   2.272   2.675   1.251
 1914SOL    HW1 5750   2.358   2.687   1.301
 1914SOL    HW2 5751   2.230   2.588   1.278
 1915SOL     OW 5752   3.136   2.248   1.262
 1915SOL    HW1 5753   3.157   2.322   1.326
 1915SOL    HW2 5754   3.047   2.265   1.219
 1916SOL     OW 5755   1.926   3.426   1.331
 1916SOL    HW1 5756   1.880   3.508   1.297
 1916SOL    HW2 5757   2.024   3.445   1.340
 1917SOL     OW 5758   2.229   2.962   0.501
 1917SOL    HW1 5759   2.222   3.045   0.445
 1917SOL    HW2 5760   2.233   2.882   0.441
 1918SOL     OW 5761   2.428   2.399   0.865
 1918SOL    HW1 5762   2.440   2.465   0.791
 1918SOL    HW2 5763   2.474   2.433   0.948
 1919SOL     OW 5764   3.114   3.210   0.388
 1919SOL    HW1 5765   3.164   3.287   0.428
 1919SOL    HW2 5766   3.019   3.212   0.420
 1920SOL     OW 5767   3.134   3.307   1.142
 1920SOL    HW1 5768   3.181   3.320   1.229
 1920SOL    HW2 5769   3.068   3.233   1.151
 1921SOL     OW 5770   3.444   2.501   0.472
 1921SOL    HW1 5771   3.413   2.562   0.545
 1921SOL    HW2 5772   3.494   2.553   0.403
 1922SOL     OW 5773   2.216   3.372   1.329
 1922SOL    HW1 5774   2.195   3.328   1.242
 1922SOL    HW2 5775   2.313   3.398   1.332
 1923SOL     OW 5776   2.264   2.613   1.598
 1923SOL    HW1 5777   2.332   2.668   1.551
 1923SOL    HW2 5778   2.304   2.525   1.625
 1924SOL     OW 5779   3.449   2.641   1.670
 1924SOL    HW1 5780   3.357   2.679   1.665
 1924SOL    HW2 5781   3.509   2.688   1.605
 1925SOL     OW 5782   2.875   1.967   1.770
 1925SOL    HW1 5783   2.881   2.052   1.718
 1925SOL    HW2 5784   2.907   1.891   1.713
 1926SOL     OW 5785   2.366   1.912   1.740
 1926SOL    HW1 5786   2.324   1.855   1.670
 1926SOL    HW2 5787   2.300   1.981   1.772
 1927SOL     OW 5788   2.435   2.732   1.029
 1927SOL    HW1 5789   2.479   2.821   1.020
 1927SOL    HW2 5790   2.372   2.732   1.106
 1928SOL     OW 5791   3.222   2.724   1.045
 1928SOL    HW1 5792   3.147   2.724   0.979
 1928SOL    HW2 5793   3.259   2.632   1.054
 1929SOL     OW 5794   3.071   2.387   0.275
 1929SOL    HW1 5795   3.084   2.303   0.329
 1929SOL    HW2 5796   3.042   2.461   0.335
 1930SOL     OW 5797   2.169   2.075   1.231
 1930SOL    HW1 5798   2.146   2.112   1.321
 1930SOL    HW2 5799   2.139   1.980   1.225
 1931SOL     OW 5800   1.899   3.172   1.282
 1931SOL    HW1 5801   1.952   3.123   1.350
 1931SOL    HW2 5802   1.921   3.270   1.287
 1932SOL     OW 5803   2.594   2.496   1.064
 1932SOL    HW1 5804   2.653   2.470   0.988
 1932SOL    HW2 5805   2.566   2.592   1.053
 1933SOL     OW 5806   3.590   2.797   1.854
 1933SOL    HW1 5807   3.544   2.790   1.765
 1933SOL    HW2 5808   3.528   2.841   1.920
 1934SOL     OW 5809   2.169   1.925   0.618
 1934SOL    HW1 5810   2.158   2.019   0.651
 1934SOL    HW2 5811   2.164   1.862   0.695
 1935SOL     OW 5812   3.484   2.229   0.374
 1935SOL    HW1 5813   3.486   2.153   0.438
 1935SOL    HW2 5814   3.436   2.306   0.414
 1936SOL     OW 5815   2.885   2.628   0.966
 1936SOL    HW1 5816   2.900   2.649   1.062
 1936SOL    HW2 5817   2.855   2.533   0.957
 1937SOL     OW 5818   2.842   3.435   1.700
 1937SOL    HW1 5819   2.822   3.479   1.612
 1937SOL    HW2 5820   2.881   3.344   1.684
 1938SOL     OW 5821   3.721   3.380   1.605
 1938SOL    HW1 5822   3.735   3.407   1.510
 1938SOL    HW2 5823   3.804   3.402   1.658
 1939SOL     OW 5824   2.212   2.760   1.804
 1939SOL    HW1 5825   2.288   2.804   1.852
 1939SOL    HW2 5826   2.247   2.713   1.722
 1940SOL     OW 5827   3.402   2.136   0.125
 1940SOL    HW1 5828   3.341   2.061   0.148
 1940SOL    HW2 5829   3.424   2.188   0.208
 1941SOL     OW 5830   3.165   2.700   0.042
 1941SOL    HW1 5831   3.199   2.607   0.057
 1941SOL    HW2 5832   3.183   2.727  -0.053
 1942SOL     OW 5833   2.930   3.195   0.849
 1942SOL    HW1 5834   2.937   3.111   0.794
 1942SOL    HW2 5835   2.992   3.264   0.813
 1943SOL     OW 5836   2.181   2.672   0.949
 1943SOL    HW1 5837   2.274   2.708   0.954
 1943SOL    HW2 5838   2.175   2.587   1.001
 1944SOL     OW 5839   2.201   2.371   1.006
 1944SOL    HW1 5840   2.149   2.288   0.989
 1944SOL    HW2 5841   2.278   2.376   0.942
 1945SOL     OW 5842   3.000   2.242   1.678
 1945SOL    HW1 5843   2.955   2.305   1.742
 1945SOL    HW2 5844   3.093   2.273   1.661
 1946SOL     OW 5845   3.022   2.069   1.477
 1946SOL    HW1 5846   3.022   2.133   1.554
 1946SOL    HW2 5847   3.050   2.117   1.394
 1947SOL     OW 5848   1.870   3.188   0.200
 1947SOL    HW1 5849   1.777   3.209   0.169
 1947SOL    HW2 5850   1.880   3.089   0.213
 1948SOL     OW 5851   1.950   3.663   0.927
 1948SOL    HW1 5852   1.908   3.577   0.900
 1948SOL    HW2 5853   2.044   3.666   0.893
 1949SOL     OW 5854   2.366   3.430   0.910
 1949SOL    HW1 5855   2.432   3.504   0.919
 1949SOL    HW2 5856   2.410   3.351   0.868
 1950SOL     OW 5857   2.864   2.658   1.238
 1950SOL    HW1 5858   2.905   2.626   1.324
 1950SOL    HW2 5859   2.768   2.631   1.235
 1951SOL     OW 5860   1.902   2.406   1.114
 1951SOL    HW1 5861   1.987   2.373   1.073
 1951SOL    HW2 5862   1.915   2.421   1.212
 1952SOL     OW 5863   2.051   2.382   1.722
 1952SOL    HW1 5864   2.110   2.342   1.652
 1952SOL    HW2 5865   1.993   2.453   1.681
 1953SOL     OW 5866   3.231   2.812   1.660
 1953SOL    HW1 5867   3.270   2.901   1.680
 1953SOL    HW2 5868   3.241   2.792   1.563
 1954SOL     OW 5869   2.677   2.434   0.325
 1954SOL    HW1 5870   2.684   2.345   0.279
 1954SOL    HW2 5871   2.583   2.468   0.317
 1955SOL     OW 5872   3.519   2.466   1.206
 1955SOL    HW1 5873   3.481   2.397   1.268
 1955SOL    HW2 5874   3.601   2.430   1.162
 1956SOL     OW 5875   2.114   3.426   1.744
 1956SOL    HW1 5876   2.084   3.483   1.820
 1956SOL    HW2 5877   2.107   3.329   1.770
 1957SOL     OW 5878   2.533   2.326   1.269
 1957SOL    HW1 5879   2.499   2.237   1.239
 1957SOL    HW2 5880   2.559   2.380   1.189
 1958SOL     OW 5881   2.792   3.540   1.465
 1958SOL    HW1 5882   2.768   3.522   1.370
 1958SOL    HW2 5883   2.822   3.634   1.475
 1959SOL     OW 5884   2.335   2.362   0.191
 1959SOL    HW1 5885   2.396   2.442   0.195
 1959SOL    HW2 5886   2.240   2.393   0.198
 1960SOL     OW 5887   2.021   2.999   1.466
 1960SOL    HW1 5888   2.043   2.938   1.542
 1960SOL    HW2 5889   2.031   2.950   1.380
 1961SOL     OW 5890   3.209   2.921   1.234
 1961SOL    HW1 5891   3.233   2.858   1.160
 1961SOL    HW2 5892   3.119   2.961   1.216
 1962SOL     OW 5893   3.164   2.717   0.309
 1962SOL    HW1 5894   3.078   2.686   0.351
 1962SOL    HW2 5895   3.160   2.703   0.210
 1963SOL     OW 5896   3.621   3.609   1.154
 1963SOL    HW1 5897   3.682   3.639   1.081
 1963SOL    HW2 5898   3.583   3.520   1.132
 1964SOL     OW 5899   3.114   3.593   1.128
 1964SOL    HW1 5900   3.198   3.598   1.074
 1964SOL    HW2 5901   3.091   3.497   1.146
 1965SOL     OW 5902   1.945   3.120   1.022
 1965SOL    HW1 5903   1.940   3.119   1.122
 1965SOL    HW2 5904   1.862   3.079   0.984
 1966SOL     OW 5905   2.550   3.524   1.716
 1966SOL    HW1 5906   2.494   3.605   1.725
 1966SOL    HW2 5907   2.602   3.528   1.630
 1967SOL     OW 5908   2.765   1.948   0.133
 1967SOL    HW1 5909   2.816   1.949   0.047
 1967SOL    HW2 5910   2.821   1.906   0.204
 1968SOL     OW 5911   3.588   1.997   0.523
 1968SOL    HW1 5912   3.661   1.980   0.456
 1968SOL    HW2 5913   3.557   1.910   0.561
 1969SOL     OW 5914   3.250   3.435   0.477
 1969SOL    HW1 5915   3.317   3.447   0.403
 1969SOL    HW2 5916   3.210   3.524   0.500
 1970SOL     OW 5917   1.992   3.656   1.851
 1970SOL    HW1 5918   1.951   3.582   1.904
 1970SOL    HW2 5919   2.056   3.707   1.909
 1971SOL     OW 5920   3.142   2.789   0.672
 1971SOL    HW1 5921   3.202   2.708   0.674
 1971SOL    HW2 5922   3.182   2.858   0.612
 1972SOL     OW 5923   2.692   3.135   1.422
 1972SOL    HW1 5924   2.687   3.168   1.517
 1972SOL    HW2 5925   2.606   3.154   1.376
 1973SOL     OW 5926   2.534   3.478   0.154
 1973SOL    HW1 5927   2.543   3.488   0.055
 1973SOL    HW2 5928   2.494   3.389   0.175
 1974SOL     OW 5929   3.512   3.582   1.394
 1974SOL    HW1 5930   3.565   3.592   1.310
 1974SOL    HW2 5931   3.485   3.672   1.428
 1975SOL     OW 5932   3.703   2.037   0.963
 1975SOL    HW1 5933   3.742   1.952   0.927
 1975SOL    HW2 5934   3.605   2.039   0.944
 1976SOL     OW 5935   2.125   2.188   0.720
 1976SOL    HW1 5936   2.046   2.239   0.686
 1976SOL    HW2 5937   2.116   2.173   0.818
 1977SOL     OW 5938   3.056   3.474   0.031
 1977SOL    HW1 5939   3.062   3.381   0.068
 1977SOL    HW2 5940   2.997   3.474  -0.049
 1978SOL     OW 5941   2.684   2.864   1.372
 1978SOL    HW1 5942   2.724   2.863   1.280
 1978SOL    HW2 5943   2.694   2.956   1.412
 1979SOL     OW 5944   2.778   2.772   0.291
 1979SOL    HW1 5945   2.841   2.810   0.223
 1979SOL    HW2 5946   2.818   2.689   0.330
 1980SOL     OW 5947   3.366   3.469   0.044
 1980SOL    HW1 5948   3.274   3.506   0.051
 1980SOL    HW2 5949   3.404   3.489  -0.046
 1981SOL     OW 5950   2.234   3.150   1.490
 1981SOL    HW1 5951   2.221   3.243   1.456
 1981SOL    HW2 5952   2.150   3.098   1.477
 1982SOL     OW 5953   3.476   3.154   1.289
 1982SOL    HW1 5954   3.536   3.157   1.369
 1982SOL    HW2 5955   3.401   3.218   1.302
 1983SOL     OW 5956   2.901   2.960   0.696
 1983SOL    HW1 5957   2.831   2.913   0.750
 1983SOL    HW2 5958   2.960   2.892   0.653
 1984SOL     OW 5959   2.876   2.098   0.971
 1984SOL    HW1 5960   2.868   2.062   0.878
 1984SOL    HW2 5961   2.874   2.022   1.036
 1985SOL     OW 5962   2.452   3.349   0.491
 1985SOL    HW1 5963   2.494   3.291   0.421
 1985SOL    HW2 5964   2.408   3.428   0.447
 1986SOL     OW 5965   3.571   2.247   1.381
 1986SOL    HW1 5966   3.644   2.316   1.385
 1986SOL    HW2 5967   3.599   2.172   1.322
 1987SOL     OW 5968   2.117   3.210   0.290
 1987SOL    HW1 5969   2.021   3.211   0.263
 1987SOL    HW2 5970   2.129   3.263   0.374
 1988SOL     OW 5971   1.967   2.875   1.726
 1988SOL    HW1 5972   1.890   2.842   1.780
 1988SOL    HW2 5973   2.052   2.845   1.768
 1989SOL     OW 5974   2.534   2.065   1.489
 1989SOL    HW1 5975   2.624   2.049   1.449
 1989SOL    HW2 5976   2.542   2.070   1.588
 1990SOL     OW 5977   1.937   2.207   0.033
 1990SOL    HW1 5978   1.845   2.179   0.004
 1990SOL    HW2 5979   1.968   2.284  -0.023
 1991SOL     OW 5980   3.302   2.718   1.398
 1991SOL    HW1 5981   3.245   2.770   1.335
 1991SOL    HW2 5982   3.398   2.730   1.374
 1992SOL     OW 5983   1.934   2.028   0.318
 1992SOL    HW1 5984   1.917   2.111   0.264
 1992SOL    HW2 5985   2.024   1.991   0.296
 1993SOL     OW 5986   3.045   3.197   0.119
 1993SOL    HW1 5987   2.946   3.186   0.121
 1993SOL    HW2 5988   3.079   3.212   0.212
 1994SOL     OW 5989   2.475   2.704   1.431
 1994SOL    HW1 5990   2.531   2.785   1.414
 1994SOL    HW2 5991   2.534   2.624   1.434
 1995SOL     OW 5992   3.355   3.629   0.959
 1995SOL    HW1 5993   3.388   3.693   0.890
 1995SOL    HW2 5994   3.421   3.623   1.034
 1996SOL     OW 5995   2.578   2.427   1.708
 1996SOL    HW1 5996   2.597   2.492   1.782
 1996SOL    HW2 5997   2.638   2.347   1.717
 1997SOL     OW 5998   3.312   3.082   1.633
 1997SOL    HW1 5999   3.303   3.072   1.732
 1997SOL    HW2 6000   3.408   3.075   1.607
 1998SOL     OW 6001   2.252   3.603   1.560
 1998SOL    HW1 6002   2.161   3.644   1.558
 1998SOL    HW2 6003   2.245   3.509   1.592
 1999SOL     OW 6004   3.536   2.745   1.254
 1999SOL    HW1 6005   3.509   2.656   1.217
 1999SOL    HW2 6006   3.537   2.813   1.181
 2000SOL     OW 6007   3.087   2.187   0.449
 2000SOL    HW1 6008   3.152   2.113   0.438
 2000SOL    HW2 6009   3.107   2.237   0.533
 2001SOL     OW 6010   2.456   2.607   0.652
 2001SOL    HW1 6011   2.506   2.692   0.633
 2001SOL    HW2 6012   2.368   2.609   0.604
 2002SOL     OW 6013   3.639   2.204   1.642
 2002SOL    HW1 6014   3.622   2.235   1.548
 2002SOL    HW2 6015   3.555   2.167   1.680
 2003SOL     OW 6016   3.592   2.796   1.517
 2003SOL    HW1 6017   3.630   2.887   1.532
 2003SOL    HW2 6018   3.584   2.779   1.418
 2004SOL     OW 6019   2.721   3.236   0.016
 2004SOL    HW1 6020   2.675   3.251   0.104
 2004SOL    HW2 6021   2.765   3.321  -0.014
 2005SOL     OW 6022   2.523   3.652   0.953
 2005SOL    HW1 6023   2.477   3.740   0.940
 2005SOL    HW2 6024   2.622   3.664   0.946
 2006SOL     OW 6025   2.721   2.818   0.861
 2006SOL    HW1 6026   2.775   2.749   0.909
 2006SOL    HW2 6027   2.689   2.887   0.927
 2007SOL     OW 6028   2.945   2.846   0.087
 2007SOL    HW1 6029   2.922   2.899   0.005
 2007SOL    HW2 6030   3.026   2.790   0.068
 2008SOL     OW 6031   3.723   3.431   0.851
 2008SOL    HW1 6032   3.652   3.419   0.781
 2008SOL    HW2 6033   3.724   3.352   0.911
 2009SOL     OW 6034   2.083   3.176   1.844
 2009SOL    HW1 6035   2.018   3.103   1.823
 2009SOL    HW2 6036   2.087   3.190   1.942
 2010SOL     OW 6037   1.941   3.102   0.653
 2010SOL    HW1 6038   1.940   3.055   0.741
 2010SOL    HW2 6039   2.023   3.074   0.602
 2011SOL     OW 6040   2.534   3.253   1.624
 2011SOL    HW1 6041   2.456   3.203   1.662
 2011SOL    HW2 6042   2.531   3.348   1.655
 2012SOL     OW 6043   3.686   2.054   1.227
 2012SOL    HW1 6044   3.682   1.964   1.271
 2012SOL    HW2 6045   3.689   2.043   1.128
 2013SOL     OW 6046   2.290   2.286   0.520
 2013SOL    HW1 6047   2.320   2.214   0.458
 2013SOL    HW2 6048   2.251   2.246   0.603
 2014SOL     OW 6049   3.567   3.349   1.104
 2014SOL    HW1 6050   3.474   3.324   1.077
 2014SOL    HW2 6051   3.593   3.299   1.186
 2015SOL     OW 6052   2.179   2.409   1.280
 2015SOL    HW1 6053   2.217   2.350   1.352
 2015SOL    HW2 6054   2.219   2.383   1.192
 2016SOL     OW 6055   2.674   3.448   0.687
 2016SOL    HW1 6056   2.706   3.458   0.593
 2016SOL    HW2 6057   2.595   3.386   0.689
 2017SOL     OW 6058   3.286   2.076   1.112
 2017SOL    HW1 6059   3.338   2.011   1.167
 2017SOL    HW2 6060   3.237   2.139   1.173
 2018SOL     OW 6061   2.863   1.896   1.154
 2018SOL    HW1 6062   2.800   1.824   1.123
 2018SOL    HW2 6063   2.956   1.860   1.154
 2019SOL     OW 6064   2.632   3.192   0.301
 2019SOL    HW1 6065   2.586   3.105   0.318
 2019SOL    HW2 6066   2.723   3.189   0.342
 2020SOL     OW 6067   2.480   3.429   1.284
 2020SOL    HW1 6068   2.475   3.511   1.341
 2020SOL    HW2 6069   2.569   3.426   1.239
 2021SOL     OW 6070   3.214   1.914   0.168
 2021SOL    HW1 6071   3.249   1.873   0.084
 2021SOL    HW2 6072   3.124   1.876   0.188
 2022SOL     OW 6073   3.162   2.315   0.691
 2022SOL    HW1 6074   3.103   2.395   0.695
 2022SOL    HW2 6075   3.177   2.280   0.784
 2023SOL     OW 6076   3.455   2.083   0.882
 2023SOL    HW1 6077   3.371   2.082   0.936
 2023SOL    HW2 6078   3.457   2.166   0.826
 2024SOL     OW 6079   1.901   2.939   0.300
 2024SOL    HW1 6080   2.000   2.928   0.291
 2024SOL    HW2 6081   1.861   2.853   0.332
 2025SOL     OW 6082   2.737   3.508   0.337
 2025SOL    HW1 6083   2.660   3.473   0.283
 2025SOL    HW2 6084   2.705   3.579   0.399
 2026SOL     OW 6085   2.092   2.490   1.975
 2026SOL    HW1 6086   1.999   2.488   2.012
 2026SOL    HW2 6087   2.093   2.451   1.883
 2027SOL     OW 6088   2.087   2.137   2.858
 2027SOL    HW1 6089   2.122   2.120   2.950
 2027SOL    HW2 6090   1.999   2.092   2.846
 2028SOL     OW 6091   1.881   2.230   2.509
 2028SOL    HW1 6092   1.799   2.273   2.548
 2028SOL    HW2 6093   1.853   2.157   2.446
 2029SOL     OW 6094   2.431   3.137   3.027
 2029SOL    HW1 6095   2.338   3.130   2.990
 2029SOL    HW2 6096   2.442   3.226   3.071
 2030SOL     OW 6097   3.417   3.373   2.565
 2030SOL    HW1 6098   3.360   3.357   2.646
 2030SOL    HW2 6099   3.358   3.383   2.485
 2031SOL     OW 6100   2.997   2.565   2.579
 2031SOL    HW1 6101   3.054   2.643   2.554
 2031SOL    HW2 6102   2.937   2.591   2.655
 2032SOL     OW 6103   3.617   2.469   2.093
 2032SOL    HW1 6104   3.605   2.456   1.994
 2032SOL    HW2 6105   3.587   2.388   2.142
 2033SOL     OW 6106   2.630   3.006   2.885
 2033SOL    HW1 6107   2.552   3.023   2.945
 2033SOL    HW2 6108   2.664   3.093   2.849
 2034SOL     OW 6109   2.712   2.660   3.685
 2034SOL    HW1 6110   2.708   2.736   3.750
 2034SOL    HW2 6111   2.734   2.696   3.594
 2035SOL     OW 6112   2.547   2.874   2.527
 2035SOL    HW1 6113   2.616   2.858   2.597
 2035SOL    HW2 6114   2.474   2.931   2.565
 2036SOL     OW 6115   2.548   3.023   3.665
 2036SOL    HW1 6116   2.608   3.102   3.679
 2036SOL    HW2 6117   2.462   3.054   3.624
 2037SOL     OW 6118   2.197   3.297   2.923
 2037SOL    HW1 6119   2.119   3.266   2.870
 2037SOL    HW2 6120   2.255   3.355   2.866
 2038SOL     OW 6121   3.322   3.367   3.201
 2038SOL    HW1 6122   3.346   3.461   3.227
 2038SOL    HW2 6123   3.306   3.313   3.283
 2039SOL     OW 6124   2.300   2.254   3.361
 2039SOL    HW1 6125   2.382   2.198   3.370
 2039SOL    HW2 6126   2.219   2.196   3.365
 2040SOL     OW 6127   3.465   2.309   2.599
 2040SOL    HW1 6128   3.391   2.355   2.549
 2040SOL    HW2 6129   3.516   2.377   2.652
 2041SOL     OW 6130   2.093   3.575   2.345
 2041SOL    HW1 6131   2.127   3.652   2.399
 2041SOL    HW2 6132   2.137   3.575   2.255
 2042SOL     OW 6133   2.989   3.203   3.552
 2042SOL    HW1 6134   3.036   3.203   3.640
 2042SOL    HW2 6135   2.941   3.116   3.541
 2043SOL     OW 6136   2.092   3.296   2.400
 2043SOL    HW1 6137   2.066   3.392   2.400
 2043SOL    HW2 6138   2.021   3.242   2.445
 2044SOL     OW 6139   2.102   2.953   2.748
 2044SOL    HW1 6140   2.116   2.869   2.800
 2044SOL    HW2 6141   2.047   3.017   2.803
 2045SOL     OW 6142   2.482   3.648   3.301
 2045SOL    HW1 6143   2.390   3.631   3.336
 2045SOL    HW2 6144   2.510   3.740   3.327
 2046SOL     OW 6145   2.468   2.826   1.985
 2046SOL    HW1 6146   2.475   2.910   1.931
 2046SOL    HW2 6147   2.514   2.839   2.073
 2047SOL     OW 6148   3.456   1.976   3.342
 2047SOL    HW1 6149   3.438   2.043   3.270
 2047SOL    HW2 6150   3.453   2.022   3.431
 2048SOL     OW 6151   1.984   2.505   2.425
 2048SOL    HW1 6152   1.939   2.417   2.442
 2048SOL    HW2 6153   1.983   2.559   2.509
 2049SOL     OW 6154   3.704   3.629   2.221
 2049SOL    HW1 6155   3.758   3.600   2.301
 2049SOL    HW2 6156   3.734   3.719   2.192
 2050SOL     OW 6157   1.889   3.458   1.979
 2050SOL    HW1 6158   1.870   3.362   2.000
 2050SOL    HW2 6159   1.856   3.516   2.054
 2051SOL     OW 6160   3.551   2.784   2.474
 2051SOL    HW1 6161   3.646   2.755   2.482
 2051SOL    HW2 6162   3.543   2.849   2.399
 2052SOL     OW 6163   3.503   2.970   2.294
 2052SOL    HW1 6164   3.589   2.972   2.242
 2052SOL    HW2 6165   3.517   3.017   2.382
 2053SOL     OW 6166   1.975   2.599   3.459
 2053SOL    HW1 6167   2.063   2.586   3.504
 2053SOL    HW2 6168   1.962   2.696   3.437
 2054SOL     OW 6169   2.475   3.227   2.588
 2054SOL    HW1 6170   2.426   3.140   2.597
 2054SOL    HW2 6171   2.452   3.270   2.501
 2055SOL     OW 6172   3.155   3.090   3.285
 2055SOL    HW1 6173   3.192   3.017   3.227
 2055SOL    HW2 6174   3.207   3.095   3.370
 2056SOL     OW 6175   2.671   1.866   2.364
 2056SOL    HW1 6176   2.711   1.957   2.355
 2056SOL    HW2 6177   2.571   1.874   2.370
 2057SOL     OW 6178   2.059   2.838   3.126
 2057SOL    HW1 6179   2.148   2.793   3.112
 2057SOL    HW2 6180   1.986   2.773   3.107
 2058SOL     OW 6181   3.387   2.861   2.052
 2058SOL    HW1 6182   3.324   2.785   2.065
 2058SOL    HW2 6183   3.435   2.879   2.138
 2059SOL     OW 6184   3.049   3.654   3.478
 2059SOL    HW1 6185   3.073   3.714   3.402
 2059SOL    HW2 6186   3.056   3.559   3.448
 2060SOL     OW 6187   2.179   2.113   3.663
 2060SOL    HW1 6188   2.250   2.184   3.669
 2060SOL    HW2 6189   2.091   2.152   3.691
 2061SOL     OW 6190   3.328   3.279   2.815
 2061SOL    HW1 6191   3.269   3.285   2.895
 2061SOL    HW2 6192   3.313   3.191   2.769
 2062SOL     OW 6193   3.529   3.576   2.434
 2062SOL    HW1 6194   3.488   3.553   2.346
 2062SOL    HW2 6195   3.511   3.502   2.499
 2063SOL     OW 6196   2.460   2.591   2.132
 2063SOL    HW1 6197   2.484   2.660   2.064
 2063SOL    HW2 6198   2.382   2.624   2.186
 2064SOL     OW 6199   3.143   2.207   2.806
 2064SOL    HW1 6200   3.057   2.157   2.793
 2064SOL    HW2 6201   3.205   2.153   2.862
 2065SOL     OW 6202   3.438   3.524   2.169
 2065SOL    HW1 6203   3.527   3.570   2.172
 2065SOL    HW2 6204   3.417   3.500   2.074
 2066SOL     OW 6205   2.669   2.467   3.327
 2066SOL    HW1 6206   2.622   2.464   3.416
 2066SOL    HW2 6207   2.618   2.412   3.261
 2067SOL     OW 6208   3.256   2.331   3.536
 2067SOL    HW1 6209   3.236   2.374   3.624
 2067SOL    HW2 6210   3.334   2.269   3.545
 2068SOL     OW 6211   2.835   2.752   3.434
 2068SOL    HW1 6212   2.881   2.668   3.405
 2068SOL    HW2 6213   2.779   2.786   3.359
 2069SOL     OW 6214   2.853   2.272   3.104
 2069SOL    HW1 6215   2.776   2.306   3.158
 2069SOL    HW2 6216   2.819   2.221   3.025
 2070SOL     OW 6217   2.903   2.563   2.291
 2070SOL    HW1 6218   2.929   2.559   2.387
 2070SOL    HW2 6219   2.818   2.512   2.277
 2071SOL     OW 6220   1.938   2.673   2.651
 2071SOL    HW1 6221   2.037   2.661   2.660
 2071SOL    HW2 6222   1.914   2.768   2.672
 2072SOL     OW 6223   1.992   3.683   3.433
 2072SOL    HW1 6224   1.982   3.668   3.532
 2072SOL    HW2 6225   1.906   3.719   3.397
 2073SOL     OW 6226   2.727   2.210   2.057
 2073SOL    HW1 6227   2.786   2.273   2.008
 2073SOL    HW2 6228   2.746   2.116   2.028
 2074SOL     OW 6229   3.581   2.447   3.693
 2074SOL    HW1 6230   3.555   2.536   3.657
 2074SOL    HW2 6231   3.579   2.379   3.620
 2075SOL     OW 6232   3.224   3.006   2.407
 2075SOL    HW1 6233   3.307   2.977   2.359
 2075SOL    HW2 6234   3.175   3.073   2.351
 2076SOL     OW 6235   2.412   2.058   2.747
 2076SOL    HW1 6236   2.407   2.053   2.847
 2076SOL    HW2 6237   2.414   2.154   2.718
 2077SOL     OW 6238   2.870   3.318   2.339
 2077SOL    HW1 6239   2.824   3.390   2.287
 2077SOL    HW2 6240   2.866   3.338   2.437
 2078SOL     OW 6241   2.213   3.663   2.715
 2078SOL    HW1 6242   2.263   3.577   2.721
 2078SOL    HW2 6243   2.278   3.740   2.712
 2079SOL     OW 6244   3.657   2.928   2.735
 2079SOL    HW1 6245   3.595   2.913   2.659
 2079SOL    HW2 6246   3.605   2.939   2.820
 2080SOL     OW 6247   3.089   3.412   3.368
 2080SOL    HW1 6248   3.095   3.335   3.432
 2080SOL    HW2 6249   3.037   3.386   3.288
 2081SOL     OW 6250   2.183   2.805   2.104
 2081SOL    HW1 6251   2.265   2.844   2.062
 2081SOL    HW2 6252   2.156   2.723   2.055
 2082SOL     OW 6253   3.320   2.597   2.590
 2082SOL    HW1 6254   3.315   2.532   2.665
 2082SOL    HW2 6255   3.400   2.656   2.603
 2083SOL     OW 6256   2.323   3.128   3.589
 2083SOL    HW1 6257   2.273   3.129   3.503
 2083SOL    HW2 6258   2.260   3.110   3.665
 2084SOL     OW 6259   2.973   3.638   2.099
 2084SOL    HW1 6260   2.913   3.576   2.149
 2084SOL    HW2 6261   3.004   3.594   2.014
 2085SOL     OW 6262   2.064   2.147   3.360
 2085SOL    HW1 6263   1.984   2.207   3.347
 2085SOL    HW2 6264   2.054   2.098   3.446
 2086SOL     OW 6265   3.494   3.239   1.943
 2086SOL    HW1 6266   3.462   3.333   1.933
 2086SOL    HW2 6267   3.418   3.176   1.931
 2087SOL     OW 6268   2.326   3.605   2.185
 2087SOL    HW1 6269   2.359   3.644   2.271
 2087SOL    HW2 6270   2.402   3.598   2.120
 2088SOL     OW 6271   3.262   1.969   2.288
 2088SOL    HW1 6272   3.238   1.932   2.198
 2088SOL    HW2 6273   3.361   1.985   2.292
 2089SOL     OW 6274   2.111   3.647   3.103
 2089SOL    HW1 6275   2.168   3.582   3.153
 2089SOL    HW2 6276   2.095   3.614   3.010
 2090SOL     OW 6277   2.802   3.560   2.766
 2090SOL    HW1 6278   2.882   3.503   2.787
 2090SOL    HW2 6279   2.753   3.520   2.689
 2091SOL     OW 6280   3.409   2.084   3.591
 2091SOL    HW1 6281   3.404   2.121   3.683
 2091SOL    HW2 6282   3.337   2.015   3.579
 2092SOL     OW 6283   2.476   1.984   1.979
 2092SOL    HW1 6284   2.574   1.962   1.986
 2092SOL    HW2 6285   2.445   1.967   1.886
 2093SOL     OW 6286   2.643   2.126   3.611
 2093SOL    HW1 6287   2.710   2.065   3.654
 2093SOL    HW2 6288   2.570   2.145   3.676
 2094SOL     OW 6289   2.750   3.376   3.057
 2094SOL    HW1 6290   2.727   3.351   2.963
 2094SOL    HW2 6291   2.811   3.307   3.096
 2095SOL     OW 6292   3.213   2.452   3.295
 2095SOL    HW1 6293   3.241   2.409   3.380
 2095SOL    HW2 6294   3.238   2.548   3.296
 2096SOL     OW 6295   2.665   3.264   2.786
 2096SOL    HW1 6296   2.755   3.278   2.744
 2096SOL    HW2 6297   2.594   3.266   2.715
 2097SOL     OW 6298   2.784   2.365   2.761
 2097SOL    HW1 6299   2.759   2.356   2.665
 2097SOL    HW2 6300   2.832   2.283   2.792
 2098SOL     OW 6301   2.401   1.926   2.374
 2098SOL    HW1 6302   2.320   1.927   2.432
 2098SOL    HW2 6303   2.404   2.009   2.319
 2099SOL     OW 6304   3.296   3.050   1.903
 2099SOL    HW1 6305   3.328   2.974   1.960
 2099SOL    HW2 6306   3.204   3.077   1.933
 2100SOL     OW 6307   2.159   1.897   2.033
 2100SOL    HW1 6308   2.208   1.981   2.012
 2100SOL    HW2 6309   2.221   1.832   2.078
 2101SOL     OW 6310   2.797   2.098   2.342
 2101SOL    HW1 6311   2.749   2.139   2.264
 2101SOL    HW2 6312   2.896   2.096   2.323
 2102SOL     OW 6313   2.938   2.545   3.326
 2102SOL    HW1 6314   2.858   2.484   3.329
 2102SOL    HW2 6315   3.019   2.492   3.302
 2103SOL     OW 6316   3.089   3.432   2.655
 2103SOL    HW1 6317   3.110   3.506   2.590
 2103SOL    HW2 6318   3.157   3.432   2.728
 2104SOL     OW 6319   2.321   3.014   2.603
 2104SOL    HW1 6320   2.250   2.987   2.668
 2104SOL    HW2 6321   2.295   2.986   2.510
 2105SOL     OW 6322   3.133   3.659   2.453
 2105SOL    HW1 6323   3.177   3.723   2.389
 2105SOL    HW2 6324   3.083   3.711   2.523
 2106SOL     OW 6325   2.894   2.411   1.878
 2106SOL    HW1 6326   2.853   2.493   1.839
 2106SOL    HW2 6327   2.958   2.437   1.951
 2107SOL     OW 6328   1.940   2.418   3.248
 2107SOL    HW1 6329   2.032   2.417   3.207
 2107SOL    HW2 6330   1.934   2.492   3.315
 2108SOL     OW 6331   2.423   2.084   3.009
 2108SOL    HW1 6332   2.461   2.000   3.046
 2108SOL    HW2 6333   2.335   2.103   3.053
 2109SOL     OW 6334   2.728   2.316   2.504
 2109SOL    HW1 6335   2.696   2.388   2.442
 2109SOL    HW2 6336   2.752   2.235   2.451
 2110SOL     OW 6337   2.879   1.901   2.615
 2110SOL    HW1 6338   2.807   1.906   2.546
 2110SOL    HW2 6339   2.855   1.832   2.684
 2111SOL     OW 6340   3.291   3.035   2.729
 2111SOL    HW1 6341   3.236   2.951   2.722
 2111SOL    HW2 6342   3.317   3.064   2.637
 2112SOL     OW 6343   3.328   2.452   2.854
 2112SOL    HW1 6344   3.298   2.357   2.861
 2112SOL    HW2 6345   3.401   2.468   2.920
 2113SOL     OW 6346   3.719   2.695   2.239
 2113SOL    HW1 6347   3.761   2.631   2.303
 2113SOL    HW2 6348   3.681   2.644   2.161
 2114SOL     OW 6349   2.350   3.247   2.036
 2114SOL    HW1 6350   2.263   3.232   2.083
 2114SOL    HW2 6351   2.333   3.273   1.941
 2115SOL     OW 6352   3.526   3.142   2.519
 2115SOL    HW1 6353   3.625   3.150   2.533
 2115SOL    HW2 6354   3.481   3.226   2.550
 2116SOL     OW 6355   3.252   2.437   1.940
 2116SOL    HW1 6356   3.198   2.416   2.021
 2116SOL    HW2 6357   3.343   2.396   1.949
 2117SOL     OW 6358   3.616   3.085   3.450
 2117SOL    HW1 6359   3.707   3.046   3.437
 2117SOL    HW2 6360   3.624   3.181   3.474
 2118SOL     OW 6361   2.926   3.209   3.202
 2118SOL    HW1 6362   2.846   3.186   3.257
 2118SOL    HW2 6363   3.009   3.183   3.251
 2119SOL     OW 6364   3.454   3.491   3.487
 2119SOL    HW1 6365   3.481   3.525   3.397
 2119SOL    HW2 6366   3.533   3.453   3.533
 2120SOL     OW 6367   2.973   3.057   2.962
 2120SOL    HW1 6368   2.933   3.101   3.043
 2120SOL    HW2 6369   2.932   3.094   2.879
 2121SOL     OW 6370   3.500   2.961   2.941
 2121SOL    HW1 6371   3.505   3.042   3.000
 2121SOL    HW2 6372   3.414   2.963   2.890
 2122SOL     OW 6373   2.777   1.951   3.264
 2122SOL    HW1 6374   2.802   1.931   3.169
 2122SOL    HW2 6375   2.849   2.007   3.306
 2123SOL     OW 6376   2.842   2.978   3.581
 2123SOL    HW1 6377   2.743   2.984   3.591
 2123SOL    HW2 6378   2.865   2.898   3.525
 2124SOL     OW 6379   2.567   2.912   2.230
 2124SOL    HW1 6380   2.553   2.919   2.329
 2124SOL    HW2 6381   2.651   2.861   2.212
 2125SOL     OW 6382   2.272   2.675   3.113
 2125SOL    HW1 6383   2.358   2.687   3.163
 2125SOL    HW2 6384   2.230   2.588   3.140
 2126SOL     OW 6385   3.136   2.248   3.124
 2126SOL    HW1 6386   3.157   2.322   3.188
 2126SOL    HW2 6387   3.047   2.265   3.081
 2127SOL     OW 6388   1.926   3.426   3.193
 2127SOL    HW1 6389   1.880   3.508   3.159
 2127SOL    HW2 6390   2.024   3.445   3.202
 2128SOL     OW 6391   2.229   2.962   2.363
 2128SOL    HW1 6392   2.222   3.045   2.307
 2128SOL    HW2 6393   2.233   2.882   2.303
 2129SOL     OW 6394   2.428   2.399   2.727
 2129SOL    HW1 6395   2.440   2.465   2.653
 2129SOL    HW2 6396   2.474   2.433   2.810
 2130SOL     OW 6397   3.114   3.210   2.250
 2130SOL    HW1 6398   3.164   3.287   2.290
 2130SOL    HW2 6399   3.019   3.212   2.282
 2131SOL     OW 6400   3.134   3.307   3.004
 2131SOL    HW1 6401   3.181   3.320   3.091
 2131SOL    HW2 6402   3.068   3.233   3.013
 2132SOL     OW 6403   3.444   2.501   2.334
 2132SOL    HW1 6404   3.413   2.562   2.407
 2132SOL    HW2 6405   3.494   2.553   2.265
 2133SOL     OW 6406   2.216   3.372   3.191
 2133SOL    HW1 6407   2.195   3.328   3.104
 2133SOL    HW2 6408   2.313   3.398   3.194
 2134SOL     OW 6409   2.264   2.613   3.460
 2134SOL    HW1 6410   2.332   2.668   3.413
 2134SOL    HW2 6411   2.304   2.525   3.487
 2135SOL     OW 6412   3.449   2.641   3.532
 2135SOL    HW1 6413   3.357   2.679   3.527
 2135SOL    HW2 6414   3.509   2.688   3.467
 2136SOL     OW 6415   2.875   1.967   3.632
 2136SOL    HW1 6416   2.881   2.052   3.580
 2136SOL    HW2 6417   2.907   1.891   3.575
 2137SOL     OW 6418   2.366   1.912   3.602
 2137SOL    HW1 6419   2.324   1.855   3.532
 2137SOL    HW2 6420   2.300   1.981   3.634
 2138SOL     OW 6421   2.435   2.732   2.891
 2138SOL    HW1 6422   2.479   2.821   2.882
 2138SOL    HW2 6423   2.372   2.732   2.968
 2139SOL     OW 6424   3.222   2.724   2.907
 2139SOL    HW1 6425   3.147   2.724   2.841
 2139SOL    HW2 6426   3.259   2.632   2.916
 2140SOL     OW 6427   3.071   2.387   2.137
 2140SOL    HW1 6428   3.084   2.303   2.191
 2140SOL    HW2 6429   3.042   2.461   2.197
 2141SOL     OW 6430   2.169   2.075   3.093
 2141SOL    HW1 6431   2.146   2.112   3.183
 2141SOL    HW2 6432   2.139   1.980   3.087
 2142SOL     OW 6433   1.899   3.172   3.144
 2142SOL    HW1 6434   1.952   3.123   3.212
 2142SOL    HW2 6435   1.921   3.270   3.149
 2143SOL     OW 6436   2.594   2.496   2.926
 2143SOL    HW1 6437   2.653   2.470   2.850
 2143SOL    HW2 6438   2.566   2.592   2.915
 2144SOL     OW 6439   3.590   2.797   3.716
 2144SOL    HW1 6440   3.544   2.790   3.627
 2144SOL    HW2 6441   3.528   2.841   3.782
 2145SOL     OW 6442   2.169   1.925   2.480
 2145SOL    HW1 6443   2.158   2.019   2.513
 2145SOL    HW2 6444   2.164   1.862   2.557
 2146SOL     OW 6445   3.484   2.229   2.236
 2146SOL    HW1 6446   3.486   2.153   2.300
 2146SOL    HW2 6447   3.436   2.306   2.276
 2147SOL     OW 6448   2.885   2.628   2.828
 2147SOL    HW1 6449   2.900   2.649   2.924
 2147SOL    HW2 6450   2.855   2.533   2.819
 2148SOL     OW 6451   2.842   3.435   3.562
 2148SOL    HW1 6452   2.822   3.479   3.474
 2148SOL    HW2 6453   2.881   3.344   3.546
 2149SOL     OW 6454   3.721   3.380   3.467
 2149SOL    HW1 6455   3.735   3.407   3.372
 2149SOL    HW2 6456   3.804   3.402   3.520
 2150SOL     OW 6457   2.212   2.760   3.666
 2150SOL    HW1 6458   2.288   2.804   3.714
 2150SOL    HW2 6459   2.247   2.713   3.584
 2151SOL     OW 6460   3.402   2.136   1.987
 2151SOL    HW1 6461   3.341   2.061   2.010
 2151SOL    HW2 6462   3.424   2.188   2.070
 2152SOL     OW 6463   3.165   2.700   1.904
 2152SOL    HW1 6464   3.199   2.607   1.919
 2152SOL    HW2 6465   3.183   2.727   1.809
 2153SOL     OW 6466   2.930   3.195   2.711
 2153SOL    HW1 6467   2.937   3.111   2.656
 2153SOL    HW2 6468   2.992   3.264   2.675
 2154SOL     OW 6469   2.181   2.672   2.811
 2154SOL    HW1 6470   2.274   2.708   2.816
 2154SOL    HW2 6471   2.175   2.587   2.863
 2155SOL     OW 6472   2.201   2.371   2.868
 2155SOL    HW1 6473   2.149   2.288   2.851
 2155SOL    HW2 6474   2.278   2.376   2.804
 2156SOL     OW 6475   3.000   2.242   3.540
 2156SOL    HW1 6476   2.955   2.305   3.604
 2156SOL    HW2 6477   3.093   2.273   3.523
 2157SOL     OW 6478   3.022   2.069   3.339
 2157SOL    HW1 6479   3.022   2.133   3.416
 2157SOL    HW2 6480   3.050   2.117   3.256
 2158SOL     OW 6481   1.870   3.188   2.062
 2158SOL    HW1 6482   1.777   3.209   2.031
 2158SOL    HW2 6483   1.880   3.089   2.075
 2159SOL     OW 6484   1.950   3.663   2.789
 2159SOL    HW1 6485   1.908   3.577   2.762
 2159SOL    HW2 6486   2.044   3.666   2.755
 2160SOL     OW 6487   2.366   3.430   2.772
 2160SOL    HW1 6488   2.432   3.504   2.781
 2160SOL    HW2 6489   2.410   3.351   2.730
 2161SOL     OW 6490   2.864   2.658   3.100
 2161SOL    HW1 6491   2.905   2.626   3.186
 2161SOL    HW2 6492   2.768   2.631   3.097
 2162SOL     OW 6493   1.902   2.406   2.976
 2162SOL    HW1 6494   1.987   2.373   2.935
 2162SOL    HW2 6495   1.915   2.421   3.074
 2163SOL     OW 6496   2.051   2.382   3.584
 2163SOL    HW1 6497   2.110   2.342   3.514
 2163SOL    HW2 6498   1.993   2.453   3.543
 2164SOL     OW 6499   3.231   2.812   3.522
 2164SOL    HW1 6500   3.270   2.901   3.542
 2164SOL    HW2 6501   3.241   2.792   3.425
 2165SOL     OW 6502   2.677   2.434   2.187
 2165SOL    HW1 6503   2.684   2.345   2.141
 2165SOL    HW2 6504   2.583   2.468   2.179
 2166SOL     OW 6505   3.519   2.466   3.068
 2166SOL    HW1 6506   3.481   2.397   3.130
 2166SOL    HW2 6507   3.601   2.430   3.024
 2167SOL     OW 6508   2.114   3.426   3.606
 2167SOL    HW1 6509   2.084   3.483   3.682
 2167SOL    HW2 6510   2.107   3.329   3.632
 2168SOL     OW 6511   2.533   2.326   3.131
 2168SOL    HW1 6512   2.499   2.237   3.101
 2168SOL    HW2 6513   2.559   2.380   3.051
 2169SOL     OW 6514   2.792   3.540   3.327
 2169SOL    HW1 6515   2.768   3.522   3.232
 2169SOL    HW2 6516   2.822   3.634   3.337
 2170SOL     OW 6517   2.021   2.999   3.328
 2170SOL    HW1 6518   2.043   2.938   3.404
 2170SOL    HW2 6519   2.031   2.950   3.242
 2171SOL     OW 6520   3.209   2.921   3.096
 2171SOL    HW1 6521   3.233   2.858   3.022
 2171SOL    HW2 6522   3.119   2.961   3.078
 2172SOL     OW 6523   3.164   2.717   2.171
 2172SOL    HW1 6524   3.078   2.686   2.213
 2172SOL    HW2 6525   3.160   2.703   2.072
 2173SOL     OW 6526   3.621   3.609   3.016
 2173SOL    HW1 6527   3.682   3.639   2.943
 2173SOL    HW2 6528   3.583   3.520   2.994
 2174SOL     OW 6529   3.114   3.593   2.990
 2174SOL    HW1 6530   3.198   3.598   2.936
 2174SOL    HW2 6531   3.091   3.497   3.008
 2175SOL     OW 6532   1.945   3.120   2.884
 2175SOL    HW1 6533   1.940   3.119   2.984
 2175SOL    HW2 6534   1.862   3.079   2.846
 2176SOL     OW 6535   2.550   3.524   3.578
 2176SOL    HW1 6536   2.494   3.605   3.587
 2176SOL    HW2 6537   2.602   3.528   3.492
 2177SOL     OW 6538   3.588   1.997   2.385
 2177SOL    HW1 6539   3.661   1.980   2.318
 2177SOL    HW2 6540   3.557   1.910   2.423
 2178SOL     OW 6541   3.250   3.435   2.339
 2178SOL    HW1 6542   3.317   3.447   2.265
 2178SOL    HW2 6543   3.210   3.524   2.362
 2179SOL     OW 6544   1.992   3.656   3.713
 2179SOL    HW1 6545   1.951   3.582   3.766
 2179SOL    HW2 6546   2.056   3.707   3.771
 2180SOL     OW 6547   3.142   2.789   2.534
 2180SOL    HW1 6548   3.202   2.708   2.536
 2180SOL    HW2 6549   3.182   2.858   2.474
 2181SOL     OW 6550   2.692   3.135   3.284
 2181SOL    HW1 6551   2.687   3.168   3.379
 2181SOL    HW2 6552   2.606   3.154   3.238
 2182SOL     OW 6553   2.534   3.478   2.016
 2182SOL    HW1 6554   2.543   3.488   1.917
 2182SOL    HW2 6555   2.494   3.389   2.037
 2183SOL     OW 6556   3.512   3.582   3.256
 2183SOL    HW1 6557   3.565   3.592   3.172
 2183SOL    HW2 6558   3.485   3.672   3.290
 2184SOL     OW 6559   3.703   2.037   2.825
 2184SOL    HW1 6560   3.742   1.952   2.789
 2184SOL    HW2 6561   3.605   2.039   2.806
 2185SOL     OW 6562   3.056   3.474   1.893
 2185SOL    HW1 6563   3.062   3.381   1.930
 2185SOL    HW2 6564   2.997   3.474   1.813
 2186SOL     OW 6565   2.684   2.864   3.234
 2186SOL    HW1 6566   2.724   2.863   3.142
 2186SOL    HW2 6567   2.694   2.956   3.274
 2187SOL     OW 6568   2.778   2.772   2.153
 2187SOL    HW1 6569   2.841   2.810   2.085
 2187SOL    HW2 6570   2.818   2.689   2.192
 2188SOL     OW 6571   3.366   3.469   1.906
 2188SOL    HW1 6572   3.274   3.506   1.913
 2188SOL    HW2 6573   3.404   3.489   1.816
 2189SOL     OW 6574   2.234   3.150   3.352
 2189SOL    HW1 6575   2.221   3.243   3.318
 2189SOL    HW2 6576   2.150   3.098   3.339
 2190SOL     OW 6577   3.476   3.154   3.151
 2190SOL    HW1 6578   3.536   3.157   3.231
 2190SOL    HW2 6579   3.401   3.218   3.164
 2191SOL     OW 6580   2.901   2.960   2.558
 2191SOL    HW1 6581   2.831   2.913   2.612
 2191SOL    HW2 6582   2.960   2.892   2.515
 2192SOL     OW 6583   2.876   2.098   2.833
 2192SOL    HW1 6584   2.868   2.062   2.740
 2192SOL    HW2 6585   2.874   2.022   2.898
 2193SOL     OW 6586   2.452   3.349   2.353
 2193SOL    HW1 6587   2.494   3.291   2.283
 2193SOL    HW2 6588   2.408   3.428   2.309
 2194SOL     OW 6589   3.571   2.247   3.243
 2194SOL    HW1 6590   3.644   2.316   3.247
 2194SOL    HW2 6591   3.599   2.172   3.184
 2195SOL     OW 6592   2.117   3.210   2.152
 2195SOL    HW1 6593   2.021   3.211   2.125
 2195SOL    HW2 6594   2.129   3.263   2.236
 2196SOL     OW 6595   1.967   2.875   3.588
 2196SOL    HW1 6596   1.890   2.842   3.642
 2196SOL    HW2 6597   2.052   2.845   3.630
 2197SOL     OW 6598   2.534   2.065   3.351
 2197SOL    HW1 6599   2.624   2.049   3.311
 2197SOL    HW2 6600   2.542   2.070   3.450
 2198SOL     OW 6601   1.937   2.207   1.895
 2198SOL    HW1 6602   1.845   2.179   1.866
 2198SOL    HW2 6603   1.968   2.284   1.839
 2199SOL     OW 6604   3.302   2.718   3.260
 2199SOL    HW1 6605   3.245   2.770   3.197
 2199SOL    HW2 6606   3.398   2.730   3.236
 2200SOL     OW 6607   1.934   2.028   2.180
 2200SOL    HW1 6608   1.917   2.111   2.126
 2200SOL    HW2 6609   2.024   1.991   2.158
 2201SOL     OW 6610   3.045   3.197   1.981
 2201SOL    HW1 6611   2.946   3.186   1.983
 2201SOL    HW2 6612   3.079   3.212   2.074
 2202SOL     OW 6613   2.475   2.704   3.293
 2202SOL    HW1 6614   2.531   2.785   3.276
 2202SOL    HW2 6615   2.534   2.624   3.296
 2203SOL     OW 6616   3.355   3.629   2.821
 2203SOL    HW1 6617   3.388   3.693   2.752
 2203SOL    HW2 6618   3.421   3.623   2.896
 2204SOL     OW 6619   2.578   2.427   3.570
 2204SOL    HW1 6620   2.597   2.492   3.644
 2204SOL    HW2 6621   2.638   2.347   3.579
 2205SOL     OW 6622   3.312   3.082   3.495
 2205SOL    HW1 6623   3.303   3.072   3.594
 2205SOL    HW2 6624   3.408   3.075   3.469
 2206SOL     OW 6625   2.252   3.603   3.422
 2206SOL    HW1 6626   2.161   3.644   3.420
 2206SOL    HW2 6627   2.245   3.509   3.454
 2207SOL     OW 6628   3.536   2.745   3.116
 2207SOL    HW1 6629   3.509   2.656   3.079
 2207SOL    HW2 6630   3.537   2.813   3.043
 2208SOL     OW 6631   3.087   2.187   2.311
 2208SOL    HW1 6632   3.152   2.113   2.300
 2208SOL    HW2 6633   3.107   2.237   2.395
 2209SOL     OW 6634   2.456   2.607   2.514
 2209SOL    HW1 6635   2.506   2.692   2.495
 2209SOL    HW2 6636   2.368   2.609   2.466
 2210SOL     OW 6637   3.639   2.204   3.504
 2210SOL    HW1 6638   3.622   2.235   3.410
 2210SOL    HW2 6639   3.555   2.167   3.542
 2211SOL     OW 6640   3.592   2.796   3.379
 2211SOL    HW1 6641   3.630   2.887   3.394
 2211SOL    HW2 6642   3.584   2.779   3.280
 2212SOL     OW 6643   2.721   3.236   1.878
 2212SOL    HW1 6644   2.675   3.251   1.966
 2212SOL    HW2 6645   2.765   3.321   1.848
 2213SOL     OW 6646   2.523   3.652   2.815
 2213SOL    HW1 6647   2.477   3.740   2.802
 2213SOL    HW2 6648   2.622   3.664   2.808
 2214SOL     OW 6649   2.721   2.818   2.723
 2214SOL    HW1 6650   2.775   2.749   2.771
 2214SOL    HW2 6651   2.689   2.887   2.789
 2215SOL     OW 6652   2.945   2.846   1.949
 2215SOL    HW1 6653   2.922   2.899   1.867
 2215SOL    HW2 6654   3.026   2.790   1.930
 2216SOL     OW 6655   3.723   3.431   2.713
 2216SOL    HW1 6656   3.652   3.419   2.643
 2216SOL    HW2 6657   3.724   3.352   2.773
 2217SOL     OW 6658   2.083   3.176   3.706
 2217SOL    HW1 6659   2.018   3.103   3.685
 2217SOL    HW2 6660   2.087   3.190   3.804
 2218SOL     OW 6661   1.941   3.102   2.515
 2218SOL    HW1 6662   1.940   3.055   2.603
 2218SOL    HW2 6663   2.023   3.074   2.464
 2219SOL     OW 6664   2.534   3.253   3.486
 2219SOL    HW1 6665   2.456   3.203   3.524
 2219SOL    HW2 6666   2.531   3.348   3.517
 2220SOL     OW 6667   3.686   2.054   3.089
 2220SOL    HW1 6668   3.682   1.964   3.133
 2220SOL    HW2 6669   3.689   2.043   2.990
 2221SOL     OW 6670   3.567   3.349   2.966
 2221SOL    HW1 6671   3.474   3.324   2.939
 2221SOL    HW2 6672   3.593   3.299   3.048
 2222SOL     OW 6673   2.179   2.409   3.142
 2222SOL    HW1 6674   2.217   2.350   3.214
 2222SOL    HW2 6675   2.219   2.383   3.054
 2223SOL     OW 6676   2.674   3.448   2.549
 2223SOL    HW1 6677   2.706   3.458   2.455
 2223SOL    HW2 6678   2.595   3.386   2.551
 2224SOL     OW 6679   3.286   2.076   2.974
 2224SOL    HW1 6680   3.338   2.011   3.029
 2224SOL    HW2 6681   3.237   2.139   3.035
 2225SOL     OW 6682   2.863   1.896   3.016
 2225SOL    HW1 6683   2.800   1.824   2.985
 2225SOL    HW2 6684   2.956   1.860   3.016
 2226SOL     OW 6685   2.632   3.192   2.163
 2226SOL    HW1 6686   2.586   3.105   2.180
 2226SOL    HW2 6687   2.723   3.189   2.204
 2227SOL     OW 6688   2.480   3.429   3.146
 2227SOL    HW1 6689   2.475   3.511   3.203
 2227SOL    HW2 6690   2.569   3.426   3.101
 2228SOL     OW 6691   3.214   1.914   2.030
 2228SOL    HW1 6692   3.249   1.873   1.946
 2228SOL    HW2 6693   3.124   1.876   2.050
 2229SOL     OW 6694   3.162   2.315   2.553
 2229SOL    HW1 6695   3.103   2.395   2.557
 2229SOL    HW2 6696   3.177   2.280   2.646
 2230SOL     OW 6697   3.455   2.083   2.744
 2230SOL    HW1 6698   3.371   2.082   2.798
 2230SOL    HW2 6699   3.457   2.166   2.688
 2231SOL     OW 6700   1.901   2.939   2.162
 2231SOL    HW1 6701   2.000   2.928   2.153
 2231SOL    HW2 6702   1.861   2.853   2.194
 2232SOL     OW 6703   2.737   3.508   2.199
 2232SOL    HW1 6704   2.660   3.473   2.145
 2232SOL    HW2 6705   2.705   3.579   2.261
 2233SOL     OW 6706   2.092   2.490   3.837
 2233SOL    HW1 6707   1.999   2.488   3.874
 2233SOL    HW2 6708   2.093   2.451   3.745
 2234SOL     OW 6709   1.881   2.230   4.371
 2234SOL    HW1 6710   1.799   2.273   4.410
 2234SOL    HW2 6711   1.853   2.157   4.308
 2235SOL     OW 6712   3.417   3.373   4.427
 2235SOL    HW1 6713   3.360   3.357   4.508
 2235SOL    HW2 6714   3.358   3.383   4.347
 2236SOL     OW 6715   2.997   2.565   4.441
 2236SOL    HW1 6716   3.054   2.643   4.416
 2236SOL    HW2 6717   2.937   2.591   4.517
 2237SOL     OW 6718   3.617   2.469   3.955
 2237SOL    HW1 6719   3.605   2.456   3.856
 2237SOL    HW2 6720   3.587   2.388   4.004
 2238SOL     OW 6721   2.630   3.006   4.747
 2238SOL    HW1 6722   2.552   3.023   4.807
 2238SOL    HW2 6723   2.664   3.093   4.711
 2239SOL     OW 6724   2.547   2.874   4.389
 2239SOL    HW1 6725   2.616   2.858   4.459
 2239SOL    HW2 6726   2.474   2.931   4.427
 2240SOL     OW 6727   3.465   2.309   4.461
 2240SOL    HW1 6728   3.391   2.355   4.411
 2240SOL    HW2 6729   3.516   2.377   4.514
 2241SOL     OW 6730   2.093   3.575   4.207
 2241SOL    HW1 6731   2.127   3.652   4.261
 2241SOL    HW2 6732   2.137   3.575   4.117
 2242SOL     OW 6733   2.092   3.296   4.262
 2242SOL    HW1 6734   2.066   3.392   4.262
 2242SOL    HW2 6735   2.021   3.242   4.307
 2243SOL     OW 6736   2.102   2.953   4.610
 2243SOL    HW1 6737   2.116   2.869   4.662
 2243SOL    HW2 6738   2.047   3.017   4.665
 2244SOL     OW 6739   2.468   2.826   3.847
 2244SOL    HW1 6740   2.475   2.910   3.793
 2244SOL    HW2 6741   2.514   2.839   3.935
 2245SOL     OW 6742   1.984   2.505   4.287
 2245SOL    HW1 6743   1.939   2.417   4.304
 2245SOL    HW2 6744   1.983   2.559   4.371
 2246SOL     OW 6745   3.704   3.629   4.083
 2246SOL    HW1 6746   3.758   3.600   4.163
 2246SOL    HW2 6747   3.734   3.719   4.054
 2247SOL     OW 6748   1.889   3.458   3.841
 2247SOL    HW1 6749   1.870   3.362   3.862
 2247SOL    HW2 6750   1.856   3.516   3.916
 2248SOL     OW 6751   3.551   2.784   4.336
 2248SOL    HW1 6752   3.646   2.755   4.344
 2248SOL    HW2 6753   3.543   2.849   4.261
 2249SOL     OW 6754   3.503   2.970   4.156
 2249SOL    HW1 6755   3.589   2.972   4.104
 2249SOL    HW2 6756   3.517   3.017   4.244
 2250SOL     OW 6757   2.475   3.227   4.450
 2250SOL    HW1 6758   2.426   3.140   4.459
 2250SOL    HW2 6759   2.452   3.270   4.363
 2251SOL     OW 6760   2.671   1.866   4.226
 2251SOL    HW1 6761   2.711   1.957   4.217
 2251SOL    HW2 6762   2.571   1.874   4.232
 2252SOL     OW 6763   3.387   2.861   3.914
 2252SOL    HW1 6764   3.324   2.785   3.927
 2252SOL    HW2 6765   3.435   2.879   4.000
 2253SOL     OW 6766   3.529   3.576   4.296
 2253SOL    HW1 6767   3.488   3.553   4.208
 2253SOL    HW2 6768   3.511   3.502   4.361
 2254SOL     OW 6769   2.460   2.591   3.994
 2254SOL    HW1 6770   2.484   2.660   3.926
 2254SOL    HW2 6771   2.382   2.624   4.048
 2255SOL     OW 6772   3.143   2.207   4.668
 2255SOL    HW1 6773   3.057   2.157   4.655
 2255SOL    HW2 6774   3.205   2.153   4.724
 2256SOL     OW 6775   3.438   3.524   4.031
 2256SOL    HW1 6776   3.527   3.570   4.034
 2256SOL    HW2 6777   3.417   3.500   3.936
 2257SOL     OW 6778   2.903   2.563   4.153
 2257SOL    HW1 6779   2.929   2.559   4.249
 2257SOL    HW2 6780   2.818   2.512   4.139
 2258SOL     OW 6781   1.938   2.673   4.513
 2258SOL    HW1 6782   2.037   2.661   4.522
 2258SOL    HW2 6783   1.914   2.768   4.534
 2259SOL     OW 6784   2.727   2.210   3.919
 2259SOL    HW1 6785   2.786   2.273   3.870
 2259SOL    HW2 6786   2.746   2.116   3.890
 2260SOL     OW 6787   3.224   3.006   4.269
 2260SOL    HW1 6788   3.307   2.977   4.221
 2260SOL    HW2 6789   3.175   3.073   4.213
 2261SOL     OW 6790   2.412   2.058   4.609
 2261SOL    HW1 6791   2.407   2.053   4.709
 2261SOL    HW2 6792   2.414   2.154   4.580
 2262SOL     OW 6793   2.870   3.318   4.201
 2262SOL    HW1 6794   2.824   3.390   4.149
 2262SOL    HW2 6795   2.866   3.338   4.299
 2263SOL     OW 6796   2.213   3.663   4.577
 2263SOL    HW1 6797   2.263   3.577   4.583
 2263SOL    HW2 6798   2.278   3.740   4.574
 2264SOL     OW 6799   3.657   2.928   4.597
 2264SOL    HW1 6800   3.595   2.913   4.521
 2264SOL    HW2 6801   3.605   2.939   4.682
 2265SOL     OW 6802   2.183   2.805   3.966
 2265SOL    HW1 6803   2.265   2.844   3.924
 2265SOL    HW2 6804   2.156   2.723   3.917
 2266SOL     OW 6805   3.320   2.597   4.452
 2266SOL    HW1 6806   3.315   2.532   4.527
 2266SOL    HW2 6807   3.400   2.656   4.465
 2267SOL     OW 6808   2.973   3.638   3.961
 2267SOL    HW1 6809   2.913   3.576   4.011
 2267SOL    HW2 6810   3.004   3.594   3.876
 2268SOL     OW 6811   3.494   3.239   3.805
 2268SOL    HW1 6812   3.462   3.333   3.795
 2268SOL    HW2 6813   3.418   3.176   3.793
 2269SOL     OW 6814   2.326   3.605   4.047
 2269SOL    HW1 6815   2.359   3.644   4.133
 2269SOL    HW2 6816   2.402   3.598   3.982
 2270SOL     OW 6817   3.262   1.969   4.150
 2270SOL    HW1 6818   3.238   1.932   4.060
 2270SOL    HW2 6819   3.361   1.985   4.154
 2271SOL     OW 6820   2.802   3.560   4.628
 2271SOL    HW1 6821   2.882   3.503   4.649
 2271SOL    HW2 6822   2.753   3.520   4.551
 2272SOL     OW 6823   2.244   2.562   4.204
 2272SOL    HW1 6824   2.289   2.472   4.201
 2272SOL    HW2 6825   2.150   2.551   4.237
 2273SOL     OW 6826   2.476   1.984   3.841
 2273SOL    HW1 6827   2.574   1.962   3.848
 2273SOL    HW2 6828   2.445   1.967   3.748
 2274SOL     OW 6829   2.401   1.926   4.236
 2274SOL    HW1 6830   2.320   1.927   4.294
 2274SOL    HW2 6831   2.404   2.009   4.181
 2275SOL     OW 6832   3.296   3.050   3.765
 2275SOL    HW1 6833   3.328   2.974   3.822
 2275SOL    HW2 6834   3.204   3.077   3.795
 2276SOL     OW 6835   2.159   1.897   3.895
 2276SOL    HW1 6836   2.208   1.981   3.874
 2276SOL    HW2 6837   2.221   1.832   3.940
 2277SOL     OW 6838   2.797   2.098   4.204
 2277SOL    HW1 6839   2.749   2.139   4.126
 2277SOL    HW2 6840   2.896   2.096   4.185
 2278SOL     OW 6841   2.321   3.014   4.465
 2278SOL    HW1 6842   2.250   2.987   4.530
 2278SOL    HW2 6843   2.295   2.986   4.372
 2279SOL     OW 6844   3.133   3.659   4.315
 2279SOL    HW1 6845   3.177   3.723   4.251
 2279SOL    HW2 6846   3.083   3.711   4.385
 2280SOL     OW 6847   2.894   2.411   3.740
 2280SOL    HW1 6848   2.853   2.493   3.701
 2280SOL    HW2 6849   2.958   2.437   3.813
 2281SOL     OW 6850   2.728   2.316   4.366
 2281SOL    HW1 6851   2.696   2.388   4.304
 2281SOL    HW2 6852   2.752   2.235   4.313
 2282SOL     OW 6853   2.879   1.901   4.477
 2282SOL    HW1 6854   2.807   1.906   4.408
 2282SOL    HW2 6855   2.855   1.832   4.546
 2283SOL     OW 6856   3.719   2.695   4.101
 2283SOL    HW1 6857   3.761   2.631   4.165
 2283SOL    HW2 6858   3.681   2.644   4.023
 2284SOL     OW 6859   2.350   3.247   3.898
 2284SOL    HW1 6860   2.263   3.232   3.945
 2284SOL    HW2 6861   2.333   3.273   3.803
 2285SOL     OW 6862   3.526   3.142   4.381
 2285SOL    HW1 6863   3.625   3.150   4.395
 2285SOL    HW2 6864   3.481   3.226   4.412
 2286SOL     OW 6865   3.252   2.437   3.802
 2286SOL    HW1 6866   3.198   2.416   3.883
 2286SOL    HW2 6867   3.343   2.396   3.811
 2287SOL     OW 6868   2.389   2.118   4.052
 2287SOL    HW1 6869   2.416   2.059   3.977
 2287SOL    HW2 6870   2.389   2.213   4.021
 2288SOL     OW 6871   2.567   2.912   4.092
 2288SOL    HW1 6872   2.553   2.919   4.191
 2288SOL    HW2 6873   2.651   2.861   4.074
 2289SOL     OW 6874   2.229   2.962   4.225
 2289SOL    HW1 6875   2.222   3.045   4.169
 2289SOL    HW2 6876   2.233   2.882   4.165
 2290SOL     OW 6877   2.428   2.399   4.589
 2290SOL    HW1 6878   2.440   2.465   4.515
 2290SOL    HW2 6879   2.474   2.433   4.672
 2291SOL     OW 6880   3.114   3.210   4.112
 2291SOL    HW1 6881   3.164   3.287   4.152
 2291SOL    HW2 6882   3.019   3.212   4.144
 2292SOL     OW 6883   3.444   2.501   4.196
 2292SOL    HW1 6884   3.413   2.562   4.269
 2292SOL    HW2 6885   3.494   2.553   4.127
 2293SOL     OW 6886   3.071   2.387   3.999
 2293SOL    HW1 6887   3.084   2.303   4.053
 2293SOL    HW2 6888   3.042   2.461   4.059
 2294SOL     OW 6889   2.169   1.925   4.342
 2294SOL    HW1 6890   2.158   2.019   4.375
 2294SOL    HW2 6891   2.164   1.862   4.419
 2295SOL     OW 6892   3.484   2.229   4.098
 2295SOL    HW1 6893   3.486   2.153   4.162
 2295SOL    HW2 6894   3.436   2.306   4.138
 2296SOL     OW 6895   3.402   2.136   3.849
 2296SOL    HW1 6896   3.341   2.061   3.872
 2296SOL    HW2 6897   3.424   2.188   3.932
 2297SOL     OW 6898   3.165   2.700   3.766
 2297SOL    HW1 6899   3.199   2.607   3.781
 2297SOL    HW2 6900   3.183   2.727   3.671
 2298SOL     OW 6901   1.870   3.188   3.924
 2298SOL    HW1 6902   1.777   3.209   3.893
 2298SOL    HW2 6903   1.880   3.089   3.937
 2299SOL     OW 6904   2.677   2.434   4.049
 2299SOL    HW1 6905   2.684   2.345   4.003
 2299SOL    HW2 6906   2.583   2.468   4.041
 2300SOL     OW 6907   2.335   2.362   3.915
 2300SOL    HW1 6908   2.396   2.442   3.919
 2300SOL    HW2 6909   2.240   2.393   3.922
 2301SOL     OW 6910   3.164   2.717   4.033
 2301SOL    HW1 6911   3.078   2.686   4.075
 2301SOL    HW2 6912   3.160   2.703   3.934
 2302SOL     OW 6913   3.588   1.997   4.247
 2302SOL    HW1 6914   3.661   1.980   4.180
 2302SOL    HW2 6915   3.557   1.910   4.285
 2303SOL     OW 6916   3.250   3.435   4.201
 2303SOL    HW1 6917   3.317   3.447   4.127
 2303SOL    HW2 6918   3.210   3.524   4.224
 2304SOL     OW 6919   3.142   2.789   4.396
 2304SOL    HW1 6920   3.202   2.708   4.398
 2304SOL    HW2 6921   3.182   2.858   4.336
 2305SOL     OW 6922   2.534   3.478   3.878
 2305SOL    HW1 6923   2.543   3.488   3.779
 2305SOL    HW2 6924   2.494   3.389   3.899
 2306SOL     OW 6925   3.703   2.037   4.687
 2306SOL    HW1 6926   3.742   1.952   4.651
 2306SOL    HW2 6927   3.605   2.039   4.668
 2307SOL     OW 6928   2.125   2.188   4.444
 2307SOL    HW1 6929   2.046   2.239   4.410
 2307SOL    HW2 6930   2.116   2.173   4.542
 2308SOL     OW 6931   3.056   3.474   3.755
 2308SOL    HW1 6932   3.062   3.381   3.792
 2308SOL    HW2 6933   2.997   3.474   3.675
 2309SOL     OW 6934   2.778   2.772   4.015
 2309SOL    HW1 6935   2.841   2.810   3.947
 2309SOL    HW2 6936   2.818   2.689   4.054
 2310SOL     OW 6937   3.366   3.469   3.768
 2310SOL    HW1 6938   3.274   3.506   3.775
 2310SOL    HW2 6939   3.404   3.489   3.678
 2311SOL     OW 6940   2.901   2.960   4.420
 2311SOL    HW1 6941   2.831   2.913   4.474
 2311SOL    HW2 6942   2.960   2.892   4.377
 2312SOL     OW 6943   2.452   3.349   4.215
 2312SOL    HW1 6944   2.494   3.291   4.145
 2312SOL    HW2 6945   2.408   3.428   4.171
 2313SOL     OW 6946   2.117   3.210   4.014
 2313SOL    HW1 6947   2.021   3.211   3.987
 2313SOL    HW2 6948   2.129   3.263   4.098
 2314SOL     OW 6949   1.937   2.207   3.757
 2314SOL    HW1 6950   1.845   2.179   3.728
 2314SOL    HW2 6951   1.968   2.284   3.701
 2315SOL     OW 6952   1.934   2.028   4.042
 2315SOL    HW1 6953   1.917   2.111   3.988
 2315SOL    HW2 6954   2.024   1.991   4.020
 2316SOL     OW 6955   3.045   3.197   3.843
 2316SOL    HW1 6956   2.946   3.186   3.845
 2316SOL    HW2 6957   3.079   3.212   3.936
 2317SOL     OW 6958   3.087   2.187   4.173
 2317SOL    HW1 6959   3.152   2.113   4.162
 2317SOL    HW2 6960   3.107   2.237   4.257
 2318SOL     OW 6961   2.456   2.607   4.376
 2318SOL    HW1 6962   2.506   2.692   4.357
 2318SOL    HW2 6963   2.368   2.609   4.328
 2319SOL     OW 6964   2.721   3.236   3.740
 2319SOL    HW1 6965   2.675   3.251   3.828
 2319SOL    HW2 6966   2.765   3.321   3.710
 2320SOL     OW 6967   2.523   3.652   4.677
 2320SOL    HW1 6968   2.477   3.740   4.664
 2320SOL    HW2 6969   2.622   3.664   4.670
 2321SOL     OW 6970   2.721   2.818   4.585
 2321SOL    HW1 6971   2.775   2.749   4.633
 2321SOL    HW2 6972   2.689   2.887   4.651
 2322SOL     OW 6973   2.945   2.846   3.811
 2322SOL    HW1 6974   2.922   2.899   3.729
 2322SOL    HW2 6975   3.026   2.790   3.792
 2323SOL     OW 6976   1.941   3.102   4.377
 2323SOL    HW1 6977   1.940   3.055   4.465
 2323SOL    HW2 6978   2.023   3.074   4.326
 2324SOL     OW 6979   2.290   2.286   4.244
 2324SOL    HW1 6980   2.320   2.214   4.182
 2324SOL    HW2 6981   2.251   2.246   4.327
 2325SOL     OW 6982   2.674   3.448   4.411
 2325SOL    HW1 6983   2.706   3.458   4.317
 2325SOL    HW2 6984   2.595   3.386   4.413
 2326SOL     OW 6985   2.632   3.192   4.025
 2326SOL    HW1 6986   2.586   3.105   4.042
 2326SOL    HW2 6987   2.723   3.189   4.066
 2327SOL     OW 6988   3.214   1.914   3.892
 2327SOL    HW1 6989   3.249   1.873   3.808
 2327SOL    HW2 6990   3.124   1.876   3.912
 2328SOL     OW 6991   3.162   2.315   4.415
 2328SOL    HW1 6992   3.103   2.395   4.419
 2328SOL    HW2 6993   3.177   2.280   4.508
 2329SOL     OW 6994   1.901   2.939   4.024
 2329SOL    HW1 6995   2.000   2.928   4.015
 2329SOL    HW2 6996   1.861   2.853   4.056
 2330SOL     OW 6997   2.737   3.508   4.061
 2330SOL    HW1 6998   2.660   3.473   4.007
 2330SOL    HW2 6999   2.705   3.579   4.123
 2331SOL     OW 7000   2.092   4.352   0.113
 2331SOL    HW1 7001   1.999   4.350   0.150
 2331SOL    HW2 7002   2.093   4.313   0.021
 2332SOL     OW 7003   2.087   3.999   0.996
 2332SOL    HW1 7004   2.122   3.982   1.088
 2332SOL    HW2 7005   1.999   3.954   0.984
 2333SOL     OW 7006   1.881   4.092   0.647
 2333SOL    HW1 7007   1.799   4.135   0.686
 2333SOL    HW2 7008   1.853   4.019   0.584
 2334SOL     OW 7009   2.997   4.427   0.717
 2334SOL    HW1 7010   3.054   4.505   0.692
 2334SOL    HW2 7011   2.937   4.453   0.793
 2335SOL     OW 7012   3.617   4.331   0.231
 2335SOL    HW1 7013   3.605   4.318   0.132
 2335SOL    HW2 7014   3.587   4.250   0.280
 2336SOL     OW 7015   2.712   4.522   1.823
 2336SOL    HW1 7016   2.708   4.598   1.888
 2336SOL    HW2 7017   2.734   4.558   1.732
 2337SOL     OW 7018   2.547   4.736   0.665
 2337SOL    HW1 7019   2.616   4.720   0.735
 2337SOL    HW2 7020   2.474   4.793   0.703
 2338SOL     OW 7021   2.300   4.116   1.499
 2338SOL    HW1 7022   2.382   4.060   1.508
 2338SOL    HW2 7023   2.219   4.058   1.503
 2339SOL     OW 7024   3.465   4.171   0.737
 2339SOL    HW1 7025   3.391   4.217   0.687
 2339SOL    HW2 7026   3.516   4.239   0.790
 2340SOL     OW 7027   3.456   3.838   1.480
 2340SOL    HW1 7028   3.438   3.905   1.408
 2340SOL    HW2 7029   3.453   3.884   1.569
 2341SOL     OW 7030   1.984   4.367   0.563
 2341SOL    HW1 7031   1.939   4.279   0.580
 2341SOL    HW2 7032   1.983   4.421   0.647
 2342SOL     OW 7033   1.975   4.461   1.597
 2342SOL    HW1 7034   2.063   4.448   1.642
 2342SOL    HW2 7035   1.962   4.558   1.575
 2343SOL     OW 7036   2.671   3.728   0.502
 2343SOL    HW1 7037   2.711   3.819   0.493
 2343SOL    HW2 7038   2.571   3.736   0.508
 2344SOL     OW 7039   2.179   3.975   1.801
 2344SOL    HW1 7040   2.250   4.046   1.807
 2344SOL    HW2 7041   2.091   4.014   1.829
 2345SOL     OW 7042   2.460   4.453   0.270
 2345SOL    HW1 7043   2.484   4.522   0.202
 2345SOL    HW2 7044   2.382   4.486   0.324
 2346SOL     OW 7045   3.143   4.069   0.944
 2346SOL    HW1 7046   3.057   4.019   0.931
 2346SOL    HW2 7047   3.205   4.015   1.000
 2347SOL     OW 7048   2.669   4.329   1.465
 2347SOL    HW1 7049   2.622   4.326   1.554
 2347SOL    HW2 7050   2.618   4.274   1.399
 2348SOL     OW 7051   3.256   4.193   1.674
 2348SOL    HW1 7052   3.236   4.236   1.762
 2348SOL    HW2 7053   3.334   4.131   1.683
 2349SOL     OW 7054   2.853   4.134   1.242
 2349SOL    HW1 7055   2.776   4.168   1.296
 2349SOL    HW2 7056   2.819   4.083   1.163
 2350SOL     OW 7057   2.903   4.425   0.429
 2350SOL    HW1 7058   2.929   4.421   0.525
 2350SOL    HW2 7059   2.818   4.374   0.415
 2351SOL     OW 7060   2.727   4.072   0.195
 2351SOL    HW1 7061   2.786   4.135   0.146
 2351SOL    HW2 7062   2.746   3.978   0.166
 2352SOL     OW 7063   3.581   4.309   1.831
 2352SOL    HW1 7064   3.555   4.398   1.795
 2352SOL    HW2 7065   3.579   4.241   1.758
 2353SOL     OW 7066   2.412   3.920   0.885
 2353SOL    HW1 7067   2.407   3.915   0.985
 2353SOL    HW2 7068   2.414   4.016   0.856
 2354SOL     OW 7069   3.320   4.459   0.728
 2354SOL    HW1 7070   3.315   4.394   0.803
 2354SOL    HW2 7071   3.400   4.518   0.741
 2355SOL     OW 7072   2.064   4.009   1.498
 2355SOL    HW1 7073   1.984   4.069   1.485
 2355SOL    HW2 7074   2.054   3.960   1.584
 2356SOL     OW 7075   3.262   3.831   0.426
 2356SOL    HW1 7076   3.238   3.794   0.336
 2356SOL    HW2 7077   3.361   3.847   0.430
 2357SOL     OW 7078   2.244   4.424   0.480
 2357SOL    HW1 7079   2.289   4.334   0.477
 2357SOL    HW2 7080   2.150   4.413   0.513
 2358SOL     OW 7081   3.409   3.946   1.729
 2358SOL    HW1 7082   3.404   3.983   1.821
 2358SOL    HW2 7083   3.337   3.877   1.717
 2359SOL     OW 7084   2.643   3.988   1.749
 2359SOL    HW1 7085   2.710   3.927   1.792
 2359SOL    HW2 7086   2.570   4.007   1.814
 2360SOL     OW 7087   3.213   4.314   1.433
 2360SOL    HW1 7088   3.241   4.271   1.518
 2360SOL    HW2 7089   3.238   4.410   1.434
 2361SOL     OW 7090   2.784   4.227   0.899
 2361SOL    HW1 7091   2.759   4.218   0.803
 2361SOL    HW2 7092   2.832   4.145   0.930
 2362SOL     OW 7093   2.401   3.788   0.512
 2362SOL    HW1 7094   2.320   3.789   0.570
 2362SOL    HW2 7095   2.404   3.871   0.457
 2363SOL     OW 7096   2.159   3.759   0.171
 2363SOL    HW1 7097   2.208   3.843   0.150
 2363SOL    HW2 7098   2.221   3.694   0.216
 2364SOL     OW 7099   2.797   3.960   0.480
 2364SOL    HW1 7100   2.749   4.001   0.402
 2364SOL    HW2 7101   2.896   3.958   0.461
 2365SOL     OW 7102   2.938   4.407   1.464
 2365SOL    HW1 7103   2.858   4.346   1.467
 2365SOL    HW2 7104   3.019   4.354   1.440
 2366SOL     OW 7105   2.894   4.273   0.016
 2366SOL    HW1 7106   2.853   4.355  -0.023
 2366SOL    HW2 7107   2.958   4.299   0.089
 2367SOL     OW 7108   1.940   4.280   1.386
 2367SOL    HW1 7109   2.032   4.279   1.345
 2367SOL    HW2 7110   1.934   4.354   1.453
 2368SOL     OW 7111   2.423   3.946   1.147
 2368SOL    HW1 7112   2.461   3.862   1.184
 2368SOL    HW2 7113   2.335   3.965   1.191
 2369SOL     OW 7114   2.728   4.178   0.642
 2369SOL    HW1 7115   2.696   4.250   0.580
 2369SOL    HW2 7116   2.752   4.097   0.589
 2370SOL     OW 7117   2.879   3.763   0.753
 2370SOL    HW1 7118   2.807   3.768   0.684
 2370SOL    HW2 7119   2.855   3.694   0.822
 2371SOL     OW 7120   3.328   4.314   0.992
 2371SOL    HW1 7121   3.298   4.219   0.999
 2371SOL    HW2 7122   3.401   4.330   1.058
 2372SOL     OW 7123   3.719   4.557   0.377
 2372SOL    HW1 7124   3.761   4.493   0.441
 2372SOL    HW2 7125   3.681   4.506   0.299
 2373SOL     OW 7126   3.252   4.299   0.078
 2373SOL    HW1 7127   3.198   4.278   0.159
 2373SOL    HW2 7128   3.343   4.258   0.087
 2374SOL     OW 7129   2.389   3.980   0.328
 2374SOL    HW1 7130   2.416   3.921   0.253
 2374SOL    HW2 7131   2.389   4.075   0.297
 2375SOL     OW 7132   2.777   3.813   1.402
 2375SOL    HW1 7133   2.802   3.793   1.307
 2375SOL    HW2 7134   2.849   3.869   1.444
 2376SOL     OW 7135   2.567   4.774   0.368
 2376SOL    HW1 7136   2.553   4.781   0.467
 2376SOL    HW2 7137   2.651   4.723   0.350
 2377SOL     OW 7138   2.272   4.537   1.251
 2377SOL    HW1 7139   2.358   4.549   1.301
 2377SOL    HW2 7140   2.230   4.450   1.278
 2378SOL     OW 7141   3.136   4.110   1.262
 2378SOL    HW1 7142   3.157   4.184   1.326
 2378SOL    HW2 7143   3.047   4.127   1.219
 2379SOL     OW 7144   2.428   4.261   0.865
 2379SOL    HW1 7145   2.440   4.327   0.791
 2379SOL    HW2 7146   2.474   4.295   0.948
 2380SOL     OW 7147   3.444   4.363   0.472
 2380SOL    HW1 7148   3.413   4.424   0.545
 2380SOL    HW2 7149   3.494   4.415   0.403
 2381SOL     OW 7150   3.449   4.503   1.670
 2381SOL    HW1 7151   3.357   4.541   1.665
 2381SOL    HW2 7152   3.509   4.550   1.605
 2382SOL     OW 7153   2.875   3.829   1.770
 2382SOL    HW1 7154   2.881   3.914   1.718
 2382SOL    HW2 7155   2.907   3.753   1.713
 2383SOL     OW 7156   2.366   3.774   1.740
 2383SOL    HW1 7157   2.324   3.717   1.670
 2383SOL    HW2 7158   2.300   3.843   1.772
 2384SOL     OW 7159   3.222   4.586   1.045
 2384SOL    HW1 7160   3.147   4.586   0.979
 2384SOL    HW2 7161   3.259   4.494   1.054
 2385SOL     OW 7162   3.071   4.249   0.275
 2385SOL    HW1 7163   3.084   4.165   0.329
 2385SOL    HW2 7164   3.042   4.323   0.335
 2386SOL     OW 7165   2.169   3.937   1.231
 2386SOL    HW1 7166   2.146   3.974   1.321
 2386SOL    HW2 7167   2.139   3.842   1.225
 2387SOL     OW 7168   2.594   4.358   1.064
 2387SOL    HW1 7169   2.653   4.332   0.988
 2387SOL    HW2 7170   2.566   4.454   1.053
 2388SOL     OW 7171   3.590   4.659   1.854
 2388SOL    HW1 7172   3.544   4.652   1.765
 2388SOL    HW2 7173   3.528   4.703   1.920
 2389SOL     OW 7174   2.169   3.787   0.618
 2389SOL    HW1 7175   2.158   3.881   0.651
 2389SOL    HW2 7176   2.164   3.724   0.695
 2390SOL     OW 7177   3.484   4.091   0.374
 2390SOL    HW1 7178   3.486   4.015   0.438
 2390SOL    HW2 7179   3.436   4.168   0.414
 2391SOL     OW 7180   3.402   3.998   0.125
 2391SOL    HW1 7181   3.341   3.923   0.148
 2391SOL    HW2 7182   3.424   4.050   0.208
 2392SOL     OW 7183   2.181   4.534   0.949
 2392SOL    HW1 7184   2.274   4.570   0.954
 2392SOL    HW2 7185   2.175   4.449   1.001
 2393SOL     OW 7186   2.201   4.233   1.006
 2393SOL    HW1 7187   2.149   4.150   0.989
 2393SOL    HW2 7188   2.278   4.238   0.942
 2394SOL     OW 7189   3.000   4.104   1.678
 2394SOL    HW1 7190   2.955   4.167   1.742
 2394SOL    HW2 7191   3.093   4.135   1.661
 2395SOL     OW 7192   3.022   3.931   1.477
 2395SOL    HW1 7193   3.022   3.995   1.554
 2395SOL    HW2 7194   3.050   3.979   1.394
 2396SOL     OW 7195   1.902   4.268   1.114
 2396SOL    HW1 7196   1.987   4.235   1.073
 2396SOL    HW2 7197   1.915   4.283   1.212
 2397SOL     OW 7198   2.051   4.244   1.722
 2397SOL    HW1 7199   2.110   4.204   1.652
 2397SOL    HW2 7200   1.993   4.315   1.681
 2398SOL     OW 7201   2.677   4.296   0.325
 2398SOL    HW1 7202   2.684   4.207   0.279
 2398SOL    HW2 7203   2.583   4.330   0.317
 2399SOL     OW 7204   3.519   4.328   1.206
 2399SOL    HW1 7205   3.481   4.259   1.268
 2399SOL    HW2 7206   3.601   4.292   1.162
 2400SOL     OW 7207   2.533   4.188   1.269
 2400SOL    HW1 7208   2.499   4.099   1.239
 2400SOL    HW2 7209   2.559   4.242   1.189
 2401SOL     OW 7210   2.335   4.224   0.191
 2401SOL    HW1 7211   2.396   4.304   0.195
 2401SOL    HW2 7212   2.240   4.255   0.198
 2402SOL     OW 7213   2.765   3.810   0.133
 2402SOL    HW1 7214   2.816   3.811   0.047
 2402SOL    HW2 7215   2.821   3.768   0.204
 2403SOL     OW 7216   3.588   3.859   0.523
 2403SOL    HW1 7217   3.661   3.842   0.456
 2403SOL    HW2 7218   3.557   3.772   0.561
 2404SOL     OW 7219   3.142   4.651   0.672
 2404SOL    HW1 7220   3.202   4.570   0.674
 2404SOL    HW2 7221   3.182   4.720   0.612
 2405SOL     OW 7222   3.703   3.899   0.963
 2405SOL    HW1 7223   3.742   3.814   0.927
 2405SOL    HW2 7224   3.605   3.901   0.944
 2406SOL     OW 7225   2.125   4.050   0.720
 2406SOL    HW1 7226   2.046   4.101   0.686
 2406SOL    HW2 7227   2.116   4.035   0.818
 2407SOL     OW 7228   2.876   3.960   0.971
 2407SOL    HW1 7229   2.868   3.924   0.878
 2407SOL    HW2 7230   2.874   3.884   1.036
 2408SOL     OW 7231   3.571   4.109   1.381
 2408SOL    HW1 7232   3.644   4.178   1.385
 2408SOL    HW2 7233   3.599   4.034   1.322
 2409SOL     OW 7234   1.967   4.737   1.726
 2409SOL    HW1 7235   1.890   4.704   1.780
 2409SOL    HW2 7236   2.052   4.707   1.768
 2410SOL     OW 7237   2.534   3.927   1.489
 2410SOL    HW1 7238   2.624   3.911   1.449
 2410SOL    HW2 7239   2.542   3.932   1.588
 2411SOL     OW 7240   1.937   4.069   0.033
 2411SOL    HW1 7241   1.845   4.041   0.004
 2411SOL    HW2 7242   1.968   4.146  -0.023
 2412SOL     OW 7243   3.302   4.580   1.398
 2412SOL    HW1 7244   3.245   4.632   1.335
 2412SOL    HW2 7245   3.398   4.592   1.374
 2413SOL     OW 7246   1.934   3.890   0.318
 2413SOL    HW1 7247   1.917   3.973   0.264
 2413SOL    HW2 7248   2.024   3.853   0.296
 2414SOL     OW 7249   2.475   4.566   1.431
 2414SOL    HW1 7250   2.531   4.647   1.414
 2414SOL    HW2 7251   2.534   4.486   1.434
 2415SOL     OW 7252   2.578   4.289   1.708
 2415SOL    HW1 7253   2.597   4.354   1.782
 2415SOL    HW2 7254   2.638   4.209   1.717
 2416SOL     OW 7255   3.536   4.607   1.254
 2416SOL    HW1 7256   3.509   4.518   1.217
 2416SOL    HW2 7257   3.537   4.675   1.181
 2417SOL     OW 7258   3.087   4.049   0.449
 2417SOL    HW1 7259   3.152   3.975   0.438
 2417SOL    HW2 7260   3.107   4.099   0.533
 2418SOL     OW 7261   2.456   4.469   0.652
 2418SOL    HW1 7262   2.506   4.554   0.633
 2418SOL    HW2 7263   2.368   4.471   0.604
 2419SOL     OW 7264   3.639   4.066   1.642
 2419SOL    HW1 7265   3.622   4.097   1.548
 2419SOL    HW2 7266   3.555   4.029   1.680
 2420SOL     OW 7267   3.686   3.916   1.227
 2420SOL    HW1 7268   3.682   3.826   1.271
 2420SOL    HW2 7269   3.689   3.905   1.128
 2421SOL     OW 7270   2.290   4.148   0.520
 2421SOL    HW1 7271   2.320   4.076   0.458
 2421SOL    HW2 7272   2.251   4.108   0.603
 2422SOL     OW 7273   2.179   4.271   1.280
 2422SOL    HW1 7274   2.217   4.212   1.352
 2422SOL    HW2 7275   2.219   4.245   1.192
 2423SOL     OW 7276   3.286   3.938   1.112
 2423SOL    HW1 7277   3.338   3.873   1.167
 2423SOL    HW2 7278   3.237   4.001   1.173
 2424SOL     OW 7279   2.863   3.758   1.154
 2424SOL    HW1 7280   2.800   3.686   1.123
 2424SOL    HW2 7281   2.956   3.722   1.154
 2425SOL     OW 7282   3.214   3.776   0.168
 2425SOL    HW1 7283   3.249   3.735   0.084
 2425SOL    HW2 7284   3.124   3.738   0.188
 2426SOL     OW 7285   3.162   4.177   0.691
 2426SOL    HW1 7286   3.103   4.257   0.695
 2426SOL    HW2 7287   3.177   4.142   0.784
 2427SOL     OW 7288   3.455   3.945   0.882
 2427SOL    HW1 7289   3.371   3.944   0.936
 2427SOL    HW2 7290   3.457   4.028   0.826
 2428SOL     OW 7291   2.092   4.352   1.975
 2428SOL    HW1 7292   1.999   4.350   2.012
 2428SOL    HW2 7293   2.093   4.313   1.883
 2429SOL     OW 7294   2.087   3.999   2.858
 2429SOL    HW1 7295   2.122   3.982   2.950
 2429SOL    HW2 7296   1.999   3.954   2.846
 2430SOL     OW 7297   1.881   4.092   2.509
 2430SOL    HW1 7298   1.799   4.135   2.548
 2430SOL    HW2 7299   1.853   4.019   2.446
 2431SOL     OW 7300   2.997   4.427   2.579
 2431SOL    HW1 7301   3.054   4.505   2.554
 2431SOL    HW2 7302   2.937   4.453   2.655
 2432SOL     OW 7303   3.617   4.331   2.093
 2432SOL    HW1 7304   3.605   4.318   1.994
 2432SOL    HW2 7305   3.587   4.250   2.142
 2433SOL     OW 7306   2.712   4.522   3.685
 2433SOL    HW1 7307   2.708   4.598   3.750
 2433SOL    HW2 7308   2.734   4.558   3.594
 2434SOL     OW 7309   2.547   4.736   2.527
 2434SOL    HW1 7310   2.616   4.720   2.597
 2434SOL    HW2 7311   2.474   4.793   2.565
 2435SOL     OW 7312   2.300   4.116   3.361
 2435SOL    HW1 7313   2.382   4.060   3.370
 2435SOL    HW2 7314   2.219   4.058   3.365
 2436SOL     OW 7315   3.465   4.171   2.599
 2436SOL    HW1 7316   3.391   4.217   2.549
 2436SOL    HW2 7317   3.516   4.239   2.652
 2437SOL     OW 7318   3.456   3.838   3.342
 2437SOL    HW1 7319   3.438   3.905   3.270
 2437SOL    HW2 7320   3.453   3.884   3.431
 2438SOL     OW 7321   1.984   4.367   2.425
 2438SOL    HW1 7322   1.939   4.279   2.442
 2438SOL    HW2 7323   1.983   4.421   2.509
 2439SOL     OW 7324   1.975   4.461   3.459
 2439SOL    HW1 7325   2.063   4.448   3.504
 2439SOL    HW2 7326   1.962   4.558   3.437
 2440SOL     OW 7327   2.671   3.728   2.364
 2440SOL    HW1 7328   2.711   3.819   2.355
 2440SOL    HW2 7329   2.571   3.736   2.370
 2441SOL     OW 7330   2.179   3.975   3.663
 2441SOL    HW1 7331   2.250   4.046   3.669
 2441SOL    HW2 7332   2.091   4.014   3.691
 2442SOL     OW 7333   2.460   4.453   2.132
 2442SOL    HW1 7334   2.484   4.522   2.064
 2442SOL    HW2 7335   2.382   4.486   2.186
 2443SOL     OW 7336   3.143   4.069   2.806
 2443SOL    HW1 7337   3.057   4.019   2.793
 2443SOL    HW2 7338   3.205   4.015   2.862
 2444SOL     OW 7339   2.669   4.329   3.327
 2444SOL    HW1 7340   2.622   4.326   3.416
 2444SOL    HW2 7341   2.618   4.274   3.261
 2445SOL     OW 7342   3.256   4.193   3.536
 2445SOL    HW1 7343   3.236   4.236   3.624
 2445SOL    HW2 7344   3.334   4.131   3.545
 2446SOL     OW 7345   2.853   4.134   3.104
 2446SOL    HW1 7346   2.776   4.168   3.158
 2446SOL    HW2 7347   2.819   4.083   3.025
 2447SOL     OW 7348   2.903   4.425   2.291
 2447SOL    HW1 7349   2.929   4.421   2.387
 2447SOL    HW2 7350   2.818   4.374   2.277
 2448SOL     OW 7351   2.727   4.072   2.057
 2448SOL    HW1 7352   2.786   4.135   2.008
 2448SOL    HW2 7353   2.746   3.978   2.028
 2449SOL     OW 7354   3.581   4.309   3.693
 2449SOL    HW1 7355   3.555   4.398   3.657
 2449SOL    HW2 7356   3.579   4.241   3.620
 2450SOL     OW 7357   2.412   3.920   2.747
 2450SOL    HW1 7358   2.407   3.915   2.847
 2450SOL    HW2 7359   2.414   4.016   2.718
 2451SOL     OW 7360   3.320   4.459   2.590
 2451SOL    HW1 7361   3.315   4.394   2.665
 2451SOL    HW2 7362   3.400   4.518   2.603
 2452SOL     OW 7363   2.064   4.009   3.360
 2452SOL    HW1 7364   1.984   4.069   3.347
 2452SOL    HW2 7365   2.054   3.960   3.446
 2453SOL     OW 7366   3.262   3.831   2.288
 2453SOL    HW1 7367   3.238   3.794   2.198
 2453SOL    HW2 7368   3.361   3.847   2.292
 2454SOL     OW 7369   2.244   4.424   2.342
 2454SOL    HW1 7370   2.289   4.334   2.339
 2454SOL    HW2 7371   2.150   4.413   2.375
 2455SOL     OW 7372   3.409   3.946   3.591
 2455SOL    HW1 7373   3.404   3.983   3.683
 2455SOL    HW2 7374   3.337   3.877   3.579
 2456SOL     OW 7375   2.476   3.846   1.979
 2456SOL    HW1 7376   2.574   3.824   1.986
 2456SOL    HW2 7377   2.445   3.829   1.886
 2457SOL     OW 7378   2.643   3.988   3.611
 2457SOL    HW1 7379   2.710   3.927   3.654
 2457SOL    HW2 7380   2.570   4.007   3.676
 2458SOL     OW 7381   3.213   4.314   3.295
 2458SOL    HW1 7382   3.241   4.271   3.380
 2458SOL    HW2 7383   3.238   4.410   3.296
 2459SOL     OW 7384   2.784   4.227   2.761
 2459SOL    HW1 7385   2.759   4.218   2.665
 2459SOL    HW2 7386   2.832   4.145   2.792
 2460SOL     OW 7387   2.401   3.788   2.374
 2460SOL    HW1 7388   2.320   3.789   2.432
 2460SOL    HW2 7389   2.404   3.871   2.319
 2461SOL     OW 7390   2.159   3.759   2.033
 2461SOL    HW1 7391   2.208   3.843   2.012
 2461SOL    HW2 7392   2.221   3.694   2.078
 2462SOL     OW 7393   2.797   3.960   2.342
 2462SOL    HW1 7394   2.749   4.001   2.264
 2462SOL    HW2 7395   2.896   3.958   2.323
 2463SOL     OW 7396   2.938   4.407   3.326
 2463SOL    HW1 7397   2.858   4.346   3.329
 2463SOL    HW2 7398   3.019   4.354   3.302
 2464SOL     OW 7399   2.894   4.273   1.878
 2464SOL    HW1 7400   2.853   4.355   1.839
 2464SOL    HW2 7401   2.958   4.299   1.951
 2465SOL     OW 7402   1.940   4.280   3.248
 2465SOL    HW1 7403   2.032   4.279   3.207
 2465SOL    HW2 7404   1.934   4.354   3.315
 2466SOL     OW 7405   2.423   3.946   3.009
 2466SOL    HW1 7406   2.461   3.862   3.046
 2466SOL    HW2 7407   2.335   3.965   3.053
 2467SOL     OW 7408   2.728   4.178   2.504
 2467SOL    HW1 7409   2.696   4.250   2.442
 2467SOL    HW2 7410   2.752   4.097   2.451
 2468SOL     OW 7411   2.879   3.763   2.615
 2468SOL    HW1 7412   2.807   3.768   2.546
 2468SOL    HW2 7413   2.855   3.694   2.684
 2469SOL     OW 7414   3.328   4.314   2.854
 2469SOL    HW1 7415   3.298   4.219   2.861
 2469SOL    HW2 7416   3.401   4.330   2.920
 2470SOL     OW 7417   3.719   4.557   2.239
 2470SOL    HW1 7418   3.761   4.493   2.303
 2470SOL    HW2 7419   3.681   4.506   2.161
 2471SOL     OW 7420   3.252   4.299   1.940
 2471SOL    HW1 7421   3.198   4.278   2.021
 2471SOL    HW2 7422   3.343   4.258   1.949
 2472SOL     OW 7423   2.389   3.980   2.190
 2472SOL    HW1 7424   2.416   3.921   2.115
 2472SOL    HW2 7425   2.389   4.075   2.159
 2473SOL     OW 7426   2.777   3.813   3.264
 2473SOL    HW1 7427   2.802   3.793   3.169
 2473SOL    HW2 7428   2.849   3.869   3.306
 2474SOL     OW 7429   2.567   4.774   2.230
 2474SOL    HW1 7430   2.553   4.781   2.329
 2474SOL    HW2 7431   2.651   4.723   2.212
 2475SOL     OW 7432   2.272   4.537   3.113
 2475SOL    HW1 7433   2.358   4.549   3.163
 2475SOL    HW2 7434   2.230   4.450   3.140
 2476SOL     OW 7435   3.136   4.110   3.124
 2476SOL    HW1 7436   3.157   4.184   3.188
 2476SOL    HW2 7437   3.047   4.127   3.081
 2477SOL     OW 7438   2.428   4.261   2.727
 2477SOL    HW1 7439   2.440   4.327   2.653
 2477SOL    HW2 7440   2.474   4.295   2.810
 2478SOL     OW 7441   3.444   4.363   2.334
 2478SOL    HW1 7442   3.413   4.424   2.407
 2478SOL    HW2 7443   3.494   4.415   2.265
 2479SOL     OW 7444   3.449   4.503   3.532
 2479SOL    HW1 7445   3.357   4.541   3.527
 2479SOL    HW2 7446   3.509   4.550   3.467
 2480SOL     OW 7447   2.875   3.829   3.632
 2480SOL    HW1 7448   2.881   3.914   3.580
 2480SOL    HW2 7449   2.907   3.753   3.575
 2481SOL     OW 7450   2.366   3.774   3.602
 2481SOL    HW1 7451   2.324   3.717   3.532
 2481SOL    HW2 7452   2.300   3.843   3.634
 2482SOL     OW 7453   3.222   4.586   2.907
 2482SOL    HW1 7454   3.147   4.586   2.841
 2482SOL    HW2 7455   3.259   4.494   2.916
 2483SOL     OW 7456   3.071   4.249   2.137
 2483SOL    HW1 7457   3.084   4.165   2.191
 2483SOL    HW2 7458   3.042   4.323   2.197
 2484SOL     OW 7459   2.169   3.937   3.093
 2484SOL    HW1 7460   2.146   3.974   3.183
 2484SOL    HW2 7461   2.139   3.842   3.087
 2485SOL     OW 7462   2.594   4.358   2.926
 2485SOL    HW1 7463   2.653   4.332   2.850
 2485SOL    HW2 7464   2.566   4.454   2.915
 2486SOL     OW 7465   3.590   4.659   3.716
 2486SOL    HW1 7466   3.544   4.652   3.627
 2486SOL    HW2 7467   3.528   4.703   3.782
 2487SOL     OW 7468   2.169   3.787   2.480
 2487SOL    HW1 7469   2.158   3.881   2.513
 2487SOL    HW2 7470   2.164   3.724   2.557
 2488SOL     OW 7471   3.484   4.091   2.236
 2488SOL    HW1 7472   3.486   4.015   2.300
 2488SOL    HW2 7473   3.436   4.168   2.276
 2489SOL     OW 7474   3.402   3.998   1.987
 2489SOL    HW1 7475   3.341   3.923   2.010
 2489SOL    HW2 7476   3.424   4.050   2.070
 2490SOL     OW 7477   2.181   4.534   2.811
 2490SOL    HW1 7478   2.274   4.570   2.816
 2490SOL    HW2 7479   2.175   4.449   2.863
 2491SOL     OW 7480   2.201   4.233   2.868
 2491SOL    HW1 7481   2.149   4.150   2.851
 2491SOL    HW2 7482   2.278   4.238   2.804
 2492SOL     OW 7483   3.000   4.104   3.540
 2492SOL    HW1 7484   2.955   4.167   3.604
 2492SOL    HW2 7485   3.093   4.135   3.523
 2493SOL     OW 7486   3.022   3.931   3.339
 2493SOL    HW1 7487   3.022   3.995   3.416
 2493SOL    HW2 7488   3.050   3.979   3.256
 2494SOL     OW 7489   1.902   4.268   2.976
 2494SOL    HW1 7490   1.987   4.235   2.935
 2494SOL    HW2 7491   1.915   4.283   3.074
 2495SOL     OW 7492   2.051   4.244   3.584
 2495SOL    HW1 7493   2.110   4.204   3.514
 2495SOL    HW2 7494   1.993   4.315   3.543
 2496SOL     OW 7495   2.677   4.296   2.187
 2496SOL    HW1 7496   2.684   4.207   2.141
 2496SOL    HW2 7497   2.583   4.330   2.179
 2497SOL     OW 7498   3.519   4.328   3.068
 2497SOL    HW1 7499   3.481   4.259   3.130
 2497SOL    HW2 7500   3.601   4.292   3.024
 2498SOL     OW 7501   2.533   4.188   3.131
 2498SOL    HW1 7502   2.499   4.099   3.101
 2498SOL    HW2 7503   2.559   4.242   3.051
 2499SOL     OW 7504   2.335   4.224   2.053
 2499SOL    HW1 7505   2.396   4.304   2.057
 2499SOL    HW2 7506   2.240   4.255   2.060
 2500SOL     OW 7507   3.588   3.859   2.385
 2500SOL    HW1 7508   3.661   3.842   2.318
 2500SOL    HW2 7509   3.557   3.772   2.423
 2501SOL     OW 7510   3.142   4.651   2.534
 2501SOL    HW1 7511   3.202   4.570   2.536
 2501SOL    HW2 7512   3.182   4.720   2.474
 2502SOL     OW 7513   3.703   3.899   2.825
 2502SOL    HW1 7514   3.742   3.814   2.789
 2502SOL    HW2 7515   3.605   3.901   2.806
 2503SOL     OW 7516   2.125   4.050   2.582
 2503SOL    HW1 7517   2.046   4.101   2.548
 2503SOL    HW2 7518   2.116   4.035   2.680
 2504SOL     OW 7519   2.778   4.634   2.153
 2504SOL    HW1 7520   2.841   4.672   2.085
 2504SOL    HW2 7521   2.818   4.551   2.192
 2505SOL     OW 7522   2.876   3.960   2.833
 2505SOL    HW1 7523   2.868   3.924   2.740
 2505SOL    HW2 7524   2.874   3.884   2.898
 2506SOL     OW 7525   3.571   4.109   3.243
 2506SOL    HW1 7526   3.644   4.178   3.247
 2506SOL    HW2 7527   3.599   4.034   3.184
 2507SOL     OW 7528   1.967   4.737   3.588
 2507SOL    HW1 7529   1.890   4.704   3.642
 2507SOL    HW2 7530   2.052   4.707   3.630
 2508SOL     OW 7531   2.534   3.927   3.351
 2508SOL    HW1 7532   2.624   3.911   3.311
 2508SOL    HW2 7533   2.542   3.932   3.450
 2509SOL     OW 7534   1.937   4.069   1.895
 2509SOL    HW1 7535   1.845   4.041   1.866
 2509SOL    HW2 7536   1.968   4.146   1.839
 2510SOL     OW 7537   3.302   4.580   3.260
 2510SOL    HW1 7538   3.245   4.632   3.197
 2510SOL    HW2 7539   3.398   4.592   3.236
 2511SOL     OW 7540   1.934   3.890   2.180
 2511SOL    HW1 7541   1.917   3.973   2.126
 2511SOL    HW2 7542   2.024   3.853   2.158
 2512SOL     OW 7543   2.475   4.566   3.293
 2512SOL    HW1 7544   2.531   4.647   3.276
 2512SOL    HW2 7545   2.534   4.486   3.296
 2513SOL     OW 7546   2.578   4.289   3.570
 2513SOL    HW1 7547   2.597   4.354   3.644
 2513SOL    HW2 7548   2.638   4.209   3.579
 2514SOL     OW 7549   3.536   4.607   3.116
 2514SOL    HW1 7550   3.509   4.518   3.079
 2514SOL    HW2 7551   3.537   4.675   3.043
 2515SOL     OW 7552   3.087   4.049   2.311
 2515SOL    HW1 7553   3.152   3.975   2.300
 2515SOL    HW2 7554   3.107   4.099   2.395
 2516SOL     OW 7555   2.456   4.469   2.514
 2516SOL    HW1 7556   2.506   4.554   2.495
 2516SOL    HW2 7557   2.368   4.471   2.466
 2517SOL     OW 7558   3.639   4.066   3.504
 2517SOL    HW1 7559   3.622   4.097   3.410
 2517SOL    HW2 7560   3.555   4.029   3.542
 2518SOL     OW 7561   3.686   3.916   3.089
 2518SOL    HW1 7562   3.682   3.826   3.133
 2518SOL    HW2 7563   3.689   3.905   2.990
 2519SOL     OW 7564   2.290   4.148   2.382
 2519SOL    HW1 7565   2.320   4.076   2.320
 2519SOL    HW2 7566   2.251   4.108   2.465
 2520SOL     OW 7567   2.179   4.271   3.142
 2520SOL    HW1 7568   2.217   4.212   3.214
 2520SOL    HW2 7569   2.219   4.245   3.054
 2521SOL     OW 7570   3.286   3.938   2.974
 2521SOL    HW1 7571   3.338   3.873   3.029
 2521SOL    HW2 7572   3.237   4.001   3.035
 2522SOL     OW 7573   2.863   3.758   3.016
 2522SOL    HW1 7574   2.800   3.686   2.985
 2522SOL    HW2 7575   2.956   3.722   3.016
 2523SOL     OW 7576   3.214   3.776   2.030
 2523SOL    HW1 7577   3.249   3.735   1.946
 2523SOL    HW2 7578   3.124   3.738   2.050
 2524SOL     OW 7579   3.162   4.177   2.553
 2524SOL    HW1 7580   3.103   4.257   2.557
 2524SOL    HW2 7581   3.177   4.142   2.646
 2525SOL     OW 7582   3.455   3.945   2.744
 2525SOL    HW1 7583   3.371   3.944   2.798
 2525SOL    HW2 7584   3.457   4.028   2.688
 2526SOL     OW 7585   2.092   4.352   3.837
 2526SOL    HW1 7586   1.999   4.350   3.874
 2526SOL    HW2 7587   2.093   4.313   3.745
 2527SOL     OW 7588   1.881   4.092   4.371
 2527SOL    HW1 7589   1.799   4.135   4.410
 2527SOL    HW2 7590   1.853   4.019   4.308
 2528SOL     OW 7591   2.997   4.427   4.441
 2528SOL    HW1 7592   3.054   4.505   4.416
 2528SOL    HW2 7593   2.937   4.453   4.517
 2529SOL     OW 7594   3.617   4.331   3.955
 2529SOL    HW1 7595   3.605   4.318   3.856
 2529SOL    HW2 7596   3.587   4.250   4.004
 2530SOL     OW 7597   2.547   4.736   4.389
 2530SOL    HW1 7598   2.616   4.720   4.459
 2530SOL    HW2 7599   2.474   4.793   4.427
 2531SOL     OW 7600   3.465   4.171   4.461
 2531SOL    HW1 7601   3.391   4.217   4.411
 2531SOL    HW2 7602   3.516   4.239   4.514
 2532SOL     OW 7603   1.984   4.367   4.287
 2532SOL    HW1 7604   1.939   4.279   4.304
 2532SOL    HW2 7605   1.983   4.421   4.371
 2533SOL     OW 7606   2.671   3.728   4.226
 2533SOL    HW1 7607   2.711   3.819   4.217
 2533SOL    HW2 7608   2.571   3.736   4.232
 2534SOL     OW 7609   2.460   4.453   3.994
 2534SOL    HW1 7610   2.484   4.522   3.926
 2534SOL    HW2 7611   2.382   4.486   4.048
 2535SOL     OW 7612   3.143   4.069   4.668
 2535SOL    HW1 7613   3.057   4.019   4.655
 2535SOL    HW2 7614   3.205   4.015   4.724
 2536SOL     OW 7615   2.903   4.425   4.153
 2536SOL    HW1 7616   2.929   4.421   4.249
 2536SOL    HW2 7617   2.818   4.374   4.139
 2537SOL     OW 7618   2.727   4.072   3.919
 2537SOL    HW1 7619   2.786   4.135   3.870
 2537SOL    HW2 7620   2.746   3.978   3.890
 2538SOL     OW 7621   2.412   3.920   4.609
 2538SOL    HW1 7622   2.407   3.915   4.709
 2538SOL    HW2 7623   2.414   4.016   4.580
 2539SOL     OW 7624   3.320   4.459   4.452
 2539SOL    HW1 7625   3.315   4.394   4.527
 2539SOL    HW2 7626   3.400   4.518   4.465
 2540SOL     OW 7627   3.262   3.831   4.150
 2540SOL    HW1 7628   3.238   3.794   4.060
 2540SOL    HW2 7629   3.361   3.847   4.154
 2541SOL     OW 7630   2.244   4.424   4.204
 2541SOL    HW1 7631   2.289   4.334   4.201
 2541SOL    HW2 7632   2.150   4.413   4.237
 2542SOL     OW 7633   2.476   3.846   3.841
 2542SOL    HW1 7634   2.574   3.824   3.848
 2542SOL    HW2 7635   2.445   3.829   3.748
 2543SOL     OW 7636   2.401   3.788   4.236
 2543SOL    HW1 7637   2.320   3.789   4.294
 2543SOL    HW2 7638   2.404   3.871   4.181
 2544SOL     OW 7639   2.159   3.759   3.895
 2544SOL    HW1 7640   2.208   3.843   3.874
 2544SOL    HW2 7641   2.221   3.694   3.940
 2545SOL     OW 7642   2.797   3.960   4.204
 2545SOL    HW1 7643   2.749   4.001   4.126
 2545SOL    HW2 7644   2.896   3.958   4.185
 2546SOL     OW 7645   2.321   4.876   4.465
 2546SOL    HW1 7646   2.250   4.849   4.530
 2546SOL    HW2 7647   2.295   4.848   4.372
 2547SOL     OW 7648   2.894   4.273   3.740
 2547SOL    HW1 7649   2.853   4.355   3.701
 2547SOL    HW2 7650   2.958   4.299   3.813
 2548SOL     OW 7651   2.728   4.178   4.366
 2548SOL    HW1 7652   2.696   4.250   4.304
 2548SOL    HW2 7653   2.752   4.097   4.313
 2549SOL     OW 7654   2.879   3.763   4.477
 2549SOL    HW1 7655   2.807   3.768   4.408
 2549SOL    HW2 7656   2.855   3.694   4.546
 2550SOL     OW 7657   3.719   4.557   4.101
 2550SOL    HW1 7658   3.761   4.493   4.165
 2550SOL    HW2 7659   3.681   4.506   4.023
 2551SOL     OW 7660   3.252   4.299   3.802
 2551SOL    HW1 7661   3.198   4.278   3.883
 2551SOL    HW2 7662   3.343   4.258   3.811
 2552SOL     OW 7663   2.389   3.980   4.052
 2552SOL    HW1 7664   2.416   3.921   3.977
 2552SOL    HW2 7665   2.389   4.075   4.021
 2553SOL     OW 7666   2.567   4.774   4.092
 2553SOL    HW1 7667   2.553   4.781   4.191
 2553SOL    HW2 7668   2.651   4.723   4.074
 2554SOL     OW 7669   2.428   4.261   4.589
 2554SOL    HW1 7670   2.440   4.327   4.515
 2554SOL    HW2 7671   2.474   4.295   4.672
 2555SOL     OW 7672   3.444   4.363   4.196
 2555SOL    HW1 7673   3.413   4.424   4.269
 2555SOL    HW2 7674   3.494   4.415   4.127
 2556SOL     OW 7675   3.071   4.249   3.999
 2556SOL    HW1 7676   3.084   4.165   4.053
 2556SOL    HW2 7677   3.042   4.323   4.059
 2557SOL     OW 7678   2.169   3.787   4.342
 2557SOL    HW1 7679   2.158   3.881   4.375
 2557SOL    HW2 7680   2.164   3.724   4.419
 2558SOL     OW 7681   3.484   4.091   4.098
 2558SOL    HW1 7682   3.486   4.015   4.162
 2558SOL    HW2 7683   3.436   4.168   4.138
 2559SOL     OW 7684   3.402   3.998   3.849
 2559SOL    HW1 7685   3.341   3.923   3.872
 2559SOL    HW2 7686   3.424   4.050   3.932
 2560SOL     OW 7687   2.677   4.296   4.049
 2560SOL    HW1 7688   2.684   4.207   4.003
 2560SOL    HW2 7689   2.583   4.330   4.041
 2561SOL     OW 7690   2.335   4.224   3.915
 2561SOL    HW1 7691   2.396   4.304   3.919
 2561SOL    HW2 7692   2.240   4.255   3.922
 2562SOL     OW 7693   3.588   3.859   4.247
 2562SOL    HW1 7694   3.661   3.842   4.180
 2562SOL    HW2 7695   3.557   3.772   4.285
 2563SOL     OW 7696   3.142   4.651   4.396
 2563SOL    HW1 7697   3.202   4.570   4.398
 2563SOL    HW2 7698   3.182   4.720   4.336
 2564SOL     OW 7699   3.703   3.899   4.687
 2564SOL    HW1 7700   3.742   3.814   4.651
 2564SOL    HW2 7701   3.605   3.901   4.668
 2565SOL     OW 7702   2.125   4.050   4.444
 2565SOL    HW1 7703   2.046   4.101   4.410
 2565SOL    HW2 7704   2.116   4.035   4.542
 2566SOL     OW 7705   2.778   4.634   4.015
 2566SOL    HW1 7706   2.841   4.672   3.947
 2566SOL    HW2 7707   2.818   4.551   4.054
 2567SOL     OW 7708   1.937   4.069   3.757
 2567SOL    HW1 7709   1.845   4.041   3.728
 2567SOL    HW2 7710   1.968   4.146   3.701
 2568SOL     OW 7711   1.934   3.890   4.042
 2568SOL    HW1 7712   1.917   3.973   3.988
 2568SOL    HW2 7713   2.024   3.853   4.020
 2569SOL     OW 7714   3.087   4.049   4.173
 2569SOL    HW1 7715   3.152   3.975   4.162
 2569SOL    HW2 7716   3.107   4.099   4.257
 2570SOL     OW 7717   2.456   4.469   4.376
 2570SOL    HW1 7718   2.506   4.554   4.357
 2570SOL    HW2 7719   2.368   4.471   4.328
 2571SOL     OW 7720   2.290   4.148   4.244
 2571SOL    HW1 7721   2.320   4.076   4.182
 2571SOL    HW2 7722   2.251   4.108   4.327
 2572SOL     OW 7723   3.214   3.776   3.892
 2572SOL    HW1 7724   3.249   3.735   3.808
 2572SOL    HW2 7725   3.124   3.738   3.912
 2573SOL     OW 7726   3.162   4.177   4.415
 2573SOL    HW1 7727   3.103   4.257   4.419
 2573SOL    HW2 7728   3.177   4.142   4.508
 2574SOL     OW 7729   3.954   0.628   0.113
 2574SOL    HW1 7730   3.861   0.626   0.150
 2574SOL    HW2 7731   3.955   0.589   0.021
 2575SOL     OW 7732   3.949   0.275   0.996
 2575SOL    HW1 7733   3.984   0.258   1.088
 2575SOL    HW2 7734   3.861   0.230   0.984
 2576SOL     OW 7735   3.743   0.368   0.647
 2576SOL    HW1 7736   3.661   0.411   0.686
 2576SOL    HW2 7737   3.715   0.295   0.584
 2577SOL     OW 7738   4.293   1.275   1.165
 2577SOL    HW1 7739   4.200   1.268   1.128
 2577SOL    HW2 7740   4.304   1.364   1.209
 2578SOL     OW 7741   4.574   0.798   1.823
 2578SOL    HW1 7742   4.570   0.874   1.888
 2578SOL    HW2 7743   4.596   0.834   1.732
 2579SOL     OW 7744   4.409   1.012   0.665
 2579SOL    HW1 7745   4.478   0.996   0.735
 2579SOL    HW2 7746   4.336   1.069   0.703
 2580SOL     OW 7747   4.410   1.161   1.803
 2580SOL    HW1 7748   4.470   1.240   1.817
 2580SOL    HW2 7749   4.324   1.192   1.762
 2581SOL     OW 7750   4.059   1.435   1.061
 2581SOL    HW1 7751   3.981   1.404   1.008
 2581SOL    HW2 7752   4.117   1.493   1.004
 2582SOL     OW 7753   4.162   0.392   1.499
 2582SOL    HW1 7754   4.244   0.336   1.508
 2582SOL    HW2 7755   4.081   0.334   1.503
 2583SOL     OW 7756   3.955   1.713   0.483
 2583SOL    HW1 7757   3.989   1.790   0.537
 2583SOL    HW2 7758   3.999   1.713   0.393
 2584SOL     OW 7759   3.954   1.434   0.538
 2584SOL    HW1 7760   3.928   1.530   0.538
 2584SOL    HW2 7761   3.883   1.380   0.583
 2585SOL     OW 7762   3.964   1.091   0.886
 2585SOL    HW1 7763   3.978   1.007   0.938
 2585SOL    HW2 7764   3.909   1.155   0.941
 2586SOL     OW 7765   4.344   1.786   1.439
 2586SOL    HW1 7766   4.252   1.769   1.474
 2586SOL    HW2 7767   4.372   1.878   1.465
 2587SOL     OW 7768   4.330   0.964   0.123
 2587SOL    HW1 7769   4.337   1.048   0.069
 2587SOL    HW2 7770   4.376   0.977   0.211
 2588SOL     OW 7771   3.846   0.643   0.563
 2588SOL    HW1 7772   3.801   0.555   0.580
 2588SOL    HW2 7773   3.845   0.697   0.647
 2589SOL     OW 7774   3.751   1.596   0.117
 2589SOL    HW1 7775   3.732   1.500   0.138
 2589SOL    HW2 7776   3.718   1.654   0.192
 2590SOL     OW 7777   3.837   0.737   1.597
 2590SOL    HW1 7778   3.925   0.724   1.642
 2590SOL    HW2 7779   3.824   0.834   1.575
 2591SOL     OW 7780   4.337   1.365   0.726
 2591SOL    HW1 7781   4.288   1.278   0.735
 2591SOL    HW2 7782   4.314   1.408   0.639
 2592SOL     OW 7783   4.533   0.004   0.502
 2592SOL    HW1 7784   4.573   0.095   0.493
 2592SOL    HW2 7785   4.433   0.012   0.508
 2593SOL     OW 7786   3.921   0.976   1.264
 2593SOL    HW1 7787   4.010   0.931   1.250
 2593SOL    HW2 7788   3.848   0.911   1.245
 2594SOL     OW 7789   4.041   0.251   1.801
 2594SOL    HW1 7790   4.112   0.322   1.807
 2594SOL    HW2 7791   3.953   0.290   1.829
 2595SOL     OW 7792   4.322   0.729   0.270
 2595SOL    HW1 7793   4.346   0.798   0.202
 2595SOL    HW2 7794   4.244   0.762   0.324
 2596SOL     OW 7795   3.800   0.811   0.789
 2596SOL    HW1 7796   3.899   0.799   0.798
 2596SOL    HW2 7797   3.776   0.906   0.810
 2597SOL     OW 7798   3.854   1.821   1.571
 2597SOL    HW1 7799   3.844   1.806   1.670
 2597SOL    HW2 7800   3.768   1.857   1.535
 2598SOL     OW 7801   4.274   0.196   0.885
 2598SOL    HW1 7802   4.269   0.191   0.985
 2598SOL    HW2 7803   4.276   0.292   0.856
 2599SOL     OW 7804   4.075   1.801   0.853
 2599SOL    HW1 7805   4.125   1.715   0.859
 2599SOL    HW2 7806   4.140   1.878   0.850
 2600SOL     OW 7807   4.045   0.943   0.242
 2600SOL    HW1 7808   4.127   0.982   0.200
 2600SOL    HW2 7809   4.018   0.861   0.193
 2601SOL     OW 7810   4.185   1.266   1.727
 2601SOL    HW1 7811   4.135   1.267   1.641
 2601SOL    HW2 7812   4.122   1.248   1.803
 2602SOL     OW 7813   3.926   0.285   1.498
 2602SOL    HW1 7814   3.846   0.345   1.485
 2602SOL    HW2 7815   3.916   0.236   1.584
 2603SOL     OW 7816   4.188   1.743   0.323
 2603SOL    HW1 7817   4.221   1.782   0.409
 2603SOL    HW2 7818   4.264   1.736   0.258
 2604SOL     OW 7819   3.973   1.785   1.241
 2604SOL    HW1 7820   4.030   1.720   1.291
 2604SOL    HW2 7821   3.957   1.752   1.148
 2605SOL     OW 7822   4.106   0.700   0.480
 2605SOL    HW1 7823   4.151   0.610   0.477
 2605SOL    HW2 7824   4.012   0.689   0.513
 2606SOL     OW 7825   4.338   0.122   0.117
 2606SOL    HW1 7826   4.436   0.100   0.124
 2606SOL    HW2 7827   4.307   0.105   0.024
 2607SOL     OW 7828   4.527   1.402   0.924
 2607SOL    HW1 7829   4.617   1.416   0.882
 2607SOL    HW2 7830   4.456   1.404   0.853
 2608SOL     OW 7831   4.646   0.503   0.899
 2608SOL    HW1 7832   4.621   0.494   0.803
 2608SOL    HW2 7833   4.694   0.421   0.930
 2609SOL     OW 7834   4.263   0.064   0.512
 2609SOL    HW1 7835   4.182   0.065   0.570
 2609SOL    HW2 7836   4.266   0.147   0.457
 2610SOL     OW 7837   4.021   0.035   0.171
 2610SOL    HW1 7838   4.070   0.119   0.150
 2610SOL    HW2 7839   4.083  -0.030   0.216
 2611SOL     OW 7840   4.183   1.152   0.741
 2611SOL    HW1 7841   4.112   1.125   0.806
 2611SOL    HW2 7842   4.157   1.124   0.648
 2612SOL     OW 7843   3.802   0.556   1.386
 2612SOL    HW1 7844   3.894   0.555   1.345
 2612SOL    HW2 7845   3.796   0.630   1.453
 2613SOL     OW 7846   4.285   0.222   1.147
 2613SOL    HW1 7847   4.323   0.138   1.184
 2613SOL    HW2 7848   4.197   0.241   1.191
 2614SOL     OW 7849   4.212   1.385   0.174
 2614SOL    HW1 7850   4.125   1.370   0.221
 2614SOL    HW2 7851   4.195   1.411   0.079
 2615SOL     OW 7852   4.251   0.256   0.328
 2615SOL    HW1 7853   4.278   0.197   0.253
 2615SOL    HW2 7854   4.251   0.351   0.297
 2616SOL     OW 7855   4.639   0.089   1.402
 2616SOL    HW1 7856   4.664   0.069   1.307
 2616SOL    HW2 7857   4.711   0.145   1.444
 2617SOL     OW 7858   4.134   0.813   1.251
 2617SOL    HW1 7859   4.220   0.825   1.301
 2617SOL    HW2 7860   4.092   0.726   1.278
 2618SOL     OW 7861   3.788   1.564   1.331
 2618SOL    HW1 7862   3.742   1.646   1.297
 2618SOL    HW2 7863   3.886   1.583   1.340
 2619SOL     OW 7864   4.091   1.100   0.501
 2619SOL    HW1 7865   4.084   1.183   0.445
 2619SOL    HW2 7866   4.095   1.020   0.441
 2620SOL     OW 7867   4.290   0.537   0.865
 2620SOL    HW1 7868   4.302   0.603   0.791
 2620SOL    HW2 7869   4.336   0.571   0.948
 2621SOL     OW 7870   4.078   1.510   1.329
 2621SOL    HW1 7871   4.057   1.466   1.242
 2621SOL    HW2 7872   4.175   1.536   1.332
 2622SOL     OW 7873   4.126   0.751   1.598
 2622SOL    HW1 7874   4.194   0.806   1.551
 2622SOL    HW2 7875   4.166   0.663   1.625
 2623SOL     OW 7876   4.228   0.050   1.740
 2623SOL    HW1 7877   4.186  -0.007   1.670
 2623SOL    HW2 7878   4.162   0.119   1.772
 2624SOL     OW 7879   4.297   0.870   1.029
 2624SOL    HW1 7880   4.341   0.959   1.020
 2624SOL    HW2 7881   4.234   0.870   1.106
 2625SOL     OW 7882   4.031   0.213   1.231
 2625SOL    HW1 7883   4.008   0.250   1.321
 2625SOL    HW2 7884   4.001   0.118   1.225
 2626SOL     OW 7885   3.761   1.310   1.282
 2626SOL    HW1 7886   3.814   1.261   1.350
 2626SOL    HW2 7887   3.783   1.408   1.287
 2627SOL     OW 7888   4.456   0.634   1.064
 2627SOL    HW1 7889   4.515   0.608   0.988
 2627SOL    HW2 7890   4.428   0.730   1.053
 2628SOL     OW 7891   4.031   0.063   0.618
 2628SOL    HW1 7892   4.020   0.157   0.651
 2628SOL    HW2 7893   4.026   0.000   0.695
 2629SOL     OW 7894   4.074   0.898   1.804
 2629SOL    HW1 7895   4.150   0.942   1.852
 2629SOL    HW2 7896   4.109   0.851   1.722
 2630SOL     OW 7897   4.792   1.333   0.849
 2630SOL    HW1 7898   4.799   1.249   0.794
 2630SOL    HW2 7899   4.854   1.402   0.813
 2631SOL     OW 7900   4.043   0.810   0.949
 2631SOL    HW1 7901   4.136   0.846   0.954
 2631SOL    HW2 7902   4.037   0.725   1.001
 2632SOL     OW 7903   4.063   0.509   1.006
 2632SOL    HW1 7904   4.011   0.426   0.989
 2632SOL    HW2 7905   4.140   0.514   0.942
 2633SOL     OW 7906   3.732   1.326   0.200
 2633SOL    HW1 7907   3.639   1.347   0.169
 2633SOL    HW2 7908   3.742   1.227   0.213
 2634SOL     OW 7909   3.812   1.801   0.927
 2634SOL    HW1 7910   3.770   1.715   0.900
 2634SOL    HW2 7911   3.906   1.804   0.893
 2635SOL     OW 7912   4.228   1.568   0.910
 2635SOL    HW1 7913   4.294   1.642   0.919
 2635SOL    HW2 7914   4.272   1.489   0.868
 2636SOL     OW 7915   3.764   0.544   1.114
 2636SOL    HW1 7916   3.849   0.511   1.073
 2636SOL    HW2 7917   3.777   0.559   1.212
 2637SOL     OW 7918   3.913   0.520   1.722
 2637SOL    HW1 7919   3.972   0.480   1.652
 2637SOL    HW2 7920   3.855   0.591   1.681
 2638SOL     OW 7921   4.539   0.572   0.325
 2638SOL    HW1 7922   4.546   0.483   0.279
 2638SOL    HW2 7923   4.445   0.606   0.317
 2639SOL     OW 7924   3.976   1.564   1.744
 2639SOL    HW1 7925   3.946   1.621   1.820
 2639SOL    HW2 7926   3.969   1.467   1.770
 2640SOL     OW 7927   4.395   0.464   1.269
 2640SOL    HW1 7928   4.361   0.375   1.239
 2640SOL    HW2 7929   4.421   0.518   1.189
 2641SOL     OW 7930   4.197   0.500   0.191
 2641SOL    HW1 7931   4.258   0.580   0.195
 2641SOL    HW2 7932   4.102   0.531   0.198
 2642SOL     OW 7933   3.883   1.137   1.466
 2642SOL    HW1 7934   3.905   1.076   1.542
 2642SOL    HW2 7935   3.893   1.088   1.380
 2643SOL     OW 7936   3.807   1.258   1.022
 2643SOL    HW1 7937   3.802   1.257   1.122
 2643SOL    HW2 7938   3.724   1.217   0.984
 2644SOL     OW 7939   4.412   1.662   1.716
 2644SOL    HW1 7940   4.356   1.743   1.725
 2644SOL    HW2 7941   4.464   1.666   1.630
 2645SOL     OW 7942   3.854   1.794   1.851
 2645SOL    HW1 7943   3.813   1.720   1.904
 2645SOL    HW2 7944   3.918   1.845   1.909
 2646SOL     OW 7945   4.396   1.616   0.154
 2646SOL    HW1 7946   4.405   1.626   0.055
 2646SOL    HW2 7947   4.356   1.527   0.175
 2647SOL     OW 7948   3.987   0.326   0.720
 2647SOL    HW1 7949   3.908   0.377   0.686
 2647SOL    HW2 7950   3.978   0.311   0.818
 2648SOL     OW 7951   4.546   1.002   1.372
 2648SOL    HW1 7952   4.586   1.001   1.280
 2648SOL    HW2 7953   4.556   1.094   1.412
 2649SOL     OW 7954   4.096   1.288   1.490
 2649SOL    HW1 7955   4.083   1.381   1.456
 2649SOL    HW2 7956   4.012   1.236   1.477
 2650SOL     OW 7957   4.314   1.487   0.491
 2650SOL    HW1 7958   4.356   1.429   0.421
 2650SOL    HW2 7959   4.270   1.566   0.447
 2651SOL     OW 7960   3.979   1.348   0.290
 2651SOL    HW1 7961   3.883   1.349   0.263
 2651SOL    HW2 7962   3.991   1.401   0.374
 2652SOL     OW 7963   3.829   1.013   1.726
 2652SOL    HW1 7964   3.752   0.980   1.780
 2652SOL    HW2 7965   3.914   0.983   1.768
 2653SOL     OW 7966   4.396   0.203   1.489
 2653SOL    HW1 7967   4.486   0.187   1.449
 2653SOL    HW2 7968   4.404   0.208   1.588
 2654SOL     OW 7969   3.799   0.345   0.033
 2654SOL    HW1 7970   3.707   0.317   0.004
 2654SOL    HW2 7971   3.830   0.422  -0.023
 2655SOL     OW 7972   3.796   0.166   0.318
 2655SOL    HW1 7973   3.779   0.249   0.264
 2655SOL    HW2 7974   3.886   0.129   0.296
 2656SOL     OW 7975   4.337   0.842   1.431
 2656SOL    HW1 7976   4.393   0.923   1.414
 2656SOL    HW2 7977   4.396   0.762   1.434
 2657SOL     OW 7978   4.440   0.565   1.708
 2657SOL    HW1 7979   4.459   0.630   1.782
 2657SOL    HW2 7980   4.500   0.485   1.717
 2658SOL     OW 7981   4.114   1.741   1.560
 2658SOL    HW1 7982   4.023   1.782   1.558
 2658SOL    HW2 7983   4.107   1.647   1.592
 2659SOL     OW 7984   4.318   0.745   0.652
 2659SOL    HW1 7985   4.368   0.830   0.633
 2659SOL    HW2 7986   4.230   0.747   0.604
 2660SOL     OW 7987   4.385   1.790   0.953
 2660SOL    HW1 7988   4.339   1.878   0.940
 2660SOL    HW2 7989   4.484   1.802   0.946
 2661SOL     OW 7990   3.945   1.314   1.844
 2661SOL    HW1 7991   3.880   1.241   1.823
 2661SOL    HW2 7992   3.949   1.328   1.942
 2662SOL     OW 7993   3.803   1.240   0.653
 2662SOL    HW1 7994   3.802   1.193   0.741
 2662SOL    HW2 7995   3.885   1.212   0.602
 2663SOL     OW 7996   4.396   1.391   1.624
 2663SOL    HW1 7997   4.318   1.341   1.662
 2663SOL    HW2 7998   4.393   1.486   1.655
 2664SOL     OW 7999   4.152   0.424   0.520
 2664SOL    HW1 8000   4.182   0.352   0.458
 2664SOL    HW2 8001   4.113   0.384   0.603
 2665SOL     OW 8002   4.041   0.547   1.280
 2665SOL    HW1 8003   4.079   0.488   1.352
 2665SOL    HW2 8004   4.081   0.521   1.192
 2666SOL     OW 8005   4.536   1.586   0.687
 2666SOL    HW1 8006   4.568   1.596   0.593
 2666SOL    HW2 8007   4.457   1.524   0.689
 2667SOL     OW 8008   4.725   0.034   1.154
 2667SOL    HW1 8009   4.662  -0.038   1.123
 2667SOL    HW2 8010   4.818  -0.002   1.154
 2668SOL     OW 8011   4.342   1.567   1.284
 2668SOL    HW1 8012   4.337   1.649   1.341
 2668SOL    HW2 8013   4.431   1.564   1.239
 2669SOL     OW 8014   3.763   1.077   0.300
 2669SOL    HW1 8015   3.862   1.066   0.291
 2669SOL    HW2 8016   3.723   0.991   0.332
 2670SOL     OW 8017   3.954   0.628   1.975
 2670SOL    HW1 8018   3.861   0.626   2.012
 2670SOL    HW2 8019   3.955   0.589   1.883
 2671SOL     OW 8020   3.949   0.275   2.858
 2671SOL    HW1 8021   3.984   0.258   2.950
 2671SOL    HW2 8022   3.861   0.230   2.846
 2672SOL     OW 8023   3.743   0.368   2.509
 2672SOL    HW1 8024   3.661   0.411   2.548
 2672SOL    HW2 8025   3.715   0.295   2.446
 2673SOL     OW 8026   4.293   1.275   3.027
 2673SOL    HW1 8027   4.200   1.268   2.990
 2673SOL    HW2 8028   4.304   1.364   3.071
 2674SOL     OW 8029   4.574   0.798   3.685
 2674SOL    HW1 8030   4.570   0.874   3.750
 2674SOL    HW2 8031   4.596   0.834   3.594
 2675SOL     OW 8032   4.409   1.012   2.527
 2675SOL    HW1 8033   4.478   0.996   2.597
 2675SOL    HW2 8034   4.336   1.069   2.565
 2676SOL     OW 8035   4.410   1.161   3.665
 2676SOL    HW1 8036   4.470   1.240   3.679
 2676SOL    HW2 8037   4.324   1.192   3.624
 2677SOL     OW 8038   4.059   1.435   2.923
 2677SOL    HW1 8039   3.981   1.404   2.870
 2677SOL    HW2 8040   4.117   1.493   2.866
 2678SOL     OW 8041   4.162   0.392   3.361
 2678SOL    HW1 8042   4.244   0.336   3.370
 2678SOL    HW2 8043   4.081   0.334   3.365
 2679SOL     OW 8044   3.955   1.713   2.345
 2679SOL    HW1 8045   3.989   1.790   2.399
 2679SOL    HW2 8046   3.999   1.713   2.255
 2680SOL     OW 8047   3.954   1.434   2.400
 2680SOL    HW1 8048   3.928   1.530   2.400
 2680SOL    HW2 8049   3.883   1.380   2.445
 2681SOL     OW 8050   3.964   1.091   2.748
 2681SOL    HW1 8051   3.978   1.007   2.800
 2681SOL    HW2 8052   3.909   1.155   2.803
 2682SOL     OW 8053   4.344   1.786   3.301
 2682SOL    HW1 8054   4.252   1.769   3.336
 2682SOL    HW2 8055   4.372   1.878   3.327
 2683SOL     OW 8056   4.330   0.964   1.985
 2683SOL    HW1 8057   4.337   1.048   1.931
 2683SOL    HW2 8058   4.376   0.977   2.073
 2684SOL     OW 8059   3.846   0.643   2.425
 2684SOL    HW1 8060   3.801   0.555   2.442
 2684SOL    HW2 8061   3.845   0.697   2.509
 2685SOL     OW 8062   3.751   1.596   1.979
 2685SOL    HW1 8063   3.732   1.500   2.000
 2685SOL    HW2 8064   3.718   1.654   2.054
 2686SOL     OW 8065   3.837   0.737   3.459
 2686SOL    HW1 8066   3.925   0.724   3.504
 2686SOL    HW2 8067   3.824   0.834   3.437
 2687SOL     OW 8068   4.337   1.365   2.588
 2687SOL    HW1 8069   4.288   1.278   2.597
 2687SOL    HW2 8070   4.314   1.408   2.501
 2688SOL     OW 8071   4.533   0.004   2.364
 2688SOL    HW1 8072   4.573   0.095   2.355
 2688SOL    HW2 8073   4.433   0.012   2.370
 2689SOL     OW 8074   3.921   0.976   3.126
 2689SOL    HW1 8075   4.010   0.931   3.112
 2689SOL    HW2 8076   3.848   0.911   3.107
 2690SOL     OW 8077   4.041   0.251   3.663
 2690SOL    HW1 8078   4.112   0.322   3.669
 2690SOL    HW2 8079   3.953   0.290   3.691
 2691SOL     OW 8080   4.322   0.729   2.132
 2691SOL    HW1 8081   4.346   0.798   2.064
 2691SOL    HW2 8082   4.244   0.762   2.186
 2692SOL     OW 8083   3.800   0.811   2.651
 2692SOL    HW1 8084   3.899   0.799   2.660
 2692SOL    HW2 8085   3.776   0.906   2.672
 2693SOL     OW 8086   3.854   1.821   3.433
 2693SOL    HW1 8087   3.844   1.806   3.532
 2693SOL    HW2 8088   3.768   1.857   3.397
 2694SOL     OW 8089   4.274   0.196   2.747
 2694SOL    HW1 8090   4.269   0.191   2.847
 2694SOL    HW2 8091   4.276   0.292   2.718
 2695SOL     OW 8092   4.075   1.801   2.715
 2695SOL    HW1 8093   4.125   1.715   2.721
 2695SOL    HW2 8094   4.140   1.878   2.712
 2696SOL     OW 8095   4.045   0.943   2.104
 2696SOL    HW1 8096   4.127   0.982   2.062
 2696SOL    HW2 8097   4.018   0.861   2.055
 2697SOL     OW 8098   4.185   1.266   3.589
 2697SOL    HW1 8099   4.135   1.267   3.503
 2697SOL    HW2 8100   4.122   1.248   3.665
 2698SOL     OW 8101   3.926   0.285   3.360
 2698SOL    HW1 8102   3.846   0.345   3.347
 2698SOL    HW2 8103   3.916   0.236   3.446
 2699SOL     OW 8104   4.188   1.743   2.185
 2699SOL    HW1 8105   4.221   1.782   2.271
 2699SOL    HW2 8106   4.264   1.736   2.120
 2700SOL     OW 8107   3.973   1.785   3.103
 2700SOL    HW1 8108   4.030   1.720   3.153
 2700SOL    HW2 8109   3.957   1.752   3.010
 2701SOL     OW 8110   4.106   0.700   2.342
 2701SOL    HW1 8111   4.151   0.610   2.339
 2701SOL    HW2 8112   4.012   0.689   2.375
 2702SOL     OW 8113   4.338   0.122   1.979
 2702SOL    HW1 8114   4.436   0.100   1.986
 2702SOL    HW2 8115   4.307   0.105   1.886
 2703SOL     OW 8116   4.527   1.402   2.786
 2703SOL    HW1 8117   4.617   1.416   2.744
 2703SOL    HW2 8118   4.456   1.404   2.715
 2704SOL     OW 8119   4.646   0.503   2.761
 2704SOL    HW1 8120   4.621   0.494   2.665
 2704SOL    HW2 8121   4.694   0.421   2.792
 2705SOL     OW 8122   4.263   0.064   2.374
 2705SOL    HW1 8123   4.182   0.065   2.432
 2705SOL    HW2 8124   4.266   0.147   2.319
 2706SOL     OW 8125   4.021   0.035   2.033
 2706SOL    HW1 8126   4.070   0.119   2.012
 2706SOL    HW2 8127   4.083  -0.030   2.078
 2707SOL     OW 8128   4.183   1.152   2.603
 2707SOL    HW1 8129   4.112   1.125   2.668
 2707SOL    HW2 8130   4.157   1.124   2.510
 2708SOL     OW 8131   3.802   0.556   3.248
 2708SOL    HW1 8132   3.894   0.555   3.207
 2708SOL    HW2 8133   3.796   0.630   3.315
 2709SOL     OW 8134   4.285   0.222   3.009
 2709SOL    HW1 8135   4.323   0.138   3.046
 2709SOL    HW2 8136   4.197   0.241   3.053
 2710SOL     OW 8137   4.212   1.385   2.036
 2710SOL    HW1 8138   4.125   1.370   2.083
 2710SOL    HW2 8139   4.195   1.411   1.941
 2711SOL     OW 8140   4.251   0.256   2.190
 2711SOL    HW1 8141   4.278   0.197   2.115
 2711SOL    HW2 8142   4.251   0.351   2.159
 2712SOL     OW 8143   4.639   0.089   3.264
 2712SOL    HW1 8144   4.664   0.069   3.169
 2712SOL    HW2 8145   4.711   0.145   3.306
 2713SOL     OW 8146   4.134   0.813   3.113
 2713SOL    HW1 8147   4.220   0.825   3.163
 2713SOL    HW2 8148   4.092   0.726   3.140
 2714SOL     OW 8149   3.788   1.564   3.193
 2714SOL    HW1 8150   3.742   1.646   3.159
 2714SOL    HW2 8151   3.886   1.583   3.202
 2715SOL     OW 8152   4.091   1.100   2.363
 2715SOL    HW1 8153   4.084   1.183   2.307
 2715SOL    HW2 8154   4.095   1.020   2.303
 2716SOL     OW 8155   4.290   0.537   2.727
 2716SOL    HW1 8156   4.302   0.603   2.653
 2716SOL    HW2 8157   4.336   0.571   2.810
 2717SOL     OW 8158   4.078   1.510   3.191
 2717SOL    HW1 8159   4.057   1.466   3.104
 2717SOL    HW2 8160   4.175   1.536   3.194
 2718SOL     OW 8161   4.126   0.751   3.460
 2718SOL    HW1 8162   4.194   0.806   3.413
 2718SOL    HW2 8163   4.166   0.663   3.487
 2719SOL     OW 8164   4.228   0.050   3.602
 2719SOL    HW1 8165   4.186  -0.007   3.532
 2719SOL    HW2 8166   4.162   0.119   3.634
 2720SOL     OW 8167   4.297   0.870   2.891
 2720SOL    HW1 8168   4.341   0.959   2.882
 2720SOL    HW2 8169   4.234   0.870   2.968
 2721SOL     OW 8170   4.031   0.213   3.093
 2721SOL    HW1 8171   4.008   0.250   3.183
 2721SOL    HW2 8172   4.001   0.118   3.087
 2722SOL     OW 8173   3.761   1.310   3.144
 2722SOL    HW1 8174   3.814   1.261   3.212
 2722SOL    HW2 8175   3.783   1.408   3.149
 2723SOL     OW 8176   4.456   0.634   2.926
 2723SOL    HW1 8177   4.515   0.608   2.850
 2723SOL    HW2 8178   4.428   0.730   2.915
 2724SOL     OW 8179   4.031   0.063   2.480
 2724SOL    HW1 8180   4.020   0.157   2.513
 2724SOL    HW2 8181   4.026   0.000   2.557
 2725SOL     OW 8182   4.074   0.898   3.666
 2725SOL    HW1 8183   4.150   0.942   3.714
 2725SOL    HW2 8184   4.109   0.851   3.584
 2726SOL     OW 8185   4.792   1.333   2.711
 2726SOL    HW1 8186   4.799   1.249   2.656
 2726SOL    HW2 8187   4.854   1.402   2.675
 2727SOL     OW 8188   4.043   0.810   2.811
 2727SOL    HW1 8189   4.136   0.846   2.816
 2727SOL    HW2 8190   4.037   0.725   2.863
 2728SOL     OW 8191   4.063   0.509   2.868
 2728SOL    HW1 8192   4.011   0.426   2.851
 2728SOL    HW2 8193   4.140   0.514   2.804
 2729SOL     OW 8194   3.732   1.326   2.062
 2729SOL    HW1 8195   3.639   1.347   2.031
 2729SOL    HW2 8196   3.742   1.227   2.075
 2730SOL     OW 8197   3.812   1.801   2.789
 2730SOL    HW1 8198   3.770   1.715   2.762
 2730SOL    HW2 8199   3.906   1.804   2.755
 2731SOL     OW 8200   4.228   1.568   2.772
 2731SOL    HW1 8201   4.294   1.642   2.781
 2731SOL    HW2 8202   4.272   1.489   2.730
 2732SOL     OW 8203   3.764   0.544   2.976
 2732SOL    HW1 8204   3.849   0.511   2.935
 2732SOL    HW2 8205   3.777   0.559   3.074
 2733SOL     OW 8206   3.913   0.520   3.584
 2733SOL    HW1 8207   3.972   0.480   3.514
 2733SOL    HW2 8208   3.855   0.591   3.543
 2734SOL     OW 8209   4.539   0.572   2.187
 2734SOL    HW1 8210   4.546   0.483   2.141
 2734SOL    HW2 8211   4.445   0.606   2.179
 2735SOL     OW 8212   3.976   1.564   3.606
 2735SOL    HW1 8213   3.946   1.621   3.682
 2735SOL    HW2 8214   3.969   1.467   3.632
 2736SOL     OW 8215   4.395   0.464   3.131
 2736SOL    HW1 8216   4.361   0.375   3.101
 2736SOL    HW2 8217   4.421   0.518   3.051
 2737SOL     OW 8218   4.197   0.500   2.053
 2737SOL    HW1 8219   4.258   0.580   2.057
 2737SOL    HW2 8220   4.102   0.531   2.060
 2738SOL     OW 8221   3.883   1.137   3.328
 2738SOL    HW1 8222   3.905   1.076   3.404
 2738SOL    HW2 8223   3.893   1.088   3.242
 2739SOL     OW 8224   3.807   1.258   2.884
 2739SOL    HW1 8225   3.802   1.257   2.984
 2739SOL    HW2 8226   3.724   1.217   2.846
 2740SOL     OW 8227   4.412   1.662   3.578
 2740SOL    HW1 8228   4.356   1.743   3.587
 2740SOL    HW2 8229   4.464   1.666   3.492
 2741SOL     OW 8230   4.627   0.086   1.995
 2741SOL    HW1 8231   4.678   0.087   1.909
 2741SOL    HW2 8232   4.683   0.044   2.066
 2742SOL     OW 8233   3.854   1.794   3.713
 2742SOL    HW1 8234   3.813   1.720   3.766
 2742SOL    HW2 8235   3.918   1.845   3.771
 2743SOL     OW 8236   4.396   1.616   2.016
 2743SOL    HW1 8237   4.405   1.626   1.917
 2743SOL    HW2 8238   4.356   1.527   2.037
 2744SOL     OW 8239   3.987   0.326   2.582
 2744SOL    HW1 8240   3.908   0.377   2.548
 2744SOL    HW2 8241   3.978   0.311   2.680
 2745SOL     OW 8242   4.546   1.002   3.234
 2745SOL    HW1 8243   4.586   1.001   3.142
 2745SOL    HW2 8244   4.556   1.094   3.274
 2746SOL     OW 8245   4.096   1.288   3.352
 2746SOL    HW1 8246   4.083   1.381   3.318
 2746SOL    HW2 8247   4.012   1.236   3.339
 2747SOL     OW 8248   4.314   1.487   2.353
 2747SOL    HW1 8249   4.356   1.429   2.283
 2747SOL    HW2 8250   4.270   1.566   2.309
 2748SOL     OW 8251   3.979   1.348   2.152
 2748SOL    HW1 8252   3.883   1.349   2.125
 2748SOL    HW2 8253   3.991   1.401   2.236
 2749SOL     OW 8254   3.829   1.013   3.588
 2749SOL    HW1 8255   3.752   0.980   3.642
 2749SOL    HW2 8256   3.914   0.983   3.630
 2750SOL     OW 8257   4.396   0.203   3.351
 2750SOL    HW1 8258   4.486   0.187   3.311
 2750SOL    HW2 8259   4.404   0.208   3.450
 2751SOL     OW 8260   3.799   0.345   1.895
 2751SOL    HW1 8261   3.707   0.317   1.866
 2751SOL    HW2 8262   3.830   0.422   1.839
 2752SOL     OW 8263   3.796   0.166   2.180
 2752SOL    HW1 8264   3.779   0.249   2.126
 2752SOL    HW2 8265   3.886   0.129   2.158
 2753SOL     OW 8266   4.337   0.842   3.293
 2753SOL    HW1 8267   4.393   0.923   3.276
 2753SOL    HW2 8268   4.396   0.762   3.296
 2754SOL     OW 8269   4.440   0.565   3.570
 2754SOL    HW1 8270   4.459   0.630   3.644
 2754SOL    HW2 8271   4.500   0.485   3.579
 2755SOL     OW 8272   4.114   1.741   3.422
 2755SOL    HW1 8273   4.023   1.782   3.420
 2755SOL    HW2 8274   4.107   1.647   3.454
 2756SOL     OW 8275   4.318   0.745   2.514
 2756SOL    HW1 8276   4.368   0.830   2.495
 2756SOL    HW2 8277   4.230   0.747   2.466
 2757SOL     OW 8278   4.385   1.790   2.815
 2757SOL    HW1 8279   4.339   1.878   2.802
 2757SOL    HW2 8280   4.484   1.802   2.808
 2758SOL     OW 8281   3.945   1.314   3.706
 2758SOL    HW1 8282   3.880   1.241   3.685
 2758SOL    HW2 8283   3.949   1.328   3.804
 2759SOL     OW 8284   3.803   1.240   2.515
 2759SOL    HW1 8285   3.802   1.193   2.603
 2759SOL    HW2 8286   3.885   1.212   2.464
 2760SOL     OW 8287   4.396   1.391   3.486
 2760SOL    HW1 8288   4.318   1.341   3.524
 2760SOL    HW2 8289   4.393   1.486   3.517
 2761SOL     OW 8290   4.152   0.424   2.382
 2761SOL    HW1 8291   4.182   0.352   2.320
 2761SOL    HW2 8292   4.113   0.384   2.465
 2762SOL     OW 8293   4.041   0.547   3.142
 2762SOL    HW1 8294   4.079   0.488   3.214
 2762SOL    HW2 8295   4.081   0.521   3.054
 2763SOL     OW 8296   4.536   1.586   2.549
 2763SOL    HW1 8297   4.568   1.596   2.455
 2763SOL    HW2 8298   4.457   1.524   2.551
 2764SOL     OW 8299   4.725   0.034   3.016
 2764SOL    HW1 8300   4.662  -0.038   2.985
 2764SOL    HW2 8301   4.818  -0.002   3.016
 2765SOL     OW 8302   4.342   1.567   3.146
 2765SOL    HW1 8303   4.337   1.649   3.203
 2765SOL    HW2 8304   4.431   1.564   3.101
 2766SOL     OW 8305   3.763   1.077   2.162
 2766SOL    HW1 8306   3.862   1.066   2.153
 2766SOL    HW2 8307   3.723   0.991   2.194
 2767SOL     OW 8308   3.954   0.628   3.837
 2767SOL    HW1 8309   3.861   0.626   3.874
 2767SOL    HW2 8310   3.955   0.589   3.745
 2768SOL     OW 8311   3.743   0.368   4.371
 2768SOL    HW1 8312   3.661   0.411   4.410
 2768SOL    HW2 8313   3.715   0.295   4.308
 2769SOL     OW 8314   4.409   1.012   4.389
 2769SOL    HW1 8315   4.478   0.996   4.459
 2769SOL    HW2 8316   4.336   1.069   4.427
 2770SOL     OW 8317   3.955   1.713   4.207
 2770SOL    HW1 8318   3.989   1.790   4.261
 2770SOL    HW2 8319   3.999   1.713   4.117
 2771SOL     OW 8320   3.954   1.434   4.262
 2771SOL    HW1 8321   3.928   1.530   4.262
 2771SOL    HW2 8322   3.883   1.380   4.307
 2772SOL     OW 8323   3.964   1.091   4.610
 2772SOL    HW1 8324   3.978   1.007   4.662
 2772SOL    HW2 8325   3.909   1.155   4.665
 2773SOL     OW 8326   4.330   0.964   3.847
 2773SOL    HW1 8327   4.337   1.048   3.793
 2773SOL    HW2 8328   4.376   0.977   3.935
 2774SOL     OW 8329   3.846   0.643   4.287
 2774SOL    HW1 8330   3.801   0.555   4.304
 2774SOL    HW2 8331   3.845   0.697   4.371
 2775SOL     OW 8332   3.751   1.596   3.841
 2775SOL    HW1 8333   3.732   1.500   3.862
 2775SOL    HW2 8334   3.718   1.654   3.916
 2776SOL     OW 8335   4.337   1.365   4.450
 2776SOL    HW1 8336   4.288   1.278   4.459
 2776SOL    HW2 8337   4.314   1.408   4.363
 2777SOL     OW 8338   4.533   0.004   4.226
 2777SOL    HW1 8339   4.573   0.095   4.217
 2777SOL    HW2 8340   4.433   0.012   4.232
 2778SOL     OW 8341   4.322   0.729   3.994
 2778SOL    HW1 8342   4.346   0.798   3.926
 2778SOL    HW2 8343   4.244   0.762   4.048
 2779SOL     OW 8344   3.800   0.811   4.513
 2779SOL    HW1 8345   3.899   0.799   4.522
 2779SOL    HW2 8346   3.776   0.906   4.534
 2780SOL     OW 8347   4.075   1.801   4.577
 2780SOL    HW1 8348   4.125   1.715   4.583
 2780SOL    HW2 8349   4.140   1.878   4.574
 2781SOL     OW 8350   4.045   0.943   3.966
 2781SOL    HW1 8351   4.127   0.982   3.924
 2781SOL    HW2 8352   4.018   0.861   3.917
 2782SOL     OW 8353   4.188   1.743   4.047
 2782SOL    HW1 8354   4.221   1.782   4.133
 2782SOL    HW2 8355   4.264   1.736   3.982
 2783SOL     OW 8356   4.106   0.700   4.204
 2783SOL    HW1 8357   4.151   0.610   4.201
 2783SOL    HW2 8358   4.012   0.689   4.237
 2784SOL     OW 8359   4.338   0.122   3.841
 2784SOL    HW1 8360   4.436   0.100   3.848
 2784SOL    HW2 8361   4.307   0.105   3.748
 2785SOL     OW 8362   4.263   0.064   4.236
 2785SOL    HW1 8363   4.182   0.065   4.294
 2785SOL    HW2 8364   4.266   0.147   4.181
 2786SOL     OW 8365   4.021   0.035   3.895
 2786SOL    HW1 8366   4.070   0.119   3.874
 2786SOL    HW2 8367   4.083  -0.030   3.940
 2787SOL     OW 8368   4.183   1.152   4.465
 2787SOL    HW1 8369   4.112   1.125   4.530
 2787SOL    HW2 8370   4.157   1.124   4.372
 2788SOL     OW 8371   4.212   1.385   3.898
 2788SOL    HW1 8372   4.125   1.370   3.945
 2788SOL    HW2 8373   4.195   1.411   3.803
 2789SOL     OW 8374   4.251   0.256   4.052
 2789SOL    HW1 8375   4.278   0.197   3.977
 2789SOL    HW2 8376   4.251   0.351   4.021
 2790SOL     OW 8377   4.091   1.100   4.225
 2790SOL    HW1 8378   4.084   1.183   4.169
 2790SOL    HW2 8379   4.095   1.020   4.165
 2791SOL     OW 8380   4.290   0.537   4.589
 2791SOL    HW1 8381   4.302   0.603   4.515
 2791SOL    HW2 8382   4.336   0.571   4.672
 2792SOL     OW 8383   4.031   0.063   4.342
 2792SOL    HW1 8384   4.020   0.157   4.375
 2792SOL    HW2 8385   4.026   0.000   4.419
 2793SOL     OW 8386   4.792   1.333   4.573
 2793SOL    HW1 8387   4.799   1.249   4.518
 2793SOL    HW2 8388   4.854   1.402   4.537
 2794SOL     OW 8389   3.732   1.326   3.924
 2794SOL    HW1 8390   3.639   1.347   3.893
 2794SOL    HW2 8391   3.742   1.227   3.937
 2795SOL     OW 8392   4.539   0.572   4.049
 2795SOL    HW1 8393   4.546   0.483   4.003
 2795SOL    HW2 8394   4.445   0.606   4.041
 2796SOL     OW 8395   4.197   0.500   3.915
 2796SOL    HW1 8396   4.258   0.580   3.919
 2796SOL    HW2 8397   4.102   0.531   3.922
 2797SOL     OW 8398   4.627   0.086   3.857
 2797SOL    HW1 8399   4.678   0.087   3.771
 2797SOL    HW2 8400   4.683   0.044   3.928
 2798SOL     OW 8401   4.396   1.616   3.878
 2798SOL    HW1 8402   4.405   1.626   3.779
 2798SOL    HW2 8403   4.356   1.527   3.899
 2799SOL     OW 8404   3.987   0.326   4.444
 2799SOL    HW1 8405   3.908   0.377   4.410
 2799SOL    HW2 8406   3.978   0.311   4.542
 2800SOL     OW 8407   4.314   1.487   4.215
 2800SOL    HW1 8408   4.356   1.429   4.145
 2800SOL    HW2 8409   4.270   1.566   4.171
 2801SOL     OW 8410   3.979   1.348   4.014
 2801SOL    HW1 8411   3.883   1.349   3.987
 2801SOL    HW2 8412   3.991   1.401   4.098
 2802SOL     OW 8413   3.799   0.345   3.757
 2802SOL    HW1 8414   3.707   0.317   3.728
 2802SOL    HW2 8415   3.830   0.422   3.701
 2803SOL     OW 8416   3.796   0.166   4.042
 2803SOL    HW1 8417   3.779   0.249   3.988
 2803SOL    HW2 8418   3.886   0.129   4.020
 2804SOL     OW 8419   4.318   0.745   4.376
 2804SOL    HW1 8420   4.368   0.830   4.357
 2804SOL    HW2 8421   4.230   0.747   4.328
 2805SOL     OW 8422   4.385   1.790   4.677
 2805SOL    HW1 8423   4.339   1.878   4.664
 2805SOL    HW2 8424   4.484   1.802   4.670
 2806SOL     OW 8425   3.803   1.240   4.377
 2806SOL    HW1 8426   3.802   1.193   4.465
 2806SOL    HW2 8427   3.885   1.212   4.326
 2807SOL     OW 8428   4.152   0.424   4.244
 2807SOL    HW1 8429   4.182   0.352   4.182
 2807SOL    HW2 8430   4.113   0.384   4.327
 2808SOL     OW 8431   4.536   1.586   4.411
 2808SOL    HW1 8432   4.568   1.596   4.317
 2808SOL    HW2 8433   4.457   1.524   4.413
 2809SOL     OW 8434   3.763   1.077   4.024
 2809SOL    HW1 8435   3.862   1.066   4.015
 2809SOL    HW2 8436   3.723   0.991   4.056
 2810SOL     OW 8437   3.954   2.490   0.113
 2810SOL    HW1 8438   3.861   2.488   0.150
 2810SOL    HW2 8439   3.955   2.451   0.021
 2811SOL     OW 8440   3.949   2.137   0.996
 2811SOL    HW1 8441   3.984   2.120   1.088
 2811SOL    HW2 8442   3.861   2.092   0.984
 2812SOL     OW 8443   3.743   2.230   0.647
 2812SOL    HW1 8444   3.661   2.273   0.686
 2812SOL    HW2 8445   3.715   2.157   0.584
 2813SOL     OW 8446   4.293   3.137   1.165
 2813SOL    HW1 8447   4.200   3.130   1.128
 2813SOL    HW2 8448   4.304   3.226   1.209
 2814SOL     OW 8449   4.574   2.660   1.823
 2814SOL    HW1 8450   4.570   2.736   1.888
 2814SOL    HW2 8451   4.596   2.696   1.732
 2815SOL     OW 8452   4.409   2.874   0.665
 2815SOL    HW1 8453   4.478   2.858   0.735
 2815SOL    HW2 8454   4.336   2.931   0.703
 2816SOL     OW 8455   4.410   3.023   1.803
 2816SOL    HW1 8456   4.470   3.102   1.817
 2816SOL    HW2 8457   4.324   3.054   1.762
 2817SOL     OW 8458   4.059   3.297   1.061
 2817SOL    HW1 8459   3.981   3.266   1.008
 2817SOL    HW2 8460   4.117   3.355   1.004
 2818SOL     OW 8461   4.162   2.254   1.499
 2818SOL    HW1 8462   4.244   2.198   1.508
 2818SOL    HW2 8463   4.081   2.196   1.503
 2819SOL     OW 8464   3.955   3.575   0.483
 2819SOL    HW1 8465   3.989   3.652   0.537
 2819SOL    HW2 8466   3.999   3.575   0.393
 2820SOL     OW 8467   3.954   3.296   0.538
 2820SOL    HW1 8468   3.928   3.392   0.538
 2820SOL    HW2 8469   3.883   3.242   0.583
 2821SOL     OW 8470   3.964   2.953   0.886
 2821SOL    HW1 8471   3.978   2.869   0.938
 2821SOL    HW2 8472   3.909   3.017   0.941
 2822SOL     OW 8473   4.344   3.648   1.439
 2822SOL    HW1 8474   4.252   3.631   1.474
 2822SOL    HW2 8475   4.372   3.740   1.465
 2823SOL     OW 8476   4.330   2.826   0.123
 2823SOL    HW1 8477   4.337   2.910   0.069
 2823SOL    HW2 8478   4.376   2.839   0.211
 2824SOL     OW 8479   3.846   2.505   0.563
 2824SOL    HW1 8480   3.801   2.417   0.580
 2824SOL    HW2 8481   3.845   2.559   0.647
 2825SOL     OW 8482   3.751   3.458   0.117
 2825SOL    HW1 8483   3.732   3.362   0.138
 2825SOL    HW2 8484   3.718   3.516   0.192
 2826SOL     OW 8485   3.837   2.599   1.597
 2826SOL    HW1 8486   3.925   2.586   1.642
 2826SOL    HW2 8487   3.824   2.696   1.575
 2827SOL     OW 8488   4.337   3.227   0.726
 2827SOL    HW1 8489   4.288   3.140   0.735
 2827SOL    HW2 8490   4.314   3.270   0.639
 2828SOL     OW 8491   4.533   1.866   0.502
 2828SOL    HW1 8492   4.573   1.957   0.493
 2828SOL    HW2 8493   4.433   1.874   0.508
 2829SOL     OW 8494   3.921   2.838   1.264
 2829SOL    HW1 8495   4.010   2.793   1.250
 2829SOL    HW2 8496   3.848   2.773   1.245
 2830SOL     OW 8497   4.041   2.113   1.801
 2830SOL    HW1 8498   4.112   2.184   1.807
 2830SOL    HW2 8499   3.953   2.152   1.829
 2831SOL     OW 8500   4.322   2.591   0.270
 2831SOL    HW1 8501   4.346   2.660   0.202
 2831SOL    HW2 8502   4.244   2.624   0.324
 2832SOL     OW 8503   3.800   2.673   0.789
 2832SOL    HW1 8504   3.899   2.661   0.798
 2832SOL    HW2 8505   3.776   2.768   0.810
 2833SOL     OW 8506   3.854   3.683   1.571
 2833SOL    HW1 8507   3.844   3.668   1.670
 2833SOL    HW2 8508   3.768   3.719   1.535
 2834SOL     OW 8509   4.274   2.058   0.885
 2834SOL    HW1 8510   4.269   2.053   0.985
 2834SOL    HW2 8511   4.276   2.154   0.856
 2835SOL     OW 8512   4.075   3.663   0.853
 2835SOL    HW1 8513   4.125   3.577   0.859
 2835SOL    HW2 8514   4.140   3.740   0.850
 2836SOL     OW 8515   4.045   2.805   0.242
 2836SOL    HW1 8516   4.127   2.844   0.200
 2836SOL    HW2 8517   4.018   2.723   0.193
 2837SOL     OW 8518   4.185   3.128   1.727
 2837SOL    HW1 8519   4.135   3.129   1.641
 2837SOL    HW2 8520   4.122   3.110   1.803
 2838SOL     OW 8521   3.926   2.147   1.498
 2838SOL    HW1 8522   3.846   2.207   1.485
 2838SOL    HW2 8523   3.916   2.098   1.584
 2839SOL     OW 8524   4.188   3.605   0.323
 2839SOL    HW1 8525   4.221   3.644   0.409
 2839SOL    HW2 8526   4.264   3.598   0.258
 2840SOL     OW 8527   3.973   3.647   1.241
 2840SOL    HW1 8528   4.030   3.582   1.291
 2840SOL    HW2 8529   3.957   3.614   1.148
 2841SOL     OW 8530   4.106   2.562   0.480
 2841SOL    HW1 8531   4.151   2.472   0.477
 2841SOL    HW2 8532   4.012   2.551   0.513
 2842SOL     OW 8533   4.527   3.264   0.924
 2842SOL    HW1 8534   4.617   3.278   0.882
 2842SOL    HW2 8535   4.456   3.266   0.853
 2843SOL     OW 8536   4.646   2.365   0.899
 2843SOL    HW1 8537   4.621   2.356   0.803
 2843SOL    HW2 8538   4.694   2.283   0.930
 2844SOL     OW 8539   4.263   1.926   0.512
 2844SOL    HW1 8540   4.182   1.927   0.570
 2844SOL    HW2 8541   4.266   2.009   0.457
 2845SOL     OW 8542   4.021   1.897   0.171
 2845SOL    HW1 8543   4.070   1.981   0.150
 2845SOL    HW2 8544   4.083   1.832   0.216
 2846SOL     OW 8545   4.183   3.014   0.741
 2846SOL    HW1 8546   4.112   2.987   0.806
 2846SOL    HW2 8547   4.157   2.986   0.648
 2847SOL     OW 8548   3.802   2.418   1.386
 2847SOL    HW1 8549   3.894   2.417   1.345
 2847SOL    HW2 8550   3.796   2.492   1.453
 2848SOL     OW 8551   4.285   2.084   1.147
 2848SOL    HW1 8552   4.323   2.000   1.184
 2848SOL    HW2 8553   4.197   2.103   1.191
 2849SOL     OW 8554   4.212   3.247   0.174
 2849SOL    HW1 8555   4.125   3.232   0.221
 2849SOL    HW2 8556   4.195   3.273   0.079
 2850SOL     OW 8557   4.251   2.118   0.328
 2850SOL    HW1 8558   4.278   2.059   0.253
 2850SOL    HW2 8559   4.251   2.213   0.297
 2851SOL     OW 8560   4.639   1.951   1.402
 2851SOL    HW1 8561   4.664   1.931   1.307
 2851SOL    HW2 8562   4.711   2.007   1.444
 2852SOL     OW 8563   4.134   2.675   1.251
 2852SOL    HW1 8564   4.220   2.687   1.301
 2852SOL    HW2 8565   4.092   2.588   1.278
 2853SOL     OW 8566   3.788   3.426   1.331
 2853SOL    HW1 8567   3.742   3.508   1.297
 2853SOL    HW2 8568   3.886   3.445   1.340
 2854SOL     OW 8569   4.091   2.962   0.501
 2854SOL    HW1 8570   4.084   3.045   0.445
 2854SOL    HW2 8571   4.095   2.882   0.441
 2855SOL     OW 8572   4.290   2.399   0.865
 2855SOL    HW1 8573   4.302   2.465   0.791
 2855SOL    HW2 8574   4.336   2.433   0.948
 2856SOL     OW 8575   4.078   3.372   1.329
 2856SOL    HW1 8576   4.057   3.328   1.242
 2856SOL    HW2 8577   4.175   3.398   1.332
 2857SOL     OW 8578   4.126   2.613   1.598
 2857SOL    HW1 8579   4.194   2.668   1.551
 2857SOL    HW2 8580   4.166   2.525   1.625
 2858SOL     OW 8581   4.228   1.912   1.740
 2858SOL    HW1 8582   4.186   1.855   1.670
 2858SOL    HW2 8583   4.162   1.981   1.772
 2859SOL     OW 8584   4.297   2.732   1.029
 2859SOL    HW1 8585   4.341   2.821   1.020
 2859SOL    HW2 8586   4.234   2.732   1.106
 2860SOL     OW 8587   4.031   2.075   1.231
 2860SOL    HW1 8588   4.008   2.112   1.321
 2860SOL    HW2 8589   4.001   1.980   1.225
 2861SOL     OW 8590   3.761   3.172   1.282
 2861SOL    HW1 8591   3.814   3.123   1.350
 2861SOL    HW2 8592   3.783   3.270   1.287
 2862SOL     OW 8593   4.456   2.496   1.064
 2862SOL    HW1 8594   4.515   2.470   0.988
 2862SOL    HW2 8595   4.428   2.592   1.053
 2863SOL     OW 8596   4.031   1.925   0.618
 2863SOL    HW1 8597   4.020   2.019   0.651
 2863SOL    HW2 8598   4.026   1.862   0.695
 2864SOL     OW 8599   4.074   2.760   1.804
 2864SOL    HW1 8600   4.150   2.804   1.852
 2864SOL    HW2 8601   4.109   2.713   1.722
 2865SOL     OW 8602   4.792   3.195   0.849
 2865SOL    HW1 8603   4.799   3.111   0.794
 2865SOL    HW2 8604   4.854   3.264   0.813
 2866SOL     OW 8605   4.043   2.672   0.949
 2866SOL    HW1 8606   4.136   2.708   0.954
 2866SOL    HW2 8607   4.037   2.587   1.001
 2867SOL     OW 8608   4.063   2.371   1.006
 2867SOL    HW1 8609   4.011   2.288   0.989
 2867SOL    HW2 8610   4.140   2.376   0.942
 2868SOL     OW 8611   3.732   3.188   0.200
 2868SOL    HW1 8612   3.639   3.209   0.169
 2868SOL    HW2 8613   3.742   3.089   0.213
 2869SOL     OW 8614   3.812   3.663   0.927
 2869SOL    HW1 8615   3.770   3.577   0.900
 2869SOL    HW2 8616   3.906   3.666   0.893
 2870SOL     OW 8617   4.228   3.430   0.910
 2870SOL    HW1 8618   4.294   3.504   0.919
 2870SOL    HW2 8619   4.272   3.351   0.868
 2871SOL     OW 8620   3.764   2.406   1.114
 2871SOL    HW1 8621   3.849   2.373   1.073
 2871SOL    HW2 8622   3.777   2.421   1.212
 2872SOL     OW 8623   3.913   2.382   1.722
 2872SOL    HW1 8624   3.972   2.342   1.652
 2872SOL    HW2 8625   3.855   2.453   1.681
 2873SOL     OW 8626   4.539   2.434   0.325
 2873SOL    HW1 8627   4.546   2.345   0.279
 2873SOL    HW2 8628   4.445   2.468   0.317
 2874SOL     OW 8629   3.976   3.426   1.744
 2874SOL    HW1 8630   3.946   3.483   1.820
 2874SOL    HW2 8631   3.969   3.329   1.770
 2875SOL     OW 8632   4.395   2.326   1.269
 2875SOL    HW1 8633   4.361   2.237   1.239
 2875SOL    HW2 8634   4.421   2.380   1.189
 2876SOL     OW 8635   4.197   2.362   0.191
 2876SOL    HW1 8636   4.258   2.442   0.195
 2876SOL    HW2 8637   4.102   2.393   0.198
 2877SOL     OW 8638   3.883   2.999   1.466
 2877SOL    HW1 8639   3.905   2.938   1.542
 2877SOL    HW2 8640   3.893   2.950   1.380
 2878SOL     OW 8641   3.807   3.120   1.022
 2878SOL    HW1 8642   3.802   3.119   1.122
 2878SOL    HW2 8643   3.724   3.079   0.984
 2879SOL     OW 8644   4.412   3.524   1.716
 2879SOL    HW1 8645   4.356   3.605   1.725
 2879SOL    HW2 8646   4.464   3.528   1.630
 2880SOL     OW 8647   4.627   1.948   0.133
 2880SOL    HW1 8648   4.678   1.949   0.047
 2880SOL    HW2 8649   4.683   1.906   0.204
 2881SOL     OW 8650   3.854   3.656   1.851
 2881SOL    HW1 8651   3.813   3.582   1.904
 2881SOL    HW2 8652   3.918   3.707   1.909
 2882SOL     OW 8653   4.396   3.478   0.154
 2882SOL    HW1 8654   4.405   3.488   0.055
 2882SOL    HW2 8655   4.356   3.389   0.175
 2883SOL     OW 8656   3.987   2.188   0.720
 2883SOL    HW1 8657   3.908   2.239   0.686
 2883SOL    HW2 8658   3.978   2.173   0.818
 2884SOL     OW 8659   4.546   2.864   1.372
 2884SOL    HW1 8660   4.586   2.863   1.280
 2884SOL    HW2 8661   4.556   2.956   1.412
 2885SOL     OW 8662   4.096   3.150   1.490
 2885SOL    HW1 8663   4.083   3.243   1.456
 2885SOL    HW2 8664   4.012   3.098   1.477
 2886SOL     OW 8665   4.314   3.349   0.491
 2886SOL    HW1 8666   4.356   3.291   0.421
 2886SOL    HW2 8667   4.270   3.428   0.447
 2887SOL     OW 8668   3.979   3.210   0.290
 2887SOL    HW1 8669   3.883   3.211   0.263
 2887SOL    HW2 8670   3.991   3.263   0.374
 2888SOL     OW 8671   3.829   2.875   1.726
 2888SOL    HW1 8672   3.752   2.842   1.780
 2888SOL    HW2 8673   3.914   2.845   1.768
 2889SOL     OW 8674   4.396   2.065   1.489
 2889SOL    HW1 8675   4.486   2.049   1.449
 2889SOL    HW2 8676   4.404   2.070   1.588
 2890SOL     OW 8677   3.799   2.207   0.033
 2890SOL    HW1 8678   3.707   2.179   0.004
 2890SOL    HW2 8679   3.830   2.284  -0.023
 2891SOL     OW 8680   3.796   2.028   0.318
 2891SOL    HW1 8681   3.779   2.111   0.264
 2891SOL    HW2 8682   3.886   1.991   0.296
 2892SOL     OW 8683   4.337   2.704   1.431
 2892SOL    HW1 8684   4.393   2.785   1.414
 2892SOL    HW2 8685   4.396   2.624   1.434
 2893SOL     OW 8686   4.440   2.427   1.708
 2893SOL    HW1 8687   4.459   2.492   1.782
 2893SOL    HW2 8688   4.500   2.347   1.717
 2894SOL     OW 8689   4.114   3.603   1.560
 2894SOL    HW1 8690   4.023   3.644   1.558
 2894SOL    HW2 8691   4.107   3.509   1.592
 2895SOL     OW 8692   4.318   2.607   0.652
 2895SOL    HW1 8693   4.368   2.692   0.633
 2895SOL    HW2 8694   4.230   2.609   0.604
 2896SOL     OW 8695   4.385   3.652   0.953
 2896SOL    HW1 8696   4.339   3.740   0.940
 2896SOL    HW2 8697   4.484   3.664   0.946
 2897SOL     OW 8698   3.945   3.176   1.844
 2897SOL    HW1 8699   3.880   3.103   1.823
 2897SOL    HW2 8700   3.949   3.190   1.942
 2898SOL     OW 8701   3.803   3.102   0.653
 2898SOL    HW1 8702   3.802   3.055   0.741
 2898SOL    HW2 8703   3.885   3.074   0.602
 2899SOL     OW 8704   4.396   3.253   1.624
 2899SOL    HW1 8705   4.318   3.203   1.662
 2899SOL    HW2 8706   4.393   3.348   1.655
 2900SOL     OW 8707   4.152   2.286   0.520
 2900SOL    HW1 8708   4.182   2.214   0.458
 2900SOL    HW2 8709   4.113   2.246   0.603
 2901SOL     OW 8710   4.041   2.409   1.280
 2901SOL    HW1 8711   4.079   2.350   1.352
 2901SOL    HW2 8712   4.081   2.383   1.192
 2902SOL     OW 8713   4.536   3.448   0.687
 2902SOL    HW1 8714   4.568   3.458   0.593
 2902SOL    HW2 8715   4.457   3.386   0.689
 2903SOL     OW 8716   4.342   3.429   1.284
 2903SOL    HW1 8717   4.337   3.511   1.341
 2903SOL    HW2 8718   4.431   3.426   1.239
 2904SOL     OW 8719   3.763   2.939   0.300
 2904SOL    HW1 8720   3.862   2.928   0.291
 2904SOL    HW2 8721   3.723   2.853   0.332
 2905SOL     OW 8722   3.954   2.490   1.975
 2905SOL    HW1 8723   3.861   2.488   2.012
 2905SOL    HW2 8724   3.955   2.451   1.883
 2906SOL     OW 8725   3.949   2.137   2.858
 2906SOL    HW1 8726   3.984   2.120   2.950
 2906SOL    HW2 8727   3.861   2.092   2.846
 2907SOL     OW 8728   3.743   2.230   2.509
 2907SOL    HW1 8729   3.661   2.273   2.548
 2907SOL    HW2 8730   3.715   2.157   2.446
 2908SOL     OW 8731   4.293   3.137   3.027
 2908SOL    HW1 8732   4.200   3.130   2.990
 2908SOL    HW2 8733   4.304   3.226   3.071
 2909SOL     OW 8734   4.574   2.660   3.685
 2909SOL    HW1 8735   4.570   2.736   3.750
 2909SOL    HW2 8736   4.596   2.696   3.594
 2910SOL     OW 8737   4.409   2.874   2.527
 2910SOL    HW1 8738   4.478   2.858   2.597
 2910SOL    HW2 8739   4.336   2.931   2.565
 2911SOL     OW 8740   4.410   3.023   3.665
 2911SOL    HW1 8741   4.470   3.102   3.679
 2911SOL    HW2 8742   4.324   3.054   3.624
 2912SOL     OW 8743   4.059   3.297   2.923
 2912SOL    HW1 8744   3.981   3.266   2.870
 2912SOL    HW2 8745   4.117   3.355   2.866
 2913SOL     OW 8746   4.162   2.254   3.361
 2913SOL    HW1 8747   4.244   2.198   3.370
 2913SOL    HW2 8748   4.081   2.196   3.365
 2914SOL     OW 8749   3.955   3.575   2.345
 2914SOL    HW1 8750   3.989   3.652   2.399
 2914SOL    HW2 8751   3.999   3.575   2.255
 2915SOL     OW 8752   3.954   3.296   2.400
 2915SOL    HW1 8753   3.928   3.392   2.400
 2915SOL    HW2 8754   3.883   3.242   2.445
 2916SOL     OW 8755   3.964   2.953   2.748
 2916SOL    HW1 8756   3.978   2.869   2.800
 2916SOL    HW2 8757   3.909   3.017   2.803
 2917SOL     OW 8758   4.344   3.648   3.301
 2917SOL    HW1 8759   4.252   3.631   3.336
 2917SOL    HW2 8760   4.372   3.740   3.327
 2918SOL     OW 8761   4.330   2.826   1.985
 2918SOL    HW1 8762   4.337   2.910   1.931
 2918SOL    HW2 8763   4.376   2.839   2.073
 2919SOL     OW 8764   3.846   2.505   2.425
 2919SOL    HW1 8765   3.801   2.417   2.442
 2919SOL    HW2 8766   3.845   2.559   2.509
 2920SOL     OW 8767   3.751   3.458   1.979
 2920SOL    HW1 8768   3.732   3.362   2.000
 2920SOL    HW2 8769   3.718   3.516   2.054
 2921SOL     OW 8770   3.837   2.599   3.459
 2921SOL    HW1 8771   3.925   2.586   3.504
 2921SOL    HW2 8772   3.824   2.696   3.437
 2922SOL     OW 8773   4.337   3.227   2.588
 2922SOL    HW1 8774   4.288   3.140   2.597
 2922SOL    HW2 8775   4.314   3.270   2.501
 2923SOL     OW 8776   4.533   1.866   2.364
 2923SOL    HW1 8777   4.573   1.957   2.355
 2923SOL    HW2 8778   4.433   1.874   2.370
 2924SOL     OW 8779   3.921   2.838   3.126
 2924SOL    HW1 8780   4.010   2.793   3.112
 2924SOL    HW2 8781   3.848   2.773   3.107
 2925SOL     OW 8782   4.041   2.113   3.663
 2925SOL    HW1 8783   4.112   2.184   3.669
 2925SOL    HW2 8784   3.953   2.152   3.691
 2926SOL     OW 8785   4.322   2.591   2.132
 2926SOL    HW1 8786   4.346   2.660   2.064
 2926SOL    HW2 8787   4.244   2.624   2.186
 2927SOL     OW 8788   3.800   2.673   2.651
 2927SOL    HW1 8789   3.899   2.661   2.660
 2927SOL    HW2 8790   3.776   2.768   2.672
 2928SOL     OW 8791   3.854   3.683   3.433
 2928SOL    HW1 8792   3.844   3.668   3.532
 2928SOL    HW2 8793   3.768   3.719   3.397
 2929SOL     OW 8794   4.274   2.058   2.747
 2929SOL    HW1 8795   4.269   2.053   2.847
 2929SOL    HW2 8796   4.276   2.154   2.718
 2930SOL     OW 8797   4.075   3.663   2.715
 2930SOL    HW1 8798   4.125   3.577   2.721
 2930SOL    HW2 8799   4.140   3.740   2.712
 2931SOL     OW 8800   4.045   2.805   2.104
 2931SOL    HW1 8801   4.127   2.844   2.062
 2931SOL    HW2 8802   4.018   2.723   2.055
 2932SOL     OW 8803   4.185   3.128   3.589
 2932SOL    HW1 8804   4.135   3.129   3.503
 2932SOL    HW2 8805   4.122   3.110   3.665
 2933SOL     OW 8806   3.926   2.147   3.360
 2933SOL    HW1 8807   3.846   2.207   3.347
 2933SOL    HW2 8808   3.916   2.098   3.446
 2934SOL     OW 8809   4.188   3.605   2.185
 2934SOL    HW1 8810   4.221   3.644   2.271
 2934SOL    HW2 8811   4.264   3.598   2.120
 2935SOL     OW 8812   3.973   3.647   3.103
 2935SOL    HW1 8813   4.030   3.582   3.153
 2935SOL    HW2 8814   3.957   3.614   3.010
 2936SOL     OW 8815   4.106   2.562   2.342
 2936SOL    HW1 8816   4.151   2.472   2.339
 2936SOL    HW2 8817   4.012   2.551   2.375
 2937SOL     OW 8818   4.338   1.984   1.979
 2937SOL    HW1 8819   4.436   1.962   1.986
 2937SOL    HW2 8820   4.307   1.967   1.886
 2938SOL     OW 8821   4.527   3.264   2.786
 2938SOL    HW1 8822   4.617   3.278   2.744
 2938SOL    HW2 8823   4.456   3.266   2.715
 2939SOL     OW 8824   4.646   2.365   2.761
 2939SOL    HW1 8825   4.621   2.356   2.665
 2939SOL    HW2 8826   4.694   2.283   2.792
 2940SOL     OW 8827   4.263   1.926   2.374
 2940SOL    HW1 8828   4.182   1.927   2.432
 2940SOL    HW2 8829   4.266   2.009   2.319
 2941SOL     OW 8830   4.021   1.897   2.033
 2941SOL    HW1 8831   4.070   1.981   2.012
 2941SOL    HW2 8832   4.083   1.832   2.078
 2942SOL     OW 8833   4.183   3.014   2.603
 2942SOL    HW1 8834   4.112   2.987   2.668
 2942SOL    HW2 8835   4.157   2.986   2.510
 2943SOL     OW 8836   3.802   2.418   3.248
 2943SOL    HW1 8837   3.894   2.417   3.207
 2943SOL    HW2 8838   3.796   2.492   3.315
 2944SOL     OW 8839   4.285   2.084   3.009
 2944SOL    HW1 8840   4.323   2.000   3.046
 2944SOL    HW2 8841   4.197   2.103   3.053
 2945SOL     OW 8842   4.212   3.247   2.036
 2945SOL    HW1 8843   4.125   3.232   2.083
 2945SOL    HW2 8844   4.195   3.273   1.941
 2946SOL     OW 8845   4.251   2.118   2.190
 2946SOL    HW1 8846   4.278   2.059   2.115
 2946SOL    HW2 8847   4.251   2.213   2.159
 2947SOL     OW 8848   4.639   1.951   3.264
 2947SOL    HW1 8849   4.664   1.931   3.169
 2947SOL    HW2 8850   4.711   2.007   3.306
 2948SOL     OW 8851   4.134   2.675   3.113
 2948SOL    HW1 8852   4.220   2.687   3.163
 2948SOL    HW2 8853   4.092   2.588   3.140
 2949SOL     OW 8854   3.788   3.426   3.193
 2949SOL    HW1 8855   3.742   3.508   3.159
 2949SOL    HW2 8856   3.886   3.445   3.202
 2950SOL     OW 8857   4.091   2.962   2.363
 2950SOL    HW1 8858   4.084   3.045   2.307
 2950SOL    HW2 8859   4.095   2.882   2.303
 2951SOL     OW 8860   4.290   2.399   2.727
 2951SOL    HW1 8861   4.302   2.465   2.653
 2951SOL    HW2 8862   4.336   2.433   2.810
 2952SOL     OW 8863   4.078   3.372   3.191
 2952SOL    HW1 8864   4.057   3.328   3.104
 2952SOL    HW2 8865   4.175   3.398   3.194
 2953SOL     OW 8866   4.126   2.613   3.460
 2953SOL    HW1 8867   4.194   2.668   3.413
 2953SOL    HW2 8868   4.166   2.525   3.487
 2954SOL     OW 8869   4.228   1.912   3.602
 2954SOL    HW1 8870   4.186   1.855   3.532
 2954SOL    HW2 8871   4.162   1.981   3.634
 2955SOL     OW 8872   4.297   2.732   2.891
 2955SOL    HW1 8873   4.341   2.821   2.882
 2955SOL    HW2 8874   4.234   2.732   2.968
 2956SOL     OW 8875   4.031   2.075   3.093
 2956SOL    HW1 8876   4.008   2.112   3.183
 2956SOL    HW2 8877   4.001   1.980   3.087
 2957SOL     OW 8878   3.761   3.172   3.144
 2957SOL    HW1 8879   3.814   3.123   3.212
 2957SOL    HW2 8880   3.783   3.270   3.149
 2958SOL     OW 8881   4.456   2.496   2.926
 2958SOL    HW1 8882   4.515   2.470   2.850
 2958SOL    HW2 8883   4.428   2.592   2.915
 2959SOL     OW 8884   4.031   1.925   2.480
 2959SOL    HW1 8885   4.020   2.019   2.513
 2959SOL    HW2 8886   4.026   1.862   2.557
 2960SOL     OW 8887   4.074   2.760   3.666
 2960SOL    HW1 8888   4.150   2.804   3.714
 2960SOL    HW2 8889   4.109   2.713   3.584
 2961SOL     OW 8890   4.792   3.195   2.711
 2961SOL    HW1 8891   4.799   3.111   2.656
 2961SOL    HW2 8892   4.854   3.264   2.675
 2962SOL     OW 8893   4.043   2.672   2.811
 2962SOL    HW1 8894   4.136   2.708   2.816
 2962SOL    HW2 8895   4.037   2.587   2.863
 2963SOL     OW 8896   4.063   2.371   2.868
 2963SOL    HW1 8897   4.011   2.288   2.851
 2963SOL    HW2 8898   4.140   2.376   2.804
 2964SOL     OW 8899   3.732   3.188   2.062
 2964SOL    HW1 8900   3.639   3.209   2.031
 2964SOL    HW2 8901   3.742   3.089   2.075
 2965SOL     OW 8902   3.812   3.663   2.789
 2965SOL    HW1 8903   3.770   3.577   2.762
 2965SOL    HW2 8904   3.906   3.666   2.755
 2966SOL     OW 8905   4.228   3.430   2.772
 2966SOL    HW1 8906   4.294   3.504   2.781
 2966SOL    HW2 8907   4.272   3.351   2.730
 2967SOL     OW 8908   3.764   2.406   2.976
 2967SOL    HW1 8909   3.849   2.373   2.935
 2967SOL    HW2 8910   3.777   2.421   3.074
 2968SOL     OW 8911   3.913   2.382   3.584
 2968SOL    HW1 8912   3.972   2.342   3.514
 2968SOL    HW2 8913   3.855   2.453   3.543
 2969SOL     OW 8914   4.539   2.434   2.187
 2969SOL    HW1 8915   4.546   2.345   2.141
 2969SOL    HW2 8916   4.445   2.468   2.179
 2970SOL     OW 8917   3.976   3.426   3.606
 2970SOL    HW1 8918   3.946   3.483   3.682
 2970SOL    HW2 8919   3.969   3.329   3.632
 2971SOL     OW 8920   4.395   2.326   3.131
 2971SOL    HW1 8921   4.361   2.237   3.101
 2971SOL    HW2 8922   4.421   2.380   3.051
 2972SOL     OW 8923   4.197   2.362   2.053
 2972SOL    HW1 8924   4.258   2.442   2.057
 2972SOL    HW2 8925   4.102   2.393   2.060
 2973SOL     OW 8926   3.883   2.999   3.328
 2973SOL    HW1 8927   3.905   2.938   3.404
 2973SOL    HW2 8928   3.893   2.950   3.242
 2974SOL     OW 8929   3.807   3.120   2.884
 2974SOL    HW1 8930   3.802   3.119   2.984
 2974SOL    HW2 8931   3.724   3.079   2.846
 2975SOL     OW 8932   4.412   3.524   3.578
 2975SOL    HW1 8933   4.356   3.605   3.587
 2975SOL    HW2 8934   4.464   3.528   3.492
 2976SOL     OW 8935   4.627   1.948   1.995
 2976SOL    HW1 8936   4.678   1.949   1.909
 2976SOL    HW2 8937   4.683   1.906   2.066
 2977SOL     OW 8938   3.854   3.656   3.713
 2977SOL    HW1 8939   3.813   3.582   3.766
 2977SOL    HW2 8940   3.918   3.707   3.771
 2978SOL     OW 8941   4.396   3.478   2.016
 2978SOL    HW1 8942   4.405   3.488   1.917
 2978SOL    HW2 8943   4.356   3.389   2.037
 2979SOL     OW 8944   3.987   2.188   2.582
 2979SOL    HW1 8945   3.908   2.239   2.548
 2979SOL    HW2 8946   3.978   2.173   2.680
 2980SOL     OW 8947   4.546   2.864   3.234
 2980SOL    HW1 8948   4.586   2.863   3.142
 2980SOL    HW2 8949   4.556   2.956   3.274
 2981SOL     OW 8950   4.096   3.150   3.352
 2981SOL    HW1 8951   4.083   3.243   3.318
 2981SOL    HW2 8952   4.012   3.098   3.339
 2982SOL     OW 8953   4.314   3.349   2.353
 2982SOL    HW1 8954   4.356   3.291   2.283
 2982SOL    HW2 8955   4.270   3.428   2.309
 2983SOL     OW 8956   3.979   3.210   2.152
 2983SOL    HW1 8957   3.883   3.211   2.125
 2983SOL    HW2 8958   3.991   3.263   2.236
 2984SOL     OW 8959   3.829   2.875   3.588
 2984SOL    HW1 8960   3.752   2.842   3.642
 2984SOL    HW2 8961   3.914   2.845   3.630
 2985SOL     OW 8962   4.396   2.065   3.351
 2985SOL    HW1 8963   4.486   2.049   3.311
 2985SOL    HW2 8964   4.404   2.070   3.450
 2986SOL     OW 8965   3.799   2.207   1.895
 2986SOL    HW1 8966   3.707   2.179   1.866
 2986SOL    HW2 8967   3.830   2.284   1.839
 2987SOL     OW 8968   3.796   2.028   2.180
 2987SOL    HW1 8969   3.779   2.111   2.126
 2987SOL    HW2 8970   3.886   1.991   2.158
 2988SOL     OW 8971   4.337   2.704   3.293
 2988SOL    HW1 8972   4.393   2.785   3.276
 2988SOL    HW2 8973   4.396   2.624   3.296
 2989SOL     OW 8974   4.440   2.427   3.570
 2989SOL    HW1 8975   4.459   2.492   3.644
 2989SOL    HW2 8976   4.500   2.347   3.579
 2990SOL     OW 8977   4.114   3.603   3.422
 2990SOL    HW1 8978   4.023   3.644   3.420
 2990SOL    HW2 8979   4.107   3.509   3.454
 2991SOL     OW 8980   4.318   2.607   2.514
 2991SOL    HW1 8981   4.368   2.692   2.495
 2991SOL    HW2 8982   4.230   2.609   2.466
 2992SOL     OW 8983   4.385   3.652   2.815
 2992SOL    HW1 8984   4.339   3.740   2.802
 2992SOL    HW2 8985   4.484   3.664   2.808
 2993SOL     OW 8986   3.945   3.176   3.706
 2993SOL    HW1 8987   3.880   3.103   3.685
 2993SOL    HW2 8988   3.949   3.190   3.804
 2994SOL     OW 8989   3.803   3.102   2.515
 2994SOL    HW1 8990   3.802   3.055   2.603
 2994SOL    HW2 8991   3.885   3.074   2.464
 2995SOL     OW 8992   4.396   3.253   3.486
 2995SOL    HW1 8993   4.318   3.203   3.524
 2995SOL    HW2 8994   4.393   3.348   3.517
 2996SOL     OW 8995   4.152   2.286   2.382
 2996SOL    HW1 8996   4.182   2.214   2.320
 2996SOL    HW2 8997   4.113   2.246   2.465
 2997SOL     OW 8998   4.041   2.409   3.142
 2997SOL    HW1 8999   4.079   2.350   3.214
 2997SOL    HW2 9000   4.081   2.383   3.054
 2998SOL     OW 9001   4.536   3.448   2.549
 2998SOL    HW1 9002   4.568   3.458   2.455
 2998SOL    HW2 9003   4.457   3.386   2.551
 2999SOL     OW 9004   4.342   3.429   3.146
 2999SOL    HW1 9005   4.337   3.511   3.203
 2999SOL    HW2 9006   4.431   3.426   3.101
 3000SOL     OW 9007   3.763   2.939   2.162
 3000SOL    HW1 9008   3.862   2.928   2.153
 3000SOL    HW2 9009   3.723   2.853   2.194
 3001SOL     OW 9010   3.954   2.490   3.837
 3001SOL    HW1 9011   3.861   2.488   3.874
 3001SOL    HW2 9012   3.955   2.451   3.745
 3002SOL     OW 9013   3.743   2.230   4.371
 3002SOL    HW1 9014   3.661   2.273   4.410
 3002SOL    HW2 9015   3.715   2.157   4.308
 3003SOL     OW 9016   4.409   2.874   4.389
 3003SOL    HW1 9017   4.478   2.858   4.459
 3003SOL    HW2 9018   4.336   2.931   4.427
 3004SOL     OW 9019   3.955   3.575   4.207
 3004SOL    HW1 9020   3.989   3.652   4.261
 3004SOL    HW2 9021   3.999   3.575   4.117
 3005SOL     OW 9022   3.954   3.296   4.262
 3005SOL    HW1 9023   3.928   3.392   4.262
 3005SOL    HW2 9024   3.883   3.242   4.307
 3006SOL     OW 9025   3.964   2.953   4.610
 3006SOL    HW1 9026   3.978   2.869   4.662
 3006SOL    HW2 9027   3.909   3.017   4.665
 3007SOL     OW 9028   4.330   2.826   3.847
 3007SOL    HW1 9029   4.337   2.910   3.793
 3007SOL    HW2 9030   4.376   2.839   3.935
 3008SOL     OW 9031   3.846   2.505   4.287
 3008SOL    HW1 9032   3.801   2.417   4.304
 3008SOL    HW2 9033   3.845   2.559   4.371
 3009SOL     OW 9034   3.751   3.458   3.841
 3009SOL    HW1 9035   3.732   3.362   3.862
 3009SOL    HW2 9036   3.718   3.516   3.916
 3010SOL     OW 9037   4.337   3.227   4.450
 3010SOL    HW1 9038   4.288   3.140   4.459
 3010SOL    HW2 9039   4.314   3.270   4.363
 3011SOL     OW 9040   4.533   1.866   4.226
 3011SOL    HW1 9041   4.573   1.957   4.217
 3011SOL    HW2 9042   4.433   1.874   4.232
 3012SOL     OW 9043   4.322   2.591   3.994
 3012SOL    HW1 9044   4.346   2.660   3.926
 3012SOL    HW2 9045   4.244   2.624   4.048
 3013SOL     OW 9046   3.800   2.673   4.513
 3013SOL    HW1 9047   3.899   2.661   4.522
 3013SOL    HW2 9048   3.776   2.768   4.534
 3014SOL     OW 9049   4.274   2.058   4.609
 3014SOL    HW1 9050   4.269   2.053   4.709
 3014SOL    HW2 9051   4.276   2.154   4.580
 3015SOL     OW 9052   4.075   3.663   4.577
 3015SOL    HW1 9053   4.125   3.577   4.583
 3015SOL    HW2 9054   4.140   3.740   4.574
 3016SOL     OW 9055   4.045   2.805   3.966
 3016SOL    HW1 9056   4.127   2.844   3.924
 3016SOL    HW2 9057   4.018   2.723   3.917
 3017SOL     OW 9058   4.188   3.605   4.047
 3017SOL    HW1 9059   4.221   3.644   4.133
 3017SOL    HW2 9060   4.264   3.598   3.982
 3018SOL     OW 9061   4.106   2.562   4.204
 3018SOL    HW1 9062   4.151   2.472   4.201
 3018SOL    HW2 9063   4.012   2.551   4.237
 3019SOL     OW 9064   4.338   1.984   3.841
 3019SOL    HW1 9065   4.436   1.962   3.848
 3019SOL    HW2 9066   4.307   1.967   3.748
 3020SOL     OW 9067   4.263   1.926   4.236
 3020SOL    HW1 9068   4.182   1.927   4.294
 3020SOL    HW2 9069   4.266   2.009   4.181
 3021SOL     OW 9070   4.021   1.897   3.895
 3021SOL    HW1 9071   4.070   1.981   3.874
 3021SOL    HW2 9072   4.083   1.832   3.940
 3022SOL     OW 9073   4.183   3.014   4.465
 3022SOL    HW1 9074   4.112   2.987   4.530
 3022SOL    HW2 9075   4.157   2.986   4.372
 3023SOL     OW 9076   4.741   1.901   4.477
 3023SOL    HW1 9077   4.669   1.906   4.408
 3023SOL    HW2 9078   4.717   1.832   4.546
 3024SOL     OW 9079   4.212   3.247   3.898
 3024SOL    HW1 9080   4.125   3.232   3.945
 3024SOL    HW2 9081   4.195   3.273   3.803
 3025SOL     OW 9082   4.251   2.118   4.052
 3025SOL    HW1 9083   4.278   2.059   3.977
 3025SOL    HW2 9084   4.251   2.213   4.021
 3026SOL     OW 9085   4.091   2.962   4.225
 3026SOL    HW1 9086   4.084   3.045   4.169
 3026SOL    HW2 9087   4.095   2.882   4.165
 3027SOL     OW 9088   4.290   2.399   4.589
 3027SOL    HW1 9089   4.302   2.465   4.515
 3027SOL    HW2 9090   4.336   2.433   4.672
 3028SOL     OW 9091   4.031   1.925   4.342
 3028SOL    HW1 9092   4.020   2.019   4.375
 3028SOL    HW2 9093   4.026   1.862   4.419
 3029SOL     OW 9094   4.792   3.195   4.573
 3029SOL    HW1 9095   4.799   3.111   4.518
 3029SOL    HW2 9096   4.854   3.264   4.537
 3030SOL     OW 9097   3.732   3.188   3.924
 3030SOL    HW1 9098   3.639   3.209   3.893
 3030SOL    HW2 9099   3.742   3.089   3.937
 3031SOL     OW 9100   4.539   2.434   4.049
 3031SOL    HW1 9101   4.546   2.345   4.003
 3031SOL    HW2 9102   4.445   2.468   4.041
 3032SOL     OW 9103   4.197   2.362   3.915
 3032SOL    HW1 9104   4.258   2.442   3.919
 3032SOL    HW2 9105   4.102   2.393   3.922
 3033SOL     OW 9106   4.627   1.948   3.857
 3033SOL    HW1 9107   4.678   1.949   3.771
 3033SOL    HW2 9108   4.683   1.906   3.928
 3034SOL     OW 9109   4.396   3.478   3.878
 3034SOL    HW1 9110   4.405   3.488   3.779
 3034SOL    HW2 9111   4.356   3.389   3.899
 3035SOL     OW 9112   3.987   2.188   4.444
 3035SOL    HW1 9113   3.908   2.239   4.410
 3035SOL    HW2 9114   3.978   2.173   4.542
 3036SOL     OW 9115   4.314   3.349   4.215
 3036SOL    HW1 9116   4.356   3.291   4.145
 3036SOL    HW2 9117   4.270   3.428   4.171
 3037SOL     OW 9118   3.979   3.210   4.014
 3037SOL    HW1 9119   3.883   3.211   3.987
 3037SOL    HW2 9120   3.991   3.263   4.098
 3038SOL     OW 9121   3.799   2.207   3.757
 3038SOL    HW1 9122   3.707   2.179   3.728
 3038SOL    HW2 9123   3.830   2.284   3.701
 3039SOL     OW 9124   3.796   2.028   4.042
 3039SOL    HW1 9125   3.779   2.111   3.988
 3039SOL    HW2 9126   3.886   1.991   4.020
 3040SOL     OW 9127   4.318   2.607   4.376
 3040SOL    HW1 9128   4.368   2.692   4.357
 3040SOL    HW2 9129   4.230   2.609   4.328
 3041SOL     OW 9130   4.385   3.652   4.677
 3041SOL    HW1 9131   4.339   3.740   4.664
 3041SOL    HW2 9132   4.484   3.664   4.670
 3042SOL     OW 9133   3.803   3.102   4.377
 3042SOL    HW1 9134   3.802   3.055   4.465
 3042SOL    HW2 9135   3.885   3.074   4.326
 3043SOL     OW 9136   4.152   2.286   4.244
 3043SOL    HW1 9137   4.182   2.214   4.182
 3043SOL    HW2 9138   4.113   2.246   4.327
 3044SOL     OW 9139   4.536   3.448   4.411
 3044SOL    HW1 9140   4.568   3.458   4.317
 3044SOL    HW2 9141   4.457   3.386   4.413
 3045SOL     OW 9142   3.763   2.939   4.024
 3045SOL    HW1 9143   3.862   2.928   4.015
 3045SOL    HW2 9144   3.723   2.853   4.056
 3046SOL     OW 9145   3.954   4.352   0.113
 3046SOL    HW1 9146   3.861   4.350   0.150
 3046SOL    HW2 9147   3.955   4.313   0.021
 3047SOL     OW 9148   3.949   3.999   0.996
 3047SOL    HW1 9149   3.984   3.982   1.088
 3047SOL    HW2 9150   3.861   3.954   0.984
 3048SOL     OW 9151   3.743   4.092   0.647
 3048SOL    HW1 9152   3.661   4.135   0.686
 3048SOL    HW2 9153   3.715   4.019   0.584
 3049SOL     OW 9154   4.409   4.736   0.665
 3049SOL    HW1 9155   4.478   4.720   0.735
 3049SOL    HW2 9156   4.336   4.793   0.703
 3050SOL     OW 9157   4.162   4.116   1.499
 3050SOL    HW1 9158   4.244   4.060   1.508
 3050SOL    HW2 9159   4.081   4.058   1.503
 3051SOL     OW 9160   3.846   4.367   0.563
 3051SOL    HW1 9161   3.801   4.279   0.580
 3051SOL    HW2 9162   3.845   4.421   0.647
 3052SOL     OW 9163   3.837   4.461   1.597
 3052SOL    HW1 9164   3.925   4.448   1.642
 3052SOL    HW2 9165   3.824   4.558   1.575
 3053SOL     OW 9166   4.533   3.728   0.502
 3053SOL    HW1 9167   4.573   3.819   0.493
 3053SOL    HW2 9168   4.433   3.736   0.508
 3054SOL     OW 9169   4.041   3.975   1.801
 3054SOL    HW1 9170   4.112   4.046   1.807
 3054SOL    HW2 9171   3.953   4.014   1.829
 3055SOL     OW 9172   4.322   4.453   0.270
 3055SOL    HW1 9173   4.346   4.522   0.202
 3055SOL    HW2 9174   4.244   4.486   0.324
 3056SOL     OW 9175   4.274   3.920   0.885
 3056SOL    HW1 9176   4.269   3.915   0.985
 3056SOL    HW2 9177   4.276   4.016   0.856
 3057SOL     OW 9178   3.926   4.009   1.498
 3057SOL    HW1 9179   3.846   4.069   1.485
 3057SOL    HW2 9180   3.916   3.960   1.584
 3058SOL     OW 9181   4.106   4.424   0.480
 3058SOL    HW1 9182   4.151   4.334   0.477
 3058SOL    HW2 9183   4.012   4.413   0.513
 3059SOL     OW 9184   4.646   4.227   0.899
 3059SOL    HW1 9185   4.621   4.218   0.803
 3059SOL    HW2 9186   4.694   4.145   0.930
 3060SOL     OW 9187   4.263   3.788   0.512
 3060SOL    HW1 9188   4.182   3.789   0.570
 3060SOL    HW2 9189   4.266   3.871   0.457
 3061SOL     OW 9190   4.021   3.759   0.171
 3061SOL    HW1 9191   4.070   3.843   0.150
 3061SOL    HW2 9192   4.083   3.694   0.216
 3062SOL     OW 9193   3.802   4.280   1.386
 3062SOL    HW1 9194   3.894   4.279   1.345
 3062SOL    HW2 9195   3.796   4.354   1.453
 3063SOL     OW 9196   4.285   3.946   1.147
 3063SOL    HW1 9197   4.323   3.862   1.184
 3063SOL    HW2 9198   4.197   3.965   1.191
 3064SOL     OW 9199   4.251   3.980   0.328
 3064SOL    HW1 9200   4.278   3.921   0.253
 3064SOL    HW2 9201   4.251   4.075   0.297
 3065SOL     OW 9202   4.639   3.813   1.402
 3065SOL    HW1 9203   4.664   3.793   1.307
 3065SOL    HW2 9204   4.711   3.869   1.444
 3066SOL     OW 9205   4.429   4.774   0.368
 3066SOL    HW1 9206   4.415   4.781   0.467
 3066SOL    HW2 9207   4.513   4.723   0.350
 3067SOL     OW 9208   4.134   4.537   1.251
 3067SOL    HW1 9209   4.220   4.549   1.301
 3067SOL    HW2 9210   4.092   4.450   1.278
 3068SOL     OW 9211   4.290   4.261   0.865
 3068SOL    HW1 9212   4.302   4.327   0.791
 3068SOL    HW2 9213   4.336   4.295   0.948
 3069SOL     OW 9214   4.228   3.774   1.740
 3069SOL    HW1 9215   4.186   3.717   1.670
 3069SOL    HW2 9216   4.162   3.843   1.772
 3070SOL     OW 9217   4.031   3.937   1.231
 3070SOL    HW1 9218   4.008   3.974   1.321
 3070SOL    HW2 9219   4.001   3.842   1.225
 3071SOL     OW 9220   4.456   4.358   1.064
 3071SOL    HW1 9221   4.515   4.332   0.988
 3071SOL    HW2 9222   4.428   4.454   1.053
 3072SOL     OW 9223   4.031   3.787   0.618
 3072SOL    HW1 9224   4.020   3.881   0.651
 3072SOL    HW2 9225   4.026   3.724   0.695
 3073SOL     OW 9226   4.043   4.534   0.949
 3073SOL    HW1 9227   4.136   4.570   0.954
 3073SOL    HW2 9228   4.037   4.449   1.001
 3074SOL     OW 9229   4.063   4.233   1.006
 3074SOL    HW1 9230   4.011   4.150   0.989
 3074SOL    HW2 9231   4.140   4.238   0.942
 3075SOL     OW 9232   3.764   4.268   1.114
 3075SOL    HW1 9233   3.849   4.235   1.073
 3075SOL    HW2 9234   3.777   4.283   1.212
 3076SOL     OW 9235   3.913   4.244   1.722
 3076SOL    HW1 9236   3.972   4.204   1.652
 3076SOL    HW2 9237   3.855   4.315   1.681
 3077SOL     OW 9238   4.539   4.296   0.325
 3077SOL    HW1 9239   4.546   4.207   0.279
 3077SOL    HW2 9240   4.445   4.330   0.317
 3078SOL     OW 9241   4.395   4.188   1.269
 3078SOL    HW1 9242   4.361   4.099   1.239
 3078SOL    HW2 9243   4.421   4.242   1.189
 3079SOL     OW 9244   4.197   4.224   0.191
 3079SOL    HW1 9245   4.258   4.304   0.195
 3079SOL    HW2 9246   4.102   4.255   0.198
 3080SOL     OW 9247   4.627   3.810   0.133
 3080SOL    HW1 9248   4.678   3.811   0.047
 3080SOL    HW2 9249   4.683   3.768   0.204
 3081SOL     OW 9250   3.987   4.050   0.720
 3081SOL    HW1 9251   3.908   4.101   0.686
 3081SOL    HW2 9252   3.978   4.035   0.818
 3082SOL     OW 9253   3.829   4.737   1.726
 3082SOL    HW1 9254   3.752   4.704   1.780
 3082SOL    HW2 9255   3.914   4.707   1.768
 3083SOL     OW 9256   4.396   3.927   1.489
 3083SOL    HW1 9257   4.486   3.911   1.449
 3083SOL    HW2 9258   4.404   3.932   1.588
 3084SOL     OW 9259   3.799   4.069   0.033
 3084SOL    HW1 9260   3.707   4.041   0.004
 3084SOL    HW2 9261   3.830   4.146  -0.023
 3085SOL     OW 9262   3.796   3.890   0.318
 3085SOL    HW1 9263   3.779   3.973   0.264
 3085SOL    HW2 9264   3.886   3.853   0.296
 3086SOL     OW 9265   4.337   4.566   1.431
 3086SOL    HW1 9266   4.393   4.647   1.414
 3086SOL    HW2 9267   4.396   4.486   1.434
 3087SOL     OW 9268   4.440   4.289   1.708
 3087SOL    HW1 9269   4.459   4.354   1.782
 3087SOL    HW2 9270   4.500   4.209   1.717
 3088SOL     OW 9271   4.318   4.469   0.652
 3088SOL    HW1 9272   4.368   4.554   0.633
 3088SOL    HW2 9273   4.230   4.471   0.604
 3089SOL     OW 9274   4.152   4.148   0.520
 3089SOL    HW1 9275   4.182   4.076   0.458
 3089SOL    HW2 9276   4.113   4.108   0.603
 3090SOL     OW 9277   4.041   4.271   1.280
 3090SOL    HW1 9278   4.079   4.212   1.352
 3090SOL    HW2 9279   4.081   4.245   1.192
 3091SOL     OW 9280   3.954   4.352   1.975
 3091SOL    HW1 9281   3.861   4.350   2.012
 3091SOL    HW2 9282   3.955   4.313   1.883
 3092SOL     OW 9283   3.949   3.999   2.858
 3092SOL    HW1 9284   3.984   3.982   2.950
 3092SOL    HW2 9285   3.861   3.954   2.846
 3093SOL     OW 9286   3.743   4.092   2.509
 3093SOL    HW1 9287   3.661   4.135   2.548
 3093SOL    HW2 9288   3.715   4.019   2.446
 3094SOL     OW 9289   4.409   4.736   2.527
 3094SOL    HW1 9290   4.478   4.720   2.597
 3094SOL    HW2 9291   4.336   4.793   2.565
 3095SOL     OW 9292   4.162   4.116   3.361
 3095SOL    HW1 9293   4.244   4.060   3.370
 3095SOL    HW2 9294   4.081   4.058   3.365
 3096SOL     OW 9295   3.846   4.367   2.425
 3096SOL    HW1 9296   3.801   4.279   2.442
 3096SOL    HW2 9297   3.845   4.421   2.509
 3097SOL     OW 9298   3.837   4.461   3.459
 3097SOL    HW1 9299   3.925   4.448   3.504
 3097SOL    HW2 9300   3.824   4.558   3.437
 3098SOL     OW 9301   4.533   3.728   2.364
 3098SOL    HW1 9302   4.573   3.819   2.355
 3098SOL    HW2 9303   4.433   3.736   2.370
 3099SOL     OW 9304   4.041   3.975   3.663
 3099SOL    HW1 9305   4.112   4.046   3.669
 3099SOL    HW2 9306   3.953   4.014   3.691
 3100SOL     OW 9307   4.322   4.453   2.132
 3100SOL    HW1 9308   4.346   4.522   2.064
 3100SOL    HW2 9309   4.244   4.486   2.186
 3101SOL     OW 9310   4.274   3.920   2.747
 3101SOL    HW1 9311   4.269   3.915   2.847
 3101SOL    HW2 9312   4.276   4.016   2.718
 3102SOL     OW 9313   3.926   4.009   3.360
 3102SOL    HW1 9314   3.846   4.069   3.347
 3102SOL    HW2 9315   3.916   3.960   3.446
 3103SOL     OW 9316   4.106   4.424   2.342
 3103SOL    HW1 9317   4.151   4.334   2.339
 3103SOL    HW2 9318   4.012   4.413   2.375
 3104SOL     OW 9319   4.338   3.846   1.979
 3104SOL    HW1 9320   4.436   3.824   1.986
 3104SOL    HW2 9321   4.307   3.829   1.886
 3105SOL     OW 9322   4.646   4.227   2.761
 3105SOL    HW1 9323   4.621   4.218   2.665
 3105SOL    HW2 9324   4.694   4.145   2.792
 3106SOL     OW 9325   4.263   3.788   2.374
 3106SOL    HW1 9326   4.182   3.789   2.432
 3106SOL    HW2 9327   4.266   3.871   2.319
 3107SOL     OW 9328   4.021   3.759   2.033
 3107SOL    HW1 9329   4.070   3.843   2.012
 3107SOL    HW2 9330   4.083   3.694   2.078
 3108SOL     OW 9331   3.802   4.280   3.248
 3108SOL    HW1 9332   3.894   4.279   3.207
 3108SOL    HW2 9333   3.796   4.354   3.315
 3109SOL     OW 9334   4.285   3.946   3.009
 3109SOL    HW1 9335   4.323   3.862   3.046
 3109SOL    HW2 9336   4.197   3.965   3.053
 3110SOL     OW 9337   4.251   3.980   2.190
 3110SOL    HW1 9338   4.278   3.921   2.115
 3110SOL    HW2 9339   4.251   4.075   2.159
 3111SOL     OW 9340   4.639   3.813   3.264
 3111SOL    HW1 9341   4.664   3.793   3.169
 3111SOL    HW2 9342   4.711   3.869   3.306
 3112SOL     OW 9343   4.429   4.774   2.230
 3112SOL    HW1 9344   4.415   4.781   2.329
 3112SOL    HW2 9345   4.513   4.723   2.212
 3113SOL     OW 9346   4.134   4.537   3.113
 3113SOL    HW1 9347   4.220   4.549   3.163
 3113SOL    HW2 9348   4.092   4.450   3.140
 3114SOL     OW 9349   4.290   4.261   2.727
 3114SOL    HW1 9350   4.302   4.327   2.653
 3114SOL    HW2 9351   4.336   4.295   2.810
 3115SOL     OW 9352   4.228   3.774   3.602
 3115SOL    HW1 9353   4.186   3.717   3.532
 3115SOL    HW2 9354   4.162   3.843   3.634
 3116SOL     OW 9355   4.031   3.937   3.093
 3116SOL    HW1 9356   4.008   3.974   3.183
 3116SOL    HW2 9357   4.001   3.842   3.087
 3117SOL     OW 9358   4.456   4.358   2.926
 3117SOL    HW1 9359   4.515   4.332   2.850
 3117SOL    HW2 9360   4.428   4.454   2.915
 3118SOL     OW 9361   4.031   3.787   2.480
 3118SOL    HW1 9362   4.020   3.881   2.513
 3118SOL    HW2 9363   4.026   3.724   2.557
 3119SOL     OW 9364   4.043   4.534   2.811
 3119SOL    HW1 9365   4.136   4.570   2.816
 3119SOL    HW2 9366   4.037   4.449   2.863
 3120SOL     OW 9367   4.063   4.233   2.868
 3120SOL    HW1 9368   4.011   4.150   2.851
 3120SOL    HW2 9369   4.140   4.238   2.804
 3121SOL     OW 9370   3.764   4.268   2.976
 3121SOL    HW1 9371   3.849   4.235   2.935
 3121SOL    HW2 9372   3.777   4.283   3.074
 3122SOL     OW 9373   3.913   4.244   3.584
 3122SOL    HW1 9374   3.972   4.204   3.514
 3122SOL    HW2 9375   3.855   4.315   3.543
 3123SOL     OW 9376   4.539   4.296   2.187
 3123SOL    HW1 9377   4.546   4.207   2.141
 3123SOL    HW2 9378   4.445   4.330   2.179
 3124SOL     OW 9379   4.395   4.188   3.131
 3124SOL    HW1 9380   4.361   4.099   3.101
 3124SOL    HW2 9381   4.421   4.242   3.051
 3125SOL     OW 9382   4.197   4.224   2.053
 3125SOL    HW1 9383   4.258   4.304   2.057
 3125SOL    HW2 9384   4.102   4.255   2.060
 3126SOL     OW 9385   4.627   3.810   1.995
 3126SOL    HW1 9386   4.678   3.811   1.909
 3126SOL    HW2 9387   4.683   3.768   2.066
 3127SOL     OW 9388   3.987   4.050   2.582
 3127SOL    HW1 9389   3.908   4.101   2.548
 3127SOL    HW2 9390   3.978   4.035   2.680
 3128SOL     OW 9391   3.829   4.737   3.588
 3128SOL    HW1 9392   3.752   4.704   3.642
 3128SOL    HW2 9393   3.914   4.707   3.630
 3129SOL     OW 9394   4.396   3.927   3.351
 3129SOL    HW1 9395   4.486   3.911   3.311
 3129SOL    HW2 9396   4.404   3.932   3.450
 3130SOL     OW 9397   3.799   4.069   1.895
 3130SOL    HW1 9398   3.707   4.041   1.866
 3130SOL    HW2 9399   3.830   4.146   1.839
 3131SOL     OW 9400   3.796   3.890   2.180
 3131SOL    HW1 9401   3.779   3.973   2.126
 3131SOL    HW2 9402   3.886   3.853   2.158
 3132SOL     OW 9403   4.337   4.566   3.293
 3132SOL    HW1 9404   4.393   4.647   3.276
 3132SOL    HW2 9405   4.396   4.486   3.296
 3133SOL     OW 9406   4.440   4.289   3.570
 3133SOL    HW1 9407   4.459   4.354   3.644
 3133SOL    HW2 9408   4.500   4.209   3.579
 3134SOL     OW 9409   4.318   4.469   2.514
 3134SOL    HW1 9410   4.368   4.554   2.495
 3134SOL    HW2 9411   4.230   4.471   2.466
 3135SOL     OW 9412   4.152   4.148   2.382
 3135SOL    HW1 9413   4.182   4.076   2.320
 3135SOL    HW2 9414   4.113   4.108   2.465
 3136SOL     OW 9415   4.041   4.271   3.142
 3136SOL    HW1 9416   4.079   4.212   3.214
 3136SOL    HW2 9417   4.081   4.245   3.054
 3137SOL     OW 9418   3.954   4.352   3.837
 3137SOL    HW1 9419   3.861   4.350   3.874
 3137SOL    HW2 9420   3.955   4.313   3.745
 3138SOL     OW 9421   3.743   4.092   4.371
 3138SOL    HW1 9422   3.661   4.135   4.410
 3138SOL    HW2 9423   3.715   4.019   4.308
 3139SOL     OW 9424   4.409   4.736   4.389
 3139SOL    HW1 9425   4.478   4.720   4.459
 3139SOL    HW2 9426   4.336   4.793   4.427
 3140SOL     OW 9427   3.846   4.367   4.287
 3140SOL    HW1 9428   3.801   4.279   4.304
 3140SOL    HW2 9429   3.845   4.421   4.371
 3141SOL     OW 9430   4.533   3.728   4.226
 3141SOL    HW1 9431   4.573   3.819   4.217
 3141SOL    HW2 9432   4.433   3.736   4.232
 3142SOL     OW 9433   4.322   4.453   3.994
 3142SOL    HW1 9434   4.346   4.522   3.926
 3142SOL    HW2 9435   4.244   4.486   4.048
 3143SOL     OW 9436   4.274   3.920   4.609
 3143SOL    HW1 9437   4.269   3.915   4.709
 3143SOL    HW2 9438   4.276   4.016   4.580
 3144SOL     OW 9439   4.106   4.424   4.204
 3144SOL    HW1 9440   4.151   4.334   4.201
 3144SOL    HW2 9441   4.012   4.413   4.237
 3145SOL     OW 9442   4.338   3.846   3.841
 3145SOL    HW1 9443   4.436   3.824   3.848
 3145SOL    HW2 9444   4.307   3.829   3.748
 3146SOL     OW 9445   4.263   3.788   4.236
 3146SOL    HW1 9446   4.182   3.789   4.294
 3146SOL    HW2 9447   4.266   3.871   4.181
 3147SOL     OW 9448   4.021   3.759   3.895
 3147SOL    HW1 9449   4.070   3.843   3.874
 3147SOL    HW2 9450   4.083   3.694   3.940
 3148SOL     OW 9451   4.183   4.876   4.465
 3148SOL    HW1 9452   4.112   4.849   4.530
 3148SOL    HW2 9453   4.157   4.848   4.372
 3149SOL     OW 9454   4.741   3.763   4.477
 3149SOL    HW1 9455   4.669   3.768   4.408
 3149SOL    HW2 9456   4.717   3.694   4.546
 3150SOL     OW 9457   4.251   3.980   4.052
 3150SOL    HW1 9458   4.278   3.921   3.977
 3150SOL    HW2 9459   4.251   4.075   4.021
 3151SOL     OW 9460   4.429   4.774   4.092
 3151SOL    HW1 9461   4.415   4.781   4.191
 3151SOL    HW2 9462   4.513   4.723   4.074
 3152SOL     OW 9463   4.290   4.261   4.589
 3152SOL    HW1 9464   4.302   4.327   4.515
 3152SOL    HW2 9465   4.336   4.295   4.672
 3153SOL     OW 9466   4.031   3.787   4.342
 3153SOL    HW1 9467   4.020   3.881   4.375
 3153SOL    HW2 9468   4.026   3.724   4.419
 3154SOL     OW 9469   4.539   4.296   4.049
 3154SOL    HW1 9470   4.546   4.207   4.003
 3154SOL    HW2 9471   4.445   4.330   4.041
 3155SOL     OW 9472   4.197   4.224   3.915
 3155SOL    HW1 9473   4.258   4.304   3.919
 3155SOL    HW2 9474   4.102   4.255   3.922
 3156SOL     OW 9475   4.627   3.810   3.857
 3156SOL    HW1 9476   4.678   3.811   3.771
 3156SOL    HW2 9477   4.683   3.768   3.928
 3157SOL     OW 9478   3.987   4.050   4.444
 3157SOL    HW1 9479   3.908   4.101   4.410
 3157SOL    HW2 9480   3.978   4.035   4.542
 3158SOL     OW 9481   3.799   4.069   3.757
 3158SOL    HW1 9482   3.707   4.041   3.728
 3158SOL    HW2 9483   3.830   4.146   3.701
 3159SOL     OW 9484   3.796   3.890   4.042
 3159SOL    HW1 9485   3.779   3.973   3.988
 3159SOL    HW2 9486   3.886   3.853   4.020
 3160SOL     OW 9487   4.318   4.469   4.376
 3160SOL    HW1 9488   4.368   4.554   4.357
 3160SOL    HW2 9489   4.230   4.471   4.328
 3161SOL     OW 9490   4.152   4.148   4.244
 3161SOL    HW1 9491   4.182   4.076   4.182
 3161SOL    HW2 9492   4.113   4.108   4.327
   4.59467   4.59467   4.59467
