mobley_4039055_GMX.gro created by acpype (v: 2023.10.27) on Wed May 20 23:53:30 2026
   12
    1MOL     C1    1   2.351   2.420   2.305
    1MOL     C2    2   2.254   2.387   2.390
    1MOL     C3    3   2.195   2.250   2.381
    1MOL     C4    4   2.351   2.206   2.193
    1MOL     N1    5   2.399   2.335   2.210
    1MOL     N2    6   2.249   2.170   2.282
    1MOL     O1    7   2.105   2.212   2.456
    1MOL     O2    8   2.395   2.129   2.107
    1MOL    BR1    9   2.189   2.504   2.520
    1MOL     H1   10   2.398   2.518   2.306
    1MOL     H2   11   2.473   2.367   2.148
    1MOL     H3   12   2.212   2.076   2.273
   4.59467   4.59467   4.59467
