mobley_3265457_GMX.gro created by acpype (v: 2023.10.27) on Wed May 20 23:56:28 2026
   23
    1MOL     C1    1   2.477   2.417   2.554
    1MOL     C2    2   2.358   2.488   2.559
    1MOL     C3    3   2.536   2.386   2.431
    1MOL     C4    4   2.474   2.428   2.313
    1MOL     C5    5   2.354   2.499   2.317
    1MOL     C6    6   2.296   2.530   2.440
    1MOL     C7    7   2.301   2.518   2.690
    1MOL     C8    8   2.709   2.279   2.553
    1MOL     C9    9   2.203   2.448   2.141
    1MOL     O1   10   2.269   2.430   2.770
    1MOL     O2   11   2.531   2.398   2.192
    1MOL     O3   12   2.652   2.317   2.427
    1MOL     O4   13   2.296   2.538   2.201
    1MOL    CL1   14   2.148   2.618   2.445
    1MOL     H1   15   2.526   2.385   2.646
    1MOL     H2   16   2.288   2.625   2.716
    1MOL     H3   17   2.802   2.223   2.536
    1MOL     H4   18   2.638   2.216   2.607
    1MOL     H5   19   2.730   2.368   2.611
    1MOL     H6   20   2.163   2.491   2.049
    1MOL     H7   21   2.121   2.429   2.212
    1MOL     H8   22   2.254   2.354   2.118
    1MOL     H9   23   2.613   2.348   2.206
   4.84694   4.84694   4.84694
