; mobley_5935995_GMX.top created by acpype (v: 2023.10.27) on Wed May 20 23:46:15 2026

[ defaults ]
; nbfunc        comb-rule       gen-pairs       fudgeLJ fudgeQQ
1               2               yes             0.5     0.8333333333

; Include mobley_5935995_GMX.itp topology
#include "mobley_5935995_GMX.itp"

; Ligand position restraints
#ifdef POSRES_LIG
#include "posre_mobley_5935995.itp"
#endif

[ system ]
mobley_5935995 in water

[ molecules ]
; Compound        nmols
 mobley_5935995   1     
SOL              3112
