; mobley_5935995_GMX_OPLS.itp created by acpype (v: 2023.10.27) on Wed May 20 23:46:15 2026

; For OPLS atomtypes manual fine tuning
; AC_at:OPLS_at:OPLScode: Possible_Alternatives (see ffoplsaa.atp and ffoplsaanb.itp)
; c3:CT:opls_135: ['136', '137', '149', '157', '158', '206', '209', '210', '223B', '224B', '245', '246', '274', '283', '284', '285', '292', '292B', '293B', '296', '307', '308', '505']
; hc:HC:opls_140: []

[ moleculetype ]
;name            nrexcl
 mobley_5935995   3

[ atoms ]
;   nr  type  resi  res  atom  cgnr     charge      mass       ; qtot   bond_type
     1 opls_135     1   MOL    C1    1    -0.092103     12.01100 ; qtot -0.092  CT  
     2 opls_135     1   MOL    C2    2    -0.085433     12.01100 ; qtot -0.178  CT  
     3 opls_135     1   MOL    C3    3    -0.085433     12.01100 ; qtot -0.263  CT  
     4 opls_135     1   MOL    C4    4    -0.085433     12.01100 ; qtot -0.348  CT  
     5 opls_135     1   MOL    C5    5    -0.070400     12.01100 ; qtot -0.419  CT  
     6 opls_135     1   MOL    C6    6    -0.056000     12.01100 ; qtot -0.475  CT  
     7 opls_140     1   MOL    H1    7     0.032700      1.00800 ; qtot -0.442  HC  
     8 opls_140     1   MOL    H2    8     0.032700      1.00800 ; qtot -0.409  HC  
     9 opls_140     1   MOL    H3    9     0.032700      1.00800 ; qtot -0.377  HC  
    10 opls_140     1   MOL    H4   10     0.033478      1.00800 ; qtot -0.343  HC  
    11 opls_140     1   MOL    H5   11     0.033478      1.00800 ; qtot -0.310  HC  
    12 opls_140     1   MOL    H6   12     0.033478      1.00800 ; qtot -0.276  HC  
    13 opls_140     1   MOL    H7   13     0.033478      1.00800 ; qtot -0.243  HC  
    14 opls_140     1   MOL    H8   14     0.033478      1.00800 ; qtot -0.209  HC  
    15 opls_140     1   MOL    H9   15     0.033478      1.00800 ; qtot -0.176  HC  
    16 opls_140     1   MOL   H10   16     0.033478      1.00800 ; qtot -0.142  HC  
    17 opls_140     1   MOL   H11   17     0.033478      1.00800 ; qtot -0.109  HC  
    18 opls_140     1   MOL   H12   18     0.033478      1.00800 ; qtot -0.075  HC  
    19 opls_140     1   MOL   H13   19     0.037700      1.00800 ; qtot -0.038  HC  
    20 opls_140     1   MOL   H14   20     0.037700      1.00800 ; qtot  0.000  HC  

[ bonds ]
;   ai     aj funct   r             k
     1      5   1 ;    1.5354e-01    1.9154e+05 ;     C1 - C5         CT - CT    
     1      7   1 ;    1.0962e-01    2.8891e+05 ;     C1 - H1         CT - HC    
     1      8   1 ;    1.0962e-01    2.8891e+05 ;     C1 - H2         CT - HC    
     1      9   1 ;    1.0962e-01    2.8891e+05 ;     C1 - H3         CT - HC    
     2      6   1 ;    1.5354e-01    1.9154e+05 ;     C2 - C6         CT - CT    
     2     10   1 ;    1.0962e-01    2.8891e+05 ;     C2 - H4         CT - HC    
     2     11   1 ;    1.0962e-01    2.8891e+05 ;     C2 - H5         CT - HC    
     2     12   1 ;    1.0962e-01    2.8891e+05 ;     C2 - H6         CT - HC    
     3      6   1 ;    1.5354e-01    1.9154e+05 ;     C3 - C6         CT - CT    
     3     13   1 ;    1.0962e-01    2.8891e+05 ;     C3 - H7         CT - HC    
     3     14   1 ;    1.0962e-01    2.8891e+05 ;     C3 - H8         CT - HC    
     3     15   1 ;    1.0962e-01    2.8891e+05 ;     C3 - H9         CT - HC    
     4      6   1 ;    1.5354e-01    1.9154e+05 ;     C4 - C6         CT - CT    
     4     16   1 ;    1.0962e-01    2.8891e+05 ;     C4 - H10        CT - HC    
     4     17   1 ;    1.0962e-01    2.8891e+05 ;     C4 - H11        CT - HC    
     4     18   1 ;    1.0962e-01    2.8891e+05 ;     C4 - H12        CT - HC    
     5      6   1 ;    1.5354e-01    1.9154e+05 ;     C5 - C6         CT - CT    
     5     19   1 ;    1.0962e-01    2.8891e+05 ;     C5 - H13        CT - HC    
     5     20   1 ;    1.0962e-01    2.8891e+05 ;     C5 - H14        CT - HC    

[ pairs ]
;   ai     aj    funct
     1      2      1 ;     C1 - C2    
     1      3      1 ;     C1 - C3    
     1      4      1 ;     C1 - C4    
     2     13      1 ;     C2 - H7    
     2     14      1 ;     C2 - H8    
     2     15      1 ;     C2 - H9    
     2     16      1 ;     C2 - H10   
     2     17      1 ;     C2 - H11   
     2     18      1 ;     C2 - H12   
     2     19      1 ;     C2 - H13   
     2     20      1 ;     C2 - H14   
     3     10      1 ;     C3 - H4    
     3     11      1 ;     C3 - H5    
     3     12      1 ;     C3 - H6    
     3     16      1 ;     C3 - H10   
     3     17      1 ;     C3 - H11   
     3     18      1 ;     C3 - H12   
     3     19      1 ;     C3 - H13   
     3     20      1 ;     C3 - H14   
     4     10      1 ;     C4 - H4    
     4     11      1 ;     C4 - H5    
     4     12      1 ;     C4 - H6    
     4     13      1 ;     C4 - H7    
     4     14      1 ;     C4 - H8    
     4     15      1 ;     C4 - H9    
     4     19      1 ;     C4 - H13   
     4     20      1 ;     C4 - H14   
     5     10      1 ;     C5 - H4    
     5     11      1 ;     C5 - H5    
     5     12      1 ;     C5 - H6    
     5     13      1 ;     C5 - H7    
     5     14      1 ;     C5 - H8    
     5     15      1 ;     C5 - H9    
     5     16      1 ;     C5 - H10   
     5     17      1 ;     C5 - H11   
     5     18      1 ;     C5 - H12   
     7      6      1 ;     H1 - C6    
     7     19      1 ;     H1 - H13   
     7     20      1 ;     H1 - H14   
     8      6      1 ;     H2 - C6    
     8     19      1 ;     H2 - H13   
     8     20      1 ;     H2 - H14   
     9      6      1 ;     H3 - C6    
     9     19      1 ;     H3 - H13   
     9     20      1 ;     H3 - H14   

[ angles ]
;   ai     aj     ak    funct   theta         cth
     1      5      6      1 ;    1.1263e+02    5.0099e+02 ;     C1 - C5   - C6       CT -   CT - CT  
     1      5     19      1 ;    1.0968e+02    3.6208e+02 ;     C1 - C5   - H13      CT -   CT - HC  
     1      5     20      1 ;    1.0968e+02    3.6208e+02 ;     C1 - C5   - H14      CT -   CT - HC  
     2      6      3      1 ;    1.1263e+02    5.0099e+02 ;     C2 - C6   - C3       CT -   CT - CT  
     2      6      4      1 ;    1.1263e+02    5.0099e+02 ;     C2 - C6   - C4       CT -   CT - CT  
     2      6      5      1 ;    1.1263e+02    5.0099e+02 ;     C2 - C6   - C5       CT -   CT - CT  
     3      6      4      1 ;    1.1263e+02    5.0099e+02 ;     C3 - C6   - C4       CT -   CT - CT  
     3      6      5      1 ;    1.1263e+02    5.0099e+02 ;     C3 - C6   - C5       CT -   CT - CT  
     4      6      5      1 ;    1.1263e+02    5.0099e+02 ;     C4 - C6   - C5       CT -   CT - CT  
     5      1      7      1 ;    1.0968e+02    3.6208e+02 ;     C5 - C1   - H1       CT -   CT - HC  
     5      1      8      1 ;    1.0968e+02    3.6208e+02 ;     C5 - C1   - H2       CT -   CT - HC  
     5      1      9      1 ;    1.0968e+02    3.6208e+02 ;     C5 - C1   - H3       CT -   CT - HC  
     6      2     10      1 ;    1.0968e+02    3.6208e+02 ;     C6 - C2   - H4       CT -   CT - HC  
     6      2     11      1 ;    1.0968e+02    3.6208e+02 ;     C6 - C2   - H5       CT -   CT - HC  
     6      2     12      1 ;    1.0968e+02    3.6208e+02 ;     C6 - C2   - H6       CT -   CT - HC  
     6      3     13      1 ;    1.0968e+02    3.6208e+02 ;     C6 - C3   - H7       CT -   CT - HC  
     6      3     14      1 ;    1.0968e+02    3.6208e+02 ;     C6 - C3   - H8       CT -   CT - HC  
     6      3     15      1 ;    1.0968e+02    3.6208e+02 ;     C6 - C3   - H9       CT -   CT - HC  
     6      4     16      1 ;    1.0968e+02    3.6208e+02 ;     C6 - C4   - H10      CT -   CT - HC  
     6      4     17      1 ;    1.0968e+02    3.6208e+02 ;     C6 - C4   - H11      CT -   CT - HC  
     6      4     18      1 ;    1.0968e+02    3.6208e+02 ;     C6 - C4   - H12      CT -   CT - HC  
     6      5     19      1 ;    1.0968e+02    3.6208e+02 ;     C6 - C5   - H13      CT -   CT - HC  
     6      5     20      1 ;    1.0968e+02    3.6208e+02 ;     C6 - C5   - H14      CT -   CT - HC  
     7      1      8      1 ;    1.0773e+02    2.9957e+02 ;     H1 - C1   - H2       HC -   CT - HC  
     7      1      9      1 ;    1.0773e+02    2.9957e+02 ;     H1 - C1   - H3       HC -   CT - HC  
     8      1      9      1 ;    1.0773e+02    2.9957e+02 ;     H2 - C1   - H3       HC -   CT - HC  
    10      2     11      1 ;    1.0773e+02    2.9957e+02 ;     H4 - C2   - H5       HC -   CT - HC  
    10      2     12      1 ;    1.0773e+02    2.9957e+02 ;     H4 - C2   - H6       HC -   CT - HC  
    11      2     12      1 ;    1.0773e+02    2.9957e+02 ;     H5 - C2   - H6       HC -   CT - HC  
    13      3     14      1 ;    1.0773e+02    2.9957e+02 ;     H7 - C3   - H8       HC -   CT - HC  
    13      3     15      1 ;    1.0773e+02    2.9957e+02 ;     H7 - C3   - H9       HC -   CT - HC  
    14      3     15      1 ;    1.0773e+02    2.9957e+02 ;     H8 - C3   - H9       HC -   CT - HC  
    16      4     17      1 ;    1.0773e+02    2.9957e+02 ;    H10 - C4   - H11      HC -   CT - HC  
    16      4     18      1 ;    1.0773e+02    2.9957e+02 ;    H10 - C4   - H12      HC -   CT - HC  
    17      4     18      1 ;    1.0773e+02    2.9957e+02 ;    H11 - C4   - H12      HC -   CT - HC  
    19      5     20      1 ;    1.0773e+02    2.9957e+02 ;    H13 - C5   - H14      HC -   CT - HC  

[ dihedrals ] ; propers
; for gromacs 4.5 or higher, using funct 9
;    i      j      k      l   func   phase     kd      pn
     1      5      6      2      9 ;     0.00   2.17568   3 ;     C1-    C5-    C6-    C2
     1      5      6      3      9 ;     0.00   2.17568   3 ;     C1-    C5-    C6-    C3
     1      5      6      4      9 ;     0.00   2.17568   3 ;     C1-    C5-    C6-    C4
     2      6      3     13      9 ;     0.00   0.54392   3 ;     C2-    C6-    C3-    H7
     2      6      3     14      9 ;     0.00   0.54392   3 ;     C2-    C6-    C3-    H8
     2      6      3     15      9 ;     0.00   0.54392   3 ;     C2-    C6-    C3-    H9
     2      6      4     16      9 ;     0.00   0.54392   3 ;     C2-    C6-    C4-   H10
     2      6      4     17      9 ;     0.00   0.54392   3 ;     C2-    C6-    C4-   H11
     2      6      4     18      9 ;     0.00   0.54392   3 ;     C2-    C6-    C4-   H12
     2      6      5     19      9 ;     0.00   0.54392   3 ;     C2-    C6-    C5-   H13
     2      6      5     20      9 ;     0.00   0.54392   3 ;     C2-    C6-    C5-   H14
     3      6      2     10      9 ;     0.00   0.54392   3 ;     C3-    C6-    C2-    H4
     3      6      2     11      9 ;     0.00   0.54392   3 ;     C3-    C6-    C2-    H5
     3      6      2     12      9 ;     0.00   0.54392   3 ;     C3-    C6-    C2-    H6
     3      6      4     16      9 ;     0.00   0.54392   3 ;     C3-    C6-    C4-   H10
     3      6      4     17      9 ;     0.00   0.54392   3 ;     C3-    C6-    C4-   H11
     3      6      4     18      9 ;     0.00   0.54392   3 ;     C3-    C6-    C4-   H12
     3      6      5     19      9 ;     0.00   0.54392   3 ;     C3-    C6-    C5-   H13
     3      6      5     20      9 ;     0.00   0.54392   3 ;     C3-    C6-    C5-   H14
     4      6      2     10      9 ;     0.00   0.54392   3 ;     C4-    C6-    C2-    H4
     4      6      2     11      9 ;     0.00   0.54392   3 ;     C4-    C6-    C2-    H5
     4      6      2     12      9 ;     0.00   0.54392   3 ;     C4-    C6-    C2-    H6
     4      6      3     13      9 ;     0.00   0.54392   3 ;     C4-    C6-    C3-    H7
     4      6      3     14      9 ;     0.00   0.54392   3 ;     C4-    C6-    C3-    H8
     4      6      3     15      9 ;     0.00   0.54392   3 ;     C4-    C6-    C3-    H9
     4      6      5     19      9 ;     0.00   0.54392   3 ;     C4-    C6-    C5-   H13
     4      6      5     20      9 ;     0.00   0.54392   3 ;     C4-    C6-    C5-   H14
     5      6      2     10      9 ;     0.00   0.54392   3 ;     C5-    C6-    C2-    H4
     5      6      2     11      9 ;     0.00   0.54392   3 ;     C5-    C6-    C2-    H5
     5      6      2     12      9 ;     0.00   0.54392   3 ;     C5-    C6-    C2-    H6
     5      6      3     13      9 ;     0.00   0.54392   3 ;     C5-    C6-    C3-    H7
     5      6      3     14      9 ;     0.00   0.54392   3 ;     C5-    C6-    C3-    H8
     5      6      3     15      9 ;     0.00   0.54392   3 ;     C5-    C6-    C3-    H9
     5      6      4     16      9 ;     0.00   0.54392   3 ;     C5-    C6-    C4-   H10
     5      6      4     17      9 ;     0.00   0.54392   3 ;     C5-    C6-    C4-   H11
     5      6      4     18      9 ;     0.00   0.54392   3 ;     C5-    C6-    C4-   H12
     7      1      5      6      9 ;     0.00   0.54392   3 ;     H1-    C1-    C5-    C6
     7      1      5     19      9 ;     0.00   0.50208   3 ;     H1-    C1-    C5-   H13
     7      1      5     20      9 ;     0.00   0.50208   3 ;     H1-    C1-    C5-   H14
     8      1      5      6      9 ;     0.00   0.54392   3 ;     H2-    C1-    C5-    C6
     8      1      5     19      9 ;     0.00   0.50208   3 ;     H2-    C1-    C5-   H13
     8      1      5     20      9 ;     0.00   0.50208   3 ;     H2-    C1-    C5-   H14
     9      1      5      6      9 ;     0.00   0.54392   3 ;     H3-    C1-    C5-    C6
     9      1      5     19      9 ;     0.00   0.50208   3 ;     H3-    C1-    C5-   H13
     9      1      5     20      9 ;     0.00   0.50208   3 ;     H3-    C1-    C5-   H14
