22_dimethylbutane
    20
   0.5940000   2.3290000   0.6860000   1.4190000   4.1120000  -1.6700000
   1.7280000   2.0730000  -3.0800000   3.1400000   2.4150000  -1.0370000
   0.6590000   1.9010000  -0.7750000   1.7370000   2.6050000  -1.6380000
   0.3640000   3.3930000   0.7860000  -0.1970000   1.7730000   1.2000000
   1.5320000   2.1230000   1.2100000   1.4290000   4.5410000  -0.6610000
   0.4300000   4.2990000  -2.1030000   2.1540000   4.6610000  -2.2710000
   2.0360000   1.0230000  -3.1280000   0.7300000   2.1520000  -3.5240000
   2.4190000   2.6410000  -3.7140000   3.1700000   2.7440000   0.0080000
   3.8870000   2.9960000  -1.5900000   3.4580000   1.3680000  -1.0700000
  -0.3300000   2.0710000  -1.2220000   0.8240000   0.8160000  -0.8030000
