mobley_718988_GMX.gro created by acpype (v: 2023.10.27) on Wed May 20 23:51:48 2026
12121
    1MOL     C1    1   2.653   2.773   2.769
    1MOL     C2    2   2.603   2.634   2.732
    1MOL     C3    3   2.558   2.627   2.586
    1MOL     C4    4   2.505   2.488   2.551
    1MOL     C5    5   2.458   2.476   2.406
    1MOL     C6    6   2.412   2.335   2.369
    1MOL     C7    7   2.363   2.329   2.224
    1MOL     N1    8   2.320   2.194   2.190
    1MOL     H1    9   2.738   2.802   2.707
    1MOL     H2   10   2.574   2.848   2.755
    1MOL     H3   11   2.684   2.776   2.874
    1MOL     H4   12   2.683   2.562   2.751
    1MOL     H5   13   2.519   2.608   2.798
    1MOL     H6   14   2.643   2.652   2.521
    1MOL     H7   15   2.481   2.703   2.569
    1MOL     H8   16   2.585   2.414   2.567
    1MOL     H9   17   2.423   2.462   2.619
    1MOL    H10   18   2.377   2.547   2.387
    1MOL    H11   19   2.541   2.504   2.340
    1MOL    H12   20   2.495   2.264   2.382
    1MOL    H13   21   2.331   2.303   2.435
    1MOL    H14   22   2.278   2.398   2.210
    1MOL    H15   23   2.442   2.360   2.156
    1MOL    H16   24   2.267   2.155   2.268
    1MOL    H17   25   2.402   2.135   2.178
    2SOL     OW   26   0.230   0.628   0.113
    2SOL    HW1   27   0.137   0.626   0.150
    2SOL    HW2   28   0.231   0.589   0.021
    3SOL     OW   29   0.225   0.275   0.996
    3SOL    HW1   30   0.260   0.258   1.088
    3SOL    HW2   31   0.137   0.230   0.984
    4SOL     OW   32   0.019   0.368   0.647
    4SOL    HW1   33  -0.063   0.411   0.686
    4SOL    HW2   34  -0.009   0.295   0.584
    5SOL     OW   35   0.569   1.275   1.165
    5SOL    HW1   36   0.476   1.268   1.128
    5SOL    HW2   37   0.580   1.364   1.209
    6SOL     OW   38   1.555   1.511   0.703
    6SOL    HW1   39   1.498   1.495   0.784
    6SOL    HW2   40   1.496   1.521   0.623
    7SOL     OW   41   1.135   0.703   0.717
    7SOL    HW1   42   1.192   0.781   0.692
    7SOL    HW2   43   1.075   0.729   0.793
    8SOL     OW   44   1.755   0.607   0.231
    8SOL    HW1   45   1.743   0.594   0.132
    8SOL    HW2   46   1.725   0.526   0.280
    9SOL     OW   47   0.768   1.144   1.023
    9SOL    HW1   48   0.690   1.161   1.083
    9SOL    HW2   49   0.802   1.231   0.987
   10SOL     OW   50   0.850   0.798   1.823
   10SOL    HW1   51   0.846   0.874   1.888
   10SOL    HW2   52   0.872   0.834   1.732
   11SOL     OW   53   0.685   1.012   0.665
   11SOL    HW1   54   0.754   0.996   0.735
   11SOL    HW2   55   0.612   1.069   0.703
   12SOL     OW   56   0.686   1.161   1.803
   12SOL    HW1   57   0.746   1.240   1.817
   12SOL    HW2   58   0.600   1.192   1.762
   13SOL     OW   59   0.335   1.435   1.061
   13SOL    HW1   60   0.257   1.404   1.008
   13SOL    HW2   61   0.393   1.493   1.004
   14SOL     OW   62   1.460   1.505   1.339
   14SOL    HW1   63   1.484   1.599   1.365
   14SOL    HW2   64   1.444   1.451   1.421
   15SOL     OW   65   0.438   0.392   1.499
   15SOL    HW1   66   0.520   0.336   1.508
   15SOL    HW2   67   0.357   0.334   1.503
   16SOL     OW   68   1.603   0.447   0.737
   16SOL    HW1   69   1.529   0.493   0.687
   16SOL    HW2   70   1.654   0.515   0.790
   17SOL     OW   71   0.231   1.713   0.483
   17SOL    HW1   72   0.265   1.790   0.537
   17SOL    HW2   73   0.275   1.713   0.393
   18SOL     OW   74   1.127   1.341   1.690
   18SOL    HW1   75   1.174   1.341   1.778
   18SOL    HW2   76   1.079   1.254   1.679
   19SOL     OW   77   0.230   1.434   0.538
   19SOL    HW1   78   0.204   1.530   0.538
   19SOL    HW2   79   0.159   1.380   0.583
   20SOL     OW   80   0.240   1.091   0.886
   20SOL    HW1   81   0.254   1.007   0.938
   20SOL    HW2   82   0.185   1.155   0.941
   21SOL     OW   83   0.620   1.786   1.439
   21SOL    HW1   84   0.528   1.769   1.474
   21SOL    HW2   85   0.648   1.878   1.465
   22SOL     OW   86   0.606   0.964   0.123
   22SOL    HW1   87   0.613   1.048   0.069
   22SOL    HW2   88   0.652   0.977   0.211
   23SOL     OW   89   1.594   0.114   1.480
   23SOL    HW1   90   1.576   0.181   1.408
   23SOL    HW2   91   1.591   0.160   1.569
   24SOL     OW   92   0.122   0.643   0.563
   24SOL    HW1   93   0.077   0.555   0.580
   24SOL    HW2   94   0.121   0.697   0.647
   25SOL     OW   95   1.842   1.767   0.359
   25SOL    HW1   96   1.896   1.738   0.439
   25SOL    HW2   97   1.872   1.857   0.330
   26SOL     OW   98   0.027   1.596   0.117
   26SOL    HW1   99   0.008   1.500   0.138
   26SOL    HW2  100  -0.006   1.654   0.192
   27SOL     OW  101   1.689   0.922   0.612
   27SOL    HW1  102   1.784   0.893   0.620
   27SOL    HW2  103   1.681   0.987   0.537
   28SOL     OW  104   1.641   1.108   0.432
   28SOL    HW1  105   1.727   1.110   0.380
   28SOL    HW2  106   1.655   1.155   0.520
   29SOL     OW  107   0.113   0.737   1.597
   29SOL    HW1  108   0.201   0.724   1.642
   29SOL    HW2  109   0.100   0.834   1.575
   30SOL     OW  110   0.613   1.365   0.726
   30SOL    HW1  111   0.564   1.278   0.735
   30SOL    HW2  112   0.590   1.408   0.639
   31SOL     OW  113   1.293   1.228   1.423
   31SOL    HW1  114   1.330   1.155   1.365
   31SOL    HW2  115   1.345   1.233   1.508
   32SOL     OW  116   0.809   0.004   0.502
   32SOL    HW1  117   0.849   0.095   0.493
   32SOL    HW2  118   0.709   0.012   0.508
   33SOL     OW  119   0.197   0.976   1.264
   33SOL    HW1  120   0.286   0.931   1.250
   33SOL    HW2  121   0.124   0.911   1.245
   34SOL     OW  122   1.525   0.999   0.190
   34SOL    HW1  123   1.462   0.923   0.203
   34SOL    HW2  124   1.573   1.017   0.276
   35SOL     OW  125   1.187   1.792   1.616
   35SOL    HW1  126   1.211   1.852   1.540
   35SOL    HW2  127   1.194   1.697   1.586
   36SOL     OW  128   0.317   0.251   1.801
   36SOL    HW1  129   0.388   0.322   1.807
   36SOL    HW2  130   0.229   0.290   1.829
   37SOL     OW  131   1.466   1.417   0.953
   37SOL    HW1  132   1.407   1.423   1.033
   37SOL    HW2  133   1.451   1.329   0.907
   38SOL     OW  134   1.667   1.714   0.572
   38SOL    HW1  135   1.626   1.691   0.484
   38SOL    HW2  136   1.649   1.640   0.637
   39SOL     OW  137   0.598   0.729   0.270
   39SOL    HW1  138   0.622   0.798   0.202
   39SOL    HW2  139   0.520   0.762   0.324
   40SOL     OW  140   1.281   0.345   0.944
   40SOL    HW1  141   1.195   0.295   0.931
   40SOL    HW2  142   1.343   0.291   1.000
   41SOL     OW  143   1.576   1.662   0.307
   41SOL    HW1  144   1.665   1.708   0.310
   41SOL    HW2  145   1.555   1.638   0.212
   42SOL     OW  146   0.807   0.605   1.465
   42SOL    HW1  147   0.760   0.602   1.554
   42SOL    HW2  148   0.756   0.550   1.399
   43SOL     OW  149   1.394   0.469   1.674
   43SOL    HW1  150   1.374   0.512   1.762
   43SOL    HW2  151   1.472   0.407   1.683
   44SOL     OW  152   0.973   0.890   1.572
   44SOL    HW1  153   1.019   0.806   1.543
   44SOL    HW2  154   0.917   0.924   1.497
   45SOL     OW  155   0.991   0.410   1.242
   45SOL    HW1  156   0.914   0.444   1.296
   45SOL    HW2  157   0.957   0.359   1.163
   46SOL     OW  158   1.041   0.701   0.429
   46SOL    HW1  159   1.067   0.697   0.525
   46SOL    HW2  160   0.956   0.650   0.415
   47SOL     OW  161   0.076   0.811   0.789
   47SOL    HW1  162   0.175   0.799   0.798
   47SOL    HW2  163   0.052   0.906   0.810
   48SOL     OW  164   0.130   1.821   1.571
   48SOL    HW1  165   0.120   1.806   1.670
   48SOL    HW2  166   0.044   1.857   1.535
   49SOL     OW  167   0.865   0.348   0.195
   49SOL    HW1  168   0.924   0.411   0.146
   49SOL    HW2  169   0.884   0.254   0.166
   50SOL     OW  170   1.719   0.585   1.831
   50SOL    HW1  171   1.693   0.674   1.795
   50SOL    HW2  172   1.717   0.517   1.758
   51SOL     OW  173   1.362   1.144   0.545
   51SOL    HW1  174   1.445   1.115   0.497
   51SOL    HW2  175   1.313   1.211   0.489
   52SOL     OW  176   0.550   0.196   0.885
   52SOL    HW1  177   0.545   0.191   0.985
   52SOL    HW2  178   0.552   0.292   0.856
   53SOL     OW  179   1.008   1.456   0.477
   53SOL    HW1  180   0.962   1.528   0.425
   53SOL    HW2  181   1.004   1.476   0.575
   54SOL     OW  182   0.351   1.801   0.853
   54SOL    HW1  183   0.401   1.715   0.859
   54SOL    HW2  184   0.416   1.878   0.850
   55SOL     OW  185   1.795   1.066   0.873
   55SOL    HW1  186   1.733   1.051   0.797
   55SOL    HW2  187   1.743   1.077   0.958
   56SOL     OW  188   1.227   1.550   1.506
   56SOL    HW1  189   1.233   1.473   1.570
   56SOL    HW2  190   1.175   1.524   1.426
   57SOL     OW  191   0.321   0.943   0.242
   57SOL    HW1  192   0.403   0.982   0.200
   57SOL    HW2  193   0.294   0.861   0.193
   58SOL     OW  194   1.458   0.735   0.728
   58SOL    HW1  195   1.453   0.670   0.803
   58SOL    HW2  196   1.538   0.794   0.741
   59SOL     OW  197   0.461   1.266   1.727
   59SOL    HW1  198   0.411   1.267   1.641
   59SOL    HW2  199   0.398   1.248   1.803
   60SOL     OW  200   1.111   1.776   0.237
   60SOL    HW1  201   1.051   1.714   0.287
   60SOL    HW2  202   1.142   1.732   0.152
   61SOL     OW  203   0.202   0.285   1.498
   61SOL    HW1  204   0.122   0.345   1.485
   61SOL    HW2  205   0.192   0.236   1.584
   62SOL     OW  206   1.632   1.377   0.081
   62SOL    HW1  207   1.600   1.471   0.071
   62SOL    HW2  208   1.556   1.314   0.069
   63SOL     OW  209   0.464   1.743   0.323
   63SOL    HW1  210   0.497   1.782   0.409
   63SOL    HW2  211   0.540   1.736   0.258
   64SOL     OW  212   1.400   0.107   0.426
   64SOL    HW1  213   1.376   0.070   0.336
   64SOL    HW2  214   1.499   0.123   0.430
   65SOL     OW  215   0.249   1.785   1.241
   65SOL    HW1  216   0.306   1.720   1.291
   65SOL    HW2  217   0.233   1.752   1.148
   66SOL     OW  218   0.940   1.698   0.904
   66SOL    HW1  219   1.020   1.641   0.925
   66SOL    HW2  220   0.891   1.658   0.827
   67SOL     OW  221   0.382   0.700   0.480
   67SOL    HW1  222   0.427   0.610   0.477
   67SOL    HW2  223   0.288   0.689   0.513
   68SOL     OW  224   1.547   0.222   1.729
   68SOL    HW1  225   1.542   0.259   1.821
   68SOL    HW2  226   1.475   0.153   1.717
   69SOL     OW  227   0.614   0.122   0.117
   69SOL    HW1  228   0.712   0.100   0.124
   69SOL    HW2  229   0.583   0.105   0.024
   70SOL     OW  230   0.781   0.264   1.749
   70SOL    HW1  231   0.848   0.203   1.792
   70SOL    HW2  232   0.708   0.283   1.814
   71SOL     OW  233   0.888   1.514   1.195
   71SOL    HW1  234   0.865   1.489   1.101
   71SOL    HW2  235   0.949   1.445   1.234
   72SOL     OW  236   1.351   0.590   1.433
   72SOL    HW1  237   1.379   0.547   1.518
   72SOL    HW2  238   1.376   0.686   1.434
   73SOL     OW  239   0.803   1.402   0.924
   73SOL    HW1  240   0.893   1.416   0.882
   73SOL    HW2  241   0.732   1.404   0.853
   74SOL     OW  242   0.922   0.503   0.899
   74SOL    HW1  243   0.897   0.494   0.803
   74SOL    HW2  244   0.970   0.421   0.930
   75SOL     OW  245   0.539   0.064   0.512
   75SOL    HW1  246   0.458   0.065   0.570
   75SOL    HW2  247   0.542   0.147   0.457
   76SOL     OW  248   1.434   1.188   0.041
   76SOL    HW1  249   1.466   1.112   0.098
   76SOL    HW2  250   1.342   1.215   0.071
   77SOL     OW  251   0.297   0.035   0.171
   77SOL    HW1  252   0.346   0.119   0.150
   77SOL    HW2  253   0.359  -0.030   0.216
   78SOL     OW  254   0.935   0.236   0.480
   78SOL    HW1  255   0.887   0.277   0.402
   78SOL    HW2  256   1.034   0.234   0.461
   79SOL     OW  257   1.076   0.683   1.464
   79SOL    HW1  258   0.996   0.622   1.467
   79SOL    HW2  259   1.157   0.630   1.440
   80SOL     OW  260   1.227   1.570   0.793
   80SOL    HW1  261   1.248   1.644   0.728
   80SOL    HW2  262   1.295   1.570   0.866
   81SOL     OW  263   0.459   1.152   0.741
   81SOL    HW1  264   0.388   1.125   0.806
   81SOL    HW2  265   0.433   1.124   0.648
   82SOL     OW  266   1.271   1.797   0.591
   82SOL    HW1  267   1.315   1.861   0.527
   82SOL    HW2  268   1.221   1.849   0.661
   83SOL     OW  269   1.032   0.549   0.016
   83SOL    HW1  270   0.991   0.631  -0.023
   83SOL    HW2  271   1.096   0.575   0.089
   84SOL     OW  272   0.078   0.556   1.386
   84SOL    HW1  273   0.170   0.555   1.345
   84SOL    HW2  274   0.072   0.630   1.453
   85SOL     OW  275   0.561   0.222   1.147
   85SOL    HW1  276   0.599   0.138   1.184
   85SOL    HW2  277   0.473   0.241   1.191
   86SOL     OW  278   0.866   0.454   0.642
   86SOL    HW1  279   0.834   0.526   0.580
   86SOL    HW2  280   0.890   0.373   0.589
   87SOL     OW  281   1.017   0.039   0.753
   87SOL    HW1  282   0.945   0.044   0.684
   87SOL    HW2  283   0.993  -0.030   0.822
   88SOL     OW  284   1.429   1.173   0.867
   88SOL    HW1  285   1.374   1.089   0.860
   88SOL    HW2  286   1.455   1.202   0.775
   89SOL     OW  287   1.466   0.590   0.992
   89SOL    HW1  288   1.436   0.495   0.999
   89SOL    HW2  289   1.539   0.606   1.058
   90SOL     OW  290   1.857   0.833   0.377
   90SOL    HW1  291   1.899   0.769   0.441
   90SOL    HW2  292   1.819   0.782   0.299
   91SOL     OW  293   0.488   1.385   0.174
   91SOL    HW1  294   0.401   1.370   0.221
   91SOL    HW2  295   0.471   1.411   0.079
   92SOL     OW  296   1.664   1.280   0.657
   92SOL    HW1  297   1.763   1.288   0.671
   92SOL    HW2  298   1.619   1.364   0.688
   93SOL     OW  299   1.390   0.575   0.078
   93SOL    HW1  300   1.336   0.554   0.159
   93SOL    HW2  301   1.481   0.534   0.087
   94SOL     OW  302   0.527   0.256   0.328
   94SOL    HW1  303   0.554   0.197   0.253
   94SOL    HW2  304   0.527   0.351   0.297
   95SOL     OW  305   1.754   1.223   1.588
   95SOL    HW1  306   1.845   1.184   1.575
   95SOL    HW2  307   1.762   1.319   1.612
   96SOL     OW  308   1.064   1.347   1.340
   96SOL    HW1  309   0.984   1.324   1.395
   96SOL    HW2  310   1.147   1.321   1.389
   97SOL     OW  311   1.592   1.629   1.625
   97SOL    HW1  312   1.619   1.663   1.535
   97SOL    HW2  313   1.671   1.591   1.671
   98SOL     OW  314   1.111   1.195   1.100
   98SOL    HW1  315   1.071   1.239   1.181
   98SOL    HW2  316   1.070   1.232   1.017
   99SOL     OW  317   1.638   1.099   1.079
   99SOL    HW1  318   1.643   1.180   1.138
   99SOL    HW2  319   1.552   1.101   1.028
  100SOL     OW  320   0.915   0.089   1.402
  100SOL    HW1  321   0.940   0.069   1.307
  100SOL    HW2  322   0.987   0.145   1.444
  101SOL     OW  323   0.980   1.116   1.719
  101SOL    HW1  324   0.881   1.122   1.729
  101SOL    HW2  325   1.003   1.036   1.663
  102SOL     OW  326   0.705   1.050   0.368
  102SOL    HW1  327   0.691   1.057   0.467
  102SOL    HW2  328   0.789   0.999   0.350
  103SOL     OW  329   0.410   0.813   1.251
  103SOL    HW1  330   0.496   0.825   1.301
  103SOL    HW2  331   0.368   0.726   1.278
  104SOL     OW  332   1.274   0.386   1.262
  104SOL    HW1  333   1.295   0.460   1.326
  104SOL    HW2  334   1.185   0.403   1.219
  105SOL     OW  335   0.064   1.564   1.331
  105SOL    HW1  336   0.018   1.646   1.297
  105SOL    HW2  337   0.162   1.583   1.340
  106SOL     OW  338   0.367   1.100   0.501
  106SOL    HW1  339   0.360   1.183   0.445
  106SOL    HW2  340   0.371   1.020   0.441
  107SOL     OW  341   0.566   0.537   0.865
  107SOL    HW1  342   0.578   0.603   0.791
  107SOL    HW2  343   0.612   0.571   0.948
  108SOL     OW  344   1.252   1.348   0.388
  108SOL    HW1  345   1.302   1.425   0.428
  108SOL    HW2  346   1.157   1.350   0.420
  109SOL     OW  347   1.272   1.445   1.142
  109SOL    HW1  348   1.319   1.458   1.229
  109SOL    HW2  349   1.206   1.371   1.151
  110SOL     OW  350   1.582   0.639   0.472
  110SOL    HW1  351   1.551   0.700   0.545
  110SOL    HW2  352   1.632   0.691   0.403
  111SOL     OW  353   0.354   1.510   1.329
  111SOL    HW1  354   0.333   1.466   1.242
  111SOL    HW2  355   0.451   1.536   1.332
  112SOL     OW  356   0.402   0.751   1.598
  112SOL    HW1  357   0.470   0.806   1.551
  112SOL    HW2  358   0.442   0.663   1.625
  113SOL     OW  359   1.587   0.779   1.670
  113SOL    HW1  360   1.495   0.817   1.665
  113SOL    HW2  361   1.647   0.826   1.605
  114SOL     OW  362   1.013   0.105   1.770
  114SOL    HW1  363   1.019   0.190   1.718
  114SOL    HW2  364   1.045   0.029   1.713
  115SOL     OW  365   0.504   0.050   1.740
  115SOL    HW1  366   0.462  -0.007   1.670
  115SOL    HW2  367   0.438   0.119   1.772
  116SOL     OW  368   0.573   0.870   1.029
  116SOL    HW1  369   0.617   0.959   1.020
  116SOL    HW2  370   0.510   0.870   1.106
  117SOL     OW  371   1.360   0.862   1.045
  117SOL    HW1  372   1.285   0.862   0.979
  117SOL    HW2  373   1.397   0.770   1.054
  118SOL     OW  374   1.209   0.525   0.275
  118SOL    HW1  375   1.222   0.441   0.329
  118SOL    HW2  376   1.180   0.599   0.335
  119SOL     OW  377   0.307   0.213   1.231
  119SOL    HW1  378   0.284   0.250   1.321
  119SOL    HW2  379   0.277   0.118   1.225
  120SOL     OW  380   0.037   1.310   1.282
  120SOL    HW1  381   0.090   1.261   1.350
  120SOL    HW2  382   0.059   1.408   1.287
  121SOL     OW  383   0.732   0.634   1.064
  121SOL    HW1  384   0.791   0.608   0.988
  121SOL    HW2  385   0.704   0.730   1.053
  122SOL     OW  386   1.728   0.935   1.854
  122SOL    HW1  387   1.682   0.928   1.765
  122SOL    HW2  388   1.666   0.979   1.920
  123SOL     OW  389   0.307   0.063   0.618
  123SOL    HW1  390   0.296   0.157   0.651
  123SOL    HW2  391   0.302   0.000   0.695
  124SOL     OW  392   1.622   0.367   0.374
  124SOL    HW1  393   1.624   0.291   0.438
  124SOL    HW2  394   1.574   0.444   0.414
  125SOL     OW  395   1.023   0.766   0.966
  125SOL    HW1  396   1.038   0.787   1.062
  125SOL    HW2  397   0.993   0.671   0.957
  126SOL     OW  398   0.980   1.573   1.700
  126SOL    HW1  399   0.960   1.617   1.612
  126SOL    HW2  400   1.019   1.482   1.684
  127SOL     OW  401   1.859   1.518   1.605
  127SOL    HW1  402   1.873   1.545   1.510
  127SOL    HW2  403   1.942   1.540   1.658
  128SOL     OW  404   0.350   0.898   1.804
  128SOL    HW1  405   0.426   0.942   1.852
  128SOL    HW2  406   0.385   0.851   1.722
  129SOL     OW  407   1.540   0.274   0.125
  129SOL    HW1  408   1.479   0.199   0.148
  129SOL    HW2  409   1.562   0.326   0.208
  130SOL     OW  410   1.303   0.838   0.042
  130SOL    HW1  411   1.337   0.745   0.057
  130SOL    HW2  412   1.321   0.865  -0.053
  131SOL     OW  413   1.068   1.333   0.849
  131SOL    HW1  414   1.075   1.249   0.794
  131SOL    HW2  415   1.130   1.402   0.813
  132SOL     OW  416   0.319   0.810   0.949
  132SOL    HW1  417   0.412   0.846   0.954
  132SOL    HW2  418   0.313   0.725   1.001
  133SOL     OW  419   0.339   0.509   1.006
  133SOL    HW1  420   0.287   0.426   0.989
  133SOL    HW2  421   0.416   0.514   0.942
  134SOL     OW  422   1.138   0.380   1.678
  134SOL    HW1  423   1.093   0.443   1.742
  134SOL    HW2  424   1.231   0.411   1.661
  135SOL     OW  425   1.160   0.207   1.477
  135SOL    HW1  426   1.160   0.271   1.554
  135SOL    HW2  427   1.188   0.255   1.394
  136SOL     OW  428   0.008   1.326   0.200
  136SOL    HW1  429  -0.085   1.347   0.169
  136SOL    HW2  430   0.018   1.227   0.213
  137SOL     OW  431   0.088   1.801   0.927
  137SOL    HW1  432   0.046   1.715   0.900
  137SOL    HW2  433   0.182   1.804   0.893
  138SOL     OW  434   0.504   1.568   0.910
  138SOL    HW1  435   0.570   1.642   0.919
  138SOL    HW2  436   0.548   1.489   0.868
  139SOL     OW  437   1.002   0.796   1.238
  139SOL    HW1  438   1.043   0.764   1.324
  139SOL    HW2  439   0.906   0.769   1.235
  140SOL     OW  440   0.040   0.544   1.114
  140SOL    HW1  441   0.125   0.511   1.073
  140SOL    HW2  442   0.053   0.559   1.212
  141SOL     OW  443   0.189   0.520   1.722
  141SOL    HW1  444   0.248   0.480   1.652
  141SOL    HW2  445   0.131   0.591   1.681
  142SOL     OW  446   1.369   0.950   1.660
  142SOL    HW1  447   1.408   1.039   1.680
  142SOL    HW2  448   1.379   0.930   1.563
  143SOL     OW  449   0.815   0.572   0.325
  143SOL    HW1  450   0.822   0.483   0.279
  143SOL    HW2  451   0.721   0.606   0.317
  144SOL     OW  452   1.657   0.604   1.206
  144SOL    HW1  453   1.619   0.535   1.268
  144SOL    HW2  454   1.739   0.568   1.162
  145SOL     OW  455   0.252   1.564   1.744
  145SOL    HW1  456   0.222   1.621   1.820
  145SOL    HW2  457   0.245   1.467   1.770
  146SOL     OW  458   0.671   0.464   1.269
  146SOL    HW1  459   0.637   0.375   1.239
  146SOL    HW2  460   0.697   0.518   1.189
  147SOL     OW  461   0.930   1.678   1.465
  147SOL    HW1  462   0.906   1.660   1.370
  147SOL    HW2  463   0.960   1.772   1.475
  148SOL     OW  464   0.473   0.500   0.191
  148SOL    HW1  465   0.534   0.580   0.195
  148SOL    HW2  466   0.378   0.531   0.198
  149SOL     OW  467   0.159   1.137   1.466
  149SOL    HW1  468   0.181   1.076   1.542
  149SOL    HW2  469   0.169   1.088   1.380
  150SOL     OW  470   1.347   1.059   1.234
  150SOL    HW1  471   1.371   0.996   1.160
  150SOL    HW2  472   1.257   1.099   1.216
  151SOL     OW  473   1.302   0.855   0.309
  151SOL    HW1  474   1.216   0.824   0.351
  151SOL    HW2  475   1.298   0.841   0.210
  152SOL     OW  476   1.759   1.747   1.154
  152SOL    HW1  477   1.820   1.777   1.081
  152SOL    HW2  478   1.721   1.658   1.132
  153SOL     OW  479   1.252   1.731   1.128
  153SOL    HW1  480   1.336   1.736   1.074
  153SOL    HW2  481   1.229   1.635   1.146
  154SOL     OW  482   0.083   1.258   1.022
  154SOL    HW1  483   0.078   1.257   1.122
  154SOL    HW2  484   0.000   1.217   0.984
  155SOL     OW  485   0.688   1.662   1.716
  155SOL    HW1  486   0.632   1.743   1.725
  155SOL    HW2  487   0.740   1.666   1.630
  156SOL     OW  488   0.903   0.086   0.133
  156SOL    HW1  489   0.954   0.087   0.047
  156SOL    HW2  490   0.959   0.044   0.204
  157SOL     OW  491   1.726   0.135   0.523
  157SOL    HW1  492   1.799   0.118   0.456
  157SOL    HW2  493   1.695   0.048   0.561
  158SOL     OW  494   1.388   1.573   0.477
  158SOL    HW1  495   1.455   1.585   0.403
  158SOL    HW2  496   1.348   1.662   0.500
  159SOL     OW  497   0.130   1.794   1.851
  159SOL    HW1  498   0.089   1.720   1.904
  159SOL    HW2  499   0.194   1.845   1.909
  160SOL     OW  500   1.280   0.927   0.672
  160SOL    HW1  501   1.340   0.846   0.674
  160SOL    HW2  502   1.320   0.996   0.612
  161SOL     OW  503   0.830   1.273   1.422
  161SOL    HW1  504   0.825   1.306   1.517
  161SOL    HW2  505   0.744   1.292   1.376
  162SOL     OW  506   0.672   1.616   0.154
  162SOL    HW1  507   0.681   1.626   0.055
  162SOL    HW2  508   0.632   1.527   0.175
  163SOL     OW  509   1.650   1.720   1.394
  163SOL    HW1  510   1.703   1.730   1.310
  163SOL    HW2  511   1.623   1.810   1.428
  164SOL     OW  512   1.841   0.175   0.963
  164SOL    HW1  513   1.880   0.090   0.927
  164SOL    HW2  514   1.743   0.177   0.944
  165SOL     OW  515   0.263   0.326   0.720
  165SOL    HW1  516   0.184   0.377   0.686
  165SOL    HW2  517   0.254   0.311   0.818
  166SOL     OW  518   1.194   1.612   0.031
  166SOL    HW1  519   1.200   1.519   0.068
  166SOL    HW2  520   1.135   1.612  -0.049
  167SOL     OW  521   0.822   1.002   1.372
  167SOL    HW1  522   0.862   1.001   1.280
  167SOL    HW2  523   0.832   1.094   1.412
  168SOL     OW  524   0.916   0.910   0.291
  168SOL    HW1  525   0.979   0.948   0.223
  168SOL    HW2  526   0.956   0.827   0.330
  169SOL     OW  527   1.504   1.607   0.044
  169SOL    HW1  528   1.412   1.644   0.051
  169SOL    HW2  529   1.542   1.627  -0.046
  170SOL     OW  530   0.372   1.288   1.490
  170SOL    HW1  531   0.359   1.381   1.456
  170SOL    HW2  532   0.288   1.236   1.477
  171SOL     OW  533   1.614   1.292   1.289
  171SOL    HW1  534   1.674   1.295   1.369
  171SOL    HW2  535   1.539   1.356   1.302
  172SOL     OW  536   1.039   1.098   0.696
  172SOL    HW1  537   0.969   1.051   0.750
  172SOL    HW2  538   1.098   1.030   0.653
  173SOL     OW  539   1.014   0.236   0.971
  173SOL    HW1  540   1.006   0.200   0.878
  173SOL    HW2  541   1.012   0.160   1.036
  174SOL     OW  542   0.590   1.487   0.491
  174SOL    HW1  543   0.632   1.429   0.421
  174SOL    HW2  544   0.546   1.566   0.447
  175SOL     OW  545   1.709   0.385   1.381
  175SOL    HW1  546   1.782   0.454   1.385
  175SOL    HW2  547   1.737   0.310   1.322
  176SOL     OW  548   0.255   1.348   0.290
  176SOL    HW1  549   0.159   1.349   0.263
  176SOL    HW2  550   0.267   1.401   0.374
  177SOL     OW  551   0.105   1.013   1.726
  177SOL    HW1  552   0.028   0.980   1.780
  177SOL    HW2  553   0.190   0.983   1.768
  178SOL     OW  554   0.672   0.203   1.489
  178SOL    HW1  555   0.762   0.187   1.449
  178SOL    HW2  556   0.680   0.208   1.588
  179SOL     OW  557   0.075   0.345   0.033
  179SOL    HW1  558  -0.017   0.317   0.004
  179SOL    HW2  559   0.106   0.422  -0.023
  180SOL     OW  560   1.440   0.856   1.398
  180SOL    HW1  561   1.383   0.908   1.335
  180SOL    HW2  562   1.536   0.868   1.374
  181SOL     OW  563   0.072   0.166   0.318
  181SOL    HW1  564   0.055   0.249   0.264
  181SOL    HW2  565   0.162   0.129   0.296
  182SOL     OW  566   1.183   1.335   0.119
  182SOL    HW1  567   1.084   1.324   0.121
  182SOL    HW2  568   1.217   1.350   0.212
  183SOL     OW  569   0.613   0.842   1.431
  183SOL    HW1  570   0.669   0.923   1.414
  183SOL    HW2  571   0.672   0.762   1.434
  184SOL     OW  572   1.493   1.767   0.959
  184SOL    HW1  573   1.526   1.831   0.890
  184SOL    HW2  574   1.559   1.761   1.034
  185SOL     OW  575   0.716   0.565   1.708
  185SOL    HW1  576   0.735   0.630   1.782
  185SOL    HW2  577   0.776   0.485   1.717
  186SOL     OW  578   1.450   1.220   1.633
  186SOL    HW1  579   1.441   1.210   1.732
  186SOL    HW2  580   1.546   1.213   1.607
  187SOL     OW  581   0.390   1.741   1.560
  187SOL    HW1  582   0.299   1.782   1.558
  187SOL    HW2  583   0.383   1.647   1.592
  188SOL     OW  584   1.674   0.883   1.254
  188SOL    HW1  585   1.647   0.794   1.217
  188SOL    HW2  586   1.675   0.951   1.181
  189SOL     OW  587   1.225   0.325   0.449
  189SOL    HW1  588   1.290   0.251   0.438
  189SOL    HW2  589   1.245   0.375   0.533
  190SOL     OW  590   0.594   0.745   0.652
  190SOL    HW1  591   0.644   0.830   0.633
  190SOL    HW2  592   0.506   0.747   0.604
  191SOL     OW  593   1.777   0.342   1.642
  191SOL    HW1  594   1.760   0.373   1.548
  191SOL    HW2  595   1.693   0.305   1.680
  192SOL     OW  596   1.730   0.934   1.517
  192SOL    HW1  597   1.768   1.025   1.532
  192SOL    HW2  598   1.722   0.917   1.418
  193SOL     OW  599   0.859   1.374   0.016
  193SOL    HW1  600   0.813   1.389   0.104
  193SOL    HW2  601   0.903   1.459  -0.014
  194SOL     OW  602   0.661   1.790   0.953
  194SOL    HW1  603   0.615   1.878   0.940
  194SOL    HW2  604   0.760   1.802   0.946
  195SOL     OW  605   0.859   0.956   0.861
  195SOL    HW1  606   0.913   0.887   0.909
  195SOL    HW2  607   0.827   1.025   0.927
  196SOL     OW  608   1.083   0.984   0.087
  196SOL    HW1  609   1.060   1.037   0.005
  196SOL    HW2  610   1.164   0.928   0.068
  197SOL     OW  611   1.861   1.569   0.851
  197SOL    HW1  612   1.790   1.557   0.781
  197SOL    HW2  613   1.862   1.490   0.911
  198SOL     OW  614   0.221   1.314   1.844
  198SOL    HW1  615   0.156   1.241   1.823
  198SOL    HW2  616   0.225   1.328   1.942
  199SOL     OW  617   0.079   1.240   0.653
  199SOL    HW1  618   0.078   1.193   0.741
  199SOL    HW2  619   0.161   1.212   0.602
  200SOL     OW  620   0.672   1.391   1.624
  200SOL    HW1  621   0.594   1.341   1.662
  200SOL    HW2  622   0.669   1.486   1.655
  201SOL     OW  623   1.824   0.192   1.227
  201SOL    HW1  624   1.820   0.102   1.271
  201SOL    HW2  625   1.827   0.181   1.128
  202SOL     OW  626   0.428   0.424   0.520
  202SOL    HW1  627   0.458   0.352   0.458
  202SOL    HW2  628   0.389   0.384   0.603
  203SOL     OW  629   1.705   1.487   1.104
  203SOL    HW1  630   1.612   1.462   1.077
  203SOL    HW2  631   1.731   1.437   1.186
  204SOL     OW  632   0.317   0.547   1.280
  204SOL    HW1  633   0.355   0.488   1.352
  204SOL    HW2  634   0.357   0.521   1.192
  205SOL     OW  635   0.812   1.586   0.687
  205SOL    HW1  636   0.844   1.596   0.593
  205SOL    HW2  637   0.733   1.524   0.689
  206SOL     OW  638   1.424   0.214   1.112
  206SOL    HW1  639   1.476   0.149   1.167
  206SOL    HW2  640   1.375   0.277   1.173
  207SOL     OW  641   1.001   0.034   1.154
  207SOL    HW1  642   0.938  -0.038   1.123
  207SOL    HW2  643   1.094  -0.002   1.154
  208SOL     OW  644   0.770   1.330   0.301
  208SOL    HW1  645   0.724   1.243   0.318
  208SOL    HW2  646   0.861   1.327   0.342
  209SOL     OW  647   0.618   1.567   1.284
  209SOL    HW1  648   0.613   1.649   1.341
  209SOL    HW2  649   0.707   1.564   1.239
  210SOL     OW  650   1.352   0.052   0.168
  210SOL    HW1  651   1.387   0.011   0.084
  210SOL    HW2  652   1.262   0.014   0.188
  211SOL     OW  653   1.300   0.453   0.691
  211SOL    HW1  654   1.241   0.533   0.695
  211SOL    HW2  655   1.315   0.418   0.784
  212SOL     OW  656   1.593   0.221   0.882
  212SOL    HW1  657   1.509   0.220   0.936
  212SOL    HW2  658   1.595   0.304   0.826
  213SOL     OW  659   0.039   1.077   0.300
  213SOL    HW1  660   0.138   1.066   0.291
  213SOL    HW2  661  -0.001   0.991   0.332
  214SOL     OW  662   0.875   1.646   0.337
  214SOL    HW1  663   0.798   1.611   0.283
  214SOL    HW2  664   0.843   1.717   0.399
  215SOL     OW  665   0.230   0.628   1.975
  215SOL    HW1  666   0.137   0.626   2.012
  215SOL    HW2  667   0.231   0.589   1.883
  216SOL     OW  668   0.225   0.275   2.858
  216SOL    HW1  669   0.260   0.258   2.950
  216SOL    HW2  670   0.137   0.230   2.846
  217SOL     OW  671   0.019   0.368   2.509
  217SOL    HW1  672  -0.063   0.411   2.548
  217SOL    HW2  673  -0.009   0.295   2.446
  218SOL     OW  674   0.569   1.275   3.027
  218SOL    HW1  675   0.476   1.268   2.990
  218SOL    HW2  676   0.580   1.364   3.071
  219SOL     OW  677   1.555   1.511   2.565
  219SOL    HW1  678   1.498   1.495   2.646
  219SOL    HW2  679   1.496   1.521   2.485
  220SOL     OW  680   1.135   0.703   2.579
  220SOL    HW1  681   1.192   0.781   2.554
  220SOL    HW2  682   1.075   0.729   2.655
  221SOL     OW  683   1.755   0.607   2.093
  221SOL    HW1  684   1.743   0.594   1.994
  221SOL    HW2  685   1.725   0.526   2.142
  222SOL     OW  686   0.768   1.144   2.885
  222SOL    HW1  687   0.690   1.161   2.945
  222SOL    HW2  688   0.802   1.231   2.849
  223SOL     OW  689   0.850   0.798   3.685
  223SOL    HW1  690   0.846   0.874   3.750
  223SOL    HW2  691   0.872   0.834   3.594
  224SOL     OW  692   0.685   1.012   2.527
  224SOL    HW1  693   0.754   0.996   2.597
  224SOL    HW2  694   0.612   1.069   2.565
  225SOL     OW  695   0.686   1.161   3.665
  225SOL    HW1  696   0.746   1.240   3.679
  225SOL    HW2  697   0.600   1.192   3.624
  226SOL     OW  698   0.335   1.435   2.923
  226SOL    HW1  699   0.257   1.404   2.870
  226SOL    HW2  700   0.393   1.493   2.866
  227SOL     OW  701   1.460   1.505   3.201
  227SOL    HW1  702   1.484   1.599   3.227
  227SOL    HW2  703   1.444   1.451   3.283
  228SOL     OW  704   0.438   0.392   3.361
  228SOL    HW1  705   0.520   0.336   3.370
  228SOL    HW2  706   0.357   0.334   3.365
  229SOL     OW  707   1.603   0.447   2.599
  229SOL    HW1  708   1.529   0.493   2.549
  229SOL    HW2  709   1.654   0.515   2.652
  230SOL     OW  710   0.231   1.713   2.345
  230SOL    HW1  711   0.265   1.790   2.399
  230SOL    HW2  712   0.275   1.713   2.255
  231SOL     OW  713   1.127   1.341   3.552
  231SOL    HW1  714   1.174   1.341   3.640
  231SOL    HW2  715   1.079   1.254   3.541
  232SOL     OW  716   0.230   1.434   2.400
  232SOL    HW1  717   0.204   1.530   2.400
  232SOL    HW2  718   0.159   1.380   2.445
  233SOL     OW  719   0.240   1.091   2.748
  233SOL    HW1  720   0.254   1.007   2.800
  233SOL    HW2  721   0.185   1.155   2.803
  234SOL     OW  722   0.620   1.786   3.301
  234SOL    HW1  723   0.528   1.769   3.336
  234SOL    HW2  724   0.648   1.878   3.327
  235SOL     OW  725   0.606   0.964   1.985
  235SOL    HW1  726   0.613   1.048   1.931
  235SOL    HW2  727   0.652   0.977   2.073
  236SOL     OW  728   1.594   0.114   3.342
  236SOL    HW1  729   1.576   0.181   3.270
  236SOL    HW2  730   1.591   0.160   3.431
  237SOL     OW  731   0.122   0.643   2.425
  237SOL    HW1  732   0.077   0.555   2.442
  237SOL    HW2  733   0.121   0.697   2.509
  238SOL     OW  734   1.842   1.767   2.221
  238SOL    HW1  735   1.896   1.738   2.301
  238SOL    HW2  736   1.872   1.857   2.192
  239SOL     OW  737   0.027   1.596   1.979
  239SOL    HW1  738   0.008   1.500   2.000
  239SOL    HW2  739  -0.006   1.654   2.054
  240SOL     OW  740   1.689   0.922   2.474
  240SOL    HW1  741   1.784   0.893   2.482
  240SOL    HW2  742   1.681   0.987   2.399
  241SOL     OW  743   1.641   1.108   2.294
  241SOL    HW1  744   1.727   1.110   2.242
  241SOL    HW2  745   1.655   1.155   2.382
  242SOL     OW  746   0.113   0.737   3.459
  242SOL    HW1  747   0.201   0.724   3.504
  242SOL    HW2  748   0.100   0.834   3.437
  243SOL     OW  749   0.613   1.365   2.588
  243SOL    HW1  750   0.564   1.278   2.597
  243SOL    HW2  751   0.590   1.408   2.501
  244SOL     OW  752   1.293   1.228   3.285
  244SOL    HW1  753   1.330   1.155   3.227
  244SOL    HW2  754   1.345   1.233   3.370
  245SOL     OW  755   0.809   0.004   2.364
  245SOL    HW1  756   0.849   0.095   2.355
  245SOL    HW2  757   0.709   0.012   2.370
  246SOL     OW  758   0.197   0.976   3.126
  246SOL    HW1  759   0.286   0.931   3.112
  246SOL    HW2  760   0.124   0.911   3.107
  247SOL     OW  761   1.525   0.999   2.052
  247SOL    HW1  762   1.462   0.923   2.065
  247SOL    HW2  763   1.573   1.017   2.138
  248SOL     OW  764   1.187   1.792   3.478
  248SOL    HW1  765   1.211   1.852   3.402
  248SOL    HW2  766   1.194   1.697   3.448
  249SOL     OW  767   0.317   0.251   3.663
  249SOL    HW1  768   0.388   0.322   3.669
  249SOL    HW2  769   0.229   0.290   3.691
  250SOL     OW  770   1.466   1.417   2.815
  250SOL    HW1  771   1.407   1.423   2.895
  250SOL    HW2  772   1.451   1.329   2.769
  251SOL     OW  773   1.667   1.714   2.434
  251SOL    HW1  774   1.626   1.691   2.346
  251SOL    HW2  775   1.649   1.640   2.499
  252SOL     OW  776   0.598   0.729   2.132
  252SOL    HW1  777   0.622   0.798   2.064
  252SOL    HW2  778   0.520   0.762   2.186
  253SOL     OW  779   1.281   0.345   2.806
  253SOL    HW1  780   1.195   0.295   2.793
  253SOL    HW2  781   1.343   0.291   2.862
  254SOL     OW  782   1.576   1.662   2.169
  254SOL    HW1  783   1.665   1.708   2.172
  254SOL    HW2  784   1.555   1.638   2.074
  255SOL     OW  785   0.807   0.605   3.327
  255SOL    HW1  786   0.760   0.602   3.416
  255SOL    HW2  787   0.756   0.550   3.261
  256SOL     OW  788   1.394   0.469   3.536
  256SOL    HW1  789   1.374   0.512   3.624
  256SOL    HW2  790   1.472   0.407   3.545
  257SOL     OW  791   0.973   0.890   3.434
  257SOL    HW1  792   1.019   0.806   3.405
  257SOL    HW2  793   0.917   0.924   3.359
  258SOL     OW  794   0.991   0.410   3.104
  258SOL    HW1  795   0.914   0.444   3.158
  258SOL    HW2  796   0.957   0.359   3.025
  259SOL     OW  797   1.041   0.701   2.291
  259SOL    HW1  798   1.067   0.697   2.387
  259SOL    HW2  799   0.956   0.650   2.277
  260SOL     OW  800   0.076   0.811   2.651
  260SOL    HW1  801   0.175   0.799   2.660
  260SOL    HW2  802   0.052   0.906   2.672
  261SOL     OW  803   0.130   1.821   3.433
  261SOL    HW1  804   0.120   1.806   3.532
  261SOL    HW2  805   0.044   1.857   3.397
  262SOL     OW  806   0.865   0.348   2.057
  262SOL    HW1  807   0.924   0.411   2.008
  262SOL    HW2  808   0.884   0.254   2.028
  263SOL     OW  809   1.719   0.585   3.693
  263SOL    HW1  810   1.693   0.674   3.657
  263SOL    HW2  811   1.717   0.517   3.620
  264SOL     OW  812   1.362   1.144   2.407
  264SOL    HW1  813   1.445   1.115   2.359
  264SOL    HW2  814   1.313   1.211   2.351
  265SOL     OW  815   0.550   0.196   2.747
  265SOL    HW1  816   0.545   0.191   2.847
  265SOL    HW2  817   0.552   0.292   2.718
  266SOL     OW  818   1.008   1.456   2.339
  266SOL    HW1  819   0.962   1.528   2.287
  266SOL    HW2  820   1.004   1.476   2.437
  267SOL     OW  821   0.351   1.801   2.715
  267SOL    HW1  822   0.401   1.715   2.721
  267SOL    HW2  823   0.416   1.878   2.712
  268SOL     OW  824   1.795   1.066   2.735
  268SOL    HW1  825   1.733   1.051   2.659
  268SOL    HW2  826   1.743   1.077   2.820
  269SOL     OW  827   1.227   1.550   3.368
  269SOL    HW1  828   1.233   1.473   3.432
  269SOL    HW2  829   1.175   1.524   3.288
  270SOL     OW  830   0.321   0.943   2.104
  270SOL    HW1  831   0.403   0.982   2.062
  270SOL    HW2  832   0.294   0.861   2.055
  271SOL     OW  833   1.458   0.735   2.590
  271SOL    HW1  834   1.453   0.670   2.665
  271SOL    HW2  835   1.538   0.794   2.603
  272SOL     OW  836   0.461   1.266   3.589
  272SOL    HW1  837   0.411   1.267   3.503
  272SOL    HW2  838   0.398   1.248   3.665
  273SOL     OW  839   1.111   1.776   2.099
  273SOL    HW1  840   1.051   1.714   2.149
  273SOL    HW2  841   1.142   1.732   2.014
  274SOL     OW  842   0.202   0.285   3.360
  274SOL    HW1  843   0.122   0.345   3.347
  274SOL    HW2  844   0.192   0.236   3.446
  275SOL     OW  845   1.632   1.377   1.943
  275SOL    HW1  846   1.600   1.471   1.933
  275SOL    HW2  847   1.556   1.314   1.931
  276SOL     OW  848   0.464   1.743   2.185
  276SOL    HW1  849   0.497   1.782   2.271
  276SOL    HW2  850   0.540   1.736   2.120
  277SOL     OW  851   1.400   0.107   2.288
  277SOL    HW1  852   1.376   0.070   2.198
  277SOL    HW2  853   1.499   0.123   2.292
  278SOL     OW  854   0.249   1.785   3.103
  278SOL    HW1  855   0.306   1.720   3.153
  278SOL    HW2  856   0.233   1.752   3.010
  279SOL     OW  857   0.940   1.698   2.766
  279SOL    HW1  858   1.020   1.641   2.787
  279SOL    HW2  859   0.891   1.658   2.689
  280SOL     OW  860   0.382   0.700   2.342
  280SOL    HW1  861   0.427   0.610   2.339
  280SOL    HW2  862   0.288   0.689   2.375
  281SOL     OW  863   1.547   0.222   3.591
  281SOL    HW1  864   1.542   0.259   3.683
  281SOL    HW2  865   1.475   0.153   3.579
  282SOL     OW  866   0.614   0.122   1.979
  282SOL    HW1  867   0.712   0.100   1.986
  282SOL    HW2  868   0.583   0.105   1.886
  283SOL     OW  869   0.781   0.264   3.611
  283SOL    HW1  870   0.848   0.203   3.654
  283SOL    HW2  871   0.708   0.283   3.676
  284SOL     OW  872   0.888   1.514   3.057
  284SOL    HW1  873   0.865   1.489   2.963
  284SOL    HW2  874   0.949   1.445   3.096
  285SOL     OW  875   1.351   0.590   3.295
  285SOL    HW1  876   1.379   0.547   3.380
  285SOL    HW2  877   1.376   0.686   3.296
  286SOL     OW  878   0.803   1.402   2.786
  286SOL    HW1  879   0.893   1.416   2.744
  286SOL    HW2  880   0.732   1.404   2.715
  287SOL     OW  881   0.922   0.503   2.761
  287SOL    HW1  882   0.897   0.494   2.665
  287SOL    HW2  883   0.970   0.421   2.792
  288SOL     OW  884   0.539   0.064   2.374
  288SOL    HW1  885   0.458   0.065   2.432
  288SOL    HW2  886   0.542   0.147   2.319
  289SOL     OW  887   1.434   1.188   1.903
  289SOL    HW1  888   1.466   1.112   1.960
  289SOL    HW2  889   1.342   1.215   1.933
  290SOL     OW  890   0.297   0.035   2.033
  290SOL    HW1  891   0.346   0.119   2.012
  290SOL    HW2  892   0.359  -0.030   2.078
  291SOL     OW  893   0.935   0.236   2.342
  291SOL    HW1  894   0.887   0.277   2.264
  291SOL    HW2  895   1.034   0.234   2.323
  292SOL     OW  896   1.076   0.683   3.326
  292SOL    HW1  897   0.996   0.622   3.329
  292SOL    HW2  898   1.157   0.630   3.302
  293SOL     OW  899   1.227   1.570   2.655
  293SOL    HW1  900   1.248   1.644   2.590
  293SOL    HW2  901   1.295   1.570   2.728
  294SOL     OW  902   0.459   1.152   2.603
  294SOL    HW1  903   0.388   1.125   2.668
  294SOL    HW2  904   0.433   1.124   2.510
  295SOL     OW  905   1.271   1.797   2.453
  295SOL    HW1  906   1.315   1.861   2.389
  295SOL    HW2  907   1.221   1.849   2.523
  296SOL     OW  908   1.032   0.549   1.878
  296SOL    HW1  909   0.991   0.631   1.839
  296SOL    HW2  910   1.096   0.575   1.951
  297SOL     OW  911   0.078   0.556   3.248
  297SOL    HW1  912   0.170   0.555   3.207
  297SOL    HW2  913   0.072   0.630   3.315
  298SOL     OW  914   0.561   0.222   3.009
  298SOL    HW1  915   0.599   0.138   3.046
  298SOL    HW2  916   0.473   0.241   3.053
  299SOL     OW  917   0.866   0.454   2.504
  299SOL    HW1  918   0.834   0.526   2.442
  299SOL    HW2  919   0.890   0.373   2.451
  300SOL     OW  920   1.017   0.039   2.615
  300SOL    HW1  921   0.945   0.044   2.546
  300SOL    HW2  922   0.993  -0.030   2.684
  301SOL     OW  923   1.429   1.173   2.729
  301SOL    HW1  924   1.374   1.089   2.722
  301SOL    HW2  925   1.455   1.202   2.637
  302SOL     OW  926   1.466   0.590   2.854
  302SOL    HW1  927   1.436   0.495   2.861
  302SOL    HW2  928   1.539   0.606   2.920
  303SOL     OW  929   1.857   0.833   2.239
  303SOL    HW1  930   1.899   0.769   2.303
  303SOL    HW2  931   1.819   0.782   2.161
  304SOL     OW  932   0.488   1.385   2.036
  304SOL    HW1  933   0.401   1.370   2.083
  304SOL    HW2  934   0.471   1.411   1.941
  305SOL     OW  935   1.664   1.280   2.519
  305SOL    HW1  936   1.763   1.288   2.533
  305SOL    HW2  937   1.619   1.364   2.550
  306SOL     OW  938   1.390   0.575   1.940
  306SOL    HW1  939   1.336   0.554   2.021
  306SOL    HW2  940   1.481   0.534   1.949
  307SOL     OW  941   0.527   0.256   2.190
  307SOL    HW1  942   0.554   0.197   2.115
  307SOL    HW2  943   0.527   0.351   2.159
  308SOL     OW  944   1.754   1.223   3.450
  308SOL    HW1  945   1.845   1.184   3.437
  308SOL    HW2  946   1.762   1.319   3.474
  309SOL     OW  947   1.064   1.347   3.202
  309SOL    HW1  948   0.984   1.324   3.257
  309SOL    HW2  949   1.147   1.321   3.251
  310SOL     OW  950   1.592   1.629   3.487
  310SOL    HW1  951   1.619   1.663   3.397
  310SOL    HW2  952   1.671   1.591   3.533
  311SOL     OW  953   1.111   1.195   2.962
  311SOL    HW1  954   1.071   1.239   3.043
  311SOL    HW2  955   1.070   1.232   2.879
  312SOL     OW  956   1.638   1.099   2.941
  312SOL    HW1  957   1.643   1.180   3.000
  312SOL    HW2  958   1.552   1.101   2.890
  313SOL     OW  959   0.915   0.089   3.264
  313SOL    HW1  960   0.940   0.069   3.169
  313SOL    HW2  961   0.987   0.145   3.306
  314SOL     OW  962   0.980   1.116   3.581
  314SOL    HW1  963   0.881   1.122   3.591
  314SOL    HW2  964   1.003   1.036   3.525
  315SOL     OW  965   0.705   1.050   2.230
  315SOL    HW1  966   0.691   1.057   2.329
  315SOL    HW2  967   0.789   0.999   2.212
  316SOL     OW  968   0.410   0.813   3.113
  316SOL    HW1  969   0.496   0.825   3.163
  316SOL    HW2  970   0.368   0.726   3.140
  317SOL     OW  971   1.274   0.386   3.124
  317SOL    HW1  972   1.295   0.460   3.188
  317SOL    HW2  973   1.185   0.403   3.081
  318SOL     OW  974   0.064   1.564   3.193
  318SOL    HW1  975   0.018   1.646   3.159
  318SOL    HW2  976   0.162   1.583   3.202
  319SOL     OW  977   0.367   1.100   2.363
  319SOL    HW1  978   0.360   1.183   2.307
  319SOL    HW2  979   0.371   1.020   2.303
  320SOL     OW  980   0.566   0.537   2.727
  320SOL    HW1  981   0.578   0.603   2.653
  320SOL    HW2  982   0.612   0.571   2.810
  321SOL     OW  983   1.252   1.348   2.250
  321SOL    HW1  984   1.302   1.425   2.290
  321SOL    HW2  985   1.157   1.350   2.282
  322SOL     OW  986   1.272   1.445   3.004
  322SOL    HW1  987   1.319   1.458   3.091
  322SOL    HW2  988   1.206   1.371   3.013
  323SOL     OW  989   1.582   0.639   2.334
  323SOL    HW1  990   1.551   0.700   2.407
  323SOL    HW2  991   1.632   0.691   2.265
  324SOL     OW  992   0.354   1.510   3.191
  324SOL    HW1  993   0.333   1.466   3.104
  324SOL    HW2  994   0.451   1.536   3.194
  325SOL     OW  995   0.402   0.751   3.460
  325SOL    HW1  996   0.470   0.806   3.413
  325SOL    HW2  997   0.442   0.663   3.487
  326SOL     OW  998   1.587   0.779   3.532
  326SOL    HW1  999   1.495   0.817   3.527
  326SOL    HW2 1000   1.647   0.826   3.467
  327SOL     OW 1001   1.013   0.105   3.632
  327SOL    HW1 1002   1.019   0.190   3.580
  327SOL    HW2 1003   1.045   0.029   3.575
  328SOL     OW 1004   0.504   0.050   3.602
  328SOL    HW1 1005   0.462  -0.007   3.532
  328SOL    HW2 1006   0.438   0.119   3.634
  329SOL     OW 1007   0.573   0.870   2.891
  329SOL    HW1 1008   0.617   0.959   2.882
  329SOL    HW2 1009   0.510   0.870   2.968
  330SOL     OW 1010   1.360   0.862   2.907
  330SOL    HW1 1011   1.285   0.862   2.841
  330SOL    HW2 1012   1.397   0.770   2.916
  331SOL     OW 1013   1.209   0.525   2.137
  331SOL    HW1 1014   1.222   0.441   2.191
  331SOL    HW2 1015   1.180   0.599   2.197
  332SOL     OW 1016   0.307   0.213   3.093
  332SOL    HW1 1017   0.284   0.250   3.183
  332SOL    HW2 1018   0.277   0.118   3.087
  333SOL     OW 1019   0.037   1.310   3.144
  333SOL    HW1 1020   0.090   1.261   3.212
  333SOL    HW2 1021   0.059   1.408   3.149
  334SOL     OW 1022   0.732   0.634   2.926
  334SOL    HW1 1023   0.791   0.608   2.850
  334SOL    HW2 1024   0.704   0.730   2.915
  335SOL     OW 1025   1.728   0.935   3.716
  335SOL    HW1 1026   1.682   0.928   3.627
  335SOL    HW2 1027   1.666   0.979   3.782
  336SOL     OW 1028   0.307   0.063   2.480
  336SOL    HW1 1029   0.296   0.157   2.513
  336SOL    HW2 1030   0.302   0.000   2.557
  337SOL     OW 1031   1.622   0.367   2.236
  337SOL    HW1 1032   1.624   0.291   2.300
  337SOL    HW2 1033   1.574   0.444   2.276
  338SOL     OW 1034   1.023   0.766   2.828
  338SOL    HW1 1035   1.038   0.787   2.924
  338SOL    HW2 1036   0.993   0.671   2.819
  339SOL     OW 1037   0.980   1.573   3.562
  339SOL    HW1 1038   0.960   1.617   3.474
  339SOL    HW2 1039   1.019   1.482   3.546
  340SOL     OW 1040   1.859   1.518   3.467
  340SOL    HW1 1041   1.873   1.545   3.372
  340SOL    HW2 1042   1.942   1.540   3.520
  341SOL     OW 1043   0.350   0.898   3.666
  341SOL    HW1 1044   0.426   0.942   3.714
  341SOL    HW2 1045   0.385   0.851   3.584
  342SOL     OW 1046   1.540   0.274   1.987
  342SOL    HW1 1047   1.479   0.199   2.010
  342SOL    HW2 1048   1.562   0.326   2.070
  343SOL     OW 1049   1.303   0.838   1.904
  343SOL    HW1 1050   1.337   0.745   1.919
  343SOL    HW2 1051   1.321   0.865   1.809
  344SOL     OW 1052   1.068   1.333   2.711
  344SOL    HW1 1053   1.075   1.249   2.656
  344SOL    HW2 1054   1.130   1.402   2.675
  345SOL     OW 1055   0.319   0.810   2.811
  345SOL    HW1 1056   0.412   0.846   2.816
  345SOL    HW2 1057   0.313   0.725   2.863
  346SOL     OW 1058   0.339   0.509   2.868
  346SOL    HW1 1059   0.287   0.426   2.851
  346SOL    HW2 1060   0.416   0.514   2.804
  347SOL     OW 1061   1.138   0.380   3.540
  347SOL    HW1 1062   1.093   0.443   3.604
  347SOL    HW2 1063   1.231   0.411   3.523
  348SOL     OW 1064   1.160   0.207   3.339
  348SOL    HW1 1065   1.160   0.271   3.416
  348SOL    HW2 1066   1.188   0.255   3.256
  349SOL     OW 1067   0.008   1.326   2.062
  349SOL    HW1 1068  -0.085   1.347   2.031
  349SOL    HW2 1069   0.018   1.227   2.075
  350SOL     OW 1070   0.088   1.801   2.789
  350SOL    HW1 1071   0.046   1.715   2.762
  350SOL    HW2 1072   0.182   1.804   2.755
  351SOL     OW 1073   0.504   1.568   2.772
  351SOL    HW1 1074   0.570   1.642   2.781
  351SOL    HW2 1075   0.548   1.489   2.730
  352SOL     OW 1076   1.002   0.796   3.100
  352SOL    HW1 1077   1.043   0.764   3.186
  352SOL    HW2 1078   0.906   0.769   3.097
  353SOL     OW 1079   0.040   0.544   2.976
  353SOL    HW1 1080   0.125   0.511   2.935
  353SOL    HW2 1081   0.053   0.559   3.074
  354SOL     OW 1082   0.189   0.520   3.584
  354SOL    HW1 1083   0.248   0.480   3.514
  354SOL    HW2 1084   0.131   0.591   3.543
  355SOL     OW 1085   1.369   0.950   3.522
  355SOL    HW1 1086   1.408   1.039   3.542
  355SOL    HW2 1087   1.379   0.930   3.425
  356SOL     OW 1088   0.815   0.572   2.187
  356SOL    HW1 1089   0.822   0.483   2.141
  356SOL    HW2 1090   0.721   0.606   2.179
  357SOL     OW 1091   1.657   0.604   3.068
  357SOL    HW1 1092   1.619   0.535   3.130
  357SOL    HW2 1093   1.739   0.568   3.024
  358SOL     OW 1094   0.252   1.564   3.606
  358SOL    HW1 1095   0.222   1.621   3.682
  358SOL    HW2 1096   0.245   1.467   3.632
  359SOL     OW 1097   0.671   0.464   3.131
  359SOL    HW1 1098   0.637   0.375   3.101
  359SOL    HW2 1099   0.697   0.518   3.051
  360SOL     OW 1100   0.930   1.678   3.327
  360SOL    HW1 1101   0.906   1.660   3.232
  360SOL    HW2 1102   0.960   1.772   3.337
  361SOL     OW 1103   0.473   0.500   2.053
  361SOL    HW1 1104   0.534   0.580   2.057
  361SOL    HW2 1105   0.378   0.531   2.060
  362SOL     OW 1106   0.159   1.137   3.328
  362SOL    HW1 1107   0.181   1.076   3.404
  362SOL    HW2 1108   0.169   1.088   3.242
  363SOL     OW 1109   1.347   1.059   3.096
  363SOL    HW1 1110   1.371   0.996   3.022
  363SOL    HW2 1111   1.257   1.099   3.078
  364SOL     OW 1112   1.302   0.855   2.171
  364SOL    HW1 1113   1.216   0.824   2.213
  364SOL    HW2 1114   1.298   0.841   2.072
  365SOL     OW 1115   1.759   1.747   3.016
  365SOL    HW1 1116   1.820   1.777   2.943
  365SOL    HW2 1117   1.721   1.658   2.994
  366SOL     OW 1118   1.252   1.731   2.990
  366SOL    HW1 1119   1.336   1.736   2.936
  366SOL    HW2 1120   1.229   1.635   3.008
  367SOL     OW 1121   0.083   1.258   2.884
  367SOL    HW1 1122   0.078   1.257   2.984
  367SOL    HW2 1123   0.000   1.217   2.846
  368SOL     OW 1124   0.688   1.662   3.578
  368SOL    HW1 1125   0.632   1.743   3.587
  368SOL    HW2 1126   0.740   1.666   3.492
  369SOL     OW 1127   1.726   0.135   2.385
  369SOL    HW1 1128   1.799   0.118   2.318
  369SOL    HW2 1129   1.695   0.048   2.423
  370SOL     OW 1130   1.388   1.573   2.339
  370SOL    HW1 1131   1.455   1.585   2.265
  370SOL    HW2 1132   1.348   1.662   2.362
  371SOL     OW 1133   0.130   1.794   3.713
  371SOL    HW1 1134   0.089   1.720   3.766
  371SOL    HW2 1135   0.194   1.845   3.771
  372SOL     OW 1136   1.280   0.927   2.534
  372SOL    HW1 1137   1.340   0.846   2.536
  372SOL    HW2 1138   1.320   0.996   2.474
  373SOL     OW 1139   0.830   1.273   3.284
  373SOL    HW1 1140   0.825   1.306   3.379
  373SOL    HW2 1141   0.744   1.292   3.238
  374SOL     OW 1142   0.672   1.616   2.016
  374SOL    HW1 1143   0.681   1.626   1.917
  374SOL    HW2 1144   0.632   1.527   2.037
  375SOL     OW 1145   1.650   1.720   3.256
  375SOL    HW1 1146   1.703   1.730   3.172
  375SOL    HW2 1147   1.623   1.810   3.290
  376SOL     OW 1148   1.841   0.175   2.825
  376SOL    HW1 1149   1.880   0.090   2.789
  376SOL    HW2 1150   1.743   0.177   2.806
  377SOL     OW 1151   0.263   0.326   2.582
  377SOL    HW1 1152   0.184   0.377   2.548
  377SOL    HW2 1153   0.254   0.311   2.680
  378SOL     OW 1154   1.194   1.612   1.893
  378SOL    HW1 1155   1.200   1.519   1.930
  378SOL    HW2 1156   1.135   1.612   1.813
  379SOL     OW 1157   0.822   1.002   3.234
  379SOL    HW1 1158   0.862   1.001   3.142
  379SOL    HW2 1159   0.832   1.094   3.274
  380SOL     OW 1160   0.916   0.910   2.153
  380SOL    HW1 1161   0.979   0.948   2.085
  380SOL    HW2 1162   0.956   0.827   2.192
  381SOL     OW 1163   1.504   1.607   1.906
  381SOL    HW1 1164   1.412   1.644   1.913
  381SOL    HW2 1165   1.542   1.627   1.816
  382SOL     OW 1166   0.372   1.288   3.352
  382SOL    HW1 1167   0.359   1.381   3.318
  382SOL    HW2 1168   0.288   1.236   3.339
  383SOL     OW 1169   1.614   1.292   3.151
  383SOL    HW1 1170   1.674   1.295   3.231
  383SOL    HW2 1171   1.539   1.356   3.164
  384SOL     OW 1172   1.039   1.098   2.558
  384SOL    HW1 1173   0.969   1.051   2.612
  384SOL    HW2 1174   1.098   1.030   2.515
  385SOL     OW 1175   1.014   0.236   2.833
  385SOL    HW1 1176   1.006   0.200   2.740
  385SOL    HW2 1177   1.012   0.160   2.898
  386SOL     OW 1178   0.590   1.487   2.353
  386SOL    HW1 1179   0.632   1.429   2.283
  386SOL    HW2 1180   0.546   1.566   2.309
  387SOL     OW 1181   1.709   0.385   3.243
  387SOL    HW1 1182   1.782   0.454   3.247
  387SOL    HW2 1183   1.737   0.310   3.184
  388SOL     OW 1184   0.255   1.348   2.152
  388SOL    HW1 1185   0.159   1.349   2.125
  388SOL    HW2 1186   0.267   1.401   2.236
  389SOL     OW 1187   0.105   1.013   3.588
  389SOL    HW1 1188   0.028   0.980   3.642
  389SOL    HW2 1189   0.190   0.983   3.630
  390SOL     OW 1190   0.672   0.203   3.351
  390SOL    HW1 1191   0.762   0.187   3.311
  390SOL    HW2 1192   0.680   0.208   3.450
  391SOL     OW 1193   0.075   0.345   1.895
  391SOL    HW1 1194  -0.017   0.317   1.866
  391SOL    HW2 1195   0.106   0.422   1.839
  392SOL     OW 1196   1.440   0.856   3.260
  392SOL    HW1 1197   1.383   0.908   3.197
  392SOL    HW2 1198   1.536   0.868   3.236
  393SOL     OW 1199   0.072   0.166   2.180
  393SOL    HW1 1200   0.055   0.249   2.126
  393SOL    HW2 1201   0.162   0.129   2.158
  394SOL     OW 1202   1.183   1.335   1.981
  394SOL    HW1 1203   1.084   1.324   1.983
  394SOL    HW2 1204   1.217   1.350   2.074
  395SOL     OW 1205   0.613   0.842   3.293
  395SOL    HW1 1206   0.669   0.923   3.276
  395SOL    HW2 1207   0.672   0.762   3.296
  396SOL     OW 1208   1.493   1.767   2.821
  396SOL    HW1 1209   1.526   1.831   2.752
  396SOL    HW2 1210   1.559   1.761   2.896
  397SOL     OW 1211   0.716   0.565   3.570
  397SOL    HW1 1212   0.735   0.630   3.644
  397SOL    HW2 1213   0.776   0.485   3.579
  398SOL     OW 1214   1.450   1.220   3.495
  398SOL    HW1 1215   1.441   1.210   3.594
  398SOL    HW2 1216   1.546   1.213   3.469
  399SOL     OW 1217   0.390   1.741   3.422
  399SOL    HW1 1218   0.299   1.782   3.420
  399SOL    HW2 1219   0.383   1.647   3.454
  400SOL     OW 1220   1.674   0.883   3.116
  400SOL    HW1 1221   1.647   0.794   3.079
  400SOL    HW2 1222   1.675   0.951   3.043
  401SOL     OW 1223   1.225   0.325   2.311
  401SOL    HW1 1224   1.290   0.251   2.300
  401SOL    HW2 1225   1.245   0.375   2.395
  402SOL     OW 1226   0.594   0.745   2.514
  402SOL    HW1 1227   0.644   0.830   2.495
  402SOL    HW2 1228   0.506   0.747   2.466
  403SOL     OW 1229   1.777   0.342   3.504
  403SOL    HW1 1230   1.760   0.373   3.410
  403SOL    HW2 1231   1.693   0.305   3.542
  404SOL     OW 1232   1.730   0.934   3.379
  404SOL    HW1 1233   1.768   1.025   3.394
  404SOL    HW2 1234   1.722   0.917   3.280
  405SOL     OW 1235   0.859   1.374   1.878
  405SOL    HW1 1236   0.813   1.389   1.966
  405SOL    HW2 1237   0.903   1.459   1.848
  406SOL     OW 1238   0.661   1.790   2.815
  406SOL    HW1 1239   0.615   1.878   2.802
  406SOL    HW2 1240   0.760   1.802   2.808
  407SOL     OW 1241   0.859   0.956   2.723
  407SOL    HW1 1242   0.913   0.887   2.771
  407SOL    HW2 1243   0.827   1.025   2.789
  408SOL     OW 1244   1.083   0.984   1.949
  408SOL    HW1 1245   1.060   1.037   1.867
  408SOL    HW2 1246   1.164   0.928   1.930
  409SOL     OW 1247   1.861   1.569   2.713
  409SOL    HW1 1248   1.790   1.557   2.643
  409SOL    HW2 1249   1.862   1.490   2.773
  410SOL     OW 1250   0.221   1.314   3.706
  410SOL    HW1 1251   0.156   1.241   3.685
  410SOL    HW2 1252   0.225   1.328   3.804
  411SOL     OW 1253   0.079   1.240   2.515
  411SOL    HW1 1254   0.078   1.193   2.603
  411SOL    HW2 1255   0.161   1.212   2.464
  412SOL     OW 1256   0.672   1.391   3.486
  412SOL    HW1 1257   0.594   1.341   3.524
  412SOL    HW2 1258   0.669   1.486   3.517
  413SOL     OW 1259   1.824   0.192   3.089
  413SOL    HW1 1260   1.820   0.102   3.133
  413SOL    HW2 1261   1.827   0.181   2.990
  414SOL     OW 1262   0.428   0.424   2.382
  414SOL    HW1 1263   0.458   0.352   2.320
  414SOL    HW2 1264   0.389   0.384   2.465
  415SOL     OW 1265   1.705   1.487   2.966
  415SOL    HW1 1266   1.612   1.462   2.939
  415SOL    HW2 1267   1.731   1.437   3.048
  416SOL     OW 1268   0.317   0.547   3.142
  416SOL    HW1 1269   0.355   0.488   3.214
  416SOL    HW2 1270   0.357   0.521   3.054
  417SOL     OW 1271   0.812   1.586   2.549
  417SOL    HW1 1272   0.844   1.596   2.455
  417SOL    HW2 1273   0.733   1.524   2.551
  418SOL     OW 1274   1.424   0.214   2.974
  418SOL    HW1 1275   1.476   0.149   3.029
  418SOL    HW2 1276   1.375   0.277   3.035
  419SOL     OW 1277   1.001   0.034   3.016
  419SOL    HW1 1278   0.938  -0.038   2.985
  419SOL    HW2 1279   1.094  -0.002   3.016
  420SOL     OW 1280   0.770   1.330   2.163
  420SOL    HW1 1281   0.724   1.243   2.180
  420SOL    HW2 1282   0.861   1.327   2.204
  421SOL     OW 1283   0.618   1.567   3.146
  421SOL    HW1 1284   0.613   1.649   3.203
  421SOL    HW2 1285   0.707   1.564   3.101
  422SOL     OW 1286   1.352   0.052   2.030
  422SOL    HW1 1287   1.387   0.011   1.946
  422SOL    HW2 1288   1.262   0.014   2.050
  423SOL     OW 1289   1.300   0.453   2.553
  423SOL    HW1 1290   1.241   0.533   2.557
  423SOL    HW2 1291   1.315   0.418   2.646
  424SOL     OW 1292   1.593   0.221   2.744
  424SOL    HW1 1293   1.509   0.220   2.798
  424SOL    HW2 1294   1.595   0.304   2.688
  425SOL     OW 1295   0.039   1.077   2.162
  425SOL    HW1 1296   0.138   1.066   2.153
  425SOL    HW2 1297  -0.001   0.991   2.194
  426SOL     OW 1298   0.875   1.646   2.199
  426SOL    HW1 1299   0.798   1.611   2.145
  426SOL    HW2 1300   0.843   1.717   2.261
  427SOL     OW 1301   0.230   0.628   3.837
  427SOL    HW1 1302   0.137   0.626   3.874
  427SOL    HW2 1303   0.231   0.589   3.745
  428SOL     OW 1304   0.225   0.275   4.720
  428SOL    HW1 1305   0.260   0.258   4.812
  428SOL    HW2 1306   0.137   0.230   4.708
  429SOL     OW 1307   0.019   0.368   4.371
  429SOL    HW1 1308  -0.063   0.411   4.410
  429SOL    HW2 1309  -0.009   0.295   4.308
  430SOL     OW 1310   0.569   1.275   4.889
  430SOL    HW1 1311   0.476   1.268   4.852
  430SOL    HW2 1312   0.580   1.364   4.933
  431SOL     OW 1313   1.555   1.511   4.427
  431SOL    HW1 1314   1.498   1.495   4.508
  431SOL    HW2 1315   1.496   1.521   4.347
  432SOL     OW 1316   1.135   0.703   4.441
  432SOL    HW1 1317   1.192   0.781   4.416
  432SOL    HW2 1318   1.075   0.729   4.517
  433SOL     OW 1319   1.755   0.607   3.955
  433SOL    HW1 1320   1.743   0.594   3.856
  433SOL    HW2 1321   1.725   0.526   4.004
  434SOL     OW 1322   0.768   1.144   4.747
  434SOL    HW1 1323   0.690   1.161   4.807
  434SOL    HW2 1324   0.802   1.231   4.711
  435SOL     OW 1325   0.685   1.012   4.389
  435SOL    HW1 1326   0.754   0.996   4.459
  435SOL    HW2 1327   0.612   1.069   4.427
  436SOL     OW 1328   0.335   1.435   4.785
  436SOL    HW1 1329   0.257   1.404   4.732
  436SOL    HW2 1330   0.393   1.493   4.728
  437SOL     OW 1331   1.603   0.447   4.461
  437SOL    HW1 1332   1.529   0.493   4.411
  437SOL    HW2 1333   1.654   0.515   4.514
  438SOL     OW 1334   0.231   1.713   4.207
  438SOL    HW1 1335   0.265   1.790   4.261
  438SOL    HW2 1336   0.275   1.713   4.117
  439SOL     OW 1337   0.230   1.434   4.262
  439SOL    HW1 1338   0.204   1.530   4.262
  439SOL    HW2 1339   0.159   1.380   4.307
  440SOL     OW 1340   0.240   1.091   4.610
  440SOL    HW1 1341   0.254   1.007   4.662
  440SOL    HW2 1342   0.185   1.155   4.665
  441SOL     OW 1343   0.606   0.964   3.847
  441SOL    HW1 1344   0.613   1.048   3.793
  441SOL    HW2 1345   0.652   0.977   3.935
  442SOL     OW 1346   0.122   0.643   4.287
  442SOL    HW1 1347   0.077   0.555   4.304
  442SOL    HW2 1348   0.121   0.697   4.371
  443SOL     OW 1349   1.842   1.767   4.083
  443SOL    HW1 1350   1.896   1.738   4.163
  443SOL    HW2 1351   1.872   1.857   4.054
  444SOL     OW 1352   0.027   1.596   3.841
  444SOL    HW1 1353   0.008   1.500   3.862
  444SOL    HW2 1354  -0.006   1.654   3.916
  445SOL     OW 1355   1.689   0.922   4.336
  445SOL    HW1 1356   1.784   0.893   4.344
  445SOL    HW2 1357   1.681   0.987   4.261
  446SOL     OW 1358   1.641   1.108   4.156
  446SOL    HW1 1359   1.727   1.110   4.104
  446SOL    HW2 1360   1.655   1.155   4.244
  447SOL     OW 1361   0.613   1.365   4.450
  447SOL    HW1 1362   0.564   1.278   4.459
  447SOL    HW2 1363   0.590   1.408   4.363
  448SOL     OW 1364   0.809   0.004   4.226
  448SOL    HW1 1365   0.849   0.095   4.217
  448SOL    HW2 1366   0.709   0.012   4.232
  449SOL     OW 1367   0.197   0.976   4.988
  449SOL    HW1 1368   0.286   0.931   4.974
  449SOL    HW2 1369   0.124   0.911   4.969
  450SOL     OW 1370   1.525   0.999   3.914
  450SOL    HW1 1371   1.462   0.923   3.927
  450SOL    HW2 1372   1.573   1.017   4.000
  451SOL     OW 1373   1.466   1.417   4.677
  451SOL    HW1 1374   1.407   1.423   4.757
  451SOL    HW2 1375   1.451   1.329   4.631
  452SOL     OW 1376   1.667   1.714   4.296
  452SOL    HW1 1377   1.626   1.691   4.208
  452SOL    HW2 1378   1.649   1.640   4.361
  453SOL     OW 1379   0.598   0.729   3.994
  453SOL    HW1 1380   0.622   0.798   3.926
  453SOL    HW2 1381   0.520   0.762   4.048
  454SOL     OW 1382   1.281   0.345   4.668
  454SOL    HW1 1383   1.195   0.295   4.655
  454SOL    HW2 1384   1.343   0.291   4.724
  455SOL     OW 1385   1.576   1.662   4.031
  455SOL    HW1 1386   1.665   1.708   4.034
  455SOL    HW2 1387   1.555   1.638   3.936
  456SOL     OW 1388   1.041   0.701   4.153
  456SOL    HW1 1389   1.067   0.697   4.249
  456SOL    HW2 1390   0.956   0.650   4.139
  457SOL     OW 1391   0.076   0.811   4.513
  457SOL    HW1 1392   0.175   0.799   4.522
  457SOL    HW2 1393   0.052   0.906   4.534
  458SOL     OW 1394   0.865   0.348   3.919
  458SOL    HW1 1395   0.924   0.411   3.870
  458SOL    HW2 1396   0.884   0.254   3.890
  459SOL     OW 1397   1.362   1.144   4.269
  459SOL    HW1 1398   1.445   1.115   4.221
  459SOL    HW2 1399   1.313   1.211   4.213
  460SOL     OW 1400   0.550   0.196   4.609
  460SOL    HW1 1401   0.545   0.191   4.709
  460SOL    HW2 1402   0.552   0.292   4.580
  461SOL     OW 1403   1.008   1.456   4.201
  461SOL    HW1 1404   0.962   1.528   4.149
  461SOL    HW2 1405   1.004   1.476   4.299
  462SOL     OW 1406   0.351   1.801   4.577
  462SOL    HW1 1407   0.401   1.715   4.583
  462SOL    HW2 1408   0.416   1.878   4.574
  463SOL     OW 1409   1.795   1.066   4.597
  463SOL    HW1 1410   1.733   1.051   4.521
  463SOL    HW2 1411   1.743   1.077   4.682
  464SOL     OW 1412   0.321   0.943   3.966
  464SOL    HW1 1413   0.403   0.982   3.924
  464SOL    HW2 1414   0.294   0.861   3.917
  465SOL     OW 1415   1.458   0.735   4.452
  465SOL    HW1 1416   1.453   0.670   4.527
  465SOL    HW2 1417   1.538   0.794   4.465
  466SOL     OW 1418   1.111   1.776   3.961
  466SOL    HW1 1419   1.051   1.714   4.011
  466SOL    HW2 1420   1.142   1.732   3.876
  467SOL     OW 1421   1.632   1.377   3.805
  467SOL    HW1 1422   1.600   1.471   3.795
  467SOL    HW2 1423   1.556   1.314   3.793
  468SOL     OW 1424   0.464   1.743   4.047
  468SOL    HW1 1425   0.497   1.782   4.133
  468SOL    HW2 1426   0.540   1.736   3.982
  469SOL     OW 1427   1.400   0.107   4.150
  469SOL    HW1 1428   1.376   0.070   4.060
  469SOL    HW2 1429   1.499   0.123   4.154
  470SOL     OW 1430   0.249   1.785   4.965
  470SOL    HW1 1431   0.306   1.720   5.015
  470SOL    HW2 1432   0.233   1.752   4.872
  471SOL     OW 1433   0.940   1.698   4.628
  471SOL    HW1 1434   1.020   1.641   4.649
  471SOL    HW2 1435   0.891   1.658   4.551
  472SOL     OW 1436   0.382   0.700   4.204
  472SOL    HW1 1437   0.427   0.610   4.201
  472SOL    HW2 1438   0.288   0.689   4.237
  473SOL     OW 1439   0.614   0.122   3.841
  473SOL    HW1 1440   0.712   0.100   3.848
  473SOL    HW2 1441   0.583   0.105   3.748
  474SOL     OW 1442   0.803   1.402   4.648
  474SOL    HW1 1443   0.893   1.416   4.606
  474SOL    HW2 1444   0.732   1.404   4.577
  475SOL     OW 1445   0.922   0.503   4.623
  475SOL    HW1 1446   0.897   0.494   4.527
  475SOL    HW2 1447   0.970   0.421   4.654
  476SOL     OW 1448   0.539   0.064   4.236
  476SOL    HW1 1449   0.458   0.065   4.294
  476SOL    HW2 1450   0.542   0.147   4.181
  477SOL     OW 1451   1.434   1.188   3.765
  477SOL    HW1 1452   1.466   1.112   3.822
  477SOL    HW2 1453   1.342   1.215   3.795
  478SOL     OW 1454   0.297   0.035   3.895
  478SOL    HW1 1455   0.346   0.119   3.874
  478SOL    HW2 1456   0.359  -0.030   3.940
  479SOL     OW 1457   0.935   0.236   4.204
  479SOL    HW1 1458   0.887   0.277   4.126
  479SOL    HW2 1459   1.034   0.234   4.185
  480SOL     OW 1460   1.227   1.570   4.517
  480SOL    HW1 1461   1.248   1.644   4.452
  480SOL    HW2 1462   1.295   1.570   4.590
  481SOL     OW 1463   0.459   1.152   4.465
  481SOL    HW1 1464   0.388   1.125   4.530
  481SOL    HW2 1465   0.433   1.124   4.372
  482SOL     OW 1466   1.271   1.797   4.315
  482SOL    HW1 1467   1.315   1.861   4.251
  482SOL    HW2 1468   1.221   1.849   4.385
  483SOL     OW 1469   1.032   0.549   3.740
  483SOL    HW1 1470   0.991   0.631   3.701
  483SOL    HW2 1471   1.096   0.575   3.813
  484SOL     OW 1472   0.866   0.454   4.366
  484SOL    HW1 1473   0.834   0.526   4.304
  484SOL    HW2 1474   0.890   0.373   4.313
  485SOL     OW 1475   1.017   0.039   4.477
  485SOL    HW1 1476   0.945   0.044   4.408
  485SOL    HW2 1477   0.993  -0.030   4.546
  486SOL     OW 1478   1.429   1.173   4.591
  486SOL    HW1 1479   1.374   1.089   4.584
  486SOL    HW2 1480   1.455   1.202   4.499
  487SOL     OW 1481   1.466   0.590   4.716
  487SOL    HW1 1482   1.436   0.495   4.723
  487SOL    HW2 1483   1.539   0.606   4.782
  488SOL     OW 1484   1.857   0.833   4.101
  488SOL    HW1 1485   1.899   0.769   4.165
  488SOL    HW2 1486   1.819   0.782   4.023
  489SOL     OW 1487   0.488   1.385   3.898
  489SOL    HW1 1488   0.401   1.370   3.945
  489SOL    HW2 1489   0.471   1.411   3.803
  490SOL     OW 1490   1.664   1.280   4.381
  490SOL    HW1 1491   1.763   1.288   4.395
  490SOL    HW2 1492   1.619   1.364   4.412
  491SOL     OW 1493   1.390   0.575   3.802
  491SOL    HW1 1494   1.336   0.554   3.883
  491SOL    HW2 1495   1.481   0.534   3.811
  492SOL     OW 1496   0.527   0.256   4.052
  492SOL    HW1 1497   0.554   0.197   3.977
  492SOL    HW2 1498   0.527   0.351   4.021
  493SOL     OW 1499   1.111   1.195   4.824
  493SOL    HW1 1500   1.071   1.239   4.905
  493SOL    HW2 1501   1.070   1.232   4.741
  494SOL     OW 1502   1.638   1.099   4.803
  494SOL    HW1 1503   1.643   1.180   4.862
  494SOL    HW2 1504   1.552   1.101   4.752
  495SOL     OW 1505   0.705   1.050   4.092
  495SOL    HW1 1506   0.691   1.057   4.191
  495SOL    HW2 1507   0.789   0.999   4.074
  496SOL     OW 1508   0.410   0.813   4.975
  496SOL    HW1 1509   0.496   0.825   5.025
  496SOL    HW2 1510   0.368   0.726   5.002
  497SOL     OW 1511   0.367   1.100   4.225
  497SOL    HW1 1512   0.360   1.183   4.169
  497SOL    HW2 1513   0.371   1.020   4.165
  498SOL     OW 1514   0.566   0.537   4.589
  498SOL    HW1 1515   0.578   0.603   4.515
  498SOL    HW2 1516   0.612   0.571   4.672
  499SOL     OW 1517   1.252   1.348   4.112
  499SOL    HW1 1518   1.302   1.425   4.152
  499SOL    HW2 1519   1.157   1.350   4.144
  500SOL     OW 1520   1.272   1.445   4.866
  500SOL    HW1 1521   1.319   1.458   4.953
  500SOL    HW2 1522   1.206   1.371   4.875
  501SOL     OW 1523   1.582   0.639   4.196
  501SOL    HW1 1524   1.551   0.700   4.269
  501SOL    HW2 1525   1.632   0.691   4.127
  502SOL     OW 1526   0.573   0.870   4.753
  502SOL    HW1 1527   0.617   0.959   4.744
  502SOL    HW2 1528   0.510   0.870   4.830
  503SOL     OW 1529   1.360   0.862   4.769
  503SOL    HW1 1530   1.285   0.862   4.703
  503SOL    HW2 1531   1.397   0.770   4.778
  504SOL     OW 1532   1.209   0.525   3.999
  504SOL    HW1 1533   1.222   0.441   4.053
  504SOL    HW2 1534   1.180   0.599   4.059
  505SOL     OW 1535   0.307   0.213   4.955
  505SOL    HW1 1536   0.284   0.250   5.045
  505SOL    HW2 1537   0.277   0.118   4.949
  506SOL     OW 1538   0.732   0.634   4.788
  506SOL    HW1 1539   0.791   0.608   4.712
  506SOL    HW2 1540   0.704   0.730   4.777
  507SOL     OW 1541   0.307   0.063   4.342
  507SOL    HW1 1542   0.296   0.157   4.375
  507SOL    HW2 1543   0.302   0.000   4.419
  508SOL     OW 1544   1.622   0.367   4.098
  508SOL    HW1 1545   1.624   0.291   4.162
  508SOL    HW2 1546   1.574   0.444   4.138
  509SOL     OW 1547   1.023   0.766   4.690
  509SOL    HW1 1548   1.038   0.787   4.786
  509SOL    HW2 1549   0.993   0.671   4.681
  510SOL     OW 1550   1.540   0.274   3.849
  510SOL    HW1 1551   1.479   0.199   3.872
  510SOL    HW2 1552   1.562   0.326   3.932
  511SOL     OW 1553   1.303   0.838   3.766
  511SOL    HW1 1554   1.337   0.745   3.781
  511SOL    HW2 1555   1.321   0.865   3.671
  512SOL     OW 1556   1.068   1.333   4.573
  512SOL    HW1 1557   1.075   1.249   4.518
  512SOL    HW2 1558   1.130   1.402   4.537
  513SOL     OW 1559   0.319   0.810   4.673
  513SOL    HW1 1560   0.412   0.846   4.678
  513SOL    HW2 1561   0.313   0.725   4.725
  514SOL     OW 1562   0.339   0.509   4.730
  514SOL    HW1 1563   0.287   0.426   4.713
  514SOL    HW2 1564   0.416   0.514   4.666
  515SOL     OW 1565   1.160   0.207   5.201
  515SOL    HW1 1566   1.160   0.271   5.278
  515SOL    HW2 1567   1.188   0.255   5.118
  516SOL     OW 1568   0.008   1.326   3.924
  516SOL    HW1 1569  -0.085   1.347   3.893
  516SOL    HW2 1570   0.018   1.227   3.937
  517SOL     OW 1571   0.088   1.801   4.651
  517SOL    HW1 1572   0.046   1.715   4.624
  517SOL    HW2 1573   0.182   1.804   4.617
  518SOL     OW 1574   0.504   1.568   4.634
  518SOL    HW1 1575   0.570   1.642   4.643
  518SOL    HW2 1576   0.548   1.489   4.592
  519SOL     OW 1577   1.002   0.796   4.962
  519SOL    HW1 1578   1.043   0.764   5.048
  519SOL    HW2 1579   0.906   0.769   4.959
  520SOL     OW 1580   0.040   0.544   4.838
  520SOL    HW1 1581   0.125   0.511   4.797
  520SOL    HW2 1582   0.053   0.559   4.936
  521SOL     OW 1583   0.815   0.572   4.049
  521SOL    HW1 1584   0.822   0.483   4.003
  521SOL    HW2 1585   0.721   0.606   4.041
  522SOL     OW 1586   1.657   0.604   4.930
  522SOL    HW1 1587   1.619   0.535   4.992
  522SOL    HW2 1588   1.739   0.568   4.886
  523SOL     OW 1589   0.671   0.464   4.993
  523SOL    HW1 1590   0.637   0.375   4.963
  523SOL    HW2 1591   0.697   0.518   4.913
  524SOL     OW 1592   0.473   0.500   3.915
  524SOL    HW1 1593   0.534   0.580   3.919
  524SOL    HW2 1594   0.378   0.531   3.922
  525SOL     OW 1595   1.302   0.855   4.033
  525SOL    HW1 1596   1.216   0.824   4.075
  525SOL    HW2 1597   1.298   0.841   3.934
  526SOL     OW 1598   1.759   1.747   4.878
  526SOL    HW1 1599   1.820   1.777   4.805
  526SOL    HW2 1600   1.721   1.658   4.856
  527SOL     OW 1601   0.083   1.258   4.746
  527SOL    HW1 1602   0.078   1.257   4.846
  527SOL    HW2 1603   0.000   1.217   4.708
  528SOL     OW 1604   1.726   0.135   4.247
  528SOL    HW1 1605   1.799   0.118   4.180
  528SOL    HW2 1606   1.695   0.048   4.285
  529SOL     OW 1607   1.388   1.573   4.201
  529SOL    HW1 1608   1.455   1.585   4.127
  529SOL    HW2 1609   1.348   1.662   4.224
  530SOL     OW 1610   1.280   0.927   4.396
  530SOL    HW1 1611   1.340   0.846   4.398
  530SOL    HW2 1612   1.320   0.996   4.336
  531SOL     OW 1613   0.672   1.616   3.878
  531SOL    HW1 1614   0.681   1.626   3.779
  531SOL    HW2 1615   0.632   1.527   3.899
  532SOL     OW 1616   1.841   0.175   4.687
  532SOL    HW1 1617   1.880   0.090   4.651
  532SOL    HW2 1618   1.743   0.177   4.668
  533SOL     OW 1619   0.263   0.326   4.444
  533SOL    HW1 1620   0.184   0.377   4.410
  533SOL    HW2 1621   0.254   0.311   4.542
  534SOL     OW 1622   1.194   1.612   3.755
  534SOL    HW1 1623   1.200   1.519   3.792
  534SOL    HW2 1624   1.135   1.612   3.675
  535SOL     OW 1625   0.822   1.002   5.096
  535SOL    HW1 1626   0.862   1.001   5.004
  535SOL    HW2 1627   0.832   1.094   5.136
  536SOL     OW 1628   0.916   0.910   4.015
  536SOL    HW1 1629   0.979   0.948   3.947
  536SOL    HW2 1630   0.956   0.827   4.054
  537SOL     OW 1631   1.504   1.607   3.768
  537SOL    HW1 1632   1.412   1.644   3.775
  537SOL    HW2 1633   1.542   1.627   3.678
  538SOL     OW 1634   1.039   1.098   4.420
  538SOL    HW1 1635   0.969   1.051   4.474
  538SOL    HW2 1636   1.098   1.030   4.377
  539SOL     OW 1637   1.014   0.236   4.695
  539SOL    HW1 1638   1.006   0.200   4.602
  539SOL    HW2 1639   1.012   0.160   4.760
  540SOL     OW 1640   0.590   1.487   4.215
  540SOL    HW1 1641   0.632   1.429   4.145
  540SOL    HW2 1642   0.546   1.566   4.171
  541SOL     OW 1643   1.709   0.385   5.105
  541SOL    HW1 1644   1.782   0.454   5.109
  541SOL    HW2 1645   1.737   0.310   5.046
  542SOL     OW 1646   0.255   1.348   4.014
  542SOL    HW1 1647   0.159   1.349   3.987
  542SOL    HW2 1648   0.267   1.401   4.098
  543SOL     OW 1649   0.075   0.345   3.757
  543SOL    HW1 1650  -0.017   0.317   3.728
  543SOL    HW2 1651   0.106   0.422   3.701
  544SOL     OW 1652   0.072   0.166   4.042
  544SOL    HW1 1653   0.055   0.249   3.988
  544SOL    HW2 1654   0.162   0.129   4.020
  545SOL     OW 1655   1.183   1.335   3.843
  545SOL    HW1 1656   1.084   1.324   3.845
  545SOL    HW2 1657   1.217   1.350   3.936
  546SOL     OW 1658   1.493   1.767   4.683
  546SOL    HW1 1659   1.526   1.831   4.614
  546SOL    HW2 1660   1.559   1.761   4.758
  547SOL     OW 1661   1.674   0.883   4.978
  547SOL    HW1 1662   1.647   0.794   4.941
  547SOL    HW2 1663   1.675   0.951   4.905
  548SOL     OW 1664   1.225   0.325   4.173
  548SOL    HW1 1665   1.290   0.251   4.162
  548SOL    HW2 1666   1.245   0.375   4.257
  549SOL     OW 1667   0.594   0.745   4.376
  549SOL    HW1 1668   0.644   0.830   4.357
  549SOL    HW2 1669   0.506   0.747   4.328
  550SOL     OW 1670   1.730   0.934   5.241
  550SOL    HW1 1671   1.768   1.025   5.256
  550SOL    HW2 1672   1.722   0.917   5.142
  551SOL     OW 1673   0.859   1.374   3.740
  551SOL    HW1 1674   0.813   1.389   3.828
  551SOL    HW2 1675   0.903   1.459   3.710
  552SOL     OW 1676   0.661   1.790   4.677
  552SOL    HW1 1677   0.615   1.878   4.664
  552SOL    HW2 1678   0.760   1.802   4.670
  553SOL     OW 1679   0.859   0.956   4.585
  553SOL    HW1 1680   0.913   0.887   4.633
  553SOL    HW2 1681   0.827   1.025   4.651
  554SOL     OW 1682   1.083   0.984   3.811
  554SOL    HW1 1683   1.060   1.037   3.729
  554SOL    HW2 1684   1.164   0.928   3.792
  555SOL     OW 1685   1.861   1.569   4.575
  555SOL    HW1 1686   1.790   1.557   4.505
  555SOL    HW2 1687   1.862   1.490   4.635
  556SOL     OW 1688   0.079   1.240   4.377
  556SOL    HW1 1689   0.078   1.193   4.465
  556SOL    HW2 1690   0.161   1.212   4.326
  557SOL     OW 1691   1.824   0.192   4.951
  557SOL    HW1 1692   1.820   0.102   4.995
  557SOL    HW2 1693   1.827   0.181   4.852
  558SOL     OW 1694   0.428   0.424   4.244
  558SOL    HW1 1695   0.458   0.352   4.182
  558SOL    HW2 1696   0.389   0.384   4.327
  559SOL     OW 1697   1.705   1.487   4.828
  559SOL    HW1 1698   1.612   1.462   4.801
  559SOL    HW2 1699   1.731   1.437   4.910
  560SOL     OW 1700   0.812   1.586   4.411
  560SOL    HW1 1701   0.844   1.596   4.317
  560SOL    HW2 1702   0.733   1.524   4.413
  561SOL     OW 1703   1.424   0.214   4.836
  561SOL    HW1 1704   1.476   0.149   4.891
  561SOL    HW2 1705   1.375   0.277   4.897
  562SOL     OW 1706   1.001   0.034   4.878
  562SOL    HW1 1707   0.938  -0.038   4.847
  562SOL    HW2 1708   1.094  -0.002   4.878
  563SOL     OW 1709   0.770   1.330   4.025
  563SOL    HW1 1710   0.724   1.243   4.042
  563SOL    HW2 1711   0.861   1.327   4.066
  564SOL     OW 1712   1.352   0.052   3.892
  564SOL    HW1 1713   1.387   0.011   3.808
  564SOL    HW2 1714   1.262   0.014   3.912
  565SOL     OW 1715   1.300   0.453   4.415
  565SOL    HW1 1716   1.241   0.533   4.419
  565SOL    HW2 1717   1.315   0.418   4.508
  566SOL     OW 1718   1.593   0.221   4.606
  566SOL    HW1 1719   1.509   0.220   4.660
  566SOL    HW2 1720   1.595   0.304   4.550
  567SOL     OW 1721   0.039   1.077   4.024
  567SOL    HW1 1722   0.138   1.066   4.015
  567SOL    HW2 1723  -0.001   0.991   4.056
  568SOL     OW 1724   0.875   1.646   4.061
  568SOL    HW1 1725   0.798   1.611   4.007
  568SOL    HW2 1726   0.843   1.717   4.123
  569SOL     OW 1727   0.230   2.490   0.113
  569SOL    HW1 1728   0.137   2.488   0.150
  569SOL    HW2 1729   0.231   2.451   0.021
  570SOL     OW 1730   0.225   2.137   0.996
  570SOL    HW1 1731   0.260   2.120   1.088
  570SOL    HW2 1732   0.137   2.092   0.984
  571SOL     OW 1733   0.019   2.230   0.647
  571SOL    HW1 1734  -0.063   2.273   0.686
  571SOL    HW2 1735  -0.009   2.157   0.584
  572SOL     OW 1736   0.569   3.137   1.165
  572SOL    HW1 1737   0.476   3.130   1.128
  572SOL    HW2 1738   0.580   3.226   1.209
  573SOL     OW 1739   1.555   3.373   0.703
  573SOL    HW1 1740   1.498   3.357   0.784
  573SOL    HW2 1741   1.496   3.383   0.623
  574SOL     OW 1742   1.135   2.565   0.717
  574SOL    HW1 1743   1.192   2.643   0.692
  574SOL    HW2 1744   1.075   2.591   0.793
  575SOL     OW 1745   1.755   2.469   0.231
  575SOL    HW1 1746   1.743   2.456   0.132
  575SOL    HW2 1747   1.725   2.388   0.280
  576SOL     OW 1748   0.768   3.006   1.023
  576SOL    HW1 1749   0.690   3.023   1.083
  576SOL    HW2 1750   0.802   3.093   0.987
  577SOL     OW 1751   0.850   2.660   1.823
  577SOL    HW1 1752   0.846   2.736   1.888
  577SOL    HW2 1753   0.872   2.696   1.732
  578SOL     OW 1754   0.685   2.874   0.665
  578SOL    HW1 1755   0.754   2.858   0.735
  578SOL    HW2 1756   0.612   2.931   0.703
  579SOL     OW 1757   0.686   3.023   1.803
  579SOL    HW1 1758   0.746   3.102   1.817
  579SOL    HW2 1759   0.600   3.054   1.762
  580SOL     OW 1760   0.335   3.297   1.061
  580SOL    HW1 1761   0.257   3.266   1.008
  580SOL    HW2 1762   0.393   3.355   1.004
  581SOL     OW 1763   1.460   3.367   1.339
  581SOL    HW1 1764   1.484   3.461   1.365
  581SOL    HW2 1765   1.444   3.313   1.421
  582SOL     OW 1766   0.438   2.254   1.499
  582SOL    HW1 1767   0.520   2.198   1.508
  582SOL    HW2 1768   0.357   2.196   1.503
  583SOL     OW 1769   1.603   2.309   0.737
  583SOL    HW1 1770   1.529   2.355   0.687
  583SOL    HW2 1771   1.654   2.377   0.790
  584SOL     OW 1772   0.231   3.575   0.483
  584SOL    HW1 1773   0.265   3.652   0.537
  584SOL    HW2 1774   0.275   3.575   0.393
  585SOL     OW 1775   1.127   3.203   1.690
  585SOL    HW1 1776   1.174   3.203   1.778
  585SOL    HW2 1777   1.079   3.116   1.679
  586SOL     OW 1778   0.230   3.296   0.538
  586SOL    HW1 1779   0.204   3.392   0.538
  586SOL    HW2 1780   0.159   3.242   0.583
  587SOL     OW 1781   0.240   2.953   0.886
  587SOL    HW1 1782   0.254   2.869   0.938
  587SOL    HW2 1783   0.185   3.017   0.941
  588SOL     OW 1784   0.620   3.648   1.439
  588SOL    HW1 1785   0.528   3.631   1.474
  588SOL    HW2 1786   0.648   3.740   1.465
  589SOL     OW 1787   0.606   2.826   0.123
  589SOL    HW1 1788   0.613   2.910   0.069
  589SOL    HW2 1789   0.652   2.839   0.211
  590SOL     OW 1790   1.594   1.976   1.480
  590SOL    HW1 1791   1.576   2.043   1.408
  590SOL    HW2 1792   1.591   2.022   1.569
  591SOL     OW 1793   0.122   2.505   0.563
  591SOL    HW1 1794   0.077   2.417   0.580
  591SOL    HW2 1795   0.121   2.559   0.647
  592SOL     OW 1796   1.842   3.629   0.359
  592SOL    HW1 1797   1.896   3.600   0.439
  592SOL    HW2 1798   1.872   3.719   0.330
  593SOL     OW 1799   0.027   3.458   0.117
  593SOL    HW1 1800   0.008   3.362   0.138
  593SOL    HW2 1801  -0.006   3.516   0.192
  594SOL     OW 1802   1.689   2.784   0.612
  594SOL    HW1 1803   1.784   2.755   0.620
  594SOL    HW2 1804   1.681   2.849   0.537
  595SOL     OW 1805   1.641   2.970   0.432
  595SOL    HW1 1806   1.727   2.972   0.380
  595SOL    HW2 1807   1.655   3.017   0.520
  596SOL     OW 1808   0.113   2.599   1.597
  596SOL    HW1 1809   0.201   2.586   1.642
  596SOL    HW2 1810   0.100   2.696   1.575
  597SOL     OW 1811   0.613   3.227   0.726
  597SOL    HW1 1812   0.564   3.140   0.735
  597SOL    HW2 1813   0.590   3.270   0.639
  598SOL     OW 1814   1.293   3.090   1.423
  598SOL    HW1 1815   1.330   3.017   1.365
  598SOL    HW2 1816   1.345   3.095   1.508
  599SOL     OW 1817   0.809   1.866   0.502
  599SOL    HW1 1818   0.849   1.957   0.493
  599SOL    HW2 1819   0.709   1.874   0.508
  600SOL     OW 1820   0.197   2.838   1.264
  600SOL    HW1 1821   0.286   2.793   1.250
  600SOL    HW2 1822   0.124   2.773   1.245
  601SOL     OW 1823   1.525   2.861   0.190
  601SOL    HW1 1824   1.462   2.785   0.203
  601SOL    HW2 1825   1.573   2.879   0.276
  602SOL     OW 1826   1.187   3.654   1.616
  602SOL    HW1 1827   1.211   3.714   1.540
  602SOL    HW2 1828   1.194   3.559   1.586
  603SOL     OW 1829   0.317   2.113   1.801
  603SOL    HW1 1830   0.388   2.184   1.807
  603SOL    HW2 1831   0.229   2.152   1.829
  604SOL     OW 1832   1.466   3.279   0.953
  604SOL    HW1 1833   1.407   3.285   1.033
  604SOL    HW2 1834   1.451   3.191   0.907
  605SOL     OW 1835   1.667   3.576   0.572
  605SOL    HW1 1836   1.626   3.553   0.484
  605SOL    HW2 1837   1.649   3.502   0.637
  606SOL     OW 1838   0.598   2.591   0.270
  606SOL    HW1 1839   0.622   2.660   0.202
  606SOL    HW2 1840   0.520   2.624   0.324
  607SOL     OW 1841   1.281   2.207   0.944
  607SOL    HW1 1842   1.195   2.157   0.931
  607SOL    HW2 1843   1.343   2.153   1.000
  608SOL     OW 1844   1.576   3.524   0.307
  608SOL    HW1 1845   1.665   3.570   0.310
  608SOL    HW2 1846   1.555   3.500   0.212
  609SOL     OW 1847   0.807   2.467   1.465
  609SOL    HW1 1848   0.760   2.464   1.554
  609SOL    HW2 1849   0.756   2.412   1.399
  610SOL     OW 1850   1.394   2.331   1.674
  610SOL    HW1 1851   1.374   2.374   1.762
  610SOL    HW2 1852   1.472   2.269   1.683
  611SOL     OW 1853   0.973   2.752   1.572
  611SOL    HW1 1854   1.019   2.668   1.543
  611SOL    HW2 1855   0.917   2.786   1.497
  612SOL     OW 1856   0.991   2.272   1.242
  612SOL    HW1 1857   0.914   2.306   1.296
  612SOL    HW2 1858   0.957   2.221   1.163
  613SOL     OW 1859   1.041   2.563   0.429
  613SOL    HW1 1860   1.067   2.559   0.525
  613SOL    HW2 1861   0.956   2.512   0.415
  614SOL     OW 1862   0.076   2.673   0.789
  614SOL    HW1 1863   0.175   2.661   0.798
  614SOL    HW2 1864   0.052   2.768   0.810
  615SOL     OW 1865   0.130   3.683   1.571
  615SOL    HW1 1866   0.120   3.668   1.670
  615SOL    HW2 1867   0.044   3.719   1.535
  616SOL     OW 1868   0.865   2.210   0.195
  616SOL    HW1 1869   0.924   2.273   0.146
  616SOL    HW2 1870   0.884   2.116   0.166
  617SOL     OW 1871   1.719   2.447   1.831
  617SOL    HW1 1872   1.693   2.536   1.795
  617SOL    HW2 1873   1.717   2.379   1.758
  618SOL     OW 1874   1.362   3.006   0.545
  618SOL    HW1 1875   1.445   2.977   0.497
  618SOL    HW2 1876   1.313   3.073   0.489
  619SOL     OW 1877   0.550   2.058   0.885
  619SOL    HW1 1878   0.545   2.053   0.985
  619SOL    HW2 1879   0.552   2.154   0.856
  620SOL     OW 1880   1.008   3.318   0.477
  620SOL    HW1 1881   0.962   3.390   0.425
  620SOL    HW2 1882   1.004   3.338   0.575
  621SOL     OW 1883   0.351   3.663   0.853
  621SOL    HW1 1884   0.401   3.577   0.859
  621SOL    HW2 1885   0.416   3.740   0.850
  622SOL     OW 1886   1.795   2.928   0.873
  622SOL    HW1 1887   1.733   2.913   0.797
  622SOL    HW2 1888   1.743   2.939   0.958
  623SOL     OW 1889   1.227   3.412   1.506
  623SOL    HW1 1890   1.233   3.335   1.570
  623SOL    HW2 1891   1.175   3.386   1.426
  624SOL     OW 1892   0.321   2.805   0.242
  624SOL    HW1 1893   0.403   2.844   0.200
  624SOL    HW2 1894   0.294   2.723   0.193
  625SOL     OW 1895   1.458   2.597   0.728
  625SOL    HW1 1896   1.453   2.532   0.803
  625SOL    HW2 1897   1.538   2.656   0.741
  626SOL     OW 1898   0.461   3.128   1.727
  626SOL    HW1 1899   0.411   3.129   1.641
  626SOL    HW2 1900   0.398   3.110   1.803
  627SOL     OW 1901   1.111   3.638   0.237
  627SOL    HW1 1902   1.051   3.576   0.287
  627SOL    HW2 1903   1.142   3.594   0.152
  628SOL     OW 1904   0.202   2.147   1.498
  628SOL    HW1 1905   0.122   2.207   1.485
  628SOL    HW2 1906   0.192   2.098   1.584
  629SOL     OW 1907   1.632   3.239   0.081
  629SOL    HW1 1908   1.600   3.333   0.071
  629SOL    HW2 1909   1.556   3.176   0.069
  630SOL     OW 1910   0.464   3.605   0.323
  630SOL    HW1 1911   0.497   3.644   0.409
  630SOL    HW2 1912   0.540   3.598   0.258
  631SOL     OW 1913   1.400   1.969   0.426
  631SOL    HW1 1914   1.376   1.932   0.336
  631SOL    HW2 1915   1.499   1.985   0.430
  632SOL     OW 1916   0.249   3.647   1.241
  632SOL    HW1 1917   0.306   3.582   1.291
  632SOL    HW2 1918   0.233   3.614   1.148
  633SOL     OW 1919   0.940   3.560   0.904
  633SOL    HW1 1920   1.020   3.503   0.925
  633SOL    HW2 1921   0.891   3.520   0.827
  634SOL     OW 1922   0.382   2.562   0.480
  634SOL    HW1 1923   0.427   2.472   0.477
  634SOL    HW2 1924   0.288   2.551   0.513
  635SOL     OW 1925   1.547   2.084   1.729
  635SOL    HW1 1926   1.542   2.121   1.821
  635SOL    HW2 1927   1.475   2.015   1.717
  636SOL     OW 1928   0.614   1.984   0.117
  636SOL    HW1 1929   0.712   1.962   0.124
  636SOL    HW2 1930   0.583   1.967   0.024
  637SOL     OW 1931   0.781   2.126   1.749
  637SOL    HW1 1932   0.848   2.065   1.792
  637SOL    HW2 1933   0.708   2.145   1.814
  638SOL     OW 1934   0.888   3.376   1.195
  638SOL    HW1 1935   0.865   3.351   1.101
  638SOL    HW2 1936   0.949   3.307   1.234
  639SOL     OW 1937   1.351   2.452   1.433
  639SOL    HW1 1938   1.379   2.409   1.518
  639SOL    HW2 1939   1.376   2.548   1.434
  640SOL     OW 1940   0.803   3.264   0.924
  640SOL    HW1 1941   0.893   3.278   0.882
  640SOL    HW2 1942   0.732   3.266   0.853
  641SOL     OW 1943   0.922   2.365   0.899
  641SOL    HW1 1944   0.897   2.356   0.803
  641SOL    HW2 1945   0.970   2.283   0.930
  642SOL     OW 1946   0.539   1.926   0.512
  642SOL    HW1 1947   0.458   1.927   0.570
  642SOL    HW2 1948   0.542   2.009   0.457
  643SOL     OW 1949   1.434   3.050   0.041
  643SOL    HW1 1950   1.466   2.974   0.098
  643SOL    HW2 1951   1.342   3.077   0.071
  644SOL     OW 1952   0.297   1.897   0.171
  644SOL    HW1 1953   0.346   1.981   0.150
  644SOL    HW2 1954   0.359   1.832   0.216
  645SOL     OW 1955   0.935   2.098   0.480
  645SOL    HW1 1956   0.887   2.139   0.402
  645SOL    HW2 1957   1.034   2.096   0.461
  646SOL     OW 1958   1.076   2.545   1.464
  646SOL    HW1 1959   0.996   2.484   1.467
  646SOL    HW2 1960   1.157   2.492   1.440
  647SOL     OW 1961   1.227   3.432   0.793
  647SOL    HW1 1962   1.248   3.506   0.728
  647SOL    HW2 1963   1.295   3.432   0.866
  648SOL     OW 1964   0.459   3.014   0.741
  648SOL    HW1 1965   0.388   2.987   0.806
  648SOL    HW2 1966   0.433   2.986   0.648
  649SOL     OW 1967   1.271   3.659   0.591
  649SOL    HW1 1968   1.315   3.723   0.527
  649SOL    HW2 1969   1.221   3.711   0.661
  650SOL     OW 1970   1.032   2.411   0.016
  650SOL    HW1 1971   0.991   2.493  -0.023
  650SOL    HW2 1972   1.096   2.437   0.089
  651SOL     OW 1973   0.078   2.418   1.386
  651SOL    HW1 1974   0.170   2.417   1.345
  651SOL    HW2 1975   0.072   2.492   1.453
  652SOL     OW 1976   0.561   2.084   1.147
  652SOL    HW1 1977   0.599   2.000   1.184
  652SOL    HW2 1978   0.473   2.103   1.191
  653SOL     OW 1979   0.866   2.316   0.642
  653SOL    HW1 1980   0.834   2.388   0.580
  653SOL    HW2 1981   0.890   2.235   0.589
  654SOL     OW 1982   1.017   1.901   0.753
  654SOL    HW1 1983   0.945   1.906   0.684
  654SOL    HW2 1984   0.993   1.832   0.822
  655SOL     OW 1985   1.429   3.035   0.867
  655SOL    HW1 1986   1.374   2.951   0.860
  655SOL    HW2 1987   1.455   3.064   0.775
  656SOL     OW 1988   1.466   2.452   0.992
  656SOL    HW1 1989   1.436   2.357   0.999
  656SOL    HW2 1990   1.539   2.468   1.058
  657SOL     OW 1991   1.857   2.695   0.377
  657SOL    HW1 1992   1.899   2.631   0.441
  657SOL    HW2 1993   1.819   2.644   0.299
  658SOL     OW 1994   0.488   3.247   0.174
  658SOL    HW1 1995   0.401   3.232   0.221
  658SOL    HW2 1996   0.471   3.273   0.079
  659SOL     OW 1997   1.664   3.142   0.657
  659SOL    HW1 1998   1.763   3.150   0.671
  659SOL    HW2 1999   1.619   3.226   0.688
  660SOL     OW 2000   1.390   2.437   0.078
  660SOL    HW1 2001   1.336   2.416   0.159
  660SOL    HW2 2002   1.481   2.396   0.087
  661SOL     OW 2003   0.527   2.118   0.328
  661SOL    HW1 2004   0.554   2.059   0.253
  661SOL    HW2 2005   0.527   2.213   0.297
  662SOL     OW 2006   1.754   3.085   1.588
  662SOL    HW1 2007   1.845   3.046   1.575
  662SOL    HW2 2008   1.762   3.181   1.612
  663SOL     OW 2009   1.064   3.209   1.340
  663SOL    HW1 2010   0.984   3.186   1.395
  663SOL    HW2 2011   1.147   3.183   1.389
  664SOL     OW 2012   1.592   3.491   1.625
  664SOL    HW1 2013   1.619   3.525   1.535
  664SOL    HW2 2014   1.671   3.453   1.671
  665SOL     OW 2015   1.111   3.057   1.100
  665SOL    HW1 2016   1.071   3.101   1.181
  665SOL    HW2 2017   1.070   3.094   1.017
  666SOL     OW 2018   1.638   2.961   1.079
  666SOL    HW1 2019   1.643   3.042   1.138
  666SOL    HW2 2020   1.552   2.963   1.028
  667SOL     OW 2021   0.915   1.951   1.402
  667SOL    HW1 2022   0.940   1.931   1.307
  667SOL    HW2 2023   0.987   2.007   1.444
  668SOL     OW 2024   0.980   2.978   1.719
  668SOL    HW1 2025   0.881   2.984   1.729
  668SOL    HW2 2026   1.003   2.898   1.663
  669SOL     OW 2027   0.705   2.912   0.368
  669SOL    HW1 2028   0.691   2.919   0.467
  669SOL    HW2 2029   0.789   2.861   0.350
  670SOL     OW 2030   0.410   2.675   1.251
  670SOL    HW1 2031   0.496   2.687   1.301
  670SOL    HW2 2032   0.368   2.588   1.278
  671SOL     OW 2033   1.274   2.248   1.262
  671SOL    HW1 2034   1.295   2.322   1.326
  671SOL    HW2 2035   1.185   2.265   1.219
  672SOL     OW 2036   0.064   3.426   1.331
  672SOL    HW1 2037   0.018   3.508   1.297
  672SOL    HW2 2038   0.162   3.445   1.340
  673SOL     OW 2039   0.367   2.962   0.501
  673SOL    HW1 2040   0.360   3.045   0.445
  673SOL    HW2 2041   0.371   2.882   0.441
  674SOL     OW 2042   0.566   2.399   0.865
  674SOL    HW1 2043   0.578   2.465   0.791
  674SOL    HW2 2044   0.612   2.433   0.948
  675SOL     OW 2045   1.252   3.210   0.388
  675SOL    HW1 2046   1.302   3.287   0.428
  675SOL    HW2 2047   1.157   3.212   0.420
  676SOL     OW 2048   1.272   3.307   1.142
  676SOL    HW1 2049   1.319   3.320   1.229
  676SOL    HW2 2050   1.206   3.233   1.151
  677SOL     OW 2051   1.582   2.501   0.472
  677SOL    HW1 2052   1.551   2.562   0.545
  677SOL    HW2 2053   1.632   2.553   0.403
  678SOL     OW 2054   0.354   3.372   1.329
  678SOL    HW1 2055   0.333   3.328   1.242
  678SOL    HW2 2056   0.451   3.398   1.332
  679SOL     OW 2057   0.402   2.613   1.598
  679SOL    HW1 2058   0.470   2.668   1.551
  679SOL    HW2 2059   0.442   2.525   1.625
  680SOL     OW 2060   1.587   2.641   1.670
  680SOL    HW1 2061   1.495   2.679   1.665
  680SOL    HW2 2062   1.647   2.688   1.605
  681SOL     OW 2063   1.013   1.967   1.770
  681SOL    HW1 2064   1.019   2.052   1.718
  681SOL    HW2 2065   1.045   1.891   1.713
  682SOL     OW 2066   0.504   1.912   1.740
  682SOL    HW1 2067   0.462   1.855   1.670
  682SOL    HW2 2068   0.438   1.981   1.772
  683SOL     OW 2069   0.573   2.732   1.029
  683SOL    HW1 2070   0.617   2.821   1.020
  683SOL    HW2 2071   0.510   2.732   1.106
  684SOL     OW 2072   1.360   2.724   1.045
  684SOL    HW1 2073   1.285   2.724   0.979
  684SOL    HW2 2074   1.397   2.632   1.054
  685SOL     OW 2075   1.209   2.387   0.275
  685SOL    HW1 2076   1.222   2.303   0.329
  685SOL    HW2 2077   1.180   2.461   0.335
  686SOL     OW 2078   0.307   2.075   1.231
  686SOL    HW1 2079   0.284   2.112   1.321
  686SOL    HW2 2080   0.277   1.980   1.225
  687SOL     OW 2081   0.037   3.172   1.282
  687SOL    HW1 2082   0.090   3.123   1.350
  687SOL    HW2 2083   0.059   3.270   1.287
  688SOL     OW 2084   0.732   2.496   1.064
  688SOL    HW1 2085   0.791   2.470   0.988
  688SOL    HW2 2086   0.704   2.592   1.053
  689SOL     OW 2087   1.728   2.797   1.854
  689SOL    HW1 2088   1.682   2.790   1.765
  689SOL    HW2 2089   1.666   2.841   1.920
  690SOL     OW 2090   0.307   1.925   0.618
  690SOL    HW1 2091   0.296   2.019   0.651
  690SOL    HW2 2092   0.302   1.862   0.695
  691SOL     OW 2093   1.622   2.229   0.374
  691SOL    HW1 2094   1.624   2.153   0.438
  691SOL    HW2 2095   1.574   2.306   0.414
  692SOL     OW 2096   1.023   2.628   0.966
  692SOL    HW1 2097   1.038   2.649   1.062
  692SOL    HW2 2098   0.993   2.533   0.957
  693SOL     OW 2099   0.980   3.435   1.700
  693SOL    HW1 2100   0.960   3.479   1.612
  693SOL    HW2 2101   1.019   3.344   1.684
  694SOL     OW 2102   1.859   3.380   1.605
  694SOL    HW1 2103   1.873   3.407   1.510
  694SOL    HW2 2104   1.942   3.402   1.658
  695SOL     OW 2105   0.350   2.760   1.804
  695SOL    HW1 2106   0.426   2.804   1.852
  695SOL    HW2 2107   0.385   2.713   1.722
  696SOL     OW 2108   1.540   2.136   0.125
  696SOL    HW1 2109   1.479   2.061   0.148
  696SOL    HW2 2110   1.562   2.188   0.208
  697SOL     OW 2111   1.303   2.700   0.042
  697SOL    HW1 2112   1.337   2.607   0.057
  697SOL    HW2 2113   1.321   2.727  -0.053
  698SOL     OW 2114   1.068   3.195   0.849
  698SOL    HW1 2115   1.075   3.111   0.794
  698SOL    HW2 2116   1.130   3.264   0.813
  699SOL     OW 2117   0.319   2.672   0.949
  699SOL    HW1 2118   0.412   2.708   0.954
  699SOL    HW2 2119   0.313   2.587   1.001
  700SOL     OW 2120   0.339   2.371   1.006
  700SOL    HW1 2121   0.287   2.288   0.989
  700SOL    HW2 2122   0.416   2.376   0.942
  701SOL     OW 2123   1.138   2.242   1.678
  701SOL    HW1 2124   1.093   2.305   1.742
  701SOL    HW2 2125   1.231   2.273   1.661
  702SOL     OW 2126   1.160   2.069   1.477
  702SOL    HW1 2127   1.160   2.133   1.554
  702SOL    HW2 2128   1.188   2.117   1.394
  703SOL     OW 2129   0.008   3.188   0.200
  703SOL    HW1 2130  -0.085   3.209   0.169
  703SOL    HW2 2131   0.018   3.089   0.213
  704SOL     OW 2132   0.088   3.663   0.927
  704SOL    HW1 2133   0.046   3.577   0.900
  704SOL    HW2 2134   0.182   3.666   0.893
  705SOL     OW 2135   0.504   3.430   0.910
  705SOL    HW1 2136   0.570   3.504   0.919
  705SOL    HW2 2137   0.548   3.351   0.868
  706SOL     OW 2138   1.002   2.658   1.238
  706SOL    HW1 2139   1.043   2.626   1.324
  706SOL    HW2 2140   0.906   2.631   1.235
  707SOL     OW 2141   0.040   2.406   1.114
  707SOL    HW1 2142   0.125   2.373   1.073
  707SOL    HW2 2143   0.053   2.421   1.212
  708SOL     OW 2144   0.189   2.382   1.722
  708SOL    HW1 2145   0.248   2.342   1.652
  708SOL    HW2 2146   0.131   2.453   1.681
  709SOL     OW 2147   1.369   2.812   1.660
  709SOL    HW1 2148   1.408   2.901   1.680
  709SOL    HW2 2149   1.379   2.792   1.563
  710SOL     OW 2150   0.815   2.434   0.325
  710SOL    HW1 2151   0.822   2.345   0.279
  710SOL    HW2 2152   0.721   2.468   0.317
  711SOL     OW 2153   1.657   2.466   1.206
  711SOL    HW1 2154   1.619   2.397   1.268
  711SOL    HW2 2155   1.739   2.430   1.162
  712SOL     OW 2156   0.252   3.426   1.744
  712SOL    HW1 2157   0.222   3.483   1.820
  712SOL    HW2 2158   0.245   3.329   1.770
  713SOL     OW 2159   0.671   2.326   1.269
  713SOL    HW1 2160   0.637   2.237   1.239
  713SOL    HW2 2161   0.697   2.380   1.189
  714SOL     OW 2162   0.930   3.540   1.465
  714SOL    HW1 2163   0.906   3.522   1.370
  714SOL    HW2 2164   0.960   3.634   1.475
  715SOL     OW 2165   0.473   2.362   0.191
  715SOL    HW1 2166   0.534   2.442   0.195
  715SOL    HW2 2167   0.378   2.393   0.198
  716SOL     OW 2168   0.159   2.999   1.466
  716SOL    HW1 2169   0.181   2.938   1.542
  716SOL    HW2 2170   0.169   2.950   1.380
  717SOL     OW 2171   1.347   2.921   1.234
  717SOL    HW1 2172   1.371   2.858   1.160
  717SOL    HW2 2173   1.257   2.961   1.216
  718SOL     OW 2174   1.302   2.717   0.309
  718SOL    HW1 2175   1.216   2.686   0.351
  718SOL    HW2 2176   1.298   2.703   0.210
  719SOL     OW 2177   1.759   3.609   1.154
  719SOL    HW1 2178   1.820   3.639   1.081
  719SOL    HW2 2179   1.721   3.520   1.132
  720SOL     OW 2180   1.252   3.593   1.128
  720SOL    HW1 2181   1.336   3.598   1.074
  720SOL    HW2 2182   1.229   3.497   1.146
  721SOL     OW 2183   0.083   3.120   1.022
  721SOL    HW1 2184   0.078   3.119   1.122
  721SOL    HW2 2185   0.000   3.079   0.984
  722SOL     OW 2186   0.688   3.524   1.716
  722SOL    HW1 2187   0.632   3.605   1.725
  722SOL    HW2 2188   0.740   3.528   1.630
  723SOL     OW 2189   0.903   1.948   0.133
  723SOL    HW1 2190   0.954   1.949   0.047
  723SOL    HW2 2191   0.959   1.906   0.204
  724SOL     OW 2192   1.726   1.997   0.523
  724SOL    HW1 2193   1.799   1.980   0.456
  724SOL    HW2 2194   1.695   1.910   0.561
  725SOL     OW 2195   1.388   3.435   0.477
  725SOL    HW1 2196   1.455   3.447   0.403
  725SOL    HW2 2197   1.348   3.524   0.500
  726SOL     OW 2198   0.130   3.656   1.851
  726SOL    HW1 2199   0.089   3.582   1.904
  726SOL    HW2 2200   0.194   3.707   1.909
  727SOL     OW 2201   1.280   2.789   0.672
  727SOL    HW1 2202   1.340   2.708   0.674
  727SOL    HW2 2203   1.320   2.858   0.612
  728SOL     OW 2204   0.830   3.135   1.422
  728SOL    HW1 2205   0.825   3.168   1.517
  728SOL    HW2 2206   0.744   3.154   1.376
  729SOL     OW 2207   0.672   3.478   0.154
  729SOL    HW1 2208   0.681   3.488   0.055
  729SOL    HW2 2209   0.632   3.389   0.175
  730SOL     OW 2210   1.650   3.582   1.394
  730SOL    HW1 2211   1.703   3.592   1.310
  730SOL    HW2 2212   1.623   3.672   1.428
  731SOL     OW 2213   1.841   2.037   0.963
  731SOL    HW1 2214   1.880   1.952   0.927
  731SOL    HW2 2215   1.743   2.039   0.944
  732SOL     OW 2216   0.263   2.188   0.720
  732SOL    HW1 2217   0.184   2.239   0.686
  732SOL    HW2 2218   0.254   2.173   0.818
  733SOL     OW 2219   1.194   3.474   0.031
  733SOL    HW1 2220   1.200   3.381   0.068
  733SOL    HW2 2221   1.135   3.474  -0.049
  734SOL     OW 2222   0.822   2.864   1.372
  734SOL    HW1 2223   0.862   2.863   1.280
  734SOL    HW2 2224   0.832   2.956   1.412
  735SOL     OW 2225   0.916   2.772   0.291
  735SOL    HW1 2226   0.979   2.810   0.223
  735SOL    HW2 2227   0.956   2.689   0.330
  736SOL     OW 2228   1.504   3.469   0.044
  736SOL    HW1 2229   1.412   3.506   0.051
  736SOL    HW2 2230   1.542   3.489  -0.046
  737SOL     OW 2231   0.372   3.150   1.490
  737SOL    HW1 2232   0.359   3.243   1.456
  737SOL    HW2 2233   0.288   3.098   1.477
  738SOL     OW 2234   1.614   3.154   1.289
  738SOL    HW1 2235   1.674   3.157   1.369
  738SOL    HW2 2236   1.539   3.218   1.302
  739SOL     OW 2237   1.039   2.960   0.696
  739SOL    HW1 2238   0.969   2.913   0.750
  739SOL    HW2 2239   1.098   2.892   0.653
  740SOL     OW 2240   1.014   2.098   0.971
  740SOL    HW1 2241   1.006   2.062   0.878
  740SOL    HW2 2242   1.012   2.022   1.036
  741SOL     OW 2243   0.590   3.349   0.491
  741SOL    HW1 2244   0.632   3.291   0.421
  741SOL    HW2 2245   0.546   3.428   0.447
  742SOL     OW 2246   1.709   2.247   1.381
  742SOL    HW1 2247   1.782   2.316   1.385
  742SOL    HW2 2248   1.737   2.172   1.322
  743SOL     OW 2249   0.255   3.210   0.290
  743SOL    HW1 2250   0.159   3.211   0.263
  743SOL    HW2 2251   0.267   3.263   0.374
  744SOL     OW 2252   0.105   2.875   1.726
  744SOL    HW1 2253   0.028   2.842   1.780
  744SOL    HW2 2254   0.190   2.845   1.768
  745SOL     OW 2255   0.672   2.065   1.489
  745SOL    HW1 2256   0.762   2.049   1.449
  745SOL    HW2 2257   0.680   2.070   1.588
  746SOL     OW 2258   0.075   2.207   0.033
  746SOL    HW1 2259  -0.017   2.179   0.004
  746SOL    HW2 2260   0.106   2.284  -0.023
  747SOL     OW 2261   1.440   2.718   1.398
  747SOL    HW1 2262   1.383   2.770   1.335
  747SOL    HW2 2263   1.536   2.730   1.374
  748SOL     OW 2264   0.072   2.028   0.318
  748SOL    HW1 2265   0.055   2.111   0.264
  748SOL    HW2 2266   0.162   1.991   0.296
  749SOL     OW 2267   1.183   3.197   0.119
  749SOL    HW1 2268   1.084   3.186   0.121
  749SOL    HW2 2269   1.217   3.212   0.212
  750SOL     OW 2270   0.613   2.704   1.431
  750SOL    HW1 2271   0.669   2.785   1.414
  750SOL    HW2 2272   0.672   2.624   1.434
  751SOL     OW 2273   1.493   3.629   0.959
  751SOL    HW1 2274   1.526   3.693   0.890
  751SOL    HW2 2275   1.559   3.623   1.034
  752SOL     OW 2276   0.716   2.427   1.708
  752SOL    HW1 2277   0.735   2.492   1.782
  752SOL    HW2 2278   0.776   2.347   1.717
  753SOL     OW 2279   1.450   3.082   1.633
  753SOL    HW1 2280   1.441   3.072   1.732
  753SOL    HW2 2281   1.546   3.075   1.607
  754SOL     OW 2282   0.390   3.603   1.560
  754SOL    HW1 2283   0.299   3.644   1.558
  754SOL    HW2 2284   0.383   3.509   1.592
  755SOL     OW 2285   1.674   2.745   1.254
  755SOL    HW1 2286   1.647   2.656   1.217
  755SOL    HW2 2287   1.675   2.813   1.181
  756SOL     OW 2288   1.225   2.187   0.449
  756SOL    HW1 2289   1.290   2.113   0.438
  756SOL    HW2 2290   1.245   2.237   0.533
  757SOL     OW 2291   0.594   2.607   0.652
  757SOL    HW1 2292   0.644   2.692   0.633
  757SOL    HW2 2293   0.506   2.609   0.604
  758SOL     OW 2294   1.777   2.204   1.642
  758SOL    HW1 2295   1.760   2.235   1.548
  758SOL    HW2 2296   1.693   2.167   1.680
  759SOL     OW 2297   1.730   2.796   1.517
  759SOL    HW1 2298   1.768   2.887   1.532
  759SOL    HW2 2299   1.722   2.779   1.418
  760SOL     OW 2300   0.859   3.236   0.016
  760SOL    HW1 2301   0.813   3.251   0.104
  760SOL    HW2 2302   0.903   3.321  -0.014
  761SOL     OW 2303   0.661   3.652   0.953
  761SOL    HW1 2304   0.615   3.740   0.940
  761SOL    HW2 2305   0.760   3.664   0.946
  762SOL     OW 2306   0.859   2.818   0.861
  762SOL    HW1 2307   0.913   2.749   0.909
  762SOL    HW2 2308   0.827   2.887   0.927
  763SOL     OW 2309   1.083   2.846   0.087
  763SOL    HW1 2310   1.060   2.899   0.005
  763SOL    HW2 2311   1.164   2.790   0.068
  764SOL     OW 2312   1.861   3.431   0.851
  764SOL    HW1 2313   1.790   3.419   0.781
  764SOL    HW2 2314   1.862   3.352   0.911
  765SOL     OW 2315   0.221   3.176   1.844
  765SOL    HW1 2316   0.156   3.103   1.823
  765SOL    HW2 2317   0.225   3.190   1.942
  766SOL     OW 2318   0.079   3.102   0.653
  766SOL    HW1 2319   0.078   3.055   0.741
  766SOL    HW2 2320   0.161   3.074   0.602
  767SOL     OW 2321   0.672   3.253   1.624
  767SOL    HW1 2322   0.594   3.203   1.662
  767SOL    HW2 2323   0.669   3.348   1.655
  768SOL     OW 2324   1.824   2.054   1.227
  768SOL    HW1 2325   1.820   1.964   1.271
  768SOL    HW2 2326   1.827   2.043   1.128
  769SOL     OW 2327   0.428   2.286   0.520
  769SOL    HW1 2328   0.458   2.214   0.458
  769SOL    HW2 2329   0.389   2.246   0.603
  770SOL     OW 2330   1.705   3.349   1.104
  770SOL    HW1 2331   1.612   3.324   1.077
  770SOL    HW2 2332   1.731   3.299   1.186
  771SOL     OW 2333   0.317   2.409   1.280
  771SOL    HW1 2334   0.355   2.350   1.352
  771SOL    HW2 2335   0.357   2.383   1.192
  772SOL     OW 2336   0.812   3.448   0.687
  772SOL    HW1 2337   0.844   3.458   0.593
  772SOL    HW2 2338   0.733   3.386   0.689
  773SOL     OW 2339   1.424   2.076   1.112
  773SOL    HW1 2340   1.476   2.011   1.167
  773SOL    HW2 2341   1.375   2.139   1.173
  774SOL     OW 2342   1.001   1.896   1.154
  774SOL    HW1 2343   0.938   1.824   1.123
  774SOL    HW2 2344   1.094   1.860   1.154
  775SOL     OW 2345   0.770   3.192   0.301
  775SOL    HW1 2346   0.724   3.105   0.318
  775SOL    HW2 2347   0.861   3.189   0.342
  776SOL     OW 2348   0.618   3.429   1.284
  776SOL    HW1 2349   0.613   3.511   1.341
  776SOL    HW2 2350   0.707   3.426   1.239
  777SOL     OW 2351   1.352   1.914   0.168
  777SOL    HW1 2352   1.387   1.873   0.084
  777SOL    HW2 2353   1.262   1.876   0.188
  778SOL     OW 2354   1.300   2.315   0.691
  778SOL    HW1 2355   1.241   2.395   0.695
  778SOL    HW2 2356   1.315   2.280   0.784
  779SOL     OW 2357   1.593   2.083   0.882
  779SOL    HW1 2358   1.509   2.082   0.936
  779SOL    HW2 2359   1.595   2.166   0.826
  780SOL     OW 2360   0.039   2.939   0.300
  780SOL    HW1 2361   0.138   2.928   0.291
  780SOL    HW2 2362  -0.001   2.853   0.332
  781SOL     OW 2363   0.875   3.508   0.337
  781SOL    HW1 2364   0.798   3.473   0.283
  781SOL    HW2 2365   0.843   3.579   0.399
  782SOL     OW 2366   0.230   2.490   1.975
  782SOL    HW1 2367   0.137   2.488   2.012
  782SOL    HW2 2368   0.231   2.451   1.883
  783SOL     OW 2369   0.225   2.137   2.858
  783SOL    HW1 2370   0.260   2.120   2.950
  783SOL    HW2 2371   0.137   2.092   2.846
  784SOL     OW 2372   0.019   2.230   2.509
  784SOL    HW1 2373  -0.063   2.273   2.548
  784SOL    HW2 2374  -0.009   2.157   2.446
  785SOL     OW 2375   0.569   3.137   3.027
  785SOL    HW1 2376   0.476   3.130   2.990
  785SOL    HW2 2377   0.580   3.226   3.071
  786SOL     OW 2378   1.555   3.373   2.565
  786SOL    HW1 2379   1.498   3.357   2.646
  786SOL    HW2 2380   1.496   3.383   2.485
  787SOL     OW 2381   1.135   2.565   2.579
  787SOL    HW1 2382   1.192   2.643   2.554
  787SOL    HW2 2383   1.075   2.591   2.655
  788SOL     OW 2384   1.755   2.469   2.093
  788SOL    HW1 2385   1.743   2.456   1.994
  788SOL    HW2 2386   1.725   2.388   2.142
  789SOL     OW 2387   0.768   3.006   2.885
  789SOL    HW1 2388   0.690   3.023   2.945
  789SOL    HW2 2389   0.802   3.093   2.849
  790SOL     OW 2390   0.850   2.660   3.685
  790SOL    HW1 2391   0.846   2.736   3.750
  790SOL    HW2 2392   0.872   2.696   3.594
  791SOL     OW 2393   0.685   2.874   2.527
  791SOL    HW1 2394   0.754   2.858   2.597
  791SOL    HW2 2395   0.612   2.931   2.565
  792SOL     OW 2396   0.686   3.023   3.665
  792SOL    HW1 2397   0.746   3.102   3.679
  792SOL    HW2 2398   0.600   3.054   3.624
  793SOL     OW 2399   0.335   3.297   2.923
  793SOL    HW1 2400   0.257   3.266   2.870
  793SOL    HW2 2401   0.393   3.355   2.866
  794SOL     OW 2402   1.460   3.367   3.201
  794SOL    HW1 2403   1.484   3.461   3.227
  794SOL    HW2 2404   1.444   3.313   3.283
  795SOL     OW 2405   0.438   2.254   3.361
  795SOL    HW1 2406   0.520   2.198   3.370
  795SOL    HW2 2407   0.357   2.196   3.365
  796SOL     OW 2408   1.603   2.309   2.599
  796SOL    HW1 2409   1.529   2.355   2.549
  796SOL    HW2 2410   1.654   2.377   2.652
  797SOL     OW 2411   0.231   3.575   2.345
  797SOL    HW1 2412   0.265   3.652   2.399
  797SOL    HW2 2413   0.275   3.575   2.255
  798SOL     OW 2414   1.127   3.203   3.552
  798SOL    HW1 2415   1.174   3.203   3.640
  798SOL    HW2 2416   1.079   3.116   3.541
  799SOL     OW 2417   0.230   3.296   2.400
  799SOL    HW1 2418   0.204   3.392   2.400
  799SOL    HW2 2419   0.159   3.242   2.445
  800SOL     OW 2420   0.240   2.953   2.748
  800SOL    HW1 2421   0.254   2.869   2.800
  800SOL    HW2 2422   0.185   3.017   2.803
  801SOL     OW 2423   0.620   3.648   3.301
  801SOL    HW1 2424   0.528   3.631   3.336
  801SOL    HW2 2425   0.648   3.740   3.327
  802SOL     OW 2426   0.606   2.826   1.985
  802SOL    HW1 2427   0.613   2.910   1.931
  802SOL    HW2 2428   0.652   2.839   2.073
  803SOL     OW 2429   1.594   1.976   3.342
  803SOL    HW1 2430   1.576   2.043   3.270
  803SOL    HW2 2431   1.591   2.022   3.431
  804SOL     OW 2432   0.122   2.505   2.425
  804SOL    HW1 2433   0.077   2.417   2.442
  804SOL    HW2 2434   0.121   2.559   2.509
  805SOL     OW 2435   1.842   3.629   2.221
  805SOL    HW1 2436   1.896   3.600   2.301
  805SOL    HW2 2437   1.872   3.719   2.192
  806SOL     OW 2438   0.027   3.458   1.979
  806SOL    HW1 2439   0.008   3.362   2.000
  806SOL    HW2 2440  -0.006   3.516   2.054
  807SOL     OW 2441   1.689   2.784   2.474
  807SOL    HW1 2442   1.784   2.755   2.482
  807SOL    HW2 2443   1.681   2.849   2.399
  808SOL     OW 2444   1.641   2.970   2.294
  808SOL    HW1 2445   1.727   2.972   2.242
  808SOL    HW2 2446   1.655   3.017   2.382
  809SOL     OW 2447   0.113   2.599   3.459
  809SOL    HW1 2448   0.201   2.586   3.504
  809SOL    HW2 2449   0.100   2.696   3.437
  810SOL     OW 2450   0.613   3.227   2.588
  810SOL    HW1 2451   0.564   3.140   2.597
  810SOL    HW2 2452   0.590   3.270   2.501
  811SOL     OW 2453   1.293   3.090   3.285
  811SOL    HW1 2454   1.330   3.017   3.227
  811SOL    HW2 2455   1.345   3.095   3.370
  812SOL     OW 2456   0.809   1.866   2.364
  812SOL    HW1 2457   0.849   1.957   2.355
  812SOL    HW2 2458   0.709   1.874   2.370
  813SOL     OW 2459   0.197   2.838   3.126
  813SOL    HW1 2460   0.286   2.793   3.112
  813SOL    HW2 2461   0.124   2.773   3.107
  814SOL     OW 2462   1.525   2.861   2.052
  814SOL    HW1 2463   1.462   2.785   2.065
  814SOL    HW2 2464   1.573   2.879   2.138
  815SOL     OW 2465   1.187   3.654   3.478
  815SOL    HW1 2466   1.211   3.714   3.402
  815SOL    HW2 2467   1.194   3.559   3.448
  816SOL     OW 2468   0.317   2.113   3.663
  816SOL    HW1 2469   0.388   2.184   3.669
  816SOL    HW2 2470   0.229   2.152   3.691
  817SOL     OW 2471   1.466   3.279   2.815
  817SOL    HW1 2472   1.407   3.285   2.895
  817SOL    HW2 2473   1.451   3.191   2.769
  818SOL     OW 2474   1.667   3.576   2.434
  818SOL    HW1 2475   1.626   3.553   2.346
  818SOL    HW2 2476   1.649   3.502   2.499
  819SOL     OW 2477   0.598   2.591   2.132
  819SOL    HW1 2478   0.622   2.660   2.064
  819SOL    HW2 2479   0.520   2.624   2.186
  820SOL     OW 2480   1.281   2.207   2.806
  820SOL    HW1 2481   1.195   2.157   2.793
  820SOL    HW2 2482   1.343   2.153   2.862
  821SOL     OW 2483   1.576   3.524   2.169
  821SOL    HW1 2484   1.665   3.570   2.172
  821SOL    HW2 2485   1.555   3.500   2.074
  822SOL     OW 2486   0.807   2.467   3.327
  822SOL    HW1 2487   0.760   2.464   3.416
  822SOL    HW2 2488   0.756   2.412   3.261
  823SOL     OW 2489   1.394   2.331   3.536
  823SOL    HW1 2490   1.374   2.374   3.624
  823SOL    HW2 2491   1.472   2.269   3.545
  824SOL     OW 2492   0.973   2.752   3.434
  824SOL    HW1 2493   1.019   2.668   3.405
  824SOL    HW2 2494   0.917   2.786   3.359
  825SOL     OW 2495   0.991   2.272   3.104
  825SOL    HW1 2496   0.914   2.306   3.158
  825SOL    HW2 2497   0.957   2.221   3.025
  826SOL     OW 2498   1.041   2.563   2.291
  826SOL    HW1 2499   1.067   2.559   2.387
  826SOL    HW2 2500   0.956   2.512   2.277
  827SOL     OW 2501   0.076   2.673   2.651
  827SOL    HW1 2502   0.175   2.661   2.660
  827SOL    HW2 2503   0.052   2.768   2.672
  828SOL     OW 2504   0.130   3.683   3.433
  828SOL    HW1 2505   0.120   3.668   3.532
  828SOL    HW2 2506   0.044   3.719   3.397
  829SOL     OW 2507   0.865   2.210   2.057
  829SOL    HW1 2508   0.924   2.273   2.008
  829SOL    HW2 2509   0.884   2.116   2.028
  830SOL     OW 2510   1.719   2.447   3.693
  830SOL    HW1 2511   1.693   2.536   3.657
  830SOL    HW2 2512   1.717   2.379   3.620
  831SOL     OW 2513   1.362   3.006   2.407
  831SOL    HW1 2514   1.445   2.977   2.359
  831SOL    HW2 2515   1.313   3.073   2.351
  832SOL     OW 2516   0.550   2.058   2.747
  832SOL    HW1 2517   0.545   2.053   2.847
  832SOL    HW2 2518   0.552   2.154   2.718
  833SOL     OW 2519   1.008   3.318   2.339
  833SOL    HW1 2520   0.962   3.390   2.287
  833SOL    HW2 2521   1.004   3.338   2.437
  834SOL     OW 2522   0.351   3.663   2.715
  834SOL    HW1 2523   0.401   3.577   2.721
  834SOL    HW2 2524   0.416   3.740   2.712
  835SOL     OW 2525   1.795   2.928   2.735
  835SOL    HW1 2526   1.733   2.913   2.659
  835SOL    HW2 2527   1.743   2.939   2.820
  836SOL     OW 2528   1.227   3.412   3.368
  836SOL    HW1 2529   1.233   3.335   3.432
  836SOL    HW2 2530   1.175   3.386   3.288
  837SOL     OW 2531   0.321   2.805   2.104
  837SOL    HW1 2532   0.403   2.844   2.062
  837SOL    HW2 2533   0.294   2.723   2.055
  838SOL     OW 2534   1.458   2.597   2.590
  838SOL    HW1 2535   1.453   2.532   2.665
  838SOL    HW2 2536   1.538   2.656   2.603
  839SOL     OW 2537   0.461   3.128   3.589
  839SOL    HW1 2538   0.411   3.129   3.503
  839SOL    HW2 2539   0.398   3.110   3.665
  840SOL     OW 2540   1.111   3.638   2.099
  840SOL    HW1 2541   1.051   3.576   2.149
  840SOL    HW2 2542   1.142   3.594   2.014
  841SOL     OW 2543   0.202   2.147   3.360
  841SOL    HW1 2544   0.122   2.207   3.347
  841SOL    HW2 2545   0.192   2.098   3.446
  842SOL     OW 2546   1.632   3.239   1.943
  842SOL    HW1 2547   1.600   3.333   1.933
  842SOL    HW2 2548   1.556   3.176   1.931
  843SOL     OW 2549   0.464   3.605   2.185
  843SOL    HW1 2550   0.497   3.644   2.271
  843SOL    HW2 2551   0.540   3.598   2.120
  844SOL     OW 2552   1.400   1.969   2.288
  844SOL    HW1 2553   1.376   1.932   2.198
  844SOL    HW2 2554   1.499   1.985   2.292
  845SOL     OW 2555   0.249   3.647   3.103
  845SOL    HW1 2556   0.306   3.582   3.153
  845SOL    HW2 2557   0.233   3.614   3.010
  846SOL     OW 2558   0.940   3.560   2.766
  846SOL    HW1 2559   1.020   3.503   2.787
  846SOL    HW2 2560   0.891   3.520   2.689
  847SOL     OW 2561   0.382   2.562   2.342
  847SOL    HW1 2562   0.427   2.472   2.339
  847SOL    HW2 2563   0.288   2.551   2.375
  848SOL     OW 2564   1.547   2.084   3.591
  848SOL    HW1 2565   1.542   2.121   3.683
  848SOL    HW2 2566   1.475   2.015   3.579
  849SOL     OW 2567   0.614   1.984   1.979
  849SOL    HW1 2568   0.712   1.962   1.986
  849SOL    HW2 2569   0.583   1.967   1.886
  850SOL     OW 2570   0.781   2.126   3.611
  850SOL    HW1 2571   0.848   2.065   3.654
  850SOL    HW2 2572   0.708   2.145   3.676
  851SOL     OW 2573   0.888   3.376   3.057
  851SOL    HW1 2574   0.865   3.351   2.963
  851SOL    HW2 2575   0.949   3.307   3.096
  852SOL     OW 2576   1.351   2.452   3.295
  852SOL    HW1 2577   1.379   2.409   3.380
  852SOL    HW2 2578   1.376   2.548   3.296
  853SOL     OW 2579   0.803   3.264   2.786
  853SOL    HW1 2580   0.893   3.278   2.744
  853SOL    HW2 2581   0.732   3.266   2.715
  854SOL     OW 2582   0.922   2.365   2.761
  854SOL    HW1 2583   0.897   2.356   2.665
  854SOL    HW2 2584   0.970   2.283   2.792
  855SOL     OW 2585   0.539   1.926   2.374
  855SOL    HW1 2586   0.458   1.927   2.432
  855SOL    HW2 2587   0.542   2.009   2.319
  856SOL     OW 2588   1.434   3.050   1.903
  856SOL    HW1 2589   1.466   2.974   1.960
  856SOL    HW2 2590   1.342   3.077   1.933
  857SOL     OW 2591   0.297   1.897   2.033
  857SOL    HW1 2592   0.346   1.981   2.012
  857SOL    HW2 2593   0.359   1.832   2.078
  858SOL     OW 2594   0.935   2.098   2.342
  858SOL    HW1 2595   0.887   2.139   2.264
  858SOL    HW2 2596   1.034   2.096   2.323
  859SOL     OW 2597   1.076   2.545   3.326
  859SOL    HW1 2598   0.996   2.484   3.329
  859SOL    HW2 2599   1.157   2.492   3.302
  860SOL     OW 2600   1.227   3.432   2.655
  860SOL    HW1 2601   1.248   3.506   2.590
  860SOL    HW2 2602   1.295   3.432   2.728
  861SOL     OW 2603   0.459   3.014   2.603
  861SOL    HW1 2604   0.388   2.987   2.668
  861SOL    HW2 2605   0.433   2.986   2.510
  862SOL     OW 2606   1.271   3.659   2.453
  862SOL    HW1 2607   1.315   3.723   2.389
  862SOL    HW2 2608   1.221   3.711   2.523
  863SOL     OW 2609   1.032   2.411   1.878
  863SOL    HW1 2610   0.991   2.493   1.839
  863SOL    HW2 2611   1.096   2.437   1.951
  864SOL     OW 2612   0.078   2.418   3.248
  864SOL    HW1 2613   0.170   2.417   3.207
  864SOL    HW2 2614   0.072   2.492   3.315
  865SOL     OW 2615   0.561   2.084   3.009
  865SOL    HW1 2616   0.599   2.000   3.046
  865SOL    HW2 2617   0.473   2.103   3.053
  866SOL     OW 2618   0.866   2.316   2.504
  866SOL    HW1 2619   0.834   2.388   2.442
  866SOL    HW2 2620   0.890   2.235   2.451
  867SOL     OW 2621   1.017   1.901   2.615
  867SOL    HW1 2622   0.945   1.906   2.546
  867SOL    HW2 2623   0.993   1.832   2.684
  868SOL     OW 2624   1.429   3.035   2.729
  868SOL    HW1 2625   1.374   2.951   2.722
  868SOL    HW2 2626   1.455   3.064   2.637
  869SOL     OW 2627   1.466   2.452   2.854
  869SOL    HW1 2628   1.436   2.357   2.861
  869SOL    HW2 2629   1.539   2.468   2.920
  870SOL     OW 2630   1.857   2.695   2.239
  870SOL    HW1 2631   1.899   2.631   2.303
  870SOL    HW2 2632   1.819   2.644   2.161
  871SOL     OW 2633   0.488   3.247   2.036
  871SOL    HW1 2634   0.401   3.232   2.083
  871SOL    HW2 2635   0.471   3.273   1.941
  872SOL     OW 2636   1.664   3.142   2.519
  872SOL    HW1 2637   1.763   3.150   2.533
  872SOL    HW2 2638   1.619   3.226   2.550
  873SOL     OW 2639   1.390   2.437   1.940
  873SOL    HW1 2640   1.336   2.416   2.021
  873SOL    HW2 2641   1.481   2.396   1.949
  874SOL     OW 2642   0.527   2.118   2.190
  874SOL    HW1 2643   0.554   2.059   2.115
  874SOL    HW2 2644   0.527   2.213   2.159
  875SOL     OW 2645   1.754   3.085   3.450
  875SOL    HW1 2646   1.845   3.046   3.437
  875SOL    HW2 2647   1.762   3.181   3.474
  876SOL     OW 2648   1.064   3.209   3.202
  876SOL    HW1 2649   0.984   3.186   3.257
  876SOL    HW2 2650   1.147   3.183   3.251
  877SOL     OW 2651   1.592   3.491   3.487
  877SOL    HW1 2652   1.619   3.525   3.397
  877SOL    HW2 2653   1.671   3.453   3.533
  878SOL     OW 2654   1.111   3.057   2.962
  878SOL    HW1 2655   1.071   3.101   3.043
  878SOL    HW2 2656   1.070   3.094   2.879
  879SOL     OW 2657   1.638   2.961   2.941
  879SOL    HW1 2658   1.643   3.042   3.000
  879SOL    HW2 2659   1.552   2.963   2.890
  880SOL     OW 2660   0.915   1.951   3.264
  880SOL    HW1 2661   0.940   1.931   3.169
  880SOL    HW2 2662   0.987   2.007   3.306
  881SOL     OW 2663   0.980   2.978   3.581
  881SOL    HW1 2664   0.881   2.984   3.591
  881SOL    HW2 2665   1.003   2.898   3.525
  882SOL     OW 2666   0.705   2.912   2.230
  882SOL    HW1 2667   0.691   2.919   2.329
  882SOL    HW2 2668   0.789   2.861   2.212
  883SOL     OW 2669   0.410   2.675   3.113
  883SOL    HW1 2670   0.496   2.687   3.163
  883SOL    HW2 2671   0.368   2.588   3.140
  884SOL     OW 2672   1.274   2.248   3.124
  884SOL    HW1 2673   1.295   2.322   3.188
  884SOL    HW2 2674   1.185   2.265   3.081
  885SOL     OW 2675   0.064   3.426   3.193
  885SOL    HW1 2676   0.018   3.508   3.159
  885SOL    HW2 2677   0.162   3.445   3.202
  886SOL     OW 2678   0.367   2.962   2.363
  886SOL    HW1 2679   0.360   3.045   2.307
  886SOL    HW2 2680   0.371   2.882   2.303
  887SOL     OW 2681   0.566   2.399   2.727
  887SOL    HW1 2682   0.578   2.465   2.653
  887SOL    HW2 2683   0.612   2.433   2.810
  888SOL     OW 2684   1.252   3.210   2.250
  888SOL    HW1 2685   1.302   3.287   2.290
  888SOL    HW2 2686   1.157   3.212   2.282
  889SOL     OW 2687   1.272   3.307   3.004
  889SOL    HW1 2688   1.319   3.320   3.091
  889SOL    HW2 2689   1.206   3.233   3.013
  890SOL     OW 2690   1.582   2.501   2.334
  890SOL    HW1 2691   1.551   2.562   2.407
  890SOL    HW2 2692   1.632   2.553   2.265
  891SOL     OW 2693   0.354   3.372   3.191
  891SOL    HW1 2694   0.333   3.328   3.104
  891SOL    HW2 2695   0.451   3.398   3.194
  892SOL     OW 2696   0.402   2.613   3.460
  892SOL    HW1 2697   0.470   2.668   3.413
  892SOL    HW2 2698   0.442   2.525   3.487
  893SOL     OW 2699   1.587   2.641   3.532
  893SOL    HW1 2700   1.495   2.679   3.527
  893SOL    HW2 2701   1.647   2.688   3.467
  894SOL     OW 2702   1.013   1.967   3.632
  894SOL    HW1 2703   1.019   2.052   3.580
  894SOL    HW2 2704   1.045   1.891   3.575
  895SOL     OW 2705   0.504   1.912   3.602
  895SOL    HW1 2706   0.462   1.855   3.532
  895SOL    HW2 2707   0.438   1.981   3.634
  896SOL     OW 2708   0.573   2.732   2.891
  896SOL    HW1 2709   0.617   2.821   2.882
  896SOL    HW2 2710   0.510   2.732   2.968
  897SOL     OW 2711   1.360   2.724   2.907
  897SOL    HW1 2712   1.285   2.724   2.841
  897SOL    HW2 2713   1.397   2.632   2.916
  898SOL     OW 2714   1.209   2.387   2.137
  898SOL    HW1 2715   1.222   2.303   2.191
  898SOL    HW2 2716   1.180   2.461   2.197
  899SOL     OW 2717   0.307   2.075   3.093
  899SOL    HW1 2718   0.284   2.112   3.183
  899SOL    HW2 2719   0.277   1.980   3.087
  900SOL     OW 2720   0.037   3.172   3.144
  900SOL    HW1 2721   0.090   3.123   3.212
  900SOL    HW2 2722   0.059   3.270   3.149
  901SOL     OW 2723   0.732   2.496   2.926
  901SOL    HW1 2724   0.791   2.470   2.850
  901SOL    HW2 2725   0.704   2.592   2.915
  902SOL     OW 2726   1.728   2.797   3.716
  902SOL    HW1 2727   1.682   2.790   3.627
  902SOL    HW2 2728   1.666   2.841   3.782
  903SOL     OW 2729   0.307   1.925   2.480
  903SOL    HW1 2730   0.296   2.019   2.513
  903SOL    HW2 2731   0.302   1.862   2.557
  904SOL     OW 2732   1.622   2.229   2.236
  904SOL    HW1 2733   1.624   2.153   2.300
  904SOL    HW2 2734   1.574   2.306   2.276
  905SOL     OW 2735   1.023   2.628   2.828
  905SOL    HW1 2736   1.038   2.649   2.924
  905SOL    HW2 2737   0.993   2.533   2.819
  906SOL     OW 2738   0.980   3.435   3.562
  906SOL    HW1 2739   0.960   3.479   3.474
  906SOL    HW2 2740   1.019   3.344   3.546
  907SOL     OW 2741   1.859   3.380   3.467
  907SOL    HW1 2742   1.873   3.407   3.372
  907SOL    HW2 2743   1.942   3.402   3.520
  908SOL     OW 2744   0.350   2.760   3.666
  908SOL    HW1 2745   0.426   2.804   3.714
  908SOL    HW2 2746   0.385   2.713   3.584
  909SOL     OW 2747   1.540   2.136   1.987
  909SOL    HW1 2748   1.479   2.061   2.010
  909SOL    HW2 2749   1.562   2.188   2.070
  910SOL     OW 2750   1.303   2.700   1.904
  910SOL    HW1 2751   1.337   2.607   1.919
  910SOL    HW2 2752   1.321   2.727   1.809
  911SOL     OW 2753   1.068   3.195   2.711
  911SOL    HW1 2754   1.075   3.111   2.656
  911SOL    HW2 2755   1.130   3.264   2.675
  912SOL     OW 2756   0.319   2.672   2.811
  912SOL    HW1 2757   0.412   2.708   2.816
  912SOL    HW2 2758   0.313   2.587   2.863
  913SOL     OW 2759   0.339   2.371   2.868
  913SOL    HW1 2760   0.287   2.288   2.851
  913SOL    HW2 2761   0.416   2.376   2.804
  914SOL     OW 2762   1.138   2.242   3.540
  914SOL    HW1 2763   1.093   2.305   3.604
  914SOL    HW2 2764   1.231   2.273   3.523
  915SOL     OW 2765   1.160   2.069   3.339
  915SOL    HW1 2766   1.160   2.133   3.416
  915SOL    HW2 2767   1.188   2.117   3.256
  916SOL     OW 2768   0.008   3.188   2.062
  916SOL    HW1 2769  -0.085   3.209   2.031
  916SOL    HW2 2770   0.018   3.089   2.075
  917SOL     OW 2771   0.088   3.663   2.789
  917SOL    HW1 2772   0.046   3.577   2.762
  917SOL    HW2 2773   0.182   3.666   2.755
  918SOL     OW 2774   0.504   3.430   2.772
  918SOL    HW1 2775   0.570   3.504   2.781
  918SOL    HW2 2776   0.548   3.351   2.730
  919SOL     OW 2777   1.002   2.658   3.100
  919SOL    HW1 2778   1.043   2.626   3.186
  919SOL    HW2 2779   0.906   2.631   3.097
  920SOL     OW 2780   0.040   2.406   2.976
  920SOL    HW1 2781   0.125   2.373   2.935
  920SOL    HW2 2782   0.053   2.421   3.074
  921SOL     OW 2783   0.189   2.382   3.584
  921SOL    HW1 2784   0.248   2.342   3.514
  921SOL    HW2 2785   0.131   2.453   3.543
  922SOL     OW 2786   1.369   2.812   3.522
  922SOL    HW1 2787   1.408   2.901   3.542
  922SOL    HW2 2788   1.379   2.792   3.425
  923SOL     OW 2789   0.815   2.434   2.187
  923SOL    HW1 2790   0.822   2.345   2.141
  923SOL    HW2 2791   0.721   2.468   2.179
  924SOL     OW 2792   1.657   2.466   3.068
  924SOL    HW1 2793   1.619   2.397   3.130
  924SOL    HW2 2794   1.739   2.430   3.024
  925SOL     OW 2795   0.252   3.426   3.606
  925SOL    HW1 2796   0.222   3.483   3.682
  925SOL    HW2 2797   0.245   3.329   3.632
  926SOL     OW 2798   0.671   2.326   3.131
  926SOL    HW1 2799   0.637   2.237   3.101
  926SOL    HW2 2800   0.697   2.380   3.051
  927SOL     OW 2801   0.930   3.540   3.327
  927SOL    HW1 2802   0.906   3.522   3.232
  927SOL    HW2 2803   0.960   3.634   3.337
  928SOL     OW 2804   0.473   2.362   2.053
  928SOL    HW1 2805   0.534   2.442   2.057
  928SOL    HW2 2806   0.378   2.393   2.060
  929SOL     OW 2807   0.159   2.999   3.328
  929SOL    HW1 2808   0.181   2.938   3.404
  929SOL    HW2 2809   0.169   2.950   3.242
  930SOL     OW 2810   1.347   2.921   3.096
  930SOL    HW1 2811   1.371   2.858   3.022
  930SOL    HW2 2812   1.257   2.961   3.078
  931SOL     OW 2813   1.302   2.717   2.171
  931SOL    HW1 2814   1.216   2.686   2.213
  931SOL    HW2 2815   1.298   2.703   2.072
  932SOL     OW 2816   1.759   3.609   3.016
  932SOL    HW1 2817   1.820   3.639   2.943
  932SOL    HW2 2818   1.721   3.520   2.994
  933SOL     OW 2819   1.252   3.593   2.990
  933SOL    HW1 2820   1.336   3.598   2.936
  933SOL    HW2 2821   1.229   3.497   3.008
  934SOL     OW 2822   0.083   3.120   2.884
  934SOL    HW1 2823   0.078   3.119   2.984
  934SOL    HW2 2824   0.000   3.079   2.846
  935SOL     OW 2825   0.688   3.524   3.578
  935SOL    HW1 2826   0.632   3.605   3.587
  935SOL    HW2 2827   0.740   3.528   3.492
  936SOL     OW 2828   1.726   1.997   2.385
  936SOL    HW1 2829   1.799   1.980   2.318
  936SOL    HW2 2830   1.695   1.910   2.423
  937SOL     OW 2831   1.388   3.435   2.339
  937SOL    HW1 2832   1.455   3.447   2.265
  937SOL    HW2 2833   1.348   3.524   2.362
  938SOL     OW 2834   0.130   3.656   3.713
  938SOL    HW1 2835   0.089   3.582   3.766
  938SOL    HW2 2836   0.194   3.707   3.771
  939SOL     OW 2837   1.280   2.789   2.534
  939SOL    HW1 2838   1.340   2.708   2.536
  939SOL    HW2 2839   1.320   2.858   2.474
  940SOL     OW 2840   0.830   3.135   3.284
  940SOL    HW1 2841   0.825   3.168   3.379
  940SOL    HW2 2842   0.744   3.154   3.238
  941SOL     OW 2843   0.672   3.478   2.016
  941SOL    HW1 2844   0.681   3.488   1.917
  941SOL    HW2 2845   0.632   3.389   2.037
  942SOL     OW 2846   1.650   3.582   3.256
  942SOL    HW1 2847   1.703   3.592   3.172
  942SOL    HW2 2848   1.623   3.672   3.290
  943SOL     OW 2849   1.841   2.037   2.825
  943SOL    HW1 2850   1.880   1.952   2.789
  943SOL    HW2 2851   1.743   2.039   2.806
  944SOL     OW 2852   0.263   2.188   2.582
  944SOL    HW1 2853   0.184   2.239   2.548
  944SOL    HW2 2854   0.254   2.173   2.680
  945SOL     OW 2855   1.194   3.474   1.893
  945SOL    HW1 2856   1.200   3.381   1.930
  945SOL    HW2 2857   1.135   3.474   1.813
  946SOL     OW 2858   0.822   2.864   3.234
  946SOL    HW1 2859   0.862   2.863   3.142
  946SOL    HW2 2860   0.832   2.956   3.274
  947SOL     OW 2861   0.916   2.772   2.153
  947SOL    HW1 2862   0.979   2.810   2.085
  947SOL    HW2 2863   0.956   2.689   2.192
  948SOL     OW 2864   1.504   3.469   1.906
  948SOL    HW1 2865   1.412   3.506   1.913
  948SOL    HW2 2866   1.542   3.489   1.816
  949SOL     OW 2867   0.372   3.150   3.352
  949SOL    HW1 2868   0.359   3.243   3.318
  949SOL    HW2 2869   0.288   3.098   3.339
  950SOL     OW 2870   1.614   3.154   3.151
  950SOL    HW1 2871   1.674   3.157   3.231
  950SOL    HW2 2872   1.539   3.218   3.164
  951SOL     OW 2873   1.039   2.960   2.558
  951SOL    HW1 2874   0.969   2.913   2.612
  951SOL    HW2 2875   1.098   2.892   2.515
  952SOL     OW 2876   1.014   2.098   2.833
  952SOL    HW1 2877   1.006   2.062   2.740
  952SOL    HW2 2878   1.012   2.022   2.898
  953SOL     OW 2879   0.590   3.349   2.353
  953SOL    HW1 2880   0.632   3.291   2.283
  953SOL    HW2 2881   0.546   3.428   2.309
  954SOL     OW 2882   1.709   2.247   3.243
  954SOL    HW1 2883   1.782   2.316   3.247
  954SOL    HW2 2884   1.737   2.172   3.184
  955SOL     OW 2885   0.255   3.210   2.152
  955SOL    HW1 2886   0.159   3.211   2.125
  955SOL    HW2 2887   0.267   3.263   2.236
  956SOL     OW 2888   0.105   2.875   3.588
  956SOL    HW1 2889   0.028   2.842   3.642
  956SOL    HW2 2890   0.190   2.845   3.630
  957SOL     OW 2891   0.672   2.065   3.351
  957SOL    HW1 2892   0.762   2.049   3.311
  957SOL    HW2 2893   0.680   2.070   3.450
  958SOL     OW 2894   0.075   2.207   1.895
  958SOL    HW1 2895  -0.017   2.179   1.866
  958SOL    HW2 2896   0.106   2.284   1.839
  959SOL     OW 2897   1.440   2.718   3.260
  959SOL    HW1 2898   1.383   2.770   3.197
  959SOL    HW2 2899   1.536   2.730   3.236
  960SOL     OW 2900   0.072   2.028   2.180
  960SOL    HW1 2901   0.055   2.111   2.126
  960SOL    HW2 2902   0.162   1.991   2.158
  961SOL     OW 2903   1.183   3.197   1.981
  961SOL    HW1 2904   1.084   3.186   1.983
  961SOL    HW2 2905   1.217   3.212   2.074
  962SOL     OW 2906   0.613   2.704   3.293
  962SOL    HW1 2907   0.669   2.785   3.276
  962SOL    HW2 2908   0.672   2.624   3.296
  963SOL     OW 2909   1.493   3.629   2.821
  963SOL    HW1 2910   1.526   3.693   2.752
  963SOL    HW2 2911   1.559   3.623   2.896
  964SOL     OW 2912   0.716   2.427   3.570
  964SOL    HW1 2913   0.735   2.492   3.644
  964SOL    HW2 2914   0.776   2.347   3.579
  965SOL     OW 2915   1.450   3.082   3.495
  965SOL    HW1 2916   1.441   3.072   3.594
  965SOL    HW2 2917   1.546   3.075   3.469
  966SOL     OW 2918   0.390   3.603   3.422
  966SOL    HW1 2919   0.299   3.644   3.420
  966SOL    HW2 2920   0.383   3.509   3.454
  967SOL     OW 2921   1.674   2.745   3.116
  967SOL    HW1 2922   1.647   2.656   3.079
  967SOL    HW2 2923   1.675   2.813   3.043
  968SOL     OW 2924   1.225   2.187   2.311
  968SOL    HW1 2925   1.290   2.113   2.300
  968SOL    HW2 2926   1.245   2.237   2.395
  969SOL     OW 2927   0.594   2.607   2.514
  969SOL    HW1 2928   0.644   2.692   2.495
  969SOL    HW2 2929   0.506   2.609   2.466
  970SOL     OW 2930   1.777   2.204   3.504
  970SOL    HW1 2931   1.760   2.235   3.410
  970SOL    HW2 2932   1.693   2.167   3.542
  971SOL     OW 2933   1.730   2.796   3.379
  971SOL    HW1 2934   1.768   2.887   3.394
  971SOL    HW2 2935   1.722   2.779   3.280
  972SOL     OW 2936   0.859   3.236   1.878
  972SOL    HW1 2937   0.813   3.251   1.966
  972SOL    HW2 2938   0.903   3.321   1.848
  973SOL     OW 2939   0.661   3.652   2.815
  973SOL    HW1 2940   0.615   3.740   2.802
  973SOL    HW2 2941   0.760   3.664   2.808
  974SOL     OW 2942   0.859   2.818   2.723
  974SOL    HW1 2943   0.913   2.749   2.771
  974SOL    HW2 2944   0.827   2.887   2.789
  975SOL     OW 2945   1.083   2.846   1.949
  975SOL    HW1 2946   1.060   2.899   1.867
  975SOL    HW2 2947   1.164   2.790   1.930
  976SOL     OW 2948   1.861   3.431   2.713
  976SOL    HW1 2949   1.790   3.419   2.643
  976SOL    HW2 2950   1.862   3.352   2.773
  977SOL     OW 2951   0.221   3.176   3.706
  977SOL    HW1 2952   0.156   3.103   3.685
  977SOL    HW2 2953   0.225   3.190   3.804
  978SOL     OW 2954   0.079   3.102   2.515
  978SOL    HW1 2955   0.078   3.055   2.603
  978SOL    HW2 2956   0.161   3.074   2.464
  979SOL     OW 2957   0.672   3.253   3.486
  979SOL    HW1 2958   0.594   3.203   3.524
  979SOL    HW2 2959   0.669   3.348   3.517
  980SOL     OW 2960   1.824   2.054   3.089
  980SOL    HW1 2961   1.820   1.964   3.133
  980SOL    HW2 2962   1.827   2.043   2.990
  981SOL     OW 2963   0.428   2.286   2.382
  981SOL    HW1 2964   0.458   2.214   2.320
  981SOL    HW2 2965   0.389   2.246   2.465
  982SOL     OW 2966   1.705   3.349   2.966
  982SOL    HW1 2967   1.612   3.324   2.939
  982SOL    HW2 2968   1.731   3.299   3.048
  983SOL     OW 2969   0.317   2.409   3.142
  983SOL    HW1 2970   0.355   2.350   3.214
  983SOL    HW2 2971   0.357   2.383   3.054
  984SOL     OW 2972   0.812   3.448   2.549
  984SOL    HW1 2973   0.844   3.458   2.455
  984SOL    HW2 2974   0.733   3.386   2.551
  985SOL     OW 2975   1.424   2.076   2.974
  985SOL    HW1 2976   1.476   2.011   3.029
  985SOL    HW2 2977   1.375   2.139   3.035
  986SOL     OW 2978   1.001   1.896   3.016
  986SOL    HW1 2979   0.938   1.824   2.985
  986SOL    HW2 2980   1.094   1.860   3.016
  987SOL     OW 2981   0.770   3.192   2.163
  987SOL    HW1 2982   0.724   3.105   2.180
  987SOL    HW2 2983   0.861   3.189   2.204
  988SOL     OW 2984   0.618   3.429   3.146
  988SOL    HW1 2985   0.613   3.511   3.203
  988SOL    HW2 2986   0.707   3.426   3.101
  989SOL     OW 2987   1.352   1.914   2.030
  989SOL    HW1 2988   1.387   1.873   1.946
  989SOL    HW2 2989   1.262   1.876   2.050
  990SOL     OW 2990   1.300   2.315   2.553
  990SOL    HW1 2991   1.241   2.395   2.557
  990SOL    HW2 2992   1.315   2.280   2.646
  991SOL     OW 2993   1.593   2.083   2.744
  991SOL    HW1 2994   1.509   2.082   2.798
  991SOL    HW2 2995   1.595   2.166   2.688
  992SOL     OW 2996   0.039   2.939   2.162
  992SOL    HW1 2997   0.138   2.928   2.153
  992SOL    HW2 2998  -0.001   2.853   2.194
  993SOL     OW 2999   0.875   3.508   2.199
  993SOL    HW1 3000   0.798   3.473   2.145
  993SOL    HW2 3001   0.843   3.579   2.261
  994SOL     OW 3002   0.230   2.490   3.837
  994SOL    HW1 3003   0.137   2.488   3.874
  994SOL    HW2 3004   0.231   2.451   3.745
  995SOL     OW 3005   0.225   2.137   4.720
  995SOL    HW1 3006   0.260   2.120   4.812
  995SOL    HW2 3007   0.137   2.092   4.708
  996SOL     OW 3008   0.019   2.230   4.371
  996SOL    HW1 3009  -0.063   2.273   4.410
  996SOL    HW2 3010  -0.009   2.157   4.308
  997SOL     OW 3011   0.569   3.137   4.889
  997SOL    HW1 3012   0.476   3.130   4.852
  997SOL    HW2 3013   0.580   3.226   4.933
  998SOL     OW 3014   1.555   3.373   4.427
  998SOL    HW1 3015   1.498   3.357   4.508
  998SOL    HW2 3016   1.496   3.383   4.347
  999SOL     OW 3017   1.135   2.565   4.441
  999SOL    HW1 3018   1.192   2.643   4.416
  999SOL    HW2 3019   1.075   2.591   4.517
 1000SOL     OW 3020   1.755   2.469   3.955
 1000SOL    HW1 3021   1.743   2.456   3.856
 1000SOL    HW2 3022   1.725   2.388   4.004
 1001SOL     OW 3023   0.768   3.006   4.747
 1001SOL    HW1 3024   0.690   3.023   4.807
 1001SOL    HW2 3025   0.802   3.093   4.711
 1002SOL     OW 3026   0.685   2.874   4.389
 1002SOL    HW1 3027   0.754   2.858   4.459
 1002SOL    HW2 3028   0.612   2.931   4.427
 1003SOL     OW 3029   0.335   3.297   4.785
 1003SOL    HW1 3030   0.257   3.266   4.732
 1003SOL    HW2 3031   0.393   3.355   4.728
 1004SOL     OW 3032   1.603   2.309   4.461
 1004SOL    HW1 3033   1.529   2.355   4.411
 1004SOL    HW2 3034   1.654   2.377   4.514
 1005SOL     OW 3035   0.231   3.575   4.207
 1005SOL    HW1 3036   0.265   3.652   4.261
 1005SOL    HW2 3037   0.275   3.575   4.117
 1006SOL     OW 3038   0.230   3.296   4.262
 1006SOL    HW1 3039   0.204   3.392   4.262
 1006SOL    HW2 3040   0.159   3.242   4.307
 1007SOL     OW 3041   0.240   2.953   4.610
 1007SOL    HW1 3042   0.254   2.869   4.662
 1007SOL    HW2 3043   0.185   3.017   4.665
 1008SOL     OW 3044   0.606   2.826   3.847
 1008SOL    HW1 3045   0.613   2.910   3.793
 1008SOL    HW2 3046   0.652   2.839   3.935
 1009SOL     OW 3047   0.122   2.505   4.287
 1009SOL    HW1 3048   0.077   2.417   4.304
 1009SOL    HW2 3049   0.121   2.559   4.371
 1010SOL     OW 3050   1.842   3.629   4.083
 1010SOL    HW1 3051   1.896   3.600   4.163
 1010SOL    HW2 3052   1.872   3.719   4.054
 1011SOL     OW 3053   0.027   3.458   3.841
 1011SOL    HW1 3054   0.008   3.362   3.862
 1011SOL    HW2 3055  -0.006   3.516   3.916
 1012SOL     OW 3056   1.689   2.784   4.336
 1012SOL    HW1 3057   1.784   2.755   4.344
 1012SOL    HW2 3058   1.681   2.849   4.261
 1013SOL     OW 3059   1.641   2.970   4.156
 1013SOL    HW1 3060   1.727   2.972   4.104
 1013SOL    HW2 3061   1.655   3.017   4.244
 1014SOL     OW 3062   0.613   3.227   4.450
 1014SOL    HW1 3063   0.564   3.140   4.459
 1014SOL    HW2 3064   0.590   3.270   4.363
 1015SOL     OW 3065   0.809   1.866   4.226
 1015SOL    HW1 3066   0.849   1.957   4.217
 1015SOL    HW2 3067   0.709   1.874   4.232
 1016SOL     OW 3068   0.197   2.838   4.988
 1016SOL    HW1 3069   0.286   2.793   4.974
 1016SOL    HW2 3070   0.124   2.773   4.969
 1017SOL     OW 3071   1.525   2.861   3.914
 1017SOL    HW1 3072   1.462   2.785   3.927
 1017SOL    HW2 3073   1.573   2.879   4.000
 1018SOL     OW 3074   1.466   3.279   4.677
 1018SOL    HW1 3075   1.407   3.285   4.757
 1018SOL    HW2 3076   1.451   3.191   4.631
 1019SOL     OW 3077   1.667   3.576   4.296
 1019SOL    HW1 3078   1.626   3.553   4.208
 1019SOL    HW2 3079   1.649   3.502   4.361
 1020SOL     OW 3080   0.598   2.591   3.994
 1020SOL    HW1 3081   0.622   2.660   3.926
 1020SOL    HW2 3082   0.520   2.624   4.048
 1021SOL     OW 3083   1.281   2.207   4.668
 1021SOL    HW1 3084   1.195   2.157   4.655
 1021SOL    HW2 3085   1.343   2.153   4.724
 1022SOL     OW 3086   1.576   3.524   4.031
 1022SOL    HW1 3087   1.665   3.570   4.034
 1022SOL    HW2 3088   1.555   3.500   3.936
 1023SOL     OW 3089   1.041   2.563   4.153
 1023SOL    HW1 3090   1.067   2.559   4.249
 1023SOL    HW2 3091   0.956   2.512   4.139
 1024SOL     OW 3092   0.076   2.673   4.513
 1024SOL    HW1 3093   0.175   2.661   4.522
 1024SOL    HW2 3094   0.052   2.768   4.534
 1025SOL     OW 3095   0.865   2.210   3.919
 1025SOL    HW1 3096   0.924   2.273   3.870
 1025SOL    HW2 3097   0.884   2.116   3.890
 1026SOL     OW 3098   1.362   3.006   4.269
 1026SOL    HW1 3099   1.445   2.977   4.221
 1026SOL    HW2 3100   1.313   3.073   4.213
 1027SOL     OW 3101   0.550   2.058   4.609
 1027SOL    HW1 3102   0.545   2.053   4.709
 1027SOL    HW2 3103   0.552   2.154   4.580
 1028SOL     OW 3104   1.008   3.318   4.201
 1028SOL    HW1 3105   0.962   3.390   4.149
 1028SOL    HW2 3106   1.004   3.338   4.299
 1029SOL     OW 3107   0.351   3.663   4.577
 1029SOL    HW1 3108   0.401   3.577   4.583
 1029SOL    HW2 3109   0.416   3.740   4.574
 1030SOL     OW 3110   1.795   2.928   4.597
 1030SOL    HW1 3111   1.733   2.913   4.521
 1030SOL    HW2 3112   1.743   2.939   4.682
 1031SOL     OW 3113   0.321   2.805   3.966
 1031SOL    HW1 3114   0.403   2.844   3.924
 1031SOL    HW2 3115   0.294   2.723   3.917
 1032SOL     OW 3116   1.458   2.597   4.452
 1032SOL    HW1 3117   1.453   2.532   4.527
 1032SOL    HW2 3118   1.538   2.656   4.465
 1033SOL     OW 3119   1.111   3.638   3.961
 1033SOL    HW1 3120   1.051   3.576   4.011
 1033SOL    HW2 3121   1.142   3.594   3.876
 1034SOL     OW 3122   1.632   3.239   3.805
 1034SOL    HW1 3123   1.600   3.333   3.795
 1034SOL    HW2 3124   1.556   3.176   3.793
 1035SOL     OW 3125   0.464   3.605   4.047
 1035SOL    HW1 3126   0.497   3.644   4.133
 1035SOL    HW2 3127   0.540   3.598   3.982
 1036SOL     OW 3128   1.400   1.969   4.150
 1036SOL    HW1 3129   1.376   1.932   4.060
 1036SOL    HW2 3130   1.499   1.985   4.154
 1037SOL     OW 3131   0.249   3.647   4.965
 1037SOL    HW1 3132   0.306   3.582   5.015
 1037SOL    HW2 3133   0.233   3.614   4.872
 1038SOL     OW 3134   0.940   3.560   4.628
 1038SOL    HW1 3135   1.020   3.503   4.649
 1038SOL    HW2 3136   0.891   3.520   4.551
 1039SOL     OW 3137   0.382   2.562   4.204
 1039SOL    HW1 3138   0.427   2.472   4.201
 1039SOL    HW2 3139   0.288   2.551   4.237
 1040SOL     OW 3140   0.614   1.984   3.841
 1040SOL    HW1 3141   0.712   1.962   3.848
 1040SOL    HW2 3142   0.583   1.967   3.748
 1041SOL     OW 3143   0.803   3.264   4.648
 1041SOL    HW1 3144   0.893   3.278   4.606
 1041SOL    HW2 3145   0.732   3.266   4.577
 1042SOL     OW 3146   0.922   2.365   4.623
 1042SOL    HW1 3147   0.897   2.356   4.527
 1042SOL    HW2 3148   0.970   2.283   4.654
 1043SOL     OW 3149   0.539   1.926   4.236
 1043SOL    HW1 3150   0.458   1.927   4.294
 1043SOL    HW2 3151   0.542   2.009   4.181
 1044SOL     OW 3152   1.434   3.050   3.765
 1044SOL    HW1 3153   1.466   2.974   3.822
 1044SOL    HW2 3154   1.342   3.077   3.795
 1045SOL     OW 3155   0.297   1.897   3.895
 1045SOL    HW1 3156   0.346   1.981   3.874
 1045SOL    HW2 3157   0.359   1.832   3.940
 1046SOL     OW 3158   0.935   2.098   4.204
 1046SOL    HW1 3159   0.887   2.139   4.126
 1046SOL    HW2 3160   1.034   2.096   4.185
 1047SOL     OW 3161   1.227   3.432   4.517
 1047SOL    HW1 3162   1.248   3.506   4.452
 1047SOL    HW2 3163   1.295   3.432   4.590
 1048SOL     OW 3164   0.459   3.014   4.465
 1048SOL    HW1 3165   0.388   2.987   4.530
 1048SOL    HW2 3166   0.433   2.986   4.372
 1049SOL     OW 3167   1.271   3.659   4.315
 1049SOL    HW1 3168   1.315   3.723   4.251
 1049SOL    HW2 3169   1.221   3.711   4.385
 1050SOL     OW 3170   1.032   2.411   3.740
 1050SOL    HW1 3171   0.991   2.493   3.701
 1050SOL    HW2 3172   1.096   2.437   3.813
 1051SOL     OW 3173   0.866   2.316   4.366
 1051SOL    HW1 3174   0.834   2.388   4.304
 1051SOL    HW2 3175   0.890   2.235   4.313
 1052SOL     OW 3176   1.017   1.901   4.477
 1052SOL    HW1 3177   0.945   1.906   4.408
 1052SOL    HW2 3178   0.993   1.832   4.546
 1053SOL     OW 3179   1.429   3.035   4.591
 1053SOL    HW1 3180   1.374   2.951   4.584
 1053SOL    HW2 3181   1.455   3.064   4.499
 1054SOL     OW 3182   1.466   2.452   4.716
 1054SOL    HW1 3183   1.436   2.357   4.723
 1054SOL    HW2 3184   1.539   2.468   4.782
 1055SOL     OW 3185   1.857   2.695   4.101
 1055SOL    HW1 3186   1.899   2.631   4.165
 1055SOL    HW2 3187   1.819   2.644   4.023
 1056SOL     OW 3188   0.488   3.247   3.898
 1056SOL    HW1 3189   0.401   3.232   3.945
 1056SOL    HW2 3190   0.471   3.273   3.803
 1057SOL     OW 3191   1.664   3.142   4.381
 1057SOL    HW1 3192   1.763   3.150   4.395
 1057SOL    HW2 3193   1.619   3.226   4.412
 1058SOL     OW 3194   1.390   2.437   3.802
 1058SOL    HW1 3195   1.336   2.416   3.883
 1058SOL    HW2 3196   1.481   2.396   3.811
 1059SOL     OW 3197   0.527   2.118   4.052
 1059SOL    HW1 3198   0.554   2.059   3.977
 1059SOL    HW2 3199   0.527   2.213   4.021
 1060SOL     OW 3200   1.111   3.057   4.824
 1060SOL    HW1 3201   1.071   3.101   4.905
 1060SOL    HW2 3202   1.070   3.094   4.741
 1061SOL     OW 3203   1.638   2.961   4.803
 1061SOL    HW1 3204   1.643   3.042   4.862
 1061SOL    HW2 3205   1.552   2.963   4.752
 1062SOL     OW 3206   0.705   2.912   4.092
 1062SOL    HW1 3207   0.691   2.919   4.191
 1062SOL    HW2 3208   0.789   2.861   4.074
 1063SOL     OW 3209   0.410   2.675   4.975
 1063SOL    HW1 3210   0.496   2.687   5.025
 1063SOL    HW2 3211   0.368   2.588   5.002
 1064SOL     OW 3212   0.367   2.962   4.225
 1064SOL    HW1 3213   0.360   3.045   4.169
 1064SOL    HW2 3214   0.371   2.882   4.165
 1065SOL     OW 3215   0.566   2.399   4.589
 1065SOL    HW1 3216   0.578   2.465   4.515
 1065SOL    HW2 3217   0.612   2.433   4.672
 1066SOL     OW 3218   1.252   3.210   4.112
 1066SOL    HW1 3219   1.302   3.287   4.152
 1066SOL    HW2 3220   1.157   3.212   4.144
 1067SOL     OW 3221   1.272   3.307   4.866
 1067SOL    HW1 3222   1.319   3.320   4.953
 1067SOL    HW2 3223   1.206   3.233   4.875
 1068SOL     OW 3224   1.582   2.501   4.196
 1068SOL    HW1 3225   1.551   2.562   4.269
 1068SOL    HW2 3226   1.632   2.553   4.127
 1069SOL     OW 3227   0.573   2.732   4.753
 1069SOL    HW1 3228   0.617   2.821   4.744
 1069SOL    HW2 3229   0.510   2.732   4.830
 1070SOL     OW 3230   1.360   2.724   4.769
 1070SOL    HW1 3231   1.285   2.724   4.703
 1070SOL    HW2 3232   1.397   2.632   4.778
 1071SOL     OW 3233   1.209   2.387   3.999
 1071SOL    HW1 3234   1.222   2.303   4.053
 1071SOL    HW2 3235   1.180   2.461   4.059
 1072SOL     OW 3236   0.307   2.075   4.955
 1072SOL    HW1 3237   0.284   2.112   5.045
 1072SOL    HW2 3238   0.277   1.980   4.949
 1073SOL     OW 3239   0.732   2.496   4.788
 1073SOL    HW1 3240   0.791   2.470   4.712
 1073SOL    HW2 3241   0.704   2.592   4.777
 1074SOL     OW 3242   0.307   1.925   4.342
 1074SOL    HW1 3243   0.296   2.019   4.375
 1074SOL    HW2 3244   0.302   1.862   4.419
 1075SOL     OW 3245   1.622   2.229   4.098
 1075SOL    HW1 3246   1.624   2.153   4.162
 1075SOL    HW2 3247   1.574   2.306   4.138
 1076SOL     OW 3248   1.023   2.628   4.690
 1076SOL    HW1 3249   1.038   2.649   4.786
 1076SOL    HW2 3250   0.993   2.533   4.681
 1077SOL     OW 3251   1.540   2.136   3.849
 1077SOL    HW1 3252   1.479   2.061   3.872
 1077SOL    HW2 3253   1.562   2.188   3.932
 1078SOL     OW 3254   1.303   2.700   3.766
 1078SOL    HW1 3255   1.337   2.607   3.781
 1078SOL    HW2 3256   1.321   2.727   3.671
 1079SOL     OW 3257   1.068   3.195   4.573
 1079SOL    HW1 3258   1.075   3.111   4.518
 1079SOL    HW2 3259   1.130   3.264   4.537
 1080SOL     OW 3260   0.319   2.672   4.673
 1080SOL    HW1 3261   0.412   2.708   4.678
 1080SOL    HW2 3262   0.313   2.587   4.725
 1081SOL     OW 3263   0.339   2.371   4.730
 1081SOL    HW1 3264   0.287   2.288   4.713
 1081SOL    HW2 3265   0.416   2.376   4.666
 1082SOL     OW 3266   1.160   2.069   5.201
 1082SOL    HW1 3267   1.160   2.133   5.278
 1082SOL    HW2 3268   1.188   2.117   5.118
 1083SOL     OW 3269   0.008   3.188   3.924
 1083SOL    HW1 3270  -0.085   3.209   3.893
 1083SOL    HW2 3271   0.018   3.089   3.937
 1084SOL     OW 3272   0.088   3.663   4.651
 1084SOL    HW1 3273   0.046   3.577   4.624
 1084SOL    HW2 3274   0.182   3.666   4.617
 1085SOL     OW 3275   0.504   3.430   4.634
 1085SOL    HW1 3276   0.570   3.504   4.643
 1085SOL    HW2 3277   0.548   3.351   4.592
 1086SOL     OW 3278   1.002   2.658   4.962
 1086SOL    HW1 3279   1.043   2.626   5.048
 1086SOL    HW2 3280   0.906   2.631   4.959
 1087SOL     OW 3281   0.040   2.406   4.838
 1087SOL    HW1 3282   0.125   2.373   4.797
 1087SOL    HW2 3283   0.053   2.421   4.936
 1088SOL     OW 3284   0.815   2.434   4.049
 1088SOL    HW1 3285   0.822   2.345   4.003
 1088SOL    HW2 3286   0.721   2.468   4.041
 1089SOL     OW 3287   1.657   2.466   4.930
 1089SOL    HW1 3288   1.619   2.397   4.992
 1089SOL    HW2 3289   1.739   2.430   4.886
 1090SOL     OW 3290   0.671   2.326   4.993
 1090SOL    HW1 3291   0.637   2.237   4.963
 1090SOL    HW2 3292   0.697   2.380   4.913
 1091SOL     OW 3293   0.473   2.362   3.915
 1091SOL    HW1 3294   0.534   2.442   3.919
 1091SOL    HW2 3295   0.378   2.393   3.922
 1092SOL     OW 3296   1.302   2.717   4.033
 1092SOL    HW1 3297   1.216   2.686   4.075
 1092SOL    HW2 3298   1.298   2.703   3.934
 1093SOL     OW 3299   1.759   3.609   4.878
 1093SOL    HW1 3300   1.820   3.639   4.805
 1093SOL    HW2 3301   1.721   3.520   4.856
 1094SOL     OW 3302   0.083   3.120   4.746
 1094SOL    HW1 3303   0.078   3.119   4.846
 1094SOL    HW2 3304   0.000   3.079   4.708
 1095SOL     OW 3305   1.726   1.997   4.247
 1095SOL    HW1 3306   1.799   1.980   4.180
 1095SOL    HW2 3307   1.695   1.910   4.285
 1096SOL     OW 3308   1.388   3.435   4.201
 1096SOL    HW1 3309   1.455   3.447   4.127
 1096SOL    HW2 3310   1.348   3.524   4.224
 1097SOL     OW 3311   1.280   2.789   4.396
 1097SOL    HW1 3312   1.340   2.708   4.398
 1097SOL    HW2 3313   1.320   2.858   4.336
 1098SOL     OW 3314   0.672   3.478   3.878
 1098SOL    HW1 3315   0.681   3.488   3.779
 1098SOL    HW2 3316   0.632   3.389   3.899
 1099SOL     OW 3317   1.841   2.037   4.687
 1099SOL    HW1 3318   1.880   1.952   4.651
 1099SOL    HW2 3319   1.743   2.039   4.668
 1100SOL     OW 3320   0.263   2.188   4.444
 1100SOL    HW1 3321   0.184   2.239   4.410
 1100SOL    HW2 3322   0.254   2.173   4.542
 1101SOL     OW 3323   1.194   3.474   3.755
 1101SOL    HW1 3324   1.200   3.381   3.792
 1101SOL    HW2 3325   1.135   3.474   3.675
 1102SOL     OW 3326   0.822   2.864   5.096
 1102SOL    HW1 3327   0.862   2.863   5.004
 1102SOL    HW2 3328   0.832   2.956   5.136
 1103SOL     OW 3329   0.916   2.772   4.015
 1103SOL    HW1 3330   0.979   2.810   3.947
 1103SOL    HW2 3331   0.956   2.689   4.054
 1104SOL     OW 3332   1.504   3.469   3.768
 1104SOL    HW1 3333   1.412   3.506   3.775
 1104SOL    HW2 3334   1.542   3.489   3.678
 1105SOL     OW 3335   1.039   2.960   4.420
 1105SOL    HW1 3336   0.969   2.913   4.474
 1105SOL    HW2 3337   1.098   2.892   4.377
 1106SOL     OW 3338   1.014   2.098   4.695
 1106SOL    HW1 3339   1.006   2.062   4.602
 1106SOL    HW2 3340   1.012   2.022   4.760
 1107SOL     OW 3341   0.590   3.349   4.215
 1107SOL    HW1 3342   0.632   3.291   4.145
 1107SOL    HW2 3343   0.546   3.428   4.171
 1108SOL     OW 3344   1.709   2.247   5.105
 1108SOL    HW1 3345   1.782   2.316   5.109
 1108SOL    HW2 3346   1.737   2.172   5.046
 1109SOL     OW 3347   0.255   3.210   4.014
 1109SOL    HW1 3348   0.159   3.211   3.987
 1109SOL    HW2 3349   0.267   3.263   4.098
 1110SOL     OW 3350   0.075   2.207   3.757
 1110SOL    HW1 3351  -0.017   2.179   3.728
 1110SOL    HW2 3352   0.106   2.284   3.701
 1111SOL     OW 3353   0.072   2.028   4.042
 1111SOL    HW1 3354   0.055   2.111   3.988
 1111SOL    HW2 3355   0.162   1.991   4.020
 1112SOL     OW 3356   1.183   3.197   3.843
 1112SOL    HW1 3357   1.084   3.186   3.845
 1112SOL    HW2 3358   1.217   3.212   3.936
 1113SOL     OW 3359   1.493   3.629   4.683
 1113SOL    HW1 3360   1.526   3.693   4.614
 1113SOL    HW2 3361   1.559   3.623   4.758
 1114SOL     OW 3362   1.674   2.745   4.978
 1114SOL    HW1 3363   1.647   2.656   4.941
 1114SOL    HW2 3364   1.675   2.813   4.905
 1115SOL     OW 3365   1.225   2.187   4.173
 1115SOL    HW1 3366   1.290   2.113   4.162
 1115SOL    HW2 3367   1.245   2.237   4.257
 1116SOL     OW 3368   0.594   2.607   4.376
 1116SOL    HW1 3369   0.644   2.692   4.357
 1116SOL    HW2 3370   0.506   2.609   4.328
 1117SOL     OW 3371   1.730   2.796   5.241
 1117SOL    HW1 3372   1.768   2.887   5.256
 1117SOL    HW2 3373   1.722   2.779   5.142
 1118SOL     OW 3374   0.859   3.236   3.740
 1118SOL    HW1 3375   0.813   3.251   3.828
 1118SOL    HW2 3376   0.903   3.321   3.710
 1119SOL     OW 3377   0.661   3.652   4.677
 1119SOL    HW1 3378   0.615   3.740   4.664
 1119SOL    HW2 3379   0.760   3.664   4.670
 1120SOL     OW 3380   0.859   2.818   4.585
 1120SOL    HW1 3381   0.913   2.749   4.633
 1120SOL    HW2 3382   0.827   2.887   4.651
 1121SOL     OW 3383   1.083   2.846   3.811
 1121SOL    HW1 3384   1.060   2.899   3.729
 1121SOL    HW2 3385   1.164   2.790   3.792
 1122SOL     OW 3386   1.861   3.431   4.575
 1122SOL    HW1 3387   1.790   3.419   4.505
 1122SOL    HW2 3388   1.862   3.352   4.635
 1123SOL     OW 3389   0.079   3.102   4.377
 1123SOL    HW1 3390   0.078   3.055   4.465
 1123SOL    HW2 3391   0.161   3.074   4.326
 1124SOL     OW 3392   1.824   2.054   4.951
 1124SOL    HW1 3393   1.820   1.964   4.995
 1124SOL    HW2 3394   1.827   2.043   4.852
 1125SOL     OW 3395   0.428   2.286   4.244
 1125SOL    HW1 3396   0.458   2.214   4.182
 1125SOL    HW2 3397   0.389   2.246   4.327
 1126SOL     OW 3398   1.705   3.349   4.828
 1126SOL    HW1 3399   1.612   3.324   4.801
 1126SOL    HW2 3400   1.731   3.299   4.910
 1127SOL     OW 3401   0.812   3.448   4.411
 1127SOL    HW1 3402   0.844   3.458   4.317
 1127SOL    HW2 3403   0.733   3.386   4.413
 1128SOL     OW 3404   1.424   2.076   4.836
 1128SOL    HW1 3405   1.476   2.011   4.891
 1128SOL    HW2 3406   1.375   2.139   4.897
 1129SOL     OW 3407   1.001   1.896   4.878
 1129SOL    HW1 3408   0.938   1.824   4.847
 1129SOL    HW2 3409   1.094   1.860   4.878
 1130SOL     OW 3410   0.770   3.192   4.025
 1130SOL    HW1 3411   0.724   3.105   4.042
 1130SOL    HW2 3412   0.861   3.189   4.066
 1131SOL     OW 3413   1.352   1.914   3.892
 1131SOL    HW1 3414   1.387   1.873   3.808
 1131SOL    HW2 3415   1.262   1.876   3.912
 1132SOL     OW 3416   1.300   2.315   4.415
 1132SOL    HW1 3417   1.241   2.395   4.419
 1132SOL    HW2 3418   1.315   2.280   4.508
 1133SOL     OW 3419   1.593   2.083   4.606
 1133SOL    HW1 3420   1.509   2.082   4.660
 1133SOL    HW2 3421   1.595   2.166   4.550
 1134SOL     OW 3422   0.039   2.939   4.024
 1134SOL    HW1 3423   0.138   2.928   4.015
 1134SOL    HW2 3424  -0.001   2.853   4.056
 1135SOL     OW 3425   0.875   3.508   4.061
 1135SOL    HW1 3426   0.798   3.473   4.007
 1135SOL    HW2 3427   0.843   3.579   4.123
 1136SOL     OW 3428   0.230   4.352   0.113
 1136SOL    HW1 3429   0.137   4.350   0.150
 1136SOL    HW2 3430   0.231   4.313   0.021
 1137SOL     OW 3431   0.225   3.999   0.996
 1137SOL    HW1 3432   0.260   3.982   1.088
 1137SOL    HW2 3433   0.137   3.954   0.984
 1138SOL     OW 3434   0.019   4.092   0.647
 1138SOL    HW1 3435  -0.063   4.135   0.686
 1138SOL    HW2 3436  -0.009   4.019   0.584
 1139SOL     OW 3437   1.135   4.427   0.717
 1139SOL    HW1 3438   1.192   4.505   0.692
 1139SOL    HW2 3439   1.075   4.453   0.793
 1140SOL     OW 3440   1.755   4.331   0.231
 1140SOL    HW1 3441   1.743   4.318   0.132
 1140SOL    HW2 3442   1.725   4.250   0.280
 1141SOL     OW 3443   0.768   4.868   1.023
 1141SOL    HW1 3444   0.690   4.885   1.083
 1141SOL    HW2 3445   0.802   4.955   0.987
 1142SOL     OW 3446   0.850   4.522   1.823
 1142SOL    HW1 3447   0.846   4.598   1.888
 1142SOL    HW2 3448   0.872   4.558   1.732
 1143SOL     OW 3449   0.685   4.736   0.665
 1143SOL    HW1 3450   0.754   4.720   0.735
 1143SOL    HW2 3451   0.612   4.793   0.703
 1144SOL     OW 3452   0.686   4.885   1.803
 1144SOL    HW1 3453   0.746   4.964   1.817
 1144SOL    HW2 3454   0.600   4.916   1.762
 1145SOL     OW 3455   0.438   4.116   1.499
 1145SOL    HW1 3456   0.520   4.060   1.508
 1145SOL    HW2 3457   0.357   4.058   1.503
 1146SOL     OW 3458   1.603   4.171   0.737
 1146SOL    HW1 3459   1.529   4.217   0.687
 1146SOL    HW2 3460   1.654   4.239   0.790
 1147SOL     OW 3461   0.240   4.815   0.886
 1147SOL    HW1 3462   0.254   4.731   0.938
 1147SOL    HW2 3463   0.185   4.879   0.941
 1148SOL     OW 3464   0.606   4.688   0.123
 1148SOL    HW1 3465   0.613   4.772   0.069
 1148SOL    HW2 3466   0.652   4.701   0.211
 1149SOL     OW 3467   1.594   3.838   1.480
 1149SOL    HW1 3468   1.576   3.905   1.408
 1149SOL    HW2 3469   1.591   3.884   1.569
 1150SOL     OW 3470   0.122   4.367   0.563
 1150SOL    HW1 3471   0.077   4.279   0.580
 1150SOL    HW2 3472   0.121   4.421   0.647
 1151SOL     OW 3473   1.689   4.646   0.612
 1151SOL    HW1 3474   1.784   4.617   0.620
 1151SOL    HW2 3475   1.681   4.711   0.537
 1152SOL     OW 3476   1.641   4.832   0.432
 1152SOL    HW1 3477   1.727   4.834   0.380
 1152SOL    HW2 3478   1.655   4.879   0.520
 1153SOL     OW 3479   0.113   4.461   1.597
 1153SOL    HW1 3480   0.201   4.448   1.642
 1153SOL    HW2 3481   0.100   4.558   1.575
 1154SOL     OW 3482   0.613   5.089   0.726
 1154SOL    HW1 3483   0.564   5.002   0.735
 1154SOL    HW2 3484   0.590   5.132   0.639
 1155SOL     OW 3485   1.293   4.952   1.423
 1155SOL    HW1 3486   1.330   4.879   1.365
 1155SOL    HW2 3487   1.345   4.957   1.508
 1156SOL     OW 3488   0.809   3.728   0.502
 1156SOL    HW1 3489   0.849   3.819   0.493
 1156SOL    HW2 3490   0.709   3.736   0.508
 1157SOL     OW 3491   0.197   4.700   1.264
 1157SOL    HW1 3492   0.286   4.655   1.250
 1157SOL    HW2 3493   0.124   4.635   1.245
 1158SOL     OW 3494   1.525   4.723   0.190
 1158SOL    HW1 3495   1.462   4.647   0.203
 1158SOL    HW2 3496   1.573   4.741   0.276
 1159SOL     OW 3497   0.317   3.975   1.801
 1159SOL    HW1 3498   0.388   4.046   1.807
 1159SOL    HW2 3499   0.229   4.014   1.829
 1160SOL     OW 3500   0.598   4.453   0.270
 1160SOL    HW1 3501   0.622   4.522   0.202
 1160SOL    HW2 3502   0.520   4.486   0.324
 1161SOL     OW 3503   1.281   4.069   0.944
 1161SOL    HW1 3504   1.195   4.019   0.931
 1161SOL    HW2 3505   1.343   4.015   1.000
 1162SOL     OW 3506   0.807   4.329   1.465
 1162SOL    HW1 3507   0.760   4.326   1.554
 1162SOL    HW2 3508   0.756   4.274   1.399
 1163SOL     OW 3509   1.394   4.193   1.674
 1163SOL    HW1 3510   1.374   4.236   1.762
 1163SOL    HW2 3511   1.472   4.131   1.683
 1164SOL     OW 3512   0.973   4.614   1.572
 1164SOL    HW1 3513   1.019   4.530   1.543
 1164SOL    HW2 3514   0.917   4.648   1.497
 1165SOL     OW 3515   0.991   4.134   1.242
 1165SOL    HW1 3516   0.914   4.168   1.296
 1165SOL    HW2 3517   0.957   4.083   1.163
 1166SOL     OW 3518   1.041   4.425   0.429
 1166SOL    HW1 3519   1.067   4.421   0.525
 1166SOL    HW2 3520   0.956   4.374   0.415
 1167SOL     OW 3521   0.076   4.535   0.789
 1167SOL    HW1 3522   0.175   4.523   0.798
 1167SOL    HW2 3523   0.052   4.630   0.810
 1168SOL     OW 3524   0.865   4.072   0.195
 1168SOL    HW1 3525   0.924   4.135   0.146
 1168SOL    HW2 3526   0.884   3.978   0.166
 1169SOL     OW 3527   1.719   4.309   1.831
 1169SOL    HW1 3528   1.693   4.398   1.795
 1169SOL    HW2 3529   1.717   4.241   1.758
 1170SOL     OW 3530   1.362   4.868   0.545
 1170SOL    HW1 3531   1.445   4.839   0.497
 1170SOL    HW2 3532   1.313   4.935   0.489
 1171SOL     OW 3533   0.550   3.920   0.885
 1171SOL    HW1 3534   0.545   3.915   0.985
 1171SOL    HW2 3535   0.552   4.016   0.856
 1172SOL     OW 3536   1.795   4.790   0.873
 1172SOL    HW1 3537   1.733   4.775   0.797
 1172SOL    HW2 3538   1.743   4.801   0.958
 1173SOL     OW 3539   0.321   4.667   0.242
 1173SOL    HW1 3540   0.403   4.706   0.200
 1173SOL    HW2 3541   0.294   4.585   0.193
 1174SOL     OW 3542   1.458   4.459   0.728
 1174SOL    HW1 3543   1.453   4.394   0.803
 1174SOL    HW2 3544   1.538   4.518   0.741
 1175SOL     OW 3545   0.202   4.009   1.498
 1175SOL    HW1 3546   0.122   4.069   1.485
 1175SOL    HW2 3547   0.192   3.960   1.584
 1176SOL     OW 3548   1.400   3.831   0.426
 1176SOL    HW1 3549   1.376   3.794   0.336
 1176SOL    HW2 3550   1.499   3.847   0.430
 1177SOL     OW 3551   0.382   4.424   0.480
 1177SOL    HW1 3552   0.427   4.334   0.477
 1177SOL    HW2 3553   0.288   4.413   0.513
 1178SOL     OW 3554   1.547   3.946   1.729
 1178SOL    HW1 3555   1.542   3.983   1.821
 1178SOL    HW2 3556   1.475   3.877   1.717
 1179SOL     OW 3557   0.614   3.846   0.117
 1179SOL    HW1 3558   0.712   3.824   0.124
 1179SOL    HW2 3559   0.583   3.829   0.024
 1180SOL     OW 3560   0.781   3.988   1.749
 1180SOL    HW1 3561   0.848   3.927   1.792
 1180SOL    HW2 3562   0.708   4.007   1.814
 1181SOL     OW 3563   1.351   4.314   1.433
 1181SOL    HW1 3564   1.379   4.271   1.518
 1181SOL    HW2 3565   1.376   4.410   1.434
 1182SOL     OW 3566   0.922   4.227   0.899
 1182SOL    HW1 3567   0.897   4.218   0.803
 1182SOL    HW2 3568   0.970   4.145   0.930
 1183SOL     OW 3569   0.539   3.788   0.512
 1183SOL    HW1 3570   0.458   3.789   0.570
 1183SOL    HW2 3571   0.542   3.871   0.457
 1184SOL     OW 3572   0.297   3.759   0.171
 1184SOL    HW1 3573   0.346   3.843   0.150
 1184SOL    HW2 3574   0.359   3.694   0.216
 1185SOL     OW 3575   0.935   3.960   0.480
 1185SOL    HW1 3576   0.887   4.001   0.402
 1185SOL    HW2 3577   1.034   3.958   0.461
 1186SOL     OW 3578   1.076   4.407   1.464
 1186SOL    HW1 3579   0.996   4.346   1.467
 1186SOL    HW2 3580   1.157   4.354   1.440
 1187SOL     OW 3581   0.459   4.876   0.741
 1187SOL    HW1 3582   0.388   4.849   0.806
 1187SOL    HW2 3583   0.433   4.848   0.648
 1188SOL     OW 3584   1.032   4.273   0.016
 1188SOL    HW1 3585   0.991   4.355  -0.023
 1188SOL    HW2 3586   1.096   4.299   0.089
 1189SOL     OW 3587   0.078   4.280   1.386
 1189SOL    HW1 3588   0.170   4.279   1.345
 1189SOL    HW2 3589   0.072   4.354   1.453
 1190SOL     OW 3590   0.561   3.946   1.147
 1190SOL    HW1 3591   0.599   3.862   1.184
 1190SOL    HW2 3592   0.473   3.965   1.191
 1191SOL     OW 3593   0.866   4.178   0.642
 1191SOL    HW1 3594   0.834   4.250   0.580
 1191SOL    HW2 3595   0.890   4.097   0.589
 1192SOL     OW 3596   1.017   3.763   0.753
 1192SOL    HW1 3597   0.945   3.768   0.684
 1192SOL    HW2 3598   0.993   3.694   0.822
 1193SOL     OW 3599   1.429   4.897   0.867
 1193SOL    HW1 3600   1.374   4.813   0.860
 1193SOL    HW2 3601   1.455   4.926   0.775
 1194SOL     OW 3602   1.466   4.314   0.992
 1194SOL    HW1 3603   1.436   4.219   0.999
 1194SOL    HW2 3604   1.539   4.330   1.058
 1195SOL     OW 3605   1.857   4.557   0.377
 1195SOL    HW1 3606   1.899   4.493   0.441
 1195SOL    HW2 3607   1.819   4.506   0.299
 1196SOL     OW 3608   1.390   4.299   0.078
 1196SOL    HW1 3609   1.336   4.278   0.159
 1196SOL    HW2 3610   1.481   4.258   0.087
 1197SOL     OW 3611   0.527   3.980   0.328
 1197SOL    HW1 3612   0.554   3.921   0.253
 1197SOL    HW2 3613   0.527   4.075   0.297
 1198SOL     OW 3614   1.754   4.947   1.588
 1198SOL    HW1 3615   1.845   4.908   1.575
 1198SOL    HW2 3616   1.762   5.043   1.612
 1199SOL     OW 3617   1.638   4.823   1.079
 1199SOL    HW1 3618   1.643   4.904   1.138
 1199SOL    HW2 3619   1.552   4.825   1.028
 1200SOL     OW 3620   0.915   3.813   1.402
 1200SOL    HW1 3621   0.940   3.793   1.307
 1200SOL    HW2 3622   0.987   3.869   1.444
 1201SOL     OW 3623   0.980   4.840   1.719
 1201SOL    HW1 3624   0.881   4.846   1.729
 1201SOL    HW2 3625   1.003   4.760   1.663
 1202SOL     OW 3626   0.705   4.774   0.368
 1202SOL    HW1 3627   0.691   4.781   0.467
 1202SOL    HW2 3628   0.789   4.723   0.350
 1203SOL     OW 3629   0.410   4.537   1.251
 1203SOL    HW1 3630   0.496   4.549   1.301
 1203SOL    HW2 3631   0.368   4.450   1.278
 1204SOL     OW 3632   1.274   4.110   1.262
 1204SOL    HW1 3633   1.295   4.184   1.326
 1204SOL    HW2 3634   1.185   4.127   1.219
 1205SOL     OW 3635   0.367   4.824   0.501
 1205SOL    HW1 3636   0.360   4.907   0.445
 1205SOL    HW2 3637   0.371   4.744   0.441
 1206SOL     OW 3638   0.566   4.261   0.865
 1206SOL    HW1 3639   0.578   4.327   0.791
 1206SOL    HW2 3640   0.612   4.295   0.948
 1207SOL     OW 3641   1.582   4.363   0.472
 1207SOL    HW1 3642   1.551   4.424   0.545
 1207SOL    HW2 3643   1.632   4.415   0.403
 1208SOL     OW 3644   0.402   4.475   1.598
 1208SOL    HW1 3645   0.470   4.530   1.551
 1208SOL    HW2 3646   0.442   4.387   1.625
 1209SOL     OW 3647   1.587   4.503   1.670
 1209SOL    HW1 3648   1.495   4.541   1.665
 1209SOL    HW2 3649   1.647   4.550   1.605
 1210SOL     OW 3650   1.013   3.829   1.770
 1210SOL    HW1 3651   1.019   3.914   1.718
 1210SOL    HW2 3652   1.045   3.753   1.713
 1211SOL     OW 3653   0.504   3.774   1.740
 1211SOL    HW1 3654   0.462   3.717   1.670
 1211SOL    HW2 3655   0.438   3.843   1.772
 1212SOL     OW 3656   0.573   4.594   1.029
 1212SOL    HW1 3657   0.617   4.683   1.020
 1212SOL    HW2 3658   0.510   4.594   1.106
 1213SOL     OW 3659   1.360   4.586   1.045
 1213SOL    HW1 3660   1.285   4.586   0.979
 1213SOL    HW2 3661   1.397   4.494   1.054
 1214SOL     OW 3662   1.209   4.249   0.275
 1214SOL    HW1 3663   1.222   4.165   0.329
 1214SOL    HW2 3664   1.180   4.323   0.335
 1215SOL     OW 3665   0.307   3.937   1.231
 1215SOL    HW1 3666   0.284   3.974   1.321
 1215SOL    HW2 3667   0.277   3.842   1.225
 1216SOL     OW 3668   0.037   5.034   1.282
 1216SOL    HW1 3669   0.090   4.985   1.350
 1216SOL    HW2 3670   0.059   5.132   1.287
 1217SOL     OW 3671   0.732   4.358   1.064
 1217SOL    HW1 3672   0.791   4.332   0.988
 1217SOL    HW2 3673   0.704   4.454   1.053
 1218SOL     OW 3674   1.728   4.659   1.854
 1218SOL    HW1 3675   1.682   4.652   1.765
 1218SOL    HW2 3676   1.666   4.703   1.920
 1219SOL     OW 3677   0.307   3.787   0.618
 1219SOL    HW1 3678   0.296   3.881   0.651
 1219SOL    HW2 3679   0.302   3.724   0.695
 1220SOL     OW 3680   1.622   4.091   0.374
 1220SOL    HW1 3681   1.624   4.015   0.438
 1220SOL    HW2 3682   1.574   4.168   0.414
 1221SOL     OW 3683   1.023   4.490   0.966
 1221SOL    HW1 3684   1.038   4.511   1.062
 1221SOL    HW2 3685   0.993   4.395   0.957
 1222SOL     OW 3686   0.350   4.622   1.804
 1222SOL    HW1 3687   0.426   4.666   1.852
 1222SOL    HW2 3688   0.385   4.575   1.722
 1223SOL     OW 3689   1.540   3.998   0.125
 1223SOL    HW1 3690   1.479   3.923   0.148
 1223SOL    HW2 3691   1.562   4.050   0.208
 1224SOL     OW 3692   1.303   4.562   0.042
 1224SOL    HW1 3693   1.337   4.469   0.057
 1224SOL    HW2 3694   1.321   4.589  -0.053
 1225SOL     OW 3695   0.319   4.534   0.949
 1225SOL    HW1 3696   0.412   4.570   0.954
 1225SOL    HW2 3697   0.313   4.449   1.001
 1226SOL     OW 3698   0.339   4.233   1.006
 1226SOL    HW1 3699   0.287   4.150   0.989
 1226SOL    HW2 3700   0.416   4.238   0.942
 1227SOL     OW 3701   1.138   4.104   1.678
 1227SOL    HW1 3702   1.093   4.167   1.742
 1227SOL    HW2 3703   1.231   4.135   1.661
 1228SOL     OW 3704   1.160   3.931   1.477
 1228SOL    HW1 3705   1.160   3.995   1.554
 1228SOL    HW2 3706   1.188   3.979   1.394
 1229SOL     OW 3707   1.002   4.520   1.238
 1229SOL    HW1 3708   1.043   4.488   1.324
 1229SOL    HW2 3709   0.906   4.493   1.235
 1230SOL     OW 3710   0.040   4.268   1.114
 1230SOL    HW1 3711   0.125   4.235   1.073
 1230SOL    HW2 3712   0.053   4.283   1.212
 1231SOL     OW 3713   0.189   4.244   1.722
 1231SOL    HW1 3714   0.248   4.204   1.652
 1231SOL    HW2 3715   0.131   4.315   1.681
 1232SOL     OW 3716   1.369   4.674   1.660
 1232SOL    HW1 3717   1.408   4.763   1.680
 1232SOL    HW2 3718   1.379   4.654   1.563
 1233SOL     OW 3719   0.815   4.296   0.325
 1233SOL    HW1 3720   0.822   4.207   0.279
 1233SOL    HW2 3721   0.721   4.330   0.317
 1234SOL     OW 3722   1.657   4.328   1.206
 1234SOL    HW1 3723   1.619   4.259   1.268
 1234SOL    HW2 3724   1.739   4.292   1.162
 1235SOL     OW 3725   0.671   4.188   1.269
 1235SOL    HW1 3726   0.637   4.099   1.239
 1235SOL    HW2 3727   0.697   4.242   1.189
 1236SOL     OW 3728   0.473   4.224   0.191
 1236SOL    HW1 3729   0.534   4.304   0.195
 1236SOL    HW2 3730   0.378   4.255   0.198
 1237SOL     OW 3731   0.159   4.861   1.466
 1237SOL    HW1 3732   0.181   4.800   1.542
 1237SOL    HW2 3733   0.169   4.812   1.380
 1238SOL     OW 3734   1.347   4.783   1.234
 1238SOL    HW1 3735   1.371   4.720   1.160
 1238SOL    HW2 3736   1.257   4.823   1.216
 1239SOL     OW 3737   1.302   4.579   0.309
 1239SOL    HW1 3738   1.216   4.548   0.351
 1239SOL    HW2 3739   1.298   4.565   0.210
 1240SOL     OW 3740   0.083   4.982   1.022
 1240SOL    HW1 3741   0.078   4.981   1.122
 1240SOL    HW2 3742   0.000   4.941   0.984
 1241SOL     OW 3743   0.903   3.810   0.133
 1241SOL    HW1 3744   0.954   3.811   0.047
 1241SOL    HW2 3745   0.959   3.768   0.204
 1242SOL     OW 3746   1.726   3.859   0.523
 1242SOL    HW1 3747   1.799   3.842   0.456
 1242SOL    HW2 3748   1.695   3.772   0.561
 1243SOL     OW 3749   1.280   4.651   0.672
 1243SOL    HW1 3750   1.340   4.570   0.674
 1243SOL    HW2 3751   1.320   4.720   0.612
 1244SOL     OW 3752   1.841   3.899   0.963
 1244SOL    HW1 3753   1.880   3.814   0.927
 1244SOL    HW2 3754   1.743   3.901   0.944
 1245SOL     OW 3755   0.263   4.050   0.720
 1245SOL    HW1 3756   0.184   4.101   0.686
 1245SOL    HW2 3757   0.254   4.035   0.818
 1246SOL     OW 3758   0.822   4.726   1.372
 1246SOL    HW1 3759   0.862   4.725   1.280
 1246SOL    HW2 3760   0.832   4.818   1.412
 1247SOL     OW 3761   0.916   4.634   0.291
 1247SOL    HW1 3762   0.979   4.672   0.223
 1247SOL    HW2 3763   0.956   4.551   0.330
 1248SOL     OW 3764   0.372   5.012   1.490
 1248SOL    HW1 3765   0.359   5.105   1.456
 1248SOL    HW2 3766   0.288   4.960   1.477
 1249SOL     OW 3767   1.614   5.016   1.289
 1249SOL    HW1 3768   1.674   5.019   1.369
 1249SOL    HW2 3769   1.539   5.080   1.302
 1250SOL     OW 3770   1.039   4.822   0.696
 1250SOL    HW1 3771   0.969   4.775   0.750
 1250SOL    HW2 3772   1.098   4.754   0.653
 1251SOL     OW 3773   1.014   3.960   0.971
 1251SOL    HW1 3774   1.006   3.924   0.878
 1251SOL    HW2 3775   1.012   3.884   1.036
 1252SOL     OW 3776   1.709   4.109   1.381
 1252SOL    HW1 3777   1.782   4.178   1.385
 1252SOL    HW2 3778   1.737   4.034   1.322
 1253SOL     OW 3779   0.105   4.737   1.726
 1253SOL    HW1 3780   0.028   4.704   1.780
 1253SOL    HW2 3781   0.190   4.707   1.768
 1254SOL     OW 3782   0.672   3.927   1.489
 1254SOL    HW1 3783   0.762   3.911   1.449
 1254SOL    HW2 3784   0.680   3.932   1.588
 1255SOL     OW 3785   0.075   4.069   0.033
 1255SOL    HW1 3786  -0.017   4.041   0.004
 1255SOL    HW2 3787   0.106   4.146  -0.023
 1256SOL     OW 3788   1.440   4.580   1.398
 1256SOL    HW1 3789   1.383   4.632   1.335
 1256SOL    HW2 3790   1.536   4.592   1.374
 1257SOL     OW 3791   0.072   3.890   0.318
 1257SOL    HW1 3792   0.055   3.973   0.264
 1257SOL    HW2 3793   0.162   3.853   0.296
 1258SOL     OW 3794   0.613   4.566   1.431
 1258SOL    HW1 3795   0.669   4.647   1.414
 1258SOL    HW2 3796   0.672   4.486   1.434
 1259SOL     OW 3797   0.716   4.289   1.708
 1259SOL    HW1 3798   0.735   4.354   1.782
 1259SOL    HW2 3799   0.776   4.209   1.717
 1260SOL     OW 3800   1.450   4.944   1.633
 1260SOL    HW1 3801   1.441   4.934   1.732
 1260SOL    HW2 3802   1.546   4.937   1.607
 1261SOL     OW 3803   1.674   4.607   1.254
 1261SOL    HW1 3804   1.647   4.518   1.217
 1261SOL    HW2 3805   1.675   4.675   1.181
 1262SOL     OW 3806   1.225   4.049   0.449
 1262SOL    HW1 3807   1.290   3.975   0.438
 1262SOL    HW2 3808   1.245   4.099   0.533
 1263SOL     OW 3809   0.594   4.469   0.652
 1263SOL    HW1 3810   0.644   4.554   0.633
 1263SOL    HW2 3811   0.506   4.471   0.604
 1264SOL     OW 3812   1.777   4.066   1.642
 1264SOL    HW1 3813   1.760   4.097   1.548
 1264SOL    HW2 3814   1.693   4.029   1.680
 1265SOL     OW 3815   1.730   4.658   1.517
 1265SOL    HW1 3816   1.768   4.749   1.532
 1265SOL    HW2 3817   1.722   4.641   1.418
 1266SOL     OW 3818   0.859   4.680   0.861
 1266SOL    HW1 3819   0.913   4.611   0.909
 1266SOL    HW2 3820   0.827   4.749   0.927
 1267SOL     OW 3821   1.083   4.708   0.087
 1267SOL    HW1 3822   1.060   4.761   0.005
 1267SOL    HW2 3823   1.164   4.652   0.068
 1268SOL     OW 3824   0.079   4.964   0.653
 1268SOL    HW1 3825   0.078   4.917   0.741
 1268SOL    HW2 3826   0.161   4.936   0.602
 1269SOL     OW 3827   1.824   3.916   1.227
 1269SOL    HW1 3828   1.820   3.826   1.271
 1269SOL    HW2 3829   1.827   3.905   1.128
 1270SOL     OW 3830   0.428   4.148   0.520
 1270SOL    HW1 3831   0.458   4.076   0.458
 1270SOL    HW2 3832   0.389   4.108   0.603
 1271SOL     OW 3833   0.317   4.271   1.280
 1271SOL    HW1 3834   0.355   4.212   1.352
 1271SOL    HW2 3835   0.357   4.245   1.192
 1272SOL     OW 3836   1.424   3.938   1.112
 1272SOL    HW1 3837   1.476   3.873   1.167
 1272SOL    HW2 3838   1.375   4.001   1.173
 1273SOL     OW 3839   1.001   3.758   1.154
 1273SOL    HW1 3840   0.938   3.686   1.123
 1273SOL    HW2 3841   1.094   3.722   1.154
 1274SOL     OW 3842   0.770   5.054   0.301
 1274SOL    HW1 3843   0.724   4.967   0.318
 1274SOL    HW2 3844   0.861   5.051   0.342
 1275SOL     OW 3845   1.352   3.776   0.168
 1275SOL    HW1 3846   1.387   3.735   0.084
 1275SOL    HW2 3847   1.262   3.738   0.188
 1276SOL     OW 3848   1.300   4.177   0.691
 1276SOL    HW1 3849   1.241   4.257   0.695
 1276SOL    HW2 3850   1.315   4.142   0.784
 1277SOL     OW 3851   1.593   3.945   0.882
 1277SOL    HW1 3852   1.509   3.944   0.936
 1277SOL    HW2 3853   1.595   4.028   0.826
 1278SOL     OW 3854   0.039   4.801   0.300
 1278SOL    HW1 3855   0.138   4.790   0.291
 1278SOL    HW2 3856  -0.001   4.715   0.332
 1279SOL     OW 3857   0.230   4.352   1.975
 1279SOL    HW1 3858   0.137   4.350   2.012
 1279SOL    HW2 3859   0.231   4.313   1.883
 1280SOL     OW 3860   0.225   3.999   2.858
 1280SOL    HW1 3861   0.260   3.982   2.950
 1280SOL    HW2 3862   0.137   3.954   2.846
 1281SOL     OW 3863   0.019   4.092   2.509
 1281SOL    HW1 3864  -0.063   4.135   2.548
 1281SOL    HW2 3865  -0.009   4.019   2.446
 1282SOL     OW 3866   1.135   4.427   2.579
 1282SOL    HW1 3867   1.192   4.505   2.554
 1282SOL    HW2 3868   1.075   4.453   2.655
 1283SOL     OW 3869   1.755   4.331   2.093
 1283SOL    HW1 3870   1.743   4.318   1.994
 1283SOL    HW2 3871   1.725   4.250   2.142
 1284SOL     OW 3872   0.768   4.868   2.885
 1284SOL    HW1 3873   0.690   4.885   2.945
 1284SOL    HW2 3874   0.802   4.955   2.849
 1285SOL     OW 3875   0.850   4.522   3.685
 1285SOL    HW1 3876   0.846   4.598   3.750
 1285SOL    HW2 3877   0.872   4.558   3.594
 1286SOL     OW 3878   0.685   4.736   2.527
 1286SOL    HW1 3879   0.754   4.720   2.597
 1286SOL    HW2 3880   0.612   4.793   2.565
 1287SOL     OW 3881   0.686   4.885   3.665
 1287SOL    HW1 3882   0.746   4.964   3.679
 1287SOL    HW2 3883   0.600   4.916   3.624
 1288SOL     OW 3884   0.438   4.116   3.361
 1288SOL    HW1 3885   0.520   4.060   3.370
 1288SOL    HW2 3886   0.357   4.058   3.365
 1289SOL     OW 3887   1.603   4.171   2.599
 1289SOL    HW1 3888   1.529   4.217   2.549
 1289SOL    HW2 3889   1.654   4.239   2.652
 1290SOL     OW 3890   0.240   4.815   2.748
 1290SOL    HW1 3891   0.254   4.731   2.800
 1290SOL    HW2 3892   0.185   4.879   2.803
 1291SOL     OW 3893   0.606   4.688   1.985
 1291SOL    HW1 3894   0.613   4.772   1.931
 1291SOL    HW2 3895   0.652   4.701   2.073
 1292SOL     OW 3896   1.594   3.838   3.342
 1292SOL    HW1 3897   1.576   3.905   3.270
 1292SOL    HW2 3898   1.591   3.884   3.431
 1293SOL     OW 3899   0.122   4.367   2.425
 1293SOL    HW1 3900   0.077   4.279   2.442
 1293SOL    HW2 3901   0.121   4.421   2.509
 1294SOL     OW 3902   1.689   4.646   2.474
 1294SOL    HW1 3903   1.784   4.617   2.482
 1294SOL    HW2 3904   1.681   4.711   2.399
 1295SOL     OW 3905   1.641   4.832   2.294
 1295SOL    HW1 3906   1.727   4.834   2.242
 1295SOL    HW2 3907   1.655   4.879   2.382
 1296SOL     OW 3908   0.113   4.461   3.459
 1296SOL    HW1 3909   0.201   4.448   3.504
 1296SOL    HW2 3910   0.100   4.558   3.437
 1297SOL     OW 3911   0.613   5.089   2.588
 1297SOL    HW1 3912   0.564   5.002   2.597
 1297SOL    HW2 3913   0.590   5.132   2.501
 1298SOL     OW 3914   1.293   4.952   3.285
 1298SOL    HW1 3915   1.330   4.879   3.227
 1298SOL    HW2 3916   1.345   4.957   3.370
 1299SOL     OW 3917   0.809   3.728   2.364
 1299SOL    HW1 3918   0.849   3.819   2.355
 1299SOL    HW2 3919   0.709   3.736   2.370
 1300SOL     OW 3920   0.197   4.700   3.126
 1300SOL    HW1 3921   0.286   4.655   3.112
 1300SOL    HW2 3922   0.124   4.635   3.107
 1301SOL     OW 3923   1.525   4.723   2.052
 1301SOL    HW1 3924   1.462   4.647   2.065
 1301SOL    HW2 3925   1.573   4.741   2.138
 1302SOL     OW 3926   0.317   3.975   3.663
 1302SOL    HW1 3927   0.388   4.046   3.669
 1302SOL    HW2 3928   0.229   4.014   3.691
 1303SOL     OW 3929   0.598   4.453   2.132
 1303SOL    HW1 3930   0.622   4.522   2.064
 1303SOL    HW2 3931   0.520   4.486   2.186
 1304SOL     OW 3932   1.281   4.069   2.806
 1304SOL    HW1 3933   1.195   4.019   2.793
 1304SOL    HW2 3934   1.343   4.015   2.862
 1305SOL     OW 3935   0.807   4.329   3.327
 1305SOL    HW1 3936   0.760   4.326   3.416
 1305SOL    HW2 3937   0.756   4.274   3.261
 1306SOL     OW 3938   1.394   4.193   3.536
 1306SOL    HW1 3939   1.374   4.236   3.624
 1306SOL    HW2 3940   1.472   4.131   3.545
 1307SOL     OW 3941   0.973   4.614   3.434
 1307SOL    HW1 3942   1.019   4.530   3.405
 1307SOL    HW2 3943   0.917   4.648   3.359
 1308SOL     OW 3944   0.991   4.134   3.104
 1308SOL    HW1 3945   0.914   4.168   3.158
 1308SOL    HW2 3946   0.957   4.083   3.025
 1309SOL     OW 3947   1.041   4.425   2.291
 1309SOL    HW1 3948   1.067   4.421   2.387
 1309SOL    HW2 3949   0.956   4.374   2.277
 1310SOL     OW 3950   0.076   4.535   2.651
 1310SOL    HW1 3951   0.175   4.523   2.660
 1310SOL    HW2 3952   0.052   4.630   2.672
 1311SOL     OW 3953   0.865   4.072   2.057
 1311SOL    HW1 3954   0.924   4.135   2.008
 1311SOL    HW2 3955   0.884   3.978   2.028
 1312SOL     OW 3956   1.719   4.309   3.693
 1312SOL    HW1 3957   1.693   4.398   3.657
 1312SOL    HW2 3958   1.717   4.241   3.620
 1313SOL     OW 3959   1.362   4.868   2.407
 1313SOL    HW1 3960   1.445   4.839   2.359
 1313SOL    HW2 3961   1.313   4.935   2.351
 1314SOL     OW 3962   0.550   3.920   2.747
 1314SOL    HW1 3963   0.545   3.915   2.847
 1314SOL    HW2 3964   0.552   4.016   2.718
 1315SOL     OW 3965   1.795   4.790   2.735
 1315SOL    HW1 3966   1.733   4.775   2.659
 1315SOL    HW2 3967   1.743   4.801   2.820
 1316SOL     OW 3968   0.321   4.667   2.104
 1316SOL    HW1 3969   0.403   4.706   2.062
 1316SOL    HW2 3970   0.294   4.585   2.055
 1317SOL     OW 3971   1.458   4.459   2.590
 1317SOL    HW1 3972   1.453   4.394   2.665
 1317SOL    HW2 3973   1.538   4.518   2.603
 1318SOL     OW 3974   0.202   4.009   3.360
 1318SOL    HW1 3975   0.122   4.069   3.347
 1318SOL    HW2 3976   0.192   3.960   3.446
 1319SOL     OW 3977   1.400   3.831   2.288
 1319SOL    HW1 3978   1.376   3.794   2.198
 1319SOL    HW2 3979   1.499   3.847   2.292
 1320SOL     OW 3980   0.382   4.424   2.342
 1320SOL    HW1 3981   0.427   4.334   2.339
 1320SOL    HW2 3982   0.288   4.413   2.375
 1321SOL     OW 3983   1.547   3.946   3.591
 1321SOL    HW1 3984   1.542   3.983   3.683
 1321SOL    HW2 3985   1.475   3.877   3.579
 1322SOL     OW 3986   0.614   3.846   1.979
 1322SOL    HW1 3987   0.712   3.824   1.986
 1322SOL    HW2 3988   0.583   3.829   1.886
 1323SOL     OW 3989   0.781   3.988   3.611
 1323SOL    HW1 3990   0.848   3.927   3.654
 1323SOL    HW2 3991   0.708   4.007   3.676
 1324SOL     OW 3992   1.351   4.314   3.295
 1324SOL    HW1 3993   1.379   4.271   3.380
 1324SOL    HW2 3994   1.376   4.410   3.296
 1325SOL     OW 3995   0.922   4.227   2.761
 1325SOL    HW1 3996   0.897   4.218   2.665
 1325SOL    HW2 3997   0.970   4.145   2.792
 1326SOL     OW 3998   0.539   3.788   2.374
 1326SOL    HW1 3999   0.458   3.789   2.432
 1326SOL    HW2 4000   0.542   3.871   2.319
 1327SOL     OW 4001   0.297   3.759   2.033
 1327SOL    HW1 4002   0.346   3.843   2.012
 1327SOL    HW2 4003   0.359   3.694   2.078
 1328SOL     OW 4004   0.935   3.960   2.342
 1328SOL    HW1 4005   0.887   4.001   2.264
 1328SOL    HW2 4006   1.034   3.958   2.323
 1329SOL     OW 4007   1.076   4.407   3.326
 1329SOL    HW1 4008   0.996   4.346   3.329
 1329SOL    HW2 4009   1.157   4.354   3.302
 1330SOL     OW 4010   0.459   4.876   2.603
 1330SOL    HW1 4011   0.388   4.849   2.668
 1330SOL    HW2 4012   0.433   4.848   2.510
 1331SOL     OW 4013   1.032   4.273   1.878
 1331SOL    HW1 4014   0.991   4.355   1.839
 1331SOL    HW2 4015   1.096   4.299   1.951
 1332SOL     OW 4016   0.078   4.280   3.248
 1332SOL    HW1 4017   0.170   4.279   3.207
 1332SOL    HW2 4018   0.072   4.354   3.315
 1333SOL     OW 4019   0.561   3.946   3.009
 1333SOL    HW1 4020   0.599   3.862   3.046
 1333SOL    HW2 4021   0.473   3.965   3.053
 1334SOL     OW 4022   0.866   4.178   2.504
 1334SOL    HW1 4023   0.834   4.250   2.442
 1334SOL    HW2 4024   0.890   4.097   2.451
 1335SOL     OW 4025   1.017   3.763   2.615
 1335SOL    HW1 4026   0.945   3.768   2.546
 1335SOL    HW2 4027   0.993   3.694   2.684
 1336SOL     OW 4028   1.429   4.897   2.729
 1336SOL    HW1 4029   1.374   4.813   2.722
 1336SOL    HW2 4030   1.455   4.926   2.637
 1337SOL     OW 4031   1.466   4.314   2.854
 1337SOL    HW1 4032   1.436   4.219   2.861
 1337SOL    HW2 4033   1.539   4.330   2.920
 1338SOL     OW 4034   1.857   4.557   2.239
 1338SOL    HW1 4035   1.899   4.493   2.303
 1338SOL    HW2 4036   1.819   4.506   2.161
 1339SOL     OW 4037   1.390   4.299   1.940
 1339SOL    HW1 4038   1.336   4.278   2.021
 1339SOL    HW2 4039   1.481   4.258   1.949
 1340SOL     OW 4040   0.527   3.980   2.190
 1340SOL    HW1 4041   0.554   3.921   2.115
 1340SOL    HW2 4042   0.527   4.075   2.159
 1341SOL     OW 4043   1.754   4.947   3.450
 1341SOL    HW1 4044   1.845   4.908   3.437
 1341SOL    HW2 4045   1.762   5.043   3.474
 1342SOL     OW 4046   1.638   4.823   2.941
 1342SOL    HW1 4047   1.643   4.904   3.000
 1342SOL    HW2 4048   1.552   4.825   2.890
 1343SOL     OW 4049   0.915   3.813   3.264
 1343SOL    HW1 4050   0.940   3.793   3.169
 1343SOL    HW2 4051   0.987   3.869   3.306
 1344SOL     OW 4052   0.980   4.840   3.581
 1344SOL    HW1 4053   0.881   4.846   3.591
 1344SOL    HW2 4054   1.003   4.760   3.525
 1345SOL     OW 4055   0.705   4.774   2.230
 1345SOL    HW1 4056   0.691   4.781   2.329
 1345SOL    HW2 4057   0.789   4.723   2.212
 1346SOL     OW 4058   0.410   4.537   3.113
 1346SOL    HW1 4059   0.496   4.549   3.163
 1346SOL    HW2 4060   0.368   4.450   3.140
 1347SOL     OW 4061   1.274   4.110   3.124
 1347SOL    HW1 4062   1.295   4.184   3.188
 1347SOL    HW2 4063   1.185   4.127   3.081
 1348SOL     OW 4064   0.367   4.824   2.363
 1348SOL    HW1 4065   0.360   4.907   2.307
 1348SOL    HW2 4066   0.371   4.744   2.303
 1349SOL     OW 4067   0.566   4.261   2.727
 1349SOL    HW1 4068   0.578   4.327   2.653
 1349SOL    HW2 4069   0.612   4.295   2.810
 1350SOL     OW 4070   1.582   4.363   2.334
 1350SOL    HW1 4071   1.551   4.424   2.407
 1350SOL    HW2 4072   1.632   4.415   2.265
 1351SOL     OW 4073   0.402   4.475   3.460
 1351SOL    HW1 4074   0.470   4.530   3.413
 1351SOL    HW2 4075   0.442   4.387   3.487
 1352SOL     OW 4076   1.587   4.503   3.532
 1352SOL    HW1 4077   1.495   4.541   3.527
 1352SOL    HW2 4078   1.647   4.550   3.467
 1353SOL     OW 4079   1.013   3.829   3.632
 1353SOL    HW1 4080   1.019   3.914   3.580
 1353SOL    HW2 4081   1.045   3.753   3.575
 1354SOL     OW 4082   0.504   3.774   3.602
 1354SOL    HW1 4083   0.462   3.717   3.532
 1354SOL    HW2 4084   0.438   3.843   3.634
 1355SOL     OW 4085   0.573   4.594   2.891
 1355SOL    HW1 4086   0.617   4.683   2.882
 1355SOL    HW2 4087   0.510   4.594   2.968
 1356SOL     OW 4088   1.360   4.586   2.907
 1356SOL    HW1 4089   1.285   4.586   2.841
 1356SOL    HW2 4090   1.397   4.494   2.916
 1357SOL     OW 4091   1.209   4.249   2.137
 1357SOL    HW1 4092   1.222   4.165   2.191
 1357SOL    HW2 4093   1.180   4.323   2.197
 1358SOL     OW 4094   0.307   3.937   3.093
 1358SOL    HW1 4095   0.284   3.974   3.183
 1358SOL    HW2 4096   0.277   3.842   3.087
 1359SOL     OW 4097   0.037   5.034   3.144
 1359SOL    HW1 4098   0.090   4.985   3.212
 1359SOL    HW2 4099   0.059   5.132   3.149
 1360SOL     OW 4100   0.732   4.358   2.926
 1360SOL    HW1 4101   0.791   4.332   2.850
 1360SOL    HW2 4102   0.704   4.454   2.915
 1361SOL     OW 4103   1.728   4.659   3.716
 1361SOL    HW1 4104   1.682   4.652   3.627
 1361SOL    HW2 4105   1.666   4.703   3.782
 1362SOL     OW 4106   0.307   3.787   2.480
 1362SOL    HW1 4107   0.296   3.881   2.513
 1362SOL    HW2 4108   0.302   3.724   2.557
 1363SOL     OW 4109   1.622   4.091   2.236
 1363SOL    HW1 4110   1.624   4.015   2.300
 1363SOL    HW2 4111   1.574   4.168   2.276
 1364SOL     OW 4112   1.023   4.490   2.828
 1364SOL    HW1 4113   1.038   4.511   2.924
 1364SOL    HW2 4114   0.993   4.395   2.819
 1365SOL     OW 4115   0.350   4.622   3.666
 1365SOL    HW1 4116   0.426   4.666   3.714
 1365SOL    HW2 4117   0.385   4.575   3.584
 1366SOL     OW 4118   1.540   3.998   1.987
 1366SOL    HW1 4119   1.479   3.923   2.010
 1366SOL    HW2 4120   1.562   4.050   2.070
 1367SOL     OW 4121   1.303   4.562   1.904
 1367SOL    HW1 4122   1.337   4.469   1.919
 1367SOL    HW2 4123   1.321   4.589   1.809
 1368SOL     OW 4124   0.319   4.534   2.811
 1368SOL    HW1 4125   0.412   4.570   2.816
 1368SOL    HW2 4126   0.313   4.449   2.863
 1369SOL     OW 4127   0.339   4.233   2.868
 1369SOL    HW1 4128   0.287   4.150   2.851
 1369SOL    HW2 4129   0.416   4.238   2.804
 1370SOL     OW 4130   1.138   4.104   3.540
 1370SOL    HW1 4131   1.093   4.167   3.604
 1370SOL    HW2 4132   1.231   4.135   3.523
 1371SOL     OW 4133   1.160   3.931   3.339
 1371SOL    HW1 4134   1.160   3.995   3.416
 1371SOL    HW2 4135   1.188   3.979   3.256
 1372SOL     OW 4136   1.002   4.520   3.100
 1372SOL    HW1 4137   1.043   4.488   3.186
 1372SOL    HW2 4138   0.906   4.493   3.097
 1373SOL     OW 4139   0.040   4.268   2.976
 1373SOL    HW1 4140   0.125   4.235   2.935
 1373SOL    HW2 4141   0.053   4.283   3.074
 1374SOL     OW 4142   0.189   4.244   3.584
 1374SOL    HW1 4143   0.248   4.204   3.514
 1374SOL    HW2 4144   0.131   4.315   3.543
 1375SOL     OW 4145   1.369   4.674   3.522
 1375SOL    HW1 4146   1.408   4.763   3.542
 1375SOL    HW2 4147   1.379   4.654   3.425
 1376SOL     OW 4148   0.815   4.296   2.187
 1376SOL    HW1 4149   0.822   4.207   2.141
 1376SOL    HW2 4150   0.721   4.330   2.179
 1377SOL     OW 4151   1.657   4.328   3.068
 1377SOL    HW1 4152   1.619   4.259   3.130
 1377SOL    HW2 4153   1.739   4.292   3.024
 1378SOL     OW 4154   0.671   4.188   3.131
 1378SOL    HW1 4155   0.637   4.099   3.101
 1378SOL    HW2 4156   0.697   4.242   3.051
 1379SOL     OW 4157   0.473   4.224   2.053
 1379SOL    HW1 4158   0.534   4.304   2.057
 1379SOL    HW2 4159   0.378   4.255   2.060
 1380SOL     OW 4160   0.159   4.861   3.328
 1380SOL    HW1 4161   0.181   4.800   3.404
 1380SOL    HW2 4162   0.169   4.812   3.242
 1381SOL     OW 4163   1.347   4.783   3.096
 1381SOL    HW1 4164   1.371   4.720   3.022
 1381SOL    HW2 4165   1.257   4.823   3.078
 1382SOL     OW 4166   1.302   4.579   2.171
 1382SOL    HW1 4167   1.216   4.548   2.213
 1382SOL    HW2 4168   1.298   4.565   2.072
 1383SOL     OW 4169   0.083   4.982   2.884
 1383SOL    HW1 4170   0.078   4.981   2.984
 1383SOL    HW2 4171   0.000   4.941   2.846
 1384SOL     OW 4172   1.726   3.859   2.385
 1384SOL    HW1 4173   1.799   3.842   2.318
 1384SOL    HW2 4174   1.695   3.772   2.423
 1385SOL     OW 4175   1.280   4.651   2.534
 1385SOL    HW1 4176   1.340   4.570   2.536
 1385SOL    HW2 4177   1.320   4.720   2.474
 1386SOL     OW 4178   1.841   3.899   2.825
 1386SOL    HW1 4179   1.880   3.814   2.789
 1386SOL    HW2 4180   1.743   3.901   2.806
 1387SOL     OW 4181   0.263   4.050   2.582
 1387SOL    HW1 4182   0.184   4.101   2.548
 1387SOL    HW2 4183   0.254   4.035   2.680
 1388SOL     OW 4184   0.822   4.726   3.234
 1388SOL    HW1 4185   0.862   4.725   3.142
 1388SOL    HW2 4186   0.832   4.818   3.274
 1389SOL     OW 4187   0.916   4.634   2.153
 1389SOL    HW1 4188   0.979   4.672   2.085
 1389SOL    HW2 4189   0.956   4.551   2.192
 1390SOL     OW 4190   0.372   5.012   3.352
 1390SOL    HW1 4191   0.359   5.105   3.318
 1390SOL    HW2 4192   0.288   4.960   3.339
 1391SOL     OW 4193   1.614   5.016   3.151
 1391SOL    HW1 4194   1.674   5.019   3.231
 1391SOL    HW2 4195   1.539   5.080   3.164
 1392SOL     OW 4196   1.039   4.822   2.558
 1392SOL    HW1 4197   0.969   4.775   2.612
 1392SOL    HW2 4198   1.098   4.754   2.515
 1393SOL     OW 4199   1.014   3.960   2.833
 1393SOL    HW1 4200   1.006   3.924   2.740
 1393SOL    HW2 4201   1.012   3.884   2.898
 1394SOL     OW 4202   1.709   4.109   3.243
 1394SOL    HW1 4203   1.782   4.178   3.247
 1394SOL    HW2 4204   1.737   4.034   3.184
 1395SOL     OW 4205   0.105   4.737   3.588
 1395SOL    HW1 4206   0.028   4.704   3.642
 1395SOL    HW2 4207   0.190   4.707   3.630
 1396SOL     OW 4208   0.672   3.927   3.351
 1396SOL    HW1 4209   0.762   3.911   3.311
 1396SOL    HW2 4210   0.680   3.932   3.450
 1397SOL     OW 4211   0.075   4.069   1.895
 1397SOL    HW1 4212  -0.017   4.041   1.866
 1397SOL    HW2 4213   0.106   4.146   1.839
 1398SOL     OW 4214   1.440   4.580   3.260
 1398SOL    HW1 4215   1.383   4.632   3.197
 1398SOL    HW2 4216   1.536   4.592   3.236
 1399SOL     OW 4217   0.072   3.890   2.180
 1399SOL    HW1 4218   0.055   3.973   2.126
 1399SOL    HW2 4219   0.162   3.853   2.158
 1400SOL     OW 4220   0.613   4.566   3.293
 1400SOL    HW1 4221   0.669   4.647   3.276
 1400SOL    HW2 4222   0.672   4.486   3.296
 1401SOL     OW 4223   0.716   4.289   3.570
 1401SOL    HW1 4224   0.735   4.354   3.644
 1401SOL    HW2 4225   0.776   4.209   3.579
 1402SOL     OW 4226   1.450   4.944   3.495
 1402SOL    HW1 4227   1.441   4.934   3.594
 1402SOL    HW2 4228   1.546   4.937   3.469
 1403SOL     OW 4229   1.674   4.607   3.116
 1403SOL    HW1 4230   1.647   4.518   3.079
 1403SOL    HW2 4231   1.675   4.675   3.043
 1404SOL     OW 4232   1.225   4.049   2.311
 1404SOL    HW1 4233   1.290   3.975   2.300
 1404SOL    HW2 4234   1.245   4.099   2.395
 1405SOL     OW 4235   0.594   4.469   2.514
 1405SOL    HW1 4236   0.644   4.554   2.495
 1405SOL    HW2 4237   0.506   4.471   2.466
 1406SOL     OW 4238   1.777   4.066   3.504
 1406SOL    HW1 4239   1.760   4.097   3.410
 1406SOL    HW2 4240   1.693   4.029   3.542
 1407SOL     OW 4241   1.730   4.658   3.379
 1407SOL    HW1 4242   1.768   4.749   3.394
 1407SOL    HW2 4243   1.722   4.641   3.280
 1408SOL     OW 4244   0.859   4.680   2.723
 1408SOL    HW1 4245   0.913   4.611   2.771
 1408SOL    HW2 4246   0.827   4.749   2.789
 1409SOL     OW 4247   1.083   4.708   1.949
 1409SOL    HW1 4248   1.060   4.761   1.867
 1409SOL    HW2 4249   1.164   4.652   1.930
 1410SOL     OW 4250   0.079   4.964   2.515
 1410SOL    HW1 4251   0.078   4.917   2.603
 1410SOL    HW2 4252   0.161   4.936   2.464
 1411SOL     OW 4253   1.824   3.916   3.089
 1411SOL    HW1 4254   1.820   3.826   3.133
 1411SOL    HW2 4255   1.827   3.905   2.990
 1412SOL     OW 4256   0.428   4.148   2.382
 1412SOL    HW1 4257   0.458   4.076   2.320
 1412SOL    HW2 4258   0.389   4.108   2.465
 1413SOL     OW 4259   0.317   4.271   3.142
 1413SOL    HW1 4260   0.355   4.212   3.214
 1413SOL    HW2 4261   0.357   4.245   3.054
 1414SOL     OW 4262   1.424   3.938   2.974
 1414SOL    HW1 4263   1.476   3.873   3.029
 1414SOL    HW2 4264   1.375   4.001   3.035
 1415SOL     OW 4265   1.001   3.758   3.016
 1415SOL    HW1 4266   0.938   3.686   2.985
 1415SOL    HW2 4267   1.094   3.722   3.016
 1416SOL     OW 4268   0.770   5.054   2.163
 1416SOL    HW1 4269   0.724   4.967   2.180
 1416SOL    HW2 4270   0.861   5.051   2.204
 1417SOL     OW 4271   1.352   3.776   2.030
 1417SOL    HW1 4272   1.387   3.735   1.946
 1417SOL    HW2 4273   1.262   3.738   2.050
 1418SOL     OW 4274   1.300   4.177   2.553
 1418SOL    HW1 4275   1.241   4.257   2.557
 1418SOL    HW2 4276   1.315   4.142   2.646
 1419SOL     OW 4277   1.593   3.945   2.744
 1419SOL    HW1 4278   1.509   3.944   2.798
 1419SOL    HW2 4279   1.595   4.028   2.688
 1420SOL     OW 4280   0.039   4.801   2.162
 1420SOL    HW1 4281   0.138   4.790   2.153
 1420SOL    HW2 4282  -0.001   4.715   2.194
 1421SOL     OW 4283   0.230   4.352   3.837
 1421SOL    HW1 4284   0.137   4.350   3.874
 1421SOL    HW2 4285   0.231   4.313   3.745
 1422SOL     OW 4286   0.225   3.999   4.720
 1422SOL    HW1 4287   0.260   3.982   4.812
 1422SOL    HW2 4288   0.137   3.954   4.708
 1423SOL     OW 4289   0.019   4.092   4.371
 1423SOL    HW1 4290  -0.063   4.135   4.410
 1423SOL    HW2 4291  -0.009   4.019   4.308
 1424SOL     OW 4292   1.135   4.427   4.441
 1424SOL    HW1 4293   1.192   4.505   4.416
 1424SOL    HW2 4294   1.075   4.453   4.517
 1425SOL     OW 4295   1.755   4.331   3.955
 1425SOL    HW1 4296   1.743   4.318   3.856
 1425SOL    HW2 4297   1.725   4.250   4.004
 1426SOL     OW 4298   0.768   4.868   4.747
 1426SOL    HW1 4299   0.690   4.885   4.807
 1426SOL    HW2 4300   0.802   4.955   4.711
 1427SOL     OW 4301   0.685   4.736   4.389
 1427SOL    HW1 4302   0.754   4.720   4.459
 1427SOL    HW2 4303   0.612   4.793   4.427
 1428SOL     OW 4304   1.603   4.171   4.461
 1428SOL    HW1 4305   1.529   4.217   4.411
 1428SOL    HW2 4306   1.654   4.239   4.514
 1429SOL     OW 4307   0.240   4.815   4.610
 1429SOL    HW1 4308   0.254   4.731   4.662
 1429SOL    HW2 4309   0.185   4.879   4.665
 1430SOL     OW 4310   0.606   4.688   3.847
 1430SOL    HW1 4311   0.613   4.772   3.793
 1430SOL    HW2 4312   0.652   4.701   3.935
 1431SOL     OW 4313   0.122   4.367   4.287
 1431SOL    HW1 4314   0.077   4.279   4.304
 1431SOL    HW2 4315   0.121   4.421   4.371
 1432SOL     OW 4316   1.689   4.646   4.336
 1432SOL    HW1 4317   1.784   4.617   4.344
 1432SOL    HW2 4318   1.681   4.711   4.261
 1433SOL     OW 4319   1.641   4.832   4.156
 1433SOL    HW1 4320   1.727   4.834   4.104
 1433SOL    HW2 4321   1.655   4.879   4.244
 1434SOL     OW 4322   0.613   5.089   4.450
 1434SOL    HW1 4323   0.564   5.002   4.459
 1434SOL    HW2 4324   0.590   5.132   4.363
 1435SOL     OW 4325   0.809   3.728   4.226
 1435SOL    HW1 4326   0.849   3.819   4.217
 1435SOL    HW2 4327   0.709   3.736   4.232
 1436SOL     OW 4328   0.197   4.700   4.988
 1436SOL    HW1 4329   0.286   4.655   4.974
 1436SOL    HW2 4330   0.124   4.635   4.969
 1437SOL     OW 4331   1.525   4.723   3.914
 1437SOL    HW1 4332   1.462   4.647   3.927
 1437SOL    HW2 4333   1.573   4.741   4.000
 1438SOL     OW 4334   0.598   4.453   3.994
 1438SOL    HW1 4335   0.622   4.522   3.926
 1438SOL    HW2 4336   0.520   4.486   4.048
 1439SOL     OW 4337   1.281   4.069   4.668
 1439SOL    HW1 4338   1.195   4.019   4.655
 1439SOL    HW2 4339   1.343   4.015   4.724
 1440SOL     OW 4340   1.041   4.425   4.153
 1440SOL    HW1 4341   1.067   4.421   4.249
 1440SOL    HW2 4342   0.956   4.374   4.139
 1441SOL     OW 4343   0.076   4.535   4.513
 1441SOL    HW1 4344   0.175   4.523   4.522
 1441SOL    HW2 4345   0.052   4.630   4.534
 1442SOL     OW 4346   0.865   4.072   3.919
 1442SOL    HW1 4347   0.924   4.135   3.870
 1442SOL    HW2 4348   0.884   3.978   3.890
 1443SOL     OW 4349   1.362   4.868   4.269
 1443SOL    HW1 4350   1.445   4.839   4.221
 1443SOL    HW2 4351   1.313   4.935   4.213
 1444SOL     OW 4352   0.550   3.920   4.609
 1444SOL    HW1 4353   0.545   3.915   4.709
 1444SOL    HW2 4354   0.552   4.016   4.580
 1445SOL     OW 4355   1.795   4.790   4.597
 1445SOL    HW1 4356   1.733   4.775   4.521
 1445SOL    HW2 4357   1.743   4.801   4.682
 1446SOL     OW 4358   0.321   4.667   3.966
 1446SOL    HW1 4359   0.403   4.706   3.924
 1446SOL    HW2 4360   0.294   4.585   3.917
 1447SOL     OW 4361   1.458   4.459   4.452
 1447SOL    HW1 4362   1.453   4.394   4.527
 1447SOL    HW2 4363   1.538   4.518   4.465
 1448SOL     OW 4364   1.400   3.831   4.150
 1448SOL    HW1 4365   1.376   3.794   4.060
 1448SOL    HW2 4366   1.499   3.847   4.154
 1449SOL     OW 4367   0.382   4.424   4.204
 1449SOL    HW1 4368   0.427   4.334   4.201
 1449SOL    HW2 4369   0.288   4.413   4.237
 1450SOL     OW 4370   0.614   3.846   3.841
 1450SOL    HW1 4371   0.712   3.824   3.848
 1450SOL    HW2 4372   0.583   3.829   3.748
 1451SOL     OW 4373   0.922   4.227   4.623
 1451SOL    HW1 4374   0.897   4.218   4.527
 1451SOL    HW2 4375   0.970   4.145   4.654
 1452SOL     OW 4376   0.539   3.788   4.236
 1452SOL    HW1 4377   0.458   3.789   4.294
 1452SOL    HW2 4378   0.542   3.871   4.181
 1453SOL     OW 4379   0.297   3.759   3.895
 1453SOL    HW1 4380   0.346   3.843   3.874
 1453SOL    HW2 4381   0.359   3.694   3.940
 1454SOL     OW 4382   0.935   3.960   4.204
 1454SOL    HW1 4383   0.887   4.001   4.126
 1454SOL    HW2 4384   1.034   3.958   4.185
 1455SOL     OW 4385   0.459   4.876   4.465
 1455SOL    HW1 4386   0.388   4.849   4.530
 1455SOL    HW2 4387   0.433   4.848   4.372
 1456SOL     OW 4388   1.032   4.273   3.740
 1456SOL    HW1 4389   0.991   4.355   3.701
 1456SOL    HW2 4390   1.096   4.299   3.813
 1457SOL     OW 4391   0.866   4.178   4.366
 1457SOL    HW1 4392   0.834   4.250   4.304
 1457SOL    HW2 4393   0.890   4.097   4.313
 1458SOL     OW 4394   1.017   3.763   4.477
 1458SOL    HW1 4395   0.945   3.768   4.408
 1458SOL    HW2 4396   0.993   3.694   4.546
 1459SOL     OW 4397   1.429   4.897   4.591
 1459SOL    HW1 4398   1.374   4.813   4.584
 1459SOL    HW2 4399   1.455   4.926   4.499
 1460SOL     OW 4400   1.466   4.314   4.716
 1460SOL    HW1 4401   1.436   4.219   4.723
 1460SOL    HW2 4402   1.539   4.330   4.782
 1461SOL     OW 4403   1.857   4.557   4.101
 1461SOL    HW1 4404   1.899   4.493   4.165
 1461SOL    HW2 4405   1.819   4.506   4.023
 1462SOL     OW 4406   1.390   4.299   3.802
 1462SOL    HW1 4407   1.336   4.278   3.883
 1462SOL    HW2 4408   1.481   4.258   3.811
 1463SOL     OW 4409   0.527   3.980   4.052
 1463SOL    HW1 4410   0.554   3.921   3.977
 1463SOL    HW2 4411   0.527   4.075   4.021
 1464SOL     OW 4412   1.638   4.823   4.803
 1464SOL    HW1 4413   1.643   4.904   4.862
 1464SOL    HW2 4414   1.552   4.825   4.752
 1465SOL     OW 4415   0.705   4.774   4.092
 1465SOL    HW1 4416   0.691   4.781   4.191
 1465SOL    HW2 4417   0.789   4.723   4.074
 1466SOL     OW 4418   0.410   4.537   4.975
 1466SOL    HW1 4419   0.496   4.549   5.025
 1466SOL    HW2 4420   0.368   4.450   5.002
 1467SOL     OW 4421   0.367   4.824   4.225
 1467SOL    HW1 4422   0.360   4.907   4.169
 1467SOL    HW2 4423   0.371   4.744   4.165
 1468SOL     OW 4424   0.566   4.261   4.589
 1468SOL    HW1 4425   0.578   4.327   4.515
 1468SOL    HW2 4426   0.612   4.295   4.672
 1469SOL     OW 4427   1.582   4.363   4.196
 1469SOL    HW1 4428   1.551   4.424   4.269
 1469SOL    HW2 4429   1.632   4.415   4.127
 1470SOL     OW 4430   0.573   4.594   4.753
 1470SOL    HW1 4431   0.617   4.683   4.744
 1470SOL    HW2 4432   0.510   4.594   4.830
 1471SOL     OW 4433   1.360   4.586   4.769
 1471SOL    HW1 4434   1.285   4.586   4.703
 1471SOL    HW2 4435   1.397   4.494   4.778
 1472SOL     OW 4436   1.209   4.249   3.999
 1472SOL    HW1 4437   1.222   4.165   4.053
 1472SOL    HW2 4438   1.180   4.323   4.059
 1473SOL     OW 4439   0.307   3.937   4.955
 1473SOL    HW1 4440   0.284   3.974   5.045
 1473SOL    HW2 4441   0.277   3.842   4.949
 1474SOL     OW 4442   0.037   5.034   5.006
 1474SOL    HW1 4443   0.090   4.985   5.074
 1474SOL    HW2 4444   0.059   5.132   5.011
 1475SOL     OW 4445   0.732   4.358   4.788
 1475SOL    HW1 4446   0.791   4.332   4.712
 1475SOL    HW2 4447   0.704   4.454   4.777
 1476SOL     OW 4448   0.307   3.787   4.342
 1476SOL    HW1 4449   0.296   3.881   4.375
 1476SOL    HW2 4450   0.302   3.724   4.419
 1477SOL     OW 4451   1.622   4.091   4.098
 1477SOL    HW1 4452   1.624   4.015   4.162
 1477SOL    HW2 4453   1.574   4.168   4.138
 1478SOL     OW 4454   1.023   4.490   4.690
 1478SOL    HW1 4455   1.038   4.511   4.786
 1478SOL    HW2 4456   0.993   4.395   4.681
 1479SOL     OW 4457   1.540   3.998   3.849
 1479SOL    HW1 4458   1.479   3.923   3.872
 1479SOL    HW2 4459   1.562   4.050   3.932
 1480SOL     OW 4460   1.303   4.562   3.766
 1480SOL    HW1 4461   1.337   4.469   3.781
 1480SOL    HW2 4462   1.321   4.589   3.671
 1481SOL     OW 4463   0.319   4.534   4.673
 1481SOL    HW1 4464   0.412   4.570   4.678
 1481SOL    HW2 4465   0.313   4.449   4.725
 1482SOL     OW 4466   0.339   4.233   4.730
 1482SOL    HW1 4467   0.287   4.150   4.713
 1482SOL    HW2 4468   0.416   4.238   4.666
 1483SOL     OW 4469   1.160   3.931   5.201
 1483SOL    HW1 4470   1.160   3.995   5.278
 1483SOL    HW2 4471   1.188   3.979   5.118
 1484SOL     OW 4472   1.002   4.520   4.962
 1484SOL    HW1 4473   1.043   4.488   5.048
 1484SOL    HW2 4474   0.906   4.493   4.959
 1485SOL     OW 4475   0.040   4.268   4.838
 1485SOL    HW1 4476   0.125   4.235   4.797
 1485SOL    HW2 4477   0.053   4.283   4.936
 1486SOL     OW 4478   0.815   4.296   4.049
 1486SOL    HW1 4479   0.822   4.207   4.003
 1486SOL    HW2 4480   0.721   4.330   4.041
 1487SOL     OW 4481   1.657   4.328   4.930
 1487SOL    HW1 4482   1.619   4.259   4.992
 1487SOL    HW2 4483   1.739   4.292   4.886
 1488SOL     OW 4484   0.671   4.188   4.993
 1488SOL    HW1 4485   0.637   4.099   4.963
 1488SOL    HW2 4486   0.697   4.242   4.913
 1489SOL     OW 4487   0.473   4.224   3.915
 1489SOL    HW1 4488   0.534   4.304   3.919
 1489SOL    HW2 4489   0.378   4.255   3.922
 1490SOL     OW 4490   1.347   4.783   4.958
 1490SOL    HW1 4491   1.371   4.720   4.884
 1490SOL    HW2 4492   1.257   4.823   4.940
 1491SOL     OW 4493   1.302   4.579   4.033
 1491SOL    HW1 4494   1.216   4.548   4.075
 1491SOL    HW2 4495   1.298   4.565   3.934
 1492SOL     OW 4496   0.083   4.982   4.746
 1492SOL    HW1 4497   0.078   4.981   4.846
 1492SOL    HW2 4498   0.000   4.941   4.708
 1493SOL     OW 4499   1.726   3.859   4.247
 1493SOL    HW1 4500   1.799   3.842   4.180
 1493SOL    HW2 4501   1.695   3.772   4.285
 1494SOL     OW 4502   1.280   4.651   4.396
 1494SOL    HW1 4503   1.340   4.570   4.398
 1494SOL    HW2 4504   1.320   4.720   4.336
 1495SOL     OW 4505   1.841   3.899   4.687
 1495SOL    HW1 4506   1.880   3.814   4.651
 1495SOL    HW2 4507   1.743   3.901   4.668
 1496SOL     OW 4508   0.263   4.050   4.444
 1496SOL    HW1 4509   0.184   4.101   4.410
 1496SOL    HW2 4510   0.254   4.035   4.542
 1497SOL     OW 4511   0.822   4.726   5.096
 1497SOL    HW1 4512   0.862   4.725   5.004
 1497SOL    HW2 4513   0.832   4.818   5.136
 1498SOL     OW 4514   0.916   4.634   4.015
 1498SOL    HW1 4515   0.979   4.672   3.947
 1498SOL    HW2 4516   0.956   4.551   4.054
 1499SOL     OW 4517   1.614   5.016   5.013
 1499SOL    HW1 4518   1.674   5.019   5.093
 1499SOL    HW2 4519   1.539   5.080   5.026
 1500SOL     OW 4520   1.039   4.822   4.420
 1500SOL    HW1 4521   0.969   4.775   4.474
 1500SOL    HW2 4522   1.098   4.754   4.377
 1501SOL     OW 4523   1.014   3.960   4.695
 1501SOL    HW1 4524   1.006   3.924   4.602
 1501SOL    HW2 4525   1.012   3.884   4.760
 1502SOL     OW 4526   1.709   4.109   5.105
 1502SOL    HW1 4527   1.782   4.178   5.109
 1502SOL    HW2 4528   1.737   4.034   5.046
 1503SOL     OW 4529   0.075   4.069   3.757
 1503SOL    HW1 4530  -0.017   4.041   3.728
 1503SOL    HW2 4531   0.106   4.146   3.701
 1504SOL     OW 4532   0.072   3.890   4.042
 1504SOL    HW1 4533   0.055   3.973   3.988
 1504SOL    HW2 4534   0.162   3.853   4.020
 1505SOL     OW 4535   1.674   4.607   4.978
 1505SOL    HW1 4536   1.647   4.518   4.941
 1505SOL    HW2 4537   1.675   4.675   4.905
 1506SOL     OW 4538   1.225   4.049   4.173
 1506SOL    HW1 4539   1.290   3.975   4.162
 1506SOL    HW2 4540   1.245   4.099   4.257
 1507SOL     OW 4541   0.594   4.469   4.376
 1507SOL    HW1 4542   0.644   4.554   4.357
 1507SOL    HW2 4543   0.506   4.471   4.328
 1508SOL     OW 4544   1.730   4.658   5.241
 1508SOL    HW1 4545   1.768   4.749   5.256
 1508SOL    HW2 4546   1.722   4.641   5.142
 1509SOL     OW 4547   0.859   4.680   4.585
 1509SOL    HW1 4548   0.913   4.611   4.633
 1509SOL    HW2 4549   0.827   4.749   4.651
 1510SOL     OW 4550   1.083   4.708   3.811
 1510SOL    HW1 4551   1.060   4.761   3.729
 1510SOL    HW2 4552   1.164   4.652   3.792
 1511SOL     OW 4553   0.079   4.964   4.377
 1511SOL    HW1 4554   0.078   4.917   4.465
 1511SOL    HW2 4555   0.161   4.936   4.326
 1512SOL     OW 4556   1.824   3.916   4.951
 1512SOL    HW1 4557   1.820   3.826   4.995
 1512SOL    HW2 4558   1.827   3.905   4.852
 1513SOL     OW 4559   0.428   4.148   4.244
 1513SOL    HW1 4560   0.458   4.076   4.182
 1513SOL    HW2 4561   0.389   4.108   4.327
 1514SOL     OW 4562   1.424   3.938   4.836
 1514SOL    HW1 4563   1.476   3.873   4.891
 1514SOL    HW2 4564   1.375   4.001   4.897
 1515SOL     OW 4565   1.001   3.758   4.878
 1515SOL    HW1 4566   0.938   3.686   4.847
 1515SOL    HW2 4567   1.094   3.722   4.878
 1516SOL     OW 4568   0.770   5.054   4.025
 1516SOL    HW1 4569   0.724   4.967   4.042
 1516SOL    HW2 4570   0.861   5.051   4.066
 1517SOL     OW 4571   1.352   3.776   3.892
 1517SOL    HW1 4572   1.387   3.735   3.808
 1517SOL    HW2 4573   1.262   3.738   3.912
 1518SOL     OW 4574   1.300   4.177   4.415
 1518SOL    HW1 4575   1.241   4.257   4.419
 1518SOL    HW2 4576   1.315   4.142   4.508
 1519SOL     OW 4577   1.593   3.945   4.606
 1519SOL    HW1 4578   1.509   3.944   4.660
 1519SOL    HW2 4579   1.595   4.028   4.550
 1520SOL     OW 4580   0.039   4.801   4.024
 1520SOL    HW1 4581   0.138   4.790   4.015
 1520SOL    HW2 4582  -0.001   4.715   4.056
 1521SOL     OW 4583   2.092   0.628   0.113
 1521SOL    HW1 4584   1.999   0.626   0.150
 1521SOL    HW2 4585   2.093   0.589   0.021
 1522SOL     OW 4586   2.087   0.275   0.996
 1522SOL    HW1 4587   2.122   0.258   1.088
 1522SOL    HW2 4588   1.999   0.230   0.984
 1523SOL     OW 4589   1.881   0.368   0.647
 1523SOL    HW1 4590   1.799   0.411   0.686
 1523SOL    HW2 4591   1.853   0.295   0.584
 1524SOL     OW 4592   2.431   1.275   1.165
 1524SOL    HW1 4593   2.338   1.268   1.128
 1524SOL    HW2 4594   2.442   1.364   1.209
 1525SOL     OW 4595   3.417   1.511   0.703
 1525SOL    HW1 4596   3.360   1.495   0.784
 1525SOL    HW2 4597   3.358   1.521   0.623
 1526SOL     OW 4598   2.997   0.703   0.717
 1526SOL    HW1 4599   3.054   0.781   0.692
 1526SOL    HW2 4600   2.937   0.729   0.793
 1527SOL     OW 4601   3.617   0.607   0.231
 1527SOL    HW1 4602   3.605   0.594   0.132
 1527SOL    HW2 4603   3.587   0.526   0.280
 1528SOL     OW 4604   2.630   1.144   1.023
 1528SOL    HW1 4605   2.552   1.161   1.083
 1528SOL    HW2 4606   2.664   1.231   0.987
 1529SOL     OW 4607   2.712   0.798   1.823
 1529SOL    HW1 4608   2.708   0.874   1.888
 1529SOL    HW2 4609   2.734   0.834   1.732
 1530SOL     OW 4610   2.547   1.012   0.665
 1530SOL    HW1 4611   2.616   0.996   0.735
 1530SOL    HW2 4612   2.474   1.069   0.703
 1531SOL     OW 4613   2.548   1.161   1.803
 1531SOL    HW1 4614   2.608   1.240   1.817
 1531SOL    HW2 4615   2.462   1.192   1.762
 1532SOL     OW 4616   2.197   1.435   1.061
 1532SOL    HW1 4617   2.119   1.404   1.008
 1532SOL    HW2 4618   2.255   1.493   1.004
 1533SOL     OW 4619   3.322   1.505   1.339
 1533SOL    HW1 4620   3.346   1.599   1.365
 1533SOL    HW2 4621   3.306   1.451   1.421
 1534SOL     OW 4622   2.300   0.392   1.499
 1534SOL    HW1 4623   2.382   0.336   1.508
 1534SOL    HW2 4624   2.219   0.334   1.503
 1535SOL     OW 4625   3.465   0.447   0.737
 1535SOL    HW1 4626   3.391   0.493   0.687
 1535SOL    HW2 4627   3.516   0.515   0.790
 1536SOL     OW 4628   2.093   1.713   0.483
 1536SOL    HW1 4629   2.127   1.790   0.537
 1536SOL    HW2 4630   2.137   1.713   0.393
 1537SOL     OW 4631   2.989   1.341   1.690
 1537SOL    HW1 4632   3.036   1.341   1.778
 1537SOL    HW2 4633   2.941   1.254   1.679
 1538SOL     OW 4634   2.092   1.434   0.538
 1538SOL    HW1 4635   2.066   1.530   0.538
 1538SOL    HW2 4636   2.021   1.380   0.583
 1539SOL     OW 4637   2.102   1.091   0.886
 1539SOL    HW1 4638   2.116   1.007   0.938
 1539SOL    HW2 4639   2.047   1.155   0.941
 1540SOL     OW 4640   2.482   1.786   1.439
 1540SOL    HW1 4641   2.390   1.769   1.474
 1540SOL    HW2 4642   2.510   1.878   1.465
 1541SOL     OW 4643   2.468   0.964   0.123
 1541SOL    HW1 4644   2.475   1.048   0.069
 1541SOL    HW2 4645   2.514   0.977   0.211
 1542SOL     OW 4646   3.456   0.114   1.480
 1542SOL    HW1 4647   3.438   0.181   1.408
 1542SOL    HW2 4648   3.453   0.160   1.569
 1543SOL     OW 4649   1.984   0.643   0.563
 1543SOL    HW1 4650   1.939   0.555   0.580
 1543SOL    HW2 4651   1.983   0.697   0.647
 1544SOL     OW 4652   3.704   1.767   0.359
 1544SOL    HW1 4653   3.758   1.738   0.439
 1544SOL    HW2 4654   3.734   1.857   0.330
 1545SOL     OW 4655   1.889   1.596   0.117
 1545SOL    HW1 4656   1.870   1.500   0.138
 1545SOL    HW2 4657   1.856   1.654   0.192
 1546SOL     OW 4658   3.551   0.922   0.612
 1546SOL    HW1 4659   3.646   0.893   0.620
 1546SOL    HW2 4660   3.543   0.987   0.537
 1547SOL     OW 4661   3.503   1.108   0.432
 1547SOL    HW1 4662   3.589   1.110   0.380
 1547SOL    HW2 4663   3.517   1.155   0.520
 1548SOL     OW 4664   1.975   0.737   1.597
 1548SOL    HW1 4665   2.063   0.724   1.642
 1548SOL    HW2 4666   1.962   0.834   1.575
 1549SOL     OW 4667   2.475   1.365   0.726
 1549SOL    HW1 4668   2.426   1.278   0.735
 1549SOL    HW2 4669   2.452   1.408   0.639
 1550SOL     OW 4670   3.155   1.228   1.423
 1550SOL    HW1 4671   3.192   1.155   1.365
 1550SOL    HW2 4672   3.207   1.233   1.508
 1551SOL     OW 4673   2.671   0.004   0.502
 1551SOL    HW1 4674   2.711   0.095   0.493
 1551SOL    HW2 4675   2.571   0.012   0.508
 1552SOL     OW 4676   2.059   0.976   1.264
 1552SOL    HW1 4677   2.148   0.931   1.250
 1552SOL    HW2 4678   1.986   0.911   1.245
 1553SOL     OW 4679   3.387   0.999   0.190
 1553SOL    HW1 4680   3.324   0.923   0.203
 1553SOL    HW2 4681   3.435   1.017   0.276
 1554SOL     OW 4682   3.049   1.792   1.616
 1554SOL    HW1 4683   3.073   1.852   1.540
 1554SOL    HW2 4684   3.056   1.697   1.586
 1555SOL     OW 4685   2.179   0.251   1.801
 1555SOL    HW1 4686   2.250   0.322   1.807
 1555SOL    HW2 4687   2.091   0.290   1.829
 1556SOL     OW 4688   3.328   1.417   0.953
 1556SOL    HW1 4689   3.269   1.423   1.033
 1556SOL    HW2 4690   3.313   1.329   0.907
 1557SOL     OW 4691   3.529   1.714   0.572
 1557SOL    HW1 4692   3.488   1.691   0.484
 1557SOL    HW2 4693   3.511   1.640   0.637
 1558SOL     OW 4694   2.460   0.729   0.270
 1558SOL    HW1 4695   2.484   0.798   0.202
 1558SOL    HW2 4696   2.382   0.762   0.324
 1559SOL     OW 4697   3.143   0.345   0.944
 1559SOL    HW1 4698   3.057   0.295   0.931
 1559SOL    HW2 4699   3.205   0.291   1.000
 1560SOL     OW 4700   3.438   1.662   0.307
 1560SOL    HW1 4701   3.527   1.708   0.310
 1560SOL    HW2 4702   3.417   1.638   0.212
 1561SOL     OW 4703   2.669   0.605   1.465
 1561SOL    HW1 4704   2.622   0.602   1.554
 1561SOL    HW2 4705   2.618   0.550   1.399
 1562SOL     OW 4706   3.256   0.469   1.674
 1562SOL    HW1 4707   3.236   0.512   1.762
 1562SOL    HW2 4708   3.334   0.407   1.683
 1563SOL     OW 4709   2.835   0.890   1.572
 1563SOL    HW1 4710   2.881   0.806   1.543
 1563SOL    HW2 4711   2.779   0.924   1.497
 1564SOL     OW 4712   2.853   0.410   1.242
 1564SOL    HW1 4713   2.776   0.444   1.296
 1564SOL    HW2 4714   2.819   0.359   1.163
 1565SOL     OW 4715   2.903   0.701   0.429
 1565SOL    HW1 4716   2.929   0.697   0.525
 1565SOL    HW2 4717   2.818   0.650   0.415
 1566SOL     OW 4718   1.938   0.811   0.789
 1566SOL    HW1 4719   2.037   0.799   0.798
 1566SOL    HW2 4720   1.914   0.906   0.810
 1567SOL     OW 4721   1.992   1.821   1.571
 1567SOL    HW1 4722   1.982   1.806   1.670
 1567SOL    HW2 4723   1.906   1.857   1.535
 1568SOL     OW 4724   2.727   0.348   0.195
 1568SOL    HW1 4725   2.786   0.411   0.146
 1568SOL    HW2 4726   2.746   0.254   0.166
 1569SOL     OW 4727   3.581   0.585   1.831
 1569SOL    HW1 4728   3.555   0.674   1.795
 1569SOL    HW2 4729   3.579   0.517   1.758
 1570SOL     OW 4730   3.224   1.144   0.545
 1570SOL    HW1 4731   3.307   1.115   0.497
 1570SOL    HW2 4732   3.175   1.211   0.489
 1571SOL     OW 4733   2.412   0.196   0.885
 1571SOL    HW1 4734   2.407   0.191   0.985
 1571SOL    HW2 4735   2.414   0.292   0.856
 1572SOL     OW 4736   2.870   1.456   0.477
 1572SOL    HW1 4737   2.824   1.528   0.425
 1572SOL    HW2 4738   2.866   1.476   0.575
 1573SOL     OW 4739   2.213   1.801   0.853
 1573SOL    HW1 4740   2.263   1.715   0.859
 1573SOL    HW2 4741   2.278   1.878   0.850
 1574SOL     OW 4742   3.657   1.066   0.873
 1574SOL    HW1 4743   3.595   1.051   0.797
 1574SOL    HW2 4744   3.605   1.077   0.958
 1575SOL     OW 4745   3.089   1.550   1.506
 1575SOL    HW1 4746   3.095   1.473   1.570
 1575SOL    HW2 4747   3.037   1.524   1.426
 1576SOL     OW 4748   2.183   0.943   0.242
 1576SOL    HW1 4749   2.265   0.982   0.200
 1576SOL    HW2 4750   2.156   0.861   0.193
 1577SOL     OW 4751   3.320   0.735   0.728
 1577SOL    HW1 4752   3.315   0.670   0.803
 1577SOL    HW2 4753   3.400   0.794   0.741
 1578SOL     OW 4754   2.323   1.266   1.727
 1578SOL    HW1 4755   2.273   1.267   1.641
 1578SOL    HW2 4756   2.260   1.248   1.803
 1579SOL     OW 4757   2.973   1.776   0.237
 1579SOL    HW1 4758   2.913   1.714   0.287
 1579SOL    HW2 4759   3.004   1.732   0.152
 1580SOL     OW 4760   2.064   0.285   1.498
 1580SOL    HW1 4761   1.984   0.345   1.485
 1580SOL    HW2 4762   2.054   0.236   1.584
 1581SOL     OW 4763   3.494   1.377   0.081
 1581SOL    HW1 4764   3.462   1.471   0.071
 1581SOL    HW2 4765   3.418   1.314   0.069
 1582SOL     OW 4766   2.326   1.743   0.323
 1582SOL    HW1 4767   2.359   1.782   0.409
 1582SOL    HW2 4768   2.402   1.736   0.258
 1583SOL     OW 4769   3.262   0.107   0.426
 1583SOL    HW1 4770   3.238   0.070   0.336
 1583SOL    HW2 4771   3.361   0.123   0.430
 1584SOL     OW 4772   2.111   1.785   1.241
 1584SOL    HW1 4773   2.168   1.720   1.291
 1584SOL    HW2 4774   2.095   1.752   1.148
 1585SOL     OW 4775   2.802   1.698   0.904
 1585SOL    HW1 4776   2.882   1.641   0.925
 1585SOL    HW2 4777   2.753   1.658   0.827
 1586SOL     OW 4778   2.244   0.700   0.480
 1586SOL    HW1 4779   2.289   0.610   0.477
 1586SOL    HW2 4780   2.150   0.689   0.513
 1587SOL     OW 4781   3.409   0.222   1.729
 1587SOL    HW1 4782   3.404   0.259   1.821
 1587SOL    HW2 4783   3.337   0.153   1.717
 1588SOL     OW 4784   2.476   0.122   0.117
 1588SOL    HW1 4785   2.574   0.100   0.124
 1588SOL    HW2 4786   2.445   0.105   0.024
 1589SOL     OW 4787   2.643   0.264   1.749
 1589SOL    HW1 4788   2.710   0.203   1.792
 1589SOL    HW2 4789   2.570   0.283   1.814
 1590SOL     OW 4790   2.750   1.514   1.195
 1590SOL    HW1 4791   2.727   1.489   1.101
 1590SOL    HW2 4792   2.811   1.445   1.234
 1591SOL     OW 4793   3.213   0.590   1.433
 1591SOL    HW1 4794   3.241   0.547   1.518
 1591SOL    HW2 4795   3.238   0.686   1.434
 1592SOL     OW 4796   2.665   1.402   0.924
 1592SOL    HW1 4797   2.755   1.416   0.882
 1592SOL    HW2 4798   2.594   1.404   0.853
 1593SOL     OW 4799   2.784   0.503   0.899
 1593SOL    HW1 4800   2.759   0.494   0.803
 1593SOL    HW2 4801   2.832   0.421   0.930
 1594SOL     OW 4802   2.401   0.064   0.512
 1594SOL    HW1 4803   2.320   0.065   0.570
 1594SOL    HW2 4804   2.404   0.147   0.457
 1595SOL     OW 4805   3.296   1.188   0.041
 1595SOL    HW1 4806   3.328   1.112   0.098
 1595SOL    HW2 4807   3.204   1.215   0.071
 1596SOL     OW 4808   2.159   0.035   0.171
 1596SOL    HW1 4809   2.208   0.119   0.150
 1596SOL    HW2 4810   2.221  -0.030   0.216
 1597SOL     OW 4811   2.797   0.236   0.480
 1597SOL    HW1 4812   2.749   0.277   0.402
 1597SOL    HW2 4813   2.896   0.234   0.461
 1598SOL     OW 4814   2.938   0.683   1.464
 1598SOL    HW1 4815   2.858   0.622   1.467
 1598SOL    HW2 4816   3.019   0.630   1.440
 1599SOL     OW 4817   3.089   1.570   0.793
 1599SOL    HW1 4818   3.110   1.644   0.728
 1599SOL    HW2 4819   3.157   1.570   0.866
 1600SOL     OW 4820   2.321   1.152   0.741
 1600SOL    HW1 4821   2.250   1.125   0.806
 1600SOL    HW2 4822   2.295   1.124   0.648
 1601SOL     OW 4823   3.133   1.797   0.591
 1601SOL    HW1 4824   3.177   1.861   0.527
 1601SOL    HW2 4825   3.083   1.849   0.661
 1602SOL     OW 4826   2.894   0.549   0.016
 1602SOL    HW1 4827   2.853   0.631  -0.023
 1602SOL    HW2 4828   2.958   0.575   0.089
 1603SOL     OW 4829   1.940   0.556   1.386
 1603SOL    HW1 4830   2.032   0.555   1.345
 1603SOL    HW2 4831   1.934   0.630   1.453
 1604SOL     OW 4832   2.423   0.222   1.147
 1604SOL    HW1 4833   2.461   0.138   1.184
 1604SOL    HW2 4834   2.335   0.241   1.191
 1605SOL     OW 4835   2.728   0.454   0.642
 1605SOL    HW1 4836   2.696   0.526   0.580
 1605SOL    HW2 4837   2.752   0.373   0.589
 1606SOL     OW 4838   2.879   0.039   0.753
 1606SOL    HW1 4839   2.807   0.044   0.684
 1606SOL    HW2 4840   2.855  -0.030   0.822
 1607SOL     OW 4841   3.291   1.173   0.867
 1607SOL    HW1 4842   3.236   1.089   0.860
 1607SOL    HW2 4843   3.317   1.202   0.775
 1608SOL     OW 4844   3.328   0.590   0.992
 1608SOL    HW1 4845   3.298   0.495   0.999
 1608SOL    HW2 4846   3.401   0.606   1.058
 1609SOL     OW 4847   3.719   0.833   0.377
 1609SOL    HW1 4848   3.761   0.769   0.441
 1609SOL    HW2 4849   3.681   0.782   0.299
 1610SOL     OW 4850   2.350   1.385   0.174
 1610SOL    HW1 4851   2.263   1.370   0.221
 1610SOL    HW2 4852   2.333   1.411   0.079
 1611SOL     OW 4853   3.526   1.280   0.657
 1611SOL    HW1 4854   3.625   1.288   0.671
 1611SOL    HW2 4855   3.481   1.364   0.688
 1612SOL     OW 4856   3.252   0.575   0.078
 1612SOL    HW1 4857   3.198   0.554   0.159
 1612SOL    HW2 4858   3.343   0.534   0.087
 1613SOL     OW 4859   2.389   0.256   0.328
 1613SOL    HW1 4860   2.416   0.197   0.253
 1613SOL    HW2 4861   2.389   0.351   0.297
 1614SOL     OW 4862   3.616   1.223   1.588
 1614SOL    HW1 4863   3.707   1.184   1.575
 1614SOL    HW2 4864   3.624   1.319   1.612
 1615SOL     OW 4865   2.926   1.347   1.340
 1615SOL    HW1 4866   2.846   1.324   1.395
 1615SOL    HW2 4867   3.009   1.321   1.389
 1616SOL     OW 4868   3.454   1.629   1.625
 1616SOL    HW1 4869   3.481   1.663   1.535
 1616SOL    HW2 4870   3.533   1.591   1.671
 1617SOL     OW 4871   2.973   1.195   1.100
 1617SOL    HW1 4872   2.933   1.239   1.181
 1617SOL    HW2 4873   2.932   1.232   1.017
 1618SOL     OW 4874   3.500   1.099   1.079
 1618SOL    HW1 4875   3.505   1.180   1.138
 1618SOL    HW2 4876   3.414   1.101   1.028
 1619SOL     OW 4877   2.777   0.089   1.402
 1619SOL    HW1 4878   2.802   0.069   1.307
 1619SOL    HW2 4879   2.849   0.145   1.444
 1620SOL     OW 4880   2.842   1.116   1.719
 1620SOL    HW1 4881   2.743   1.122   1.729
 1620SOL    HW2 4882   2.865   1.036   1.663
 1621SOL     OW 4883   2.567   1.050   0.368
 1621SOL    HW1 4884   2.553   1.057   0.467
 1621SOL    HW2 4885   2.651   0.999   0.350
 1622SOL     OW 4886   2.272   0.813   1.251
 1622SOL    HW1 4887   2.358   0.825   1.301
 1622SOL    HW2 4888   2.230   0.726   1.278
 1623SOL     OW 4889   3.136   0.386   1.262
 1623SOL    HW1 4890   3.157   0.460   1.326
 1623SOL    HW2 4891   3.047   0.403   1.219
 1624SOL     OW 4892   1.926   1.564   1.331
 1624SOL    HW1 4893   1.880   1.646   1.297
 1624SOL    HW2 4894   2.024   1.583   1.340
 1625SOL     OW 4895   2.229   1.100   0.501
 1625SOL    HW1 4896   2.222   1.183   0.445
 1625SOL    HW2 4897   2.233   1.020   0.441
 1626SOL     OW 4898   2.428   0.537   0.865
 1626SOL    HW1 4899   2.440   0.603   0.791
 1626SOL    HW2 4900   2.474   0.571   0.948
 1627SOL     OW 4901   3.114   1.348   0.388
 1627SOL    HW1 4902   3.164   1.425   0.428
 1627SOL    HW2 4903   3.019   1.350   0.420
 1628SOL     OW 4904   3.134   1.445   1.142
 1628SOL    HW1 4905   3.181   1.458   1.229
 1628SOL    HW2 4906   3.068   1.371   1.151
 1629SOL     OW 4907   3.444   0.639   0.472
 1629SOL    HW1 4908   3.413   0.700   0.545
 1629SOL    HW2 4909   3.494   0.691   0.403
 1630SOL     OW 4910   2.216   1.510   1.329
 1630SOL    HW1 4911   2.195   1.466   1.242
 1630SOL    HW2 4912   2.313   1.536   1.332
 1631SOL     OW 4913   2.264   0.751   1.598
 1631SOL    HW1 4914   2.332   0.806   1.551
 1631SOL    HW2 4915   2.304   0.663   1.625
 1632SOL     OW 4916   3.449   0.779   1.670
 1632SOL    HW1 4917   3.357   0.817   1.665
 1632SOL    HW2 4918   3.509   0.826   1.605
 1633SOL     OW 4919   2.875   0.105   1.770
 1633SOL    HW1 4920   2.881   0.190   1.718
 1633SOL    HW2 4921   2.907   0.029   1.713
 1634SOL     OW 4922   2.366   0.050   1.740
 1634SOL    HW1 4923   2.324  -0.007   1.670
 1634SOL    HW2 4924   2.300   0.119   1.772
 1635SOL     OW 4925   2.435   0.870   1.029
 1635SOL    HW1 4926   2.479   0.959   1.020
 1635SOL    HW2 4927   2.372   0.870   1.106
 1636SOL     OW 4928   3.222   0.862   1.045
 1636SOL    HW1 4929   3.147   0.862   0.979
 1636SOL    HW2 4930   3.259   0.770   1.054
 1637SOL     OW 4931   3.071   0.525   0.275
 1637SOL    HW1 4932   3.084   0.441   0.329
 1637SOL    HW2 4933   3.042   0.599   0.335
 1638SOL     OW 4934   2.169   0.213   1.231
 1638SOL    HW1 4935   2.146   0.250   1.321
 1638SOL    HW2 4936   2.139   0.118   1.225
 1639SOL     OW 4937   1.899   1.310   1.282
 1639SOL    HW1 4938   1.952   1.261   1.350
 1639SOL    HW2 4939   1.921   1.408   1.287
 1640SOL     OW 4940   2.594   0.634   1.064
 1640SOL    HW1 4941   2.653   0.608   0.988
 1640SOL    HW2 4942   2.566   0.730   1.053
 1641SOL     OW 4943   3.590   0.935   1.854
 1641SOL    HW1 4944   3.544   0.928   1.765
 1641SOL    HW2 4945   3.528   0.979   1.920
 1642SOL     OW 4946   2.169   0.063   0.618
 1642SOL    HW1 4947   2.158   0.157   0.651
 1642SOL    HW2 4948   2.164   0.000   0.695
 1643SOL     OW 4949   3.484   0.367   0.374
 1643SOL    HW1 4950   3.486   0.291   0.438
 1643SOL    HW2 4951   3.436   0.444   0.414
 1644SOL     OW 4952   2.885   0.766   0.966
 1644SOL    HW1 4953   2.900   0.787   1.062
 1644SOL    HW2 4954   2.855   0.671   0.957
 1645SOL     OW 4955   2.842   1.573   1.700
 1645SOL    HW1 4956   2.822   1.617   1.612
 1645SOL    HW2 4957   2.881   1.482   1.684
 1646SOL     OW 4958   3.721   1.518   1.605
 1646SOL    HW1 4959   3.735   1.545   1.510
 1646SOL    HW2 4960   3.804   1.540   1.658
 1647SOL     OW 4961   2.212   0.898   1.804
 1647SOL    HW1 4962   2.288   0.942   1.852
 1647SOL    HW2 4963   2.247   0.851   1.722
 1648SOL     OW 4964   3.402   0.274   0.125
 1648SOL    HW1 4965   3.341   0.199   0.148
 1648SOL    HW2 4966   3.424   0.326   0.208
 1649SOL     OW 4967   3.165   0.838   0.042
 1649SOL    HW1 4968   3.199   0.745   0.057
 1649SOL    HW2 4969   3.183   0.865  -0.053
 1650SOL     OW 4970   2.930   1.333   0.849
 1650SOL    HW1 4971   2.937   1.249   0.794
 1650SOL    HW2 4972   2.992   1.402   0.813
 1651SOL     OW 4973   2.181   0.810   0.949
 1651SOL    HW1 4974   2.274   0.846   0.954
 1651SOL    HW2 4975   2.175   0.725   1.001
 1652SOL     OW 4976   2.201   0.509   1.006
 1652SOL    HW1 4977   2.149   0.426   0.989
 1652SOL    HW2 4978   2.278   0.514   0.942
 1653SOL     OW 4979   3.000   0.380   1.678
 1653SOL    HW1 4980   2.955   0.443   1.742
 1653SOL    HW2 4981   3.093   0.411   1.661
 1654SOL     OW 4982   3.022   0.207   1.477
 1654SOL    HW1 4983   3.022   0.271   1.554
 1654SOL    HW2 4984   3.050   0.255   1.394
 1655SOL     OW 4985   1.870   1.326   0.200
 1655SOL    HW1 4986   1.777   1.347   0.169
 1655SOL    HW2 4987   1.880   1.227   0.213
 1656SOL     OW 4988   1.950   1.801   0.927
 1656SOL    HW1 4989   1.908   1.715   0.900
 1656SOL    HW2 4990   2.044   1.804   0.893
 1657SOL     OW 4991   2.366   1.568   0.910
 1657SOL    HW1 4992   2.432   1.642   0.919
 1657SOL    HW2 4993   2.410   1.489   0.868
 1658SOL     OW 4994   2.864   0.796   1.238
 1658SOL    HW1 4995   2.905   0.764   1.324
 1658SOL    HW2 4996   2.768   0.769   1.235
 1659SOL     OW 4997   1.902   0.544   1.114
 1659SOL    HW1 4998   1.987   0.511   1.073
 1659SOL    HW2 4999   1.915   0.559   1.212
 1660SOL     OW 5000   2.051   0.520   1.722
 1660SOL    HW1 5001   2.110   0.480   1.652
 1660SOL    HW2 5002   1.993   0.591   1.681
 1661SOL     OW 5003   3.231   0.950   1.660
 1661SOL    HW1 5004   3.270   1.039   1.680
 1661SOL    HW2 5005   3.241   0.930   1.563
 1662SOL     OW 5006   2.677   0.572   0.325
 1662SOL    HW1 5007   2.684   0.483   0.279
 1662SOL    HW2 5008   2.583   0.606   0.317
 1663SOL     OW 5009   3.519   0.604   1.206
 1663SOL    HW1 5010   3.481   0.535   1.268
 1663SOL    HW2 5011   3.601   0.568   1.162
 1664SOL     OW 5012   2.114   1.564   1.744
 1664SOL    HW1 5013   2.084   1.621   1.820
 1664SOL    HW2 5014   2.107   1.467   1.770
 1665SOL     OW 5015   2.533   0.464   1.269
 1665SOL    HW1 5016   2.499   0.375   1.239
 1665SOL    HW2 5017   2.559   0.518   1.189
 1666SOL     OW 5018   2.792   1.678   1.465
 1666SOL    HW1 5019   2.768   1.660   1.370
 1666SOL    HW2 5020   2.822   1.772   1.475
 1667SOL     OW 5021   2.335   0.500   0.191
 1667SOL    HW1 5022   2.396   0.580   0.195
 1667SOL    HW2 5023   2.240   0.531   0.198
 1668SOL     OW 5024   2.021   1.137   1.466
 1668SOL    HW1 5025   2.043   1.076   1.542
 1668SOL    HW2 5026   2.031   1.088   1.380
 1669SOL     OW 5027   3.209   1.059   1.234
 1669SOL    HW1 5028   3.233   0.996   1.160
 1669SOL    HW2 5029   3.119   1.099   1.216
 1670SOL     OW 5030   3.164   0.855   0.309
 1670SOL    HW1 5031   3.078   0.824   0.351
 1670SOL    HW2 5032   3.160   0.841   0.210
 1671SOL     OW 5033   3.621   1.747   1.154
 1671SOL    HW1 5034   3.682   1.777   1.081
 1671SOL    HW2 5035   3.583   1.658   1.132
 1672SOL     OW 5036   3.114   1.731   1.128
 1672SOL    HW1 5037   3.198   1.736   1.074
 1672SOL    HW2 5038   3.091   1.635   1.146
 1673SOL     OW 5039   1.945   1.258   1.022
 1673SOL    HW1 5040   1.940   1.257   1.122
 1673SOL    HW2 5041   1.862   1.217   0.984
 1674SOL     OW 5042   2.550   1.662   1.716
 1674SOL    HW1 5043   2.494   1.743   1.725
 1674SOL    HW2 5044   2.602   1.666   1.630
 1675SOL     OW 5045   2.765   0.086   0.133
 1675SOL    HW1 5046   2.816   0.087   0.047
 1675SOL    HW2 5047   2.821   0.044   0.204
 1676SOL     OW 5048   3.588   0.135   0.523
 1676SOL    HW1 5049   3.661   0.118   0.456
 1676SOL    HW2 5050   3.557   0.048   0.561
 1677SOL     OW 5051   3.250   1.573   0.477
 1677SOL    HW1 5052   3.317   1.585   0.403
 1677SOL    HW2 5053   3.210   1.662   0.500
 1678SOL     OW 5054   1.992   1.794   1.851
 1678SOL    HW1 5055   1.951   1.720   1.904
 1678SOL    HW2 5056   2.056   1.845   1.909
 1679SOL     OW 5057   3.142   0.927   0.672
 1679SOL    HW1 5058   3.202   0.846   0.674
 1679SOL    HW2 5059   3.182   0.996   0.612
 1680SOL     OW 5060   2.692   1.273   1.422
 1680SOL    HW1 5061   2.687   1.306   1.517
 1680SOL    HW2 5062   2.606   1.292   1.376
 1681SOL     OW 5063   2.534   1.616   0.154
 1681SOL    HW1 5064   2.543   1.626   0.055
 1681SOL    HW2 5065   2.494   1.527   0.175
 1682SOL     OW 5066   3.512   1.720   1.394
 1682SOL    HW1 5067   3.565   1.730   1.310
 1682SOL    HW2 5068   3.485   1.810   1.428
 1683SOL     OW 5069   3.703   0.175   0.963
 1683SOL    HW1 5070   3.742   0.090   0.927
 1683SOL    HW2 5071   3.605   0.177   0.944
 1684SOL     OW 5072   2.125   0.326   0.720
 1684SOL    HW1 5073   2.046   0.377   0.686
 1684SOL    HW2 5074   2.116   0.311   0.818
 1685SOL     OW 5075   3.056   1.612   0.031
 1685SOL    HW1 5076   3.062   1.519   0.068
 1685SOL    HW2 5077   2.997   1.612  -0.049
 1686SOL     OW 5078   2.684   1.002   1.372
 1686SOL    HW1 5079   2.724   1.001   1.280
 1686SOL    HW2 5080   2.694   1.094   1.412
 1687SOL     OW 5081   2.778   0.910   0.291
 1687SOL    HW1 5082   2.841   0.948   0.223
 1687SOL    HW2 5083   2.818   0.827   0.330
 1688SOL     OW 5084   3.366   1.607   0.044
 1688SOL    HW1 5085   3.274   1.644   0.051
 1688SOL    HW2 5086   3.404   1.627  -0.046
 1689SOL     OW 5087   2.234   1.288   1.490
 1689SOL    HW1 5088   2.221   1.381   1.456
 1689SOL    HW2 5089   2.150   1.236   1.477
 1690SOL     OW 5090   3.476   1.292   1.289
 1690SOL    HW1 5091   3.536   1.295   1.369
 1690SOL    HW2 5092   3.401   1.356   1.302
 1691SOL     OW 5093   2.901   1.098   0.696
 1691SOL    HW1 5094   2.831   1.051   0.750
 1691SOL    HW2 5095   2.960   1.030   0.653
 1692SOL     OW 5096   2.876   0.236   0.971
 1692SOL    HW1 5097   2.868   0.200   0.878
 1692SOL    HW2 5098   2.874   0.160   1.036
 1693SOL     OW 5099   2.452   1.487   0.491
 1693SOL    HW1 5100   2.494   1.429   0.421
 1693SOL    HW2 5101   2.408   1.566   0.447
 1694SOL     OW 5102   3.571   0.385   1.381
 1694SOL    HW1 5103   3.644   0.454   1.385
 1694SOL    HW2 5104   3.599   0.310   1.322
 1695SOL     OW 5105   2.117   1.348   0.290
 1695SOL    HW1 5106   2.021   1.349   0.263
 1695SOL    HW2 5107   2.129   1.401   0.374
 1696SOL     OW 5108   1.967   1.013   1.726
 1696SOL    HW1 5109   1.890   0.980   1.780
 1696SOL    HW2 5110   2.052   0.983   1.768
 1697SOL     OW 5111   2.534   0.203   1.489
 1697SOL    HW1 5112   2.624   0.187   1.449
 1697SOL    HW2 5113   2.542   0.208   1.588
 1698SOL     OW 5114   3.302   0.856   1.398
 1698SOL    HW1 5115   3.245   0.908   1.335
 1698SOL    HW2 5116   3.398   0.868   1.374
 1699SOL     OW 5117   1.934   0.166   0.318
 1699SOL    HW1 5118   1.917   0.249   0.264
 1699SOL    HW2 5119   2.024   0.129   0.296
 1700SOL     OW 5120   3.045   1.335   0.119
 1700SOL    HW1 5121   2.946   1.324   0.121
 1700SOL    HW2 5122   3.079   1.350   0.212
 1701SOL     OW 5123   2.475   0.842   1.431
 1701SOL    HW1 5124   2.531   0.923   1.414
 1701SOL    HW2 5125   2.534   0.762   1.434
 1702SOL     OW 5126   3.355   1.767   0.959
 1702SOL    HW1 5127   3.388   1.831   0.890
 1702SOL    HW2 5128   3.421   1.761   1.034
 1703SOL     OW 5129   2.578   0.565   1.708
 1703SOL    HW1 5130   2.597   0.630   1.782
 1703SOL    HW2 5131   2.638   0.485   1.717
 1704SOL     OW 5132   3.312   1.220   1.633
 1704SOL    HW1 5133   3.303   1.210   1.732
 1704SOL    HW2 5134   3.408   1.213   1.607
 1705SOL     OW 5135   2.252   1.741   1.560
 1705SOL    HW1 5136   2.161   1.782   1.558
 1705SOL    HW2 5137   2.245   1.647   1.592
 1706SOL     OW 5138   3.536   0.883   1.254
 1706SOL    HW1 5139   3.509   0.794   1.217
 1706SOL    HW2 5140   3.537   0.951   1.181
 1707SOL     OW 5141   3.087   0.325   0.449
 1707SOL    HW1 5142   3.152   0.251   0.438
 1707SOL    HW2 5143   3.107   0.375   0.533
 1708SOL     OW 5144   2.456   0.745   0.652
 1708SOL    HW1 5145   2.506   0.830   0.633
 1708SOL    HW2 5146   2.368   0.747   0.604
 1709SOL     OW 5147   3.639   0.342   1.642
 1709SOL    HW1 5148   3.622   0.373   1.548
 1709SOL    HW2 5149   3.555   0.305   1.680
 1710SOL     OW 5150   3.592   0.934   1.517
 1710SOL    HW1 5151   3.630   1.025   1.532
 1710SOL    HW2 5152   3.584   0.917   1.418
 1711SOL     OW 5153   2.721   1.374   0.016
 1711SOL    HW1 5154   2.675   1.389   0.104
 1711SOL    HW2 5155   2.765   1.459  -0.014
 1712SOL     OW 5156   2.523   1.790   0.953
 1712SOL    HW1 5157   2.477   1.878   0.940
 1712SOL    HW2 5158   2.622   1.802   0.946
 1713SOL     OW 5159   2.721   0.956   0.861
 1713SOL    HW1 5160   2.775   0.887   0.909
 1713SOL    HW2 5161   2.689   1.025   0.927
 1714SOL     OW 5162   2.945   0.984   0.087
 1714SOL    HW1 5163   2.922   1.037   0.005
 1714SOL    HW2 5164   3.026   0.928   0.068
 1715SOL     OW 5165   3.723   1.569   0.851
 1715SOL    HW1 5166   3.652   1.557   0.781
 1715SOL    HW2 5167   3.724   1.490   0.911
 1716SOL     OW 5168   2.083   1.314   1.844
 1716SOL    HW1 5169   2.018   1.241   1.823
 1716SOL    HW2 5170   2.087   1.328   1.942
 1717SOL     OW 5171   1.941   1.240   0.653
 1717SOL    HW1 5172   1.940   1.193   0.741
 1717SOL    HW2 5173   2.023   1.212   0.602
 1718SOL     OW 5174   2.534   1.391   1.624
 1718SOL    HW1 5175   2.456   1.341   1.662
 1718SOL    HW2 5176   2.531   1.486   1.655
 1719SOL     OW 5177   3.686   0.192   1.227
 1719SOL    HW1 5178   3.682   0.102   1.271
 1719SOL    HW2 5179   3.689   0.181   1.128
 1720SOL     OW 5180   2.290   0.424   0.520
 1720SOL    HW1 5181   2.320   0.352   0.458
 1720SOL    HW2 5182   2.251   0.384   0.603
 1721SOL     OW 5183   3.567   1.487   1.104
 1721SOL    HW1 5184   3.474   1.462   1.077
 1721SOL    HW2 5185   3.593   1.437   1.186
 1722SOL     OW 5186   2.179   0.547   1.280
 1722SOL    HW1 5187   2.217   0.488   1.352
 1722SOL    HW2 5188   2.219   0.521   1.192
 1723SOL     OW 5189   2.674   1.586   0.687
 1723SOL    HW1 5190   2.706   1.596   0.593
 1723SOL    HW2 5191   2.595   1.524   0.689
 1724SOL     OW 5192   3.286   0.214   1.112
 1724SOL    HW1 5193   3.338   0.149   1.167
 1724SOL    HW2 5194   3.237   0.277   1.173
 1725SOL     OW 5195   2.863   0.034   1.154
 1725SOL    HW1 5196   2.800  -0.038   1.123
 1725SOL    HW2 5197   2.956  -0.002   1.154
 1726SOL     OW 5198   2.632   1.330   0.301
 1726SOL    HW1 5199   2.586   1.243   0.318
 1726SOL    HW2 5200   2.723   1.327   0.342
 1727SOL     OW 5201   2.480   1.567   1.284
 1727SOL    HW1 5202   2.475   1.649   1.341
 1727SOL    HW2 5203   2.569   1.564   1.239
 1728SOL     OW 5204   3.214   0.052   0.168
 1728SOL    HW1 5205   3.249   0.011   0.084
 1728SOL    HW2 5206   3.124   0.014   0.188
 1729SOL     OW 5207   3.162   0.453   0.691
 1729SOL    HW1 5208   3.103   0.533   0.695
 1729SOL    HW2 5209   3.177   0.418   0.784
 1730SOL     OW 5210   3.455   0.221   0.882
 1730SOL    HW1 5211   3.371   0.220   0.936
 1730SOL    HW2 5212   3.457   0.304   0.826
 1731SOL     OW 5213   2.737   1.646   0.337
 1731SOL    HW1 5214   2.660   1.611   0.283
 1731SOL    HW2 5215   2.705   1.717   0.399
 1732SOL     OW 5216   2.092   0.628   1.975
 1732SOL    HW1 5217   1.999   0.626   2.012
 1732SOL    HW2 5218   2.093   0.589   1.883
 1733SOL     OW 5219   2.087   0.275   2.858
 1733SOL    HW1 5220   2.122   0.258   2.950
 1733SOL    HW2 5221   1.999   0.230   2.846
 1734SOL     OW 5222   1.881   0.368   2.509
 1734SOL    HW1 5223   1.799   0.411   2.548
 1734SOL    HW2 5224   1.853   0.295   2.446
 1735SOL     OW 5225   2.431   1.275   3.027
 1735SOL    HW1 5226   2.338   1.268   2.990
 1735SOL    HW2 5227   2.442   1.364   3.071
 1736SOL     OW 5228   3.417   1.511   2.565
 1736SOL    HW1 5229   3.360   1.495   2.646
 1736SOL    HW2 5230   3.358   1.521   2.485
 1737SOL     OW 5231   2.997   0.703   2.579
 1737SOL    HW1 5232   3.054   0.781   2.554
 1737SOL    HW2 5233   2.937   0.729   2.655
 1738SOL     OW 5234   3.617   0.607   2.093
 1738SOL    HW1 5235   3.605   0.594   1.994
 1738SOL    HW2 5236   3.587   0.526   2.142
 1739SOL     OW 5237   2.630   1.144   2.885
 1739SOL    HW1 5238   2.552   1.161   2.945
 1739SOL    HW2 5239   2.664   1.231   2.849
 1740SOL     OW 5240   2.712   0.798   3.685
 1740SOL    HW1 5241   2.708   0.874   3.750
 1740SOL    HW2 5242   2.734   0.834   3.594
 1741SOL     OW 5243   2.547   1.012   2.527
 1741SOL    HW1 5244   2.616   0.996   2.597
 1741SOL    HW2 5245   2.474   1.069   2.565
 1742SOL     OW 5246   2.548   1.161   3.665
 1742SOL    HW1 5247   2.608   1.240   3.679
 1742SOL    HW2 5248   2.462   1.192   3.624
 1743SOL     OW 5249   2.197   1.435   2.923
 1743SOL    HW1 5250   2.119   1.404   2.870
 1743SOL    HW2 5251   2.255   1.493   2.866
 1744SOL     OW 5252   3.322   1.505   3.201
 1744SOL    HW1 5253   3.346   1.599   3.227
 1744SOL    HW2 5254   3.306   1.451   3.283
 1745SOL     OW 5255   2.300   0.392   3.361
 1745SOL    HW1 5256   2.382   0.336   3.370
 1745SOL    HW2 5257   2.219   0.334   3.365
 1746SOL     OW 5258   3.465   0.447   2.599
 1746SOL    HW1 5259   3.391   0.493   2.549
 1746SOL    HW2 5260   3.516   0.515   2.652
 1747SOL     OW 5261   2.093   1.713   2.345
 1747SOL    HW1 5262   2.127   1.790   2.399
 1747SOL    HW2 5263   2.137   1.713   2.255
 1748SOL     OW 5264   2.989   1.341   3.552
 1748SOL    HW1 5265   3.036   1.341   3.640
 1748SOL    HW2 5266   2.941   1.254   3.541
 1749SOL     OW 5267   2.092   1.434   2.400
 1749SOL    HW1 5268   2.066   1.530   2.400
 1749SOL    HW2 5269   2.021   1.380   2.445
 1750SOL     OW 5270   2.102   1.091   2.748
 1750SOL    HW1 5271   2.116   1.007   2.800
 1750SOL    HW2 5272   2.047   1.155   2.803
 1751SOL     OW 5273   2.482   1.786   3.301
 1751SOL    HW1 5274   2.390   1.769   3.336
 1751SOL    HW2 5275   2.510   1.878   3.327
 1752SOL     OW 5276   2.468   0.964   1.985
 1752SOL    HW1 5277   2.475   1.048   1.931
 1752SOL    HW2 5278   2.514   0.977   2.073
 1753SOL     OW 5279   3.456   0.114   3.342
 1753SOL    HW1 5280   3.438   0.181   3.270
 1753SOL    HW2 5281   3.453   0.160   3.431
 1754SOL     OW 5282   1.984   0.643   2.425
 1754SOL    HW1 5283   1.939   0.555   2.442
 1754SOL    HW2 5284   1.983   0.697   2.509
 1755SOL     OW 5285   3.704   1.767   2.221
 1755SOL    HW1 5286   3.758   1.738   2.301
 1755SOL    HW2 5287   3.734   1.857   2.192
 1756SOL     OW 5288   1.889   1.596   1.979
 1756SOL    HW1 5289   1.870   1.500   2.000
 1756SOL    HW2 5290   1.856   1.654   2.054
 1757SOL     OW 5291   3.551   0.922   2.474
 1757SOL    HW1 5292   3.646   0.893   2.482
 1757SOL    HW2 5293   3.543   0.987   2.399
 1758SOL     OW 5294   3.503   1.108   2.294
 1758SOL    HW1 5295   3.589   1.110   2.242
 1758SOL    HW2 5296   3.517   1.155   2.382
 1759SOL     OW 5297   1.975   0.737   3.459
 1759SOL    HW1 5298   2.063   0.724   3.504
 1759SOL    HW2 5299   1.962   0.834   3.437
 1760SOL     OW 5300   2.475   1.365   2.588
 1760SOL    HW1 5301   2.426   1.278   2.597
 1760SOL    HW2 5302   2.452   1.408   2.501
 1761SOL     OW 5303   3.155   1.228   3.285
 1761SOL    HW1 5304   3.192   1.155   3.227
 1761SOL    HW2 5305   3.207   1.233   3.370
 1762SOL     OW 5306   2.671   0.004   2.364
 1762SOL    HW1 5307   2.711   0.095   2.355
 1762SOL    HW2 5308   2.571   0.012   2.370
 1763SOL     OW 5309   2.059   0.976   3.126
 1763SOL    HW1 5310   2.148   0.931   3.112
 1763SOL    HW2 5311   1.986   0.911   3.107
 1764SOL     OW 5312   3.387   0.999   2.052
 1764SOL    HW1 5313   3.324   0.923   2.065
 1764SOL    HW2 5314   3.435   1.017   2.138
 1765SOL     OW 5315   3.049   1.792   3.478
 1765SOL    HW1 5316   3.073   1.852   3.402
 1765SOL    HW2 5317   3.056   1.697   3.448
 1766SOL     OW 5318   2.179   0.251   3.663
 1766SOL    HW1 5319   2.250   0.322   3.669
 1766SOL    HW2 5320   2.091   0.290   3.691
 1767SOL     OW 5321   3.328   1.417   2.815
 1767SOL    HW1 5322   3.269   1.423   2.895
 1767SOL    HW2 5323   3.313   1.329   2.769
 1768SOL     OW 5324   3.529   1.714   2.434
 1768SOL    HW1 5325   3.488   1.691   2.346
 1768SOL    HW2 5326   3.511   1.640   2.499
 1769SOL     OW 5327   2.460   0.729   2.132
 1769SOL    HW1 5328   2.484   0.798   2.064
 1769SOL    HW2 5329   2.382   0.762   2.186
 1770SOL     OW 5330   3.143   0.345   2.806
 1770SOL    HW1 5331   3.057   0.295   2.793
 1770SOL    HW2 5332   3.205   0.291   2.862
 1771SOL     OW 5333   3.438   1.662   2.169
 1771SOL    HW1 5334   3.527   1.708   2.172
 1771SOL    HW2 5335   3.417   1.638   2.074
 1772SOL     OW 5336   2.669   0.605   3.327
 1772SOL    HW1 5337   2.622   0.602   3.416
 1772SOL    HW2 5338   2.618   0.550   3.261
 1773SOL     OW 5339   3.256   0.469   3.536
 1773SOL    HW1 5340   3.236   0.512   3.624
 1773SOL    HW2 5341   3.334   0.407   3.545
 1774SOL     OW 5342   2.835   0.890   3.434
 1774SOL    HW1 5343   2.881   0.806   3.405
 1774SOL    HW2 5344   2.779   0.924   3.359
 1775SOL     OW 5345   2.853   0.410   3.104
 1775SOL    HW1 5346   2.776   0.444   3.158
 1775SOL    HW2 5347   2.819   0.359   3.025
 1776SOL     OW 5348   2.903   0.701   2.291
 1776SOL    HW1 5349   2.929   0.697   2.387
 1776SOL    HW2 5350   2.818   0.650   2.277
 1777SOL     OW 5351   1.938   0.811   2.651
 1777SOL    HW1 5352   2.037   0.799   2.660
 1777SOL    HW2 5353   1.914   0.906   2.672
 1778SOL     OW 5354   1.992   1.821   3.433
 1778SOL    HW1 5355   1.982   1.806   3.532
 1778SOL    HW2 5356   1.906   1.857   3.397
 1779SOL     OW 5357   2.727   0.348   2.057
 1779SOL    HW1 5358   2.786   0.411   2.008
 1779SOL    HW2 5359   2.746   0.254   2.028
 1780SOL     OW 5360   3.581   0.585   3.693
 1780SOL    HW1 5361   3.555   0.674   3.657
 1780SOL    HW2 5362   3.579   0.517   3.620
 1781SOL     OW 5363   3.224   1.144   2.407
 1781SOL    HW1 5364   3.307   1.115   2.359
 1781SOL    HW2 5365   3.175   1.211   2.351
 1782SOL     OW 5366   2.412   0.196   2.747
 1782SOL    HW1 5367   2.407   0.191   2.847
 1782SOL    HW2 5368   2.414   0.292   2.718
 1783SOL     OW 5369   2.870   1.456   2.339
 1783SOL    HW1 5370   2.824   1.528   2.287
 1783SOL    HW2 5371   2.866   1.476   2.437
 1784SOL     OW 5372   2.213   1.801   2.715
 1784SOL    HW1 5373   2.263   1.715   2.721
 1784SOL    HW2 5374   2.278   1.878   2.712
 1785SOL     OW 5375   3.657   1.066   2.735
 1785SOL    HW1 5376   3.595   1.051   2.659
 1785SOL    HW2 5377   3.605   1.077   2.820
 1786SOL     OW 5378   3.089   1.550   3.368
 1786SOL    HW1 5379   3.095   1.473   3.432
 1786SOL    HW2 5380   3.037   1.524   3.288
 1787SOL     OW 5381   2.183   0.943   2.104
 1787SOL    HW1 5382   2.265   0.982   2.062
 1787SOL    HW2 5383   2.156   0.861   2.055
 1788SOL     OW 5384   3.320   0.735   2.590
 1788SOL    HW1 5385   3.315   0.670   2.665
 1788SOL    HW2 5386   3.400   0.794   2.603
 1789SOL     OW 5387   2.323   1.266   3.589
 1789SOL    HW1 5388   2.273   1.267   3.503
 1789SOL    HW2 5389   2.260   1.248   3.665
 1790SOL     OW 5390   2.973   1.776   2.099
 1790SOL    HW1 5391   2.913   1.714   2.149
 1790SOL    HW2 5392   3.004   1.732   2.014
 1791SOL     OW 5393   2.064   0.285   3.360
 1791SOL    HW1 5394   1.984   0.345   3.347
 1791SOL    HW2 5395   2.054   0.236   3.446
 1792SOL     OW 5396   3.494   1.377   1.943
 1792SOL    HW1 5397   3.462   1.471   1.933
 1792SOL    HW2 5398   3.418   1.314   1.931
 1793SOL     OW 5399   2.326   1.743   2.185
 1793SOL    HW1 5400   2.359   1.782   2.271
 1793SOL    HW2 5401   2.402   1.736   2.120
 1794SOL     OW 5402   3.262   0.107   2.288
 1794SOL    HW1 5403   3.238   0.070   2.198
 1794SOL    HW2 5404   3.361   0.123   2.292
 1795SOL     OW 5405   2.111   1.785   3.103
 1795SOL    HW1 5406   2.168   1.720   3.153
 1795SOL    HW2 5407   2.095   1.752   3.010
 1796SOL     OW 5408   2.802   1.698   2.766
 1796SOL    HW1 5409   2.882   1.641   2.787
 1796SOL    HW2 5410   2.753   1.658   2.689
 1797SOL     OW 5411   2.244   0.700   2.342
 1797SOL    HW1 5412   2.289   0.610   2.339
 1797SOL    HW2 5413   2.150   0.689   2.375
 1798SOL     OW 5414   3.409   0.222   3.591
 1798SOL    HW1 5415   3.404   0.259   3.683
 1798SOL    HW2 5416   3.337   0.153   3.579
 1799SOL     OW 5417   2.476   0.122   1.979
 1799SOL    HW1 5418   2.574   0.100   1.986
 1799SOL    HW2 5419   2.445   0.105   1.886
 1800SOL     OW 5420   2.643   0.264   3.611
 1800SOL    HW1 5421   2.710   0.203   3.654
 1800SOL    HW2 5422   2.570   0.283   3.676
 1801SOL     OW 5423   2.750   1.514   3.057
 1801SOL    HW1 5424   2.727   1.489   2.963
 1801SOL    HW2 5425   2.811   1.445   3.096
 1802SOL     OW 5426   3.213   0.590   3.295
 1802SOL    HW1 5427   3.241   0.547   3.380
 1802SOL    HW2 5428   3.238   0.686   3.296
 1803SOL     OW 5429   2.665   1.402   2.786
 1803SOL    HW1 5430   2.755   1.416   2.744
 1803SOL    HW2 5431   2.594   1.404   2.715
 1804SOL     OW 5432   2.784   0.503   2.761
 1804SOL    HW1 5433   2.759   0.494   2.665
 1804SOL    HW2 5434   2.832   0.421   2.792
 1805SOL     OW 5435   2.401   0.064   2.374
 1805SOL    HW1 5436   2.320   0.065   2.432
 1805SOL    HW2 5437   2.404   0.147   2.319
 1806SOL     OW 5438   3.296   1.188   1.903
 1806SOL    HW1 5439   3.328   1.112   1.960
 1806SOL    HW2 5440   3.204   1.215   1.933
 1807SOL     OW 5441   2.159   0.035   2.033
 1807SOL    HW1 5442   2.208   0.119   2.012
 1807SOL    HW2 5443   2.221  -0.030   2.078
 1808SOL     OW 5444   2.797   0.236   2.342
 1808SOL    HW1 5445   2.749   0.277   2.264
 1808SOL    HW2 5446   2.896   0.234   2.323
 1809SOL     OW 5447   2.938   0.683   3.326
 1809SOL    HW1 5448   2.858   0.622   3.329
 1809SOL    HW2 5449   3.019   0.630   3.302
 1810SOL     OW 5450   3.089   1.570   2.655
 1810SOL    HW1 5451   3.110   1.644   2.590
 1810SOL    HW2 5452   3.157   1.570   2.728
 1811SOL     OW 5453   2.321   1.152   2.603
 1811SOL    HW1 5454   2.250   1.125   2.668
 1811SOL    HW2 5455   2.295   1.124   2.510
 1812SOL     OW 5456   3.133   1.797   2.453
 1812SOL    HW1 5457   3.177   1.861   2.389
 1812SOL    HW2 5458   3.083   1.849   2.523
 1813SOL     OW 5459   2.894   0.549   1.878
 1813SOL    HW1 5460   2.853   0.631   1.839
 1813SOL    HW2 5461   2.958   0.575   1.951
 1814SOL     OW 5462   1.940   0.556   3.248
 1814SOL    HW1 5463   2.032   0.555   3.207
 1814SOL    HW2 5464   1.934   0.630   3.315
 1815SOL     OW 5465   2.423   0.222   3.009
 1815SOL    HW1 5466   2.461   0.138   3.046
 1815SOL    HW2 5467   2.335   0.241   3.053
 1816SOL     OW 5468   2.728   0.454   2.504
 1816SOL    HW1 5469   2.696   0.526   2.442
 1816SOL    HW2 5470   2.752   0.373   2.451
 1817SOL     OW 5471   2.879   0.039   2.615
 1817SOL    HW1 5472   2.807   0.044   2.546
 1817SOL    HW2 5473   2.855  -0.030   2.684
 1818SOL     OW 5474   3.291   1.173   2.729
 1818SOL    HW1 5475   3.236   1.089   2.722
 1818SOL    HW2 5476   3.317   1.202   2.637
 1819SOL     OW 5477   3.328   0.590   2.854
 1819SOL    HW1 5478   3.298   0.495   2.861
 1819SOL    HW2 5479   3.401   0.606   2.920
 1820SOL     OW 5480   3.719   0.833   2.239
 1820SOL    HW1 5481   3.761   0.769   2.303
 1820SOL    HW2 5482   3.681   0.782   2.161
 1821SOL     OW 5483   2.350   1.385   2.036
 1821SOL    HW1 5484   2.263   1.370   2.083
 1821SOL    HW2 5485   2.333   1.411   1.941
 1822SOL     OW 5486   3.526   1.280   2.519
 1822SOL    HW1 5487   3.625   1.288   2.533
 1822SOL    HW2 5488   3.481   1.364   2.550
 1823SOL     OW 5489   3.252   0.575   1.940
 1823SOL    HW1 5490   3.198   0.554   2.021
 1823SOL    HW2 5491   3.343   0.534   1.949
 1824SOL     OW 5492   2.389   0.256   2.190
 1824SOL    HW1 5493   2.416   0.197   2.115
 1824SOL    HW2 5494   2.389   0.351   2.159
 1825SOL     OW 5495   3.616   1.223   3.450
 1825SOL    HW1 5496   3.707   1.184   3.437
 1825SOL    HW2 5497   3.624   1.319   3.474
 1826SOL     OW 5498   2.926   1.347   3.202
 1826SOL    HW1 5499   2.846   1.324   3.257
 1826SOL    HW2 5500   3.009   1.321   3.251
 1827SOL     OW 5501   3.454   1.629   3.487
 1827SOL    HW1 5502   3.481   1.663   3.397
 1827SOL    HW2 5503   3.533   1.591   3.533
 1828SOL     OW 5504   2.973   1.195   2.962
 1828SOL    HW1 5505   2.933   1.239   3.043
 1828SOL    HW2 5506   2.932   1.232   2.879
 1829SOL     OW 5507   3.500   1.099   2.941
 1829SOL    HW1 5508   3.505   1.180   3.000
 1829SOL    HW2 5509   3.414   1.101   2.890
 1830SOL     OW 5510   2.777   0.089   3.264
 1830SOL    HW1 5511   2.802   0.069   3.169
 1830SOL    HW2 5512   2.849   0.145   3.306
 1831SOL     OW 5513   2.842   1.116   3.581
 1831SOL    HW1 5514   2.743   1.122   3.591
 1831SOL    HW2 5515   2.865   1.036   3.525
 1832SOL     OW 5516   2.567   1.050   2.230
 1832SOL    HW1 5517   2.553   1.057   2.329
 1832SOL    HW2 5518   2.651   0.999   2.212
 1833SOL     OW 5519   2.272   0.813   3.113
 1833SOL    HW1 5520   2.358   0.825   3.163
 1833SOL    HW2 5521   2.230   0.726   3.140
 1834SOL     OW 5522   3.136   0.386   3.124
 1834SOL    HW1 5523   3.157   0.460   3.188
 1834SOL    HW2 5524   3.047   0.403   3.081
 1835SOL     OW 5525   1.926   1.564   3.193
 1835SOL    HW1 5526   1.880   1.646   3.159
 1835SOL    HW2 5527   2.024   1.583   3.202
 1836SOL     OW 5528   2.229   1.100   2.363
 1836SOL    HW1 5529   2.222   1.183   2.307
 1836SOL    HW2 5530   2.233   1.020   2.303
 1837SOL     OW 5531   2.428   0.537   2.727
 1837SOL    HW1 5532   2.440   0.603   2.653
 1837SOL    HW2 5533   2.474   0.571   2.810
 1838SOL     OW 5534   3.114   1.348   2.250
 1838SOL    HW1 5535   3.164   1.425   2.290
 1838SOL    HW2 5536   3.019   1.350   2.282
 1839SOL     OW 5537   3.134   1.445   3.004
 1839SOL    HW1 5538   3.181   1.458   3.091
 1839SOL    HW2 5539   3.068   1.371   3.013
 1840SOL     OW 5540   3.444   0.639   2.334
 1840SOL    HW1 5541   3.413   0.700   2.407
 1840SOL    HW2 5542   3.494   0.691   2.265
 1841SOL     OW 5543   2.216   1.510   3.191
 1841SOL    HW1 5544   2.195   1.466   3.104
 1841SOL    HW2 5545   2.313   1.536   3.194
 1842SOL     OW 5546   2.264   0.751   3.460
 1842SOL    HW1 5547   2.332   0.806   3.413
 1842SOL    HW2 5548   2.304   0.663   3.487
 1843SOL     OW 5549   3.449   0.779   3.532
 1843SOL    HW1 5550   3.357   0.817   3.527
 1843SOL    HW2 5551   3.509   0.826   3.467
 1844SOL     OW 5552   2.875   0.105   3.632
 1844SOL    HW1 5553   2.881   0.190   3.580
 1844SOL    HW2 5554   2.907   0.029   3.575
 1845SOL     OW 5555   2.366   0.050   3.602
 1845SOL    HW1 5556   2.324  -0.007   3.532
 1845SOL    HW2 5557   2.300   0.119   3.634
 1846SOL     OW 5558   2.435   0.870   2.891
 1846SOL    HW1 5559   2.479   0.959   2.882
 1846SOL    HW2 5560   2.372   0.870   2.968
 1847SOL     OW 5561   3.222   0.862   2.907
 1847SOL    HW1 5562   3.147   0.862   2.841
 1847SOL    HW2 5563   3.259   0.770   2.916
 1848SOL     OW 5564   3.071   0.525   2.137
 1848SOL    HW1 5565   3.084   0.441   2.191
 1848SOL    HW2 5566   3.042   0.599   2.197
 1849SOL     OW 5567   2.169   0.213   3.093
 1849SOL    HW1 5568   2.146   0.250   3.183
 1849SOL    HW2 5569   2.139   0.118   3.087
 1850SOL     OW 5570   1.899   1.310   3.144
 1850SOL    HW1 5571   1.952   1.261   3.212
 1850SOL    HW2 5572   1.921   1.408   3.149
 1851SOL     OW 5573   2.594   0.634   2.926
 1851SOL    HW1 5574   2.653   0.608   2.850
 1851SOL    HW2 5575   2.566   0.730   2.915
 1852SOL     OW 5576   3.590   0.935   3.716
 1852SOL    HW1 5577   3.544   0.928   3.627
 1852SOL    HW2 5578   3.528   0.979   3.782
 1853SOL     OW 5579   2.169   0.063   2.480
 1853SOL    HW1 5580   2.158   0.157   2.513
 1853SOL    HW2 5581   2.164   0.000   2.557
 1854SOL     OW 5582   3.484   0.367   2.236
 1854SOL    HW1 5583   3.486   0.291   2.300
 1854SOL    HW2 5584   3.436   0.444   2.276
 1855SOL     OW 5585   2.885   0.766   2.828
 1855SOL    HW1 5586   2.900   0.787   2.924
 1855SOL    HW2 5587   2.855   0.671   2.819
 1856SOL     OW 5588   2.842   1.573   3.562
 1856SOL    HW1 5589   2.822   1.617   3.474
 1856SOL    HW2 5590   2.881   1.482   3.546
 1857SOL     OW 5591   3.721   1.518   3.467
 1857SOL    HW1 5592   3.735   1.545   3.372
 1857SOL    HW2 5593   3.804   1.540   3.520
 1858SOL     OW 5594   2.212   0.898   3.666
 1858SOL    HW1 5595   2.288   0.942   3.714
 1858SOL    HW2 5596   2.247   0.851   3.584
 1859SOL     OW 5597   3.402   0.274   1.987
 1859SOL    HW1 5598   3.341   0.199   2.010
 1859SOL    HW2 5599   3.424   0.326   2.070
 1860SOL     OW 5600   3.165   0.838   1.904
 1860SOL    HW1 5601   3.199   0.745   1.919
 1860SOL    HW2 5602   3.183   0.865   1.809
 1861SOL     OW 5603   2.930   1.333   2.711
 1861SOL    HW1 5604   2.937   1.249   2.656
 1861SOL    HW2 5605   2.992   1.402   2.675
 1862SOL     OW 5606   2.181   0.810   2.811
 1862SOL    HW1 5607   2.274   0.846   2.816
 1862SOL    HW2 5608   2.175   0.725   2.863
 1863SOL     OW 5609   2.201   0.509   2.868
 1863SOL    HW1 5610   2.149   0.426   2.851
 1863SOL    HW2 5611   2.278   0.514   2.804
 1864SOL     OW 5612   3.000   0.380   3.540
 1864SOL    HW1 5613   2.955   0.443   3.604
 1864SOL    HW2 5614   3.093   0.411   3.523
 1865SOL     OW 5615   3.022   0.207   3.339
 1865SOL    HW1 5616   3.022   0.271   3.416
 1865SOL    HW2 5617   3.050   0.255   3.256
 1866SOL     OW 5618   1.870   1.326   2.062
 1866SOL    HW1 5619   1.777   1.347   2.031
 1866SOL    HW2 5620   1.880   1.227   2.075
 1867SOL     OW 5621   1.950   1.801   2.789
 1867SOL    HW1 5622   1.908   1.715   2.762
 1867SOL    HW2 5623   2.044   1.804   2.755
 1868SOL     OW 5624   2.366   1.568   2.772
 1868SOL    HW1 5625   2.432   1.642   2.781
 1868SOL    HW2 5626   2.410   1.489   2.730
 1869SOL     OW 5627   2.864   0.796   3.100
 1869SOL    HW1 5628   2.905   0.764   3.186
 1869SOL    HW2 5629   2.768   0.769   3.097
 1870SOL     OW 5630   1.902   0.544   2.976
 1870SOL    HW1 5631   1.987   0.511   2.935
 1870SOL    HW2 5632   1.915   0.559   3.074
 1871SOL     OW 5633   2.051   0.520   3.584
 1871SOL    HW1 5634   2.110   0.480   3.514
 1871SOL    HW2 5635   1.993   0.591   3.543
 1872SOL     OW 5636   3.231   0.950   3.522
 1872SOL    HW1 5637   3.270   1.039   3.542
 1872SOL    HW2 5638   3.241   0.930   3.425
 1873SOL     OW 5639   2.677   0.572   2.187
 1873SOL    HW1 5640   2.684   0.483   2.141
 1873SOL    HW2 5641   2.583   0.606   2.179
 1874SOL     OW 5642   3.519   0.604   3.068
 1874SOL    HW1 5643   3.481   0.535   3.130
 1874SOL    HW2 5644   3.601   0.568   3.024
 1875SOL     OW 5645   2.114   1.564   3.606
 1875SOL    HW1 5646   2.084   1.621   3.682
 1875SOL    HW2 5647   2.107   1.467   3.632
 1876SOL     OW 5648   2.533   0.464   3.131
 1876SOL    HW1 5649   2.499   0.375   3.101
 1876SOL    HW2 5650   2.559   0.518   3.051
 1877SOL     OW 5651   2.792   1.678   3.327
 1877SOL    HW1 5652   2.768   1.660   3.232
 1877SOL    HW2 5653   2.822   1.772   3.337
 1878SOL     OW 5654   2.335   0.500   2.053
 1878SOL    HW1 5655   2.396   0.580   2.057
 1878SOL    HW2 5656   2.240   0.531   2.060
 1879SOL     OW 5657   2.021   1.137   3.328
 1879SOL    HW1 5658   2.043   1.076   3.404
 1879SOL    HW2 5659   2.031   1.088   3.242
 1880SOL     OW 5660   3.209   1.059   3.096
 1880SOL    HW1 5661   3.233   0.996   3.022
 1880SOL    HW2 5662   3.119   1.099   3.078
 1881SOL     OW 5663   3.164   0.855   2.171
 1881SOL    HW1 5664   3.078   0.824   2.213
 1881SOL    HW2 5665   3.160   0.841   2.072
 1882SOL     OW 5666   3.621   1.747   3.016
 1882SOL    HW1 5667   3.682   1.777   2.943
 1882SOL    HW2 5668   3.583   1.658   2.994
 1883SOL     OW 5669   3.114   1.731   2.990
 1883SOL    HW1 5670   3.198   1.736   2.936
 1883SOL    HW2 5671   3.091   1.635   3.008
 1884SOL     OW 5672   1.945   1.258   2.884
 1884SOL    HW1 5673   1.940   1.257   2.984
 1884SOL    HW2 5674   1.862   1.217   2.846
 1885SOL     OW 5675   2.550   1.662   3.578
 1885SOL    HW1 5676   2.494   1.743   3.587
 1885SOL    HW2 5677   2.602   1.666   3.492
 1886SOL     OW 5678   3.588   0.135   2.385
 1886SOL    HW1 5679   3.661   0.118   2.318
 1886SOL    HW2 5680   3.557   0.048   2.423
 1887SOL     OW 5681   3.250   1.573   2.339
 1887SOL    HW1 5682   3.317   1.585   2.265
 1887SOL    HW2 5683   3.210   1.662   2.362
 1888SOL     OW 5684   1.992   1.794   3.713
 1888SOL    HW1 5685   1.951   1.720   3.766
 1888SOL    HW2 5686   2.056   1.845   3.771
 1889SOL     OW 5687   3.142   0.927   2.534
 1889SOL    HW1 5688   3.202   0.846   2.536
 1889SOL    HW2 5689   3.182   0.996   2.474
 1890SOL     OW 5690   2.692   1.273   3.284
 1890SOL    HW1 5691   2.687   1.306   3.379
 1890SOL    HW2 5692   2.606   1.292   3.238
 1891SOL     OW 5693   2.534   1.616   2.016
 1891SOL    HW1 5694   2.543   1.626   1.917
 1891SOL    HW2 5695   2.494   1.527   2.037
 1892SOL     OW 5696   3.512   1.720   3.256
 1892SOL    HW1 5697   3.565   1.730   3.172
 1892SOL    HW2 5698   3.485   1.810   3.290
 1893SOL     OW 5699   3.703   0.175   2.825
 1893SOL    HW1 5700   3.742   0.090   2.789
 1893SOL    HW2 5701   3.605   0.177   2.806
 1894SOL     OW 5702   2.125   0.326   2.582
 1894SOL    HW1 5703   2.046   0.377   2.548
 1894SOL    HW2 5704   2.116   0.311   2.680
 1895SOL     OW 5705   3.056   1.612   1.893
 1895SOL    HW1 5706   3.062   1.519   1.930
 1895SOL    HW2 5707   2.997   1.612   1.813
 1896SOL     OW 5708   2.684   1.002   3.234
 1896SOL    HW1 5709   2.724   1.001   3.142
 1896SOL    HW2 5710   2.694   1.094   3.274
 1897SOL     OW 5711   2.778   0.910   2.153
 1897SOL    HW1 5712   2.841   0.948   2.085
 1897SOL    HW2 5713   2.818   0.827   2.192
 1898SOL     OW 5714   3.366   1.607   1.906
 1898SOL    HW1 5715   3.274   1.644   1.913
 1898SOL    HW2 5716   3.404   1.627   1.816
 1899SOL     OW 5717   2.234   1.288   3.352
 1899SOL    HW1 5718   2.221   1.381   3.318
 1899SOL    HW2 5719   2.150   1.236   3.339
 1900SOL     OW 5720   3.476   1.292   3.151
 1900SOL    HW1 5721   3.536   1.295   3.231
 1900SOL    HW2 5722   3.401   1.356   3.164
 1901SOL     OW 5723   2.901   1.098   2.558
 1901SOL    HW1 5724   2.831   1.051   2.612
 1901SOL    HW2 5725   2.960   1.030   2.515
 1902SOL     OW 5726   2.876   0.236   2.833
 1902SOL    HW1 5727   2.868   0.200   2.740
 1902SOL    HW2 5728   2.874   0.160   2.898
 1903SOL     OW 5729   2.452   1.487   2.353
 1903SOL    HW1 5730   2.494   1.429   2.283
 1903SOL    HW2 5731   2.408   1.566   2.309
 1904SOL     OW 5732   3.571   0.385   3.243
 1904SOL    HW1 5733   3.644   0.454   3.247
 1904SOL    HW2 5734   3.599   0.310   3.184
 1905SOL     OW 5735   2.117   1.348   2.152
 1905SOL    HW1 5736   2.021   1.349   2.125
 1905SOL    HW2 5737   2.129   1.401   2.236
 1906SOL     OW 5738   1.967   1.013   3.588
 1906SOL    HW1 5739   1.890   0.980   3.642
 1906SOL    HW2 5740   2.052   0.983   3.630
 1907SOL     OW 5741   2.534   0.203   3.351
 1907SOL    HW1 5742   2.624   0.187   3.311
 1907SOL    HW2 5743   2.542   0.208   3.450
 1908SOL     OW 5744   1.937   0.345   1.895
 1908SOL    HW1 5745   1.845   0.317   1.866
 1908SOL    HW2 5746   1.968   0.422   1.839
 1909SOL     OW 5747   3.302   0.856   3.260
 1909SOL    HW1 5748   3.245   0.908   3.197
 1909SOL    HW2 5749   3.398   0.868   3.236
 1910SOL     OW 5750   1.934   0.166   2.180
 1910SOL    HW1 5751   1.917   0.249   2.126
 1910SOL    HW2 5752   2.024   0.129   2.158
 1911SOL     OW 5753   3.045   1.335   1.981
 1911SOL    HW1 5754   2.946   1.324   1.983
 1911SOL    HW2 5755   3.079   1.350   2.074
 1912SOL     OW 5756   2.475   0.842   3.293
 1912SOL    HW1 5757   2.531   0.923   3.276
 1912SOL    HW2 5758   2.534   0.762   3.296
 1913SOL     OW 5759   3.355   1.767   2.821
 1913SOL    HW1 5760   3.388   1.831   2.752
 1913SOL    HW2 5761   3.421   1.761   2.896
 1914SOL     OW 5762   2.578   0.565   3.570
 1914SOL    HW1 5763   2.597   0.630   3.644
 1914SOL    HW2 5764   2.638   0.485   3.579
 1915SOL     OW 5765   3.312   1.220   3.495
 1915SOL    HW1 5766   3.303   1.210   3.594
 1915SOL    HW2 5767   3.408   1.213   3.469
 1916SOL     OW 5768   2.252   1.741   3.422
 1916SOL    HW1 5769   2.161   1.782   3.420
 1916SOL    HW2 5770   2.245   1.647   3.454
 1917SOL     OW 5771   3.536   0.883   3.116
 1917SOL    HW1 5772   3.509   0.794   3.079
 1917SOL    HW2 5773   3.537   0.951   3.043
 1918SOL     OW 5774   3.087   0.325   2.311
 1918SOL    HW1 5775   3.152   0.251   2.300
 1918SOL    HW2 5776   3.107   0.375   2.395
 1919SOL     OW 5777   2.456   0.745   2.514
 1919SOL    HW1 5778   2.506   0.830   2.495
 1919SOL    HW2 5779   2.368   0.747   2.466
 1920SOL     OW 5780   3.639   0.342   3.504
 1920SOL    HW1 5781   3.622   0.373   3.410
 1920SOL    HW2 5782   3.555   0.305   3.542
 1921SOL     OW 5783   3.592   0.934   3.379
 1921SOL    HW1 5784   3.630   1.025   3.394
 1921SOL    HW2 5785   3.584   0.917   3.280
 1922SOL     OW 5786   2.721   1.374   1.878
 1922SOL    HW1 5787   2.675   1.389   1.966
 1922SOL    HW2 5788   2.765   1.459   1.848
 1923SOL     OW 5789   2.523   1.790   2.815
 1923SOL    HW1 5790   2.477   1.878   2.802
 1923SOL    HW2 5791   2.622   1.802   2.808
 1924SOL     OW 5792   2.721   0.956   2.723
 1924SOL    HW1 5793   2.775   0.887   2.771
 1924SOL    HW2 5794   2.689   1.025   2.789
 1925SOL     OW 5795   2.945   0.984   1.949
 1925SOL    HW1 5796   2.922   1.037   1.867
 1925SOL    HW2 5797   3.026   0.928   1.930
 1926SOL     OW 5798   3.723   1.569   2.713
 1926SOL    HW1 5799   3.652   1.557   2.643
 1926SOL    HW2 5800   3.724   1.490   2.773
 1927SOL     OW 5801   2.083   1.314   3.706
 1927SOL    HW1 5802   2.018   1.241   3.685
 1927SOL    HW2 5803   2.087   1.328   3.804
 1928SOL     OW 5804   1.941   1.240   2.515
 1928SOL    HW1 5805   1.940   1.193   2.603
 1928SOL    HW2 5806   2.023   1.212   2.464
 1929SOL     OW 5807   2.534   1.391   3.486
 1929SOL    HW1 5808   2.456   1.341   3.524
 1929SOL    HW2 5809   2.531   1.486   3.517
 1930SOL     OW 5810   3.686   0.192   3.089
 1930SOL    HW1 5811   3.682   0.102   3.133
 1930SOL    HW2 5812   3.689   0.181   2.990
 1931SOL     OW 5813   2.290   0.424   2.382
 1931SOL    HW1 5814   2.320   0.352   2.320
 1931SOL    HW2 5815   2.251   0.384   2.465
 1932SOL     OW 5816   3.567   1.487   2.966
 1932SOL    HW1 5817   3.474   1.462   2.939
 1932SOL    HW2 5818   3.593   1.437   3.048
 1933SOL     OW 5819   2.179   0.547   3.142
 1933SOL    HW1 5820   2.217   0.488   3.214
 1933SOL    HW2 5821   2.219   0.521   3.054
 1934SOL     OW 5822   2.674   1.586   2.549
 1934SOL    HW1 5823   2.706   1.596   2.455
 1934SOL    HW2 5824   2.595   1.524   2.551
 1935SOL     OW 5825   3.286   0.214   2.974
 1935SOL    HW1 5826   3.338   0.149   3.029
 1935SOL    HW2 5827   3.237   0.277   3.035
 1936SOL     OW 5828   2.863   0.034   3.016
 1936SOL    HW1 5829   2.800  -0.038   2.985
 1936SOL    HW2 5830   2.956  -0.002   3.016
 1937SOL     OW 5831   2.632   1.330   2.163
 1937SOL    HW1 5832   2.586   1.243   2.180
 1937SOL    HW2 5833   2.723   1.327   2.204
 1938SOL     OW 5834   2.480   1.567   3.146
 1938SOL    HW1 5835   2.475   1.649   3.203
 1938SOL    HW2 5836   2.569   1.564   3.101
 1939SOL     OW 5837   3.214   0.052   2.030
 1939SOL    HW1 5838   3.249   0.011   1.946
 1939SOL    HW2 5839   3.124   0.014   2.050
 1940SOL     OW 5840   3.162   0.453   2.553
 1940SOL    HW1 5841   3.103   0.533   2.557
 1940SOL    HW2 5842   3.177   0.418   2.646
 1941SOL     OW 5843   3.455   0.221   2.744
 1941SOL    HW1 5844   3.371   0.220   2.798
 1941SOL    HW2 5845   3.457   0.304   2.688
 1942SOL     OW 5846   1.901   1.077   2.162
 1942SOL    HW1 5847   2.000   1.066   2.153
 1942SOL    HW2 5848   1.861   0.991   2.194
 1943SOL     OW 5849   2.737   1.646   2.199
 1943SOL    HW1 5850   2.660   1.611   2.145
 1943SOL    HW2 5851   2.705   1.717   2.261
 1944SOL     OW 5852   2.092   0.628   3.837
 1944SOL    HW1 5853   1.999   0.626   3.874
 1944SOL    HW2 5854   2.093   0.589   3.745
 1945SOL     OW 5855   2.087   0.275   4.720
 1945SOL    HW1 5856   2.122   0.258   4.812
 1945SOL    HW2 5857   1.999   0.230   4.708
 1946SOL     OW 5858   1.881   0.368   4.371
 1946SOL    HW1 5859   1.799   0.411   4.410
 1946SOL    HW2 5860   1.853   0.295   4.308
 1947SOL     OW 5861   2.431   1.275   4.889
 1947SOL    HW1 5862   2.338   1.268   4.852
 1947SOL    HW2 5863   2.442   1.364   4.933
 1948SOL     OW 5864   3.417   1.511   4.427
 1948SOL    HW1 5865   3.360   1.495   4.508
 1948SOL    HW2 5866   3.358   1.521   4.347
 1949SOL     OW 5867   2.997   0.703   4.441
 1949SOL    HW1 5868   3.054   0.781   4.416
 1949SOL    HW2 5869   2.937   0.729   4.517
 1950SOL     OW 5870   3.617   0.607   3.955
 1950SOL    HW1 5871   3.605   0.594   3.856
 1950SOL    HW2 5872   3.587   0.526   4.004
 1951SOL     OW 5873   2.630   1.144   4.747
 1951SOL    HW1 5874   2.552   1.161   4.807
 1951SOL    HW2 5875   2.664   1.231   4.711
 1952SOL     OW 5876   2.547   1.012   4.389
 1952SOL    HW1 5877   2.616   0.996   4.459
 1952SOL    HW2 5878   2.474   1.069   4.427
 1953SOL     OW 5879   2.197   1.435   4.785
 1953SOL    HW1 5880   2.119   1.404   4.732
 1953SOL    HW2 5881   2.255   1.493   4.728
 1954SOL     OW 5882   3.465   0.447   4.461
 1954SOL    HW1 5883   3.391   0.493   4.411
 1954SOL    HW2 5884   3.516   0.515   4.514
 1955SOL     OW 5885   2.093   1.713   4.207
 1955SOL    HW1 5886   2.127   1.790   4.261
 1955SOL    HW2 5887   2.137   1.713   4.117
 1956SOL     OW 5888   2.092   1.434   4.262
 1956SOL    HW1 5889   2.066   1.530   4.262
 1956SOL    HW2 5890   2.021   1.380   4.307
 1957SOL     OW 5891   2.102   1.091   4.610
 1957SOL    HW1 5892   2.116   1.007   4.662
 1957SOL    HW2 5893   2.047   1.155   4.665
 1958SOL     OW 5894   2.468   0.964   3.847
 1958SOL    HW1 5895   2.475   1.048   3.793
 1958SOL    HW2 5896   2.514   0.977   3.935
 1959SOL     OW 5897   1.984   0.643   4.287
 1959SOL    HW1 5898   1.939   0.555   4.304
 1959SOL    HW2 5899   1.983   0.697   4.371
 1960SOL     OW 5900   3.704   1.767   4.083
 1960SOL    HW1 5901   3.758   1.738   4.163
 1960SOL    HW2 5902   3.734   1.857   4.054
 1961SOL     OW 5903   1.889   1.596   3.841
 1961SOL    HW1 5904   1.870   1.500   3.862
 1961SOL    HW2 5905   1.856   1.654   3.916
 1962SOL     OW 5906   3.551   0.922   4.336
 1962SOL    HW1 5907   3.646   0.893   4.344
 1962SOL    HW2 5908   3.543   0.987   4.261
 1963SOL     OW 5909   3.503   1.108   4.156
 1963SOL    HW1 5910   3.589   1.110   4.104
 1963SOL    HW2 5911   3.517   1.155   4.244
 1964SOL     OW 5912   2.475   1.365   4.450
 1964SOL    HW1 5913   2.426   1.278   4.459
 1964SOL    HW2 5914   2.452   1.408   4.363
 1965SOL     OW 5915   2.671   0.004   4.226
 1965SOL    HW1 5916   2.711   0.095   4.217
 1965SOL    HW2 5917   2.571   0.012   4.232
 1966SOL     OW 5918   2.059   0.976   4.988
 1966SOL    HW1 5919   2.148   0.931   4.974
 1966SOL    HW2 5920   1.986   0.911   4.969
 1967SOL     OW 5921   3.387   0.999   3.914
 1967SOL    HW1 5922   3.324   0.923   3.927
 1967SOL    HW2 5923   3.435   1.017   4.000
 1968SOL     OW 5924   3.328   1.417   4.677
 1968SOL    HW1 5925   3.269   1.423   4.757
 1968SOL    HW2 5926   3.313   1.329   4.631
 1969SOL     OW 5927   3.529   1.714   4.296
 1969SOL    HW1 5928   3.488   1.691   4.208
 1969SOL    HW2 5929   3.511   1.640   4.361
 1970SOL     OW 5930   2.460   0.729   3.994
 1970SOL    HW1 5931   2.484   0.798   3.926
 1970SOL    HW2 5932   2.382   0.762   4.048
 1971SOL     OW 5933   3.143   0.345   4.668
 1971SOL    HW1 5934   3.057   0.295   4.655
 1971SOL    HW2 5935   3.205   0.291   4.724
 1972SOL     OW 5936   3.438   1.662   4.031
 1972SOL    HW1 5937   3.527   1.708   4.034
 1972SOL    HW2 5938   3.417   1.638   3.936
 1973SOL     OW 5939   2.903   0.701   4.153
 1973SOL    HW1 5940   2.929   0.697   4.249
 1973SOL    HW2 5941   2.818   0.650   4.139
 1974SOL     OW 5942   1.938   0.811   4.513
 1974SOL    HW1 5943   2.037   0.799   4.522
 1974SOL    HW2 5944   1.914   0.906   4.534
 1975SOL     OW 5945   2.727   0.348   3.919
 1975SOL    HW1 5946   2.786   0.411   3.870
 1975SOL    HW2 5947   2.746   0.254   3.890
 1976SOL     OW 5948   3.224   1.144   4.269
 1976SOL    HW1 5949   3.307   1.115   4.221
 1976SOL    HW2 5950   3.175   1.211   4.213
 1977SOL     OW 5951   2.412   0.196   4.609
 1977SOL    HW1 5952   2.407   0.191   4.709
 1977SOL    HW2 5953   2.414   0.292   4.580
 1978SOL     OW 5954   2.870   1.456   4.201
 1978SOL    HW1 5955   2.824   1.528   4.149
 1978SOL    HW2 5956   2.866   1.476   4.299
 1979SOL     OW 5957   2.213   1.801   4.577
 1979SOL    HW1 5958   2.263   1.715   4.583
 1979SOL    HW2 5959   2.278   1.878   4.574
 1980SOL     OW 5960   3.657   1.066   4.597
 1980SOL    HW1 5961   3.595   1.051   4.521
 1980SOL    HW2 5962   3.605   1.077   4.682
 1981SOL     OW 5963   2.183   0.943   3.966
 1981SOL    HW1 5964   2.265   0.982   3.924
 1981SOL    HW2 5965   2.156   0.861   3.917
 1982SOL     OW 5966   3.320   0.735   4.452
 1982SOL    HW1 5967   3.315   0.670   4.527
 1982SOL    HW2 5968   3.400   0.794   4.465
 1983SOL     OW 5969   2.973   1.776   3.961
 1983SOL    HW1 5970   2.913   1.714   4.011
 1983SOL    HW2 5971   3.004   1.732   3.876
 1984SOL     OW 5972   3.494   1.377   3.805
 1984SOL    HW1 5973   3.462   1.471   3.795
 1984SOL    HW2 5974   3.418   1.314   3.793
 1985SOL     OW 5975   2.326   1.743   4.047
 1985SOL    HW1 5976   2.359   1.782   4.133
 1985SOL    HW2 5977   2.402   1.736   3.982
 1986SOL     OW 5978   3.262   0.107   4.150
 1986SOL    HW1 5979   3.238   0.070   4.060
 1986SOL    HW2 5980   3.361   0.123   4.154
 1987SOL     OW 5981   2.111   1.785   4.965
 1987SOL    HW1 5982   2.168   1.720   5.015
 1987SOL    HW2 5983   2.095   1.752   4.872
 1988SOL     OW 5984   2.802   1.698   4.628
 1988SOL    HW1 5985   2.882   1.641   4.649
 1988SOL    HW2 5986   2.753   1.658   4.551
 1989SOL     OW 5987   2.244   0.700   4.204
 1989SOL    HW1 5988   2.289   0.610   4.201
 1989SOL    HW2 5989   2.150   0.689   4.237
 1990SOL     OW 5990   2.476   0.122   3.841
 1990SOL    HW1 5991   2.574   0.100   3.848
 1990SOL    HW2 5992   2.445   0.105   3.748
 1991SOL     OW 5993   2.665   1.402   4.648
 1991SOL    HW1 5994   2.755   1.416   4.606
 1991SOL    HW2 5995   2.594   1.404   4.577
 1992SOL     OW 5996   2.784   0.503   4.623
 1992SOL    HW1 5997   2.759   0.494   4.527
 1992SOL    HW2 5998   2.832   0.421   4.654
 1993SOL     OW 5999   2.401   0.064   4.236
 1993SOL    HW1 6000   2.320   0.065   4.294
 1993SOL    HW2 6001   2.404   0.147   4.181
 1994SOL     OW 6002   3.296   1.188   3.765
 1994SOL    HW1 6003   3.328   1.112   3.822
 1994SOL    HW2 6004   3.204   1.215   3.795
 1995SOL     OW 6005   2.159   0.035   3.895
 1995SOL    HW1 6006   2.208   0.119   3.874
 1995SOL    HW2 6007   2.221  -0.030   3.940
 1996SOL     OW 6008   2.797   0.236   4.204
 1996SOL    HW1 6009   2.749   0.277   4.126
 1996SOL    HW2 6010   2.896   0.234   4.185
 1997SOL     OW 6011   3.089   1.570   4.517
 1997SOL    HW1 6012   3.110   1.644   4.452
 1997SOL    HW2 6013   3.157   1.570   4.590
 1998SOL     OW 6014   2.321   1.152   4.465
 1998SOL    HW1 6015   2.250   1.125   4.530
 1998SOL    HW2 6016   2.295   1.124   4.372
 1999SOL     OW 6017   3.133   1.797   4.315
 1999SOL    HW1 6018   3.177   1.861   4.251
 1999SOL    HW2 6019   3.083   1.849   4.385
 2000SOL     OW 6020   2.894   0.549   3.740
 2000SOL    HW1 6021   2.853   0.631   3.701
 2000SOL    HW2 6022   2.958   0.575   3.813
 2001SOL     OW 6023   2.728   0.454   4.366
 2001SOL    HW1 6024   2.696   0.526   4.304
 2001SOL    HW2 6025   2.752   0.373   4.313
 2002SOL     OW 6026   2.879   0.039   4.477
 2002SOL    HW1 6027   2.807   0.044   4.408
 2002SOL    HW2 6028   2.855  -0.030   4.546
 2003SOL     OW 6029   3.291   1.173   4.591
 2003SOL    HW1 6030   3.236   1.089   4.584
 2003SOL    HW2 6031   3.317   1.202   4.499
 2004SOL     OW 6032   3.328   0.590   4.716
 2004SOL    HW1 6033   3.298   0.495   4.723
 2004SOL    HW2 6034   3.401   0.606   4.782
 2005SOL     OW 6035   3.719   0.833   4.101
 2005SOL    HW1 6036   3.761   0.769   4.165
 2005SOL    HW2 6037   3.681   0.782   4.023
 2006SOL     OW 6038   2.350   1.385   3.898
 2006SOL    HW1 6039   2.263   1.370   3.945
 2006SOL    HW2 6040   2.333   1.411   3.803
 2007SOL     OW 6041   3.526   1.280   4.381
 2007SOL    HW1 6042   3.625   1.288   4.395
 2007SOL    HW2 6043   3.481   1.364   4.412
 2008SOL     OW 6044   3.252   0.575   3.802
 2008SOL    HW1 6045   3.198   0.554   3.883
 2008SOL    HW2 6046   3.343   0.534   3.811
 2009SOL     OW 6047   2.389   0.256   4.052
 2009SOL    HW1 6048   2.416   0.197   3.977
 2009SOL    HW2 6049   2.389   0.351   4.021
 2010SOL     OW 6050   2.973   1.195   4.824
 2010SOL    HW1 6051   2.933   1.239   4.905
 2010SOL    HW2 6052   2.932   1.232   4.741
 2011SOL     OW 6053   3.500   1.099   4.803
 2011SOL    HW1 6054   3.505   1.180   4.862
 2011SOL    HW2 6055   3.414   1.101   4.752
 2012SOL     OW 6056   2.567   1.050   4.092
 2012SOL    HW1 6057   2.553   1.057   4.191
 2012SOL    HW2 6058   2.651   0.999   4.074
 2013SOL     OW 6059   2.272   0.813   4.975
 2013SOL    HW1 6060   2.358   0.825   5.025
 2013SOL    HW2 6061   2.230   0.726   5.002
 2014SOL     OW 6062   2.229   1.100   4.225
 2014SOL    HW1 6063   2.222   1.183   4.169
 2014SOL    HW2 6064   2.233   1.020   4.165
 2015SOL     OW 6065   2.428   0.537   4.589
 2015SOL    HW1 6066   2.440   0.603   4.515
 2015SOL    HW2 6067   2.474   0.571   4.672
 2016SOL     OW 6068   3.114   1.348   4.112
 2016SOL    HW1 6069   3.164   1.425   4.152
 2016SOL    HW2 6070   3.019   1.350   4.144
 2017SOL     OW 6071   3.134   1.445   4.866
 2017SOL    HW1 6072   3.181   1.458   4.953
 2017SOL    HW2 6073   3.068   1.371   4.875
 2018SOL     OW 6074   3.444   0.639   4.196
 2018SOL    HW1 6075   3.413   0.700   4.269
 2018SOL    HW2 6076   3.494   0.691   4.127
 2019SOL     OW 6077   2.435   0.870   4.753
 2019SOL    HW1 6078   2.479   0.959   4.744
 2019SOL    HW2 6079   2.372   0.870   4.830
 2020SOL     OW 6080   3.222   0.862   4.769
 2020SOL    HW1 6081   3.147   0.862   4.703
 2020SOL    HW2 6082   3.259   0.770   4.778
 2021SOL     OW 6083   3.071   0.525   3.999
 2021SOL    HW1 6084   3.084   0.441   4.053
 2021SOL    HW2 6085   3.042   0.599   4.059
 2022SOL     OW 6086   2.169   0.213   4.955
 2022SOL    HW1 6087   2.146   0.250   5.045
 2022SOL    HW2 6088   2.139   0.118   4.949
 2023SOL     OW 6089   2.594   0.634   4.788
 2023SOL    HW1 6090   2.653   0.608   4.712
 2023SOL    HW2 6091   2.566   0.730   4.777
 2024SOL     OW 6092   2.169   0.063   4.342
 2024SOL    HW1 6093   2.158   0.157   4.375
 2024SOL    HW2 6094   2.164   0.000   4.419
 2025SOL     OW 6095   3.484   0.367   4.098
 2025SOL    HW1 6096   3.486   0.291   4.162
 2025SOL    HW2 6097   3.436   0.444   4.138
 2026SOL     OW 6098   2.885   0.766   4.690
 2026SOL    HW1 6099   2.900   0.787   4.786
 2026SOL    HW2 6100   2.855   0.671   4.681
 2027SOL     OW 6101   3.402   0.274   3.849
 2027SOL    HW1 6102   3.341   0.199   3.872
 2027SOL    HW2 6103   3.424   0.326   3.932
 2028SOL     OW 6104   3.165   0.838   3.766
 2028SOL    HW1 6105   3.199   0.745   3.781
 2028SOL    HW2 6106   3.183   0.865   3.671
 2029SOL     OW 6107   2.930   1.333   4.573
 2029SOL    HW1 6108   2.937   1.249   4.518
 2029SOL    HW2 6109   2.992   1.402   4.537
 2030SOL     OW 6110   2.181   0.810   4.673
 2030SOL    HW1 6111   2.274   0.846   4.678
 2030SOL    HW2 6112   2.175   0.725   4.725
 2031SOL     OW 6113   2.201   0.509   4.730
 2031SOL    HW1 6114   2.149   0.426   4.713
 2031SOL    HW2 6115   2.278   0.514   4.666
 2032SOL     OW 6116   3.022   0.207   5.201
 2032SOL    HW1 6117   3.022   0.271   5.278
 2032SOL    HW2 6118   3.050   0.255   5.118
 2033SOL     OW 6119   1.870   1.326   3.924
 2033SOL    HW1 6120   1.777   1.347   3.893
 2033SOL    HW2 6121   1.880   1.227   3.937
 2034SOL     OW 6122   1.950   1.801   4.651
 2034SOL    HW1 6123   1.908   1.715   4.624
 2034SOL    HW2 6124   2.044   1.804   4.617
 2035SOL     OW 6125   2.366   1.568   4.634
 2035SOL    HW1 6126   2.432   1.642   4.643
 2035SOL    HW2 6127   2.410   1.489   4.592
 2036SOL     OW 6128   2.864   0.796   4.962
 2036SOL    HW1 6129   2.905   0.764   5.048
 2036SOL    HW2 6130   2.768   0.769   4.959
 2037SOL     OW 6131   1.902   0.544   4.838
 2037SOL    HW1 6132   1.987   0.511   4.797
 2037SOL    HW2 6133   1.915   0.559   4.936
 2038SOL     OW 6134   2.677   0.572   4.049
 2038SOL    HW1 6135   2.684   0.483   4.003
 2038SOL    HW2 6136   2.583   0.606   4.041
 2039SOL     OW 6137   3.519   0.604   4.930
 2039SOL    HW1 6138   3.481   0.535   4.992
 2039SOL    HW2 6139   3.601   0.568   4.886
 2040SOL     OW 6140   2.533   0.464   4.993
 2040SOL    HW1 6141   2.499   0.375   4.963
 2040SOL    HW2 6142   2.559   0.518   4.913
 2041SOL     OW 6143   2.335   0.500   3.915
 2041SOL    HW1 6144   2.396   0.580   3.919
 2041SOL    HW2 6145   2.240   0.531   3.922
 2042SOL     OW 6146   2.021   1.137   5.190
 2042SOL    HW1 6147   2.043   1.076   5.266
 2042SOL    HW2 6148   2.031   1.088   5.104
 2043SOL     OW 6149   3.164   0.855   4.033
 2043SOL    HW1 6150   3.078   0.824   4.075
 2043SOL    HW2 6151   3.160   0.841   3.934
 2044SOL     OW 6152   3.621   1.747   4.878
 2044SOL    HW1 6153   3.682   1.777   4.805
 2044SOL    HW2 6154   3.583   1.658   4.856
 2045SOL     OW 6155   1.945   1.258   4.746
 2045SOL    HW1 6156   1.940   1.257   4.846
 2045SOL    HW2 6157   1.862   1.217   4.708
 2046SOL     OW 6158   3.588   0.135   4.247
 2046SOL    HW1 6159   3.661   0.118   4.180
 2046SOL    HW2 6160   3.557   0.048   4.285
 2047SOL     OW 6161   3.250   1.573   4.201
 2047SOL    HW1 6162   3.317   1.585   4.127
 2047SOL    HW2 6163   3.210   1.662   4.224
 2048SOL     OW 6164   3.142   0.927   4.396
 2048SOL    HW1 6165   3.202   0.846   4.398
 2048SOL    HW2 6166   3.182   0.996   4.336
 2049SOL     OW 6167   2.534   1.616   3.878
 2049SOL    HW1 6168   2.543   1.626   3.779
 2049SOL    HW2 6169   2.494   1.527   3.899
 2050SOL     OW 6170   3.703   0.175   4.687
 2050SOL    HW1 6171   3.742   0.090   4.651
 2050SOL    HW2 6172   3.605   0.177   4.668
 2051SOL     OW 6173   2.125   0.326   4.444
 2051SOL    HW1 6174   2.046   0.377   4.410
 2051SOL    HW2 6175   2.116   0.311   4.542
 2052SOL     OW 6176   3.056   1.612   3.755
 2052SOL    HW1 6177   3.062   1.519   3.792
 2052SOL    HW2 6178   2.997   1.612   3.675
 2053SOL     OW 6179   2.684   1.002   5.096
 2053SOL    HW1 6180   2.724   1.001   5.004
 2053SOL    HW2 6181   2.694   1.094   5.136
 2054SOL     OW 6182   2.778   0.910   4.015
 2054SOL    HW1 6183   2.841   0.948   3.947
 2054SOL    HW2 6184   2.818   0.827   4.054
 2055SOL     OW 6185   3.366   1.607   3.768
 2055SOL    HW1 6186   3.274   1.644   3.775
 2055SOL    HW2 6187   3.404   1.627   3.678
 2056SOL     OW 6188   2.901   1.098   4.420
 2056SOL    HW1 6189   2.831   1.051   4.474
 2056SOL    HW2 6190   2.960   1.030   4.377
 2057SOL     OW 6191   2.876   0.236   4.695
 2057SOL    HW1 6192   2.868   0.200   4.602
 2057SOL    HW2 6193   2.874   0.160   4.760
 2058SOL     OW 6194   2.452   1.487   4.215
 2058SOL    HW1 6195   2.494   1.429   4.145
 2058SOL    HW2 6196   2.408   1.566   4.171
 2059SOL     OW 6197   3.571   0.385   5.105
 2059SOL    HW1 6198   3.644   0.454   5.109
 2059SOL    HW2 6199   3.599   0.310   5.046
 2060SOL     OW 6200   2.117   1.348   4.014
 2060SOL    HW1 6201   2.021   1.349   3.987
 2060SOL    HW2 6202   2.129   1.401   4.098
 2061SOL     OW 6203   1.937   0.345   3.757
 2061SOL    HW1 6204   1.845   0.317   3.728
 2061SOL    HW2 6205   1.968   0.422   3.701
 2062SOL     OW 6206   1.934   0.166   4.042
 2062SOL    HW1 6207   1.917   0.249   3.988
 2062SOL    HW2 6208   2.024   0.129   4.020
 2063SOL     OW 6209   3.045   1.335   3.843
 2063SOL    HW1 6210   2.946   1.324   3.845
 2063SOL    HW2 6211   3.079   1.350   3.936
 2064SOL     OW 6212   3.355   1.767   4.683
 2064SOL    HW1 6213   3.388   1.831   4.614
 2064SOL    HW2 6214   3.421   1.761   4.758
 2065SOL     OW 6215   3.536   0.883   4.978
 2065SOL    HW1 6216   3.509   0.794   4.941
 2065SOL    HW2 6217   3.537   0.951   4.905
 2066SOL     OW 6218   3.087   0.325   4.173
 2066SOL    HW1 6219   3.152   0.251   4.162
 2066SOL    HW2 6220   3.107   0.375   4.257
 2067SOL     OW 6221   2.456   0.745   4.376
 2067SOL    HW1 6222   2.506   0.830   4.357
 2067SOL    HW2 6223   2.368   0.747   4.328
 2068SOL     OW 6224   3.592   0.934   5.241
 2068SOL    HW1 6225   3.630   1.025   5.256
 2068SOL    HW2 6226   3.584   0.917   5.142
 2069SOL     OW 6227   2.721   1.374   3.740
 2069SOL    HW1 6228   2.675   1.389   3.828
 2069SOL    HW2 6229   2.765   1.459   3.710
 2070SOL     OW 6230   2.523   1.790   4.677
 2070SOL    HW1 6231   2.477   1.878   4.664
 2070SOL    HW2 6232   2.622   1.802   4.670
 2071SOL     OW 6233   2.721   0.956   4.585
 2071SOL    HW1 6234   2.775   0.887   4.633
 2071SOL    HW2 6235   2.689   1.025   4.651
 2072SOL     OW 6236   2.945   0.984   3.811
 2072SOL    HW1 6237   2.922   1.037   3.729
 2072SOL    HW2 6238   3.026   0.928   3.792
 2073SOL     OW 6239   3.723   1.569   4.575
 2073SOL    HW1 6240   3.652   1.557   4.505
 2073SOL    HW2 6241   3.724   1.490   4.635
 2074SOL     OW 6242   1.941   1.240   4.377
 2074SOL    HW1 6243   1.940   1.193   4.465
 2074SOL    HW2 6244   2.023   1.212   4.326
 2075SOL     OW 6245   3.686   0.192   4.951
 2075SOL    HW1 6246   3.682   0.102   4.995
 2075SOL    HW2 6247   3.689   0.181   4.852
 2076SOL     OW 6248   2.290   0.424   4.244
 2076SOL    HW1 6249   2.320   0.352   4.182
 2076SOL    HW2 6250   2.251   0.384   4.327
 2077SOL     OW 6251   3.567   1.487   4.828
 2077SOL    HW1 6252   3.474   1.462   4.801
 2077SOL    HW2 6253   3.593   1.437   4.910
 2078SOL     OW 6254   2.674   1.586   4.411
 2078SOL    HW1 6255   2.706   1.596   4.317
 2078SOL    HW2 6256   2.595   1.524   4.413
 2079SOL     OW 6257   3.286   0.214   4.836
 2079SOL    HW1 6258   3.338   0.149   4.891
 2079SOL    HW2 6259   3.237   0.277   4.897
 2080SOL     OW 6260   2.863   0.034   4.878
 2080SOL    HW1 6261   2.800  -0.038   4.847
 2080SOL    HW2 6262   2.956  -0.002   4.878
 2081SOL     OW 6263   2.632   1.330   4.025
 2081SOL    HW1 6264   2.586   1.243   4.042
 2081SOL    HW2 6265   2.723   1.327   4.066
 2082SOL     OW 6266   3.214   0.052   3.892
 2082SOL    HW1 6267   3.249   0.011   3.808
 2082SOL    HW2 6268   3.124   0.014   3.912
 2083SOL     OW 6269   3.162   0.453   4.415
 2083SOL    HW1 6270   3.103   0.533   4.419
 2083SOL    HW2 6271   3.177   0.418   4.508
 2084SOL     OW 6272   3.455   0.221   4.606
 2084SOL    HW1 6273   3.371   0.220   4.660
 2084SOL    HW2 6274   3.457   0.304   4.550
 2085SOL     OW 6275   1.901   1.077   4.024
 2085SOL    HW1 6276   2.000   1.066   4.015
 2085SOL    HW2 6277   1.861   0.991   4.056
 2086SOL     OW 6278   2.737   1.646   4.061
 2086SOL    HW1 6279   2.660   1.611   4.007
 2086SOL    HW2 6280   2.705   1.717   4.123
 2087SOL     OW 6281   2.092   2.490   0.113
 2087SOL    HW1 6282   1.999   2.488   0.150
 2087SOL    HW2 6283   2.093   2.451   0.021
 2088SOL     OW 6284   2.087   2.137   0.996
 2088SOL    HW1 6285   2.122   2.120   1.088
 2088SOL    HW2 6286   1.999   2.092   0.984
 2089SOL     OW 6287   1.881   2.230   0.647
 2089SOL    HW1 6288   1.799   2.273   0.686
 2089SOL    HW2 6289   1.853   2.157   0.584
 2090SOL     OW 6290   2.431   3.137   1.165
 2090SOL    HW1 6291   2.338   3.130   1.128
 2090SOL    HW2 6292   2.442   3.226   1.209
 2091SOL     OW 6293   3.417   3.373   0.703
 2091SOL    HW1 6294   3.360   3.357   0.784
 2091SOL    HW2 6295   3.358   3.383   0.623
 2092SOL     OW 6296   2.997   2.565   0.717
 2092SOL    HW1 6297   3.054   2.643   0.692
 2092SOL    HW2 6298   2.937   2.591   0.793
 2093SOL     OW 6299   3.617   2.469   0.231
 2093SOL    HW1 6300   3.605   2.456   0.132
 2093SOL    HW2 6301   3.587   2.388   0.280
 2094SOL     OW 6302   2.630   3.006   1.023
 2094SOL    HW1 6303   2.552   3.023   1.083
 2094SOL    HW2 6304   2.664   3.093   0.987
 2095SOL     OW 6305   2.712   2.660   1.823
 2095SOL    HW1 6306   2.708   2.736   1.888
 2095SOL    HW2 6307   2.734   2.696   1.732
 2096SOL     OW 6308   2.547   2.874   0.665
 2096SOL    HW1 6309   2.616   2.858   0.735
 2096SOL    HW2 6310   2.474   2.931   0.703
 2097SOL     OW 6311   2.548   3.023   1.803
 2097SOL    HW1 6312   2.608   3.102   1.817
 2097SOL    HW2 6313   2.462   3.054   1.762
 2098SOL     OW 6314   2.197   3.297   1.061
 2098SOL    HW1 6315   2.119   3.266   1.008
 2098SOL    HW2 6316   2.255   3.355   1.004
 2099SOL     OW 6317   3.322   3.367   1.339
 2099SOL    HW1 6318   3.346   3.461   1.365
 2099SOL    HW2 6319   3.306   3.313   1.421
 2100SOL     OW 6320   2.300   2.254   1.499
 2100SOL    HW1 6321   2.382   2.198   1.508
 2100SOL    HW2 6322   2.219   2.196   1.503
 2101SOL     OW 6323   3.465   2.309   0.737
 2101SOL    HW1 6324   3.391   2.355   0.687
 2101SOL    HW2 6325   3.516   2.377   0.790
 2102SOL     OW 6326   2.093   3.575   0.483
 2102SOL    HW1 6327   2.127   3.652   0.537
 2102SOL    HW2 6328   2.137   3.575   0.393
 2103SOL     OW 6329   2.989   3.203   1.690
 2103SOL    HW1 6330   3.036   3.203   1.778
 2103SOL    HW2 6331   2.941   3.116   1.679
 2104SOL     OW 6332   2.092   3.296   0.538
 2104SOL    HW1 6333   2.066   3.392   0.538
 2104SOL    HW2 6334   2.021   3.242   0.583
 2105SOL     OW 6335   2.102   2.953   0.886
 2105SOL    HW1 6336   2.116   2.869   0.938
 2105SOL    HW2 6337   2.047   3.017   0.941
 2106SOL     OW 6338   2.482   3.648   1.439
 2106SOL    HW1 6339   2.390   3.631   1.474
 2106SOL    HW2 6340   2.510   3.740   1.465
 2107SOL     OW 6341   2.468   2.826   0.123
 2107SOL    HW1 6342   2.475   2.910   0.069
 2107SOL    HW2 6343   2.514   2.839   0.211
 2108SOL     OW 6344   3.456   1.976   1.480
 2108SOL    HW1 6345   3.438   2.043   1.408
 2108SOL    HW2 6346   3.453   2.022   1.569
 2109SOL     OW 6347   1.984   2.505   0.563
 2109SOL    HW1 6348   1.939   2.417   0.580
 2109SOL    HW2 6349   1.983   2.559   0.647
 2110SOL     OW 6350   3.704   3.629   0.359
 2110SOL    HW1 6351   3.758   3.600   0.439
 2110SOL    HW2 6352   3.734   3.719   0.330
 2111SOL     OW 6353   1.889   3.458   0.117
 2111SOL    HW1 6354   1.870   3.362   0.138
 2111SOL    HW2 6355   1.856   3.516   0.192
 2112SOL     OW 6356   3.551   2.784   0.612
 2112SOL    HW1 6357   3.646   2.755   0.620
 2112SOL    HW2 6358   3.543   2.849   0.537
 2113SOL     OW 6359   3.503   2.970   0.432
 2113SOL    HW1 6360   3.589   2.972   0.380
 2113SOL    HW2 6361   3.517   3.017   0.520
 2114SOL     OW 6362   1.975   2.599   1.597
 2114SOL    HW1 6363   2.063   2.586   1.642
 2114SOL    HW2 6364   1.962   2.696   1.575
 2115SOL     OW 6365   2.475   3.227   0.726
 2115SOL    HW1 6366   2.426   3.140   0.735
 2115SOL    HW2 6367   2.452   3.270   0.639
 2116SOL     OW 6368   3.155   3.090   1.423
 2116SOL    HW1 6369   3.192   3.017   1.365
 2116SOL    HW2 6370   3.207   3.095   1.508
 2117SOL     OW 6371   2.671   1.866   0.502
 2117SOL    HW1 6372   2.711   1.957   0.493
 2117SOL    HW2 6373   2.571   1.874   0.508
 2118SOL     OW 6374   2.059   2.838   1.264
 2118SOL    HW1 6375   2.148   2.793   1.250
 2118SOL    HW2 6376   1.986   2.773   1.245
 2119SOL     OW 6377   3.387   2.861   0.190
 2119SOL    HW1 6378   3.324   2.785   0.203
 2119SOL    HW2 6379   3.435   2.879   0.276
 2120SOL     OW 6380   3.049   3.654   1.616
 2120SOL    HW1 6381   3.073   3.714   1.540
 2120SOL    HW2 6382   3.056   3.559   1.586
 2121SOL     OW 6383   2.179   2.113   1.801
 2121SOL    HW1 6384   2.250   2.184   1.807
 2121SOL    HW2 6385   2.091   2.152   1.829
 2122SOL     OW 6386   3.328   3.279   0.953
 2122SOL    HW1 6387   3.269   3.285   1.033
 2122SOL    HW2 6388   3.313   3.191   0.907
 2123SOL     OW 6389   3.529   3.576   0.572
 2123SOL    HW1 6390   3.488   3.553   0.484
 2123SOL    HW2 6391   3.511   3.502   0.637
 2124SOL     OW 6392   2.460   2.591   0.270
 2124SOL    HW1 6393   2.484   2.660   0.202
 2124SOL    HW2 6394   2.382   2.624   0.324
 2125SOL     OW 6395   3.143   2.207   0.944
 2125SOL    HW1 6396   3.057   2.157   0.931
 2125SOL    HW2 6397   3.205   2.153   1.000
 2126SOL     OW 6398   3.438   3.524   0.307
 2126SOL    HW1 6399   3.527   3.570   0.310
 2126SOL    HW2 6400   3.417   3.500   0.212
 2127SOL     OW 6401   2.669   2.467   1.465
 2127SOL    HW1 6402   2.622   2.464   1.554
 2127SOL    HW2 6403   2.618   2.412   1.399
 2128SOL     OW 6404   3.256   2.331   1.674
 2128SOL    HW1 6405   3.236   2.374   1.762
 2128SOL    HW2 6406   3.334   2.269   1.683
 2129SOL     OW 6407   2.835   2.752   1.572
 2129SOL    HW1 6408   2.881   2.668   1.543
 2129SOL    HW2 6409   2.779   2.786   1.497
 2130SOL     OW 6410   2.853   2.272   1.242
 2130SOL    HW1 6411   2.776   2.306   1.296
 2130SOL    HW2 6412   2.819   2.221   1.163
 2131SOL     OW 6413   2.903   2.563   0.429
 2131SOL    HW1 6414   2.929   2.559   0.525
 2131SOL    HW2 6415   2.818   2.512   0.415
 2132SOL     OW 6416   1.938   2.673   0.789
 2132SOL    HW1 6417   2.037   2.661   0.798
 2132SOL    HW2 6418   1.914   2.768   0.810
 2133SOL     OW 6419   1.992   3.683   1.571
 2133SOL    HW1 6420   1.982   3.668   1.670
 2133SOL    HW2 6421   1.906   3.719   1.535
 2134SOL     OW 6422   2.727   2.210   0.195
 2134SOL    HW1 6423   2.786   2.273   0.146
 2134SOL    HW2 6424   2.746   2.116   0.166
 2135SOL     OW 6425   3.581   2.447   1.831
 2135SOL    HW1 6426   3.555   2.536   1.795
 2135SOL    HW2 6427   3.579   2.379   1.758
 2136SOL     OW 6428   3.224   3.006   0.545
 2136SOL    HW1 6429   3.307   2.977   0.497
 2136SOL    HW2 6430   3.175   3.073   0.489
 2137SOL     OW 6431   2.412   2.058   0.885
 2137SOL    HW1 6432   2.407   2.053   0.985
 2137SOL    HW2 6433   2.414   2.154   0.856
 2138SOL     OW 6434   2.870   3.318   0.477
 2138SOL    HW1 6435   2.824   3.390   0.425
 2138SOL    HW2 6436   2.866   3.338   0.575
 2139SOL     OW 6437   2.213   3.663   0.853
 2139SOL    HW1 6438   2.263   3.577   0.859
 2139SOL    HW2 6439   2.278   3.740   0.850
 2140SOL     OW 6440   3.657   2.928   0.873
 2140SOL    HW1 6441   3.595   2.913   0.797
 2140SOL    HW2 6442   3.605   2.939   0.958
 2141SOL     OW 6443   3.089   3.412   1.506
 2141SOL    HW1 6444   3.095   3.335   1.570
 2141SOL    HW2 6445   3.037   3.386   1.426
 2142SOL     OW 6446   2.183   2.805   0.242
 2142SOL    HW1 6447   2.265   2.844   0.200
 2142SOL    HW2 6448   2.156   2.723   0.193
 2143SOL     OW 6449   3.320   2.597   0.728
 2143SOL    HW1 6450   3.315   2.532   0.803
 2143SOL    HW2 6451   3.400   2.656   0.741
 2144SOL     OW 6452   2.323   3.128   1.727
 2144SOL    HW1 6453   2.273   3.129   1.641
 2144SOL    HW2 6454   2.260   3.110   1.803
 2145SOL     OW 6455   2.973   3.638   0.237
 2145SOL    HW1 6456   2.913   3.576   0.287
 2145SOL    HW2 6457   3.004   3.594   0.152
 2146SOL     OW 6458   2.064   2.147   1.498
 2146SOL    HW1 6459   1.984   2.207   1.485
 2146SOL    HW2 6460   2.054   2.098   1.584
 2147SOL     OW 6461   3.494   3.239   0.081
 2147SOL    HW1 6462   3.462   3.333   0.071
 2147SOL    HW2 6463   3.418   3.176   0.069
 2148SOL     OW 6464   2.326   3.605   0.323
 2148SOL    HW1 6465   2.359   3.644   0.409
 2148SOL    HW2 6466   2.402   3.598   0.258
 2149SOL     OW 6467   3.262   1.969   0.426
 2149SOL    HW1 6468   3.238   1.932   0.336
 2149SOL    HW2 6469   3.361   1.985   0.430
 2150SOL     OW 6470   2.111   3.647   1.241
 2150SOL    HW1 6471   2.168   3.582   1.291
 2150SOL    HW2 6472   2.095   3.614   1.148
 2151SOL     OW 6473   2.802   3.560   0.904
 2151SOL    HW1 6474   2.882   3.503   0.925
 2151SOL    HW2 6475   2.753   3.520   0.827
 2152SOL     OW 6476   2.244   2.562   0.480
 2152SOL    HW1 6477   2.289   2.472   0.477
 2152SOL    HW2 6478   2.150   2.551   0.513
 2153SOL     OW 6479   3.409   2.084   1.729
 2153SOL    HW1 6480   3.404   2.121   1.821
 2153SOL    HW2 6481   3.337   2.015   1.717
 2154SOL     OW 6482   2.476   1.984   0.117
 2154SOL    HW1 6483   2.574   1.962   0.124
 2154SOL    HW2 6484   2.445   1.967   0.024
 2155SOL     OW 6485   2.643   2.126   1.749
 2155SOL    HW1 6486   2.710   2.065   1.792
 2155SOL    HW2 6487   2.570   2.145   1.814
 2156SOL     OW 6488   2.750   3.376   1.195
 2156SOL    HW1 6489   2.727   3.351   1.101
 2156SOL    HW2 6490   2.811   3.307   1.234
 2157SOL     OW 6491   3.213   2.452   1.433
 2157SOL    HW1 6492   3.241   2.409   1.518
 2157SOL    HW2 6493   3.238   2.548   1.434
 2158SOL     OW 6494   2.665   3.264   0.924
 2158SOL    HW1 6495   2.755   3.278   0.882
 2158SOL    HW2 6496   2.594   3.266   0.853
 2159SOL     OW 6497   2.784   2.365   0.899
 2159SOL    HW1 6498   2.759   2.356   0.803
 2159SOL    HW2 6499   2.832   2.283   0.930
 2160SOL     OW 6500   2.401   1.926   0.512
 2160SOL    HW1 6501   2.320   1.927   0.570
 2160SOL    HW2 6502   2.404   2.009   0.457
 2161SOL     OW 6503   3.296   3.050   0.041
 2161SOL    HW1 6504   3.328   2.974   0.098
 2161SOL    HW2 6505   3.204   3.077   0.071
 2162SOL     OW 6506   2.159   1.897   0.171
 2162SOL    HW1 6507   2.208   1.981   0.150
 2162SOL    HW2 6508   2.221   1.832   0.216
 2163SOL     OW 6509   2.797   2.098   0.480
 2163SOL    HW1 6510   2.749   2.139   0.402
 2163SOL    HW2 6511   2.896   2.096   0.461
 2164SOL     OW 6512   2.938   2.545   1.464
 2164SOL    HW1 6513   2.858   2.484   1.467
 2164SOL    HW2 6514   3.019   2.492   1.440
 2165SOL     OW 6515   3.089   3.432   0.793
 2165SOL    HW1 6516   3.110   3.506   0.728
 2165SOL    HW2 6517   3.157   3.432   0.866
 2166SOL     OW 6518   2.321   3.014   0.741
 2166SOL    HW1 6519   2.250   2.987   0.806
 2166SOL    HW2 6520   2.295   2.986   0.648
 2167SOL     OW 6521   3.133   3.659   0.591
 2167SOL    HW1 6522   3.177   3.723   0.527
 2167SOL    HW2 6523   3.083   3.711   0.661
 2168SOL     OW 6524   2.894   2.411   0.016
 2168SOL    HW1 6525   2.853   2.493  -0.023
 2168SOL    HW2 6526   2.958   2.437   0.089
 2169SOL     OW 6527   1.940   2.418   1.386
 2169SOL    HW1 6528   2.032   2.417   1.345
 2169SOL    HW2 6529   1.934   2.492   1.453
 2170SOL     OW 6530   2.423   2.084   1.147
 2170SOL    HW1 6531   2.461   2.000   1.184
 2170SOL    HW2 6532   2.335   2.103   1.191
 2171SOL     OW 6533   2.728   2.316   0.642
 2171SOL    HW1 6534   2.696   2.388   0.580
 2171SOL    HW2 6535   2.752   2.235   0.589
 2172SOL     OW 6536   2.879   1.901   0.753
 2172SOL    HW1 6537   2.807   1.906   0.684
 2172SOL    HW2 6538   2.855   1.832   0.822
 2173SOL     OW 6539   3.291   3.035   0.867
 2173SOL    HW1 6540   3.236   2.951   0.860
 2173SOL    HW2 6541   3.317   3.064   0.775
 2174SOL     OW 6542   3.328   2.452   0.992
 2174SOL    HW1 6543   3.298   2.357   0.999
 2174SOL    HW2 6544   3.401   2.468   1.058
 2175SOL     OW 6545   3.719   2.695   0.377
 2175SOL    HW1 6546   3.761   2.631   0.441
 2175SOL    HW2 6547   3.681   2.644   0.299
 2176SOL     OW 6548   2.350   3.247   0.174
 2176SOL    HW1 6549   2.263   3.232   0.221
 2176SOL    HW2 6550   2.333   3.273   0.079
 2177SOL     OW 6551   3.526   3.142   0.657
 2177SOL    HW1 6552   3.625   3.150   0.671
 2177SOL    HW2 6553   3.481   3.226   0.688
 2178SOL     OW 6554   3.252   2.437   0.078
 2178SOL    HW1 6555   3.198   2.416   0.159
 2178SOL    HW2 6556   3.343   2.396   0.087
 2179SOL     OW 6557   2.389   2.118   0.328
 2179SOL    HW1 6558   2.416   2.059   0.253
 2179SOL    HW2 6559   2.389   2.213   0.297
 2180SOL     OW 6560   3.616   3.085   1.588
 2180SOL    HW1 6561   3.707   3.046   1.575
 2180SOL    HW2 6562   3.624   3.181   1.612
 2181SOL     OW 6563   2.926   3.209   1.340
 2181SOL    HW1 6564   2.846   3.186   1.395
 2181SOL    HW2 6565   3.009   3.183   1.389
 2182SOL     OW 6566   3.454   3.491   1.625
 2182SOL    HW1 6567   3.481   3.525   1.535
 2182SOL    HW2 6568   3.533   3.453   1.671
 2183SOL     OW 6569   2.973   3.057   1.100
 2183SOL    HW1 6570   2.933   3.101   1.181
 2183SOL    HW2 6571   2.932   3.094   1.017
 2184SOL     OW 6572   3.500   2.961   1.079
 2184SOL    HW1 6573   3.505   3.042   1.138
 2184SOL    HW2 6574   3.414   2.963   1.028
 2185SOL     OW 6575   2.777   1.951   1.402
 2185SOL    HW1 6576   2.802   1.931   1.307
 2185SOL    HW2 6577   2.849   2.007   1.444
 2186SOL     OW 6578   2.842   2.978   1.719
 2186SOL    HW1 6579   2.743   2.984   1.729
 2186SOL    HW2 6580   2.865   2.898   1.663
 2187SOL     OW 6581   2.567   2.912   0.368
 2187SOL    HW1 6582   2.553   2.919   0.467
 2187SOL    HW2 6583   2.651   2.861   0.350
 2188SOL     OW 6584   2.272   2.675   1.251
 2188SOL    HW1 6585   2.358   2.687   1.301
 2188SOL    HW2 6586   2.230   2.588   1.278
 2189SOL     OW 6587   3.136   2.248   1.262
 2189SOL    HW1 6588   3.157   2.322   1.326
 2189SOL    HW2 6589   3.047   2.265   1.219
 2190SOL     OW 6590   1.926   3.426   1.331
 2190SOL    HW1 6591   1.880   3.508   1.297
 2190SOL    HW2 6592   2.024   3.445   1.340
 2191SOL     OW 6593   2.229   2.962   0.501
 2191SOL    HW1 6594   2.222   3.045   0.445
 2191SOL    HW2 6595   2.233   2.882   0.441
 2192SOL     OW 6596   2.428   2.399   0.865
 2192SOL    HW1 6597   2.440   2.465   0.791
 2192SOL    HW2 6598   2.474   2.433   0.948
 2193SOL     OW 6599   3.114   3.210   0.388
 2193SOL    HW1 6600   3.164   3.287   0.428
 2193SOL    HW2 6601   3.019   3.212   0.420
 2194SOL     OW 6602   3.134   3.307   1.142
 2194SOL    HW1 6603   3.181   3.320   1.229
 2194SOL    HW2 6604   3.068   3.233   1.151
 2195SOL     OW 6605   3.444   2.501   0.472
 2195SOL    HW1 6606   3.413   2.562   0.545
 2195SOL    HW2 6607   3.494   2.553   0.403
 2196SOL     OW 6608   2.216   3.372   1.329
 2196SOL    HW1 6609   2.195   3.328   1.242
 2196SOL    HW2 6610   2.313   3.398   1.332
 2197SOL     OW 6611   2.264   2.613   1.598
 2197SOL    HW1 6612   2.332   2.668   1.551
 2197SOL    HW2 6613   2.304   2.525   1.625
 2198SOL     OW 6614   3.449   2.641   1.670
 2198SOL    HW1 6615   3.357   2.679   1.665
 2198SOL    HW2 6616   3.509   2.688   1.605
 2199SOL     OW 6617   2.875   1.967   1.770
 2199SOL    HW1 6618   2.881   2.052   1.718
 2199SOL    HW2 6619   2.907   1.891   1.713
 2200SOL     OW 6620   2.366   1.912   1.740
 2200SOL    HW1 6621   2.324   1.855   1.670
 2200SOL    HW2 6622   2.300   1.981   1.772
 2201SOL     OW 6623   2.435   2.732   1.029
 2201SOL    HW1 6624   2.479   2.821   1.020
 2201SOL    HW2 6625   2.372   2.732   1.106
 2202SOL     OW 6626   3.222   2.724   1.045
 2202SOL    HW1 6627   3.147   2.724   0.979
 2202SOL    HW2 6628   3.259   2.632   1.054
 2203SOL     OW 6629   3.071   2.387   0.275
 2203SOL    HW1 6630   3.084   2.303   0.329
 2203SOL    HW2 6631   3.042   2.461   0.335
 2204SOL     OW 6632   2.169   2.075   1.231
 2204SOL    HW1 6633   2.146   2.112   1.321
 2204SOL    HW2 6634   2.139   1.980   1.225
 2205SOL     OW 6635   1.899   3.172   1.282
 2205SOL    HW1 6636   1.952   3.123   1.350
 2205SOL    HW2 6637   1.921   3.270   1.287
 2206SOL     OW 6638   2.594   2.496   1.064
 2206SOL    HW1 6639   2.653   2.470   0.988
 2206SOL    HW2 6640   2.566   2.592   1.053
 2207SOL     OW 6641   3.590   2.797   1.854
 2207SOL    HW1 6642   3.544   2.790   1.765
 2207SOL    HW2 6643   3.528   2.841   1.920
 2208SOL     OW 6644   2.169   1.925   0.618
 2208SOL    HW1 6645   2.158   2.019   0.651
 2208SOL    HW2 6646   2.164   1.862   0.695
 2209SOL     OW 6647   3.484   2.229   0.374
 2209SOL    HW1 6648   3.486   2.153   0.438
 2209SOL    HW2 6649   3.436   2.306   0.414
 2210SOL     OW 6650   2.885   2.628   0.966
 2210SOL    HW1 6651   2.900   2.649   1.062
 2210SOL    HW2 6652   2.855   2.533   0.957
 2211SOL     OW 6653   2.842   3.435   1.700
 2211SOL    HW1 6654   2.822   3.479   1.612
 2211SOL    HW2 6655   2.881   3.344   1.684
 2212SOL     OW 6656   3.721   3.380   1.605
 2212SOL    HW1 6657   3.735   3.407   1.510
 2212SOL    HW2 6658   3.804   3.402   1.658
 2213SOL     OW 6659   2.212   2.760   1.804
 2213SOL    HW1 6660   2.288   2.804   1.852
 2213SOL    HW2 6661   2.247   2.713   1.722
 2214SOL     OW 6662   3.402   2.136   0.125
 2214SOL    HW1 6663   3.341   2.061   0.148
 2214SOL    HW2 6664   3.424   2.188   0.208
 2215SOL     OW 6665   3.165   2.700   0.042
 2215SOL    HW1 6666   3.199   2.607   0.057
 2215SOL    HW2 6667   3.183   2.727  -0.053
 2216SOL     OW 6668   2.930   3.195   0.849
 2216SOL    HW1 6669   2.937   3.111   0.794
 2216SOL    HW2 6670   2.992   3.264   0.813
 2217SOL     OW 6671   2.181   2.672   0.949
 2217SOL    HW1 6672   2.274   2.708   0.954
 2217SOL    HW2 6673   2.175   2.587   1.001
 2218SOL     OW 6674   2.201   2.371   1.006
 2218SOL    HW1 6675   2.149   2.288   0.989
 2218SOL    HW2 6676   2.278   2.376   0.942
 2219SOL     OW 6677   3.000   2.242   1.678
 2219SOL    HW1 6678   2.955   2.305   1.742
 2219SOL    HW2 6679   3.093   2.273   1.661
 2220SOL     OW 6680   3.022   2.069   1.477
 2220SOL    HW1 6681   3.022   2.133   1.554
 2220SOL    HW2 6682   3.050   2.117   1.394
 2221SOL     OW 6683   1.870   3.188   0.200
 2221SOL    HW1 6684   1.777   3.209   0.169
 2221SOL    HW2 6685   1.880   3.089   0.213
 2222SOL     OW 6686   1.950   3.663   0.927
 2222SOL    HW1 6687   1.908   3.577   0.900
 2222SOL    HW2 6688   2.044   3.666   0.893
 2223SOL     OW 6689   2.366   3.430   0.910
 2223SOL    HW1 6690   2.432   3.504   0.919
 2223SOL    HW2 6691   2.410   3.351   0.868
 2224SOL     OW 6692   2.864   2.658   1.238
 2224SOL    HW1 6693   2.905   2.626   1.324
 2224SOL    HW2 6694   2.768   2.631   1.235
 2225SOL     OW 6695   1.902   2.406   1.114
 2225SOL    HW1 6696   1.987   2.373   1.073
 2225SOL    HW2 6697   1.915   2.421   1.212
 2226SOL     OW 6698   2.051   2.382   1.722
 2226SOL    HW1 6699   2.110   2.342   1.652
 2226SOL    HW2 6700   1.993   2.453   1.681
 2227SOL     OW 6701   3.231   2.812   1.660
 2227SOL    HW1 6702   3.270   2.901   1.680
 2227SOL    HW2 6703   3.241   2.792   1.563
 2228SOL     OW 6704   2.677   2.434   0.325
 2228SOL    HW1 6705   2.684   2.345   0.279
 2228SOL    HW2 6706   2.583   2.468   0.317
 2229SOL     OW 6707   3.519   2.466   1.206
 2229SOL    HW1 6708   3.481   2.397   1.268
 2229SOL    HW2 6709   3.601   2.430   1.162
 2230SOL     OW 6710   2.114   3.426   1.744
 2230SOL    HW1 6711   2.084   3.483   1.820
 2230SOL    HW2 6712   2.107   3.329   1.770
 2231SOL     OW 6713   2.533   2.326   1.269
 2231SOL    HW1 6714   2.499   2.237   1.239
 2231SOL    HW2 6715   2.559   2.380   1.189
 2232SOL     OW 6716   2.792   3.540   1.465
 2232SOL    HW1 6717   2.768   3.522   1.370
 2232SOL    HW2 6718   2.822   3.634   1.475
 2233SOL     OW 6719   2.335   2.362   0.191
 2233SOL    HW1 6720   2.396   2.442   0.195
 2233SOL    HW2 6721   2.240   2.393   0.198
 2234SOL     OW 6722   2.021   2.999   1.466
 2234SOL    HW1 6723   2.043   2.938   1.542
 2234SOL    HW2 6724   2.031   2.950   1.380
 2235SOL     OW 6725   3.209   2.921   1.234
 2235SOL    HW1 6726   3.233   2.858   1.160
 2235SOL    HW2 6727   3.119   2.961   1.216
 2236SOL     OW 6728   3.164   2.717   0.309
 2236SOL    HW1 6729   3.078   2.686   0.351
 2236SOL    HW2 6730   3.160   2.703   0.210
 2237SOL     OW 6731   3.621   3.609   1.154
 2237SOL    HW1 6732   3.682   3.639   1.081
 2237SOL    HW2 6733   3.583   3.520   1.132
 2238SOL     OW 6734   3.114   3.593   1.128
 2238SOL    HW1 6735   3.198   3.598   1.074
 2238SOL    HW2 6736   3.091   3.497   1.146
 2239SOL     OW 6737   1.945   3.120   1.022
 2239SOL    HW1 6738   1.940   3.119   1.122
 2239SOL    HW2 6739   1.862   3.079   0.984
 2240SOL     OW 6740   2.550   3.524   1.716
 2240SOL    HW1 6741   2.494   3.605   1.725
 2240SOL    HW2 6742   2.602   3.528   1.630
 2241SOL     OW 6743   2.765   1.948   0.133
 2241SOL    HW1 6744   2.816   1.949   0.047
 2241SOL    HW2 6745   2.821   1.906   0.204
 2242SOL     OW 6746   3.588   1.997   0.523
 2242SOL    HW1 6747   3.661   1.980   0.456
 2242SOL    HW2 6748   3.557   1.910   0.561
 2243SOL     OW 6749   3.250   3.435   0.477
 2243SOL    HW1 6750   3.317   3.447   0.403
 2243SOL    HW2 6751   3.210   3.524   0.500
 2244SOL     OW 6752   1.992   3.656   1.851
 2244SOL    HW1 6753   1.951   3.582   1.904
 2244SOL    HW2 6754   2.056   3.707   1.909
 2245SOL     OW 6755   3.142   2.789   0.672
 2245SOL    HW1 6756   3.202   2.708   0.674
 2245SOL    HW2 6757   3.182   2.858   0.612
 2246SOL     OW 6758   2.692   3.135   1.422
 2246SOL    HW1 6759   2.687   3.168   1.517
 2246SOL    HW2 6760   2.606   3.154   1.376
 2247SOL     OW 6761   2.534   3.478   0.154
 2247SOL    HW1 6762   2.543   3.488   0.055
 2247SOL    HW2 6763   2.494   3.389   0.175
 2248SOL     OW 6764   3.512   3.582   1.394
 2248SOL    HW1 6765   3.565   3.592   1.310
 2248SOL    HW2 6766   3.485   3.672   1.428
 2249SOL     OW 6767   3.703   2.037   0.963
 2249SOL    HW1 6768   3.742   1.952   0.927
 2249SOL    HW2 6769   3.605   2.039   0.944
 2250SOL     OW 6770   2.125   2.188   0.720
 2250SOL    HW1 6771   2.046   2.239   0.686
 2250SOL    HW2 6772   2.116   2.173   0.818
 2251SOL     OW 6773   3.056   3.474   0.031
 2251SOL    HW1 6774   3.062   3.381   0.068
 2251SOL    HW2 6775   2.997   3.474  -0.049
 2252SOL     OW 6776   2.684   2.864   1.372
 2252SOL    HW1 6777   2.724   2.863   1.280
 2252SOL    HW2 6778   2.694   2.956   1.412
 2253SOL     OW 6779   2.778   2.772   0.291
 2253SOL    HW1 6780   2.841   2.810   0.223
 2253SOL    HW2 6781   2.818   2.689   0.330
 2254SOL     OW 6782   3.366   3.469   0.044
 2254SOL    HW1 6783   3.274   3.506   0.051
 2254SOL    HW2 6784   3.404   3.489  -0.046
 2255SOL     OW 6785   2.234   3.150   1.490
 2255SOL    HW1 6786   2.221   3.243   1.456
 2255SOL    HW2 6787   2.150   3.098   1.477
 2256SOL     OW 6788   3.476   3.154   1.289
 2256SOL    HW1 6789   3.536   3.157   1.369
 2256SOL    HW2 6790   3.401   3.218   1.302
 2257SOL     OW 6791   2.901   2.960   0.696
 2257SOL    HW1 6792   2.831   2.913   0.750
 2257SOL    HW2 6793   2.960   2.892   0.653
 2258SOL     OW 6794   2.876   2.098   0.971
 2258SOL    HW1 6795   2.868   2.062   0.878
 2258SOL    HW2 6796   2.874   2.022   1.036
 2259SOL     OW 6797   2.452   3.349   0.491
 2259SOL    HW1 6798   2.494   3.291   0.421
 2259SOL    HW2 6799   2.408   3.428   0.447
 2260SOL     OW 6800   3.571   2.247   1.381
 2260SOL    HW1 6801   3.644   2.316   1.385
 2260SOL    HW2 6802   3.599   2.172   1.322
 2261SOL     OW 6803   2.117   3.210   0.290
 2261SOL    HW1 6804   2.021   3.211   0.263
 2261SOL    HW2 6805   2.129   3.263   0.374
 2262SOL     OW 6806   1.967   2.875   1.726
 2262SOL    HW1 6807   1.890   2.842   1.780
 2262SOL    HW2 6808   2.052   2.845   1.768
 2263SOL     OW 6809   2.534   2.065   1.489
 2263SOL    HW1 6810   2.624   2.049   1.449
 2263SOL    HW2 6811   2.542   2.070   1.588
 2264SOL     OW 6812   3.302   2.718   1.398
 2264SOL    HW1 6813   3.245   2.770   1.335
 2264SOL    HW2 6814   3.398   2.730   1.374
 2265SOL     OW 6815   1.934   2.028   0.318
 2265SOL    HW1 6816   1.917   2.111   0.264
 2265SOL    HW2 6817   2.024   1.991   0.296
 2266SOL     OW 6818   3.045   3.197   0.119
 2266SOL    HW1 6819   2.946   3.186   0.121
 2266SOL    HW2 6820   3.079   3.212   0.212
 2267SOL     OW 6821   2.475   2.704   1.431
 2267SOL    HW1 6822   2.531   2.785   1.414
 2267SOL    HW2 6823   2.534   2.624   1.434
 2268SOL     OW 6824   3.355   3.629   0.959
 2268SOL    HW1 6825   3.388   3.693   0.890
 2268SOL    HW2 6826   3.421   3.623   1.034
 2269SOL     OW 6827   2.578   2.427   1.708
 2269SOL    HW1 6828   2.597   2.492   1.782
 2269SOL    HW2 6829   2.638   2.347   1.717
 2270SOL     OW 6830   3.312   3.082   1.633
 2270SOL    HW1 6831   3.303   3.072   1.732
 2270SOL    HW2 6832   3.408   3.075   1.607
 2271SOL     OW 6833   2.252   3.603   1.560
 2271SOL    HW1 6834   2.161   3.644   1.558
 2271SOL    HW2 6835   2.245   3.509   1.592
 2272SOL     OW 6836   3.536   2.745   1.254
 2272SOL    HW1 6837   3.509   2.656   1.217
 2272SOL    HW2 6838   3.537   2.813   1.181
 2273SOL     OW 6839   3.087   2.187   0.449
 2273SOL    HW1 6840   3.152   2.113   0.438
 2273SOL    HW2 6841   3.107   2.237   0.533
 2274SOL     OW 6842   2.456   2.607   0.652
 2274SOL    HW1 6843   2.506   2.692   0.633
 2274SOL    HW2 6844   2.368   2.609   0.604
 2275SOL     OW 6845   3.639   2.204   1.642
 2275SOL    HW1 6846   3.622   2.235   1.548
 2275SOL    HW2 6847   3.555   2.167   1.680
 2276SOL     OW 6848   3.592   2.796   1.517
 2276SOL    HW1 6849   3.630   2.887   1.532
 2276SOL    HW2 6850   3.584   2.779   1.418
 2277SOL     OW 6851   2.721   3.236   0.016
 2277SOL    HW1 6852   2.675   3.251   0.104
 2277SOL    HW2 6853   2.765   3.321  -0.014
 2278SOL     OW 6854   2.523   3.652   0.953
 2278SOL    HW1 6855   2.477   3.740   0.940
 2278SOL    HW2 6856   2.622   3.664   0.946
 2279SOL     OW 6857   2.721   2.818   0.861
 2279SOL    HW1 6858   2.775   2.749   0.909
 2279SOL    HW2 6859   2.689   2.887   0.927
 2280SOL     OW 6860   2.945   2.846   0.087
 2280SOL    HW1 6861   2.922   2.899   0.005
 2280SOL    HW2 6862   3.026   2.790   0.068
 2281SOL     OW 6863   3.723   3.431   0.851
 2281SOL    HW1 6864   3.652   3.419   0.781
 2281SOL    HW2 6865   3.724   3.352   0.911
 2282SOL     OW 6866   2.083   3.176   1.844
 2282SOL    HW1 6867   2.018   3.103   1.823
 2282SOL    HW2 6868   2.087   3.190   1.942
 2283SOL     OW 6869   1.941   3.102   0.653
 2283SOL    HW1 6870   1.940   3.055   0.741
 2283SOL    HW2 6871   2.023   3.074   0.602
 2284SOL     OW 6872   2.534   3.253   1.624
 2284SOL    HW1 6873   2.456   3.203   1.662
 2284SOL    HW2 6874   2.531   3.348   1.655
 2285SOL     OW 6875   3.686   2.054   1.227
 2285SOL    HW1 6876   3.682   1.964   1.271
 2285SOL    HW2 6877   3.689   2.043   1.128
 2286SOL     OW 6878   2.290   2.286   0.520
 2286SOL    HW1 6879   2.320   2.214   0.458
 2286SOL    HW2 6880   2.251   2.246   0.603
 2287SOL     OW 6881   3.567   3.349   1.104
 2287SOL    HW1 6882   3.474   3.324   1.077
 2287SOL    HW2 6883   3.593   3.299   1.186
 2288SOL     OW 6884   2.179   2.409   1.280
 2288SOL    HW1 6885   2.217   2.350   1.352
 2288SOL    HW2 6886   2.219   2.383   1.192
 2289SOL     OW 6887   2.674   3.448   0.687
 2289SOL    HW1 6888   2.706   3.458   0.593
 2289SOL    HW2 6889   2.595   3.386   0.689
 2290SOL     OW 6890   3.286   2.076   1.112
 2290SOL    HW1 6891   3.338   2.011   1.167
 2290SOL    HW2 6892   3.237   2.139   1.173
 2291SOL     OW 6893   2.863   1.896   1.154
 2291SOL    HW1 6894   2.800   1.824   1.123
 2291SOL    HW2 6895   2.956   1.860   1.154
 2292SOL     OW 6896   2.632   3.192   0.301
 2292SOL    HW1 6897   2.586   3.105   0.318
 2292SOL    HW2 6898   2.723   3.189   0.342
 2293SOL     OW 6899   2.480   3.429   1.284
 2293SOL    HW1 6900   2.475   3.511   1.341
 2293SOL    HW2 6901   2.569   3.426   1.239
 2294SOL     OW 6902   3.214   1.914   0.168
 2294SOL    HW1 6903   3.249   1.873   0.084
 2294SOL    HW2 6904   3.124   1.876   0.188
 2295SOL     OW 6905   3.162   2.315   0.691
 2295SOL    HW1 6906   3.103   2.395   0.695
 2295SOL    HW2 6907   3.177   2.280   0.784
 2296SOL     OW 6908   3.455   2.083   0.882
 2296SOL    HW1 6909   3.371   2.082   0.936
 2296SOL    HW2 6910   3.457   2.166   0.826
 2297SOL     OW 6911   2.737   3.508   0.337
 2297SOL    HW1 6912   2.660   3.473   0.283
 2297SOL    HW2 6913   2.705   3.579   0.399
 2298SOL     OW 6914   2.092   2.490   1.975
 2298SOL    HW1 6915   1.999   2.488   2.012
 2298SOL    HW2 6916   2.093   2.451   1.883
 2299SOL     OW 6917   2.087   2.137   2.858
 2299SOL    HW1 6918   2.122   2.120   2.950
 2299SOL    HW2 6919   1.999   2.092   2.846
 2300SOL     OW 6920   1.881   2.230   2.509
 2300SOL    HW1 6921   1.799   2.273   2.548
 2300SOL    HW2 6922   1.853   2.157   2.446
 2301SOL     OW 6923   2.431   3.137   3.027
 2301SOL    HW1 6924   2.338   3.130   2.990
 2301SOL    HW2 6925   2.442   3.226   3.071
 2302SOL     OW 6926   3.417   3.373   2.565
 2302SOL    HW1 6927   3.360   3.357   2.646
 2302SOL    HW2 6928   3.358   3.383   2.485
 2303SOL     OW 6929   2.997   2.565   2.579
 2303SOL    HW1 6930   3.054   2.643   2.554
 2303SOL    HW2 6931   2.937   2.591   2.655
 2304SOL     OW 6932   3.617   2.469   2.093
 2304SOL    HW1 6933   3.605   2.456   1.994
 2304SOL    HW2 6934   3.587   2.388   2.142
 2305SOL     OW 6935   2.630   3.006   2.885
 2305SOL    HW1 6936   2.552   3.023   2.945
 2305SOL    HW2 6937   2.664   3.093   2.849
 2306SOL     OW 6938   2.712   2.660   3.685
 2306SOL    HW1 6939   2.708   2.736   3.750
 2306SOL    HW2 6940   2.734   2.696   3.594
 2307SOL     OW 6941   2.547   2.874   2.527
 2307SOL    HW1 6942   2.616   2.858   2.597
 2307SOL    HW2 6943   2.474   2.931   2.565
 2308SOL     OW 6944   2.548   3.023   3.665
 2308SOL    HW1 6945   2.608   3.102   3.679
 2308SOL    HW2 6946   2.462   3.054   3.624
 2309SOL     OW 6947   2.197   3.297   2.923
 2309SOL    HW1 6948   2.119   3.266   2.870
 2309SOL    HW2 6949   2.255   3.355   2.866
 2310SOL     OW 6950   3.322   3.367   3.201
 2310SOL    HW1 6951   3.346   3.461   3.227
 2310SOL    HW2 6952   3.306   3.313   3.283
 2311SOL     OW 6953   2.300   2.254   3.361
 2311SOL    HW1 6954   2.382   2.198   3.370
 2311SOL    HW2 6955   2.219   2.196   3.365
 2312SOL     OW 6956   3.465   2.309   2.599
 2312SOL    HW1 6957   3.391   2.355   2.549
 2312SOL    HW2 6958   3.516   2.377   2.652
 2313SOL     OW 6959   2.093   3.575   2.345
 2313SOL    HW1 6960   2.127   3.652   2.399
 2313SOL    HW2 6961   2.137   3.575   2.255
 2314SOL     OW 6962   2.989   3.203   3.552
 2314SOL    HW1 6963   3.036   3.203   3.640
 2314SOL    HW2 6964   2.941   3.116   3.541
 2315SOL     OW 6965   2.092   3.296   2.400
 2315SOL    HW1 6966   2.066   3.392   2.400
 2315SOL    HW2 6967   2.021   3.242   2.445
 2316SOL     OW 6968   2.102   2.953   2.748
 2316SOL    HW1 6969   2.116   2.869   2.800
 2316SOL    HW2 6970   2.047   3.017   2.803
 2317SOL     OW 6971   2.482   3.648   3.301
 2317SOL    HW1 6972   2.390   3.631   3.336
 2317SOL    HW2 6973   2.510   3.740   3.327
 2318SOL     OW 6974   2.468   2.826   1.985
 2318SOL    HW1 6975   2.475   2.910   1.931
 2318SOL    HW2 6976   2.514   2.839   2.073
 2319SOL     OW 6977   3.456   1.976   3.342
 2319SOL    HW1 6978   3.438   2.043   3.270
 2319SOL    HW2 6979   3.453   2.022   3.431
 2320SOL     OW 6980   1.984   2.505   2.425
 2320SOL    HW1 6981   1.939   2.417   2.442
 2320SOL    HW2 6982   1.983   2.559   2.509
 2321SOL     OW 6983   3.704   3.629   2.221
 2321SOL    HW1 6984   3.758   3.600   2.301
 2321SOL    HW2 6985   3.734   3.719   2.192
 2322SOL     OW 6986   1.889   3.458   1.979
 2322SOL    HW1 6987   1.870   3.362   2.000
 2322SOL    HW2 6988   1.856   3.516   2.054
 2323SOL     OW 6989   3.551   2.784   2.474
 2323SOL    HW1 6990   3.646   2.755   2.482
 2323SOL    HW2 6991   3.543   2.849   2.399
 2324SOL     OW 6992   3.503   2.970   2.294
 2324SOL    HW1 6993   3.589   2.972   2.242
 2324SOL    HW2 6994   3.517   3.017   2.382
 2325SOL     OW 6995   1.975   2.599   3.459
 2325SOL    HW1 6996   2.063   2.586   3.504
 2325SOL    HW2 6997   1.962   2.696   3.437
 2326SOL     OW 6998   2.475   3.227   2.588
 2326SOL    HW1 6999   2.426   3.140   2.597
 2326SOL    HW2 7000   2.452   3.270   2.501
 2327SOL     OW 7001   3.155   3.090   3.285
 2327SOL    HW1 7002   3.192   3.017   3.227
 2327SOL    HW2 7003   3.207   3.095   3.370
 2328SOL     OW 7004   2.671   1.866   2.364
 2328SOL    HW1 7005   2.711   1.957   2.355
 2328SOL    HW2 7006   2.571   1.874   2.370
 2329SOL     OW 7007   2.059   2.838   3.126
 2329SOL    HW1 7008   2.148   2.793   3.112
 2329SOL    HW2 7009   1.986   2.773   3.107
 2330SOL     OW 7010   3.387   2.861   2.052
 2330SOL    HW1 7011   3.324   2.785   2.065
 2330SOL    HW2 7012   3.435   2.879   2.138
 2331SOL     OW 7013   3.049   3.654   3.478
 2331SOL    HW1 7014   3.073   3.714   3.402
 2331SOL    HW2 7015   3.056   3.559   3.448
 2332SOL     OW 7016   2.179   2.113   3.663
 2332SOL    HW1 7017   2.250   2.184   3.669
 2332SOL    HW2 7018   2.091   2.152   3.691
 2333SOL     OW 7019   3.328   3.279   2.815
 2333SOL    HW1 7020   3.269   3.285   2.895
 2333SOL    HW2 7021   3.313   3.191   2.769
 2334SOL     OW 7022   3.529   3.576   2.434
 2334SOL    HW1 7023   3.488   3.553   2.346
 2334SOL    HW2 7024   3.511   3.502   2.499
 2335SOL     OW 7025   2.460   2.591   2.132
 2335SOL    HW1 7026   2.484   2.660   2.064
 2335SOL    HW2 7027   2.382   2.624   2.186
 2336SOL     OW 7028   3.143   2.207   2.806
 2336SOL    HW1 7029   3.057   2.157   2.793
 2336SOL    HW2 7030   3.205   2.153   2.862
 2337SOL     OW 7031   3.438   3.524   2.169
 2337SOL    HW1 7032   3.527   3.570   2.172
 2337SOL    HW2 7033   3.417   3.500   2.074
 2338SOL     OW 7034   2.669   2.467   3.327
 2338SOL    HW1 7035   2.622   2.464   3.416
 2338SOL    HW2 7036   2.618   2.412   3.261
 2339SOL     OW 7037   3.256   2.331   3.536
 2339SOL    HW1 7038   3.236   2.374   3.624
 2339SOL    HW2 7039   3.334   2.269   3.545
 2340SOL     OW 7040   2.835   2.752   3.434
 2340SOL    HW1 7041   2.881   2.668   3.405
 2340SOL    HW2 7042   2.779   2.786   3.359
 2341SOL     OW 7043   2.853   2.272   3.104
 2341SOL    HW1 7044   2.776   2.306   3.158
 2341SOL    HW2 7045   2.819   2.221   3.025
 2342SOL     OW 7046   2.903   2.563   2.291
 2342SOL    HW1 7047   2.929   2.559   2.387
 2342SOL    HW2 7048   2.818   2.512   2.277
 2343SOL     OW 7049   1.938   2.673   2.651
 2343SOL    HW1 7050   2.037   2.661   2.660
 2343SOL    HW2 7051   1.914   2.768   2.672
 2344SOL     OW 7052   1.992   3.683   3.433
 2344SOL    HW1 7053   1.982   3.668   3.532
 2344SOL    HW2 7054   1.906   3.719   3.397
 2345SOL     OW 7055   2.727   2.210   2.057
 2345SOL    HW1 7056   2.786   2.273   2.008
 2345SOL    HW2 7057   2.746   2.116   2.028
 2346SOL     OW 7058   3.581   2.447   3.693
 2346SOL    HW1 7059   3.555   2.536   3.657
 2346SOL    HW2 7060   3.579   2.379   3.620
 2347SOL     OW 7061   3.224   3.006   2.407
 2347SOL    HW1 7062   3.307   2.977   2.359
 2347SOL    HW2 7063   3.175   3.073   2.351
 2348SOL     OW 7064   2.412   2.058   2.747
 2348SOL    HW1 7065   2.407   2.053   2.847
 2348SOL    HW2 7066   2.414   2.154   2.718
 2349SOL     OW 7067   2.870   3.318   2.339
 2349SOL    HW1 7068   2.824   3.390   2.287
 2349SOL    HW2 7069   2.866   3.338   2.437
 2350SOL     OW 7070   2.213   3.663   2.715
 2350SOL    HW1 7071   2.263   3.577   2.721
 2350SOL    HW2 7072   2.278   3.740   2.712
 2351SOL     OW 7073   3.657   2.928   2.735
 2351SOL    HW1 7074   3.595   2.913   2.659
 2351SOL    HW2 7075   3.605   2.939   2.820
 2352SOL     OW 7076   3.089   3.412   3.368
 2352SOL    HW1 7077   3.095   3.335   3.432
 2352SOL    HW2 7078   3.037   3.386   3.288
 2353SOL     OW 7079   2.183   2.805   2.104
 2353SOL    HW1 7080   2.265   2.844   2.062
 2353SOL    HW2 7081   2.156   2.723   2.055
 2354SOL     OW 7082   3.320   2.597   2.590
 2354SOL    HW1 7083   3.315   2.532   2.665
 2354SOL    HW2 7084   3.400   2.656   2.603
 2355SOL     OW 7085   2.323   3.128   3.589
 2355SOL    HW1 7086   2.273   3.129   3.503
 2355SOL    HW2 7087   2.260   3.110   3.665
 2356SOL     OW 7088   2.973   3.638   2.099
 2356SOL    HW1 7089   2.913   3.576   2.149
 2356SOL    HW2 7090   3.004   3.594   2.014
 2357SOL     OW 7091   2.064   2.147   3.360
 2357SOL    HW1 7092   1.984   2.207   3.347
 2357SOL    HW2 7093   2.054   2.098   3.446
 2358SOL     OW 7094   3.494   3.239   1.943
 2358SOL    HW1 7095   3.462   3.333   1.933
 2358SOL    HW2 7096   3.418   3.176   1.931
 2359SOL     OW 7097   2.326   3.605   2.185
 2359SOL    HW1 7098   2.359   3.644   2.271
 2359SOL    HW2 7099   2.402   3.598   2.120
 2360SOL     OW 7100   3.262   1.969   2.288
 2360SOL    HW1 7101   3.238   1.932   2.198
 2360SOL    HW2 7102   3.361   1.985   2.292
 2361SOL     OW 7103   2.111   3.647   3.103
 2361SOL    HW1 7104   2.168   3.582   3.153
 2361SOL    HW2 7105   2.095   3.614   3.010
 2362SOL     OW 7106   2.802   3.560   2.766
 2362SOL    HW1 7107   2.882   3.503   2.787
 2362SOL    HW2 7108   2.753   3.520   2.689
 2363SOL     OW 7109   3.409   2.084   3.591
 2363SOL    HW1 7110   3.404   2.121   3.683
 2363SOL    HW2 7111   3.337   2.015   3.579
 2364SOL     OW 7112   2.476   1.984   1.979
 2364SOL    HW1 7113   2.574   1.962   1.986
 2364SOL    HW2 7114   2.445   1.967   1.886
 2365SOL     OW 7115   2.643   2.126   3.611
 2365SOL    HW1 7116   2.710   2.065   3.654
 2365SOL    HW2 7117   2.570   2.145   3.676
 2366SOL     OW 7118   2.750   3.376   3.057
 2366SOL    HW1 7119   2.727   3.351   2.963
 2366SOL    HW2 7120   2.811   3.307   3.096
 2367SOL     OW 7121   3.213   2.452   3.295
 2367SOL    HW1 7122   3.241   2.409   3.380
 2367SOL    HW2 7123   3.238   2.548   3.296
 2368SOL     OW 7124   2.665   3.264   2.786
 2368SOL    HW1 7125   2.755   3.278   2.744
 2368SOL    HW2 7126   2.594   3.266   2.715
 2369SOL     OW 7127   2.784   2.365   2.761
 2369SOL    HW1 7128   2.759   2.356   2.665
 2369SOL    HW2 7129   2.832   2.283   2.792
 2370SOL     OW 7130   2.401   1.926   2.374
 2370SOL    HW1 7131   2.320   1.927   2.432
 2370SOL    HW2 7132   2.404   2.009   2.319
 2371SOL     OW 7133   3.296   3.050   1.903
 2371SOL    HW1 7134   3.328   2.974   1.960
 2371SOL    HW2 7135   3.204   3.077   1.933
 2372SOL     OW 7136   2.159   1.897   2.033
 2372SOL    HW1 7137   2.208   1.981   2.012
 2372SOL    HW2 7138   2.221   1.832   2.078
 2373SOL     OW 7139   2.797   2.098   2.342
 2373SOL    HW1 7140   2.749   2.139   2.264
 2373SOL    HW2 7141   2.896   2.096   2.323
 2374SOL     OW 7142   2.938   2.545   3.326
 2374SOL    HW1 7143   2.858   2.484   3.329
 2374SOL    HW2 7144   3.019   2.492   3.302
 2375SOL     OW 7145   3.089   3.432   2.655
 2375SOL    HW1 7146   3.110   3.506   2.590
 2375SOL    HW2 7147   3.157   3.432   2.728
 2376SOL     OW 7148   2.321   3.014   2.603
 2376SOL    HW1 7149   2.250   2.987   2.668
 2376SOL    HW2 7150   2.295   2.986   2.510
 2377SOL     OW 7151   3.133   3.659   2.453
 2377SOL    HW1 7152   3.177   3.723   2.389
 2377SOL    HW2 7153   3.083   3.711   2.523
 2378SOL     OW 7154   2.894   2.411   1.878
 2378SOL    HW1 7155   2.853   2.493   1.839
 2378SOL    HW2 7156   2.958   2.437   1.951
 2379SOL     OW 7157   1.940   2.418   3.248
 2379SOL    HW1 7158   2.032   2.417   3.207
 2379SOL    HW2 7159   1.934   2.492   3.315
 2380SOL     OW 7160   2.423   2.084   3.009
 2380SOL    HW1 7161   2.461   2.000   3.046
 2380SOL    HW2 7162   2.335   2.103   3.053
 2381SOL     OW 7163   2.728   2.316   2.504
 2381SOL    HW1 7164   2.696   2.388   2.442
 2381SOL    HW2 7165   2.752   2.235   2.451
 2382SOL     OW 7166   2.879   1.901   2.615
 2382SOL    HW1 7167   2.807   1.906   2.546
 2382SOL    HW2 7168   2.855   1.832   2.684
 2383SOL     OW 7169   3.291   3.035   2.729
 2383SOL    HW1 7170   3.236   2.951   2.722
 2383SOL    HW2 7171   3.317   3.064   2.637
 2384SOL     OW 7172   3.328   2.452   2.854
 2384SOL    HW1 7173   3.298   2.357   2.861
 2384SOL    HW2 7174   3.401   2.468   2.920
 2385SOL     OW 7175   3.719   2.695   2.239
 2385SOL    HW1 7176   3.761   2.631   2.303
 2385SOL    HW2 7177   3.681   2.644   2.161
 2386SOL     OW 7178   2.350   3.247   2.036
 2386SOL    HW1 7179   2.263   3.232   2.083
 2386SOL    HW2 7180   2.333   3.273   1.941
 2387SOL     OW 7181   3.526   3.142   2.519
 2387SOL    HW1 7182   3.625   3.150   2.533
 2387SOL    HW2 7183   3.481   3.226   2.550
 2388SOL     OW 7184   3.252   2.437   1.940
 2388SOL    HW1 7185   3.198   2.416   2.021
 2388SOL    HW2 7186   3.343   2.396   1.949
 2389SOL     OW 7187   3.616   3.085   3.450
 2389SOL    HW1 7188   3.707   3.046   3.437
 2389SOL    HW2 7189   3.624   3.181   3.474
 2390SOL     OW 7190   2.926   3.209   3.202
 2390SOL    HW1 7191   2.846   3.186   3.257
 2390SOL    HW2 7192   3.009   3.183   3.251
 2391SOL     OW 7193   3.454   3.491   3.487
 2391SOL    HW1 7194   3.481   3.525   3.397
 2391SOL    HW2 7195   3.533   3.453   3.533
 2392SOL     OW 7196   2.973   3.057   2.962
 2392SOL    HW1 7197   2.933   3.101   3.043
 2392SOL    HW2 7198   2.932   3.094   2.879
 2393SOL     OW 7199   3.500   2.961   2.941
 2393SOL    HW1 7200   3.505   3.042   3.000
 2393SOL    HW2 7201   3.414   2.963   2.890
 2394SOL     OW 7202   2.777   1.951   3.264
 2394SOL    HW1 7203   2.802   1.931   3.169
 2394SOL    HW2 7204   2.849   2.007   3.306
 2395SOL     OW 7205   2.842   2.978   3.581
 2395SOL    HW1 7206   2.743   2.984   3.591
 2395SOL    HW2 7207   2.865   2.898   3.525
 2396SOL     OW 7208   2.567   2.912   2.230
 2396SOL    HW1 7209   2.553   2.919   2.329
 2396SOL    HW2 7210   2.651   2.861   2.212
 2397SOL     OW 7211   2.272   2.675   3.113
 2397SOL    HW1 7212   2.358   2.687   3.163
 2397SOL    HW2 7213   2.230   2.588   3.140
 2398SOL     OW 7214   3.136   2.248   3.124
 2398SOL    HW1 7215   3.157   2.322   3.188
 2398SOL    HW2 7216   3.047   2.265   3.081
 2399SOL     OW 7217   1.926   3.426   3.193
 2399SOL    HW1 7218   1.880   3.508   3.159
 2399SOL    HW2 7219   2.024   3.445   3.202
 2400SOL     OW 7220   2.229   2.962   2.363
 2400SOL    HW1 7221   2.222   3.045   2.307
 2400SOL    HW2 7222   2.233   2.882   2.303
 2401SOL     OW 7223   3.114   3.210   2.250
 2401SOL    HW1 7224   3.164   3.287   2.290
 2401SOL    HW2 7225   3.019   3.212   2.282
 2402SOL     OW 7226   3.134   3.307   3.004
 2402SOL    HW1 7227   3.181   3.320   3.091
 2402SOL    HW2 7228   3.068   3.233   3.013
 2403SOL     OW 7229   3.444   2.501   2.334
 2403SOL    HW1 7230   3.413   2.562   2.407
 2403SOL    HW2 7231   3.494   2.553   2.265
 2404SOL     OW 7232   2.216   3.372   3.191
 2404SOL    HW1 7233   2.195   3.328   3.104
 2404SOL    HW2 7234   2.313   3.398   3.194
 2405SOL     OW 7235   2.264   2.613   3.460
 2405SOL    HW1 7236   2.332   2.668   3.413
 2405SOL    HW2 7237   2.304   2.525   3.487
 2406SOL     OW 7238   3.449   2.641   3.532
 2406SOL    HW1 7239   3.357   2.679   3.527
 2406SOL    HW2 7240   3.509   2.688   3.467
 2407SOL     OW 7241   2.875   1.967   3.632
 2407SOL    HW1 7242   2.881   2.052   3.580
 2407SOL    HW2 7243   2.907   1.891   3.575
 2408SOL     OW 7244   2.366   1.912   3.602
 2408SOL    HW1 7245   2.324   1.855   3.532
 2408SOL    HW2 7246   2.300   1.981   3.634
 2409SOL     OW 7247   2.435   2.732   2.891
 2409SOL    HW1 7248   2.479   2.821   2.882
 2409SOL    HW2 7249   2.372   2.732   2.968
 2410SOL     OW 7250   3.222   2.724   2.907
 2410SOL    HW1 7251   3.147   2.724   2.841
 2410SOL    HW2 7252   3.259   2.632   2.916
 2411SOL     OW 7253   3.071   2.387   2.137
 2411SOL    HW1 7254   3.084   2.303   2.191
 2411SOL    HW2 7255   3.042   2.461   2.197
 2412SOL     OW 7256   2.169   2.075   3.093
 2412SOL    HW1 7257   2.146   2.112   3.183
 2412SOL    HW2 7258   2.139   1.980   3.087
 2413SOL     OW 7259   1.899   3.172   3.144
 2413SOL    HW1 7260   1.952   3.123   3.212
 2413SOL    HW2 7261   1.921   3.270   3.149
 2414SOL     OW 7262   3.590   2.797   3.716
 2414SOL    HW1 7263   3.544   2.790   3.627
 2414SOL    HW2 7264   3.528   2.841   3.782
 2415SOL     OW 7265   2.169   1.925   2.480
 2415SOL    HW1 7266   2.158   2.019   2.513
 2415SOL    HW2 7267   2.164   1.862   2.557
 2416SOL     OW 7268   3.484   2.229   2.236
 2416SOL    HW1 7269   3.486   2.153   2.300
 2416SOL    HW2 7270   3.436   2.306   2.276
 2417SOL     OW 7271   2.885   2.628   2.828
 2417SOL    HW1 7272   2.900   2.649   2.924
 2417SOL    HW2 7273   2.855   2.533   2.819
 2418SOL     OW 7274   2.842   3.435   3.562
 2418SOL    HW1 7275   2.822   3.479   3.474
 2418SOL    HW2 7276   2.881   3.344   3.546
 2419SOL     OW 7277   3.721   3.380   3.467
 2419SOL    HW1 7278   3.735   3.407   3.372
 2419SOL    HW2 7279   3.804   3.402   3.520
 2420SOL     OW 7280   2.212   2.760   3.666
 2420SOL    HW1 7281   2.288   2.804   3.714
 2420SOL    HW2 7282   2.247   2.713   3.584
 2421SOL     OW 7283   3.402   2.136   1.987
 2421SOL    HW1 7284   3.341   2.061   2.010
 2421SOL    HW2 7285   3.424   2.188   2.070
 2422SOL     OW 7286   3.165   2.700   1.904
 2422SOL    HW1 7287   3.199   2.607   1.919
 2422SOL    HW2 7288   3.183   2.727   1.809
 2423SOL     OW 7289   2.930   3.195   2.711
 2423SOL    HW1 7290   2.937   3.111   2.656
 2423SOL    HW2 7291   2.992   3.264   2.675
 2424SOL     OW 7292   2.181   2.672   2.811
 2424SOL    HW1 7293   2.274   2.708   2.816
 2424SOL    HW2 7294   2.175   2.587   2.863
 2425SOL     OW 7295   2.201   2.371   2.868
 2425SOL    HW1 7296   2.149   2.288   2.851
 2425SOL    HW2 7297   2.278   2.376   2.804
 2426SOL     OW 7298   3.000   2.242   3.540
 2426SOL    HW1 7299   2.955   2.305   3.604
 2426SOL    HW2 7300   3.093   2.273   3.523
 2427SOL     OW 7301   3.022   2.069   3.339
 2427SOL    HW1 7302   3.022   2.133   3.416
 2427SOL    HW2 7303   3.050   2.117   3.256
 2428SOL     OW 7304   1.870   3.188   2.062
 2428SOL    HW1 7305   1.777   3.209   2.031
 2428SOL    HW2 7306   1.880   3.089   2.075
 2429SOL     OW 7307   1.950   3.663   2.789
 2429SOL    HW1 7308   1.908   3.577   2.762
 2429SOL    HW2 7309   2.044   3.666   2.755
 2430SOL     OW 7310   2.366   3.430   2.772
 2430SOL    HW1 7311   2.432   3.504   2.781
 2430SOL    HW2 7312   2.410   3.351   2.730
 2431SOL     OW 7313   2.864   2.658   3.100
 2431SOL    HW1 7314   2.905   2.626   3.186
 2431SOL    HW2 7315   2.768   2.631   3.097
 2432SOL     OW 7316   1.902   2.406   2.976
 2432SOL    HW1 7317   1.987   2.373   2.935
 2432SOL    HW2 7318   1.915   2.421   3.074
 2433SOL     OW 7319   2.051   2.382   3.584
 2433SOL    HW1 7320   2.110   2.342   3.514
 2433SOL    HW2 7321   1.993   2.453   3.543
 2434SOL     OW 7322   3.231   2.812   3.522
 2434SOL    HW1 7323   3.270   2.901   3.542
 2434SOL    HW2 7324   3.241   2.792   3.425
 2435SOL     OW 7325   2.677   2.434   2.187
 2435SOL    HW1 7326   2.684   2.345   2.141
 2435SOL    HW2 7327   2.583   2.468   2.179
 2436SOL     OW 7328   3.519   2.466   3.068
 2436SOL    HW1 7329   3.481   2.397   3.130
 2436SOL    HW2 7330   3.601   2.430   3.024
 2437SOL     OW 7331   2.114   3.426   3.606
 2437SOL    HW1 7332   2.084   3.483   3.682
 2437SOL    HW2 7333   2.107   3.329   3.632
 2438SOL     OW 7334   2.533   2.326   3.131
 2438SOL    HW1 7335   2.499   2.237   3.101
 2438SOL    HW2 7336   2.559   2.380   3.051
 2439SOL     OW 7337   2.792   3.540   3.327
 2439SOL    HW1 7338   2.768   3.522   3.232
 2439SOL    HW2 7339   2.822   3.634   3.337
 2440SOL     OW 7340   2.021   2.999   3.328
 2440SOL    HW1 7341   2.043   2.938   3.404
 2440SOL    HW2 7342   2.031   2.950   3.242
 2441SOL     OW 7343   3.209   2.921   3.096
 2441SOL    HW1 7344   3.233   2.858   3.022
 2441SOL    HW2 7345   3.119   2.961   3.078
 2442SOL     OW 7346   3.164   2.717   2.171
 2442SOL    HW1 7347   3.078   2.686   2.213
 2442SOL    HW2 7348   3.160   2.703   2.072
 2443SOL     OW 7349   3.621   3.609   3.016
 2443SOL    HW1 7350   3.682   3.639   2.943
 2443SOL    HW2 7351   3.583   3.520   2.994
 2444SOL     OW 7352   3.114   3.593   2.990
 2444SOL    HW1 7353   3.198   3.598   2.936
 2444SOL    HW2 7354   3.091   3.497   3.008
 2445SOL     OW 7355   1.945   3.120   2.884
 2445SOL    HW1 7356   1.940   3.119   2.984
 2445SOL    HW2 7357   1.862   3.079   2.846
 2446SOL     OW 7358   2.550   3.524   3.578
 2446SOL    HW1 7359   2.494   3.605   3.587
 2446SOL    HW2 7360   2.602   3.528   3.492
 2447SOL     OW 7361   3.588   1.997   2.385
 2447SOL    HW1 7362   3.661   1.980   2.318
 2447SOL    HW2 7363   3.557   1.910   2.423
 2448SOL     OW 7364   3.250   3.435   2.339
 2448SOL    HW1 7365   3.317   3.447   2.265
 2448SOL    HW2 7366   3.210   3.524   2.362
 2449SOL     OW 7367   1.992   3.656   3.713
 2449SOL    HW1 7368   1.951   3.582   3.766
 2449SOL    HW2 7369   2.056   3.707   3.771
 2450SOL     OW 7370   3.142   2.789   2.534
 2450SOL    HW1 7371   3.202   2.708   2.536
 2450SOL    HW2 7372   3.182   2.858   2.474
 2451SOL     OW 7373   2.692   3.135   3.284
 2451SOL    HW1 7374   2.687   3.168   3.379
 2451SOL    HW2 7375   2.606   3.154   3.238
 2452SOL     OW 7376   2.534   3.478   2.016
 2452SOL    HW1 7377   2.543   3.488   1.917
 2452SOL    HW2 7378   2.494   3.389   2.037
 2453SOL     OW 7379   3.512   3.582   3.256
 2453SOL    HW1 7380   3.565   3.592   3.172
 2453SOL    HW2 7381   3.485   3.672   3.290
 2454SOL     OW 7382   3.703   2.037   2.825
 2454SOL    HW1 7383   3.742   1.952   2.789
 2454SOL    HW2 7384   3.605   2.039   2.806
 2455SOL     OW 7385   2.125   2.188   2.582
 2455SOL    HW1 7386   2.046   2.239   2.548
 2455SOL    HW2 7387   2.116   2.173   2.680
 2456SOL     OW 7388   3.056   3.474   1.893
 2456SOL    HW1 7389   3.062   3.381   1.930
 2456SOL    HW2 7390   2.997   3.474   1.813
 2457SOL     OW 7391   2.684   2.864   3.234
 2457SOL    HW1 7392   2.724   2.863   3.142
 2457SOL    HW2 7393   2.694   2.956   3.274
 2458SOL     OW 7394   2.778   2.772   2.153
 2458SOL    HW1 7395   2.841   2.810   2.085
 2458SOL    HW2 7396   2.818   2.689   2.192
 2459SOL     OW 7397   3.366   3.469   1.906
 2459SOL    HW1 7398   3.274   3.506   1.913
 2459SOL    HW2 7399   3.404   3.489   1.816
 2460SOL     OW 7400   2.234   3.150   3.352
 2460SOL    HW1 7401   2.221   3.243   3.318
 2460SOL    HW2 7402   2.150   3.098   3.339
 2461SOL     OW 7403   3.476   3.154   3.151
 2461SOL    HW1 7404   3.536   3.157   3.231
 2461SOL    HW2 7405   3.401   3.218   3.164
 2462SOL     OW 7406   2.901   2.960   2.558
 2462SOL    HW1 7407   2.831   2.913   2.612
 2462SOL    HW2 7408   2.960   2.892   2.515
 2463SOL     OW 7409   2.876   2.098   2.833
 2463SOL    HW1 7410   2.868   2.062   2.740
 2463SOL    HW2 7411   2.874   2.022   2.898
 2464SOL     OW 7412   2.452   3.349   2.353
 2464SOL    HW1 7413   2.494   3.291   2.283
 2464SOL    HW2 7414   2.408   3.428   2.309
 2465SOL     OW 7415   3.571   2.247   3.243
 2465SOL    HW1 7416   3.644   2.316   3.247
 2465SOL    HW2 7417   3.599   2.172   3.184
 2466SOL     OW 7418   2.117   3.210   2.152
 2466SOL    HW1 7419   2.021   3.211   2.125
 2466SOL    HW2 7420   2.129   3.263   2.236
 2467SOL     OW 7421   1.967   2.875   3.588
 2467SOL    HW1 7422   1.890   2.842   3.642
 2467SOL    HW2 7423   2.052   2.845   3.630
 2468SOL     OW 7424   2.534   2.065   3.351
 2468SOL    HW1 7425   2.624   2.049   3.311
 2468SOL    HW2 7426   2.542   2.070   3.450
 2469SOL     OW 7427   1.937   2.207   1.895
 2469SOL    HW1 7428   1.845   2.179   1.866
 2469SOL    HW2 7429   1.968   2.284   1.839
 2470SOL     OW 7430   3.302   2.718   3.260
 2470SOL    HW1 7431   3.245   2.770   3.197
 2470SOL    HW2 7432   3.398   2.730   3.236
 2471SOL     OW 7433   1.934   2.028   2.180
 2471SOL    HW1 7434   1.917   2.111   2.126
 2471SOL    HW2 7435   2.024   1.991   2.158
 2472SOL     OW 7436   3.045   3.197   1.981
 2472SOL    HW1 7437   2.946   3.186   1.983
 2472SOL    HW2 7438   3.079   3.212   2.074
 2473SOL     OW 7439   2.475   2.704   3.293
 2473SOL    HW1 7440   2.531   2.785   3.276
 2473SOL    HW2 7441   2.534   2.624   3.296
 2474SOL     OW 7442   3.355   3.629   2.821
 2474SOL    HW1 7443   3.388   3.693   2.752
 2474SOL    HW2 7444   3.421   3.623   2.896
 2475SOL     OW 7445   2.578   2.427   3.570
 2475SOL    HW1 7446   2.597   2.492   3.644
 2475SOL    HW2 7447   2.638   2.347   3.579
 2476SOL     OW 7448   3.312   3.082   3.495
 2476SOL    HW1 7449   3.303   3.072   3.594
 2476SOL    HW2 7450   3.408   3.075   3.469
 2477SOL     OW 7451   2.252   3.603   3.422
 2477SOL    HW1 7452   2.161   3.644   3.420
 2477SOL    HW2 7453   2.245   3.509   3.454
 2478SOL     OW 7454   3.536   2.745   3.116
 2478SOL    HW1 7455   3.509   2.656   3.079
 2478SOL    HW2 7456   3.537   2.813   3.043
 2479SOL     OW 7457   3.087   2.187   2.311
 2479SOL    HW1 7458   3.152   2.113   2.300
 2479SOL    HW2 7459   3.107   2.237   2.395
 2480SOL     OW 7460   3.639   2.204   3.504
 2480SOL    HW1 7461   3.622   2.235   3.410
 2480SOL    HW2 7462   3.555   2.167   3.542
 2481SOL     OW 7463   3.592   2.796   3.379
 2481SOL    HW1 7464   3.630   2.887   3.394
 2481SOL    HW2 7465   3.584   2.779   3.280
 2482SOL     OW 7466   2.721   3.236   1.878
 2482SOL    HW1 7467   2.675   3.251   1.966
 2482SOL    HW2 7468   2.765   3.321   1.848
 2483SOL     OW 7469   2.523   3.652   2.815
 2483SOL    HW1 7470   2.477   3.740   2.802
 2483SOL    HW2 7471   2.622   3.664   2.808
 2484SOL     OW 7472   2.945   2.846   1.949
 2484SOL    HW1 7473   2.922   2.899   1.867
 2484SOL    HW2 7474   3.026   2.790   1.930
 2485SOL     OW 7475   3.723   3.431   2.713
 2485SOL    HW1 7476   3.652   3.419   2.643
 2485SOL    HW2 7477   3.724   3.352   2.773
 2486SOL     OW 7478   2.083   3.176   3.706
 2486SOL    HW1 7479   2.018   3.103   3.685
 2486SOL    HW2 7480   2.087   3.190   3.804
 2487SOL     OW 7481   1.941   3.102   2.515
 2487SOL    HW1 7482   1.940   3.055   2.603
 2487SOL    HW2 7483   2.023   3.074   2.464
 2488SOL     OW 7484   2.534   3.253   3.486
 2488SOL    HW1 7485   2.456   3.203   3.524
 2488SOL    HW2 7486   2.531   3.348   3.517
 2489SOL     OW 7487   3.686   2.054   3.089
 2489SOL    HW1 7488   3.682   1.964   3.133
 2489SOL    HW2 7489   3.689   2.043   2.990
 2490SOL     OW 7490   3.567   3.349   2.966
 2490SOL    HW1 7491   3.474   3.324   2.939
 2490SOL    HW2 7492   3.593   3.299   3.048
 2491SOL     OW 7493   2.179   2.409   3.142
 2491SOL    HW1 7494   2.217   2.350   3.214
 2491SOL    HW2 7495   2.219   2.383   3.054
 2492SOL     OW 7496   2.674   3.448   2.549
 2492SOL    HW1 7497   2.706   3.458   2.455
 2492SOL    HW2 7498   2.595   3.386   2.551
 2493SOL     OW 7499   3.286   2.076   2.974
 2493SOL    HW1 7500   3.338   2.011   3.029
 2493SOL    HW2 7501   3.237   2.139   3.035
 2494SOL     OW 7502   2.863   1.896   3.016
 2494SOL    HW1 7503   2.800   1.824   2.985
 2494SOL    HW2 7504   2.956   1.860   3.016
 2495SOL     OW 7505   2.632   3.192   2.163
 2495SOL    HW1 7506   2.586   3.105   2.180
 2495SOL    HW2 7507   2.723   3.189   2.204
 2496SOL     OW 7508   2.480   3.429   3.146
 2496SOL    HW1 7509   2.475   3.511   3.203
 2496SOL    HW2 7510   2.569   3.426   3.101
 2497SOL     OW 7511   3.214   1.914   2.030
 2497SOL    HW1 7512   3.249   1.873   1.946
 2497SOL    HW2 7513   3.124   1.876   2.050
 2498SOL     OW 7514   3.162   2.315   2.553
 2498SOL    HW1 7515   3.103   2.395   2.557
 2498SOL    HW2 7516   3.177   2.280   2.646
 2499SOL     OW 7517   3.455   2.083   2.744
 2499SOL    HW1 7518   3.371   2.082   2.798
 2499SOL    HW2 7519   3.457   2.166   2.688
 2500SOL     OW 7520   1.901   2.939   2.162
 2500SOL    HW1 7521   2.000   2.928   2.153
 2500SOL    HW2 7522   1.861   2.853   2.194
 2501SOL     OW 7523   2.737   3.508   2.199
 2501SOL    HW1 7524   2.660   3.473   2.145
 2501SOL    HW2 7525   2.705   3.579   2.261
 2502SOL     OW 7526   2.092   2.490   3.837
 2502SOL    HW1 7527   1.999   2.488   3.874
 2502SOL    HW2 7528   2.093   2.451   3.745
 2503SOL     OW 7529   2.087   2.137   4.720
 2503SOL    HW1 7530   2.122   2.120   4.812
 2503SOL    HW2 7531   1.999   2.092   4.708
 2504SOL     OW 7532   1.881   2.230   4.371
 2504SOL    HW1 7533   1.799   2.273   4.410
 2504SOL    HW2 7534   1.853   2.157   4.308
 2505SOL     OW 7535   2.431   3.137   4.889
 2505SOL    HW1 7536   2.338   3.130   4.852
 2505SOL    HW2 7537   2.442   3.226   4.933
 2506SOL     OW 7538   3.417   3.373   4.427
 2506SOL    HW1 7539   3.360   3.357   4.508
 2506SOL    HW2 7540   3.358   3.383   4.347
 2507SOL     OW 7541   2.997   2.565   4.441
 2507SOL    HW1 7542   3.054   2.643   4.416
 2507SOL    HW2 7543   2.937   2.591   4.517
 2508SOL     OW 7544   3.617   2.469   3.955
 2508SOL    HW1 7545   3.605   2.456   3.856
 2508SOL    HW2 7546   3.587   2.388   4.004
 2509SOL     OW 7547   2.630   3.006   4.747
 2509SOL    HW1 7548   2.552   3.023   4.807
 2509SOL    HW2 7549   2.664   3.093   4.711
 2510SOL     OW 7550   2.547   2.874   4.389
 2510SOL    HW1 7551   2.616   2.858   4.459
 2510SOL    HW2 7552   2.474   2.931   4.427
 2511SOL     OW 7553   2.197   3.297   4.785
 2511SOL    HW1 7554   2.119   3.266   4.732
 2511SOL    HW2 7555   2.255   3.355   4.728
 2512SOL     OW 7556   3.465   2.309   4.461
 2512SOL    HW1 7557   3.391   2.355   4.411
 2512SOL    HW2 7558   3.516   2.377   4.514
 2513SOL     OW 7559   2.093   3.575   4.207
 2513SOL    HW1 7560   2.127   3.652   4.261
 2513SOL    HW2 7561   2.137   3.575   4.117
 2514SOL     OW 7562   2.092   3.296   4.262
 2514SOL    HW1 7563   2.066   3.392   4.262
 2514SOL    HW2 7564   2.021   3.242   4.307
 2515SOL     OW 7565   2.102   2.953   4.610
 2515SOL    HW1 7566   2.116   2.869   4.662
 2515SOL    HW2 7567   2.047   3.017   4.665
 2516SOL     OW 7568   2.468   2.826   3.847
 2516SOL    HW1 7569   2.475   2.910   3.793
 2516SOL    HW2 7570   2.514   2.839   3.935
 2517SOL     OW 7571   1.984   2.505   4.287
 2517SOL    HW1 7572   1.939   2.417   4.304
 2517SOL    HW2 7573   1.983   2.559   4.371
 2518SOL     OW 7574   3.704   3.629   4.083
 2518SOL    HW1 7575   3.758   3.600   4.163
 2518SOL    HW2 7576   3.734   3.719   4.054
 2519SOL     OW 7577   1.889   3.458   3.841
 2519SOL    HW1 7578   1.870   3.362   3.862
 2519SOL    HW2 7579   1.856   3.516   3.916
 2520SOL     OW 7580   3.551   2.784   4.336
 2520SOL    HW1 7581   3.646   2.755   4.344
 2520SOL    HW2 7582   3.543   2.849   4.261
 2521SOL     OW 7583   3.503   2.970   4.156
 2521SOL    HW1 7584   3.589   2.972   4.104
 2521SOL    HW2 7585   3.517   3.017   4.244
 2522SOL     OW 7586   2.475   3.227   4.450
 2522SOL    HW1 7587   2.426   3.140   4.459
 2522SOL    HW2 7588   2.452   3.270   4.363
 2523SOL     OW 7589   2.671   1.866   4.226
 2523SOL    HW1 7590   2.711   1.957   4.217
 2523SOL    HW2 7591   2.571   1.874   4.232
 2524SOL     OW 7592   2.059   2.838   4.988
 2524SOL    HW1 7593   2.148   2.793   4.974
 2524SOL    HW2 7594   1.986   2.773   4.969
 2525SOL     OW 7595   3.387   2.861   3.914
 2525SOL    HW1 7596   3.324   2.785   3.927
 2525SOL    HW2 7597   3.435   2.879   4.000
 2526SOL     OW 7598   3.328   3.279   4.677
 2526SOL    HW1 7599   3.269   3.285   4.757
 2526SOL    HW2 7600   3.313   3.191   4.631
 2527SOL     OW 7601   3.529   3.576   4.296
 2527SOL    HW1 7602   3.488   3.553   4.208
 2527SOL    HW2 7603   3.511   3.502   4.361
 2528SOL     OW 7604   2.460   2.591   3.994
 2528SOL    HW1 7605   2.484   2.660   3.926
 2528SOL    HW2 7606   2.382   2.624   4.048
 2529SOL     OW 7607   3.143   2.207   4.668
 2529SOL    HW1 7608   3.057   2.157   4.655
 2529SOL    HW2 7609   3.205   2.153   4.724
 2530SOL     OW 7610   3.438   3.524   4.031
 2530SOL    HW1 7611   3.527   3.570   4.034
 2530SOL    HW2 7612   3.417   3.500   3.936
 2531SOL     OW 7613   2.903   2.563   4.153
 2531SOL    HW1 7614   2.929   2.559   4.249
 2531SOL    HW2 7615   2.818   2.512   4.139
 2532SOL     OW 7616   1.938   2.673   4.513
 2532SOL    HW1 7617   2.037   2.661   4.522
 2532SOL    HW2 7618   1.914   2.768   4.534
 2533SOL     OW 7619   2.727   2.210   3.919
 2533SOL    HW1 7620   2.786   2.273   3.870
 2533SOL    HW2 7621   2.746   2.116   3.890
 2534SOL     OW 7622   3.224   3.006   4.269
 2534SOL    HW1 7623   3.307   2.977   4.221
 2534SOL    HW2 7624   3.175   3.073   4.213
 2535SOL     OW 7625   2.412   2.058   4.609
 2535SOL    HW1 7626   2.407   2.053   4.709
 2535SOL    HW2 7627   2.414   2.154   4.580
 2536SOL     OW 7628   2.870   3.318   4.201
 2536SOL    HW1 7629   2.824   3.390   4.149
 2536SOL    HW2 7630   2.866   3.338   4.299
 2537SOL     OW 7631   2.213   3.663   4.577
 2537SOL    HW1 7632   2.263   3.577   4.583
 2537SOL    HW2 7633   2.278   3.740   4.574
 2538SOL     OW 7634   3.657   2.928   4.597
 2538SOL    HW1 7635   3.595   2.913   4.521
 2538SOL    HW2 7636   3.605   2.939   4.682
 2539SOL     OW 7637   2.183   2.805   3.966
 2539SOL    HW1 7638   2.265   2.844   3.924
 2539SOL    HW2 7639   2.156   2.723   3.917
 2540SOL     OW 7640   3.320   2.597   4.452
 2540SOL    HW1 7641   3.315   2.532   4.527
 2540SOL    HW2 7642   3.400   2.656   4.465
 2541SOL     OW 7643   2.973   3.638   3.961
 2541SOL    HW1 7644   2.913   3.576   4.011
 2541SOL    HW2 7645   3.004   3.594   3.876
 2542SOL     OW 7646   3.494   3.239   3.805
 2542SOL    HW1 7647   3.462   3.333   3.795
 2542SOL    HW2 7648   3.418   3.176   3.793
 2543SOL     OW 7649   2.326   3.605   4.047
 2543SOL    HW1 7650   2.359   3.644   4.133
 2543SOL    HW2 7651   2.402   3.598   3.982
 2544SOL     OW 7652   3.262   1.969   4.150
 2544SOL    HW1 7653   3.238   1.932   4.060
 2544SOL    HW2 7654   3.361   1.985   4.154
 2545SOL     OW 7655   2.111   3.647   4.965
 2545SOL    HW1 7656   2.168   3.582   5.015
 2545SOL    HW2 7657   2.095   3.614   4.872
 2546SOL     OW 7658   2.802   3.560   4.628
 2546SOL    HW1 7659   2.882   3.503   4.649
 2546SOL    HW2 7660   2.753   3.520   4.551
 2547SOL     OW 7661   2.244   2.562   4.204
 2547SOL    HW1 7662   2.289   2.472   4.201
 2547SOL    HW2 7663   2.150   2.551   4.237
 2548SOL     OW 7664   2.476   1.984   3.841
 2548SOL    HW1 7665   2.574   1.962   3.848
 2548SOL    HW2 7666   2.445   1.967   3.748
 2549SOL     OW 7667   2.665   3.264   4.648
 2549SOL    HW1 7668   2.755   3.278   4.606
 2549SOL    HW2 7669   2.594   3.266   4.577
 2550SOL     OW 7670   2.784   2.365   4.623
 2550SOL    HW1 7671   2.759   2.356   4.527
 2550SOL    HW2 7672   2.832   2.283   4.654
 2551SOL     OW 7673   2.401   1.926   4.236
 2551SOL    HW1 7674   2.320   1.927   4.294
 2551SOL    HW2 7675   2.404   2.009   4.181
 2552SOL     OW 7676   3.296   3.050   3.765
 2552SOL    HW1 7677   3.328   2.974   3.822
 2552SOL    HW2 7678   3.204   3.077   3.795
 2553SOL     OW 7679   2.159   1.897   3.895
 2553SOL    HW1 7680   2.208   1.981   3.874
 2553SOL    HW2 7681   2.221   1.832   3.940
 2554SOL     OW 7682   2.797   2.098   4.204
 2554SOL    HW1 7683   2.749   2.139   4.126
 2554SOL    HW2 7684   2.896   2.096   4.185
 2555SOL     OW 7685   3.089   3.432   4.517
 2555SOL    HW1 7686   3.110   3.506   4.452
 2555SOL    HW2 7687   3.157   3.432   4.590
 2556SOL     OW 7688   2.321   3.014   4.465
 2556SOL    HW1 7689   2.250   2.987   4.530
 2556SOL    HW2 7690   2.295   2.986   4.372
 2557SOL     OW 7691   3.133   3.659   4.315
 2557SOL    HW1 7692   3.177   3.723   4.251
 2557SOL    HW2 7693   3.083   3.711   4.385
 2558SOL     OW 7694   2.894   2.411   3.740
 2558SOL    HW1 7695   2.853   2.493   3.701
 2558SOL    HW2 7696   2.958   2.437   3.813
 2559SOL     OW 7697   2.728   2.316   4.366
 2559SOL    HW1 7698   2.696   2.388   4.304
 2559SOL    HW2 7699   2.752   2.235   4.313
 2560SOL     OW 7700   2.879   1.901   4.477
 2560SOL    HW1 7701   2.807   1.906   4.408
 2560SOL    HW2 7702   2.855   1.832   4.546
 2561SOL     OW 7703   3.291   3.035   4.591
 2561SOL    HW1 7704   3.236   2.951   4.584
 2561SOL    HW2 7705   3.317   3.064   4.499
 2562SOL     OW 7706   3.328   2.452   4.716
 2562SOL    HW1 7707   3.298   2.357   4.723
 2562SOL    HW2 7708   3.401   2.468   4.782
 2563SOL     OW 7709   3.719   2.695   4.101
 2563SOL    HW1 7710   3.761   2.631   4.165
 2563SOL    HW2 7711   3.681   2.644   4.023
 2564SOL     OW 7712   2.350   3.247   3.898
 2564SOL    HW1 7713   2.263   3.232   3.945
 2564SOL    HW2 7714   2.333   3.273   3.803
 2565SOL     OW 7715   3.526   3.142   4.381
 2565SOL    HW1 7716   3.625   3.150   4.395
 2565SOL    HW2 7717   3.481   3.226   4.412
 2566SOL     OW 7718   3.252   2.437   3.802
 2566SOL    HW1 7719   3.198   2.416   3.883
 2566SOL    HW2 7720   3.343   2.396   3.811
 2567SOL     OW 7721   2.389   2.118   4.052
 2567SOL    HW1 7722   2.416   2.059   3.977
 2567SOL    HW2 7723   2.389   2.213   4.021
 2568SOL     OW 7724   2.973   3.057   4.824
 2568SOL    HW1 7725   2.933   3.101   4.905
 2568SOL    HW2 7726   2.932   3.094   4.741
 2569SOL     OW 7727   3.500   2.961   4.803
 2569SOL    HW1 7728   3.505   3.042   4.862
 2569SOL    HW2 7729   3.414   2.963   4.752
 2570SOL     OW 7730   2.567   2.912   4.092
 2570SOL    HW1 7731   2.553   2.919   4.191
 2570SOL    HW2 7732   2.651   2.861   4.074
 2571SOL     OW 7733   2.272   2.675   4.975
 2571SOL    HW1 7734   2.358   2.687   5.025
 2571SOL    HW2 7735   2.230   2.588   5.002
 2572SOL     OW 7736   2.229   2.962   4.225
 2572SOL    HW1 7737   2.222   3.045   4.169
 2572SOL    HW2 7738   2.233   2.882   4.165
 2573SOL     OW 7739   2.428   2.399   4.589
 2573SOL    HW1 7740   2.440   2.465   4.515
 2573SOL    HW2 7741   2.474   2.433   4.672
 2574SOL     OW 7742   3.114   3.210   4.112
 2574SOL    HW1 7743   3.164   3.287   4.152
 2574SOL    HW2 7744   3.019   3.212   4.144
 2575SOL     OW 7745   3.134   3.307   4.866
 2575SOL    HW1 7746   3.181   3.320   4.953
 2575SOL    HW2 7747   3.068   3.233   4.875
 2576SOL     OW 7748   3.444   2.501   4.196
 2576SOL    HW1 7749   3.413   2.562   4.269
 2576SOL    HW2 7750   3.494   2.553   4.127
 2577SOL     OW 7751   2.435   2.732   4.753
 2577SOL    HW1 7752   2.479   2.821   4.744
 2577SOL    HW2 7753   2.372   2.732   4.830
 2578SOL     OW 7754   3.222   2.724   4.769
 2578SOL    HW1 7755   3.147   2.724   4.703
 2578SOL    HW2 7756   3.259   2.632   4.778
 2579SOL     OW 7757   3.071   2.387   3.999
 2579SOL    HW1 7758   3.084   2.303   4.053
 2579SOL    HW2 7759   3.042   2.461   4.059
 2580SOL     OW 7760   2.169   2.075   4.955
 2580SOL    HW1 7761   2.146   2.112   5.045
 2580SOL    HW2 7762   2.139   1.980   4.949
 2581SOL     OW 7763   2.594   2.496   4.788
 2581SOL    HW1 7764   2.653   2.470   4.712
 2581SOL    HW2 7765   2.566   2.592   4.777
 2582SOL     OW 7766   2.169   1.925   4.342
 2582SOL    HW1 7767   2.158   2.019   4.375
 2582SOL    HW2 7768   2.164   1.862   4.419
 2583SOL     OW 7769   3.484   2.229   4.098
 2583SOL    HW1 7770   3.486   2.153   4.162
 2583SOL    HW2 7771   3.436   2.306   4.138
 2584SOL     OW 7772   2.885   2.628   4.690
 2584SOL    HW1 7773   2.900   2.649   4.786
 2584SOL    HW2 7774   2.855   2.533   4.681
 2585SOL     OW 7775   3.402   2.136   3.849
 2585SOL    HW1 7776   3.341   2.061   3.872
 2585SOL    HW2 7777   3.424   2.188   3.932
 2586SOL     OW 7778   3.165   2.700   3.766
 2586SOL    HW1 7779   3.199   2.607   3.781
 2586SOL    HW2 7780   3.183   2.727   3.671
 2587SOL     OW 7781   2.930   3.195   4.573
 2587SOL    HW1 7782   2.937   3.111   4.518
 2587SOL    HW2 7783   2.992   3.264   4.537
 2588SOL     OW 7784   2.181   2.672   4.673
 2588SOL    HW1 7785   2.274   2.708   4.678
 2588SOL    HW2 7786   2.175   2.587   4.725
 2589SOL     OW 7787   2.201   2.371   4.730
 2589SOL    HW1 7788   2.149   2.288   4.713
 2589SOL    HW2 7789   2.278   2.376   4.666
 2590SOL     OW 7790   3.022   2.069   5.201
 2590SOL    HW1 7791   3.022   2.133   5.278
 2590SOL    HW2 7792   3.050   2.117   5.118
 2591SOL     OW 7793   1.870   3.188   3.924
 2591SOL    HW1 7794   1.777   3.209   3.893
 2591SOL    HW2 7795   1.880   3.089   3.937
 2592SOL     OW 7796   1.950   3.663   4.651
 2592SOL    HW1 7797   1.908   3.577   4.624
 2592SOL    HW2 7798   2.044   3.666   4.617
 2593SOL     OW 7799   2.366   3.430   4.634
 2593SOL    HW1 7800   2.432   3.504   4.643
 2593SOL    HW2 7801   2.410   3.351   4.592
 2594SOL     OW 7802   2.864   2.658   4.962
 2594SOL    HW1 7803   2.905   2.626   5.048
 2594SOL    HW2 7804   2.768   2.631   4.959
 2595SOL     OW 7805   1.902   2.406   4.838
 2595SOL    HW1 7806   1.987   2.373   4.797
 2595SOL    HW2 7807   1.915   2.421   4.936
 2596SOL     OW 7808   2.677   2.434   4.049
 2596SOL    HW1 7809   2.684   2.345   4.003
 2596SOL    HW2 7810   2.583   2.468   4.041
 2597SOL     OW 7811   3.519   2.466   4.930
 2597SOL    HW1 7812   3.481   2.397   4.992
 2597SOL    HW2 7813   3.601   2.430   4.886
 2598SOL     OW 7814   2.533   2.326   4.993
 2598SOL    HW1 7815   2.499   2.237   4.963
 2598SOL    HW2 7816   2.559   2.380   4.913
 2599SOL     OW 7817   2.335   2.362   3.915
 2599SOL    HW1 7818   2.396   2.442   3.919
 2599SOL    HW2 7819   2.240   2.393   3.922
 2600SOL     OW 7820   2.021   2.999   5.190
 2600SOL    HW1 7821   2.043   2.938   5.266
 2600SOL    HW2 7822   2.031   2.950   5.104
 2601SOL     OW 7823   3.164   2.717   4.033
 2601SOL    HW1 7824   3.078   2.686   4.075
 2601SOL    HW2 7825   3.160   2.703   3.934
 2602SOL     OW 7826   3.621   3.609   4.878
 2602SOL    HW1 7827   3.682   3.639   4.805
 2602SOL    HW2 7828   3.583   3.520   4.856
 2603SOL     OW 7829   1.945   3.120   4.746
 2603SOL    HW1 7830   1.940   3.119   4.846
 2603SOL    HW2 7831   1.862   3.079   4.708
 2604SOL     OW 7832   3.588   1.997   4.247
 2604SOL    HW1 7833   3.661   1.980   4.180
 2604SOL    HW2 7834   3.557   1.910   4.285
 2605SOL     OW 7835   3.250   3.435   4.201
 2605SOL    HW1 7836   3.317   3.447   4.127
 2605SOL    HW2 7837   3.210   3.524   4.224
 2606SOL     OW 7838   3.142   2.789   4.396
 2606SOL    HW1 7839   3.202   2.708   4.398
 2606SOL    HW2 7840   3.182   2.858   4.336
 2607SOL     OW 7841   2.534   3.478   3.878
 2607SOL    HW1 7842   2.543   3.488   3.779
 2607SOL    HW2 7843   2.494   3.389   3.899
 2608SOL     OW 7844   3.703   2.037   4.687
 2608SOL    HW1 7845   3.742   1.952   4.651
 2608SOL    HW2 7846   3.605   2.039   4.668
 2609SOL     OW 7847   2.125   2.188   4.444
 2609SOL    HW1 7848   2.046   2.239   4.410
 2609SOL    HW2 7849   2.116   2.173   4.542
 2610SOL     OW 7850   3.056   3.474   3.755
 2610SOL    HW1 7851   3.062   3.381   3.792
 2610SOL    HW2 7852   2.997   3.474   3.675
 2611SOL     OW 7853   2.684   2.864   5.096
 2611SOL    HW1 7854   2.724   2.863   5.004
 2611SOL    HW2 7855   2.694   2.956   5.136
 2612SOL     OW 7856   2.778   2.772   4.015
 2612SOL    HW1 7857   2.841   2.810   3.947
 2612SOL    HW2 7858   2.818   2.689   4.054
 2613SOL     OW 7859   3.366   3.469   3.768
 2613SOL    HW1 7860   3.274   3.506   3.775
 2613SOL    HW2 7861   3.404   3.489   3.678
 2614SOL     OW 7862   2.901   2.960   4.420
 2614SOL    HW1 7863   2.831   2.913   4.474
 2614SOL    HW2 7864   2.960   2.892   4.377
 2615SOL     OW 7865   2.876   2.098   4.695
 2615SOL    HW1 7866   2.868   2.062   4.602
 2615SOL    HW2 7867   2.874   2.022   4.760
 2616SOL     OW 7868   2.452   3.349   4.215
 2616SOL    HW1 7869   2.494   3.291   4.145
 2616SOL    HW2 7870   2.408   3.428   4.171
 2617SOL     OW 7871   3.571   2.247   5.105
 2617SOL    HW1 7872   3.644   2.316   5.109
 2617SOL    HW2 7873   3.599   2.172   5.046
 2618SOL     OW 7874   2.117   3.210   4.014
 2618SOL    HW1 7875   2.021   3.211   3.987
 2618SOL    HW2 7876   2.129   3.263   4.098
 2619SOL     OW 7877   1.937   2.207   3.757
 2619SOL    HW1 7878   1.845   2.179   3.728
 2619SOL    HW2 7879   1.968   2.284   3.701
 2620SOL     OW 7880   1.934   2.028   4.042
 2620SOL    HW1 7881   1.917   2.111   3.988
 2620SOL    HW2 7882   2.024   1.991   4.020
 2621SOL     OW 7883   3.045   3.197   3.843
 2621SOL    HW1 7884   2.946   3.186   3.845
 2621SOL    HW2 7885   3.079   3.212   3.936
 2622SOL     OW 7886   3.355   3.629   4.683
 2622SOL    HW1 7887   3.388   3.693   4.614
 2622SOL    HW2 7888   3.421   3.623   4.758
 2623SOL     OW 7889   3.536   2.745   4.978
 2623SOL    HW1 7890   3.509   2.656   4.941
 2623SOL    HW2 7891   3.537   2.813   4.905
 2624SOL     OW 7892   3.087   2.187   4.173
 2624SOL    HW1 7893   3.152   2.113   4.162
 2624SOL    HW2 7894   3.107   2.237   4.257
 2625SOL     OW 7895   2.456   2.607   4.376
 2625SOL    HW1 7896   2.506   2.692   4.357
 2625SOL    HW2 7897   2.368   2.609   4.328
 2626SOL     OW 7898   3.592   2.796   5.241
 2626SOL    HW1 7899   3.630   2.887   5.256
 2626SOL    HW2 7900   3.584   2.779   5.142
 2627SOL     OW 7901   2.721   3.236   3.740
 2627SOL    HW1 7902   2.675   3.251   3.828
 2627SOL    HW2 7903   2.765   3.321   3.710
 2628SOL     OW 7904   2.523   3.652   4.677
 2628SOL    HW1 7905   2.477   3.740   4.664
 2628SOL    HW2 7906   2.622   3.664   4.670
 2629SOL     OW 7907   2.721   2.818   4.585
 2629SOL    HW1 7908   2.775   2.749   4.633
 2629SOL    HW2 7909   2.689   2.887   4.651
 2630SOL     OW 7910   2.945   2.846   3.811
 2630SOL    HW1 7911   2.922   2.899   3.729
 2630SOL    HW2 7912   3.026   2.790   3.792
 2631SOL     OW 7913   3.723   3.431   4.575
 2631SOL    HW1 7914   3.652   3.419   4.505
 2631SOL    HW2 7915   3.724   3.352   4.635
 2632SOL     OW 7916   1.941   3.102   4.377
 2632SOL    HW1 7917   1.940   3.055   4.465
 2632SOL    HW2 7918   2.023   3.074   4.326
 2633SOL     OW 7919   3.686   2.054   4.951
 2633SOL    HW1 7920   3.682   1.964   4.995
 2633SOL    HW2 7921   3.689   2.043   4.852
 2634SOL     OW 7922   2.290   2.286   4.244
 2634SOL    HW1 7923   2.320   2.214   4.182
 2634SOL    HW2 7924   2.251   2.246   4.327
 2635SOL     OW 7925   3.567   3.349   4.828
 2635SOL    HW1 7926   3.474   3.324   4.801
 2635SOL    HW2 7927   3.593   3.299   4.910
 2636SOL     OW 7928   2.674   3.448   4.411
 2636SOL    HW1 7929   2.706   3.458   4.317
 2636SOL    HW2 7930   2.595   3.386   4.413
 2637SOL     OW 7931   3.286   2.076   4.836
 2637SOL    HW1 7932   3.338   2.011   4.891
 2637SOL    HW2 7933   3.237   2.139   4.897
 2638SOL     OW 7934   2.863   1.896   4.878
 2638SOL    HW1 7935   2.800   1.824   4.847
 2638SOL    HW2 7936   2.956   1.860   4.878
 2639SOL     OW 7937   2.632   3.192   4.025
 2639SOL    HW1 7938   2.586   3.105   4.042
 2639SOL    HW2 7939   2.723   3.189   4.066
 2640SOL     OW 7940   3.214   1.914   3.892
 2640SOL    HW1 7941   3.249   1.873   3.808
 2640SOL    HW2 7942   3.124   1.876   3.912
 2641SOL     OW 7943   3.162   2.315   4.415
 2641SOL    HW1 7944   3.103   2.395   4.419
 2641SOL    HW2 7945   3.177   2.280   4.508
 2642SOL     OW 7946   3.455   2.083   4.606
 2642SOL    HW1 7947   3.371   2.082   4.660
 2642SOL    HW2 7948   3.457   2.166   4.550
 2643SOL     OW 7949   1.901   2.939   4.024
 2643SOL    HW1 7950   2.000   2.928   4.015
 2643SOL    HW2 7951   1.861   2.853   4.056
 2644SOL     OW 7952   2.737   3.508   4.061
 2644SOL    HW1 7953   2.660   3.473   4.007
 2644SOL    HW2 7954   2.705   3.579   4.123
 2645SOL     OW 7955   2.092   4.352   0.113
 2645SOL    HW1 7956   1.999   4.350   0.150
 2645SOL    HW2 7957   2.093   4.313   0.021
 2646SOL     OW 7958   2.087   3.999   0.996
 2646SOL    HW1 7959   2.122   3.982   1.088
 2646SOL    HW2 7960   1.999   3.954   0.984
 2647SOL     OW 7961   1.881   4.092   0.647
 2647SOL    HW1 7962   1.799   4.135   0.686
 2647SOL    HW2 7963   1.853   4.019   0.584
 2648SOL     OW 7964   2.997   4.427   0.717
 2648SOL    HW1 7965   3.054   4.505   0.692
 2648SOL    HW2 7966   2.937   4.453   0.793
 2649SOL     OW 7967   3.617   4.331   0.231
 2649SOL    HW1 7968   3.605   4.318   0.132
 2649SOL    HW2 7969   3.587   4.250   0.280
 2650SOL     OW 7970   2.630   4.868   1.023
 2650SOL    HW1 7971   2.552   4.885   1.083
 2650SOL    HW2 7972   2.664   4.955   0.987
 2651SOL     OW 7973   2.712   4.522   1.823
 2651SOL    HW1 7974   2.708   4.598   1.888
 2651SOL    HW2 7975   2.734   4.558   1.732
 2652SOL     OW 7976   2.547   4.736   0.665
 2652SOL    HW1 7977   2.616   4.720   0.735
 2652SOL    HW2 7978   2.474   4.793   0.703
 2653SOL     OW 7979   2.548   4.885   1.803
 2653SOL    HW1 7980   2.608   4.964   1.817
 2653SOL    HW2 7981   2.462   4.916   1.762
 2654SOL     OW 7982   2.300   4.116   1.499
 2654SOL    HW1 7983   2.382   4.060   1.508
 2654SOL    HW2 7984   2.219   4.058   1.503
 2655SOL     OW 7985   3.465   4.171   0.737
 2655SOL    HW1 7986   3.391   4.217   0.687
 2655SOL    HW2 7987   3.516   4.239   0.790
 2656SOL     OW 7988   2.102   4.815   0.886
 2656SOL    HW1 7989   2.116   4.731   0.938
 2656SOL    HW2 7990   2.047   4.879   0.941
 2657SOL     OW 7991   2.468   4.688   0.123
 2657SOL    HW1 7992   2.475   4.772   0.069
 2657SOL    HW2 7993   2.514   4.701   0.211
 2658SOL     OW 7994   3.456   3.838   1.480
 2658SOL    HW1 7995   3.438   3.905   1.408
 2658SOL    HW2 7996   3.453   3.884   1.569
 2659SOL     OW 7997   1.984   4.367   0.563
 2659SOL    HW1 7998   1.939   4.279   0.580
 2659SOL    HW2 7999   1.983   4.421   0.647
 2660SOL     OW 8000   3.551   4.646   0.612
 2660SOL    HW1 8001   3.646   4.617   0.620
 2660SOL    HW2 8002   3.543   4.711   0.537
 2661SOL     OW 8003   3.503   4.832   0.432
 2661SOL    HW1 8004   3.589   4.834   0.380
 2661SOL    HW2 8005   3.517   4.879   0.520
 2662SOL     OW 8006   1.975   4.461   1.597
 2662SOL    HW1 8007   2.063   4.448   1.642
 2662SOL    HW2 8008   1.962   4.558   1.575
 2663SOL     OW 8009   2.475   5.089   0.726
 2663SOL    HW1 8010   2.426   5.002   0.735
 2663SOL    HW2 8011   2.452   5.132   0.639
 2664SOL     OW 8012   3.155   4.952   1.423
 2664SOL    HW1 8013   3.192   4.879   1.365
 2664SOL    HW2 8014   3.207   4.957   1.508
 2665SOL     OW 8015   2.671   3.728   0.502
 2665SOL    HW1 8016   2.711   3.819   0.493
 2665SOL    HW2 8017   2.571   3.736   0.508
 2666SOL     OW 8018   2.059   4.700   1.264
 2666SOL    HW1 8019   2.148   4.655   1.250
 2666SOL    HW2 8020   1.986   4.635   1.245
 2667SOL     OW 8021   3.387   4.723   0.190
 2667SOL    HW1 8022   3.324   4.647   0.203
 2667SOL    HW2 8023   3.435   4.741   0.276
 2668SOL     OW 8024   2.179   3.975   1.801
 2668SOL    HW1 8025   2.250   4.046   1.807
 2668SOL    HW2 8026   2.091   4.014   1.829
 2669SOL     OW 8027   2.460   4.453   0.270
 2669SOL    HW1 8028   2.484   4.522   0.202
 2669SOL    HW2 8029   2.382   4.486   0.324
 2670SOL     OW 8030   3.143   4.069   0.944
 2670SOL    HW1 8031   3.057   4.019   0.931
 2670SOL    HW2 8032   3.205   4.015   1.000
 2671SOL     OW 8033   2.669   4.329   1.465
 2671SOL    HW1 8034   2.622   4.326   1.554
 2671SOL    HW2 8035   2.618   4.274   1.399
 2672SOL     OW 8036   3.256   4.193   1.674
 2672SOL    HW1 8037   3.236   4.236   1.762
 2672SOL    HW2 8038   3.334   4.131   1.683
 2673SOL     OW 8039   2.835   4.614   1.572
 2673SOL    HW1 8040   2.881   4.530   1.543
 2673SOL    HW2 8041   2.779   4.648   1.497
 2674SOL     OW 8042   2.853   4.134   1.242
 2674SOL    HW1 8043   2.776   4.168   1.296
 2674SOL    HW2 8044   2.819   4.083   1.163
 2675SOL     OW 8045   2.903   4.425   0.429
 2675SOL    HW1 8046   2.929   4.421   0.525
 2675SOL    HW2 8047   2.818   4.374   0.415
 2676SOL     OW 8048   1.938   4.535   0.789
 2676SOL    HW1 8049   2.037   4.523   0.798
 2676SOL    HW2 8050   1.914   4.630   0.810
 2677SOL     OW 8051   2.727   4.072   0.195
 2677SOL    HW1 8052   2.786   4.135   0.146
 2677SOL    HW2 8053   2.746   3.978   0.166
 2678SOL     OW 8054   3.581   4.309   1.831
 2678SOL    HW1 8055   3.555   4.398   1.795
 2678SOL    HW2 8056   3.579   4.241   1.758
 2679SOL     OW 8057   3.224   4.868   0.545
 2679SOL    HW1 8058   3.307   4.839   0.497
 2679SOL    HW2 8059   3.175   4.935   0.489
 2680SOL     OW 8060   2.412   3.920   0.885
 2680SOL    HW1 8061   2.407   3.915   0.985
 2680SOL    HW2 8062   2.414   4.016   0.856
 2681SOL     OW 8063   3.657   4.790   0.873
 2681SOL    HW1 8064   3.595   4.775   0.797
 2681SOL    HW2 8065   3.605   4.801   0.958
 2682SOL     OW 8066   2.183   4.667   0.242
 2682SOL    HW1 8067   2.265   4.706   0.200
 2682SOL    HW2 8068   2.156   4.585   0.193
 2683SOL     OW 8069   3.320   4.459   0.728
 2683SOL    HW1 8070   3.315   4.394   0.803
 2683SOL    HW2 8071   3.400   4.518   0.741
 2684SOL     OW 8072   2.064   4.009   1.498
 2684SOL    HW1 8073   1.984   4.069   1.485
 2684SOL    HW2 8074   2.054   3.960   1.584
 2685SOL     OW 8075   3.262   3.831   0.426
 2685SOL    HW1 8076   3.238   3.794   0.336
 2685SOL    HW2 8077   3.361   3.847   0.430
 2686SOL     OW 8078   2.244   4.424   0.480
 2686SOL    HW1 8079   2.289   4.334   0.477
 2686SOL    HW2 8080   2.150   4.413   0.513
 2687SOL     OW 8081   3.409   3.946   1.729
 2687SOL    HW1 8082   3.404   3.983   1.821
 2687SOL    HW2 8083   3.337   3.877   1.717
 2688SOL     OW 8084   2.476   3.846   0.117
 2688SOL    HW1 8085   2.574   3.824   0.124
 2688SOL    HW2 8086   2.445   3.829   0.024
 2689SOL     OW 8087   2.643   3.988   1.749
 2689SOL    HW1 8088   2.710   3.927   1.792
 2689SOL    HW2 8089   2.570   4.007   1.814
 2690SOL     OW 8090   3.213   4.314   1.433
 2690SOL    HW1 8091   3.241   4.271   1.518
 2690SOL    HW2 8092   3.238   4.410   1.434
 2691SOL     OW 8093   2.784   4.227   0.899
 2691SOL    HW1 8094   2.759   4.218   0.803
 2691SOL    HW2 8095   2.832   4.145   0.930
 2692SOL     OW 8096   2.401   3.788   0.512
 2692SOL    HW1 8097   2.320   3.789   0.570
 2692SOL    HW2 8098   2.404   3.871   0.457
 2693SOL     OW 8099   2.159   3.759   0.171
 2693SOL    HW1 8100   2.208   3.843   0.150
 2693SOL    HW2 8101   2.221   3.694   0.216
 2694SOL     OW 8102   2.797   3.960   0.480
 2694SOL    HW1 8103   2.749   4.001   0.402
 2694SOL    HW2 8104   2.896   3.958   0.461
 2695SOL     OW 8105   2.938   4.407   1.464
 2695SOL    HW1 8106   2.858   4.346   1.467
 2695SOL    HW2 8107   3.019   4.354   1.440
 2696SOL     OW 8108   2.321   4.876   0.741
 2696SOL    HW1 8109   2.250   4.849   0.806
 2696SOL    HW2 8110   2.295   4.848   0.648
 2697SOL     OW 8111   2.894   4.273   0.016
 2697SOL    HW1 8112   2.853   4.355  -0.023
 2697SOL    HW2 8113   2.958   4.299   0.089
 2698SOL     OW 8114   1.940   4.280   1.386
 2698SOL    HW1 8115   2.032   4.279   1.345
 2698SOL    HW2 8116   1.934   4.354   1.453
 2699SOL     OW 8117   2.423   3.946   1.147
 2699SOL    HW1 8118   2.461   3.862   1.184
 2699SOL    HW2 8119   2.335   3.965   1.191
 2700SOL     OW 8120   2.728   4.178   0.642
 2700SOL    HW1 8121   2.696   4.250   0.580
 2700SOL    HW2 8122   2.752   4.097   0.589
 2701SOL     OW 8123   2.879   3.763   0.753
 2701SOL    HW1 8124   2.807   3.768   0.684
 2701SOL    HW2 8125   2.855   3.694   0.822
 2702SOL     OW 8126   3.291   4.897   0.867
 2702SOL    HW1 8127   3.236   4.813   0.860
 2702SOL    HW2 8128   3.317   4.926   0.775
 2703SOL     OW 8129   3.328   4.314   0.992
 2703SOL    HW1 8130   3.298   4.219   0.999
 2703SOL    HW2 8131   3.401   4.330   1.058
 2704SOL     OW 8132   3.719   4.557   0.377
 2704SOL    HW1 8133   3.761   4.493   0.441
 2704SOL    HW2 8134   3.681   4.506   0.299
 2705SOL     OW 8135   3.252   4.299   0.078
 2705SOL    HW1 8136   3.198   4.278   0.159
 2705SOL    HW2 8137   3.343   4.258   0.087
 2706SOL     OW 8138   2.389   3.980   0.328
 2706SOL    HW1 8139   2.416   3.921   0.253
 2706SOL    HW2 8140   2.389   4.075   0.297
 2707SOL     OW 8141   3.616   4.947   1.588
 2707SOL    HW1 8142   3.707   4.908   1.575
 2707SOL    HW2 8143   3.624   5.043   1.612
 2708SOL     OW 8144   3.500   4.823   1.079
 2708SOL    HW1 8145   3.505   4.904   1.138
 2708SOL    HW2 8146   3.414   4.825   1.028
 2709SOL     OW 8147   2.777   3.813   1.402
 2709SOL    HW1 8148   2.802   3.793   1.307
 2709SOL    HW2 8149   2.849   3.869   1.444
 2710SOL     OW 8150   2.842   4.840   1.719
 2710SOL    HW1 8151   2.743   4.846   1.729
 2710SOL    HW2 8152   2.865   4.760   1.663
 2711SOL     OW 8153   2.567   4.774   0.368
 2711SOL    HW1 8154   2.553   4.781   0.467
 2711SOL    HW2 8155   2.651   4.723   0.350
 2712SOL     OW 8156   2.272   4.537   1.251
 2712SOL    HW1 8157   2.358   4.549   1.301
 2712SOL    HW2 8158   2.230   4.450   1.278
 2713SOL     OW 8159   3.136   4.110   1.262
 2713SOL    HW1 8160   3.157   4.184   1.326
 2713SOL    HW2 8161   3.047   4.127   1.219
 2714SOL     OW 8162   2.229   4.824   0.501
 2714SOL    HW1 8163   2.222   4.907   0.445
 2714SOL    HW2 8164   2.233   4.744   0.441
 2715SOL     OW 8165   2.428   4.261   0.865
 2715SOL    HW1 8166   2.440   4.327   0.791
 2715SOL    HW2 8167   2.474   4.295   0.948
 2716SOL     OW 8168   3.444   4.363   0.472
 2716SOL    HW1 8169   3.413   4.424   0.545
 2716SOL    HW2 8170   3.494   4.415   0.403
 2717SOL     OW 8171   2.264   4.475   1.598
 2717SOL    HW1 8172   2.332   4.530   1.551
 2717SOL    HW2 8173   2.304   4.387   1.625
 2718SOL     OW 8174   3.449   4.503   1.670
 2718SOL    HW1 8175   3.357   4.541   1.665
 2718SOL    HW2 8176   3.509   4.550   1.605
 2719SOL     OW 8177   2.875   3.829   1.770
 2719SOL    HW1 8178   2.881   3.914   1.718
 2719SOL    HW2 8179   2.907   3.753   1.713
 2720SOL     OW 8180   2.366   3.774   1.740
 2720SOL    HW1 8181   2.324   3.717   1.670
 2720SOL    HW2 8182   2.300   3.843   1.772
 2721SOL     OW 8183   2.435   4.594   1.029
 2721SOL    HW1 8184   2.479   4.683   1.020
 2721SOL    HW2 8185   2.372   4.594   1.106
 2722SOL     OW 8186   3.222   4.586   1.045
 2722SOL    HW1 8187   3.147   4.586   0.979
 2722SOL    HW2 8188   3.259   4.494   1.054
 2723SOL     OW 8189   3.071   4.249   0.275
 2723SOL    HW1 8190   3.084   4.165   0.329
 2723SOL    HW2 8191   3.042   4.323   0.335
 2724SOL     OW 8192   2.169   3.937   1.231
 2724SOL    HW1 8193   2.146   3.974   1.321
 2724SOL    HW2 8194   2.139   3.842   1.225
 2725SOL     OW 8195   2.594   4.358   1.064
 2725SOL    HW1 8196   2.653   4.332   0.988
 2725SOL    HW2 8197   2.566   4.454   1.053
 2726SOL     OW 8198   3.590   4.659   1.854
 2726SOL    HW1 8199   3.544   4.652   1.765
 2726SOL    HW2 8200   3.528   4.703   1.920
 2727SOL     OW 8201   2.169   3.787   0.618
 2727SOL    HW1 8202   2.158   3.881   0.651
 2727SOL    HW2 8203   2.164   3.724   0.695
 2728SOL     OW 8204   3.484   4.091   0.374
 2728SOL    HW1 8205   3.486   4.015   0.438
 2728SOL    HW2 8206   3.436   4.168   0.414
 2729SOL     OW 8207   2.885   4.490   0.966
 2729SOL    HW1 8208   2.900   4.511   1.062
 2729SOL    HW2 8209   2.855   4.395   0.957
 2730SOL     OW 8210   2.212   4.622   1.804
 2730SOL    HW1 8211   2.288   4.666   1.852
 2730SOL    HW2 8212   2.247   4.575   1.722
 2731SOL     OW 8213   3.402   3.998   0.125
 2731SOL    HW1 8214   3.341   3.923   0.148
 2731SOL    HW2 8215   3.424   4.050   0.208
 2732SOL     OW 8216   3.165   4.562   0.042
 2732SOL    HW1 8217   3.199   4.469   0.057
 2732SOL    HW2 8218   3.183   4.589  -0.053
 2733SOL     OW 8219   2.181   4.534   0.949
 2733SOL    HW1 8220   2.274   4.570   0.954
 2733SOL    HW2 8221   2.175   4.449   1.001
 2734SOL     OW 8222   2.201   4.233   1.006
 2734SOL    HW1 8223   2.149   4.150   0.989
 2734SOL    HW2 8224   2.278   4.238   0.942
 2735SOL     OW 8225   3.000   4.104   1.678
 2735SOL    HW1 8226   2.955   4.167   1.742
 2735SOL    HW2 8227   3.093   4.135   1.661
 2736SOL     OW 8228   3.022   3.931   1.477
 2736SOL    HW1 8229   3.022   3.995   1.554
 2736SOL    HW2 8230   3.050   3.979   1.394
 2737SOL     OW 8231   2.864   4.520   1.238
 2737SOL    HW1 8232   2.905   4.488   1.324
 2737SOL    HW2 8233   2.768   4.493   1.235
 2738SOL     OW 8234   1.902   4.268   1.114
 2738SOL    HW1 8235   1.987   4.235   1.073
 2738SOL    HW2 8236   1.915   4.283   1.212
 2739SOL     OW 8237   2.051   4.244   1.722
 2739SOL    HW1 8238   2.110   4.204   1.652
 2739SOL    HW2 8239   1.993   4.315   1.681
 2740SOL     OW 8240   3.231   4.674   1.660
 2740SOL    HW1 8241   3.270   4.763   1.680
 2740SOL    HW2 8242   3.241   4.654   1.563
 2741SOL     OW 8243   2.677   4.296   0.325
 2741SOL    HW1 8244   2.684   4.207   0.279
 2741SOL    HW2 8245   2.583   4.330   0.317
 2742SOL     OW 8246   3.519   4.328   1.206
 2742SOL    HW1 8247   3.481   4.259   1.268
 2742SOL    HW2 8248   3.601   4.292   1.162
 2743SOL     OW 8249   2.533   4.188   1.269
 2743SOL    HW1 8250   2.499   4.099   1.239
 2743SOL    HW2 8251   2.559   4.242   1.189
 2744SOL     OW 8252   2.335   4.224   0.191
 2744SOL    HW1 8253   2.396   4.304   0.195
 2744SOL    HW2 8254   2.240   4.255   0.198
 2745SOL     OW 8255   2.021   4.861   1.466
 2745SOL    HW1 8256   2.043   4.800   1.542
 2745SOL    HW2 8257   2.031   4.812   1.380
 2746SOL     OW 8258   3.209   4.783   1.234
 2746SOL    HW1 8259   3.233   4.720   1.160
 2746SOL    HW2 8260   3.119   4.823   1.216
 2747SOL     OW 8261   3.164   4.579   0.309
 2747SOL    HW1 8262   3.078   4.548   0.351
 2747SOL    HW2 8263   3.160   4.565   0.210
 2748SOL     OW 8264   2.765   3.810   0.133
 2748SOL    HW1 8265   2.816   3.811   0.047
 2748SOL    HW2 8266   2.821   3.768   0.204
 2749SOL     OW 8267   3.588   3.859   0.523
 2749SOL    HW1 8268   3.661   3.842   0.456
 2749SOL    HW2 8269   3.557   3.772   0.561
 2750SOL     OW 8270   3.142   4.651   0.672
 2750SOL    HW1 8271   3.202   4.570   0.674
 2750SOL    HW2 8272   3.182   4.720   0.612
 2751SOL     OW 8273   3.703   3.899   0.963
 2751SOL    HW1 8274   3.742   3.814   0.927
 2751SOL    HW2 8275   3.605   3.901   0.944
 2752SOL     OW 8276   2.125   4.050   0.720
 2752SOL    HW1 8277   2.046   4.101   0.686
 2752SOL    HW2 8278   2.116   4.035   0.818
 2753SOL     OW 8279   2.684   4.726   1.372
 2753SOL    HW1 8280   2.724   4.725   1.280
 2753SOL    HW2 8281   2.694   4.818   1.412
 2754SOL     OW 8282   2.778   4.634   0.291
 2754SOL    HW1 8283   2.841   4.672   0.223
 2754SOL    HW2 8284   2.818   4.551   0.330
 2755SOL     OW 8285   2.234   5.012   1.490
 2755SOL    HW1 8286   2.221   5.105   1.456
 2755SOL    HW2 8287   2.150   4.960   1.477
 2756SOL     OW 8288   3.476   5.016   1.289
 2756SOL    HW1 8289   3.536   5.019   1.369
 2756SOL    HW2 8290   3.401   5.080   1.302
 2757SOL     OW 8291   2.901   4.822   0.696
 2757SOL    HW1 8292   2.831   4.775   0.750
 2757SOL    HW2 8293   2.960   4.754   0.653
 2758SOL     OW 8294   2.876   3.960   0.971
 2758SOL    HW1 8295   2.868   3.924   0.878
 2758SOL    HW2 8296   2.874   3.884   1.036
 2759SOL     OW 8297   3.571   4.109   1.381
 2759SOL    HW1 8298   3.644   4.178   1.385
 2759SOL    HW2 8299   3.599   4.034   1.322
 2760SOL     OW 8300   1.967   4.737   1.726
 2760SOL    HW1 8301   1.890   4.704   1.780
 2760SOL    HW2 8302   2.052   4.707   1.768
 2761SOL     OW 8303   2.534   3.927   1.489
 2761SOL    HW1 8304   2.624   3.911   1.449
 2761SOL    HW2 8305   2.542   3.932   1.588
 2762SOL     OW 8306   3.302   4.580   1.398
 2762SOL    HW1 8307   3.245   4.632   1.335
 2762SOL    HW2 8308   3.398   4.592   1.374
 2763SOL     OW 8309   1.934   3.890   0.318
 2763SOL    HW1 8310   1.917   3.973   0.264
 2763SOL    HW2 8311   2.024   3.853   0.296
 2764SOL     OW 8312   2.475   4.566   1.431
 2764SOL    HW1 8313   2.531   4.647   1.414
 2764SOL    HW2 8314   2.534   4.486   1.434
 2765SOL     OW 8315   2.578   4.289   1.708
 2765SOL    HW1 8316   2.597   4.354   1.782
 2765SOL    HW2 8317   2.638   4.209   1.717
 2766SOL     OW 8318   3.312   4.944   1.633
 2766SOL    HW1 8319   3.303   4.934   1.732
 2766SOL    HW2 8320   3.408   4.937   1.607
 2767SOL     OW 8321   3.536   4.607   1.254
 2767SOL    HW1 8322   3.509   4.518   1.217
 2767SOL    HW2 8323   3.537   4.675   1.181
 2768SOL     OW 8324   3.087   4.049   0.449
 2768SOL    HW1 8325   3.152   3.975   0.438
 2768SOL    HW2 8326   3.107   4.099   0.533
 2769SOL     OW 8327   2.456   4.469   0.652
 2769SOL    HW1 8328   2.506   4.554   0.633
 2769SOL    HW2 8329   2.368   4.471   0.604
 2770SOL     OW 8330   3.639   4.066   1.642
 2770SOL    HW1 8331   3.622   4.097   1.548
 2770SOL    HW2 8332   3.555   4.029   1.680
 2771SOL     OW 8333   3.592   4.658   1.517
 2771SOL    HW1 8334   3.630   4.749   1.532
 2771SOL    HW2 8335   3.584   4.641   1.418
 2772SOL     OW 8336   2.721   4.680   0.861
 2772SOL    HW1 8337   2.775   4.611   0.909
 2772SOL    HW2 8338   2.689   4.749   0.927
 2773SOL     OW 8339   2.945   4.708   0.087
 2773SOL    HW1 8340   2.922   4.761   0.005
 2773SOL    HW2 8341   3.026   4.652   0.068
 2774SOL     OW 8342   1.941   4.964   0.653
 2774SOL    HW1 8343   1.940   4.917   0.741
 2774SOL    HW2 8344   2.023   4.936   0.602
 2775SOL     OW 8345   3.686   3.916   1.227
 2775SOL    HW1 8346   3.682   3.826   1.271
 2775SOL    HW2 8347   3.689   3.905   1.128
 2776SOL     OW 8348   2.290   4.148   0.520
 2776SOL    HW1 8349   2.320   4.076   0.458
 2776SOL    HW2 8350   2.251   4.108   0.603
 2777SOL     OW 8351   2.179   4.271   1.280
 2777SOL    HW1 8352   2.217   4.212   1.352
 2777SOL    HW2 8353   2.219   4.245   1.192
 2778SOL     OW 8354   3.286   3.938   1.112
 2778SOL    HW1 8355   3.338   3.873   1.167
 2778SOL    HW2 8356   3.237   4.001   1.173
 2779SOL     OW 8357   2.863   3.758   1.154
 2779SOL    HW1 8358   2.800   3.686   1.123
 2779SOL    HW2 8359   2.956   3.722   1.154
 2780SOL     OW 8360   2.632   5.054   0.301
 2780SOL    HW1 8361   2.586   4.967   0.318
 2780SOL    HW2 8362   2.723   5.051   0.342
 2781SOL     OW 8363   3.214   3.776   0.168
 2781SOL    HW1 8364   3.249   3.735   0.084
 2781SOL    HW2 8365   3.124   3.738   0.188
 2782SOL     OW 8366   3.162   4.177   0.691
 2782SOL    HW1 8367   3.103   4.257   0.695
 2782SOL    HW2 8368   3.177   4.142   0.784
 2783SOL     OW 8369   3.455   3.945   0.882
 2783SOL    HW1 8370   3.371   3.944   0.936
 2783SOL    HW2 8371   3.457   4.028   0.826
 2784SOL     OW 8372   2.092   4.352   1.975
 2784SOL    HW1 8373   1.999   4.350   2.012
 2784SOL    HW2 8374   2.093   4.313   1.883
 2785SOL     OW 8375   2.087   3.999   2.858
 2785SOL    HW1 8376   2.122   3.982   2.950
 2785SOL    HW2 8377   1.999   3.954   2.846
 2786SOL     OW 8378   1.881   4.092   2.509
 2786SOL    HW1 8379   1.799   4.135   2.548
 2786SOL    HW2 8380   1.853   4.019   2.446
 2787SOL     OW 8381   2.997   4.427   2.579
 2787SOL    HW1 8382   3.054   4.505   2.554
 2787SOL    HW2 8383   2.937   4.453   2.655
 2788SOL     OW 8384   3.617   4.331   2.093
 2788SOL    HW1 8385   3.605   4.318   1.994
 2788SOL    HW2 8386   3.587   4.250   2.142
 2789SOL     OW 8387   2.630   4.868   2.885
 2789SOL    HW1 8388   2.552   4.885   2.945
 2789SOL    HW2 8389   2.664   4.955   2.849
 2790SOL     OW 8390   2.712   4.522   3.685
 2790SOL    HW1 8391   2.708   4.598   3.750
 2790SOL    HW2 8392   2.734   4.558   3.594
 2791SOL     OW 8393   2.547   4.736   2.527
 2791SOL    HW1 8394   2.616   4.720   2.597
 2791SOL    HW2 8395   2.474   4.793   2.565
 2792SOL     OW 8396   2.548   4.885   3.665
 2792SOL    HW1 8397   2.608   4.964   3.679
 2792SOL    HW2 8398   2.462   4.916   3.624
 2793SOL     OW 8399   2.300   4.116   3.361
 2793SOL    HW1 8400   2.382   4.060   3.370
 2793SOL    HW2 8401   2.219   4.058   3.365
 2794SOL     OW 8402   3.465   4.171   2.599
 2794SOL    HW1 8403   3.391   4.217   2.549
 2794SOL    HW2 8404   3.516   4.239   2.652
 2795SOL     OW 8405   2.102   4.815   2.748
 2795SOL    HW1 8406   2.116   4.731   2.800
 2795SOL    HW2 8407   2.047   4.879   2.803
 2796SOL     OW 8408   2.468   4.688   1.985
 2796SOL    HW1 8409   2.475   4.772   1.931
 2796SOL    HW2 8410   2.514   4.701   2.073
 2797SOL     OW 8411   3.456   3.838   3.342
 2797SOL    HW1 8412   3.438   3.905   3.270
 2797SOL    HW2 8413   3.453   3.884   3.431
 2798SOL     OW 8414   1.984   4.367   2.425
 2798SOL    HW1 8415   1.939   4.279   2.442
 2798SOL    HW2 8416   1.983   4.421   2.509
 2799SOL     OW 8417   3.551   4.646   2.474
 2799SOL    HW1 8418   3.646   4.617   2.482
 2799SOL    HW2 8419   3.543   4.711   2.399
 2800SOL     OW 8420   3.503   4.832   2.294
 2800SOL    HW1 8421   3.589   4.834   2.242
 2800SOL    HW2 8422   3.517   4.879   2.382
 2801SOL     OW 8423   1.975   4.461   3.459
 2801SOL    HW1 8424   2.063   4.448   3.504
 2801SOL    HW2 8425   1.962   4.558   3.437
 2802SOL     OW 8426   2.475   5.089   2.588
 2802SOL    HW1 8427   2.426   5.002   2.597
 2802SOL    HW2 8428   2.452   5.132   2.501
 2803SOL     OW 8429   3.155   4.952   3.285
 2803SOL    HW1 8430   3.192   4.879   3.227
 2803SOL    HW2 8431   3.207   4.957   3.370
 2804SOL     OW 8432   2.671   3.728   2.364
 2804SOL    HW1 8433   2.711   3.819   2.355
 2804SOL    HW2 8434   2.571   3.736   2.370
 2805SOL     OW 8435   2.059   4.700   3.126
 2805SOL    HW1 8436   2.148   4.655   3.112
 2805SOL    HW2 8437   1.986   4.635   3.107
 2806SOL     OW 8438   3.387   4.723   2.052
 2806SOL    HW1 8439   3.324   4.647   2.065
 2806SOL    HW2 8440   3.435   4.741   2.138
 2807SOL     OW 8441   2.179   3.975   3.663
 2807SOL    HW1 8442   2.250   4.046   3.669
 2807SOL    HW2 8443   2.091   4.014   3.691
 2808SOL     OW 8444   2.460   4.453   2.132
 2808SOL    HW1 8445   2.484   4.522   2.064
 2808SOL    HW2 8446   2.382   4.486   2.186
 2809SOL     OW 8447   3.143   4.069   2.806
 2809SOL    HW1 8448   3.057   4.019   2.793
 2809SOL    HW2 8449   3.205   4.015   2.862
 2810SOL     OW 8450   2.669   4.329   3.327
 2810SOL    HW1 8451   2.622   4.326   3.416
 2810SOL    HW2 8452   2.618   4.274   3.261
 2811SOL     OW 8453   3.256   4.193   3.536
 2811SOL    HW1 8454   3.236   4.236   3.624
 2811SOL    HW2 8455   3.334   4.131   3.545
 2812SOL     OW 8456   2.835   4.614   3.434
 2812SOL    HW1 8457   2.881   4.530   3.405
 2812SOL    HW2 8458   2.779   4.648   3.359
 2813SOL     OW 8459   2.853   4.134   3.104
 2813SOL    HW1 8460   2.776   4.168   3.158
 2813SOL    HW2 8461   2.819   4.083   3.025
 2814SOL     OW 8462   2.903   4.425   2.291
 2814SOL    HW1 8463   2.929   4.421   2.387
 2814SOL    HW2 8464   2.818   4.374   2.277
 2815SOL     OW 8465   1.938   4.535   2.651
 2815SOL    HW1 8466   2.037   4.523   2.660
 2815SOL    HW2 8467   1.914   4.630   2.672
 2816SOL     OW 8468   2.727   4.072   2.057
 2816SOL    HW1 8469   2.786   4.135   2.008
 2816SOL    HW2 8470   2.746   3.978   2.028
 2817SOL     OW 8471   3.581   4.309   3.693
 2817SOL    HW1 8472   3.555   4.398   3.657
 2817SOL    HW2 8473   3.579   4.241   3.620
 2818SOL     OW 8474   3.224   4.868   2.407
 2818SOL    HW1 8475   3.307   4.839   2.359
 2818SOL    HW2 8476   3.175   4.935   2.351
 2819SOL     OW 8477   2.412   3.920   2.747
 2819SOL    HW1 8478   2.407   3.915   2.847
 2819SOL    HW2 8479   2.414   4.016   2.718
 2820SOL     OW 8480   3.657   4.790   2.735
 2820SOL    HW1 8481   3.595   4.775   2.659
 2820SOL    HW2 8482   3.605   4.801   2.820
 2821SOL     OW 8483   2.183   4.667   2.104
 2821SOL    HW1 8484   2.265   4.706   2.062
 2821SOL    HW2 8485   2.156   4.585   2.055
 2822SOL     OW 8486   3.320   4.459   2.590
 2822SOL    HW1 8487   3.315   4.394   2.665
 2822SOL    HW2 8488   3.400   4.518   2.603
 2823SOL     OW 8489   2.064   4.009   3.360
 2823SOL    HW1 8490   1.984   4.069   3.347
 2823SOL    HW2 8491   2.054   3.960   3.446
 2824SOL     OW 8492   3.262   3.831   2.288
 2824SOL    HW1 8493   3.238   3.794   2.198
 2824SOL    HW2 8494   3.361   3.847   2.292
 2825SOL     OW 8495   2.244   4.424   2.342
 2825SOL    HW1 8496   2.289   4.334   2.339
 2825SOL    HW2 8497   2.150   4.413   2.375
 2826SOL     OW 8498   3.409   3.946   3.591
 2826SOL    HW1 8499   3.404   3.983   3.683
 2826SOL    HW2 8500   3.337   3.877   3.579
 2827SOL     OW 8501   2.476   3.846   1.979
 2827SOL    HW1 8502   2.574   3.824   1.986
 2827SOL    HW2 8503   2.445   3.829   1.886
 2828SOL     OW 8504   2.643   3.988   3.611
 2828SOL    HW1 8505   2.710   3.927   3.654
 2828SOL    HW2 8506   2.570   4.007   3.676
 2829SOL     OW 8507   3.213   4.314   3.295
 2829SOL    HW1 8508   3.241   4.271   3.380
 2829SOL    HW2 8509   3.238   4.410   3.296
 2830SOL     OW 8510   2.784   4.227   2.761
 2830SOL    HW1 8511   2.759   4.218   2.665
 2830SOL    HW2 8512   2.832   4.145   2.792
 2831SOL     OW 8513   2.401   3.788   2.374
 2831SOL    HW1 8514   2.320   3.789   2.432
 2831SOL    HW2 8515   2.404   3.871   2.319
 2832SOL     OW 8516   2.159   3.759   2.033
 2832SOL    HW1 8517   2.208   3.843   2.012
 2832SOL    HW2 8518   2.221   3.694   2.078
 2833SOL     OW 8519   2.797   3.960   2.342
 2833SOL    HW1 8520   2.749   4.001   2.264
 2833SOL    HW2 8521   2.896   3.958   2.323
 2834SOL     OW 8522   2.938   4.407   3.326
 2834SOL    HW1 8523   2.858   4.346   3.329
 2834SOL    HW2 8524   3.019   4.354   3.302
 2835SOL     OW 8525   2.321   4.876   2.603
 2835SOL    HW1 8526   2.250   4.849   2.668
 2835SOL    HW2 8527   2.295   4.848   2.510
 2836SOL     OW 8528   2.894   4.273   1.878
 2836SOL    HW1 8529   2.853   4.355   1.839
 2836SOL    HW2 8530   2.958   4.299   1.951
 2837SOL     OW 8531   1.940   4.280   3.248
 2837SOL    HW1 8532   2.032   4.279   3.207
 2837SOL    HW2 8533   1.934   4.354   3.315
 2838SOL     OW 8534   2.423   3.946   3.009
 2838SOL    HW1 8535   2.461   3.862   3.046
 2838SOL    HW2 8536   2.335   3.965   3.053
 2839SOL     OW 8537   2.728   4.178   2.504
 2839SOL    HW1 8538   2.696   4.250   2.442
 2839SOL    HW2 8539   2.752   4.097   2.451
 2840SOL     OW 8540   2.879   3.763   2.615
 2840SOL    HW1 8541   2.807   3.768   2.546
 2840SOL    HW2 8542   2.855   3.694   2.684
 2841SOL     OW 8543   3.291   4.897   2.729
 2841SOL    HW1 8544   3.236   4.813   2.722
 2841SOL    HW2 8545   3.317   4.926   2.637
 2842SOL     OW 8546   3.328   4.314   2.854
 2842SOL    HW1 8547   3.298   4.219   2.861
 2842SOL    HW2 8548   3.401   4.330   2.920
 2843SOL     OW 8549   3.719   4.557   2.239
 2843SOL    HW1 8550   3.761   4.493   2.303
 2843SOL    HW2 8551   3.681   4.506   2.161
 2844SOL     OW 8552   3.252   4.299   1.940
 2844SOL    HW1 8553   3.198   4.278   2.021
 2844SOL    HW2 8554   3.343   4.258   1.949
 2845SOL     OW 8555   2.389   3.980   2.190
 2845SOL    HW1 8556   2.416   3.921   2.115
 2845SOL    HW2 8557   2.389   4.075   2.159
 2846SOL     OW 8558   3.616   4.947   3.450
 2846SOL    HW1 8559   3.707   4.908   3.437
 2846SOL    HW2 8560   3.624   5.043   3.474
 2847SOL     OW 8561   3.500   4.823   2.941
 2847SOL    HW1 8562   3.505   4.904   3.000
 2847SOL    HW2 8563   3.414   4.825   2.890
 2848SOL     OW 8564   2.777   3.813   3.264
 2848SOL    HW1 8565   2.802   3.793   3.169
 2848SOL    HW2 8566   2.849   3.869   3.306
 2849SOL     OW 8567   2.842   4.840   3.581
 2849SOL    HW1 8568   2.743   4.846   3.591
 2849SOL    HW2 8569   2.865   4.760   3.525
 2850SOL     OW 8570   2.567   4.774   2.230
 2850SOL    HW1 8571   2.553   4.781   2.329
 2850SOL    HW2 8572   2.651   4.723   2.212
 2851SOL     OW 8573   2.272   4.537   3.113
 2851SOL    HW1 8574   2.358   4.549   3.163
 2851SOL    HW2 8575   2.230   4.450   3.140
 2852SOL     OW 8576   3.136   4.110   3.124
 2852SOL    HW1 8577   3.157   4.184   3.188
 2852SOL    HW2 8578   3.047   4.127   3.081
 2853SOL     OW 8579   2.229   4.824   2.363
 2853SOL    HW1 8580   2.222   4.907   2.307
 2853SOL    HW2 8581   2.233   4.744   2.303
 2854SOL     OW 8582   2.428   4.261   2.727
 2854SOL    HW1 8583   2.440   4.327   2.653
 2854SOL    HW2 8584   2.474   4.295   2.810
 2855SOL     OW 8585   3.444   4.363   2.334
 2855SOL    HW1 8586   3.413   4.424   2.407
 2855SOL    HW2 8587   3.494   4.415   2.265
 2856SOL     OW 8588   2.264   4.475   3.460
 2856SOL    HW1 8589   2.332   4.530   3.413
 2856SOL    HW2 8590   2.304   4.387   3.487
 2857SOL     OW 8591   3.449   4.503   3.532
 2857SOL    HW1 8592   3.357   4.541   3.527
 2857SOL    HW2 8593   3.509   4.550   3.467
 2858SOL     OW 8594   2.875   3.829   3.632
 2858SOL    HW1 8595   2.881   3.914   3.580
 2858SOL    HW2 8596   2.907   3.753   3.575
 2859SOL     OW 8597   2.366   3.774   3.602
 2859SOL    HW1 8598   2.324   3.717   3.532
 2859SOL    HW2 8599   2.300   3.843   3.634
 2860SOL     OW 8600   2.435   4.594   2.891
 2860SOL    HW1 8601   2.479   4.683   2.882
 2860SOL    HW2 8602   2.372   4.594   2.968
 2861SOL     OW 8603   3.222   4.586   2.907
 2861SOL    HW1 8604   3.147   4.586   2.841
 2861SOL    HW2 8605   3.259   4.494   2.916
 2862SOL     OW 8606   3.071   4.249   2.137
 2862SOL    HW1 8607   3.084   4.165   2.191
 2862SOL    HW2 8608   3.042   4.323   2.197
 2863SOL     OW 8609   2.169   3.937   3.093
 2863SOL    HW1 8610   2.146   3.974   3.183
 2863SOL    HW2 8611   2.139   3.842   3.087
 2864SOL     OW 8612   2.594   4.358   2.926
 2864SOL    HW1 8613   2.653   4.332   2.850
 2864SOL    HW2 8614   2.566   4.454   2.915
 2865SOL     OW 8615   3.590   4.659   3.716
 2865SOL    HW1 8616   3.544   4.652   3.627
 2865SOL    HW2 8617   3.528   4.703   3.782
 2866SOL     OW 8618   2.169   3.787   2.480
 2866SOL    HW1 8619   2.158   3.881   2.513
 2866SOL    HW2 8620   2.164   3.724   2.557
 2867SOL     OW 8621   3.484   4.091   2.236
 2867SOL    HW1 8622   3.486   4.015   2.300
 2867SOL    HW2 8623   3.436   4.168   2.276
 2868SOL     OW 8624   2.885   4.490   2.828
 2868SOL    HW1 8625   2.900   4.511   2.924
 2868SOL    HW2 8626   2.855   4.395   2.819
 2869SOL     OW 8627   2.212   4.622   3.666
 2869SOL    HW1 8628   2.288   4.666   3.714
 2869SOL    HW2 8629   2.247   4.575   3.584
 2870SOL     OW 8630   3.402   3.998   1.987
 2870SOL    HW1 8631   3.341   3.923   2.010
 2870SOL    HW2 8632   3.424   4.050   2.070
 2871SOL     OW 8633   3.165   4.562   1.904
 2871SOL    HW1 8634   3.199   4.469   1.919
 2871SOL    HW2 8635   3.183   4.589   1.809
 2872SOL     OW 8636   2.181   4.534   2.811
 2872SOL    HW1 8637   2.274   4.570   2.816
 2872SOL    HW2 8638   2.175   4.449   2.863
 2873SOL     OW 8639   2.201   4.233   2.868
 2873SOL    HW1 8640   2.149   4.150   2.851
 2873SOL    HW2 8641   2.278   4.238   2.804
 2874SOL     OW 8642   3.000   4.104   3.540
 2874SOL    HW1 8643   2.955   4.167   3.604
 2874SOL    HW2 8644   3.093   4.135   3.523
 2875SOL     OW 8645   3.022   3.931   3.339
 2875SOL    HW1 8646   3.022   3.995   3.416
 2875SOL    HW2 8647   3.050   3.979   3.256
 2876SOL     OW 8648   2.864   4.520   3.100
 2876SOL    HW1 8649   2.905   4.488   3.186
 2876SOL    HW2 8650   2.768   4.493   3.097
 2877SOL     OW 8651   1.902   4.268   2.976
 2877SOL    HW1 8652   1.987   4.235   2.935
 2877SOL    HW2 8653   1.915   4.283   3.074
 2878SOL     OW 8654   2.051   4.244   3.584
 2878SOL    HW1 8655   2.110   4.204   3.514
 2878SOL    HW2 8656   1.993   4.315   3.543
 2879SOL     OW 8657   3.231   4.674   3.522
 2879SOL    HW1 8658   3.270   4.763   3.542
 2879SOL    HW2 8659   3.241   4.654   3.425
 2880SOL     OW 8660   2.677   4.296   2.187
 2880SOL    HW1 8661   2.684   4.207   2.141
 2880SOL    HW2 8662   2.583   4.330   2.179
 2881SOL     OW 8663   3.519   4.328   3.068
 2881SOL    HW1 8664   3.481   4.259   3.130
 2881SOL    HW2 8665   3.601   4.292   3.024
 2882SOL     OW 8666   2.533   4.188   3.131
 2882SOL    HW1 8667   2.499   4.099   3.101
 2882SOL    HW2 8668   2.559   4.242   3.051
 2883SOL     OW 8669   2.335   4.224   2.053
 2883SOL    HW1 8670   2.396   4.304   2.057
 2883SOL    HW2 8671   2.240   4.255   2.060
 2884SOL     OW 8672   2.021   4.861   3.328
 2884SOL    HW1 8673   2.043   4.800   3.404
 2884SOL    HW2 8674   2.031   4.812   3.242
 2885SOL     OW 8675   3.209   4.783   3.096
 2885SOL    HW1 8676   3.233   4.720   3.022
 2885SOL    HW2 8677   3.119   4.823   3.078
 2886SOL     OW 8678   3.164   4.579   2.171
 2886SOL    HW1 8679   3.078   4.548   2.213
 2886SOL    HW2 8680   3.160   4.565   2.072
 2887SOL     OW 8681   3.588   3.859   2.385
 2887SOL    HW1 8682   3.661   3.842   2.318
 2887SOL    HW2 8683   3.557   3.772   2.423
 2888SOL     OW 8684   3.142   4.651   2.534
 2888SOL    HW1 8685   3.202   4.570   2.536
 2888SOL    HW2 8686   3.182   4.720   2.474
 2889SOL     OW 8687   3.703   3.899   2.825
 2889SOL    HW1 8688   3.742   3.814   2.789
 2889SOL    HW2 8689   3.605   3.901   2.806
 2890SOL     OW 8690   2.125   4.050   2.582
 2890SOL    HW1 8691   2.046   4.101   2.548
 2890SOL    HW2 8692   2.116   4.035   2.680
 2891SOL     OW 8693   2.684   4.726   3.234
 2891SOL    HW1 8694   2.724   4.725   3.142
 2891SOL    HW2 8695   2.694   4.818   3.274
 2892SOL     OW 8696   2.778   4.634   2.153
 2892SOL    HW1 8697   2.841   4.672   2.085
 2892SOL    HW2 8698   2.818   4.551   2.192
 2893SOL     OW 8699   2.234   5.012   3.352
 2893SOL    HW1 8700   2.221   5.105   3.318
 2893SOL    HW2 8701   2.150   4.960   3.339
 2894SOL     OW 8702   3.476   5.016   3.151
 2894SOL    HW1 8703   3.536   5.019   3.231
 2894SOL    HW2 8704   3.401   5.080   3.164
 2895SOL     OW 8705   2.901   4.822   2.558
 2895SOL    HW1 8706   2.831   4.775   2.612
 2895SOL    HW2 8707   2.960   4.754   2.515
 2896SOL     OW 8708   2.876   3.960   2.833
 2896SOL    HW1 8709   2.868   3.924   2.740
 2896SOL    HW2 8710   2.874   3.884   2.898
 2897SOL     OW 8711   3.571   4.109   3.243
 2897SOL    HW1 8712   3.644   4.178   3.247
 2897SOL    HW2 8713   3.599   4.034   3.184
 2898SOL     OW 8714   1.967   4.737   3.588
 2898SOL    HW1 8715   1.890   4.704   3.642
 2898SOL    HW2 8716   2.052   4.707   3.630
 2899SOL     OW 8717   2.534   3.927   3.351
 2899SOL    HW1 8718   2.624   3.911   3.311
 2899SOL    HW2 8719   2.542   3.932   3.450
 2900SOL     OW 8720   1.937   4.069   1.895
 2900SOL    HW1 8721   1.845   4.041   1.866
 2900SOL    HW2 8722   1.968   4.146   1.839
 2901SOL     OW 8723   3.302   4.580   3.260
 2901SOL    HW1 8724   3.245   4.632   3.197
 2901SOL    HW2 8725   3.398   4.592   3.236
 2902SOL     OW 8726   1.934   3.890   2.180
 2902SOL    HW1 8727   1.917   3.973   2.126
 2902SOL    HW2 8728   2.024   3.853   2.158
 2903SOL     OW 8729   2.475   4.566   3.293
 2903SOL    HW1 8730   2.531   4.647   3.276
 2903SOL    HW2 8731   2.534   4.486   3.296
 2904SOL     OW 8732   2.578   4.289   3.570
 2904SOL    HW1 8733   2.597   4.354   3.644
 2904SOL    HW2 8734   2.638   4.209   3.579
 2905SOL     OW 8735   3.312   4.944   3.495
 2905SOL    HW1 8736   3.303   4.934   3.594
 2905SOL    HW2 8737   3.408   4.937   3.469
 2906SOL     OW 8738   3.536   4.607   3.116
 2906SOL    HW1 8739   3.509   4.518   3.079
 2906SOL    HW2 8740   3.537   4.675   3.043
 2907SOL     OW 8741   3.087   4.049   2.311
 2907SOL    HW1 8742   3.152   3.975   2.300
 2907SOL    HW2 8743   3.107   4.099   2.395
 2908SOL     OW 8744   2.456   4.469   2.514
 2908SOL    HW1 8745   2.506   4.554   2.495
 2908SOL    HW2 8746   2.368   4.471   2.466
 2909SOL     OW 8747   3.639   4.066   3.504
 2909SOL    HW1 8748   3.622   4.097   3.410
 2909SOL    HW2 8749   3.555   4.029   3.542
 2910SOL     OW 8750   3.592   4.658   3.379
 2910SOL    HW1 8751   3.630   4.749   3.394
 2910SOL    HW2 8752   3.584   4.641   3.280
 2911SOL     OW 8753   2.721   4.680   2.723
 2911SOL    HW1 8754   2.775   4.611   2.771
 2911SOL    HW2 8755   2.689   4.749   2.789
 2912SOL     OW 8756   2.945   4.708   1.949
 2912SOL    HW1 8757   2.922   4.761   1.867
 2912SOL    HW2 8758   3.026   4.652   1.930
 2913SOL     OW 8759   1.941   4.964   2.515
 2913SOL    HW1 8760   1.940   4.917   2.603
 2913SOL    HW2 8761   2.023   4.936   2.464
 2914SOL     OW 8762   3.686   3.916   3.089
 2914SOL    HW1 8763   3.682   3.826   3.133
 2914SOL    HW2 8764   3.689   3.905   2.990
 2915SOL     OW 8765   2.290   4.148   2.382
 2915SOL    HW1 8766   2.320   4.076   2.320
 2915SOL    HW2 8767   2.251   4.108   2.465
 2916SOL     OW 8768   2.179   4.271   3.142
 2916SOL    HW1 8769   2.217   4.212   3.214
 2916SOL    HW2 8770   2.219   4.245   3.054
 2917SOL     OW 8771   3.286   3.938   2.974
 2917SOL    HW1 8772   3.338   3.873   3.029
 2917SOL    HW2 8773   3.237   4.001   3.035
 2918SOL     OW 8774   2.863   3.758   3.016
 2918SOL    HW1 8775   2.800   3.686   2.985
 2918SOL    HW2 8776   2.956   3.722   3.016
 2919SOL     OW 8777   2.632   5.054   2.163
 2919SOL    HW1 8778   2.586   4.967   2.180
 2919SOL    HW2 8779   2.723   5.051   2.204
 2920SOL     OW 8780   3.214   3.776   2.030
 2920SOL    HW1 8781   3.249   3.735   1.946
 2920SOL    HW2 8782   3.124   3.738   2.050
 2921SOL     OW 8783   3.162   4.177   2.553
 2921SOL    HW1 8784   3.103   4.257   2.557
 2921SOL    HW2 8785   3.177   4.142   2.646
 2922SOL     OW 8786   3.455   3.945   2.744
 2922SOL    HW1 8787   3.371   3.944   2.798
 2922SOL    HW2 8788   3.457   4.028   2.688
 2923SOL     OW 8789   1.901   4.801   2.162
 2923SOL    HW1 8790   2.000   4.790   2.153
 2923SOL    HW2 8791   1.861   4.715   2.194
 2924SOL     OW 8792   2.092   4.352   3.837
 2924SOL    HW1 8793   1.999   4.350   3.874
 2924SOL    HW2 8794   2.093   4.313   3.745
 2925SOL     OW 8795   2.087   3.999   4.720
 2925SOL    HW1 8796   2.122   3.982   4.812
 2925SOL    HW2 8797   1.999   3.954   4.708
 2926SOL     OW 8798   1.881   4.092   4.371
 2926SOL    HW1 8799   1.799   4.135   4.410
 2926SOL    HW2 8800   1.853   4.019   4.308
 2927SOL     OW 8801   2.997   4.427   4.441
 2927SOL    HW1 8802   3.054   4.505   4.416
 2927SOL    HW2 8803   2.937   4.453   4.517
 2928SOL     OW 8804   3.617   4.331   3.955
 2928SOL    HW1 8805   3.605   4.318   3.856
 2928SOL    HW2 8806   3.587   4.250   4.004
 2929SOL     OW 8807   2.630   4.868   4.747
 2929SOL    HW1 8808   2.552   4.885   4.807
 2929SOL    HW2 8809   2.664   4.955   4.711
 2930SOL     OW 8810   2.547   4.736   4.389
 2930SOL    HW1 8811   2.616   4.720   4.459
 2930SOL    HW2 8812   2.474   4.793   4.427
 2931SOL     OW 8813   3.465   4.171   4.461
 2931SOL    HW1 8814   3.391   4.217   4.411
 2931SOL    HW2 8815   3.516   4.239   4.514
 2932SOL     OW 8816   2.102   4.815   4.610
 2932SOL    HW1 8817   2.116   4.731   4.662
 2932SOL    HW2 8818   2.047   4.879   4.665
 2933SOL     OW 8819   2.468   4.688   3.847
 2933SOL    HW1 8820   2.475   4.772   3.793
 2933SOL    HW2 8821   2.514   4.701   3.935
 2934SOL     OW 8822   1.984   4.367   4.287
 2934SOL    HW1 8823   1.939   4.279   4.304
 2934SOL    HW2 8824   1.983   4.421   4.371
 2935SOL     OW 8825   3.551   4.646   4.336
 2935SOL    HW1 8826   3.646   4.617   4.344
 2935SOL    HW2 8827   3.543   4.711   4.261
 2936SOL     OW 8828   3.503   4.832   4.156
 2936SOL    HW1 8829   3.589   4.834   4.104
 2936SOL    HW2 8830   3.517   4.879   4.244
 2937SOL     OW 8831   2.475   5.089   4.450
 2937SOL    HW1 8832   2.426   5.002   4.459
 2937SOL    HW2 8833   2.452   5.132   4.363
 2938SOL     OW 8834   2.671   3.728   4.226
 2938SOL    HW1 8835   2.711   3.819   4.217
 2938SOL    HW2 8836   2.571   3.736   4.232
 2939SOL     OW 8837   2.059   4.700   4.988
 2939SOL    HW1 8838   2.148   4.655   4.974
 2939SOL    HW2 8839   1.986   4.635   4.969
 2940SOL     OW 8840   3.387   4.723   3.914
 2940SOL    HW1 8841   3.324   4.647   3.927
 2940SOL    HW2 8842   3.435   4.741   4.000
 2941SOL     OW 8843   2.460   4.453   3.994
 2941SOL    HW1 8844   2.484   4.522   3.926
 2941SOL    HW2 8845   2.382   4.486   4.048
 2942SOL     OW 8846   3.143   4.069   4.668
 2942SOL    HW1 8847   3.057   4.019   4.655
 2942SOL    HW2 8848   3.205   4.015   4.724
 2943SOL     OW 8849   2.903   4.425   4.153
 2943SOL    HW1 8850   2.929   4.421   4.249
 2943SOL    HW2 8851   2.818   4.374   4.139
 2944SOL     OW 8852   1.938   4.535   4.513
 2944SOL    HW1 8853   2.037   4.523   4.522
 2944SOL    HW2 8854   1.914   4.630   4.534
 2945SOL     OW 8855   2.727   4.072   3.919
 2945SOL    HW1 8856   2.786   4.135   3.870
 2945SOL    HW2 8857   2.746   3.978   3.890
 2946SOL     OW 8858   3.224   4.868   4.269
 2946SOL    HW1 8859   3.307   4.839   4.221
 2946SOL    HW2 8860   3.175   4.935   4.213
 2947SOL     OW 8861   2.412   3.920   4.609
 2947SOL    HW1 8862   2.407   3.915   4.709
 2947SOL    HW2 8863   2.414   4.016   4.580
 2948SOL     OW 8864   3.657   4.790   4.597
 2948SOL    HW1 8865   3.595   4.775   4.521
 2948SOL    HW2 8866   3.605   4.801   4.682
 2949SOL     OW 8867   2.183   4.667   3.966
 2949SOL    HW1 8868   2.265   4.706   3.924
 2949SOL    HW2 8869   2.156   4.585   3.917
 2950SOL     OW 8870   3.320   4.459   4.452
 2950SOL    HW1 8871   3.315   4.394   4.527
 2950SOL    HW2 8872   3.400   4.518   4.465
 2951SOL     OW 8873   3.262   3.831   4.150
 2951SOL    HW1 8874   3.238   3.794   4.060
 2951SOL    HW2 8875   3.361   3.847   4.154
 2952SOL     OW 8876   2.244   4.424   4.204
 2952SOL    HW1 8877   2.289   4.334   4.201
 2952SOL    HW2 8878   2.150   4.413   4.237
 2953SOL     OW 8879   2.476   3.846   3.841
 2953SOL    HW1 8880   2.574   3.824   3.848
 2953SOL    HW2 8881   2.445   3.829   3.748
 2954SOL     OW 8882   2.784   4.227   4.623
 2954SOL    HW1 8883   2.759   4.218   4.527
 2954SOL    HW2 8884   2.832   4.145   4.654
 2955SOL     OW 8885   2.401   3.788   4.236
 2955SOL    HW1 8886   2.320   3.789   4.294
 2955SOL    HW2 8887   2.404   3.871   4.181
 2956SOL     OW 8888   2.159   3.759   3.895
 2956SOL    HW1 8889   2.208   3.843   3.874
 2956SOL    HW2 8890   2.221   3.694   3.940
 2957SOL     OW 8891   2.797   3.960   4.204
 2957SOL    HW1 8892   2.749   4.001   4.126
 2957SOL    HW2 8893   2.896   3.958   4.185
 2958SOL     OW 8894   2.321   4.876   4.465
 2958SOL    HW1 8895   2.250   4.849   4.530
 2958SOL    HW2 8896   2.295   4.848   4.372
 2959SOL     OW 8897   2.894   4.273   3.740
 2959SOL    HW1 8898   2.853   4.355   3.701
 2959SOL    HW2 8899   2.958   4.299   3.813
 2960SOL     OW 8900   2.728   4.178   4.366
 2960SOL    HW1 8901   2.696   4.250   4.304
 2960SOL    HW2 8902   2.752   4.097   4.313
 2961SOL     OW 8903   2.879   3.763   4.477
 2961SOL    HW1 8904   2.807   3.768   4.408
 2961SOL    HW2 8905   2.855   3.694   4.546
 2962SOL     OW 8906   3.291   4.897   4.591
 2962SOL    HW1 8907   3.236   4.813   4.584
 2962SOL    HW2 8908   3.317   4.926   4.499
 2963SOL     OW 8909   3.328   4.314   4.716
 2963SOL    HW1 8910   3.298   4.219   4.723
 2963SOL    HW2 8911   3.401   4.330   4.782
 2964SOL     OW 8912   3.719   4.557   4.101
 2964SOL    HW1 8913   3.761   4.493   4.165
 2964SOL    HW2 8914   3.681   4.506   4.023
 2965SOL     OW 8915   3.252   4.299   3.802
 2965SOL    HW1 8916   3.198   4.278   3.883
 2965SOL    HW2 8917   3.343   4.258   3.811
 2966SOL     OW 8918   2.389   3.980   4.052
 2966SOL    HW1 8919   2.416   3.921   3.977
 2966SOL    HW2 8920   2.389   4.075   4.021
 2967SOL     OW 8921   3.500   4.823   4.803
 2967SOL    HW1 8922   3.505   4.904   4.862
 2967SOL    HW2 8923   3.414   4.825   4.752
 2968SOL     OW 8924   2.567   4.774   4.092
 2968SOL    HW1 8925   2.553   4.781   4.191
 2968SOL    HW2 8926   2.651   4.723   4.074
 2969SOL     OW 8927   2.272   4.537   4.975
 2969SOL    HW1 8928   2.358   4.549   5.025
 2969SOL    HW2 8929   2.230   4.450   5.002
 2970SOL     OW 8930   2.229   4.824   4.225
 2970SOL    HW1 8931   2.222   4.907   4.169
 2970SOL    HW2 8932   2.233   4.744   4.165
 2971SOL     OW 8933   2.428   4.261   4.589
 2971SOL    HW1 8934   2.440   4.327   4.515
 2971SOL    HW2 8935   2.474   4.295   4.672
 2972SOL     OW 8936   3.444   4.363   4.196
 2972SOL    HW1 8937   3.413   4.424   4.269
 2972SOL    HW2 8938   3.494   4.415   4.127
 2973SOL     OW 8939   2.435   4.594   4.753
 2973SOL    HW1 8940   2.479   4.683   4.744
 2973SOL    HW2 8941   2.372   4.594   4.830
 2974SOL     OW 8942   3.222   4.586   4.769
 2974SOL    HW1 8943   3.147   4.586   4.703
 2974SOL    HW2 8944   3.259   4.494   4.778
 2975SOL     OW 8945   3.071   4.249   3.999
 2975SOL    HW1 8946   3.084   4.165   4.053
 2975SOL    HW2 8947   3.042   4.323   4.059
 2976SOL     OW 8948   2.169   3.937   4.955
 2976SOL    HW1 8949   2.146   3.974   5.045
 2976SOL    HW2 8950   2.139   3.842   4.949
 2977SOL     OW 8951   2.594   4.358   4.788
 2977SOL    HW1 8952   2.653   4.332   4.712
 2977SOL    HW2 8953   2.566   4.454   4.777
 2978SOL     OW 8954   2.169   3.787   4.342
 2978SOL    HW1 8955   2.158   3.881   4.375
 2978SOL    HW2 8956   2.164   3.724   4.419
 2979SOL     OW 8957   3.484   4.091   4.098
 2979SOL    HW1 8958   3.486   4.015   4.162
 2979SOL    HW2 8959   3.436   4.168   4.138
 2980SOL     OW 8960   2.885   4.490   4.690
 2980SOL    HW1 8961   2.900   4.511   4.786
 2980SOL    HW2 8962   2.855   4.395   4.681
 2981SOL     OW 8963   3.402   3.998   3.849
 2981SOL    HW1 8964   3.341   3.923   3.872
 2981SOL    HW2 8965   3.424   4.050   3.932
 2982SOL     OW 8966   3.165   4.562   3.766
 2982SOL    HW1 8967   3.199   4.469   3.781
 2982SOL    HW2 8968   3.183   4.589   3.671
 2983SOL     OW 8969   2.181   4.534   4.673
 2983SOL    HW1 8970   2.274   4.570   4.678
 2983SOL    HW2 8971   2.175   4.449   4.725
 2984SOL     OW 8972   2.201   4.233   4.730
 2984SOL    HW1 8973   2.149   4.150   4.713
 2984SOL    HW2 8974   2.278   4.238   4.666
 2985SOL     OW 8975   3.022   3.931   5.201
 2985SOL    HW1 8976   3.022   3.995   5.278
 2985SOL    HW2 8977   3.050   3.979   5.118
 2986SOL     OW 8978   2.864   4.520   4.962
 2986SOL    HW1 8979   2.905   4.488   5.048
 2986SOL    HW2 8980   2.768   4.493   4.959
 2987SOL     OW 8981   1.902   4.268   4.838
 2987SOL    HW1 8982   1.987   4.235   4.797
 2987SOL    HW2 8983   1.915   4.283   4.936
 2988SOL     OW 8984   2.677   4.296   4.049
 2988SOL    HW1 8985   2.684   4.207   4.003
 2988SOL    HW2 8986   2.583   4.330   4.041
 2989SOL     OW 8987   3.519   4.328   4.930
 2989SOL    HW1 8988   3.481   4.259   4.992
 2989SOL    HW2 8989   3.601   4.292   4.886
 2990SOL     OW 8990   2.533   4.188   4.993
 2990SOL    HW1 8991   2.499   4.099   4.963
 2990SOL    HW2 8992   2.559   4.242   4.913
 2991SOL     OW 8993   2.335   4.224   3.915
 2991SOL    HW1 8994   2.396   4.304   3.919
 2991SOL    HW2 8995   2.240   4.255   3.922
 2992SOL     OW 8996   2.021   4.861   5.190
 2992SOL    HW1 8997   2.043   4.800   5.266
 2992SOL    HW2 8998   2.031   4.812   5.104
 2993SOL     OW 8999   3.209   4.783   4.958
 2993SOL    HW1 9000   3.233   4.720   4.884
 2993SOL    HW2 9001   3.119   4.823   4.940
 2994SOL     OW 9002   3.164   4.579   4.033
 2994SOL    HW1 9003   3.078   4.548   4.075
 2994SOL    HW2 9004   3.160   4.565   3.934
 2995SOL     OW 9005   3.588   3.859   4.247
 2995SOL    HW1 9006   3.661   3.842   4.180
 2995SOL    HW2 9007   3.557   3.772   4.285
 2996SOL     OW 9008   3.142   4.651   4.396
 2996SOL    HW1 9009   3.202   4.570   4.398
 2996SOL    HW2 9010   3.182   4.720   4.336
 2997SOL     OW 9011   3.703   3.899   4.687
 2997SOL    HW1 9012   3.742   3.814   4.651
 2997SOL    HW2 9013   3.605   3.901   4.668
 2998SOL     OW 9014   2.125   4.050   4.444
 2998SOL    HW1 9015   2.046   4.101   4.410
 2998SOL    HW2 9016   2.116   4.035   4.542
 2999SOL     OW 9017   2.684   4.726   5.096
 2999SOL    HW1 9018   2.724   4.725   5.004
 2999SOL    HW2 9019   2.694   4.818   5.136
 3000SOL     OW 9020   2.778   4.634   4.015
 3000SOL    HW1 9021   2.841   4.672   3.947
 3000SOL    HW2 9022   2.818   4.551   4.054
 3001SOL     OW 9023   3.476   5.016   5.013
 3001SOL    HW1 9024   3.536   5.019   5.093
 3001SOL    HW2 9025   3.401   5.080   5.026
 3002SOL     OW 9026   2.901   4.822   4.420
 3002SOL    HW1 9027   2.831   4.775   4.474
 3002SOL    HW2 9028   2.960   4.754   4.377
 3003SOL     OW 9029   2.876   3.960   4.695
 3003SOL    HW1 9030   2.868   3.924   4.602
 3003SOL    HW2 9031   2.874   3.884   4.760
 3004SOL     OW 9032   3.571   4.109   5.105
 3004SOL    HW1 9033   3.644   4.178   5.109
 3004SOL    HW2 9034   3.599   4.034   5.046
 3005SOL     OW 9035   1.937   4.069   3.757
 3005SOL    HW1 9036   1.845   4.041   3.728
 3005SOL    HW2 9037   1.968   4.146   3.701
 3006SOL     OW 9038   1.934   3.890   4.042
 3006SOL    HW1 9039   1.917   3.973   3.988
 3006SOL    HW2 9040   2.024   3.853   4.020
 3007SOL     OW 9041   3.536   4.607   4.978
 3007SOL    HW1 9042   3.509   4.518   4.941
 3007SOL    HW2 9043   3.537   4.675   4.905
 3008SOL     OW 9044   3.087   4.049   4.173
 3008SOL    HW1 9045   3.152   3.975   4.162
 3008SOL    HW2 9046   3.107   4.099   4.257
 3009SOL     OW 9047   2.456   4.469   4.376
 3009SOL    HW1 9048   2.506   4.554   4.357
 3009SOL    HW2 9049   2.368   4.471   4.328
 3010SOL     OW 9050   3.592   4.658   5.241
 3010SOL    HW1 9051   3.630   4.749   5.256
 3010SOL    HW2 9052   3.584   4.641   5.142
 3011SOL     OW 9053   2.721   4.680   4.585
 3011SOL    HW1 9054   2.775   4.611   4.633
 3011SOL    HW2 9055   2.689   4.749   4.651
 3012SOL     OW 9056   2.945   4.708   3.811
 3012SOL    HW1 9057   2.922   4.761   3.729
 3012SOL    HW2 9058   3.026   4.652   3.792
 3013SOL     OW 9059   1.941   4.964   4.377
 3013SOL    HW1 9060   1.940   4.917   4.465
 3013SOL    HW2 9061   2.023   4.936   4.326
 3014SOL     OW 9062   3.686   3.916   4.951
 3014SOL    HW1 9063   3.682   3.826   4.995
 3014SOL    HW2 9064   3.689   3.905   4.852
 3015SOL     OW 9065   2.290   4.148   4.244
 3015SOL    HW1 9066   2.320   4.076   4.182
 3015SOL    HW2 9067   2.251   4.108   4.327
 3016SOL     OW 9068   3.286   3.938   4.836
 3016SOL    HW1 9069   3.338   3.873   4.891
 3016SOL    HW2 9070   3.237   4.001   4.897
 3017SOL     OW 9071   2.863   3.758   4.878
 3017SOL    HW1 9072   2.800   3.686   4.847
 3017SOL    HW2 9073   2.956   3.722   4.878
 3018SOL     OW 9074   2.632   5.054   4.025
 3018SOL    HW1 9075   2.586   4.967   4.042
 3018SOL    HW2 9076   2.723   5.051   4.066
 3019SOL     OW 9077   3.214   3.776   3.892
 3019SOL    HW1 9078   3.249   3.735   3.808
 3019SOL    HW2 9079   3.124   3.738   3.912
 3020SOL     OW 9080   3.162   4.177   4.415
 3020SOL    HW1 9081   3.103   4.257   4.419
 3020SOL    HW2 9082   3.177   4.142   4.508
 3021SOL     OW 9083   3.455   3.945   4.606
 3021SOL    HW1 9084   3.371   3.944   4.660
 3021SOL    HW2 9085   3.457   4.028   4.550
 3022SOL     OW 9086   1.901   4.801   4.024
 3022SOL    HW1 9087   2.000   4.790   4.015
 3022SOL    HW2 9088   1.861   4.715   4.056
 3023SOL     OW 9089   3.954   0.628   0.113
 3023SOL    HW1 9090   3.861   0.626   0.150
 3023SOL    HW2 9091   3.955   0.589   0.021
 3024SOL     OW 9092   3.949   0.275   0.996
 3024SOL    HW1 9093   3.984   0.258   1.088
 3024SOL    HW2 9094   3.861   0.230   0.984
 3025SOL     OW 9095   3.743   0.368   0.647
 3025SOL    HW1 9096   3.661   0.411   0.686
 3025SOL    HW2 9097   3.715   0.295   0.584
 3026SOL     OW 9098   4.293   1.275   1.165
 3026SOL    HW1 9099   4.200   1.268   1.128
 3026SOL    HW2 9100   4.304   1.364   1.209
 3027SOL     OW 9101   4.859   0.703   0.717
 3027SOL    HW1 9102   4.916   0.781   0.692
 3027SOL    HW2 9103   4.799   0.729   0.793
 3028SOL     OW 9104   4.492   1.144   1.023
 3028SOL    HW1 9105   4.414   1.161   1.083
 3028SOL    HW2 9106   4.526   1.231   0.987
 3029SOL     OW 9107   4.574   0.798   1.823
 3029SOL    HW1 9108   4.570   0.874   1.888
 3029SOL    HW2 9109   4.596   0.834   1.732
 3030SOL     OW 9110   4.409   1.012   0.665
 3030SOL    HW1 9111   4.478   0.996   0.735
 3030SOL    HW2 9112   4.336   1.069   0.703
 3031SOL     OW 9113   4.410   1.161   1.803
 3031SOL    HW1 9114   4.470   1.240   1.817
 3031SOL    HW2 9115   4.324   1.192   1.762
 3032SOL     OW 9116   4.059   1.435   1.061
 3032SOL    HW1 9117   3.981   1.404   1.008
 3032SOL    HW2 9118   4.117   1.493   1.004
 3033SOL     OW 9119   4.162   0.392   1.499
 3033SOL    HW1 9120   4.244   0.336   1.508
 3033SOL    HW2 9121   4.081   0.334   1.503
 3034SOL     OW 9122   3.955   1.713   0.483
 3034SOL    HW1 9123   3.989   1.790   0.537
 3034SOL    HW2 9124   3.999   1.713   0.393
 3035SOL     OW 9125   4.851   1.341   1.690
 3035SOL    HW1 9126   4.898   1.341   1.778
 3035SOL    HW2 9127   4.803   1.254   1.679
 3036SOL     OW 9128   3.954   1.434   0.538
 3036SOL    HW1 9129   3.928   1.530   0.538
 3036SOL    HW2 9130   3.883   1.380   0.583
 3037SOL     OW 9131   3.964   1.091   0.886
 3037SOL    HW1 9132   3.978   1.007   0.938
 3037SOL    HW2 9133   3.909   1.155   0.941
 3038SOL     OW 9134   4.344   1.786   1.439
 3038SOL    HW1 9135   4.252   1.769   1.474
 3038SOL    HW2 9136   4.372   1.878   1.465
 3039SOL     OW 9137   4.330   0.964   0.123
 3039SOL    HW1 9138   4.337   1.048   0.069
 3039SOL    HW2 9139   4.376   0.977   0.211
 3040SOL     OW 9140   3.846   0.643   0.563
 3040SOL    HW1 9141   3.801   0.555   0.580
 3040SOL    HW2 9142   3.845   0.697   0.647
 3041SOL     OW 9143   3.751   1.596   0.117
 3041SOL    HW1 9144   3.732   1.500   0.138
 3041SOL    HW2 9145   3.718   1.654   0.192
 3042SOL     OW 9146   3.837   0.737   1.597
 3042SOL    HW1 9147   3.925   0.724   1.642
 3042SOL    HW2 9148   3.824   0.834   1.575
 3043SOL     OW 9149   4.337   1.365   0.726
 3043SOL    HW1 9150   4.288   1.278   0.735
 3043SOL    HW2 9151   4.314   1.408   0.639
 3044SOL     OW 9152   4.533   0.004   0.502
 3044SOL    HW1 9153   4.573   0.095   0.493
 3044SOL    HW2 9154   4.433   0.012   0.508
 3045SOL     OW 9155   3.921   0.976   1.264
 3045SOL    HW1 9156   4.010   0.931   1.250
 3045SOL    HW2 9157   3.848   0.911   1.245
 3046SOL     OW 9158   4.041   0.251   1.801
 3046SOL    HW1 9159   4.112   0.322   1.807
 3046SOL    HW2 9160   3.953   0.290   1.829
 3047SOL     OW 9161   4.322   0.729   0.270
 3047SOL    HW1 9162   4.346   0.798   0.202
 3047SOL    HW2 9163   4.244   0.762   0.324
 3048SOL     OW 9164   4.531   0.605   1.465
 3048SOL    HW1 9165   4.484   0.602   1.554
 3048SOL    HW2 9166   4.480   0.550   1.399
 3049SOL     OW 9167   4.697   0.890   1.572
 3049SOL    HW1 9168   4.743   0.806   1.543
 3049SOL    HW2 9169   4.641   0.924   1.497
 3050SOL     OW 9170   4.715   0.410   1.242
 3050SOL    HW1 9171   4.638   0.444   1.296
 3050SOL    HW2 9172   4.681   0.359   1.163
 3051SOL     OW 9173   4.765   0.701   0.429
 3051SOL    HW1 9174   4.791   0.697   0.525
 3051SOL    HW2 9175   4.680   0.650   0.415
 3052SOL     OW 9176   3.800   0.811   0.789
 3052SOL    HW1 9177   3.899   0.799   0.798
 3052SOL    HW2 9178   3.776   0.906   0.810
 3053SOL     OW 9179   3.854   1.821   1.571
 3053SOL    HW1 9180   3.844   1.806   1.670
 3053SOL    HW2 9181   3.768   1.857   1.535
 3054SOL     OW 9182   4.589   0.348   0.195
 3054SOL    HW1 9183   4.648   0.411   0.146
 3054SOL    HW2 9184   4.608   0.254   0.166
 3055SOL     OW 9185   4.274   0.196   0.885
 3055SOL    HW1 9186   4.269   0.191   0.985
 3055SOL    HW2 9187   4.276   0.292   0.856
 3056SOL     OW 9188   4.732   1.456   0.477
 3056SOL    HW1 9189   4.686   1.528   0.425
 3056SOL    HW2 9190   4.728   1.476   0.575
 3057SOL     OW 9191   4.075   1.801   0.853
 3057SOL    HW1 9192   4.125   1.715   0.859
 3057SOL    HW2 9193   4.140   1.878   0.850
 3058SOL     OW 9194   4.951   1.550   1.506
 3058SOL    HW1 9195   4.957   1.473   1.570
 3058SOL    HW2 9196   4.899   1.524   1.426
 3059SOL     OW 9197   4.045   0.943   0.242
 3059SOL    HW1 9198   4.127   0.982   0.200
 3059SOL    HW2 9199   4.018   0.861   0.193
 3060SOL     OW 9200   4.185   1.266   1.727
 3060SOL    HW1 9201   4.135   1.267   1.641
 3060SOL    HW2 9202   4.122   1.248   1.803
 3061SOL     OW 9203   4.835   1.776   0.237
 3061SOL    HW1 9204   4.775   1.714   0.287
 3061SOL    HW2 9205   4.866   1.732   0.152
 3062SOL     OW 9206   3.926   0.285   1.498
 3062SOL    HW1 9207   3.846   0.345   1.485
 3062SOL    HW2 9208   3.916   0.236   1.584
 3063SOL     OW 9209   4.188   1.743   0.323
 3063SOL    HW1 9210   4.221   1.782   0.409
 3063SOL    HW2 9211   4.264   1.736   0.258
 3064SOL     OW 9212   3.973   1.785   1.241
 3064SOL    HW1 9213   4.030   1.720   1.291
 3064SOL    HW2 9214   3.957   1.752   1.148
 3065SOL     OW 9215   4.664   1.698   0.904
 3065SOL    HW1 9216   4.744   1.641   0.925
 3065SOL    HW2 9217   4.615   1.658   0.827
 3066SOL     OW 9218   4.106   0.700   0.480
 3066SOL    HW1 9219   4.151   0.610   0.477
 3066SOL    HW2 9220   4.012   0.689   0.513
 3067SOL     OW 9221   4.338   0.122   0.117
 3067SOL    HW1 9222   4.436   0.100   0.124
 3067SOL    HW2 9223   4.307   0.105   0.024
 3068SOL     OW 9224   4.505   0.264   1.749
 3068SOL    HW1 9225   4.572   0.203   1.792
 3068SOL    HW2 9226   4.432   0.283   1.814
 3069SOL     OW 9227   4.612   1.514   1.195
 3069SOL    HW1 9228   4.589   1.489   1.101
 3069SOL    HW2 9229   4.673   1.445   1.234
 3070SOL     OW 9230   4.527   1.402   0.924
 3070SOL    HW1 9231   4.617   1.416   0.882
 3070SOL    HW2 9232   4.456   1.404   0.853
 3071SOL     OW 9233   4.646   0.503   0.899
 3071SOL    HW1 9234   4.621   0.494   0.803
 3071SOL    HW2 9235   4.694   0.421   0.930
 3072SOL     OW 9236   4.263   0.064   0.512
 3072SOL    HW1 9237   4.182   0.065   0.570
 3072SOL    HW2 9238   4.266   0.147   0.457
 3073SOL     OW 9239   5.158   1.188   0.041
 3073SOL    HW1 9240   5.190   1.112   0.098
 3073SOL    HW2 9241   5.066   1.215   0.071
 3074SOL     OW 9242   4.021   0.035   0.171
 3074SOL    HW1 9243   4.070   0.119   0.150
 3074SOL    HW2 9244   4.083  -0.030   0.216
 3075SOL     OW 9245   4.659   0.236   0.480
 3075SOL    HW1 9246   4.611   0.277   0.402
 3075SOL    HW2 9247   4.758   0.234   0.461
 3076SOL     OW 9248   4.800   0.683   1.464
 3076SOL    HW1 9249   4.720   0.622   1.467
 3076SOL    HW2 9250   4.881   0.630   1.440
 3077SOL     OW 9251   4.951   1.570   0.793
 3077SOL    HW1 9252   4.972   1.644   0.728
 3077SOL    HW2 9253   5.019   1.570   0.866
 3078SOL     OW 9254   4.183   1.152   0.741
 3078SOL    HW1 9255   4.112   1.125   0.806
 3078SOL    HW2 9256   4.157   1.124   0.648
 3079SOL     OW 9257   4.995   1.797   0.591
 3079SOL    HW1 9258   5.039   1.861   0.527
 3079SOL    HW2 9259   4.945   1.849   0.661
 3080SOL     OW 9260   4.756   0.549   0.016
 3080SOL    HW1 9261   4.715   0.631  -0.023
 3080SOL    HW2 9262   4.820   0.575   0.089
 3081SOL     OW 9263   3.802   0.556   1.386
 3081SOL    HW1 9264   3.894   0.555   1.345
 3081SOL    HW2 9265   3.796   0.630   1.453
 3082SOL     OW 9266   4.285   0.222   1.147
 3082SOL    HW1 9267   4.323   0.138   1.184
 3082SOL    HW2 9268   4.197   0.241   1.191
 3083SOL     OW 9269   4.590   0.454   0.642
 3083SOL    HW1 9270   4.558   0.526   0.580
 3083SOL    HW2 9271   4.614   0.373   0.589
 3084SOL     OW 9272   4.741   0.039   0.753
 3084SOL    HW1 9273   4.669   0.044   0.684
 3084SOL    HW2 9274   4.717  -0.030   0.822
 3085SOL     OW 9275   4.212   1.385   0.174
 3085SOL    HW1 9276   4.125   1.370   0.221
 3085SOL    HW2 9277   4.195   1.411   0.079
 3086SOL     OW 9278   4.251   0.256   0.328
 3086SOL    HW1 9279   4.278   0.197   0.253
 3086SOL    HW2 9280   4.251   0.351   0.297
 3087SOL     OW 9281   4.788   1.347   1.340
 3087SOL    HW1 9282   4.708   1.324   1.395
 3087SOL    HW2 9283   4.871   1.321   1.389
 3088SOL     OW 9284   4.835   1.195   1.100
 3088SOL    HW1 9285   4.795   1.239   1.181
 3088SOL    HW2 9286   4.794   1.232   1.017
 3089SOL     OW 9287   4.639   0.089   1.402
 3089SOL    HW1 9288   4.664   0.069   1.307
 3089SOL    HW2 9289   4.711   0.145   1.444
 3090SOL     OW 9290   4.704   1.116   1.719
 3090SOL    HW1 9291   4.605   1.122   1.729
 3090SOL    HW2 9292   4.727   1.036   1.663
 3091SOL     OW 9293   4.429   1.050   0.368
 3091SOL    HW1 9294   4.415   1.057   0.467
 3091SOL    HW2 9295   4.513   0.999   0.350
 3092SOL     OW 9296   4.134   0.813   1.251
 3092SOL    HW1 9297   4.220   0.825   1.301
 3092SOL    HW2 9298   4.092   0.726   1.278
 3093SOL     OW 9299   3.788   1.564   1.331
 3093SOL    HW1 9300   3.742   1.646   1.297
 3093SOL    HW2 9301   3.886   1.583   1.340
 3094SOL     OW 9302   4.091   1.100   0.501
 3094SOL    HW1 9303   4.084   1.183   0.445
 3094SOL    HW2 9304   4.095   1.020   0.441
 3095SOL     OW 9305   4.290   0.537   0.865
 3095SOL    HW1 9306   4.302   0.603   0.791
 3095SOL    HW2 9307   4.336   0.571   0.948
 3096SOL     OW 9308   4.976   1.348   0.388
 3096SOL    HW1 9309   5.026   1.425   0.428
 3096SOL    HW2 9310   4.881   1.350   0.420
 3097SOL     OW 9311   4.078   1.510   1.329
 3097SOL    HW1 9312   4.057   1.466   1.242
 3097SOL    HW2 9313   4.175   1.536   1.332
 3098SOL     OW 9314   4.126   0.751   1.598
 3098SOL    HW1 9315   4.194   0.806   1.551
 3098SOL    HW2 9316   4.166   0.663   1.625
 3099SOL     OW 9317   4.737   0.105   1.770
 3099SOL    HW1 9318   4.743   0.190   1.718
 3099SOL    HW2 9319   4.769   0.029   1.713
 3100SOL     OW 9320   4.228   0.050   1.740
 3100SOL    HW1 9321   4.186  -0.007   1.670
 3100SOL    HW2 9322   4.162   0.119   1.772
 3101SOL     OW 9323   4.297   0.870   1.029
 3101SOL    HW1 9324   4.341   0.959   1.020
 3101SOL    HW2 9325   4.234   0.870   1.106
 3102SOL     OW 9326   5.084   0.862   1.045
 3102SOL    HW1 9327   5.009   0.862   0.979
 3102SOL    HW2 9328   5.121   0.770   1.054
 3103SOL     OW 9329   4.933   0.525   0.275
 3103SOL    HW1 9330   4.946   0.441   0.329
 3103SOL    HW2 9331   4.904   0.599   0.335
 3104SOL     OW 9332   4.031   0.213   1.231
 3104SOL    HW1 9333   4.008   0.250   1.321
 3104SOL    HW2 9334   4.001   0.118   1.225
 3105SOL     OW 9335   3.761   1.310   1.282
 3105SOL    HW1 9336   3.814   1.261   1.350
 3105SOL    HW2 9337   3.783   1.408   1.287
 3106SOL     OW 9338   4.456   0.634   1.064
 3106SOL    HW1 9339   4.515   0.608   0.988
 3106SOL    HW2 9340   4.428   0.730   1.053
 3107SOL     OW 9341   4.031   0.063   0.618
 3107SOL    HW1 9342   4.020   0.157   0.651
 3107SOL    HW2 9343   4.026   0.000   0.695
 3108SOL     OW 9344   4.747   0.766   0.966
 3108SOL    HW1 9345   4.762   0.787   1.062
 3108SOL    HW2 9346   4.717   0.671   0.957
 3109SOL     OW 9347   4.704   1.573   1.700
 3109SOL    HW1 9348   4.684   1.617   1.612
 3109SOL    HW2 9349   4.743   1.482   1.684
 3110SOL     OW 9350   4.074   0.898   1.804
 3110SOL    HW1 9351   4.150   0.942   1.852
 3110SOL    HW2 9352   4.109   0.851   1.722
 3111SOL     OW 9353   4.792   1.333   0.849
 3111SOL    HW1 9354   4.799   1.249   0.794
 3111SOL    HW2 9355   4.854   1.402   0.813
 3112SOL     OW 9356   4.043   0.810   0.949
 3112SOL    HW1 9357   4.136   0.846   0.954
 3112SOL    HW2 9358   4.037   0.725   1.001
 3113SOL     OW 9359   4.063   0.509   1.006
 3113SOL    HW1 9360   4.011   0.426   0.989
 3113SOL    HW2 9361   4.140   0.514   0.942
 3114SOL     OW 9362   4.862   0.380   1.678
 3114SOL    HW1 9363   4.817   0.443   1.742
 3114SOL    HW2 9364   4.955   0.411   1.661
 3115SOL     OW 9365   4.884   0.207   1.477
 3115SOL    HW1 9366   4.884   0.271   1.554
 3115SOL    HW2 9367   4.912   0.255   1.394
 3116SOL     OW 9368   3.732   1.326   0.200
 3116SOL    HW1 9369   3.639   1.347   0.169
 3116SOL    HW2 9370   3.742   1.227   0.213
 3117SOL     OW 9371   3.812   1.801   0.927
 3117SOL    HW1 9372   3.770   1.715   0.900
 3117SOL    HW2 9373   3.906   1.804   0.893
 3118SOL     OW 9374   4.228   1.568   0.910
 3118SOL    HW1 9375   4.294   1.642   0.919
 3118SOL    HW2 9376   4.272   1.489   0.868
 3119SOL     OW 9377   4.726   0.796   1.238
 3119SOL    HW1 9378   4.767   0.764   1.324
 3119SOL    HW2 9379   4.630   0.769   1.235
 3120SOL     OW 9380   3.764   0.544   1.114
 3120SOL    HW1 9381   3.849   0.511   1.073
 3120SOL    HW2 9382   3.777   0.559   1.212
 3121SOL     OW 9383   3.913   0.520   1.722
 3121SOL    HW1 9384   3.972   0.480   1.652
 3121SOL    HW2 9385   3.855   0.591   1.681
 3122SOL     OW 9386   4.539   0.572   0.325
 3122SOL    HW1 9387   4.546   0.483   0.279
 3122SOL    HW2 9388   4.445   0.606   0.317
 3123SOL     OW 9389   3.976   1.564   1.744
 3123SOL    HW1 9390   3.946   1.621   1.820
 3123SOL    HW2 9391   3.969   1.467   1.770
 3124SOL     OW 9392   4.395   0.464   1.269
 3124SOL    HW1 9393   4.361   0.375   1.239
 3124SOL    HW2 9394   4.421   0.518   1.189
 3125SOL     OW 9395   4.654   1.678   1.465
 3125SOL    HW1 9396   4.630   1.660   1.370
 3125SOL    HW2 9397   4.684   1.772   1.475
 3126SOL     OW 9398   4.197   0.500   0.191
 3126SOL    HW1 9399   4.258   0.580   0.195
 3126SOL    HW2 9400   4.102   0.531   0.198
 3127SOL     OW 9401   3.883   1.137   1.466
 3127SOL    HW1 9402   3.905   1.076   1.542
 3127SOL    HW2 9403   3.893   1.088   1.380
 3128SOL     OW 9404   4.976   1.731   1.128
 3128SOL    HW1 9405   5.060   1.736   1.074
 3128SOL    HW2 9406   4.953   1.635   1.146
 3129SOL     OW 9407   3.807   1.258   1.022
 3129SOL    HW1 9408   3.802   1.257   1.122
 3129SOL    HW2 9409   3.724   1.217   0.984
 3130SOL     OW 9410   4.412   1.662   1.716
 3130SOL    HW1 9411   4.356   1.743   1.725
 3130SOL    HW2 9412   4.464   1.666   1.630
 3131SOL     OW 9413   4.627   0.086   0.133
 3131SOL    HW1 9414   4.678   0.087   0.047
 3131SOL    HW2 9415   4.683   0.044   0.204
 3132SOL     OW 9416   3.854   1.794   1.851
 3132SOL    HW1 9417   3.813   1.720   1.904
 3132SOL    HW2 9418   3.918   1.845   1.909
 3133SOL     OW 9419   4.554   1.273   1.422
 3133SOL    HW1 9420   4.549   1.306   1.517
 3133SOL    HW2 9421   4.468   1.292   1.376
 3134SOL     OW 9422   4.396   1.616   0.154
 3134SOL    HW1 9423   4.405   1.626   0.055
 3134SOL    HW2 9424   4.356   1.527   0.175
 3135SOL     OW 9425   3.987   0.326   0.720
 3135SOL    HW1 9426   3.908   0.377   0.686
 3135SOL    HW2 9427   3.978   0.311   0.818
 3136SOL     OW 9428   4.546   1.002   1.372
 3136SOL    HW1 9429   4.586   1.001   1.280
 3136SOL    HW2 9430   4.556   1.094   1.412
 3137SOL     OW 9431   4.640   0.910   0.291
 3137SOL    HW1 9432   4.703   0.948   0.223
 3137SOL    HW2 9433   4.680   0.827   0.330
 3138SOL     OW 9434   4.096   1.288   1.490
 3138SOL    HW1 9435   4.083   1.381   1.456
 3138SOL    HW2 9436   4.012   1.236   1.477
 3139SOL     OW 9437   4.763   1.098   0.696
 3139SOL    HW1 9438   4.693   1.051   0.750
 3139SOL    HW2 9439   4.822   1.030   0.653
 3140SOL     OW 9440   4.738   0.236   0.971
 3140SOL    HW1 9441   4.730   0.200   0.878
 3140SOL    HW2 9442   4.736   0.160   1.036
 3141SOL     OW 9443   4.314   1.487   0.491
 3141SOL    HW1 9444   4.356   1.429   0.421
 3141SOL    HW2 9445   4.270   1.566   0.447
 3142SOL     OW 9446   3.979   1.348   0.290
 3142SOL    HW1 9447   3.883   1.349   0.263
 3142SOL    HW2 9448   3.991   1.401   0.374
 3143SOL     OW 9449   3.829   1.013   1.726
 3143SOL    HW1 9450   3.752   0.980   1.780
 3143SOL    HW2 9451   3.914   0.983   1.768
 3144SOL     OW 9452   4.396   0.203   1.489
 3144SOL    HW1 9453   4.486   0.187   1.449
 3144SOL    HW2 9454   4.404   0.208   1.588
 3145SOL     OW 9455   3.796   0.166   0.318
 3145SOL    HW1 9456   3.779   0.249   0.264
 3145SOL    HW2 9457   3.886   0.129   0.296
 3146SOL     OW 9458   4.337   0.842   1.431
 3146SOL    HW1 9459   4.393   0.923   1.414
 3146SOL    HW2 9460   4.396   0.762   1.434
 3147SOL     OW 9461   4.440   0.565   1.708
 3147SOL    HW1 9462   4.459   0.630   1.782
 3147SOL    HW2 9463   4.500   0.485   1.717
 3148SOL     OW 9464   4.114   1.741   1.560
 3148SOL    HW1 9465   4.023   1.782   1.558
 3148SOL    HW2 9466   4.107   1.647   1.592
 3149SOL     OW 9467   4.318   0.745   0.652
 3149SOL    HW1 9468   4.368   0.830   0.633
 3149SOL    HW2 9469   4.230   0.747   0.604
 3150SOL     OW 9470   4.583   1.374   0.016
 3150SOL    HW1 9471   4.537   1.389   0.104
 3150SOL    HW2 9472   4.627   1.459  -0.014
 3151SOL     OW 9473   4.385   1.790   0.953
 3151SOL    HW1 9474   4.339   1.878   0.940
 3151SOL    HW2 9475   4.484   1.802   0.946
 3152SOL     OW 9476   4.583   0.956   0.861
 3152SOL    HW1 9477   4.637   0.887   0.909
 3152SOL    HW2 9478   4.551   1.025   0.927
 3153SOL     OW 9479   4.807   0.984   0.087
 3153SOL    HW1 9480   4.784   1.037   0.005
 3153SOL    HW2 9481   4.888   0.928   0.068
 3154SOL     OW 9482   3.945   1.314   1.844
 3154SOL    HW1 9483   3.880   1.241   1.823
 3154SOL    HW2 9484   3.949   1.328   1.942
 3155SOL     OW 9485   3.803   1.240   0.653
 3155SOL    HW1 9486   3.802   1.193   0.741
 3155SOL    HW2 9487   3.885   1.212   0.602
 3156SOL     OW 9488   4.396   1.391   1.624
 3156SOL    HW1 9489   4.318   1.341   1.662
 3156SOL    HW2 9490   4.393   1.486   1.655
 3157SOL     OW 9491   4.152   0.424   0.520
 3157SOL    HW1 9492   4.182   0.352   0.458
 3157SOL    HW2 9493   4.113   0.384   0.603
 3158SOL     OW 9494   4.041   0.547   1.280
 3158SOL    HW1 9495   4.079   0.488   1.352
 3158SOL    HW2 9496   4.081   0.521   1.192
 3159SOL     OW 9497   4.536   1.586   0.687
 3159SOL    HW1 9498   4.568   1.596   0.593
 3159SOL    HW2 9499   4.457   1.524   0.689
 3160SOL     OW 9500   4.725   0.034   1.154
 3160SOL    HW1 9501   4.662  -0.038   1.123
 3160SOL    HW2 9502   4.818  -0.002   1.154
 3161SOL     OW 9503   4.494   1.330   0.301
 3161SOL    HW1 9504   4.448   1.243   0.318
 3161SOL    HW2 9505   4.585   1.327   0.342
 3162SOL     OW 9506   4.342   1.567   1.284
 3162SOL    HW1 9507   4.337   1.649   1.341
 3162SOL    HW2 9508   4.431   1.564   1.239
 3163SOL     OW 9509   4.599   1.646   0.337
 3163SOL    HW1 9510   4.522   1.611   0.283
 3163SOL    HW2 9511   4.567   1.717   0.399
 3164SOL     OW 9512   3.954   0.628   1.975
 3164SOL    HW1 9513   3.861   0.626   2.012
 3164SOL    HW2 9514   3.955   0.589   1.883
 3165SOL     OW 9515   3.949   0.275   2.858
 3165SOL    HW1 9516   3.984   0.258   2.950
 3165SOL    HW2 9517   3.861   0.230   2.846
 3166SOL     OW 9518   3.743   0.368   2.509
 3166SOL    HW1 9519   3.661   0.411   2.548
 3166SOL    HW2 9520   3.715   0.295   2.446
 3167SOL     OW 9521   4.293   1.275   3.027
 3167SOL    HW1 9522   4.200   1.268   2.990
 3167SOL    HW2 9523   4.304   1.364   3.071
 3168SOL     OW 9524   4.859   0.703   2.579
 3168SOL    HW1 9525   4.916   0.781   2.554
 3168SOL    HW2 9526   4.799   0.729   2.655
 3169SOL     OW 9527   4.492   1.144   2.885
 3169SOL    HW1 9528   4.414   1.161   2.945
 3169SOL    HW2 9529   4.526   1.231   2.849
 3170SOL     OW 9530   4.574   0.798   3.685
 3170SOL    HW1 9531   4.570   0.874   3.750
 3170SOL    HW2 9532   4.596   0.834   3.594
 3171SOL     OW 9533   4.409   1.012   2.527
 3171SOL    HW1 9534   4.478   0.996   2.597
 3171SOL    HW2 9535   4.336   1.069   2.565
 3172SOL     OW 9536   4.410   1.161   3.665
 3172SOL    HW1 9537   4.470   1.240   3.679
 3172SOL    HW2 9538   4.324   1.192   3.624
 3173SOL     OW 9539   4.059   1.435   2.923
 3173SOL    HW1 9540   3.981   1.404   2.870
 3173SOL    HW2 9541   4.117   1.493   2.866
 3174SOL     OW 9542   4.162   0.392   3.361
 3174SOL    HW1 9543   4.244   0.336   3.370
 3174SOL    HW2 9544   4.081   0.334   3.365
 3175SOL     OW 9545   3.955   1.713   2.345
 3175SOL    HW1 9546   3.989   1.790   2.399
 3175SOL    HW2 9547   3.999   1.713   2.255
 3176SOL     OW 9548   4.851   1.341   3.552
 3176SOL    HW1 9549   4.898   1.341   3.640
 3176SOL    HW2 9550   4.803   1.254   3.541
 3177SOL     OW 9551   3.954   1.434   2.400
 3177SOL    HW1 9552   3.928   1.530   2.400
 3177SOL    HW2 9553   3.883   1.380   2.445
 3178SOL     OW 9554   3.964   1.091   2.748
 3178SOL    HW1 9555   3.978   1.007   2.800
 3178SOL    HW2 9556   3.909   1.155   2.803
 3179SOL     OW 9557   4.344   1.786   3.301
 3179SOL    HW1 9558   4.252   1.769   3.336
 3179SOL    HW2 9559   4.372   1.878   3.327
 3180SOL     OW 9560   4.330   0.964   1.985
 3180SOL    HW1 9561   4.337   1.048   1.931
 3180SOL    HW2 9562   4.376   0.977   2.073
 3181SOL     OW 9563   3.846   0.643   2.425
 3181SOL    HW1 9564   3.801   0.555   2.442
 3181SOL    HW2 9565   3.845   0.697   2.509
 3182SOL     OW 9566   3.751   1.596   1.979
 3182SOL    HW1 9567   3.732   1.500   2.000
 3182SOL    HW2 9568   3.718   1.654   2.054
 3183SOL     OW 9569   3.837   0.737   3.459
 3183SOL    HW1 9570   3.925   0.724   3.504
 3183SOL    HW2 9571   3.824   0.834   3.437
 3184SOL     OW 9572   4.337   1.365   2.588
 3184SOL    HW1 9573   4.288   1.278   2.597
 3184SOL    HW2 9574   4.314   1.408   2.501
 3185SOL     OW 9575   4.533   0.004   2.364
 3185SOL    HW1 9576   4.573   0.095   2.355
 3185SOL    HW2 9577   4.433   0.012   2.370
 3186SOL     OW 9578   3.921   0.976   3.126
 3186SOL    HW1 9579   4.010   0.931   3.112
 3186SOL    HW2 9580   3.848   0.911   3.107
 3187SOL     OW 9581   4.041   0.251   3.663
 3187SOL    HW1 9582   4.112   0.322   3.669
 3187SOL    HW2 9583   3.953   0.290   3.691
 3188SOL     OW 9584   4.322   0.729   2.132
 3188SOL    HW1 9585   4.346   0.798   2.064
 3188SOL    HW2 9586   4.244   0.762   2.186
 3189SOL     OW 9587   4.531   0.605   3.327
 3189SOL    HW1 9588   4.484   0.602   3.416
 3189SOL    HW2 9589   4.480   0.550   3.261
 3190SOL     OW 9590   4.697   0.890   3.434
 3190SOL    HW1 9591   4.743   0.806   3.405
 3190SOL    HW2 9592   4.641   0.924   3.359
 3191SOL     OW 9593   4.715   0.410   3.104
 3191SOL    HW1 9594   4.638   0.444   3.158
 3191SOL    HW2 9595   4.681   0.359   3.025
 3192SOL     OW 9596   4.765   0.701   2.291
 3192SOL    HW1 9597   4.791   0.697   2.387
 3192SOL    HW2 9598   4.680   0.650   2.277
 3193SOL     OW 9599   3.800   0.811   2.651
 3193SOL    HW1 9600   3.899   0.799   2.660
 3193SOL    HW2 9601   3.776   0.906   2.672
 3194SOL     OW 9602   3.854   1.821   3.433
 3194SOL    HW1 9603   3.844   1.806   3.532
 3194SOL    HW2 9604   3.768   1.857   3.397
 3195SOL     OW 9605   4.589   0.348   2.057
 3195SOL    HW1 9606   4.648   0.411   2.008
 3195SOL    HW2 9607   4.608   0.254   2.028
 3196SOL     OW 9608   4.274   0.196   2.747
 3196SOL    HW1 9609   4.269   0.191   2.847
 3196SOL    HW2 9610   4.276   0.292   2.718
 3197SOL     OW 9611   4.732   1.456   2.339
 3197SOL    HW1 9612   4.686   1.528   2.287
 3197SOL    HW2 9613   4.728   1.476   2.437
 3198SOL     OW 9614   4.075   1.801   2.715
 3198SOL    HW1 9615   4.125   1.715   2.721
 3198SOL    HW2 9616   4.140   1.878   2.712
 3199SOL     OW 9617   4.951   1.550   3.368
 3199SOL    HW1 9618   4.957   1.473   3.432
 3199SOL    HW2 9619   4.899   1.524   3.288
 3200SOL     OW 9620   4.045   0.943   2.104
 3200SOL    HW1 9621   4.127   0.982   2.062
 3200SOL    HW2 9622   4.018   0.861   2.055
 3201SOL     OW 9623   4.185   1.266   3.589
 3201SOL    HW1 9624   4.135   1.267   3.503
 3201SOL    HW2 9625   4.122   1.248   3.665
 3202SOL     OW 9626   4.835   1.776   2.099
 3202SOL    HW1 9627   4.775   1.714   2.149
 3202SOL    HW2 9628   4.866   1.732   2.014
 3203SOL     OW 9629   3.926   0.285   3.360
 3203SOL    HW1 9630   3.846   0.345   3.347
 3203SOL    HW2 9631   3.916   0.236   3.446
 3204SOL     OW 9632   4.188   1.743   2.185
 3204SOL    HW1 9633   4.221   1.782   2.271
 3204SOL    HW2 9634   4.264   1.736   2.120
 3205SOL     OW 9635   3.973   1.785   3.103
 3205SOL    HW1 9636   4.030   1.720   3.153
 3205SOL    HW2 9637   3.957   1.752   3.010
 3206SOL     OW 9638   4.664   1.698   2.766
 3206SOL    HW1 9639   4.744   1.641   2.787
 3206SOL    HW2 9640   4.615   1.658   2.689
 3207SOL     OW 9641   4.106   0.700   2.342
 3207SOL    HW1 9642   4.151   0.610   2.339
 3207SOL    HW2 9643   4.012   0.689   2.375
 3208SOL     OW 9644   4.338   0.122   1.979
 3208SOL    HW1 9645   4.436   0.100   1.986
 3208SOL    HW2 9646   4.307   0.105   1.886
 3209SOL     OW 9647   4.505   0.264   3.611
 3209SOL    HW1 9648   4.572   0.203   3.654
 3209SOL    HW2 9649   4.432   0.283   3.676
 3210SOL     OW 9650   4.612   1.514   3.057
 3210SOL    HW1 9651   4.589   1.489   2.963
 3210SOL    HW2 9652   4.673   1.445   3.096
 3211SOL     OW 9653   4.527   1.402   2.786
 3211SOL    HW1 9654   4.617   1.416   2.744
 3211SOL    HW2 9655   4.456   1.404   2.715
 3212SOL     OW 9656   4.646   0.503   2.761
 3212SOL    HW1 9657   4.621   0.494   2.665
 3212SOL    HW2 9658   4.694   0.421   2.792
 3213SOL     OW 9659   4.263   0.064   2.374
 3213SOL    HW1 9660   4.182   0.065   2.432
 3213SOL    HW2 9661   4.266   0.147   2.319
 3214SOL     OW 9662   4.021   0.035   2.033
 3214SOL    HW1 9663   4.070   0.119   2.012
 3214SOL    HW2 9664   4.083  -0.030   2.078
 3215SOL     OW 9665   4.659   0.236   2.342
 3215SOL    HW1 9666   4.611   0.277   2.264
 3215SOL    HW2 9667   4.758   0.234   2.323
 3216SOL     OW 9668   4.800   0.683   3.326
 3216SOL    HW1 9669   4.720   0.622   3.329
 3216SOL    HW2 9670   4.881   0.630   3.302
 3217SOL     OW 9671   4.951   1.570   2.655
 3217SOL    HW1 9672   4.972   1.644   2.590
 3217SOL    HW2 9673   5.019   1.570   2.728
 3218SOL     OW 9674   4.183   1.152   2.603
 3218SOL    HW1 9675   4.112   1.125   2.668
 3218SOL    HW2 9676   4.157   1.124   2.510
 3219SOL     OW 9677   4.995   1.797   2.453
 3219SOL    HW1 9678   5.039   1.861   2.389
 3219SOL    HW2 9679   4.945   1.849   2.523
 3220SOL     OW 9680   4.756   0.549   1.878
 3220SOL    HW1 9681   4.715   0.631   1.839
 3220SOL    HW2 9682   4.820   0.575   1.951
 3221SOL     OW 9683   3.802   0.556   3.248
 3221SOL    HW1 9684   3.894   0.555   3.207
 3221SOL    HW2 9685   3.796   0.630   3.315
 3222SOL     OW 9686   4.285   0.222   3.009
 3222SOL    HW1 9687   4.323   0.138   3.046
 3222SOL    HW2 9688   4.197   0.241   3.053
 3223SOL     OW 9689   4.590   0.454   2.504
 3223SOL    HW1 9690   4.558   0.526   2.442
 3223SOL    HW2 9691   4.614   0.373   2.451
 3224SOL     OW 9692   4.741   0.039   2.615
 3224SOL    HW1 9693   4.669   0.044   2.546
 3224SOL    HW2 9694   4.717  -0.030   2.684
 3225SOL     OW 9695   4.212   1.385   2.036
 3225SOL    HW1 9696   4.125   1.370   2.083
 3225SOL    HW2 9697   4.195   1.411   1.941
 3226SOL     OW 9698   4.251   0.256   2.190
 3226SOL    HW1 9699   4.278   0.197   2.115
 3226SOL    HW2 9700   4.251   0.351   2.159
 3227SOL     OW 9701   4.788   1.347   3.202
 3227SOL    HW1 9702   4.708   1.324   3.257
 3227SOL    HW2 9703   4.871   1.321   3.251
 3228SOL     OW 9704   4.835   1.195   2.962
 3228SOL    HW1 9705   4.795   1.239   3.043
 3228SOL    HW2 9706   4.794   1.232   2.879
 3229SOL     OW 9707   4.639   0.089   3.264
 3229SOL    HW1 9708   4.664   0.069   3.169
 3229SOL    HW2 9709   4.711   0.145   3.306
 3230SOL     OW 9710   4.704   1.116   3.581
 3230SOL    HW1 9711   4.605   1.122   3.591
 3230SOL    HW2 9712   4.727   1.036   3.525
 3231SOL     OW 9713   4.429   1.050   2.230
 3231SOL    HW1 9714   4.415   1.057   2.329
 3231SOL    HW2 9715   4.513   0.999   2.212
 3232SOL     OW 9716   4.134   0.813   3.113
 3232SOL    HW1 9717   4.220   0.825   3.163
 3232SOL    HW2 9718   4.092   0.726   3.140
 3233SOL     OW 9719   3.788   1.564   3.193
 3233SOL    HW1 9720   3.742   1.646   3.159
 3233SOL    HW2 9721   3.886   1.583   3.202
 3234SOL     OW 9722   4.091   1.100   2.363
 3234SOL    HW1 9723   4.084   1.183   2.307
 3234SOL    HW2 9724   4.095   1.020   2.303
 3235SOL     OW 9725   4.290   0.537   2.727
 3235SOL    HW1 9726   4.302   0.603   2.653
 3235SOL    HW2 9727   4.336   0.571   2.810
 3236SOL     OW 9728   4.976   1.348   2.250
 3236SOL    HW1 9729   5.026   1.425   2.290
 3236SOL    HW2 9730   4.881   1.350   2.282
 3237SOL     OW 9731   4.078   1.510   3.191
 3237SOL    HW1 9732   4.057   1.466   3.104
 3237SOL    HW2 9733   4.175   1.536   3.194
 3238SOL     OW 9734   4.126   0.751   3.460
 3238SOL    HW1 9735   4.194   0.806   3.413
 3238SOL    HW2 9736   4.166   0.663   3.487
 3239SOL     OW 9737   4.737   0.105   3.632
 3239SOL    HW1 9738   4.743   0.190   3.580
 3239SOL    HW2 9739   4.769   0.029   3.575
 3240SOL     OW 9740   4.228   0.050   3.602
 3240SOL    HW1 9741   4.186  -0.007   3.532
 3240SOL    HW2 9742   4.162   0.119   3.634
 3241SOL     OW 9743   4.297   0.870   2.891
 3241SOL    HW1 9744   4.341   0.959   2.882
 3241SOL    HW2 9745   4.234   0.870   2.968
 3242SOL     OW 9746   5.084   0.862   2.907
 3242SOL    HW1 9747   5.009   0.862   2.841
 3242SOL    HW2 9748   5.121   0.770   2.916
 3243SOL     OW 9749   4.933   0.525   2.137
 3243SOL    HW1 9750   4.946   0.441   2.191
 3243SOL    HW2 9751   4.904   0.599   2.197
 3244SOL     OW 9752   4.031   0.213   3.093
 3244SOL    HW1 9753   4.008   0.250   3.183
 3244SOL    HW2 9754   4.001   0.118   3.087
 3245SOL     OW 9755   3.761   1.310   3.144
 3245SOL    HW1 9756   3.814   1.261   3.212
 3245SOL    HW2 9757   3.783   1.408   3.149
 3246SOL     OW 9758   4.456   0.634   2.926
 3246SOL    HW1 9759   4.515   0.608   2.850
 3246SOL    HW2 9760   4.428   0.730   2.915
 3247SOL     OW 9761   4.031   0.063   2.480
 3247SOL    HW1 9762   4.020   0.157   2.513
 3247SOL    HW2 9763   4.026   0.000   2.557
 3248SOL     OW 9764   4.747   0.766   2.828
 3248SOL    HW1 9765   4.762   0.787   2.924
 3248SOL    HW2 9766   4.717   0.671   2.819
 3249SOL     OW 9767   4.704   1.573   3.562
 3249SOL    HW1 9768   4.684   1.617   3.474
 3249SOL    HW2 9769   4.743   1.482   3.546
 3250SOL     OW 9770   4.074   0.898   3.666
 3250SOL    HW1 9771   4.150   0.942   3.714
 3250SOL    HW2 9772   4.109   0.851   3.584
 3251SOL     OW 9773   5.264   0.274   1.987
 3251SOL    HW1 9774   5.203   0.199   2.010
 3251SOL    HW2 9775   5.286   0.326   2.070
 3252SOL     OW 9776   4.792   1.333   2.711
 3252SOL    HW1 9777   4.799   1.249   2.656
 3252SOL    HW2 9778   4.854   1.402   2.675
 3253SOL     OW 9779   4.043   0.810   2.811
 3253SOL    HW1 9780   4.136   0.846   2.816
 3253SOL    HW2 9781   4.037   0.725   2.863
 3254SOL     OW 9782   4.063   0.509   2.868
 3254SOL    HW1 9783   4.011   0.426   2.851
 3254SOL    HW2 9784   4.140   0.514   2.804
 3255SOL     OW 9785   4.862   0.380   3.540
 3255SOL    HW1 9786   4.817   0.443   3.604
 3255SOL    HW2 9787   4.955   0.411   3.523
 3256SOL     OW 9788   4.884   0.207   3.339
 3256SOL    HW1 9789   4.884   0.271   3.416
 3256SOL    HW2 9790   4.912   0.255   3.256
 3257SOL     OW 9791   3.732   1.326   2.062
 3257SOL    HW1 9792   3.639   1.347   2.031
 3257SOL    HW2 9793   3.742   1.227   2.075
 3258SOL     OW 9794   3.812   1.801   2.789
 3258SOL    HW1 9795   3.770   1.715   2.762
 3258SOL    HW2 9796   3.906   1.804   2.755
 3259SOL     OW 9797   4.228   1.568   2.772
 3259SOL    HW1 9798   4.294   1.642   2.781
 3259SOL    HW2 9799   4.272   1.489   2.730
 3260SOL     OW 9800   4.726   0.796   3.100
 3260SOL    HW1 9801   4.767   0.764   3.186
 3260SOL    HW2 9802   4.630   0.769   3.097
 3261SOL     OW 9803   3.764   0.544   2.976
 3261SOL    HW1 9804   3.849   0.511   2.935
 3261SOL    HW2 9805   3.777   0.559   3.074
 3262SOL     OW 9806   3.913   0.520   3.584
 3262SOL    HW1 9807   3.972   0.480   3.514
 3262SOL    HW2 9808   3.855   0.591   3.543
 3263SOL     OW 9809   4.539   0.572   2.187
 3263SOL    HW1 9810   4.546   0.483   2.141
 3263SOL    HW2 9811   4.445   0.606   2.179
 3264SOL     OW 9812   3.976   1.564   3.606
 3264SOL    HW1 9813   3.946   1.621   3.682
 3264SOL    HW2 9814   3.969   1.467   3.632
 3265SOL     OW 9815   4.395   0.464   3.131
 3265SOL    HW1 9816   4.361   0.375   3.101
 3265SOL    HW2 9817   4.421   0.518   3.051
 3266SOL     OW 9818   4.654   1.678   3.327
 3266SOL    HW1 9819   4.630   1.660   3.232
 3266SOL    HW2 9820   4.684   1.772   3.337
 3267SOL     OW 9821   4.197   0.500   2.053
 3267SOL    HW1 9822   4.258   0.580   2.057
 3267SOL    HW2 9823   4.102   0.531   2.060
 3268SOL     OW 9824   3.883   1.137   3.328
 3268SOL    HW1 9825   3.905   1.076   3.404
 3268SOL    HW2 9826   3.893   1.088   3.242
 3269SOL     OW 9827   4.976   1.731   2.990
 3269SOL    HW1 9828   5.060   1.736   2.936
 3269SOL    HW2 9829   4.953   1.635   3.008
 3270SOL     OW 9830   3.807   1.258   2.884
 3270SOL    HW1 9831   3.802   1.257   2.984
 3270SOL    HW2 9832   3.724   1.217   2.846
 3271SOL     OW 9833   4.412   1.662   3.578
 3271SOL    HW1 9834   4.356   1.743   3.587
 3271SOL    HW2 9835   4.464   1.666   3.492
 3272SOL     OW 9836   3.854   1.794   3.713
 3272SOL    HW1 9837   3.813   1.720   3.766
 3272SOL    HW2 9838   3.918   1.845   3.771
 3273SOL     OW 9839   4.554   1.273   3.284
 3273SOL    HW1 9840   4.549   1.306   3.379
 3273SOL    HW2 9841   4.468   1.292   3.238
 3274SOL     OW 9842   4.396   1.616   2.016
 3274SOL    HW1 9843   4.405   1.626   1.917
 3274SOL    HW2 9844   4.356   1.527   2.037
 3275SOL     OW 9845   3.987   0.326   2.582
 3275SOL    HW1 9846   3.908   0.377   2.548
 3275SOL    HW2 9847   3.978   0.311   2.680
 3276SOL     OW 9848   4.546   1.002   3.234
 3276SOL    HW1 9849   4.586   1.001   3.142
 3276SOL    HW2 9850   4.556   1.094   3.274
 3277SOL     OW 9851   4.640   0.910   2.153
 3277SOL    HW1 9852   4.703   0.948   2.085
 3277SOL    HW2 9853   4.680   0.827   2.192
 3278SOL     OW 9854   4.096   1.288   3.352
 3278SOL    HW1 9855   4.083   1.381   3.318
 3278SOL    HW2 9856   4.012   1.236   3.339
 3279SOL     OW 9857   4.763   1.098   2.558
 3279SOL    HW1 9858   4.693   1.051   2.612
 3279SOL    HW2 9859   4.822   1.030   2.515
 3280SOL     OW 9860   4.738   0.236   2.833
 3280SOL    HW1 9861   4.730   0.200   2.740
 3280SOL    HW2 9862   4.736   0.160   2.898
 3281SOL     OW 9863   4.314   1.487   2.353
 3281SOL    HW1 9864   4.356   1.429   2.283
 3281SOL    HW2 9865   4.270   1.566   2.309
 3282SOL     OW 9866   3.979   1.348   2.152
 3282SOL    HW1 9867   3.883   1.349   2.125
 3282SOL    HW2 9868   3.991   1.401   2.236
 3283SOL     OW 9869   3.829   1.013   3.588
 3283SOL    HW1 9870   3.752   0.980   3.642
 3283SOL    HW2 9871   3.914   0.983   3.630
 3284SOL     OW 9872   4.396   0.203   3.351
 3284SOL    HW1 9873   4.486   0.187   3.311
 3284SOL    HW2 9874   4.404   0.208   3.450
 3285SOL     OW 9875   3.799   0.345   1.895
 3285SOL    HW1 9876   3.707   0.317   1.866
 3285SOL    HW2 9877   3.830   0.422   1.839
 3286SOL     OW 9878   3.796   0.166   2.180
 3286SOL    HW1 9879   3.779   0.249   2.126
 3286SOL    HW2 9880   3.886   0.129   2.158
 3287SOL     OW 9881   4.337   0.842   3.293
 3287SOL    HW1 9882   4.393   0.923   3.276
 3287SOL    HW2 9883   4.396   0.762   3.296
 3288SOL     OW 9884   4.440   0.565   3.570
 3288SOL    HW1 9885   4.459   0.630   3.644
 3288SOL    HW2 9886   4.500   0.485   3.579
 3289SOL     OW 9887   4.114   1.741   3.422
 3289SOL    HW1 9888   4.023   1.782   3.420
 3289SOL    HW2 9889   4.107   1.647   3.454
 3290SOL     OW 9890   4.318   0.745   2.514
 3290SOL    HW1 9891   4.368   0.830   2.495
 3290SOL    HW2 9892   4.230   0.747   2.466
 3291SOL     OW 9893   4.583   1.374   1.878
 3291SOL    HW1 9894   4.537   1.389   1.966
 3291SOL    HW2 9895   4.627   1.459   1.848
 3292SOL     OW 9896   4.385   1.790   2.815
 3292SOL    HW1 9897   4.339   1.878   2.802
 3292SOL    HW2 9898   4.484   1.802   2.808
 3293SOL     OW 9899   4.583   0.956   2.723
 3293SOL    HW1 9900   4.637   0.887   2.771
 3293SOL    HW2 9901   4.551   1.025   2.789
 3294SOL     OW 9902   4.807   0.984   1.949
 3294SOL    HW1 9903   4.784   1.037   1.867
 3294SOL    HW2 9904   4.888   0.928   1.930
 3295SOL     OW 9905   3.945   1.314   3.706
 3295SOL    HW1 9906   3.880   1.241   3.685
 3295SOL    HW2 9907   3.949   1.328   3.804
 3296SOL     OW 9908   3.803   1.240   2.515
 3296SOL    HW1 9909   3.802   1.193   2.603
 3296SOL    HW2 9910   3.885   1.212   2.464
 3297SOL     OW 9911   4.396   1.391   3.486
 3297SOL    HW1 9912   4.318   1.341   3.524
 3297SOL    HW2 9913   4.393   1.486   3.517
 3298SOL     OW 9914   4.152   0.424   2.382
 3298SOL    HW1 9915   4.182   0.352   2.320
 3298SOL    HW2 9916   4.113   0.384   2.465
 3299SOL     OW 9917   4.041   0.547   3.142
 3299SOL    HW1 9918   4.079   0.488   3.214
 3299SOL    HW2 9919   4.081   0.521   3.054
 3300SOL     OW 9920   4.536   1.586   2.549
 3300SOL    HW1 9921   4.568   1.596   2.455
 3300SOL    HW2 9922   4.457   1.524   2.551
 3301SOL     OW 9923   4.725   0.034   3.016
 3301SOL    HW1 9924   4.662  -0.038   2.985
 3301SOL    HW2 9925   4.818  -0.002   3.016
 3302SOL     OW 9926   4.494   1.330   2.163
 3302SOL    HW1 9927   4.448   1.243   2.180
 3302SOL    HW2 9928   4.585   1.327   2.204
 3303SOL     OW 9929   4.342   1.567   3.146
 3303SOL    HW1 9930   4.337   1.649   3.203
 3303SOL    HW2 9931   4.431   1.564   3.101
 3304SOL     OW 9932   5.076   0.052   2.030
 3304SOL    HW1 9933   5.111   0.011   1.946
 3304SOL    HW2 9934   4.986   0.014   2.050
 3305SOL     OW 9935   3.763   1.077   2.162
 3305SOL    HW1 9936   3.862   1.066   2.153
 3305SOL    HW2 9937   3.723   0.991   2.194
 3306SOL     OW 9938   4.599   1.646   2.199
 3306SOL    HW1 9939   4.522   1.611   2.145
 3306SOL    HW2 9940   4.567   1.717   2.261
 3307SOL     OW 9941   3.954   0.628   3.837
 3307SOL    HW1 9942   3.861   0.626   3.874
 3307SOL    HW2 9943   3.955   0.589   3.745
 3308SOL     OW 9944   3.949   0.275   4.720
 3308SOL    HW1 9945   3.984   0.258   4.812
 3308SOL    HW2 9946   3.861   0.230   4.708
 3309SOL     OW 9947   3.743   0.368   4.371
 3309SOL    HW1 9948   3.661   0.411   4.410
 3309SOL    HW2 9949   3.715   0.295   4.308
 3310SOL     OW 9950   4.293   1.275   4.889
 3310SOL    HW1 9951   4.200   1.268   4.852
 3310SOL    HW2 9952   4.304   1.364   4.933
 3311SOL     OW 9953   4.859   0.703   4.441
 3311SOL    HW1 9954   4.916   0.781   4.416
 3311SOL    HW2 9955   4.799   0.729   4.517
 3312SOL     OW 9956   4.492   1.144   4.747
 3312SOL    HW1 9957   4.414   1.161   4.807
 3312SOL    HW2 9958   4.526   1.231   4.711
 3313SOL     OW 9959   4.409   1.012   4.389
 3313SOL    HW1 9960   4.478   0.996   4.459
 3313SOL    HW2 9961   4.336   1.069   4.427
 3314SOL     OW 9962   4.059   1.435   4.785
 3314SOL    HW1 9963   3.981   1.404   4.732
 3314SOL    HW2 9964   4.117   1.493   4.728
 3315SOL     OW 9965   5.184   1.505   5.063
 3315SOL    HW1 9966   5.208   1.599   5.089
 3315SOL    HW2 9967   5.168   1.451   5.145
 3316SOL     OW 9968   3.955   1.713   4.207
 3316SOL    HW1 9969   3.989   1.790   4.261
 3316SOL    HW2 9970   3.999   1.713   4.117
 3317SOL     OW 9971   3.954   1.434   4.262
 3317SOL    HW1 9972   3.928   1.530   4.262
 3317SOL    HW2 9973   3.883   1.380   4.307
 3318SOL     OW 9974   3.964   1.091   4.610
 3318SOL    HW1 9975   3.978   1.007   4.662
 3318SOL    HW2 9976   3.909   1.155   4.665
 3319SOL     OW 9977   4.330   0.964   3.847
 3319SOL    HW1 9978   4.337   1.048   3.793
 3319SOL    HW2 9979   4.376   0.977   3.935
 3320SOL     OW 9980   3.846   0.643   4.287
 3320SOL    HW1 9981   3.801   0.555   4.304
 3320SOL    HW2 9982   3.845   0.697   4.371
 3321SOL     OW 9983   3.751   1.596   3.841
 3321SOL    HW1 9984   3.732   1.500   3.862
 3321SOL    HW2 9985   3.718   1.654   3.916
 3322SOL     OW 9986   4.337   1.365   4.450
 3322SOL    HW1 9987   4.288   1.278   4.459
 3322SOL    HW2 9988   4.314   1.408   4.363
 3323SOL     OW 9989   4.533   0.004   4.226
 3323SOL    HW1 9990   4.573   0.095   4.217
 3323SOL    HW2 9991   4.433   0.012   4.232
 3324SOL     OW 9992   3.921   0.976   4.988
 3324SOL    HW1 9993   4.010   0.931   4.974
 3324SOL    HW2 9994   3.848   0.911   4.969
 3325SOL     OW 9995   4.322   0.729   3.994
 3325SOL    HW1 9996   4.346   0.798   3.926
 3325SOL    HW2 9997   4.244   0.762   4.048
 3326SOL     OW 9998   4.765   0.701   4.153
 3326SOL    HW1 9999   4.791   0.697   4.249
 3326SOL    HW210000   4.680   0.650   4.139
 3327SOL     OW10001   3.800   0.811   4.513
 3327SOL    HW110002   3.899   0.799   4.522
 3327SOL    HW210003   3.776   0.906   4.534
 3328SOL     OW10004   4.589   0.348   3.919
 3328SOL    HW110005   4.648   0.411   3.870
 3328SOL    HW210006   4.608   0.254   3.890
 3329SOL     OW10007   4.274   0.196   4.609
 3329SOL    HW110008   4.269   0.191   4.709
 3329SOL    HW210009   4.276   0.292   4.580
 3330SOL     OW10010   4.732   1.456   4.201
 3330SOL    HW110011   4.686   1.528   4.149
 3330SOL    HW210012   4.728   1.476   4.299
 3331SOL     OW10013   4.075   1.801   4.577
 3331SOL    HW110014   4.125   1.715   4.583
 3331SOL    HW210015   4.140   1.878   4.574
 3332SOL     OW10016   4.045   0.943   3.966
 3332SOL    HW110017   4.127   0.982   3.924
 3332SOL    HW210018   4.018   0.861   3.917
 3333SOL     OW10019   4.835   1.776   3.961
 3333SOL    HW110020   4.775   1.714   4.011
 3333SOL    HW210021   4.866   1.732   3.876
 3334SOL     OW10022   4.188   1.743   4.047
 3334SOL    HW110023   4.221   1.782   4.133
 3334SOL    HW210024   4.264   1.736   3.982
 3335SOL     OW10025   3.973   1.785   4.965
 3335SOL    HW110026   4.030   1.720   5.015
 3335SOL    HW210027   3.957   1.752   4.872
 3336SOL     OW10028   4.664   1.698   4.628
 3336SOL    HW110029   4.744   1.641   4.649
 3336SOL    HW210030   4.615   1.658   4.551
 3337SOL     OW10031   4.106   0.700   4.204
 3337SOL    HW110032   4.151   0.610   4.201
 3337SOL    HW210033   4.012   0.689   4.237
 3338SOL     OW10034   4.338   0.122   3.841
 3338SOL    HW110035   4.436   0.100   3.848
 3338SOL    HW210036   4.307   0.105   3.748
 3339SOL     OW10037   4.527   1.402   4.648
 3339SOL    HW110038   4.617   1.416   4.606
 3339SOL    HW210039   4.456   1.404   4.577
 3340SOL     OW10040   4.646   0.503   4.623
 3340SOL    HW110041   4.621   0.494   4.527
 3340SOL    HW210042   4.694   0.421   4.654
 3341SOL     OW10043   4.263   0.064   4.236
 3341SOL    HW110044   4.182   0.065   4.294
 3341SOL    HW210045   4.266   0.147   4.181
 3342SOL     OW10046   4.021   0.035   3.895
 3342SOL    HW110047   4.070   0.119   3.874
 3342SOL    HW210048   4.083  -0.030   3.940
 3343SOL     OW10049   4.659   0.236   4.204
 3343SOL    HW110050   4.611   0.277   4.126
 3343SOL    HW210051   4.758   0.234   4.185
 3344SOL     OW10052   4.951   1.570   4.517
 3344SOL    HW110053   4.972   1.644   4.452
 3344SOL    HW210054   5.019   1.570   4.590
 3345SOL     OW10055   4.183   1.152   4.465
 3345SOL    HW110056   4.112   1.125   4.530
 3345SOL    HW210057   4.157   1.124   4.372
 3346SOL     OW10058   4.995   1.797   4.315
 3346SOL    HW110059   5.039   1.861   4.251
 3346SOL    HW210060   4.945   1.849   4.385
 3347SOL     OW10061   4.756   0.549   3.740
 3347SOL    HW110062   4.715   0.631   3.701
 3347SOL    HW210063   4.820   0.575   3.813
 3348SOL     OW10064   4.590   0.454   4.366
 3348SOL    HW110065   4.558   0.526   4.304
 3348SOL    HW210066   4.614   0.373   4.313
 3349SOL     OW10067   4.741   0.039   4.477
 3349SOL    HW110068   4.669   0.044   4.408
 3349SOL    HW210069   4.717  -0.030   4.546
 3350SOL     OW10070   4.212   1.385   3.898
 3350SOL    HW110071   4.125   1.370   3.945
 3350SOL    HW210072   4.195   1.411   3.803
 3351SOL     OW10073   4.251   0.256   4.052
 3351SOL    HW110074   4.278   0.197   3.977
 3351SOL    HW210075   4.251   0.351   4.021
 3352SOL     OW10076   4.835   1.195   4.824
 3352SOL    HW110077   4.795   1.239   4.905
 3352SOL    HW210078   4.794   1.232   4.741
 3353SOL     OW10079   4.429   1.050   4.092
 3353SOL    HW110080   4.415   1.057   4.191
 3353SOL    HW210081   4.513   0.999   4.074
 3354SOL     OW10082   4.134   0.813   4.975
 3354SOL    HW110083   4.220   0.825   5.025
 3354SOL    HW210084   4.092   0.726   5.002
 3355SOL     OW10085   4.091   1.100   4.225
 3355SOL    HW110086   4.084   1.183   4.169
 3355SOL    HW210087   4.095   1.020   4.165
 3356SOL     OW10088   4.290   0.537   4.589
 3356SOL    HW110089   4.302   0.603   4.515
 3356SOL    HW210090   4.336   0.571   4.672
 3357SOL     OW10091   4.976   1.348   4.112
 3357SOL    HW110092   5.026   1.425   4.152
 3357SOL    HW210093   4.881   1.350   4.144
 3358SOL     OW10094   4.996   1.445   4.866
 3358SOL    HW110095   5.043   1.458   4.953
 3358SOL    HW210096   4.930   1.371   4.875
 3359SOL     OW10097   4.297   0.870   4.753
 3359SOL    HW110098   4.341   0.959   4.744
 3359SOL    HW210099   4.234   0.870   4.830
 3360SOL     OW10100   5.084   0.862   4.769
 3360SOL    HW110101   5.009   0.862   4.703
 3360SOL    HW210102   5.121   0.770   4.778
 3361SOL     OW10103   4.933   0.525   3.999
 3361SOL    HW110104   4.946   0.441   4.053
 3361SOL    HW210105   4.904   0.599   4.059
 3362SOL     OW10106   4.031   0.213   4.955
 3362SOL    HW110107   4.008   0.250   5.045
 3362SOL    HW210108   4.001   0.118   4.949
 3363SOL     OW10109   4.456   0.634   4.788
 3363SOL    HW110110   4.515   0.608   4.712
 3363SOL    HW210111   4.428   0.730   4.777
 3364SOL     OW10112   4.031   0.063   4.342
 3364SOL    HW110113   4.020   0.157   4.375
 3364SOL    HW210114   4.026   0.000   4.419
 3365SOL     OW10115   4.747   0.766   4.690
 3365SOL    HW110116   4.762   0.787   4.786
 3365SOL    HW210117   4.717   0.671   4.681
 3366SOL     OW10118   5.264   0.274   3.849
 3366SOL    HW110119   5.203   0.199   3.872
 3366SOL    HW210120   5.286   0.326   3.932
 3367SOL     OW10121   4.792   1.333   4.573
 3367SOL    HW110122   4.799   1.249   4.518
 3367SOL    HW210123   4.854   1.402   4.537
 3368SOL     OW10124   4.043   0.810   4.673
 3368SOL    HW110125   4.136   0.846   4.678
 3368SOL    HW210126   4.037   0.725   4.725
 3369SOL     OW10127   4.063   0.509   4.730
 3369SOL    HW110128   4.011   0.426   4.713
 3369SOL    HW210129   4.140   0.514   4.666
 3370SOL     OW10130   4.884   0.207   5.201
 3370SOL    HW110131   4.884   0.271   5.278
 3370SOL    HW210132   4.912   0.255   5.118
 3371SOL     OW10133   3.732   1.326   3.924
 3371SOL    HW110134   3.639   1.347   3.893
 3371SOL    HW210135   3.742   1.227   3.937
 3372SOL     OW10136   3.812   1.801   4.651
 3372SOL    HW110137   3.770   1.715   4.624
 3372SOL    HW210138   3.906   1.804   4.617
 3373SOL     OW10139   4.228   1.568   4.634
 3373SOL    HW110140   4.294   1.642   4.643
 3373SOL    HW210141   4.272   1.489   4.592
 3374SOL     OW10142   4.726   0.796   4.962
 3374SOL    HW110143   4.767   0.764   5.048
 3374SOL    HW210144   4.630   0.769   4.959
 3375SOL     OW10145   3.764   0.544   4.838
 3375SOL    HW110146   3.849   0.511   4.797
 3375SOL    HW210147   3.777   0.559   4.936
 3376SOL     OW10148   4.539   0.572   4.049
 3376SOL    HW110149   4.546   0.483   4.003
 3376SOL    HW210150   4.445   0.606   4.041
 3377SOL     OW10151   4.395   0.464   4.993
 3377SOL    HW110152   4.361   0.375   4.963
 3377SOL    HW210153   4.421   0.518   4.913
 3378SOL     OW10154   4.197   0.500   3.915
 3378SOL    HW110155   4.258   0.580   3.919
 3378SOL    HW210156   4.102   0.531   3.922
 3379SOL     OW10157   3.883   1.137   5.190
 3379SOL    HW110158   3.905   1.076   5.266
 3379SOL    HW210159   3.893   1.088   5.104
 3380SOL     OW10160   4.976   1.731   4.852
 3380SOL    HW110161   5.060   1.736   4.798
 3380SOL    HW210162   4.953   1.635   4.870
 3381SOL     OW10163   3.807   1.258   4.746
 3381SOL    HW110164   3.802   1.257   4.846
 3381SOL    HW210165   3.724   1.217   4.708
 3382SOL     OW10166   4.396   1.616   3.878
 3382SOL    HW110167   4.405   1.626   3.779
 3382SOL    HW210168   4.356   1.527   3.899
 3383SOL     OW10169   3.987   0.326   4.444
 3383SOL    HW110170   3.908   0.377   4.410
 3383SOL    HW210171   3.978   0.311   4.542
 3384SOL     OW10172   4.546   1.002   5.096
 3384SOL    HW110173   4.586   1.001   5.004
 3384SOL    HW210174   4.556   1.094   5.136
 3385SOL     OW10175   4.640   0.910   4.015
 3385SOL    HW110176   4.703   0.948   3.947
 3385SOL    HW210177   4.680   0.827   4.054
 3386SOL     OW10178   4.763   1.098   4.420
 3386SOL    HW110179   4.693   1.051   4.474
 3386SOL    HW210180   4.822   1.030   4.377
 3387SOL     OW10181   4.738   0.236   4.695
 3387SOL    HW110182   4.730   0.200   4.602
 3387SOL    HW210183   4.736   0.160   4.760
 3388SOL     OW10184   4.314   1.487   4.215
 3388SOL    HW110185   4.356   1.429   4.145
 3388SOL    HW210186   4.270   1.566   4.171
 3389SOL     OW10187   3.979   1.348   4.014
 3389SOL    HW110188   3.883   1.349   3.987
 3389SOL    HW210189   3.991   1.401   4.098
 3390SOL     OW10190   3.799   0.345   3.757
 3390SOL    HW110191   3.707   0.317   3.728
 3390SOL    HW210192   3.830   0.422   3.701
 3391SOL     OW10193   3.796   0.166   4.042
 3391SOL    HW110194   3.779   0.249   3.988
 3391SOL    HW210195   3.886   0.129   4.020
 3392SOL     OW10196   4.318   0.745   4.376
 3392SOL    HW110197   4.368   0.830   4.357
 3392SOL    HW210198   4.230   0.747   4.328
 3393SOL     OW10199   4.583   1.374   3.740
 3393SOL    HW110200   4.537   1.389   3.828
 3393SOL    HW210201   4.627   1.459   3.710
 3394SOL     OW10202   4.385   1.790   4.677
 3394SOL    HW110203   4.339   1.878   4.664
 3394SOL    HW210204   4.484   1.802   4.670
 3395SOL     OW10205   4.583   0.956   4.585
 3395SOL    HW110206   4.637   0.887   4.633
 3395SOL    HW210207   4.551   1.025   4.651
 3396SOL     OW10208   4.807   0.984   3.811
 3396SOL    HW110209   4.784   1.037   3.729
 3396SOL    HW210210   4.888   0.928   3.792
 3397SOL     OW10211   3.803   1.240   4.377
 3397SOL    HW110212   3.802   1.193   4.465
 3397SOL    HW210213   3.885   1.212   4.326
 3398SOL     OW10214   4.152   0.424   4.244
 3398SOL    HW110215   4.182   0.352   4.182
 3398SOL    HW210216   4.113   0.384   4.327
 3399SOL     OW10217   4.536   1.586   4.411
 3399SOL    HW110218   4.568   1.596   4.317
 3399SOL    HW210219   4.457   1.524   4.413
 3400SOL     OW10220   4.725   0.034   4.878
 3400SOL    HW110221   4.662  -0.038   4.847
 3400SOL    HW210222   4.818  -0.002   4.878
 3401SOL     OW10223   4.494   1.330   4.025
 3401SOL    HW110224   4.448   1.243   4.042
 3401SOL    HW210225   4.585   1.327   4.066
 3402SOL     OW10226   5.076   0.052   3.892
 3402SOL    HW110227   5.111   0.011   3.808
 3402SOL    HW210228   4.986   0.014   3.912
 3403SOL     OW10229   3.763   1.077   4.024
 3403SOL    HW110230   3.862   1.066   4.015
 3403SOL    HW210231   3.723   0.991   4.056
 3404SOL     OW10232   4.599   1.646   4.061
 3404SOL    HW110233   4.522   1.611   4.007
 3404SOL    HW210234   4.567   1.717   4.123
 3405SOL     OW10235   3.954   2.490   0.113
 3405SOL    HW110236   3.861   2.488   0.150
 3405SOL    HW210237   3.955   2.451   0.021
 3406SOL     OW10238   3.949   2.137   0.996
 3406SOL    HW110239   3.984   2.120   1.088
 3406SOL    HW210240   3.861   2.092   0.984
 3407SOL     OW10241   3.743   2.230   0.647
 3407SOL    HW110242   3.661   2.273   0.686
 3407SOL    HW210243   3.715   2.157   0.584
 3408SOL     OW10244   4.293   3.137   1.165
 3408SOL    HW110245   4.200   3.130   1.128
 3408SOL    HW210246   4.304   3.226   1.209
 3409SOL     OW10247   4.859   2.565   0.717
 3409SOL    HW110248   4.916   2.643   0.692
 3409SOL    HW210249   4.799   2.591   0.793
 3410SOL     OW10250   4.492   3.006   1.023
 3410SOL    HW110251   4.414   3.023   1.083
 3410SOL    HW210252   4.526   3.093   0.987
 3411SOL     OW10253   4.574   2.660   1.823
 3411SOL    HW110254   4.570   2.736   1.888
 3411SOL    HW210255   4.596   2.696   1.732
 3412SOL     OW10256   4.409   2.874   0.665
 3412SOL    HW110257   4.478   2.858   0.735
 3412SOL    HW210258   4.336   2.931   0.703
 3413SOL     OW10259   4.410   3.023   1.803
 3413SOL    HW110260   4.470   3.102   1.817
 3413SOL    HW210261   4.324   3.054   1.762
 3414SOL     OW10262   4.059   3.297   1.061
 3414SOL    HW110263   3.981   3.266   1.008
 3414SOL    HW210264   4.117   3.355   1.004
 3415SOL     OW10265   4.162   2.254   1.499
 3415SOL    HW110266   4.244   2.198   1.508
 3415SOL    HW210267   4.081   2.196   1.503
 3416SOL     OW10268   3.955   3.575   0.483
 3416SOL    HW110269   3.989   3.652   0.537
 3416SOL    HW210270   3.999   3.575   0.393
 3417SOL     OW10271   4.851   3.203   1.690
 3417SOL    HW110272   4.898   3.203   1.778
 3417SOL    HW210273   4.803   3.116   1.679
 3418SOL     OW10274   3.954   3.296   0.538
 3418SOL    HW110275   3.928   3.392   0.538
 3418SOL    HW210276   3.883   3.242   0.583
 3419SOL     OW10277   3.964   2.953   0.886
 3419SOL    HW110278   3.978   2.869   0.938
 3419SOL    HW210279   3.909   3.017   0.941
 3420SOL     OW10280   4.344   3.648   1.439
 3420SOL    HW110281   4.252   3.631   1.474
 3420SOL    HW210282   4.372   3.740   1.465
 3421SOL     OW10283   4.330   2.826   0.123
 3421SOL    HW110284   4.337   2.910   0.069
 3421SOL    HW210285   4.376   2.839   0.211
 3422SOL     OW10286   3.846   2.505   0.563
 3422SOL    HW110287   3.801   2.417   0.580
 3422SOL    HW210288   3.845   2.559   0.647
 3423SOL     OW10289   3.751   3.458   0.117
 3423SOL    HW110290   3.732   3.362   0.138
 3423SOL    HW210291   3.718   3.516   0.192
 3424SOL     OW10292   3.837   2.599   1.597
 3424SOL    HW110293   3.925   2.586   1.642
 3424SOL    HW210294   3.824   2.696   1.575
 3425SOL     OW10295   4.337   3.227   0.726
 3425SOL    HW110296   4.288   3.140   0.735
 3425SOL    HW210297   4.314   3.270   0.639
 3426SOL     OW10298   4.533   1.866   0.502
 3426SOL    HW110299   4.573   1.957   0.493
 3426SOL    HW210300   4.433   1.874   0.508
 3427SOL     OW10301   3.921   2.838   1.264
 3427SOL    HW110302   4.010   2.793   1.250
 3427SOL    HW210303   3.848   2.773   1.245
 3428SOL     OW10304   4.041   2.113   1.801
 3428SOL    HW110305   4.112   2.184   1.807
 3428SOL    HW210306   3.953   2.152   1.829
 3429SOL     OW10307   4.322   2.591   0.270
 3429SOL    HW110308   4.346   2.660   0.202
 3429SOL    HW210309   4.244   2.624   0.324
 3430SOL     OW10310   4.531   2.467   1.465
 3430SOL    HW110311   4.484   2.464   1.554
 3430SOL    HW210312   4.480   2.412   1.399
 3431SOL     OW10313   4.697   2.752   1.572
 3431SOL    HW110314   4.743   2.668   1.543
 3431SOL    HW210315   4.641   2.786   1.497
 3432SOL     OW10316   4.715   2.272   1.242
 3432SOL    HW110317   4.638   2.306   1.296
 3432SOL    HW210318   4.681   2.221   1.163
 3433SOL     OW10319   4.765   2.563   0.429
 3433SOL    HW110320   4.791   2.559   0.525
 3433SOL    HW210321   4.680   2.512   0.415
 3434SOL     OW10322   3.800   2.673   0.789
 3434SOL    HW110323   3.899   2.661   0.798
 3434SOL    HW210324   3.776   2.768   0.810
 3435SOL     OW10325   3.854   3.683   1.571
 3435SOL    HW110326   3.844   3.668   1.670
 3435SOL    HW210327   3.768   3.719   1.535
 3436SOL     OW10328   4.589   2.210   0.195
 3436SOL    HW110329   4.648   2.273   0.146
 3436SOL    HW210330   4.608   2.116   0.166
 3437SOL     OW10331   4.274   2.058   0.885
 3437SOL    HW110332   4.269   2.053   0.985
 3437SOL    HW210333   4.276   2.154   0.856
 3438SOL     OW10334   4.732   3.318   0.477
 3438SOL    HW110335   4.686   3.390   0.425
 3438SOL    HW210336   4.728   3.338   0.575
 3439SOL     OW10337   4.075   3.663   0.853
 3439SOL    HW110338   4.125   3.577   0.859
 3439SOL    HW210339   4.140   3.740   0.850
 3440SOL     OW10340   4.951   3.412   1.506
 3440SOL    HW110341   4.957   3.335   1.570
 3440SOL    HW210342   4.899   3.386   1.426
 3441SOL     OW10343   4.045   2.805   0.242
 3441SOL    HW110344   4.127   2.844   0.200
 3441SOL    HW210345   4.018   2.723   0.193
 3442SOL     OW10346   4.185   3.128   1.727
 3442SOL    HW110347   4.135   3.129   1.641
 3442SOL    HW210348   4.122   3.110   1.803
 3443SOL     OW10349   4.835   3.638   0.237
 3443SOL    HW110350   4.775   3.576   0.287
 3443SOL    HW210351   4.866   3.594   0.152
 3444SOL     OW10352   3.926   2.147   1.498
 3444SOL    HW110353   3.846   2.207   1.485
 3444SOL    HW210354   3.916   2.098   1.584
 3445SOL     OW10355   4.188   3.605   0.323
 3445SOL    HW110356   4.221   3.644   0.409
 3445SOL    HW210357   4.264   3.598   0.258
 3446SOL     OW10358   3.973   3.647   1.241
 3446SOL    HW110359   4.030   3.582   1.291
 3446SOL    HW210360   3.957   3.614   1.148
 3447SOL     OW10361   4.664   3.560   0.904
 3447SOL    HW110362   4.744   3.503   0.925
 3447SOL    HW210363   4.615   3.520   0.827
 3448SOL     OW10364   4.106   2.562   0.480
 3448SOL    HW110365   4.151   2.472   0.477
 3448SOL    HW210366   4.012   2.551   0.513
 3449SOL     OW10367   4.338   1.984   0.117
 3449SOL    HW110368   4.436   1.962   0.124
 3449SOL    HW210369   4.307   1.967   0.024
 3450SOL     OW10370   4.505   2.126   1.749
 3450SOL    HW110371   4.572   2.065   1.792
 3450SOL    HW210372   4.432   2.145   1.814
 3451SOL     OW10373   4.612   3.376   1.195
 3451SOL    HW110374   4.589   3.351   1.101
 3451SOL    HW210375   4.673   3.307   1.234
 3452SOL     OW10376   4.527   3.264   0.924
 3452SOL    HW110377   4.617   3.278   0.882
 3452SOL    HW210378   4.456   3.266   0.853
 3453SOL     OW10379   4.646   2.365   0.899
 3453SOL    HW110380   4.621   2.356   0.803
 3453SOL    HW210381   4.694   2.283   0.930
 3454SOL     OW10382   4.263   1.926   0.512
 3454SOL    HW110383   4.182   1.927   0.570
 3454SOL    HW210384   4.266   2.009   0.457
 3455SOL     OW10385   5.158   3.050   0.041
 3455SOL    HW110386   5.190   2.974   0.098
 3455SOL    HW210387   5.066   3.077   0.071
 3456SOL     OW10388   4.021   1.897   0.171
 3456SOL    HW110389   4.070   1.981   0.150
 3456SOL    HW210390   4.083   1.832   0.216
 3457SOL     OW10391   4.659   2.098   0.480
 3457SOL    HW110392   4.611   2.139   0.402
 3457SOL    HW210393   4.758   2.096   0.461
 3458SOL     OW10394   4.800   2.545   1.464
 3458SOL    HW110395   4.720   2.484   1.467
 3458SOL    HW210396   4.881   2.492   1.440
 3459SOL     OW10397   4.951   3.432   0.793
 3459SOL    HW110398   4.972   3.506   0.728
 3459SOL    HW210399   5.019   3.432   0.866
 3460SOL     OW10400   4.183   3.014   0.741
 3460SOL    HW110401   4.112   2.987   0.806
 3460SOL    HW210402   4.157   2.986   0.648
 3461SOL     OW10403   4.995   3.659   0.591
 3461SOL    HW110404   5.039   3.723   0.527
 3461SOL    HW210405   4.945   3.711   0.661
 3462SOL     OW10406   4.756   2.411   0.016
 3462SOL    HW110407   4.715   2.493  -0.023
 3462SOL    HW210408   4.820   2.437   0.089
 3463SOL     OW10409   3.802   2.418   1.386
 3463SOL    HW110410   3.894   2.417   1.345
 3463SOL    HW210411   3.796   2.492   1.453
 3464SOL     OW10412   4.285   2.084   1.147
 3464SOL    HW110413   4.323   2.000   1.184
 3464SOL    HW210414   4.197   2.103   1.191
 3465SOL     OW10415   4.590   2.316   0.642
 3465SOL    HW110416   4.558   2.388   0.580
 3465SOL    HW210417   4.614   2.235   0.589
 3466SOL     OW10418   4.741   1.901   0.753
 3466SOL    HW110419   4.669   1.906   0.684
 3466SOL    HW210420   4.717   1.832   0.822
 3467SOL     OW10421   4.212   3.247   0.174
 3467SOL    HW110422   4.125   3.232   0.221
 3467SOL    HW210423   4.195   3.273   0.079
 3468SOL     OW10424   4.251   2.118   0.328
 3468SOL    HW110425   4.278   2.059   0.253
 3468SOL    HW210426   4.251   2.213   0.297
 3469SOL     OW10427   4.788   3.209   1.340
 3469SOL    HW110428   4.708   3.186   1.395
 3469SOL    HW210429   4.871   3.183   1.389
 3470SOL     OW10430   4.835   3.057   1.100
 3470SOL    HW110431   4.795   3.101   1.181
 3470SOL    HW210432   4.794   3.094   1.017
 3471SOL     OW10433   4.639   1.951   1.402
 3471SOL    HW110434   4.664   1.931   1.307
 3471SOL    HW210435   4.711   2.007   1.444
 3472SOL     OW10436   4.704   2.978   1.719
 3472SOL    HW110437   4.605   2.984   1.729
 3472SOL    HW210438   4.727   2.898   1.663
 3473SOL     OW10439   4.429   2.912   0.368
 3473SOL    HW110440   4.415   2.919   0.467
 3473SOL    HW210441   4.513   2.861   0.350
 3474SOL     OW10442   4.134   2.675   1.251
 3474SOL    HW110443   4.220   2.687   1.301
 3474SOL    HW210444   4.092   2.588   1.278
 3475SOL     OW10445   3.788   3.426   1.331
 3475SOL    HW110446   3.742   3.508   1.297
 3475SOL    HW210447   3.886   3.445   1.340
 3476SOL     OW10448   4.091   2.962   0.501
 3476SOL    HW110449   4.084   3.045   0.445
 3476SOL    HW210450   4.095   2.882   0.441
 3477SOL     OW10451   4.290   2.399   0.865
 3477SOL    HW110452   4.302   2.465   0.791
 3477SOL    HW210453   4.336   2.433   0.948
 3478SOL     OW10454   4.976   3.210   0.388
 3478SOL    HW110455   5.026   3.287   0.428
 3478SOL    HW210456   4.881   3.212   0.420
 3479SOL     OW10457   4.078   3.372   1.329
 3479SOL    HW110458   4.057   3.328   1.242
 3479SOL    HW210459   4.175   3.398   1.332
 3480SOL     OW10460   4.126   2.613   1.598
 3480SOL    HW110461   4.194   2.668   1.551
 3480SOL    HW210462   4.166   2.525   1.625
 3481SOL     OW10463   4.737   1.967   1.770
 3481SOL    HW110464   4.743   2.052   1.718
 3481SOL    HW210465   4.769   1.891   1.713
 3482SOL     OW10466   4.228   1.912   1.740
 3482SOL    HW110467   4.186   1.855   1.670
 3482SOL    HW210468   4.162   1.981   1.772
 3483SOL     OW10469   4.297   2.732   1.029
 3483SOL    HW110470   4.341   2.821   1.020
 3483SOL    HW210471   4.234   2.732   1.106
 3484SOL     OW10472   5.084   2.724   1.045
 3484SOL    HW110473   5.009   2.724   0.979
 3484SOL    HW210474   5.121   2.632   1.054
 3485SOL     OW10475   4.933   2.387   0.275
 3485SOL    HW110476   4.946   2.303   0.329
 3485SOL    HW210477   4.904   2.461   0.335
 3486SOL     OW10478   4.031   2.075   1.231
 3486SOL    HW110479   4.008   2.112   1.321
 3486SOL    HW210480   4.001   1.980   1.225
 3487SOL     OW10481   3.761   3.172   1.282
 3487SOL    HW110482   3.814   3.123   1.350
 3487SOL    HW210483   3.783   3.270   1.287
 3488SOL     OW10484   4.456   2.496   1.064
 3488SOL    HW110485   4.515   2.470   0.988
 3488SOL    HW210486   4.428   2.592   1.053
 3489SOL     OW10487   4.031   1.925   0.618
 3489SOL    HW110488   4.020   2.019   0.651
 3489SOL    HW210489   4.026   1.862   0.695
 3490SOL     OW10490   4.747   2.628   0.966
 3490SOL    HW110491   4.762   2.649   1.062
 3490SOL    HW210492   4.717   2.533   0.957
 3491SOL     OW10493   4.704   3.435   1.700
 3491SOL    HW110494   4.684   3.479   1.612
 3491SOL    HW210495   4.743   3.344   1.684
 3492SOL     OW10496   4.074   2.760   1.804
 3492SOL    HW110497   4.150   2.804   1.852
 3492SOL    HW210498   4.109   2.713   1.722
 3493SOL     OW10499   4.792   3.195   0.849
 3493SOL    HW110500   4.799   3.111   0.794
 3493SOL    HW210501   4.854   3.264   0.813
 3494SOL     OW10502   4.043   2.672   0.949
 3494SOL    HW110503   4.136   2.708   0.954
 3494SOL    HW210504   4.037   2.587   1.001
 3495SOL     OW10505   4.063   2.371   1.006
 3495SOL    HW110506   4.011   2.288   0.989
 3495SOL    HW210507   4.140   2.376   0.942
 3496SOL     OW10508   4.862   2.242   1.678
 3496SOL    HW110509   4.817   2.305   1.742
 3496SOL    HW210510   4.955   2.273   1.661
 3497SOL     OW10511   4.884   2.069   1.477
 3497SOL    HW110512   4.884   2.133   1.554
 3497SOL    HW210513   4.912   2.117   1.394
 3498SOL     OW10514   3.732   3.188   0.200
 3498SOL    HW110515   3.639   3.209   0.169
 3498SOL    HW210516   3.742   3.089   0.213
 3499SOL     OW10517   3.812   3.663   0.927
 3499SOL    HW110518   3.770   3.577   0.900
 3499SOL    HW210519   3.906   3.666   0.893
 3500SOL     OW10520   4.228   3.430   0.910
 3500SOL    HW110521   4.294   3.504   0.919
 3500SOL    HW210522   4.272   3.351   0.868
 3501SOL     OW10523   4.726   2.658   1.238
 3501SOL    HW110524   4.767   2.626   1.324
 3501SOL    HW210525   4.630   2.631   1.235
 3502SOL     OW10526   3.764   2.406   1.114
 3502SOL    HW110527   3.849   2.373   1.073
 3502SOL    HW210528   3.777   2.421   1.212
 3503SOL     OW10529   3.913   2.382   1.722
 3503SOL    HW110530   3.972   2.342   1.652
 3503SOL    HW210531   3.855   2.453   1.681
 3504SOL     OW10532   4.539   2.434   0.325
 3504SOL    HW110533   4.546   2.345   0.279
 3504SOL    HW210534   4.445   2.468   0.317
 3505SOL     OW10535   3.976   3.426   1.744
 3505SOL    HW110536   3.946   3.483   1.820
 3505SOL    HW210537   3.969   3.329   1.770
 3506SOL     OW10538   4.395   2.326   1.269
 3506SOL    HW110539   4.361   2.237   1.239
 3506SOL    HW210540   4.421   2.380   1.189
 3507SOL     OW10541   4.654   3.540   1.465
 3507SOL    HW110542   4.630   3.522   1.370
 3507SOL    HW210543   4.684   3.634   1.475
 3508SOL     OW10544   4.197   2.362   0.191
 3508SOL    HW110545   4.258   2.442   0.195
 3508SOL    HW210546   4.102   2.393   0.198
 3509SOL     OW10547   3.883   2.999   1.466
 3509SOL    HW110548   3.905   2.938   1.542
 3509SOL    HW210549   3.893   2.950   1.380
 3510SOL     OW10550   4.976   3.593   1.128
 3510SOL    HW110551   5.060   3.598   1.074
 3510SOL    HW210552   4.953   3.497   1.146
 3511SOL     OW10553   3.807   3.120   1.022
 3511SOL    HW110554   3.802   3.119   1.122
 3511SOL    HW210555   3.724   3.079   0.984
 3512SOL     OW10556   4.412   3.524   1.716
 3512SOL    HW110557   4.356   3.605   1.725
 3512SOL    HW210558   4.464   3.528   1.630
 3513SOL     OW10559   4.627   1.948   0.133
 3513SOL    HW110560   4.678   1.949   0.047
 3513SOL    HW210561   4.683   1.906   0.204
 3514SOL     OW10562   3.854   3.656   1.851
 3514SOL    HW110563   3.813   3.582   1.904
 3514SOL    HW210564   3.918   3.707   1.909
 3515SOL     OW10565   4.554   3.135   1.422
 3515SOL    HW110566   4.549   3.168   1.517
 3515SOL    HW210567   4.468   3.154   1.376
 3516SOL     OW10568   4.396   3.478   0.154
 3516SOL    HW110569   4.405   3.488   0.055
 3516SOL    HW210570   4.356   3.389   0.175
 3517SOL     OW10571   3.987   2.188   0.720
 3517SOL    HW110572   3.908   2.239   0.686
 3517SOL    HW210573   3.978   2.173   0.818
 3518SOL     OW10574   4.546   2.864   1.372
 3518SOL    HW110575   4.586   2.863   1.280
 3518SOL    HW210576   4.556   2.956   1.412
 3519SOL     OW10577   4.640   2.772   0.291
 3519SOL    HW110578   4.703   2.810   0.223
 3519SOL    HW210579   4.680   2.689   0.330
 3520SOL     OW10580   4.096   3.150   1.490
 3520SOL    HW110581   4.083   3.243   1.456
 3520SOL    HW210582   4.012   3.098   1.477
 3521SOL     OW10583   4.763   2.960   0.696
 3521SOL    HW110584   4.693   2.913   0.750
 3521SOL    HW210585   4.822   2.892   0.653
 3522SOL     OW10586   4.738   2.098   0.971
 3522SOL    HW110587   4.730   2.062   0.878
 3522SOL    HW210588   4.736   2.022   1.036
 3523SOL     OW10589   4.314   3.349   0.491
 3523SOL    HW110590   4.356   3.291   0.421
 3523SOL    HW210591   4.270   3.428   0.447
 3524SOL     OW10592   3.979   3.210   0.290
 3524SOL    HW110593   3.883   3.211   0.263
 3524SOL    HW210594   3.991   3.263   0.374
 3525SOL     OW10595   3.829   2.875   1.726
 3525SOL    HW110596   3.752   2.842   1.780
 3525SOL    HW210597   3.914   2.845   1.768
 3526SOL     OW10598   4.396   2.065   1.489
 3526SOL    HW110599   4.486   2.049   1.449
 3526SOL    HW210600   4.404   2.070   1.588
 3527SOL     OW10601   3.796   2.028   0.318
 3527SOL    HW110602   3.779   2.111   0.264
 3527SOL    HW210603   3.886   1.991   0.296
 3528SOL     OW10604   4.337   2.704   1.431
 3528SOL    HW110605   4.393   2.785   1.414
 3528SOL    HW210606   4.396   2.624   1.434
 3529SOL     OW10607   4.440   2.427   1.708
 3529SOL    HW110608   4.459   2.492   1.782
 3529SOL    HW210609   4.500   2.347   1.717
 3530SOL     OW10610   4.114   3.603   1.560
 3530SOL    HW110611   4.023   3.644   1.558
 3530SOL    HW210612   4.107   3.509   1.592
 3531SOL     OW10613   4.318   2.607   0.652
 3531SOL    HW110614   4.368   2.692   0.633
 3531SOL    HW210615   4.230   2.609   0.604
 3532SOL     OW10616   4.583   3.236   0.016
 3532SOL    HW110617   4.537   3.251   0.104
 3532SOL    HW210618   4.627   3.321  -0.014
 3533SOL     OW10619   4.385   3.652   0.953
 3533SOL    HW110620   4.339   3.740   0.940
 3533SOL    HW210621   4.484   3.664   0.946
 3534SOL     OW10622   4.583   2.818   0.861
 3534SOL    HW110623   4.637   2.749   0.909
 3534SOL    HW210624   4.551   2.887   0.927
 3535SOL     OW10625   4.807   2.846   0.087
 3535SOL    HW110626   4.784   2.899   0.005
 3535SOL    HW210627   4.888   2.790   0.068
 3536SOL     OW10628   3.945   3.176   1.844
 3536SOL    HW110629   3.880   3.103   1.823
 3536SOL    HW210630   3.949   3.190   1.942
 3537SOL     OW10631   3.803   3.102   0.653
 3537SOL    HW110632   3.802   3.055   0.741
 3537SOL    HW210633   3.885   3.074   0.602
 3538SOL     OW10634   4.396   3.253   1.624
 3538SOL    HW110635   4.318   3.203   1.662
 3538SOL    HW210636   4.393   3.348   1.655
 3539SOL     OW10637   4.152   2.286   0.520
 3539SOL    HW110638   4.182   2.214   0.458
 3539SOL    HW210639   4.113   2.246   0.603
 3540SOL     OW10640   4.041   2.409   1.280
 3540SOL    HW110641   4.079   2.350   1.352
 3540SOL    HW210642   4.081   2.383   1.192
 3541SOL     OW10643   4.536   3.448   0.687
 3541SOL    HW110644   4.568   3.458   0.593
 3541SOL    HW210645   4.457   3.386   0.689
 3542SOL     OW10646   4.725   1.896   1.154
 3542SOL    HW110647   4.662   1.824   1.123
 3542SOL    HW210648   4.818   1.860   1.154
 3543SOL     OW10649   4.494   3.192   0.301
 3543SOL    HW110650   4.448   3.105   0.318
 3543SOL    HW210651   4.585   3.189   0.342
 3544SOL     OW10652   4.342   3.429   1.284
 3544SOL    HW110653   4.337   3.511   1.341
 3544SOL    HW210654   4.431   3.426   1.239
 3545SOL     OW10655   5.076   1.914   0.168
 3545SOL    HW110656   5.111   1.873   0.084
 3545SOL    HW210657   4.986   1.876   0.188
 3546SOL     OW10658   4.599   3.508   0.337
 3546SOL    HW110659   4.522   3.473   0.283
 3546SOL    HW210660   4.567   3.579   0.399
 3547SOL     OW10661   3.954   2.490   1.975
 3547SOL    HW110662   3.861   2.488   2.012
 3547SOL    HW210663   3.955   2.451   1.883
 3548SOL     OW10664   3.949   2.137   2.858
 3548SOL    HW110665   3.984   2.120   2.950
 3548SOL    HW210666   3.861   2.092   2.846
 3549SOL     OW10667   3.743   2.230   2.509
 3549SOL    HW110668   3.661   2.273   2.548
 3549SOL    HW210669   3.715   2.157   2.446
 3550SOL     OW10670   4.293   3.137   3.027
 3550SOL    HW110671   4.200   3.130   2.990
 3550SOL    HW210672   4.304   3.226   3.071
 3551SOL     OW10673   4.859   2.565   2.579
 3551SOL    HW110674   4.916   2.643   2.554
 3551SOL    HW210675   4.799   2.591   2.655
 3552SOL     OW10676   4.492   3.006   2.885
 3552SOL    HW110677   4.414   3.023   2.945
 3552SOL    HW210678   4.526   3.093   2.849
 3553SOL     OW10679   4.574   2.660   3.685
 3553SOL    HW110680   4.570   2.736   3.750
 3553SOL    HW210681   4.596   2.696   3.594
 3554SOL     OW10682   4.409   2.874   2.527
 3554SOL    HW110683   4.478   2.858   2.597
 3554SOL    HW210684   4.336   2.931   2.565
 3555SOL     OW10685   4.410   3.023   3.665
 3555SOL    HW110686   4.470   3.102   3.679
 3555SOL    HW210687   4.324   3.054   3.624
 3556SOL     OW10688   4.059   3.297   2.923
 3556SOL    HW110689   3.981   3.266   2.870
 3556SOL    HW210690   4.117   3.355   2.866
 3557SOL     OW10691   4.162   2.254   3.361
 3557SOL    HW110692   4.244   2.198   3.370
 3557SOL    HW210693   4.081   2.196   3.365
 3558SOL     OW10694   3.955   3.575   2.345
 3558SOL    HW110695   3.989   3.652   2.399
 3558SOL    HW210696   3.999   3.575   2.255
 3559SOL     OW10697   4.851   3.203   3.552
 3559SOL    HW110698   4.898   3.203   3.640
 3559SOL    HW210699   4.803   3.116   3.541
 3560SOL     OW10700   3.954   3.296   2.400
 3560SOL    HW110701   3.928   3.392   2.400
 3560SOL    HW210702   3.883   3.242   2.445
 3561SOL     OW10703   3.964   2.953   2.748
 3561SOL    HW110704   3.978   2.869   2.800
 3561SOL    HW210705   3.909   3.017   2.803
 3562SOL     OW10706   4.344   3.648   3.301
 3562SOL    HW110707   4.252   3.631   3.336
 3562SOL    HW210708   4.372   3.740   3.327
 3563SOL     OW10709   4.330   2.826   1.985
 3563SOL    HW110710   4.337   2.910   1.931
 3563SOL    HW210711   4.376   2.839   2.073
 3564SOL     OW10712   3.846   2.505   2.425
 3564SOL    HW110713   3.801   2.417   2.442
 3564SOL    HW210714   3.845   2.559   2.509
 3565SOL     OW10715   3.751   3.458   1.979
 3565SOL    HW110716   3.732   3.362   2.000
 3565SOL    HW210717   3.718   3.516   2.054
 3566SOL     OW10718   3.837   2.599   3.459
 3566SOL    HW110719   3.925   2.586   3.504
 3566SOL    HW210720   3.824   2.696   3.437
 3567SOL     OW10721   4.337   3.227   2.588
 3567SOL    HW110722   4.288   3.140   2.597
 3567SOL    HW210723   4.314   3.270   2.501
 3568SOL     OW10724   4.533   1.866   2.364
 3568SOL    HW110725   4.573   1.957   2.355
 3568SOL    HW210726   4.433   1.874   2.370
 3569SOL     OW10727   3.921   2.838   3.126
 3569SOL    HW110728   4.010   2.793   3.112
 3569SOL    HW210729   3.848   2.773   3.107
 3570SOL     OW10730   4.041   2.113   3.663
 3570SOL    HW110731   4.112   2.184   3.669
 3570SOL    HW210732   3.953   2.152   3.691
 3571SOL     OW10733   4.322   2.591   2.132
 3571SOL    HW110734   4.346   2.660   2.064
 3571SOL    HW210735   4.244   2.624   2.186
 3572SOL     OW10736   4.531   2.467   3.327
 3572SOL    HW110737   4.484   2.464   3.416
 3572SOL    HW210738   4.480   2.412   3.261
 3573SOL     OW10739   4.697   2.752   3.434
 3573SOL    HW110740   4.743   2.668   3.405
 3573SOL    HW210741   4.641   2.786   3.359
 3574SOL     OW10742   4.715   2.272   3.104
 3574SOL    HW110743   4.638   2.306   3.158
 3574SOL    HW210744   4.681   2.221   3.025
 3575SOL     OW10745   4.765   2.563   2.291
 3575SOL    HW110746   4.791   2.559   2.387
 3575SOL    HW210747   4.680   2.512   2.277
 3576SOL     OW10748   3.800   2.673   2.651
 3576SOL    HW110749   3.899   2.661   2.660
 3576SOL    HW210750   3.776   2.768   2.672
 3577SOL     OW10751   3.854   3.683   3.433
 3577SOL    HW110752   3.844   3.668   3.532
 3577SOL    HW210753   3.768   3.719   3.397
 3578SOL     OW10754   4.589   2.210   2.057
 3578SOL    HW110755   4.648   2.273   2.008
 3578SOL    HW210756   4.608   2.116   2.028
 3579SOL     OW10757   4.274   2.058   2.747
 3579SOL    HW110758   4.269   2.053   2.847
 3579SOL    HW210759   4.276   2.154   2.718
 3580SOL     OW10760   4.732   3.318   2.339
 3580SOL    HW110761   4.686   3.390   2.287
 3580SOL    HW210762   4.728   3.338   2.437
 3581SOL     OW10763   4.075   3.663   2.715
 3581SOL    HW110764   4.125   3.577   2.721
 3581SOL    HW210765   4.140   3.740   2.712
 3582SOL     OW10766   4.951   3.412   3.368
 3582SOL    HW110767   4.957   3.335   3.432
 3582SOL    HW210768   4.899   3.386   3.288
 3583SOL     OW10769   4.045   2.805   2.104
 3583SOL    HW110770   4.127   2.844   2.062
 3583SOL    HW210771   4.018   2.723   2.055
 3584SOL     OW10772   4.185   3.128   3.589
 3584SOL    HW110773   4.135   3.129   3.503
 3584SOL    HW210774   4.122   3.110   3.665
 3585SOL     OW10775   4.835   3.638   2.099
 3585SOL    HW110776   4.775   3.576   2.149
 3585SOL    HW210777   4.866   3.594   2.014
 3586SOL     OW10778   3.926   2.147   3.360
 3586SOL    HW110779   3.846   2.207   3.347
 3586SOL    HW210780   3.916   2.098   3.446
 3587SOL     OW10781   4.188   3.605   2.185
 3587SOL    HW110782   4.221   3.644   2.271
 3587SOL    HW210783   4.264   3.598   2.120
 3588SOL     OW10784   3.973   3.647   3.103
 3588SOL    HW110785   4.030   3.582   3.153
 3588SOL    HW210786   3.957   3.614   3.010
 3589SOL     OW10787   4.664   3.560   2.766
 3589SOL    HW110788   4.744   3.503   2.787
 3589SOL    HW210789   4.615   3.520   2.689
 3590SOL     OW10790   4.106   2.562   2.342
 3590SOL    HW110791   4.151   2.472   2.339
 3590SOL    HW210792   4.012   2.551   2.375
 3591SOL     OW10793   4.338   1.984   1.979
 3591SOL    HW110794   4.436   1.962   1.986
 3591SOL    HW210795   4.307   1.967   1.886
 3592SOL     OW10796   4.505   2.126   3.611
 3592SOL    HW110797   4.572   2.065   3.654
 3592SOL    HW210798   4.432   2.145   3.676
 3593SOL     OW10799   4.612   3.376   3.057
 3593SOL    HW110800   4.589   3.351   2.963
 3593SOL    HW210801   4.673   3.307   3.096
 3594SOL     OW10802   4.527   3.264   2.786
 3594SOL    HW110803   4.617   3.278   2.744
 3594SOL    HW210804   4.456   3.266   2.715
 3595SOL     OW10805   4.646   2.365   2.761
 3595SOL    HW110806   4.621   2.356   2.665
 3595SOL    HW210807   4.694   2.283   2.792
 3596SOL     OW10808   4.263   1.926   2.374
 3596SOL    HW110809   4.182   1.927   2.432
 3596SOL    HW210810   4.266   2.009   2.319
 3597SOL     OW10811   4.021   1.897   2.033
 3597SOL    HW110812   4.070   1.981   2.012
 3597SOL    HW210813   4.083   1.832   2.078
 3598SOL     OW10814   4.659   2.098   2.342
 3598SOL    HW110815   4.611   2.139   2.264
 3598SOL    HW210816   4.758   2.096   2.323
 3599SOL     OW10817   4.800   2.545   3.326
 3599SOL    HW110818   4.720   2.484   3.329
 3599SOL    HW210819   4.881   2.492   3.302
 3600SOL     OW10820   4.951   3.432   2.655
 3600SOL    HW110821   4.972   3.506   2.590
 3600SOL    HW210822   5.019   3.432   2.728
 3601SOL     OW10823   4.183   3.014   2.603
 3601SOL    HW110824   4.112   2.987   2.668
 3601SOL    HW210825   4.157   2.986   2.510
 3602SOL     OW10826   4.995   3.659   2.453
 3602SOL    HW110827   5.039   3.723   2.389
 3602SOL    HW210828   4.945   3.711   2.523
 3603SOL     OW10829   4.756   2.411   1.878
 3603SOL    HW110830   4.715   2.493   1.839
 3603SOL    HW210831   4.820   2.437   1.951
 3604SOL     OW10832   3.802   2.418   3.248
 3604SOL    HW110833   3.894   2.417   3.207
 3604SOL    HW210834   3.796   2.492   3.315
 3605SOL     OW10835   4.285   2.084   3.009
 3605SOL    HW110836   4.323   2.000   3.046
 3605SOL    HW210837   4.197   2.103   3.053
 3606SOL     OW10838   4.590   2.316   2.504
 3606SOL    HW110839   4.558   2.388   2.442
 3606SOL    HW210840   4.614   2.235   2.451
 3607SOL     OW10841   4.741   1.901   2.615
 3607SOL    HW110842   4.669   1.906   2.546
 3607SOL    HW210843   4.717   1.832   2.684
 3608SOL     OW10844   4.212   3.247   2.036
 3608SOL    HW110845   4.125   3.232   2.083
 3608SOL    HW210846   4.195   3.273   1.941
 3609SOL     OW10847   4.251   2.118   2.190
 3609SOL    HW110848   4.278   2.059   2.115
 3609SOL    HW210849   4.251   2.213   2.159
 3610SOL     OW10850   4.788   3.209   3.202
 3610SOL    HW110851   4.708   3.186   3.257
 3610SOL    HW210852   4.871   3.183   3.251
 3611SOL     OW10853   4.835   3.057   2.962
 3611SOL    HW110854   4.795   3.101   3.043
 3611SOL    HW210855   4.794   3.094   2.879
 3612SOL     OW10856   4.639   1.951   3.264
 3612SOL    HW110857   4.664   1.931   3.169
 3612SOL    HW210858   4.711   2.007   3.306
 3613SOL     OW10859   4.704   2.978   3.581
 3613SOL    HW110860   4.605   2.984   3.591
 3613SOL    HW210861   4.727   2.898   3.525
 3614SOL     OW10862   4.429   2.912   2.230
 3614SOL    HW110863   4.415   2.919   2.329
 3614SOL    HW210864   4.513   2.861   2.212
 3615SOL     OW10865   4.134   2.675   3.113
 3615SOL    HW110866   4.220   2.687   3.163
 3615SOL    HW210867   4.092   2.588   3.140
 3616SOL     OW10868   3.788   3.426   3.193
 3616SOL    HW110869   3.742   3.508   3.159
 3616SOL    HW210870   3.886   3.445   3.202
 3617SOL     OW10871   4.091   2.962   2.363
 3617SOL    HW110872   4.084   3.045   2.307
 3617SOL    HW210873   4.095   2.882   2.303
 3618SOL     OW10874   4.290   2.399   2.727
 3618SOL    HW110875   4.302   2.465   2.653
 3618SOL    HW210876   4.336   2.433   2.810
 3619SOL     OW10877   4.976   3.210   2.250
 3619SOL    HW110878   5.026   3.287   2.290
 3619SOL    HW210879   4.881   3.212   2.282
 3620SOL     OW10880   4.078   3.372   3.191
 3620SOL    HW110881   4.057   3.328   3.104
 3620SOL    HW210882   4.175   3.398   3.194
 3621SOL     OW10883   4.126   2.613   3.460
 3621SOL    HW110884   4.194   2.668   3.413
 3621SOL    HW210885   4.166   2.525   3.487
 3622SOL     OW10886   4.737   1.967   3.632
 3622SOL    HW110887   4.743   2.052   3.580
 3622SOL    HW210888   4.769   1.891   3.575
 3623SOL     OW10889   4.228   1.912   3.602
 3623SOL    HW110890   4.186   1.855   3.532
 3623SOL    HW210891   4.162   1.981   3.634
 3624SOL     OW10892   4.297   2.732   2.891
 3624SOL    HW110893   4.341   2.821   2.882
 3624SOL    HW210894   4.234   2.732   2.968
 3625SOL     OW10895   5.084   2.724   2.907
 3625SOL    HW110896   5.009   2.724   2.841
 3625SOL    HW210897   5.121   2.632   2.916
 3626SOL     OW10898   4.933   2.387   2.137
 3626SOL    HW110899   4.946   2.303   2.191
 3626SOL    HW210900   4.904   2.461   2.197
 3627SOL     OW10901   4.031   2.075   3.093
 3627SOL    HW110902   4.008   2.112   3.183
 3627SOL    HW210903   4.001   1.980   3.087
 3628SOL     OW10904   3.761   3.172   3.144
 3628SOL    HW110905   3.814   3.123   3.212
 3628SOL    HW210906   3.783   3.270   3.149
 3629SOL     OW10907   4.456   2.496   2.926
 3629SOL    HW110908   4.515   2.470   2.850
 3629SOL    HW210909   4.428   2.592   2.915
 3630SOL     OW10910   4.031   1.925   2.480
 3630SOL    HW110911   4.020   2.019   2.513
 3630SOL    HW210912   4.026   1.862   2.557
 3631SOL     OW10913   4.747   2.628   2.828
 3631SOL    HW110914   4.762   2.649   2.924
 3631SOL    HW210915   4.717   2.533   2.819
 3632SOL     OW10916   4.704   3.435   3.562
 3632SOL    HW110917   4.684   3.479   3.474
 3632SOL    HW210918   4.743   3.344   3.546
 3633SOL     OW10919   4.074   2.760   3.666
 3633SOL    HW110920   4.150   2.804   3.714
 3633SOL    HW210921   4.109   2.713   3.584
 3634SOL     OW10922   5.264   2.136   1.987
 3634SOL    HW110923   5.203   2.061   2.010
 3634SOL    HW210924   5.286   2.188   2.070
 3635SOL     OW10925   4.792   3.195   2.711
 3635SOL    HW110926   4.799   3.111   2.656
 3635SOL    HW210927   4.854   3.264   2.675
 3636SOL     OW10928   4.043   2.672   2.811
 3636SOL    HW110929   4.136   2.708   2.816
 3636SOL    HW210930   4.037   2.587   2.863
 3637SOL     OW10931   4.063   2.371   2.868
 3637SOL    HW110932   4.011   2.288   2.851
 3637SOL    HW210933   4.140   2.376   2.804
 3638SOL     OW10934   4.862   2.242   3.540
 3638SOL    HW110935   4.817   2.305   3.604
 3638SOL    HW210936   4.955   2.273   3.523
 3639SOL     OW10937   4.884   2.069   3.339
 3639SOL    HW110938   4.884   2.133   3.416
 3639SOL    HW210939   4.912   2.117   3.256
 3640SOL     OW10940   3.732   3.188   2.062
 3640SOL    HW110941   3.639   3.209   2.031
 3640SOL    HW210942   3.742   3.089   2.075
 3641SOL     OW10943   3.812   3.663   2.789
 3641SOL    HW110944   3.770   3.577   2.762
 3641SOL    HW210945   3.906   3.666   2.755
 3642SOL     OW10946   4.228   3.430   2.772
 3642SOL    HW110947   4.294   3.504   2.781
 3642SOL    HW210948   4.272   3.351   2.730
 3643SOL     OW10949   4.726   2.658   3.100
 3643SOL    HW110950   4.767   2.626   3.186
 3643SOL    HW210951   4.630   2.631   3.097
 3644SOL     OW10952   3.764   2.406   2.976
 3644SOL    HW110953   3.849   2.373   2.935
 3644SOL    HW210954   3.777   2.421   3.074
 3645SOL     OW10955   3.913   2.382   3.584
 3645SOL    HW110956   3.972   2.342   3.514
 3645SOL    HW210957   3.855   2.453   3.543
 3646SOL     OW10958   4.539   2.434   2.187
 3646SOL    HW110959   4.546   2.345   2.141
 3646SOL    HW210960   4.445   2.468   2.179
 3647SOL     OW10961   3.976   3.426   3.606
 3647SOL    HW110962   3.946   3.483   3.682
 3647SOL    HW210963   3.969   3.329   3.632
 3648SOL     OW10964   4.395   2.326   3.131
 3648SOL    HW110965   4.361   2.237   3.101
 3648SOL    HW210966   4.421   2.380   3.051
 3649SOL     OW10967   4.654   3.540   3.327
 3649SOL    HW110968   4.630   3.522   3.232
 3649SOL    HW210969   4.684   3.634   3.337
 3650SOL     OW10970   4.197   2.362   2.053
 3650SOL    HW110971   4.258   2.442   2.057
 3650SOL    HW210972   4.102   2.393   2.060
 3651SOL     OW10973   3.883   2.999   3.328
 3651SOL    HW110974   3.905   2.938   3.404
 3651SOL    HW210975   3.893   2.950   3.242
 3652SOL     OW10976   4.976   3.593   2.990
 3652SOL    HW110977   5.060   3.598   2.936
 3652SOL    HW210978   4.953   3.497   3.008
 3653SOL     OW10979   3.807   3.120   2.884
 3653SOL    HW110980   3.802   3.119   2.984
 3653SOL    HW210981   3.724   3.079   2.846
 3654SOL     OW10982   4.412   3.524   3.578
 3654SOL    HW110983   4.356   3.605   3.587
 3654SOL    HW210984   4.464   3.528   3.492
 3655SOL     OW10985   3.854   3.656   3.713
 3655SOL    HW110986   3.813   3.582   3.766
 3655SOL    HW210987   3.918   3.707   3.771
 3656SOL     OW10988   4.554   3.135   3.284
 3656SOL    HW110989   4.549   3.168   3.379
 3656SOL    HW210990   4.468   3.154   3.238
 3657SOL     OW10991   4.396   3.478   2.016
 3657SOL    HW110992   4.405   3.488   1.917
 3657SOL    HW210993   4.356   3.389   2.037
 3658SOL     OW10994   3.987   2.188   2.582
 3658SOL    HW110995   3.908   2.239   2.548
 3658SOL    HW210996   3.978   2.173   2.680
 3659SOL     OW10997   4.546   2.864   3.234
 3659SOL    HW110998   4.586   2.863   3.142
 3659SOL    HW210999   4.556   2.956   3.274
 3660SOL     OW11000   4.640   2.772   2.153
 3660SOL    HW111001   4.703   2.810   2.085
 3660SOL    HW211002   4.680   2.689   2.192
 3661SOL     OW11003   4.096   3.150   3.352
 3661SOL    HW111004   4.083   3.243   3.318
 3661SOL    HW211005   4.012   3.098   3.339
 3662SOL     OW11006   4.763   2.960   2.558
 3662SOL    HW111007   4.693   2.913   2.612
 3662SOL    HW211008   4.822   2.892   2.515
 3663SOL     OW11009   4.738   2.098   2.833
 3663SOL    HW111010   4.730   2.062   2.740
 3663SOL    HW211011   4.736   2.022   2.898
 3664SOL     OW11012   4.314   3.349   2.353
 3664SOL    HW111013   4.356   3.291   2.283
 3664SOL    HW211014   4.270   3.428   2.309
 3665SOL     OW11015   3.979   3.210   2.152
 3665SOL    HW111016   3.883   3.211   2.125
 3665SOL    HW211017   3.991   3.263   2.236
 3666SOL     OW11018   3.829   2.875   3.588
 3666SOL    HW111019   3.752   2.842   3.642
 3666SOL    HW211020   3.914   2.845   3.630
 3667SOL     OW11021   4.396   2.065   3.351
 3667SOL    HW111022   4.486   2.049   3.311
 3667SOL    HW211023   4.404   2.070   3.450
 3668SOL     OW11024   3.799   2.207   1.895
 3668SOL    HW111025   3.707   2.179   1.866
 3668SOL    HW211026   3.830   2.284   1.839
 3669SOL     OW11027   3.796   2.028   2.180
 3669SOL    HW111028   3.779   2.111   2.126
 3669SOL    HW211029   3.886   1.991   2.158
 3670SOL     OW11030   4.337   2.704   3.293
 3670SOL    HW111031   4.393   2.785   3.276
 3670SOL    HW211032   4.396   2.624   3.296
 3671SOL     OW11033   4.440   2.427   3.570
 3671SOL    HW111034   4.459   2.492   3.644
 3671SOL    HW211035   4.500   2.347   3.579
 3672SOL     OW11036   4.114   3.603   3.422
 3672SOL    HW111037   4.023   3.644   3.420
 3672SOL    HW211038   4.107   3.509   3.454
 3673SOL     OW11039   4.318   2.607   2.514
 3673SOL    HW111040   4.368   2.692   2.495
 3673SOL    HW211041   4.230   2.609   2.466
 3674SOL     OW11042   4.583   3.236   1.878
 3674SOL    HW111043   4.537   3.251   1.966
 3674SOL    HW211044   4.627   3.321   1.848
 3675SOL     OW11045   4.385   3.652   2.815
 3675SOL    HW111046   4.339   3.740   2.802
 3675SOL    HW211047   4.484   3.664   2.808
 3676SOL     OW11048   4.583   2.818   2.723
 3676SOL    HW111049   4.637   2.749   2.771
 3676SOL    HW211050   4.551   2.887   2.789
 3677SOL     OW11051   4.807   2.846   1.949
 3677SOL    HW111052   4.784   2.899   1.867
 3677SOL    HW211053   4.888   2.790   1.930
 3678SOL     OW11054   3.945   3.176   3.706
 3678SOL    HW111055   3.880   3.103   3.685
 3678SOL    HW211056   3.949   3.190   3.804
 3679SOL     OW11057   3.803   3.102   2.515
 3679SOL    HW111058   3.802   3.055   2.603
 3679SOL    HW211059   3.885   3.074   2.464
 3680SOL     OW11060   4.396   3.253   3.486
 3680SOL    HW111061   4.318   3.203   3.524
 3680SOL    HW211062   4.393   3.348   3.517
 3681SOL     OW11063   4.152   2.286   2.382
 3681SOL    HW111064   4.182   2.214   2.320
 3681SOL    HW211065   4.113   2.246   2.465
 3682SOL     OW11066   4.041   2.409   3.142
 3682SOL    HW111067   4.079   2.350   3.214
 3682SOL    HW211068   4.081   2.383   3.054
 3683SOL     OW11069   4.536   3.448   2.549
 3683SOL    HW111070   4.568   3.458   2.455
 3683SOL    HW211071   4.457   3.386   2.551
 3684SOL     OW11072   4.725   1.896   3.016
 3684SOL    HW111073   4.662   1.824   2.985
 3684SOL    HW211074   4.818   1.860   3.016
 3685SOL     OW11075   4.494   3.192   2.163
 3685SOL    HW111076   4.448   3.105   2.180
 3685SOL    HW211077   4.585   3.189   2.204
 3686SOL     OW11078   4.342   3.429   3.146
 3686SOL    HW111079   4.337   3.511   3.203
 3686SOL    HW211080   4.431   3.426   3.101
 3687SOL     OW11081   3.763   2.939   2.162
 3687SOL    HW111082   3.862   2.928   2.153
 3687SOL    HW211083   3.723   2.853   2.194
 3688SOL     OW11084   4.599   3.508   2.199
 3688SOL    HW111085   4.522   3.473   2.145
 3688SOL    HW211086   4.567   3.579   2.261
 3689SOL     OW11087   3.954   2.490   3.837
 3689SOL    HW111088   3.861   2.488   3.874
 3689SOL    HW211089   3.955   2.451   3.745
 3690SOL     OW11090   3.949   2.137   4.720
 3690SOL    HW111091   3.984   2.120   4.812
 3690SOL    HW211092   3.861   2.092   4.708
 3691SOL     OW11093   3.743   2.230   4.371
 3691SOL    HW111094   3.661   2.273   4.410
 3691SOL    HW211095   3.715   2.157   4.308
 3692SOL     OW11096   4.293   3.137   4.889
 3692SOL    HW111097   4.200   3.130   4.852
 3692SOL    HW211098   4.304   3.226   4.933
 3693SOL     OW11099   4.859   2.565   4.441
 3693SOL    HW111100   4.916   2.643   4.416
 3693SOL    HW211101   4.799   2.591   4.517
 3694SOL     OW11102   4.492   3.006   4.747
 3694SOL    HW111103   4.414   3.023   4.807
 3694SOL    HW211104   4.526   3.093   4.711
 3695SOL     OW11105   4.409   2.874   4.389
 3695SOL    HW111106   4.478   2.858   4.459
 3695SOL    HW211107   4.336   2.931   4.427
 3696SOL     OW11108   4.059   3.297   4.785
 3696SOL    HW111109   3.981   3.266   4.732
 3696SOL    HW211110   4.117   3.355   4.728
 3697SOL     OW11111   5.184   3.367   5.063
 3697SOL    HW111112   5.208   3.461   5.089
 3697SOL    HW211113   5.168   3.313   5.145
 3698SOL     OW11114   3.955   3.575   4.207
 3698SOL    HW111115   3.989   3.652   4.261
 3698SOL    HW211116   3.999   3.575   4.117
 3699SOL     OW11117   3.954   3.296   4.262
 3699SOL    HW111118   3.928   3.392   4.262
 3699SOL    HW211119   3.883   3.242   4.307
 3700SOL     OW11120   3.964   2.953   4.610
 3700SOL    HW111121   3.978   2.869   4.662
 3700SOL    HW211122   3.909   3.017   4.665
 3701SOL     OW11123   4.330   2.826   3.847
 3701SOL    HW111124   4.337   2.910   3.793
 3701SOL    HW211125   4.376   2.839   3.935
 3702SOL     OW11126   3.846   2.505   4.287
 3702SOL    HW111127   3.801   2.417   4.304
 3702SOL    HW211128   3.845   2.559   4.371
 3703SOL     OW11129   3.751   3.458   3.841
 3703SOL    HW111130   3.732   3.362   3.862
 3703SOL    HW211131   3.718   3.516   3.916
 3704SOL     OW11132   4.337   3.227   4.450
 3704SOL    HW111133   4.288   3.140   4.459
 3704SOL    HW211134   4.314   3.270   4.363
 3705SOL     OW11135   4.533   1.866   4.226
 3705SOL    HW111136   4.573   1.957   4.217
 3705SOL    HW211137   4.433   1.874   4.232
 3706SOL     OW11138   3.921   2.838   4.988
 3706SOL    HW111139   4.010   2.793   4.974
 3706SOL    HW211140   3.848   2.773   4.969
 3707SOL     OW11141   4.322   2.591   3.994
 3707SOL    HW111142   4.346   2.660   3.926
 3707SOL    HW211143   4.244   2.624   4.048
 3708SOL     OW11144   4.765   2.563   4.153
 3708SOL    HW111145   4.791   2.559   4.249
 3708SOL    HW211146   4.680   2.512   4.139
 3709SOL     OW11147   3.800   2.673   4.513
 3709SOL    HW111148   3.899   2.661   4.522
 3709SOL    HW211149   3.776   2.768   4.534
 3710SOL     OW11150   4.589   2.210   3.919
 3710SOL    HW111151   4.648   2.273   3.870
 3710SOL    HW211152   4.608   2.116   3.890
 3711SOL     OW11153   4.274   2.058   4.609
 3711SOL    HW111154   4.269   2.053   4.709
 3711SOL    HW211155   4.276   2.154   4.580
 3712SOL     OW11156   4.732   3.318   4.201
 3712SOL    HW111157   4.686   3.390   4.149
 3712SOL    HW211158   4.728   3.338   4.299
 3713SOL     OW11159   4.075   3.663   4.577
 3713SOL    HW111160   4.125   3.577   4.583
 3713SOL    HW211161   4.140   3.740   4.574
 3714SOL     OW11162   4.045   2.805   3.966
 3714SOL    HW111163   4.127   2.844   3.924
 3714SOL    HW211164   4.018   2.723   3.917
 3715SOL     OW11165   4.835   3.638   3.961
 3715SOL    HW111166   4.775   3.576   4.011
 3715SOL    HW211167   4.866   3.594   3.876
 3716SOL     OW11168   4.188   3.605   4.047
 3716SOL    HW111169   4.221   3.644   4.133
 3716SOL    HW211170   4.264   3.598   3.982
 3717SOL     OW11171   3.973   3.647   4.965
 3717SOL    HW111172   4.030   3.582   5.015
 3717SOL    HW211173   3.957   3.614   4.872
 3718SOL     OW11174   4.664   3.560   4.628
 3718SOL    HW111175   4.744   3.503   4.649
 3718SOL    HW211176   4.615   3.520   4.551
 3719SOL     OW11177   4.106   2.562   4.204
 3719SOL    HW111178   4.151   2.472   4.201
 3719SOL    HW211179   4.012   2.551   4.237
 3720SOL     OW11180   4.338   1.984   3.841
 3720SOL    HW111181   4.436   1.962   3.848
 3720SOL    HW211182   4.307   1.967   3.748
 3721SOL     OW11183   4.527   3.264   4.648
 3721SOL    HW111184   4.617   3.278   4.606
 3721SOL    HW211185   4.456   3.266   4.577
 3722SOL     OW11186   4.646   2.365   4.623
 3722SOL    HW111187   4.621   2.356   4.527
 3722SOL    HW211188   4.694   2.283   4.654
 3723SOL     OW11189   4.263   1.926   4.236
 3723SOL    HW111190   4.182   1.927   4.294
 3723SOL    HW211191   4.266   2.009   4.181
 3724SOL     OW11192   4.021   1.897   3.895
 3724SOL    HW111193   4.070   1.981   3.874
 3724SOL    HW211194   4.083   1.832   3.940
 3725SOL     OW11195   4.659   2.098   4.204
 3725SOL    HW111196   4.611   2.139   4.126
 3725SOL    HW211197   4.758   2.096   4.185
 3726SOL     OW11198   4.951   3.432   4.517
 3726SOL    HW111199   4.972   3.506   4.452
 3726SOL    HW211200   5.019   3.432   4.590
 3727SOL     OW11201   4.183   3.014   4.465
 3727SOL    HW111202   4.112   2.987   4.530
 3727SOL    HW211203   4.157   2.986   4.372
 3728SOL     OW11204   4.995   3.659   4.315
 3728SOL    HW111205   5.039   3.723   4.251
 3728SOL    HW211206   4.945   3.711   4.385
 3729SOL     OW11207   4.756   2.411   3.740
 3729SOL    HW111208   4.715   2.493   3.701
 3729SOL    HW211209   4.820   2.437   3.813
 3730SOL     OW11210   4.590   2.316   4.366
 3730SOL    HW111211   4.558   2.388   4.304
 3730SOL    HW211212   4.614   2.235   4.313
 3731SOL     OW11213   4.741   1.901   4.477
 3731SOL    HW111214   4.669   1.906   4.408
 3731SOL    HW211215   4.717   1.832   4.546
 3732SOL     OW11216   4.212   3.247   3.898
 3732SOL    HW111217   4.125   3.232   3.945
 3732SOL    HW211218   4.195   3.273   3.803
 3733SOL     OW11219   4.251   2.118   4.052
 3733SOL    HW111220   4.278   2.059   3.977
 3733SOL    HW211221   4.251   2.213   4.021
 3734SOL     OW11222   4.835   3.057   4.824
 3734SOL    HW111223   4.795   3.101   4.905
 3734SOL    HW211224   4.794   3.094   4.741
 3735SOL     OW11225   4.429   2.912   4.092
 3735SOL    HW111226   4.415   2.919   4.191
 3735SOL    HW211227   4.513   2.861   4.074
 3736SOL     OW11228   4.134   2.675   4.975
 3736SOL    HW111229   4.220   2.687   5.025
 3736SOL    HW211230   4.092   2.588   5.002
 3737SOL     OW11231   4.091   2.962   4.225
 3737SOL    HW111232   4.084   3.045   4.169
 3737SOL    HW211233   4.095   2.882   4.165
 3738SOL     OW11234   4.290   2.399   4.589
 3738SOL    HW111235   4.302   2.465   4.515
 3738SOL    HW211236   4.336   2.433   4.672
 3739SOL     OW11237   4.976   3.210   4.112
 3739SOL    HW111238   5.026   3.287   4.152
 3739SOL    HW211239   4.881   3.212   4.144
 3740SOL     OW11240   4.996   3.307   4.866
 3740SOL    HW111241   5.043   3.320   4.953
 3740SOL    HW211242   4.930   3.233   4.875
 3741SOL     OW11243   4.297   2.732   4.753
 3741SOL    HW111244   4.341   2.821   4.744
 3741SOL    HW211245   4.234   2.732   4.830
 3742SOL     OW11246   5.084   2.724   4.769
 3742SOL    HW111247   5.009   2.724   4.703
 3742SOL    HW211248   5.121   2.632   4.778
 3743SOL     OW11249   4.933   2.387   3.999
 3743SOL    HW111250   4.946   2.303   4.053
 3743SOL    HW211251   4.904   2.461   4.059
 3744SOL     OW11252   4.031   2.075   4.955
 3744SOL    HW111253   4.008   2.112   5.045
 3744SOL    HW211254   4.001   1.980   4.949
 3745SOL     OW11255   4.456   2.496   4.788
 3745SOL    HW111256   4.515   2.470   4.712
 3745SOL    HW211257   4.428   2.592   4.777
 3746SOL     OW11258   4.031   1.925   4.342
 3746SOL    HW111259   4.020   2.019   4.375
 3746SOL    HW211260   4.026   1.862   4.419
 3747SOL     OW11261   4.747   2.628   4.690
 3747SOL    HW111262   4.762   2.649   4.786
 3747SOL    HW211263   4.717   2.533   4.681
 3748SOL     OW11264   5.264   2.136   3.849
 3748SOL    HW111265   5.203   2.061   3.872
 3748SOL    HW211266   5.286   2.188   3.932
 3749SOL     OW11267   4.792   3.195   4.573
 3749SOL    HW111268   4.799   3.111   4.518
 3749SOL    HW211269   4.854   3.264   4.537
 3750SOL     OW11270   4.043   2.672   4.673
 3750SOL    HW111271   4.136   2.708   4.678
 3750SOL    HW211272   4.037   2.587   4.725
 3751SOL     OW11273   4.063   2.371   4.730
 3751SOL    HW111274   4.011   2.288   4.713
 3751SOL    HW211275   4.140   2.376   4.666
 3752SOL     OW11276   4.884   2.069   5.201
 3752SOL    HW111277   4.884   2.133   5.278
 3752SOL    HW211278   4.912   2.117   5.118
 3753SOL     OW11279   3.732   3.188   3.924
 3753SOL    HW111280   3.639   3.209   3.893
 3753SOL    HW211281   3.742   3.089   3.937
 3754SOL     OW11282   3.812   3.663   4.651
 3754SOL    HW111283   3.770   3.577   4.624
 3754SOL    HW211284   3.906   3.666   4.617
 3755SOL     OW11285   4.228   3.430   4.634
 3755SOL    HW111286   4.294   3.504   4.643
 3755SOL    HW211287   4.272   3.351   4.592
 3756SOL     OW11288   4.726   2.658   4.962
 3756SOL    HW111289   4.767   2.626   5.048
 3756SOL    HW211290   4.630   2.631   4.959
 3757SOL     OW11291   3.764   2.406   4.838
 3757SOL    HW111292   3.849   2.373   4.797
 3757SOL    HW211293   3.777   2.421   4.936
 3758SOL     OW11294   4.539   2.434   4.049
 3758SOL    HW111295   4.546   2.345   4.003
 3758SOL    HW211296   4.445   2.468   4.041
 3759SOL     OW11297   4.395   2.326   4.993
 3759SOL    HW111298   4.361   2.237   4.963
 3759SOL    HW211299   4.421   2.380   4.913
 3760SOL     OW11300   4.197   2.362   3.915
 3760SOL    HW111301   4.258   2.442   3.919
 3760SOL    HW211302   4.102   2.393   3.922
 3761SOL     OW11303   3.883   2.999   5.190
 3761SOL    HW111304   3.905   2.938   5.266
 3761SOL    HW211305   3.893   2.950   5.104
 3762SOL     OW11306   4.976   3.593   4.852
 3762SOL    HW111307   5.060   3.598   4.798
 3762SOL    HW211308   4.953   3.497   4.870
 3763SOL     OW11309   3.807   3.120   4.746
 3763SOL    HW111310   3.802   3.119   4.846
 3763SOL    HW211311   3.724   3.079   4.708
 3764SOL     OW11312   4.396   3.478   3.878
 3764SOL    HW111313   4.405   3.488   3.779
 3764SOL    HW211314   4.356   3.389   3.899
 3765SOL     OW11315   3.987   2.188   4.444
 3765SOL    HW111316   3.908   2.239   4.410
 3765SOL    HW211317   3.978   2.173   4.542
 3766SOL     OW11318   4.546   2.864   5.096
 3766SOL    HW111319   4.586   2.863   5.004
 3766SOL    HW211320   4.556   2.956   5.136
 3767SOL     OW11321   4.640   2.772   4.015
 3767SOL    HW111322   4.703   2.810   3.947
 3767SOL    HW211323   4.680   2.689   4.054
 3768SOL     OW11324   4.763   2.960   4.420
 3768SOL    HW111325   4.693   2.913   4.474
 3768SOL    HW211326   4.822   2.892   4.377
 3769SOL     OW11327   4.738   2.098   4.695
 3769SOL    HW111328   4.730   2.062   4.602
 3769SOL    HW211329   4.736   2.022   4.760
 3770SOL     OW11330   4.314   3.349   4.215
 3770SOL    HW111331   4.356   3.291   4.145
 3770SOL    HW211332   4.270   3.428   4.171
 3771SOL     OW11333   3.979   3.210   4.014
 3771SOL    HW111334   3.883   3.211   3.987
 3771SOL    HW211335   3.991   3.263   4.098
 3772SOL     OW11336   3.799   2.207   3.757
 3772SOL    HW111337   3.707   2.179   3.728
 3772SOL    HW211338   3.830   2.284   3.701
 3773SOL     OW11339   3.796   2.028   4.042
 3773SOL    HW111340   3.779   2.111   3.988
 3773SOL    HW211341   3.886   1.991   4.020
 3774SOL     OW11342   4.318   2.607   4.376
 3774SOL    HW111343   4.368   2.692   4.357
 3774SOL    HW211344   4.230   2.609   4.328
 3775SOL     OW11345   4.583   3.236   3.740
 3775SOL    HW111346   4.537   3.251   3.828
 3775SOL    HW211347   4.627   3.321   3.710
 3776SOL     OW11348   4.385   3.652   4.677
 3776SOL    HW111349   4.339   3.740   4.664
 3776SOL    HW211350   4.484   3.664   4.670
 3777SOL     OW11351   4.583   2.818   4.585
 3777SOL    HW111352   4.637   2.749   4.633
 3777SOL    HW211353   4.551   2.887   4.651
 3778SOL     OW11354   4.807   2.846   3.811
 3778SOL    HW111355   4.784   2.899   3.729
 3778SOL    HW211356   4.888   2.790   3.792
 3779SOL     OW11357   3.803   3.102   4.377
 3779SOL    HW111358   3.802   3.055   4.465
 3779SOL    HW211359   3.885   3.074   4.326
 3780SOL     OW11360   4.152   2.286   4.244
 3780SOL    HW111361   4.182   2.214   4.182
 3780SOL    HW211362   4.113   2.246   4.327
 3781SOL     OW11363   4.536   3.448   4.411
 3781SOL    HW111364   4.568   3.458   4.317
 3781SOL    HW211365   4.457   3.386   4.413
 3782SOL     OW11366   4.725   1.896   4.878
 3782SOL    HW111367   4.662   1.824   4.847
 3782SOL    HW211368   4.818   1.860   4.878
 3783SOL     OW11369   4.494   3.192   4.025
 3783SOL    HW111370   4.448   3.105   4.042
 3783SOL    HW211371   4.585   3.189   4.066
 3784SOL     OW11372   3.763   2.939   4.024
 3784SOL    HW111373   3.862   2.928   4.015
 3784SOL    HW211374   3.723   2.853   4.056
 3785SOL     OW11375   4.599   3.508   4.061
 3785SOL    HW111376   4.522   3.473   4.007
 3785SOL    HW211377   4.567   3.579   4.123
 3786SOL     OW11378   3.954   4.352   0.113
 3786SOL    HW111379   3.861   4.350   0.150
 3786SOL    HW211380   3.955   4.313   0.021
 3787SOL     OW11381   3.949   3.999   0.996
 3787SOL    HW111382   3.984   3.982   1.088
 3787SOL    HW211383   3.861   3.954   0.984
 3788SOL     OW11384   3.743   4.092   0.647
 3788SOL    HW111385   3.661   4.135   0.686
 3788SOL    HW211386   3.715   4.019   0.584
 3789SOL     OW11387   4.859   4.427   0.717
 3789SOL    HW111388   4.916   4.505   0.692
 3789SOL    HW211389   4.799   4.453   0.793
 3790SOL     OW11390   4.492   4.868   1.023
 3790SOL    HW111391   4.414   4.885   1.083
 3790SOL    HW211392   4.526   4.955   0.987
 3791SOL     OW11393   4.574   4.522   1.823
 3791SOL    HW111394   4.570   4.598   1.888
 3791SOL    HW211395   4.596   4.558   1.732
 3792SOL     OW11396   4.409   4.736   0.665
 3792SOL    HW111397   4.478   4.720   0.735
 3792SOL    HW211398   4.336   4.793   0.703
 3793SOL     OW11399   4.410   4.885   1.803
 3793SOL    HW111400   4.470   4.964   1.817
 3793SOL    HW211401   4.324   4.916   1.762
 3794SOL     OW11402   4.162   4.116   1.499
 3794SOL    HW111403   4.244   4.060   1.508
 3794SOL    HW211404   4.081   4.058   1.503
 3795SOL     OW11405   3.964   4.815   0.886
 3795SOL    HW111406   3.978   4.731   0.938
 3795SOL    HW211407   3.909   4.879   0.941
 3796SOL     OW11408   4.330   4.688   0.123
 3796SOL    HW111409   4.337   4.772   0.069
 3796SOL    HW211410   4.376   4.701   0.211
 3797SOL     OW11411   3.846   4.367   0.563
 3797SOL    HW111412   3.801   4.279   0.580
 3797SOL    HW211413   3.845   4.421   0.647
 3798SOL     OW11414   3.837   4.461   1.597
 3798SOL    HW111415   3.925   4.448   1.642
 3798SOL    HW211416   3.824   4.558   1.575
 3799SOL     OW11417   4.337   5.089   0.726
 3799SOL    HW111418   4.288   5.002   0.735
 3799SOL    HW211419   4.314   5.132   0.639
 3800SOL     OW11420   4.533   3.728   0.502
 3800SOL    HW111421   4.573   3.819   0.493
 3800SOL    HW211422   4.433   3.736   0.508
 3801SOL     OW11423   3.921   4.700   1.264
 3801SOL    HW111424   4.010   4.655   1.250
 3801SOL    HW211425   3.848   4.635   1.245
 3802SOL     OW11426   4.041   3.975   1.801
 3802SOL    HW111427   4.112   4.046   1.807
 3802SOL    HW211428   3.953   4.014   1.829
 3803SOL     OW11429   4.322   4.453   0.270
 3803SOL    HW111430   4.346   4.522   0.202
 3803SOL    HW211431   4.244   4.486   0.324
 3804SOL     OW11432   4.531   4.329   1.465
 3804SOL    HW111433   4.484   4.326   1.554
 3804SOL    HW211434   4.480   4.274   1.399
 3805SOL     OW11435   4.697   4.614   1.572
 3805SOL    HW111436   4.743   4.530   1.543
 3805SOL    HW211437   4.641   4.648   1.497
 3806SOL     OW11438   4.715   4.134   1.242
 3806SOL    HW111439   4.638   4.168   1.296
 3806SOL    HW211440   4.681   4.083   1.163
 3807SOL     OW11441   4.765   4.425   0.429
 3807SOL    HW111442   4.791   4.421   0.525
 3807SOL    HW211443   4.680   4.374   0.415
 3808SOL     OW11444   3.800   4.535   0.789
 3808SOL    HW111445   3.899   4.523   0.798
 3808SOL    HW211446   3.776   4.630   0.810
 3809SOL     OW11447   4.589   4.072   0.195
 3809SOL    HW111448   4.648   4.135   0.146
 3809SOL    HW211449   4.608   3.978   0.166
 3810SOL     OW11450   4.274   3.920   0.885
 3810SOL    HW111451   4.269   3.915   0.985
 3810SOL    HW211452   4.276   4.016   0.856
 3811SOL     OW11453   4.045   4.667   0.242
 3811SOL    HW111454   4.127   4.706   0.200
 3811SOL    HW211455   4.018   4.585   0.193
 3812SOL     OW11456   3.926   4.009   1.498
 3812SOL    HW111457   3.846   4.069   1.485
 3812SOL    HW211458   3.916   3.960   1.584
 3813SOL     OW11459   4.106   4.424   0.480
 3813SOL    HW111460   4.151   4.334   0.477
 3813SOL    HW211461   4.012   4.413   0.513
 3814SOL     OW11462   4.338   3.846   0.117
 3814SOL    HW111463   4.436   3.824   0.124
 3814SOL    HW211464   4.307   3.829   0.024
 3815SOL     OW11465   4.505   3.988   1.749
 3815SOL    HW111466   4.572   3.927   1.792
 3815SOL    HW211467   4.432   4.007   1.814
 3816SOL     OW11468   4.646   4.227   0.899
 3816SOL    HW111469   4.621   4.218   0.803
 3816SOL    HW211470   4.694   4.145   0.930
 3817SOL     OW11471   4.263   3.788   0.512
 3817SOL    HW111472   4.182   3.789   0.570
 3817SOL    HW211473   4.266   3.871   0.457
 3818SOL     OW11474   4.021   3.759   0.171
 3818SOL    HW111475   4.070   3.843   0.150
 3818SOL    HW211476   4.083   3.694   0.216
 3819SOL     OW11477   4.659   3.960   0.480
 3819SOL    HW111478   4.611   4.001   0.402
 3819SOL    HW211479   4.758   3.958   0.461
 3820SOL     OW11480   4.800   4.407   1.464
 3820SOL    HW111481   4.720   4.346   1.467
 3820SOL    HW211482   4.881   4.354   1.440
 3821SOL     OW11483   4.183   4.876   0.741
 3821SOL    HW111484   4.112   4.849   0.806
 3821SOL    HW211485   4.157   4.848   0.648
 3822SOL     OW11486   4.756   4.273   0.016
 3822SOL    HW111487   4.715   4.355  -0.023
 3822SOL    HW211488   4.820   4.299   0.089
 3823SOL     OW11489   3.802   4.280   1.386
 3823SOL    HW111490   3.894   4.279   1.345
 3823SOL    HW211491   3.796   4.354   1.453
 3824SOL     OW11492   4.285   3.946   1.147
 3824SOL    HW111493   4.323   3.862   1.184
 3824SOL    HW211494   4.197   3.965   1.191
 3825SOL     OW11495   4.590   4.178   0.642
 3825SOL    HW111496   4.558   4.250   0.580
 3825SOL    HW211497   4.614   4.097   0.589
 3826SOL     OW11498   4.741   3.763   0.753
 3826SOL    HW111499   4.669   3.768   0.684
 3826SOL    HW211500   4.717   3.694   0.822
 3827SOL     OW11501   4.251   3.980   0.328
 3827SOL    HW111502   4.278   3.921   0.253
 3827SOL    HW211503   4.251   4.075   0.297
 3828SOL     OW11504   4.639   3.813   1.402
 3828SOL    HW111505   4.664   3.793   1.307
 3828SOL    HW211506   4.711   3.869   1.444
 3829SOL     OW11507   4.704   4.840   1.719
 3829SOL    HW111508   4.605   4.846   1.729
 3829SOL    HW211509   4.727   4.760   1.663
 3830SOL     OW11510   4.429   4.774   0.368
 3830SOL    HW111511   4.415   4.781   0.467
 3830SOL    HW211512   4.513   4.723   0.350
 3831SOL     OW11513   4.134   4.537   1.251
 3831SOL    HW111514   4.220   4.549   1.301
 3831SOL    HW211515   4.092   4.450   1.278
 3832SOL     OW11516   4.091   4.824   0.501
 3832SOL    HW111517   4.084   4.907   0.445
 3832SOL    HW211518   4.095   4.744   0.441
 3833SOL     OW11519   4.290   4.261   0.865
 3833SOL    HW111520   4.302   4.327   0.791
 3833SOL    HW211521   4.336   4.295   0.948
 3834SOL     OW11522   4.126   4.475   1.598
 3834SOL    HW111523   4.194   4.530   1.551
 3834SOL    HW211524   4.166   4.387   1.625
 3835SOL     OW11525   4.737   3.829   1.770
 3835SOL    HW111526   4.743   3.914   1.718
 3835SOL    HW211527   4.769   3.753   1.713
 3836SOL     OW11528   4.228   3.774   1.740
 3836SOL    HW111529   4.186   3.717   1.670
 3836SOL    HW211530   4.162   3.843   1.772
 3837SOL     OW11531   4.297   4.594   1.029
 3837SOL    HW111532   4.341   4.683   1.020
 3837SOL    HW211533   4.234   4.594   1.106
 3838SOL     OW11534   5.084   4.586   1.045
 3838SOL    HW111535   5.009   4.586   0.979
 3838SOL    HW211536   5.121   4.494   1.054
 3839SOL     OW11537   4.933   4.249   0.275
 3839SOL    HW111538   4.946   4.165   0.329
 3839SOL    HW211539   4.904   4.323   0.335
 3840SOL     OW11540   4.031   3.937   1.231
 3840SOL    HW111541   4.008   3.974   1.321
 3840SOL    HW211542   4.001   3.842   1.225
 3841SOL     OW11543   4.456   4.358   1.064
 3841SOL    HW111544   4.515   4.332   0.988
 3841SOL    HW211545   4.428   4.454   1.053
 3842SOL     OW11546   4.031   3.787   0.618
 3842SOL    HW111547   4.020   3.881   0.651
 3842SOL    HW211548   4.026   3.724   0.695
 3843SOL     OW11549   4.747   4.490   0.966
 3843SOL    HW111550   4.762   4.511   1.062
 3843SOL    HW211551   4.717   4.395   0.957
 3844SOL     OW11552   4.074   4.622   1.804
 3844SOL    HW111553   4.150   4.666   1.852
 3844SOL    HW211554   4.109   4.575   1.722
 3845SOL     OW11555   4.043   4.534   0.949
 3845SOL    HW111556   4.136   4.570   0.954
 3845SOL    HW211557   4.037   4.449   1.001
 3846SOL     OW11558   4.063   4.233   1.006
 3846SOL    HW111559   4.011   4.150   0.989
 3846SOL    HW211560   4.140   4.238   0.942
 3847SOL     OW11561   4.862   4.104   1.678
 3847SOL    HW111562   4.817   4.167   1.742
 3847SOL    HW211563   4.955   4.135   1.661
 3848SOL     OW11564   4.884   3.931   1.477
 3848SOL    HW111565   4.884   3.995   1.554
 3848SOL    HW211566   4.912   3.979   1.394
 3849SOL     OW11567   4.726   4.520   1.238
 3849SOL    HW111568   4.767   4.488   1.324
 3849SOL    HW211569   4.630   4.493   1.235
 3850SOL     OW11570   3.764   4.268   1.114
 3850SOL    HW111571   3.849   4.235   1.073
 3850SOL    HW211572   3.777   4.283   1.212
 3851SOL     OW11573   3.913   4.244   1.722
 3851SOL    HW111574   3.972   4.204   1.652
 3851SOL    HW211575   3.855   4.315   1.681
 3852SOL     OW11576   4.539   4.296   0.325
 3852SOL    HW111577   4.546   4.207   0.279
 3852SOL    HW211578   4.445   4.330   0.317
 3853SOL     OW11579   4.395   4.188   1.269
 3853SOL    HW111580   4.361   4.099   1.239
 3853SOL    HW211581   4.421   4.242   1.189
 3854SOL     OW11582   4.197   4.224   0.191
 3854SOL    HW111583   4.258   4.304   0.195
 3854SOL    HW211584   4.102   4.255   0.198
 3855SOL     OW11585   3.883   4.861   1.466
 3855SOL    HW111586   3.905   4.800   1.542
 3855SOL    HW211587   3.893   4.812   1.380
 3856SOL     OW11588   4.627   3.810   0.133
 3856SOL    HW111589   4.678   3.811   0.047
 3856SOL    HW211590   4.683   3.768   0.204
 3857SOL     OW11591   3.987   4.050   0.720
 3857SOL    HW111592   3.908   4.101   0.686
 3857SOL    HW211593   3.978   4.035   0.818
 3858SOL     OW11594   4.546   4.726   1.372
 3858SOL    HW111595   4.586   4.725   1.280
 3858SOL    HW211596   4.556   4.818   1.412
 3859SOL     OW11597   4.640   4.634   0.291
 3859SOL    HW111598   4.703   4.672   0.223
 3859SOL    HW211599   4.680   4.551   0.330
 3860SOL     OW11600   4.096   5.012   1.490
 3860SOL    HW111601   4.083   5.105   1.456
 3860SOL    HW211602   4.012   4.960   1.477
 3861SOL     OW11603   4.763   4.822   0.696
 3861SOL    HW111604   4.693   4.775   0.750
 3861SOL    HW211605   4.822   4.754   0.653
 3862SOL     OW11606   4.738   3.960   0.971
 3862SOL    HW111607   4.730   3.924   0.878
 3862SOL    HW211608   4.736   3.884   1.036
 3863SOL     OW11609   3.829   4.737   1.726
 3863SOL    HW111610   3.752   4.704   1.780
 3863SOL    HW211611   3.914   4.707   1.768
 3864SOL     OW11612   4.396   3.927   1.489
 3864SOL    HW111613   4.486   3.911   1.449
 3864SOL    HW211614   4.404   3.932   1.588
 3865SOL     OW11615   3.796   3.890   0.318
 3865SOL    HW111616   3.779   3.973   0.264
 3865SOL    HW211617   3.886   3.853   0.296
 3866SOL     OW11618   4.337   4.566   1.431
 3866SOL    HW111619   4.393   4.647   1.414
 3866SOL    HW211620   4.396   4.486   1.434
 3867SOL     OW11621   4.440   4.289   1.708
 3867SOL    HW111622   4.459   4.354   1.782
 3867SOL    HW211623   4.500   4.209   1.717
 3868SOL     OW11624   4.318   4.469   0.652
 3868SOL    HW111625   4.368   4.554   0.633
 3868SOL    HW211626   4.230   4.471   0.604
 3869SOL     OW11627   4.583   4.680   0.861
 3869SOL    HW111628   4.637   4.611   0.909
 3869SOL    HW211629   4.551   4.749   0.927
 3870SOL     OW11630   4.807   4.708   0.087
 3870SOL    HW111631   4.784   4.761   0.005
 3870SOL    HW211632   4.888   4.652   0.068
 3871SOL     OW11633   3.803   4.964   0.653
 3871SOL    HW111634   3.802   4.917   0.741
 3871SOL    HW211635   3.885   4.936   0.602
 3872SOL     OW11636   4.152   4.148   0.520
 3872SOL    HW111637   4.182   4.076   0.458
 3872SOL    HW211638   4.113   4.108   0.603
 3873SOL     OW11639   4.041   4.271   1.280
 3873SOL    HW111640   4.079   4.212   1.352
 3873SOL    HW211641   4.081   4.245   1.192
 3874SOL     OW11642   4.725   3.758   1.154
 3874SOL    HW111643   4.662   3.686   1.123
 3874SOL    HW211644   4.818   3.722   1.154
 3875SOL     OW11645   4.494   5.054   0.301
 3875SOL    HW111646   4.448   4.967   0.318
 3875SOL    HW211647   4.585   5.051   0.342
 3876SOL     OW11648   5.076   3.776   0.168
 3876SOL    HW111649   5.111   3.735   0.084
 3876SOL    HW211650   4.986   3.738   0.188
 3877SOL     OW11651   3.954   4.352   1.975
 3877SOL    HW111652   3.861   4.350   2.012
 3877SOL    HW211653   3.955   4.313   1.883
 3878SOL     OW11654   3.949   3.999   2.858
 3878SOL    HW111655   3.984   3.982   2.950
 3878SOL    HW211656   3.861   3.954   2.846
 3879SOL     OW11657   3.743   4.092   2.509
 3879SOL    HW111658   3.661   4.135   2.548
 3879SOL    HW211659   3.715   4.019   2.446
 3880SOL     OW11660   4.859   4.427   2.579
 3880SOL    HW111661   4.916   4.505   2.554
 3880SOL    HW211662   4.799   4.453   2.655
 3881SOL     OW11663   4.492   4.868   2.885
 3881SOL    HW111664   4.414   4.885   2.945
 3881SOL    HW211665   4.526   4.955   2.849
 3882SOL     OW11666   4.574   4.522   3.685
 3882SOL    HW111667   4.570   4.598   3.750
 3882SOL    HW211668   4.596   4.558   3.594
 3883SOL     OW11669   4.409   4.736   2.527
 3883SOL    HW111670   4.478   4.720   2.597
 3883SOL    HW211671   4.336   4.793   2.565
 3884SOL     OW11672   4.410   4.885   3.665
 3884SOL    HW111673   4.470   4.964   3.679
 3884SOL    HW211674   4.324   4.916   3.624
 3885SOL     OW11675   4.162   4.116   3.361
 3885SOL    HW111676   4.244   4.060   3.370
 3885SOL    HW211677   4.081   4.058   3.365
 3886SOL     OW11678   3.964   4.815   2.748
 3886SOL    HW111679   3.978   4.731   2.800
 3886SOL    HW211680   3.909   4.879   2.803
 3887SOL     OW11681   4.330   4.688   1.985
 3887SOL    HW111682   4.337   4.772   1.931
 3887SOL    HW211683   4.376   4.701   2.073
 3888SOL     OW11684   3.846   4.367   2.425
 3888SOL    HW111685   3.801   4.279   2.442
 3888SOL    HW211686   3.845   4.421   2.509
 3889SOL     OW11687   3.837   4.461   3.459
 3889SOL    HW111688   3.925   4.448   3.504
 3889SOL    HW211689   3.824   4.558   3.437
 3890SOL     OW11690   4.337   5.089   2.588
 3890SOL    HW111691   4.288   5.002   2.597
 3890SOL    HW211692   4.314   5.132   2.501
 3891SOL     OW11693   4.533   3.728   2.364
 3891SOL    HW111694   4.573   3.819   2.355
 3891SOL    HW211695   4.433   3.736   2.370
 3892SOL     OW11696   3.921   4.700   3.126
 3892SOL    HW111697   4.010   4.655   3.112
 3892SOL    HW211698   3.848   4.635   3.107
 3893SOL     OW11699   4.041   3.975   3.663
 3893SOL    HW111700   4.112   4.046   3.669
 3893SOL    HW211701   3.953   4.014   3.691
 3894SOL     OW11702   4.322   4.453   2.132
 3894SOL    HW111703   4.346   4.522   2.064
 3894SOL    HW211704   4.244   4.486   2.186
 3895SOL     OW11705   4.531   4.329   3.327
 3895SOL    HW111706   4.484   4.326   3.416
 3895SOL    HW211707   4.480   4.274   3.261
 3896SOL     OW11708   4.697   4.614   3.434
 3896SOL    HW111709   4.743   4.530   3.405
 3896SOL    HW211710   4.641   4.648   3.359
 3897SOL     OW11711   4.715   4.134   3.104
 3897SOL    HW111712   4.638   4.168   3.158
 3897SOL    HW211713   4.681   4.083   3.025
 3898SOL     OW11714   4.765   4.425   2.291
 3898SOL    HW111715   4.791   4.421   2.387
 3898SOL    HW211716   4.680   4.374   2.277
 3899SOL     OW11717   3.800   4.535   2.651
 3899SOL    HW111718   3.899   4.523   2.660
 3899SOL    HW211719   3.776   4.630   2.672
 3900SOL     OW11720   4.589   4.072   2.057
 3900SOL    HW111721   4.648   4.135   2.008
 3900SOL    HW211722   4.608   3.978   2.028
 3901SOL     OW11723   4.274   3.920   2.747
 3901SOL    HW111724   4.269   3.915   2.847
 3901SOL    HW211725   4.276   4.016   2.718
 3902SOL     OW11726   4.045   4.667   2.104
 3902SOL    HW111727   4.127   4.706   2.062
 3902SOL    HW211728   4.018   4.585   2.055
 3903SOL     OW11729   3.926   4.009   3.360
 3903SOL    HW111730   3.846   4.069   3.347
 3903SOL    HW211731   3.916   3.960   3.446
 3904SOL     OW11732   4.106   4.424   2.342
 3904SOL    HW111733   4.151   4.334   2.339
 3904SOL    HW211734   4.012   4.413   2.375
 3905SOL     OW11735   4.338   3.846   1.979
 3905SOL    HW111736   4.436   3.824   1.986
 3905SOL    HW211737   4.307   3.829   1.886
 3906SOL     OW11738   4.505   3.988   3.611
 3906SOL    HW111739   4.572   3.927   3.654
 3906SOL    HW211740   4.432   4.007   3.676
 3907SOL     OW11741   4.646   4.227   2.761
 3907SOL    HW111742   4.621   4.218   2.665
 3907SOL    HW211743   4.694   4.145   2.792
 3908SOL     OW11744   4.263   3.788   2.374
 3908SOL    HW111745   4.182   3.789   2.432
 3908SOL    HW211746   4.266   3.871   2.319
 3909SOL     OW11747   4.021   3.759   2.033
 3909SOL    HW111748   4.070   3.843   2.012
 3909SOL    HW211749   4.083   3.694   2.078
 3910SOL     OW11750   4.659   3.960   2.342
 3910SOL    HW111751   4.611   4.001   2.264
 3910SOL    HW211752   4.758   3.958   2.323
 3911SOL     OW11753   4.800   4.407   3.326
 3911SOL    HW111754   4.720   4.346   3.329
 3911SOL    HW211755   4.881   4.354   3.302
 3912SOL     OW11756   4.183   4.876   2.603
 3912SOL    HW111757   4.112   4.849   2.668
 3912SOL    HW211758   4.157   4.848   2.510
 3913SOL     OW11759   4.756   4.273   1.878
 3913SOL    HW111760   4.715   4.355   1.839
 3913SOL    HW211761   4.820   4.299   1.951
 3914SOL     OW11762   3.802   4.280   3.248
 3914SOL    HW111763   3.894   4.279   3.207
 3914SOL    HW211764   3.796   4.354   3.315
 3915SOL     OW11765   4.285   3.946   3.009
 3915SOL    HW111766   4.323   3.862   3.046
 3915SOL    HW211767   4.197   3.965   3.053
 3916SOL     OW11768   4.590   4.178   2.504
 3916SOL    HW111769   4.558   4.250   2.442
 3916SOL    HW211770   4.614   4.097   2.451
 3917SOL     OW11771   4.741   3.763   2.615
 3917SOL    HW111772   4.669   3.768   2.546
 3917SOL    HW211773   4.717   3.694   2.684
 3918SOL     OW11774   4.251   3.980   2.190
 3918SOL    HW111775   4.278   3.921   2.115
 3918SOL    HW211776   4.251   4.075   2.159
 3919SOL     OW11777   4.639   3.813   3.264
 3919SOL    HW111778   4.664   3.793   3.169
 3919SOL    HW211779   4.711   3.869   3.306
 3920SOL     OW11780   4.704   4.840   3.581
 3920SOL    HW111781   4.605   4.846   3.591
 3920SOL    HW211782   4.727   4.760   3.525
 3921SOL     OW11783   4.429   4.774   2.230
 3921SOL    HW111784   4.415   4.781   2.329
 3921SOL    HW211785   4.513   4.723   2.212
 3922SOL     OW11786   4.134   4.537   3.113
 3922SOL    HW111787   4.220   4.549   3.163
 3922SOL    HW211788   4.092   4.450   3.140
 3923SOL     OW11789   4.091   4.824   2.363
 3923SOL    HW111790   4.084   4.907   2.307
 3923SOL    HW211791   4.095   4.744   2.303
 3924SOL     OW11792   4.290   4.261   2.727
 3924SOL    HW111793   4.302   4.327   2.653
 3924SOL    HW211794   4.336   4.295   2.810
 3925SOL     OW11795   4.126   4.475   3.460
 3925SOL    HW111796   4.194   4.530   3.413
 3925SOL    HW211797   4.166   4.387   3.487
 3926SOL     OW11798   4.737   3.829   3.632
 3926SOL    HW111799   4.743   3.914   3.580
 3926SOL    HW211800   4.769   3.753   3.575
 3927SOL     OW11801   4.228   3.774   3.602
 3927SOL    HW111802   4.186   3.717   3.532
 3927SOL    HW211803   4.162   3.843   3.634
 3928SOL     OW11804   4.297   4.594   2.891
 3928SOL    HW111805   4.341   4.683   2.882
 3928SOL    HW211806   4.234   4.594   2.968
 3929SOL     OW11807   5.084   4.586   2.907
 3929SOL    HW111808   5.009   4.586   2.841
 3929SOL    HW211809   5.121   4.494   2.916
 3930SOL     OW11810   4.933   4.249   2.137
 3930SOL    HW111811   4.946   4.165   2.191
 3930SOL    HW211812   4.904   4.323   2.197
 3931SOL     OW11813   4.031   3.937   3.093
 3931SOL    HW111814   4.008   3.974   3.183
 3931SOL    HW211815   4.001   3.842   3.087
 3932SOL     OW11816   4.456   4.358   2.926
 3932SOL    HW111817   4.515   4.332   2.850
 3932SOL    HW211818   4.428   4.454   2.915
 3933SOL     OW11819   4.031   3.787   2.480
 3933SOL    HW111820   4.020   3.881   2.513
 3933SOL    HW211821   4.026   3.724   2.557
 3934SOL     OW11822   4.747   4.490   2.828
 3934SOL    HW111823   4.762   4.511   2.924
 3934SOL    HW211824   4.717   4.395   2.819
 3935SOL     OW11825   4.074   4.622   3.666
 3935SOL    HW111826   4.150   4.666   3.714
 3935SOL    HW211827   4.109   4.575   3.584
 3936SOL     OW11828   5.264   3.998   1.987
 3936SOL    HW111829   5.203   3.923   2.010
 3936SOL    HW211830   5.286   4.050   2.070
 3937SOL     OW11831   4.043   4.534   2.811
 3937SOL    HW111832   4.136   4.570   2.816
 3937SOL    HW211833   4.037   4.449   2.863
 3938SOL     OW11834   4.063   4.233   2.868
 3938SOL    HW111835   4.011   4.150   2.851
 3938SOL    HW211836   4.140   4.238   2.804
 3939SOL     OW11837   4.862   4.104   3.540
 3939SOL    HW111838   4.817   4.167   3.604
 3939SOL    HW211839   4.955   4.135   3.523
 3940SOL     OW11840   4.884   3.931   3.339
 3940SOL    HW111841   4.884   3.995   3.416
 3940SOL    HW211842   4.912   3.979   3.256
 3941SOL     OW11843   4.726   4.520   3.100
 3941SOL    HW111844   4.767   4.488   3.186
 3941SOL    HW211845   4.630   4.493   3.097
 3942SOL     OW11846   3.764   4.268   2.976
 3942SOL    HW111847   3.849   4.235   2.935
 3942SOL    HW211848   3.777   4.283   3.074
 3943SOL     OW11849   3.913   4.244   3.584
 3943SOL    HW111850   3.972   4.204   3.514
 3943SOL    HW211851   3.855   4.315   3.543
 3944SOL     OW11852   4.539   4.296   2.187
 3944SOL    HW111853   4.546   4.207   2.141
 3944SOL    HW211854   4.445   4.330   2.179
 3945SOL     OW11855   4.395   4.188   3.131
 3945SOL    HW111856   4.361   4.099   3.101
 3945SOL    HW211857   4.421   4.242   3.051
 3946SOL     OW11858   4.197   4.224   2.053
 3946SOL    HW111859   4.258   4.304   2.057
 3946SOL    HW211860   4.102   4.255   2.060
 3947SOL     OW11861   3.883   4.861   3.328
 3947SOL    HW111862   3.905   4.800   3.404
 3947SOL    HW211863   3.893   4.812   3.242
 3948SOL     OW11864   3.987   4.050   2.582
 3948SOL    HW111865   3.908   4.101   2.548
 3948SOL    HW211866   3.978   4.035   2.680
 3949SOL     OW11867   4.546   4.726   3.234
 3949SOL    HW111868   4.586   4.725   3.142
 3949SOL    HW211869   4.556   4.818   3.274
 3950SOL     OW11870   4.640   4.634   2.153
 3950SOL    HW111871   4.703   4.672   2.085
 3950SOL    HW211872   4.680   4.551   2.192
 3951SOL     OW11873   4.096   5.012   3.352
 3951SOL    HW111874   4.083   5.105   3.318
 3951SOL    HW211875   4.012   4.960   3.339
 3952SOL     OW11876   4.763   4.822   2.558
 3952SOL    HW111877   4.693   4.775   2.612
 3952SOL    HW211878   4.822   4.754   2.515
 3953SOL     OW11879   4.738   3.960   2.833
 3953SOL    HW111880   4.730   3.924   2.740
 3953SOL    HW211881   4.736   3.884   2.898
 3954SOL     OW11882   3.829   4.737   3.588
 3954SOL    HW111883   3.752   4.704   3.642
 3954SOL    HW211884   3.914   4.707   3.630
 3955SOL     OW11885   4.396   3.927   3.351
 3955SOL    HW111886   4.486   3.911   3.311
 3955SOL    HW211887   4.404   3.932   3.450
 3956SOL     OW11888   3.799   4.069   1.895
 3956SOL    HW111889   3.707   4.041   1.866
 3956SOL    HW211890   3.830   4.146   1.839
 3957SOL     OW11891   3.796   3.890   2.180
 3957SOL    HW111892   3.779   3.973   2.126
 3957SOL    HW211893   3.886   3.853   2.158
 3958SOL     OW11894   4.337   4.566   3.293
 3958SOL    HW111895   4.393   4.647   3.276
 3958SOL    HW211896   4.396   4.486   3.296
 3959SOL     OW11897   4.440   4.289   3.570
 3959SOL    HW111898   4.459   4.354   3.644
 3959SOL    HW211899   4.500   4.209   3.579
 3960SOL     OW11900   4.318   4.469   2.514
 3960SOL    HW111901   4.368   4.554   2.495
 3960SOL    HW211902   4.230   4.471   2.466
 3961SOL     OW11903   4.583   4.680   2.723
 3961SOL    HW111904   4.637   4.611   2.771
 3961SOL    HW211905   4.551   4.749   2.789
 3962SOL     OW11906   4.807   4.708   1.949
 3962SOL    HW111907   4.784   4.761   1.867
 3962SOL    HW211908   4.888   4.652   1.930
 3963SOL     OW11909   3.803   4.964   2.515
 3963SOL    HW111910   3.802   4.917   2.603
 3963SOL    HW211911   3.885   4.936   2.464
 3964SOL     OW11912   4.152   4.148   2.382
 3964SOL    HW111913   4.182   4.076   2.320
 3964SOL    HW211914   4.113   4.108   2.465
 3965SOL     OW11915   4.041   4.271   3.142
 3965SOL    HW111916   4.079   4.212   3.214
 3965SOL    HW211917   4.081   4.245   3.054
 3966SOL     OW11918   4.725   3.758   3.016
 3966SOL    HW111919   4.662   3.686   2.985
 3966SOL    HW211920   4.818   3.722   3.016
 3967SOL     OW11921   4.494   5.054   2.163
 3967SOL    HW111922   4.448   4.967   2.180
 3967SOL    HW211923   4.585   5.051   2.204
 3968SOL     OW11924   3.763   4.801   2.162
 3968SOL    HW111925   3.862   4.790   2.153
 3968SOL    HW211926   3.723   4.715   2.194
 3969SOL     OW11927   3.954   4.352   3.837
 3969SOL    HW111928   3.861   4.350   3.874
 3969SOL    HW211929   3.955   4.313   3.745
 3970SOL     OW11930   3.949   3.999   4.720
 3970SOL    HW111931   3.984   3.982   4.812
 3970SOL    HW211932   3.861   3.954   4.708
 3971SOL     OW11933   3.743   4.092   4.371
 3971SOL    HW111934   3.661   4.135   4.410
 3971SOL    HW211935   3.715   4.019   4.308
 3972SOL     OW11936   4.859   4.427   4.441
 3972SOL    HW111937   4.916   4.505   4.416
 3972SOL    HW211938   4.799   4.453   4.517
 3973SOL     OW11939   4.492   4.868   4.747
 3973SOL    HW111940   4.414   4.885   4.807
 3973SOL    HW211941   4.526   4.955   4.711
 3974SOL     OW11942   4.409   4.736   4.389
 3974SOL    HW111943   4.478   4.720   4.459
 3974SOL    HW211944   4.336   4.793   4.427
 3975SOL     OW11945   3.964   4.815   4.610
 3975SOL    HW111946   3.978   4.731   4.662
 3975SOL    HW211947   3.909   4.879   4.665
 3976SOL     OW11948   4.330   4.688   3.847
 3976SOL    HW111949   4.337   4.772   3.793
 3976SOL    HW211950   4.376   4.701   3.935
 3977SOL     OW11951   3.846   4.367   4.287
 3977SOL    HW111952   3.801   4.279   4.304
 3977SOL    HW211953   3.845   4.421   4.371
 3978SOL     OW11954   4.337   5.089   4.450
 3978SOL    HW111955   4.288   5.002   4.459
 3978SOL    HW211956   4.314   5.132   4.363
 3979SOL     OW11957   4.533   3.728   4.226
 3979SOL    HW111958   4.573   3.819   4.217
 3979SOL    HW211959   4.433   3.736   4.232
 3980SOL     OW11960   3.921   4.700   4.988
 3980SOL    HW111961   4.010   4.655   4.974
 3980SOL    HW211962   3.848   4.635   4.969
 3981SOL     OW11963   4.322   4.453   3.994
 3981SOL    HW111964   4.346   4.522   3.926
 3981SOL    HW211965   4.244   4.486   4.048
 3982SOL     OW11966   4.765   4.425   4.153
 3982SOL    HW111967   4.791   4.421   4.249
 3982SOL    HW211968   4.680   4.374   4.139
 3983SOL     OW11969   3.800   4.535   4.513
 3983SOL    HW111970   3.899   4.523   4.522
 3983SOL    HW211971   3.776   4.630   4.534
 3984SOL     OW11972   4.589   4.072   3.919
 3984SOL    HW111973   4.648   4.135   3.870
 3984SOL    HW211974   4.608   3.978   3.890
 3985SOL     OW11975   4.274   3.920   4.609
 3985SOL    HW111976   4.269   3.915   4.709
 3985SOL    HW211977   4.276   4.016   4.580
 3986SOL     OW11978   4.045   4.667   3.966
 3986SOL    HW111979   4.127   4.706   3.924
 3986SOL    HW211980   4.018   4.585   3.917
 3987SOL     OW11981   4.106   4.424   4.204
 3987SOL    HW111982   4.151   4.334   4.201
 3987SOL    HW211983   4.012   4.413   4.237
 3988SOL     OW11984   4.338   3.846   3.841
 3988SOL    HW111985   4.436   3.824   3.848
 3988SOL    HW211986   4.307   3.829   3.748
 3989SOL     OW11987   4.646   4.227   4.623
 3989SOL    HW111988   4.621   4.218   4.527
 3989SOL    HW211989   4.694   4.145   4.654
 3990SOL     OW11990   4.263   3.788   4.236
 3990SOL    HW111991   4.182   3.789   4.294
 3990SOL    HW211992   4.266   3.871   4.181
 3991SOL     OW11993   4.021   3.759   3.895
 3991SOL    HW111994   4.070   3.843   3.874
 3991SOL    HW211995   4.083   3.694   3.940
 3992SOL     OW11996   4.659   3.960   4.204
 3992SOL    HW111997   4.611   4.001   4.126
 3992SOL    HW211998   4.758   3.958   4.185
 3993SOL     OW11999   4.183   4.876   4.465
 3993SOL    HW112000   4.112   4.849   4.530
 3993SOL    HW212001   4.157   4.848   4.372
 3994SOL     OW12002   4.756   4.273   3.740
 3994SOL    HW112003   4.715   4.355   3.701
 3994SOL    HW212004   4.820   4.299   3.813
 3995SOL     OW12005   4.590   4.178   4.366
 3995SOL    HW112006   4.558   4.250   4.304
 3995SOL    HW212007   4.614   4.097   4.313
 3996SOL     OW12008   4.741   3.763   4.477
 3996SOL    HW112009   4.669   3.768   4.408
 3996SOL    HW212010   4.717   3.694   4.546
 3997SOL     OW12011   4.251   3.980   4.052
 3997SOL    HW112012   4.278   3.921   3.977
 3997SOL    HW212013   4.251   4.075   4.021
 3998SOL     OW12014   4.429   4.774   4.092
 3998SOL    HW112015   4.415   4.781   4.191
 3998SOL    HW212016   4.513   4.723   4.074
 3999SOL     OW12017   4.134   4.537   4.975
 3999SOL    HW112018   4.220   4.549   5.025
 3999SOL    HW212019   4.092   4.450   5.002
 4000SOL     OW12020   4.091   4.824   4.225
 4000SOL    HW112021   4.084   4.907   4.169
 4000SOL    HW212022   4.095   4.744   4.165
 4001SOL     OW12023   4.290   4.261   4.589
 4001SOL    HW112024   4.302   4.327   4.515
 4001SOL    HW212025   4.336   4.295   4.672
 4002SOL     OW12026   4.297   4.594   4.753
 4002SOL    HW112027   4.341   4.683   4.744
 4002SOL    HW212028   4.234   4.594   4.830
 4003SOL     OW12029   5.084   4.586   4.769
 4003SOL    HW112030   5.009   4.586   4.703
 4003SOL    HW212031   5.121   4.494   4.778
 4004SOL     OW12032   4.933   4.249   3.999
 4004SOL    HW112033   4.946   4.165   4.053
 4004SOL    HW212034   4.904   4.323   4.059
 4005SOL     OW12035   4.031   3.937   4.955
 4005SOL    HW112036   4.008   3.974   5.045
 4005SOL    HW212037   4.001   3.842   4.949
 4006SOL     OW12038   4.456   4.358   4.788
 4006SOL    HW112039   4.515   4.332   4.712
 4006SOL    HW212040   4.428   4.454   4.777
 4007SOL     OW12041   4.031   3.787   4.342
 4007SOL    HW112042   4.020   3.881   4.375
 4007SOL    HW212043   4.026   3.724   4.419
 4008SOL     OW12044   4.747   4.490   4.690
 4008SOL    HW112045   4.762   4.511   4.786
 4008SOL    HW212046   4.717   4.395   4.681
 4009SOL     OW12047   5.264   3.998   3.849
 4009SOL    HW112048   5.203   3.923   3.872
 4009SOL    HW212049   5.286   4.050   3.932
 4010SOL     OW12050   4.043   4.534   4.673
 4010SOL    HW112051   4.136   4.570   4.678
 4010SOL    HW212052   4.037   4.449   4.725
 4011SOL     OW12053   4.063   4.233   4.730
 4011SOL    HW112054   4.011   4.150   4.713
 4011SOL    HW212055   4.140   4.238   4.666
 4012SOL     OW12056   4.884   3.931   5.201
 4012SOL    HW112057   4.884   3.995   5.278
 4012SOL    HW212058   4.912   3.979   5.118
 4013SOL     OW12059   4.726   4.520   4.962
 4013SOL    HW112060   4.767   4.488   5.048
 4013SOL    HW212061   4.630   4.493   4.959
 4014SOL     OW12062   3.764   4.268   4.838
 4014SOL    HW112063   3.849   4.235   4.797
 4014SOL    HW212064   3.777   4.283   4.936
 4015SOL     OW12065   4.539   4.296   4.049
 4015SOL    HW112066   4.546   4.207   4.003
 4015SOL    HW212067   4.445   4.330   4.041
 4016SOL     OW12068   4.395   4.188   4.993
 4016SOL    HW112069   4.361   4.099   4.963
 4016SOL    HW212070   4.421   4.242   4.913
 4017SOL     OW12071   4.197   4.224   3.915
 4017SOL    HW112072   4.258   4.304   3.919
 4017SOL    HW212073   4.102   4.255   3.922
 4018SOL     OW12074   3.883   4.861   5.190
 4018SOL    HW112075   3.905   4.800   5.266
 4018SOL    HW212076   3.893   4.812   5.104
 4019SOL     OW12077   3.987   4.050   4.444
 4019SOL    HW112078   3.908   4.101   4.410
 4019SOL    HW212079   3.978   4.035   4.542
 4020SOL     OW12080   4.546   4.726   5.096
 4020SOL    HW112081   4.586   4.725   5.004
 4020SOL    HW212082   4.556   4.818   5.136
 4021SOL     OW12083   4.640   4.634   4.015
 4021SOL    HW112084   4.703   4.672   3.947
 4021SOL    HW212085   4.680   4.551   4.054
 4022SOL     OW12086   4.763   4.822   4.420
 4022SOL    HW112087   4.693   4.775   4.474
 4022SOL    HW212088   4.822   4.754   4.377
 4023SOL     OW12089   4.738   3.960   4.695
 4023SOL    HW112090   4.730   3.924   4.602
 4023SOL    HW212091   4.736   3.884   4.760
 4024SOL     OW12092   3.799   4.069   3.757
 4024SOL    HW112093   3.707   4.041   3.728
 4024SOL    HW212094   3.830   4.146   3.701
 4025SOL     OW12095   3.796   3.890   4.042
 4025SOL    HW112096   3.779   3.973   3.988
 4025SOL    HW212097   3.886   3.853   4.020
 4026SOL     OW12098   4.318   4.469   4.376
 4026SOL    HW112099   4.368   4.554   4.357
 4026SOL    HW212100   4.230   4.471   4.328
 4027SOL     OW12101   4.583   4.680   4.585
 4027SOL    HW112102   4.637   4.611   4.633
 4027SOL    HW212103   4.551   4.749   4.651
 4028SOL     OW12104   4.807   4.708   3.811
 4028SOL    HW112105   4.784   4.761   3.729
 4028SOL    HW212106   4.888   4.652   3.792
 4029SOL     OW12107   3.803   4.964   4.377
 4029SOL    HW112108   3.802   4.917   4.465
 4029SOL    HW212109   3.885   4.936   4.326
 4030SOL     OW12110   4.152   4.148   4.244
 4030SOL    HW112111   4.182   4.076   4.182
 4030SOL    HW212112   4.113   4.108   4.327
 4031SOL     OW12113   4.725   3.758   4.878
 4031SOL    HW112114   4.662   3.686   4.847
 4031SOL    HW212115   4.818   3.722   4.878
 4032SOL     OW12116   4.494   5.054   4.025
 4032SOL    HW112117   4.448   4.967   4.042
 4032SOL    HW212118   4.585   5.051   4.066
 4033SOL     OW12119   3.763   4.801   4.024
 4033SOL    HW112120   3.862   4.790   4.015
 4033SOL    HW212121   3.723   4.715   4.056
   4.98733   4.98733   4.98733
