mobley_718988_GMX.gro created by acpype (v: 2023.10.27) on Wed May 20 23:51:48 2026
   25
    1MOL     C1    1   2.653   2.773   2.769
    1MOL     C2    2   2.603   2.634   2.732
    1MOL     C3    3   2.558   2.627   2.586
    1MOL     C4    4   2.505   2.488   2.551
    1MOL     C5    5   2.458   2.476   2.406
    1MOL     C6    6   2.412   2.335   2.369
    1MOL     C7    7   2.363   2.329   2.224
    1MOL     N1    8   2.320   2.194   2.190
    1MOL     H1    9   2.738   2.802   2.707
    1MOL     H2   10   2.574   2.848   2.755
    1MOL     H3   11   2.684   2.776   2.874
    1MOL     H4   12   2.683   2.562   2.751
    1MOL     H5   13   2.519   2.608   2.798
    1MOL     H6   14   2.643   2.652   2.521
    1MOL     H7   15   2.481   2.703   2.569
    1MOL     H8   16   2.585   2.414   2.567
    1MOL     H9   17   2.423   2.462   2.619
    1MOL    H10   18   2.377   2.547   2.387
    1MOL    H11   19   2.541   2.504   2.340
    1MOL    H12   20   2.495   2.264   2.382
    1MOL    H13   21   2.331   2.303   2.435
    1MOL    H14   22   2.278   2.398   2.210
    1MOL    H15   23   2.442   2.360   2.156
    1MOL    H16   24   2.267   2.155   2.268
    1MOL    H17   25   2.402   2.135   2.178
   4.98733   4.98733   4.98733
