mobley_7988076_GMX.gro created by acpype (v: 2023.10.27) on Wed May 20 23:52:15 2026
   15
    1MOL     C1    1   2.242   2.396   2.297
    1MOL     C2    2   2.454   2.280   2.303
    1MOL     C3    3   2.240   2.399   2.437
    1MOL     C4    4   2.452   2.283   2.442
    1MOL     C5    5   2.349   2.337   2.230
    1MOL     C6    6   2.345   2.343   2.509
    1MOL     C7    7   2.351   2.333   2.085
    1MOL     O1    8   2.442   2.282   2.020
    1MOL     O2    9   2.343   2.346   2.645
    1MOL     H1   10   2.159   2.440   2.242
    1MOL     H2   11   2.537   2.233   2.252
    1MOL     H3   12   2.156   2.446   2.489
    1MOL     H4   13   2.534   2.239   2.498
    1MOL     H5   14   2.264   2.379   2.032
    1MOL     H6   15   2.278   2.412   2.674
   4.68667   4.68667   4.68667
