mobley_7988076_GMX.gro created by acpype (v: 2023.10.27) on Wed May 20 23:52:15 2026
 9996
    1MOL     C1    1   2.242   2.396   2.297
    1MOL     C2    2   2.454   2.280   2.303
    1MOL     C3    3   2.240   2.399   2.437
    1MOL     C4    4   2.452   2.283   2.442
    1MOL     C5    5   2.349   2.337   2.230
    1MOL     C6    6   2.345   2.343   2.509
    1MOL     C7    7   2.351   2.333   2.085
    1MOL     O1    8   2.442   2.282   2.020
    1MOL     O2    9   2.343   2.346   2.645
    1MOL     H1   10   2.159   2.440   2.242
    1MOL     H2   11   2.537   2.233   2.252
    1MOL     H3   12   2.156   2.446   2.489
    1MOL     H4   13   2.534   2.239   2.498
    1MOL     H5   14   2.264   2.379   2.032
    1MOL     H6   15   2.278   2.412   2.674
    2SOL     OW   16   0.230   0.628   0.113
    2SOL    HW1   17   0.137   0.626   0.150
    2SOL    HW2   18   0.231   0.589   0.021
    3SOL     OW   19   0.225   0.275   0.996
    3SOL    HW1   20   0.260   0.258   1.088
    3SOL    HW2   21   0.137   0.230   0.984
    4SOL     OW   22   0.019   0.368   0.647
    4SOL    HW1   23  -0.063   0.411   0.686
    4SOL    HW2   24  -0.009   0.295   0.584
    5SOL     OW   25   0.569   1.275   1.165
    5SOL    HW1   26   0.476   1.268   1.128
    5SOL    HW2   27   0.580   1.364   1.209
    6SOL     OW   28   1.555   1.511   0.703
    6SOL    HW1   29   1.498   1.495   0.784
    6SOL    HW2   30   1.496   1.521   0.623
    7SOL     OW   31   1.135   0.703   0.717
    7SOL    HW1   32   1.192   0.781   0.692
    7SOL    HW2   33   1.075   0.729   0.793
    8SOL     OW   34   1.755   0.607   0.231
    8SOL    HW1   35   1.743   0.594   0.132
    8SOL    HW2   36   1.725   0.526   0.280
    9SOL     OW   37   0.768   1.144   1.023
    9SOL    HW1   38   0.690   1.161   1.083
    9SOL    HW2   39   0.802   1.231   0.987
   10SOL     OW   40   0.850   0.798   1.823
   10SOL    HW1   41   0.846   0.874   1.888
   10SOL    HW2   42   0.872   0.834   1.732
   11SOL     OW   43   0.685   1.012   0.665
   11SOL    HW1   44   0.754   0.996   0.735
   11SOL    HW2   45   0.612   1.069   0.703
   12SOL     OW   46   0.686   1.161   1.803
   12SOL    HW1   47   0.746   1.240   1.817
   12SOL    HW2   48   0.600   1.192   1.762
   13SOL     OW   49   0.335   1.435   1.061
   13SOL    HW1   50   0.257   1.404   1.008
   13SOL    HW2   51   0.393   1.493   1.004
   14SOL     OW   52   1.460   1.505   1.339
   14SOL    HW1   53   1.484   1.599   1.365
   14SOL    HW2   54   1.444   1.451   1.421
   15SOL     OW   55   0.438   0.392   1.499
   15SOL    HW1   56   0.520   0.336   1.508
   15SOL    HW2   57   0.357   0.334   1.503
   16SOL     OW   58   1.603   0.447   0.737
   16SOL    HW1   59   1.529   0.493   0.687
   16SOL    HW2   60   1.654   0.515   0.790
   17SOL     OW   61   0.231   1.713   0.483
   17SOL    HW1   62   0.265   1.790   0.537
   17SOL    HW2   63   0.275   1.713   0.393
   18SOL     OW   64   1.127   1.341   1.690
   18SOL    HW1   65   1.174   1.341   1.778
   18SOL    HW2   66   1.079   1.254   1.679
   19SOL     OW   67   0.230   1.434   0.538
   19SOL    HW1   68   0.204   1.530   0.538
   19SOL    HW2   69   0.159   1.380   0.583
   20SOL     OW   70   0.240   1.091   0.886
   20SOL    HW1   71   0.254   1.007   0.938
   20SOL    HW2   72   0.185   1.155   0.941
   21SOL     OW   73   0.620   1.786   1.439
   21SOL    HW1   74   0.528   1.769   1.474
   21SOL    HW2   75   0.648   1.878   1.465
   22SOL     OW   76   0.606   0.964   0.123
   22SOL    HW1   77   0.613   1.048   0.069
   22SOL    HW2   78   0.652   0.977   0.211
   23SOL     OW   79   1.594   0.114   1.480
   23SOL    HW1   80   1.576   0.181   1.408
   23SOL    HW2   81   1.591   0.160   1.569
   24SOL     OW   82   0.122   0.643   0.563
   24SOL    HW1   83   0.077   0.555   0.580
   24SOL    HW2   84   0.121   0.697   0.647
   25SOL     OW   85   1.842   1.767   0.359
   25SOL    HW1   86   1.896   1.738   0.439
   25SOL    HW2   87   1.872   1.857   0.330
   26SOL     OW   88   0.027   1.596   0.117
   26SOL    HW1   89   0.008   1.500   0.138
   26SOL    HW2   90  -0.006   1.654   0.192
   27SOL     OW   91   1.689   0.922   0.612
   27SOL    HW1   92   1.784   0.893   0.620
   27SOL    HW2   93   1.681   0.987   0.537
   28SOL     OW   94   1.641   1.108   0.432
   28SOL    HW1   95   1.727   1.110   0.380
   28SOL    HW2   96   1.655   1.155   0.520
   29SOL     OW   97   0.113   0.737   1.597
   29SOL    HW1   98   0.201   0.724   1.642
   29SOL    HW2   99   0.100   0.834   1.575
   30SOL     OW  100   0.613   1.365   0.726
   30SOL    HW1  101   0.564   1.278   0.735
   30SOL    HW2  102   0.590   1.408   0.639
   31SOL     OW  103   1.293   1.228   1.423
   31SOL    HW1  104   1.330   1.155   1.365
   31SOL    HW2  105   1.345   1.233   1.508
   32SOL     OW  106   0.809   0.004   0.502
   32SOL    HW1  107   0.849   0.095   0.493
   32SOL    HW2  108   0.709   0.012   0.508
   33SOL     OW  109   0.197   0.976   1.264
   33SOL    HW1  110   0.286   0.931   1.250
   33SOL    HW2  111   0.124   0.911   1.245
   34SOL     OW  112   1.525   0.999   0.190
   34SOL    HW1  113   1.462   0.923   0.203
   34SOL    HW2  114   1.573   1.017   0.276
   35SOL     OW  115   1.187   1.792   1.616
   35SOL    HW1  116   1.211   1.852   1.540
   35SOL    HW2  117   1.194   1.697   1.586
   36SOL     OW  118   0.317   0.251   1.801
   36SOL    HW1  119   0.388   0.322   1.807
   36SOL    HW2  120   0.229   0.290   1.829
   37SOL     OW  121   1.466   1.417   0.953
   37SOL    HW1  122   1.407   1.423   1.033
   37SOL    HW2  123   1.451   1.329   0.907
   38SOL     OW  124   1.667   1.714   0.572
   38SOL    HW1  125   1.626   1.691   0.484
   38SOL    HW2  126   1.649   1.640   0.637
   39SOL     OW  127   0.598   0.729   0.270
   39SOL    HW1  128   0.622   0.798   0.202
   39SOL    HW2  129   0.520   0.762   0.324
   40SOL     OW  130   1.281   0.345   0.944
   40SOL    HW1  131   1.195   0.295   0.931
   40SOL    HW2  132   1.343   0.291   1.000
   41SOL     OW  133   1.576   1.662   0.307
   41SOL    HW1  134   1.665   1.708   0.310
   41SOL    HW2  135   1.555   1.638   0.212
   42SOL     OW  136   0.807   0.605   1.465
   42SOL    HW1  137   0.760   0.602   1.554
   42SOL    HW2  138   0.756   0.550   1.399
   43SOL     OW  139   1.394   0.469   1.674
   43SOL    HW1  140   1.374   0.512   1.762
   43SOL    HW2  141   1.472   0.407   1.683
   44SOL     OW  142   0.973   0.890   1.572
   44SOL    HW1  143   1.019   0.806   1.543
   44SOL    HW2  144   0.917   0.924   1.497
   45SOL     OW  145   0.991   0.410   1.242
   45SOL    HW1  146   0.914   0.444   1.296
   45SOL    HW2  147   0.957   0.359   1.163
   46SOL     OW  148   1.041   0.701   0.429
   46SOL    HW1  149   1.067   0.697   0.525
   46SOL    HW2  150   0.956   0.650   0.415
   47SOL     OW  151   0.076   0.811   0.789
   47SOL    HW1  152   0.175   0.799   0.798
   47SOL    HW2  153   0.052   0.906   0.810
   48SOL     OW  154   0.130   1.821   1.571
   48SOL    HW1  155   0.120   1.806   1.670
   48SOL    HW2  156   0.044   1.857   1.535
   49SOL     OW  157   0.865   0.348   0.195
   49SOL    HW1  158   0.924   0.411   0.146
   49SOL    HW2  159   0.884   0.254   0.166
   50SOL     OW  160   1.719   0.585   1.831
   50SOL    HW1  161   1.693   0.674   1.795
   50SOL    HW2  162   1.717   0.517   1.758
   51SOL     OW  163   1.362   1.144   0.545
   51SOL    HW1  164   1.445   1.115   0.497
   51SOL    HW2  165   1.313   1.211   0.489
   52SOL     OW  166   0.550   0.196   0.885
   52SOL    HW1  167   0.545   0.191   0.985
   52SOL    HW2  168   0.552   0.292   0.856
   53SOL     OW  169   1.008   1.456   0.477
   53SOL    HW1  170   0.962   1.528   0.425
   53SOL    HW2  171   1.004   1.476   0.575
   54SOL     OW  172   0.351   1.801   0.853
   54SOL    HW1  173   0.401   1.715   0.859
   54SOL    HW2  174   0.416   1.878   0.850
   55SOL     OW  175   1.795   1.066   0.873
   55SOL    HW1  176   1.733   1.051   0.797
   55SOL    HW2  177   1.743   1.077   0.958
   56SOL     OW  178   1.227   1.550   1.506
   56SOL    HW1  179   1.233   1.473   1.570
   56SOL    HW2  180   1.175   1.524   1.426
   57SOL     OW  181   0.321   0.943   0.242
   57SOL    HW1  182   0.403   0.982   0.200
   57SOL    HW2  183   0.294   0.861   0.193
   58SOL     OW  184   1.458   0.735   0.728
   58SOL    HW1  185   1.453   0.670   0.803
   58SOL    HW2  186   1.538   0.794   0.741
   59SOL     OW  187   0.461   1.266   1.727
   59SOL    HW1  188   0.411   1.267   1.641
   59SOL    HW2  189   0.398   1.248   1.803
   60SOL     OW  190   1.111   1.776   0.237
   60SOL    HW1  191   1.051   1.714   0.287
   60SOL    HW2  192   1.142   1.732   0.152
   61SOL     OW  193   0.202   0.285   1.498
   61SOL    HW1  194   0.122   0.345   1.485
   61SOL    HW2  195   0.192   0.236   1.584
   62SOL     OW  196   1.632   1.377   0.081
   62SOL    HW1  197   1.600   1.471   0.071
   62SOL    HW2  198   1.556   1.314   0.069
   63SOL     OW  199   0.464   1.743   0.323
   63SOL    HW1  200   0.497   1.782   0.409
   63SOL    HW2  201   0.540   1.736   0.258
   64SOL     OW  202   1.400   0.107   0.426
   64SOL    HW1  203   1.376   0.070   0.336
   64SOL    HW2  204   1.499   0.123   0.430
   65SOL     OW  205   0.249   1.785   1.241
   65SOL    HW1  206   0.306   1.720   1.291
   65SOL    HW2  207   0.233   1.752   1.148
   66SOL     OW  208   0.940   1.698   0.904
   66SOL    HW1  209   1.020   1.641   0.925
   66SOL    HW2  210   0.891   1.658   0.827
   67SOL     OW  211   0.382   0.700   0.480
   67SOL    HW1  212   0.427   0.610   0.477
   67SOL    HW2  213   0.288   0.689   0.513
   68SOL     OW  214   1.547   0.222   1.729
   68SOL    HW1  215   1.542   0.259   1.821
   68SOL    HW2  216   1.475   0.153   1.717
   69SOL     OW  217   0.614   0.122   0.117
   69SOL    HW1  218   0.712   0.100   0.124
   69SOL    HW2  219   0.583   0.105   0.024
   70SOL     OW  220   0.781   0.264   1.749
   70SOL    HW1  221   0.848   0.203   1.792
   70SOL    HW2  222   0.708   0.283   1.814
   71SOL     OW  223   0.888   1.514   1.195
   71SOL    HW1  224   0.865   1.489   1.101
   71SOL    HW2  225   0.949   1.445   1.234
   72SOL     OW  226   1.351   0.590   1.433
   72SOL    HW1  227   1.379   0.547   1.518
   72SOL    HW2  228   1.376   0.686   1.434
   73SOL     OW  229   0.803   1.402   0.924
   73SOL    HW1  230   0.893   1.416   0.882
   73SOL    HW2  231   0.732   1.404   0.853
   74SOL     OW  232   0.922   0.503   0.899
   74SOL    HW1  233   0.897   0.494   0.803
   74SOL    HW2  234   0.970   0.421   0.930
   75SOL     OW  235   0.539   0.064   0.512
   75SOL    HW1  236   0.458   0.065   0.570
   75SOL    HW2  237   0.542   0.147   0.457
   76SOL     OW  238   1.434   1.188   0.041
   76SOL    HW1  239   1.466   1.112   0.098
   76SOL    HW2  240   1.342   1.215   0.071
   77SOL     OW  241   0.297   0.035   0.171
   77SOL    HW1  242   0.346   0.119   0.150
   77SOL    HW2  243   0.359  -0.030   0.216
   78SOL     OW  244   0.935   0.236   0.480
   78SOL    HW1  245   0.887   0.277   0.402
   78SOL    HW2  246   1.034   0.234   0.461
   79SOL     OW  247   1.076   0.683   1.464
   79SOL    HW1  248   0.996   0.622   1.467
   79SOL    HW2  249   1.157   0.630   1.440
   80SOL     OW  250   1.227   1.570   0.793
   80SOL    HW1  251   1.248   1.644   0.728
   80SOL    HW2  252   1.295   1.570   0.866
   81SOL     OW  253   0.459   1.152   0.741
   81SOL    HW1  254   0.388   1.125   0.806
   81SOL    HW2  255   0.433   1.124   0.648
   82SOL     OW  256   1.271   1.797   0.591
   82SOL    HW1  257   1.315   1.861   0.527
   82SOL    HW2  258   1.221   1.849   0.661
   83SOL     OW  259   1.032   0.549   0.016
   83SOL    HW1  260   0.991   0.631  -0.023
   83SOL    HW2  261   1.096   0.575   0.089
   84SOL     OW  262   0.078   0.556   1.386
   84SOL    HW1  263   0.170   0.555   1.345
   84SOL    HW2  264   0.072   0.630   1.453
   85SOL     OW  265   0.561   0.222   1.147
   85SOL    HW1  266   0.599   0.138   1.184
   85SOL    HW2  267   0.473   0.241   1.191
   86SOL     OW  268   0.866   0.454   0.642
   86SOL    HW1  269   0.834   0.526   0.580
   86SOL    HW2  270   0.890   0.373   0.589
   87SOL     OW  271   1.017   0.039   0.753
   87SOL    HW1  272   0.945   0.044   0.684
   87SOL    HW2  273   0.993  -0.030   0.822
   88SOL     OW  274   1.429   1.173   0.867
   88SOL    HW1  275   1.374   1.089   0.860
   88SOL    HW2  276   1.455   1.202   0.775
   89SOL     OW  277   1.466   0.590   0.992
   89SOL    HW1  278   1.436   0.495   0.999
   89SOL    HW2  279   1.539   0.606   1.058
   90SOL     OW  280   1.857   0.833   0.377
   90SOL    HW1  281   1.899   0.769   0.441
   90SOL    HW2  282   1.819   0.782   0.299
   91SOL     OW  283   0.488   1.385   0.174
   91SOL    HW1  284   0.401   1.370   0.221
   91SOL    HW2  285   0.471   1.411   0.079
   92SOL     OW  286   1.664   1.280   0.657
   92SOL    HW1  287   1.763   1.288   0.671
   92SOL    HW2  288   1.619   1.364   0.688
   93SOL     OW  289   1.390   0.575   0.078
   93SOL    HW1  290   1.336   0.554   0.159
   93SOL    HW2  291   1.481   0.534   0.087
   94SOL     OW  292   0.527   0.256   0.328
   94SOL    HW1  293   0.554   0.197   0.253
   94SOL    HW2  294   0.527   0.351   0.297
   95SOL     OW  295   1.754   1.223   1.588
   95SOL    HW1  296   1.845   1.184   1.575
   95SOL    HW2  297   1.762   1.319   1.612
   96SOL     OW  298   1.064   1.347   1.340
   96SOL    HW1  299   0.984   1.324   1.395
   96SOL    HW2  300   1.147   1.321   1.389
   97SOL     OW  301   1.592   1.629   1.625
   97SOL    HW1  302   1.619   1.663   1.535
   97SOL    HW2  303   1.671   1.591   1.671
   98SOL     OW  304   1.111   1.195   1.100
   98SOL    HW1  305   1.071   1.239   1.181
   98SOL    HW2  306   1.070   1.232   1.017
   99SOL     OW  307   1.638   1.099   1.079
   99SOL    HW1  308   1.643   1.180   1.138
   99SOL    HW2  309   1.552   1.101   1.028
  100SOL     OW  310   0.915   0.089   1.402
  100SOL    HW1  311   0.940   0.069   1.307
  100SOL    HW2  312   0.987   0.145   1.444
  101SOL     OW  313   0.980   1.116   1.719
  101SOL    HW1  314   0.881   1.122   1.729
  101SOL    HW2  315   1.003   1.036   1.663
  102SOL     OW  316   0.705   1.050   0.368
  102SOL    HW1  317   0.691   1.057   0.467
  102SOL    HW2  318   0.789   0.999   0.350
  103SOL     OW  319   0.410   0.813   1.251
  103SOL    HW1  320   0.496   0.825   1.301
  103SOL    HW2  321   0.368   0.726   1.278
  104SOL     OW  322   1.274   0.386   1.262
  104SOL    HW1  323   1.295   0.460   1.326
  104SOL    HW2  324   1.185   0.403   1.219
  105SOL     OW  325   0.064   1.564   1.331
  105SOL    HW1  326   0.018   1.646   1.297
  105SOL    HW2  327   0.162   1.583   1.340
  106SOL     OW  328   0.367   1.100   0.501
  106SOL    HW1  329   0.360   1.183   0.445
  106SOL    HW2  330   0.371   1.020   0.441
  107SOL     OW  331   0.566   0.537   0.865
  107SOL    HW1  332   0.578   0.603   0.791
  107SOL    HW2  333   0.612   0.571   0.948
  108SOL     OW  334   1.252   1.348   0.388
  108SOL    HW1  335   1.302   1.425   0.428
  108SOL    HW2  336   1.157   1.350   0.420
  109SOL     OW  337   1.272   1.445   1.142
  109SOL    HW1  338   1.319   1.458   1.229
  109SOL    HW2  339   1.206   1.371   1.151
  110SOL     OW  340   1.582   0.639   0.472
  110SOL    HW1  341   1.551   0.700   0.545
  110SOL    HW2  342   1.632   0.691   0.403
  111SOL     OW  343   0.354   1.510   1.329
  111SOL    HW1  344   0.333   1.466   1.242
  111SOL    HW2  345   0.451   1.536   1.332
  112SOL     OW  346   0.402   0.751   1.598
  112SOL    HW1  347   0.470   0.806   1.551
  112SOL    HW2  348   0.442   0.663   1.625
  113SOL     OW  349   1.587   0.779   1.670
  113SOL    HW1  350   1.495   0.817   1.665
  113SOL    HW2  351   1.647   0.826   1.605
  114SOL     OW  352   1.013   0.105   1.770
  114SOL    HW1  353   1.019   0.190   1.718
  114SOL    HW2  354   1.045   0.029   1.713
  115SOL     OW  355   0.504   0.050   1.740
  115SOL    HW1  356   0.462  -0.007   1.670
  115SOL    HW2  357   0.438   0.119   1.772
  116SOL     OW  358   0.573   0.870   1.029
  116SOL    HW1  359   0.617   0.959   1.020
  116SOL    HW2  360   0.510   0.870   1.106
  117SOL     OW  361   1.360   0.862   1.045
  117SOL    HW1  362   1.285   0.862   0.979
  117SOL    HW2  363   1.397   0.770   1.054
  118SOL     OW  364   1.209   0.525   0.275
  118SOL    HW1  365   1.222   0.441   0.329
  118SOL    HW2  366   1.180   0.599   0.335
  119SOL     OW  367   0.307   0.213   1.231
  119SOL    HW1  368   0.284   0.250   1.321
  119SOL    HW2  369   0.277   0.118   1.225
  120SOL     OW  370   0.037   1.310   1.282
  120SOL    HW1  371   0.090   1.261   1.350
  120SOL    HW2  372   0.059   1.408   1.287
  121SOL     OW  373   0.732   0.634   1.064
  121SOL    HW1  374   0.791   0.608   0.988
  121SOL    HW2  375   0.704   0.730   1.053
  122SOL     OW  376   1.728   0.935   1.854
  122SOL    HW1  377   1.682   0.928   1.765
  122SOL    HW2  378   1.666   0.979   1.920
  123SOL     OW  379   0.307   0.063   0.618
  123SOL    HW1  380   0.296   0.157   0.651
  123SOL    HW2  381   0.302   0.000   0.695
  124SOL     OW  382   1.622   0.367   0.374
  124SOL    HW1  383   1.624   0.291   0.438
  124SOL    HW2  384   1.574   0.444   0.414
  125SOL     OW  385   1.023   0.766   0.966
  125SOL    HW1  386   1.038   0.787   1.062
  125SOL    HW2  387   0.993   0.671   0.957
  126SOL     OW  388   0.980   1.573   1.700
  126SOL    HW1  389   0.960   1.617   1.612
  126SOL    HW2  390   1.019   1.482   1.684
  127SOL     OW  391   1.859   1.518   1.605
  127SOL    HW1  392   1.873   1.545   1.510
  127SOL    HW2  393   1.942   1.540   1.658
  128SOL     OW  394   0.350   0.898   1.804
  128SOL    HW1  395   0.426   0.942   1.852
  128SOL    HW2  396   0.385   0.851   1.722
  129SOL     OW  397   1.540   0.274   0.125
  129SOL    HW1  398   1.479   0.199   0.148
  129SOL    HW2  399   1.562   0.326   0.208
  130SOL     OW  400   1.303   0.838   0.042
  130SOL    HW1  401   1.337   0.745   0.057
  130SOL    HW2  402   1.321   0.865  -0.053
  131SOL     OW  403   1.068   1.333   0.849
  131SOL    HW1  404   1.075   1.249   0.794
  131SOL    HW2  405   1.130   1.402   0.813
  132SOL     OW  406   0.319   0.810   0.949
  132SOL    HW1  407   0.412   0.846   0.954
  132SOL    HW2  408   0.313   0.725   1.001
  133SOL     OW  409   0.339   0.509   1.006
  133SOL    HW1  410   0.287   0.426   0.989
  133SOL    HW2  411   0.416   0.514   0.942
  134SOL     OW  412   1.138   0.380   1.678
  134SOL    HW1  413   1.093   0.443   1.742
  134SOL    HW2  414   1.231   0.411   1.661
  135SOL     OW  415   1.160   0.207   1.477
  135SOL    HW1  416   1.160   0.271   1.554
  135SOL    HW2  417   1.188   0.255   1.394
  136SOL     OW  418   0.008   1.326   0.200
  136SOL    HW1  419  -0.085   1.347   0.169
  136SOL    HW2  420   0.018   1.227   0.213
  137SOL     OW  421   0.088   1.801   0.927
  137SOL    HW1  422   0.046   1.715   0.900
  137SOL    HW2  423   0.182   1.804   0.893
  138SOL     OW  424   0.504   1.568   0.910
  138SOL    HW1  425   0.570   1.642   0.919
  138SOL    HW2  426   0.548   1.489   0.868
  139SOL     OW  427   1.002   0.796   1.238
  139SOL    HW1  428   1.043   0.764   1.324
  139SOL    HW2  429   0.906   0.769   1.235
  140SOL     OW  430   0.040   0.544   1.114
  140SOL    HW1  431   0.125   0.511   1.073
  140SOL    HW2  432   0.053   0.559   1.212
  141SOL     OW  433   0.189   0.520   1.722
  141SOL    HW1  434   0.248   0.480   1.652
  141SOL    HW2  435   0.131   0.591   1.681
  142SOL     OW  436   1.369   0.950   1.660
  142SOL    HW1  437   1.408   1.039   1.680
  142SOL    HW2  438   1.379   0.930   1.563
  143SOL     OW  439   0.815   0.572   0.325
  143SOL    HW1  440   0.822   0.483   0.279
  143SOL    HW2  441   0.721   0.606   0.317
  144SOL     OW  442   1.657   0.604   1.206
  144SOL    HW1  443   1.619   0.535   1.268
  144SOL    HW2  444   1.739   0.568   1.162
  145SOL     OW  445   0.252   1.564   1.744
  145SOL    HW1  446   0.222   1.621   1.820
  145SOL    HW2  447   0.245   1.467   1.770
  146SOL     OW  448   0.671   0.464   1.269
  146SOL    HW1  449   0.637   0.375   1.239
  146SOL    HW2  450   0.697   0.518   1.189
  147SOL     OW  451   0.930   1.678   1.465
  147SOL    HW1  452   0.906   1.660   1.370
  147SOL    HW2  453   0.960   1.772   1.475
  148SOL     OW  454   0.473   0.500   0.191
  148SOL    HW1  455   0.534   0.580   0.195
  148SOL    HW2  456   0.378   0.531   0.198
  149SOL     OW  457   0.159   1.137   1.466
  149SOL    HW1  458   0.181   1.076   1.542
  149SOL    HW2  459   0.169   1.088   1.380
  150SOL     OW  460   1.347   1.059   1.234
  150SOL    HW1  461   1.371   0.996   1.160
  150SOL    HW2  462   1.257   1.099   1.216
  151SOL     OW  463   1.302   0.855   0.309
  151SOL    HW1  464   1.216   0.824   0.351
  151SOL    HW2  465   1.298   0.841   0.210
  152SOL     OW  466   1.759   1.747   1.154
  152SOL    HW1  467   1.820   1.777   1.081
  152SOL    HW2  468   1.721   1.658   1.132
  153SOL     OW  469   1.252   1.731   1.128
  153SOL    HW1  470   1.336   1.736   1.074
  153SOL    HW2  471   1.229   1.635   1.146
  154SOL     OW  472   0.083   1.258   1.022
  154SOL    HW1  473   0.078   1.257   1.122
  154SOL    HW2  474   0.000   1.217   0.984
  155SOL     OW  475   0.688   1.662   1.716
  155SOL    HW1  476   0.632   1.743   1.725
  155SOL    HW2  477   0.740   1.666   1.630
  156SOL     OW  478   0.903   0.086   0.133
  156SOL    HW1  479   0.954   0.087   0.047
  156SOL    HW2  480   0.959   0.044   0.204
  157SOL     OW  481   1.726   0.135   0.523
  157SOL    HW1  482   1.799   0.118   0.456
  157SOL    HW2  483   1.695   0.048   0.561
  158SOL     OW  484   1.388   1.573   0.477
  158SOL    HW1  485   1.455   1.585   0.403
  158SOL    HW2  486   1.348   1.662   0.500
  159SOL     OW  487   0.130   1.794   1.851
  159SOL    HW1  488   0.089   1.720   1.904
  159SOL    HW2  489   0.194   1.845   1.909
  160SOL     OW  490   1.280   0.927   0.672
  160SOL    HW1  491   1.340   0.846   0.674
  160SOL    HW2  492   1.320   0.996   0.612
  161SOL     OW  493   0.830   1.273   1.422
  161SOL    HW1  494   0.825   1.306   1.517
  161SOL    HW2  495   0.744   1.292   1.376
  162SOL     OW  496   0.672   1.616   0.154
  162SOL    HW1  497   0.681   1.626   0.055
  162SOL    HW2  498   0.632   1.527   0.175
  163SOL     OW  499   1.650   1.720   1.394
  163SOL    HW1  500   1.703   1.730   1.310
  163SOL    HW2  501   1.623   1.810   1.428
  164SOL     OW  502   1.841   0.175   0.963
  164SOL    HW1  503   1.880   0.090   0.927
  164SOL    HW2  504   1.743   0.177   0.944
  165SOL     OW  505   0.263   0.326   0.720
  165SOL    HW1  506   0.184   0.377   0.686
  165SOL    HW2  507   0.254   0.311   0.818
  166SOL     OW  508   1.194   1.612   0.031
  166SOL    HW1  509   1.200   1.519   0.068
  166SOL    HW2  510   1.135   1.612  -0.049
  167SOL     OW  511   0.822   1.002   1.372
  167SOL    HW1  512   0.862   1.001   1.280
  167SOL    HW2  513   0.832   1.094   1.412
  168SOL     OW  514   0.916   0.910   0.291
  168SOL    HW1  515   0.979   0.948   0.223
  168SOL    HW2  516   0.956   0.827   0.330
  169SOL     OW  517   1.504   1.607   0.044
  169SOL    HW1  518   1.412   1.644   0.051
  169SOL    HW2  519   1.542   1.627  -0.046
  170SOL     OW  520   0.372   1.288   1.490
  170SOL    HW1  521   0.359   1.381   1.456
  170SOL    HW2  522   0.288   1.236   1.477
  171SOL     OW  523   1.614   1.292   1.289
  171SOL    HW1  524   1.674   1.295   1.369
  171SOL    HW2  525   1.539   1.356   1.302
  172SOL     OW  526   1.039   1.098   0.696
  172SOL    HW1  527   0.969   1.051   0.750
  172SOL    HW2  528   1.098   1.030   0.653
  173SOL     OW  529   1.014   0.236   0.971
  173SOL    HW1  530   1.006   0.200   0.878
  173SOL    HW2  531   1.012   0.160   1.036
  174SOL     OW  532   0.590   1.487   0.491
  174SOL    HW1  533   0.632   1.429   0.421
  174SOL    HW2  534   0.546   1.566   0.447
  175SOL     OW  535   1.709   0.385   1.381
  175SOL    HW1  536   1.782   0.454   1.385
  175SOL    HW2  537   1.737   0.310   1.322
  176SOL     OW  538   0.255   1.348   0.290
  176SOL    HW1  539   0.159   1.349   0.263
  176SOL    HW2  540   0.267   1.401   0.374
  177SOL     OW  541   0.105   1.013   1.726
  177SOL    HW1  542   0.028   0.980   1.780
  177SOL    HW2  543   0.190   0.983   1.768
  178SOL     OW  544   0.672   0.203   1.489
  178SOL    HW1  545   0.762   0.187   1.449
  178SOL    HW2  546   0.680   0.208   1.588
  179SOL     OW  547   0.075   0.345   0.033
  179SOL    HW1  548  -0.017   0.317   0.004
  179SOL    HW2  549   0.106   0.422  -0.023
  180SOL     OW  550   1.440   0.856   1.398
  180SOL    HW1  551   1.383   0.908   1.335
  180SOL    HW2  552   1.536   0.868   1.374
  181SOL     OW  553   0.072   0.166   0.318
  181SOL    HW1  554   0.055   0.249   0.264
  181SOL    HW2  555   0.162   0.129   0.296
  182SOL     OW  556   1.183   1.335   0.119
  182SOL    HW1  557   1.084   1.324   0.121
  182SOL    HW2  558   1.217   1.350   0.212
  183SOL     OW  559   0.613   0.842   1.431
  183SOL    HW1  560   0.669   0.923   1.414
  183SOL    HW2  561   0.672   0.762   1.434
  184SOL     OW  562   1.493   1.767   0.959
  184SOL    HW1  563   1.526   1.831   0.890
  184SOL    HW2  564   1.559   1.761   1.034
  185SOL     OW  565   0.716   0.565   1.708
  185SOL    HW1  566   0.735   0.630   1.782
  185SOL    HW2  567   0.776   0.485   1.717
  186SOL     OW  568   1.450   1.220   1.633
  186SOL    HW1  569   1.441   1.210   1.732
  186SOL    HW2  570   1.546   1.213   1.607
  187SOL     OW  571   0.390   1.741   1.560
  187SOL    HW1  572   0.299   1.782   1.558
  187SOL    HW2  573   0.383   1.647   1.592
  188SOL     OW  574   1.674   0.883   1.254
  188SOL    HW1  575   1.647   0.794   1.217
  188SOL    HW2  576   1.675   0.951   1.181
  189SOL     OW  577   1.225   0.325   0.449
  189SOL    HW1  578   1.290   0.251   0.438
  189SOL    HW2  579   1.245   0.375   0.533
  190SOL     OW  580   0.594   0.745   0.652
  190SOL    HW1  581   0.644   0.830   0.633
  190SOL    HW2  582   0.506   0.747   0.604
  191SOL     OW  583   1.777   0.342   1.642
  191SOL    HW1  584   1.760   0.373   1.548
  191SOL    HW2  585   1.693   0.305   1.680
  192SOL     OW  586   1.730   0.934   1.517
  192SOL    HW1  587   1.768   1.025   1.532
  192SOL    HW2  588   1.722   0.917   1.418
  193SOL     OW  589   0.859   1.374   0.016
  193SOL    HW1  590   0.813   1.389   0.104
  193SOL    HW2  591   0.903   1.459  -0.014
  194SOL     OW  592   0.661   1.790   0.953
  194SOL    HW1  593   0.615   1.878   0.940
  194SOL    HW2  594   0.760   1.802   0.946
  195SOL     OW  595   0.859   0.956   0.861
  195SOL    HW1  596   0.913   0.887   0.909
  195SOL    HW2  597   0.827   1.025   0.927
  196SOL     OW  598   1.083   0.984   0.087
  196SOL    HW1  599   1.060   1.037   0.005
  196SOL    HW2  600   1.164   0.928   0.068
  197SOL     OW  601   1.861   1.569   0.851
  197SOL    HW1  602   1.790   1.557   0.781
  197SOL    HW2  603   1.862   1.490   0.911
  198SOL     OW  604   0.221   1.314   1.844
  198SOL    HW1  605   0.156   1.241   1.823
  198SOL    HW2  606   0.225   1.328   1.942
  199SOL     OW  607   0.079   1.240   0.653
  199SOL    HW1  608   0.078   1.193   0.741
  199SOL    HW2  609   0.161   1.212   0.602
  200SOL     OW  610   0.672   1.391   1.624
  200SOL    HW1  611   0.594   1.341   1.662
  200SOL    HW2  612   0.669   1.486   1.655
  201SOL     OW  613   1.824   0.192   1.227
  201SOL    HW1  614   1.820   0.102   1.271
  201SOL    HW2  615   1.827   0.181   1.128
  202SOL     OW  616   0.428   0.424   0.520
  202SOL    HW1  617   0.458   0.352   0.458
  202SOL    HW2  618   0.389   0.384   0.603
  203SOL     OW  619   1.705   1.487   1.104
  203SOL    HW1  620   1.612   1.462   1.077
  203SOL    HW2  621   1.731   1.437   1.186
  204SOL     OW  622   0.317   0.547   1.280
  204SOL    HW1  623   0.355   0.488   1.352
  204SOL    HW2  624   0.357   0.521   1.192
  205SOL     OW  625   0.812   1.586   0.687
  205SOL    HW1  626   0.844   1.596   0.593
  205SOL    HW2  627   0.733   1.524   0.689
  206SOL     OW  628   1.424   0.214   1.112
  206SOL    HW1  629   1.476   0.149   1.167
  206SOL    HW2  630   1.375   0.277   1.173
  207SOL     OW  631   1.001   0.034   1.154
  207SOL    HW1  632   0.938  -0.038   1.123
  207SOL    HW2  633   1.094  -0.002   1.154
  208SOL     OW  634   0.770   1.330   0.301
  208SOL    HW1  635   0.724   1.243   0.318
  208SOL    HW2  636   0.861   1.327   0.342
  209SOL     OW  637   0.618   1.567   1.284
  209SOL    HW1  638   0.613   1.649   1.341
  209SOL    HW2  639   0.707   1.564   1.239
  210SOL     OW  640   1.352   0.052   0.168
  210SOL    HW1  641   1.387   0.011   0.084
  210SOL    HW2  642   1.262   0.014   0.188
  211SOL     OW  643   1.300   0.453   0.691
  211SOL    HW1  644   1.241   0.533   0.695
  211SOL    HW2  645   1.315   0.418   0.784
  212SOL     OW  646   1.593   0.221   0.882
  212SOL    HW1  647   1.509   0.220   0.936
  212SOL    HW2  648   1.595   0.304   0.826
  213SOL     OW  649   0.039   1.077   0.300
  213SOL    HW1  650   0.138   1.066   0.291
  213SOL    HW2  651  -0.001   0.991   0.332
  214SOL     OW  652   0.875   1.646   0.337
  214SOL    HW1  653   0.798   1.611   0.283
  214SOL    HW2  654   0.843   1.717   0.399
  215SOL     OW  655   0.230   0.628   1.975
  215SOL    HW1  656   0.137   0.626   2.012
  215SOL    HW2  657   0.231   0.589   1.883
  216SOL     OW  658   0.225   0.275   2.858
  216SOL    HW1  659   0.260   0.258   2.950
  216SOL    HW2  660   0.137   0.230   2.846
  217SOL     OW  661   0.019   0.368   2.509
  217SOL    HW1  662  -0.063   0.411   2.548
  217SOL    HW2  663  -0.009   0.295   2.446
  218SOL     OW  664   0.569   1.275   3.027
  218SOL    HW1  665   0.476   1.268   2.990
  218SOL    HW2  666   0.580   1.364   3.071
  219SOL     OW  667   1.555   1.511   2.565
  219SOL    HW1  668   1.498   1.495   2.646
  219SOL    HW2  669   1.496   1.521   2.485
  220SOL     OW  670   1.135   0.703   2.579
  220SOL    HW1  671   1.192   0.781   2.554
  220SOL    HW2  672   1.075   0.729   2.655
  221SOL     OW  673   1.755   0.607   2.093
  221SOL    HW1  674   1.743   0.594   1.994
  221SOL    HW2  675   1.725   0.526   2.142
  222SOL     OW  676   0.768   1.144   2.885
  222SOL    HW1  677   0.690   1.161   2.945
  222SOL    HW2  678   0.802   1.231   2.849
  223SOL     OW  679   0.850   0.798   3.685
  223SOL    HW1  680   0.846   0.874   3.750
  223SOL    HW2  681   0.872   0.834   3.594
  224SOL     OW  682   0.685   1.012   2.527
  224SOL    HW1  683   0.754   0.996   2.597
  224SOL    HW2  684   0.612   1.069   2.565
  225SOL     OW  685   0.686   1.161   3.665
  225SOL    HW1  686   0.746   1.240   3.679
  225SOL    HW2  687   0.600   1.192   3.624
  226SOL     OW  688   0.335   1.435   2.923
  226SOL    HW1  689   0.257   1.404   2.870
  226SOL    HW2  690   0.393   1.493   2.866
  227SOL     OW  691   1.460   1.505   3.201
  227SOL    HW1  692   1.484   1.599   3.227
  227SOL    HW2  693   1.444   1.451   3.283
  228SOL     OW  694   0.438   0.392   3.361
  228SOL    HW1  695   0.520   0.336   3.370
  228SOL    HW2  696   0.357   0.334   3.365
  229SOL     OW  697   1.603   0.447   2.599
  229SOL    HW1  698   1.529   0.493   2.549
  229SOL    HW2  699   1.654   0.515   2.652
  230SOL     OW  700   0.231   1.713   2.345
  230SOL    HW1  701   0.265   1.790   2.399
  230SOL    HW2  702   0.275   1.713   2.255
  231SOL     OW  703   1.127   1.341   3.552
  231SOL    HW1  704   1.174   1.341   3.640
  231SOL    HW2  705   1.079   1.254   3.541
  232SOL     OW  706   0.230   1.434   2.400
  232SOL    HW1  707   0.204   1.530   2.400
  232SOL    HW2  708   0.159   1.380   2.445
  233SOL     OW  709   0.240   1.091   2.748
  233SOL    HW1  710   0.254   1.007   2.800
  233SOL    HW2  711   0.185   1.155   2.803
  234SOL     OW  712   0.620   1.786   3.301
  234SOL    HW1  713   0.528   1.769   3.336
  234SOL    HW2  714   0.648   1.878   3.327
  235SOL     OW  715   0.606   0.964   1.985
  235SOL    HW1  716   0.613   1.048   1.931
  235SOL    HW2  717   0.652   0.977   2.073
  236SOL     OW  718   1.594   0.114   3.342
  236SOL    HW1  719   1.576   0.181   3.270
  236SOL    HW2  720   1.591   0.160   3.431
  237SOL     OW  721   0.122   0.643   2.425
  237SOL    HW1  722   0.077   0.555   2.442
  237SOL    HW2  723   0.121   0.697   2.509
  238SOL     OW  724   1.842   1.767   2.221
  238SOL    HW1  725   1.896   1.738   2.301
  238SOL    HW2  726   1.872   1.857   2.192
  239SOL     OW  727   0.027   1.596   1.979
  239SOL    HW1  728   0.008   1.500   2.000
  239SOL    HW2  729  -0.006   1.654   2.054
  240SOL     OW  730   1.689   0.922   2.474
  240SOL    HW1  731   1.784   0.893   2.482
  240SOL    HW2  732   1.681   0.987   2.399
  241SOL     OW  733   1.641   1.108   2.294
  241SOL    HW1  734   1.727   1.110   2.242
  241SOL    HW2  735   1.655   1.155   2.382
  242SOL     OW  736   0.113   0.737   3.459
  242SOL    HW1  737   0.201   0.724   3.504
  242SOL    HW2  738   0.100   0.834   3.437
  243SOL     OW  739   0.613   1.365   2.588
  243SOL    HW1  740   0.564   1.278   2.597
  243SOL    HW2  741   0.590   1.408   2.501
  244SOL     OW  742   1.293   1.228   3.285
  244SOL    HW1  743   1.330   1.155   3.227
  244SOL    HW2  744   1.345   1.233   3.370
  245SOL     OW  745   0.809   0.004   2.364
  245SOL    HW1  746   0.849   0.095   2.355
  245SOL    HW2  747   0.709   0.012   2.370
  246SOL     OW  748   0.197   0.976   3.126
  246SOL    HW1  749   0.286   0.931   3.112
  246SOL    HW2  750   0.124   0.911   3.107
  247SOL     OW  751   1.525   0.999   2.052
  247SOL    HW1  752   1.462   0.923   2.065
  247SOL    HW2  753   1.573   1.017   2.138
  248SOL     OW  754   1.187   1.792   3.478
  248SOL    HW1  755   1.211   1.852   3.402
  248SOL    HW2  756   1.194   1.697   3.448
  249SOL     OW  757   0.317   0.251   3.663
  249SOL    HW1  758   0.388   0.322   3.669
  249SOL    HW2  759   0.229   0.290   3.691
  250SOL     OW  760   1.466   1.417   2.815
  250SOL    HW1  761   1.407   1.423   2.895
  250SOL    HW2  762   1.451   1.329   2.769
  251SOL     OW  763   1.667   1.714   2.434
  251SOL    HW1  764   1.626   1.691   2.346
  251SOL    HW2  765   1.649   1.640   2.499
  252SOL     OW  766   0.598   0.729   2.132
  252SOL    HW1  767   0.622   0.798   2.064
  252SOL    HW2  768   0.520   0.762   2.186
  253SOL     OW  769   1.281   0.345   2.806
  253SOL    HW1  770   1.195   0.295   2.793
  253SOL    HW2  771   1.343   0.291   2.862
  254SOL     OW  772   1.576   1.662   2.169
  254SOL    HW1  773   1.665   1.708   2.172
  254SOL    HW2  774   1.555   1.638   2.074
  255SOL     OW  775   0.807   0.605   3.327
  255SOL    HW1  776   0.760   0.602   3.416
  255SOL    HW2  777   0.756   0.550   3.261
  256SOL     OW  778   1.394   0.469   3.536
  256SOL    HW1  779   1.374   0.512   3.624
  256SOL    HW2  780   1.472   0.407   3.545
  257SOL     OW  781   0.973   0.890   3.434
  257SOL    HW1  782   1.019   0.806   3.405
  257SOL    HW2  783   0.917   0.924   3.359
  258SOL     OW  784   0.991   0.410   3.104
  258SOL    HW1  785   0.914   0.444   3.158
  258SOL    HW2  786   0.957   0.359   3.025
  259SOL     OW  787   1.041   0.701   2.291
  259SOL    HW1  788   1.067   0.697   2.387
  259SOL    HW2  789   0.956   0.650   2.277
  260SOL     OW  790   0.076   0.811   2.651
  260SOL    HW1  791   0.175   0.799   2.660
  260SOL    HW2  792   0.052   0.906   2.672
  261SOL     OW  793   0.130   1.821   3.433
  261SOL    HW1  794   0.120   1.806   3.532
  261SOL    HW2  795   0.044   1.857   3.397
  262SOL     OW  796   0.865   0.348   2.057
  262SOL    HW1  797   0.924   0.411   2.008
  262SOL    HW2  798   0.884   0.254   2.028
  263SOL     OW  799   1.719   0.585   3.693
  263SOL    HW1  800   1.693   0.674   3.657
  263SOL    HW2  801   1.717   0.517   3.620
  264SOL     OW  802   1.362   1.144   2.407
  264SOL    HW1  803   1.445   1.115   2.359
  264SOL    HW2  804   1.313   1.211   2.351
  265SOL     OW  805   0.550   0.196   2.747
  265SOL    HW1  806   0.545   0.191   2.847
  265SOL    HW2  807   0.552   0.292   2.718
  266SOL     OW  808   1.008   1.456   2.339
  266SOL    HW1  809   0.962   1.528   2.287
  266SOL    HW2  810   1.004   1.476   2.437
  267SOL     OW  811   0.351   1.801   2.715
  267SOL    HW1  812   0.401   1.715   2.721
  267SOL    HW2  813   0.416   1.878   2.712
  268SOL     OW  814   1.795   1.066   2.735
  268SOL    HW1  815   1.733   1.051   2.659
  268SOL    HW2  816   1.743   1.077   2.820
  269SOL     OW  817   1.227   1.550   3.368
  269SOL    HW1  818   1.233   1.473   3.432
  269SOL    HW2  819   1.175   1.524   3.288
  270SOL     OW  820   0.321   0.943   2.104
  270SOL    HW1  821   0.403   0.982   2.062
  270SOL    HW2  822   0.294   0.861   2.055
  271SOL     OW  823   1.458   0.735   2.590
  271SOL    HW1  824   1.453   0.670   2.665
  271SOL    HW2  825   1.538   0.794   2.603
  272SOL     OW  826   0.461   1.266   3.589
  272SOL    HW1  827   0.411   1.267   3.503
  272SOL    HW2  828   0.398   1.248   3.665
  273SOL     OW  829   1.111   1.776   2.099
  273SOL    HW1  830   1.051   1.714   2.149
  273SOL    HW2  831   1.142   1.732   2.014
  274SOL     OW  832   0.202   0.285   3.360
  274SOL    HW1  833   0.122   0.345   3.347
  274SOL    HW2  834   0.192   0.236   3.446
  275SOL     OW  835   1.632   1.377   1.943
  275SOL    HW1  836   1.600   1.471   1.933
  275SOL    HW2  837   1.556   1.314   1.931
  276SOL     OW  838   0.464   1.743   2.185
  276SOL    HW1  839   0.497   1.782   2.271
  276SOL    HW2  840   0.540   1.736   2.120
  277SOL     OW  841   1.400   0.107   2.288
  277SOL    HW1  842   1.376   0.070   2.198
  277SOL    HW2  843   1.499   0.123   2.292
  278SOL     OW  844   0.249   1.785   3.103
  278SOL    HW1  845   0.306   1.720   3.153
  278SOL    HW2  846   0.233   1.752   3.010
  279SOL     OW  847   0.940   1.698   2.766
  279SOL    HW1  848   1.020   1.641   2.787
  279SOL    HW2  849   0.891   1.658   2.689
  280SOL     OW  850   0.382   0.700   2.342
  280SOL    HW1  851   0.427   0.610   2.339
  280SOL    HW2  852   0.288   0.689   2.375
  281SOL     OW  853   1.547   0.222   3.591
  281SOL    HW1  854   1.542   0.259   3.683
  281SOL    HW2  855   1.475   0.153   3.579
  282SOL     OW  856   0.614   0.122   1.979
  282SOL    HW1  857   0.712   0.100   1.986
  282SOL    HW2  858   0.583   0.105   1.886
  283SOL     OW  859   0.781   0.264   3.611
  283SOL    HW1  860   0.848   0.203   3.654
  283SOL    HW2  861   0.708   0.283   3.676
  284SOL     OW  862   0.888   1.514   3.057
  284SOL    HW1  863   0.865   1.489   2.963
  284SOL    HW2  864   0.949   1.445   3.096
  285SOL     OW  865   1.351   0.590   3.295
  285SOL    HW1  866   1.379   0.547   3.380
  285SOL    HW2  867   1.376   0.686   3.296
  286SOL     OW  868   0.803   1.402   2.786
  286SOL    HW1  869   0.893   1.416   2.744
  286SOL    HW2  870   0.732   1.404   2.715
  287SOL     OW  871   0.922   0.503   2.761
  287SOL    HW1  872   0.897   0.494   2.665
  287SOL    HW2  873   0.970   0.421   2.792
  288SOL     OW  874   0.539   0.064   2.374
  288SOL    HW1  875   0.458   0.065   2.432
  288SOL    HW2  876   0.542   0.147   2.319
  289SOL     OW  877   1.434   1.188   1.903
  289SOL    HW1  878   1.466   1.112   1.960
  289SOL    HW2  879   1.342   1.215   1.933
  290SOL     OW  880   0.297   0.035   2.033
  290SOL    HW1  881   0.346   0.119   2.012
  290SOL    HW2  882   0.359  -0.030   2.078
  291SOL     OW  883   0.935   0.236   2.342
  291SOL    HW1  884   0.887   0.277   2.264
  291SOL    HW2  885   1.034   0.234   2.323
  292SOL     OW  886   1.076   0.683   3.326
  292SOL    HW1  887   0.996   0.622   3.329
  292SOL    HW2  888   1.157   0.630   3.302
  293SOL     OW  889   1.227   1.570   2.655
  293SOL    HW1  890   1.248   1.644   2.590
  293SOL    HW2  891   1.295   1.570   2.728
  294SOL     OW  892   0.459   1.152   2.603
  294SOL    HW1  893   0.388   1.125   2.668
  294SOL    HW2  894   0.433   1.124   2.510
  295SOL     OW  895   1.271   1.797   2.453
  295SOL    HW1  896   1.315   1.861   2.389
  295SOL    HW2  897   1.221   1.849   2.523
  296SOL     OW  898   1.032   0.549   1.878
  296SOL    HW1  899   0.991   0.631   1.839
  296SOL    HW2  900   1.096   0.575   1.951
  297SOL     OW  901   0.078   0.556   3.248
  297SOL    HW1  902   0.170   0.555   3.207
  297SOL    HW2  903   0.072   0.630   3.315
  298SOL     OW  904   0.561   0.222   3.009
  298SOL    HW1  905   0.599   0.138   3.046
  298SOL    HW2  906   0.473   0.241   3.053
  299SOL     OW  907   0.866   0.454   2.504
  299SOL    HW1  908   0.834   0.526   2.442
  299SOL    HW2  909   0.890   0.373   2.451
  300SOL     OW  910   1.017   0.039   2.615
  300SOL    HW1  911   0.945   0.044   2.546
  300SOL    HW2  912   0.993  -0.030   2.684
  301SOL     OW  913   1.429   1.173   2.729
  301SOL    HW1  914   1.374   1.089   2.722
  301SOL    HW2  915   1.455   1.202   2.637
  302SOL     OW  916   1.466   0.590   2.854
  302SOL    HW1  917   1.436   0.495   2.861
  302SOL    HW2  918   1.539   0.606   2.920
  303SOL     OW  919   1.857   0.833   2.239
  303SOL    HW1  920   1.899   0.769   2.303
  303SOL    HW2  921   1.819   0.782   2.161
  304SOL     OW  922   0.488   1.385   2.036
  304SOL    HW1  923   0.401   1.370   2.083
  304SOL    HW2  924   0.471   1.411   1.941
  305SOL     OW  925   1.664   1.280   2.519
  305SOL    HW1  926   1.763   1.288   2.533
  305SOL    HW2  927   1.619   1.364   2.550
  306SOL     OW  928   1.390   0.575   1.940
  306SOL    HW1  929   1.336   0.554   2.021
  306SOL    HW2  930   1.481   0.534   1.949
  307SOL     OW  931   0.527   0.256   2.190
  307SOL    HW1  932   0.554   0.197   2.115
  307SOL    HW2  933   0.527   0.351   2.159
  308SOL     OW  934   1.754   1.223   3.450
  308SOL    HW1  935   1.845   1.184   3.437
  308SOL    HW2  936   1.762   1.319   3.474
  309SOL     OW  937   1.064   1.347   3.202
  309SOL    HW1  938   0.984   1.324   3.257
  309SOL    HW2  939   1.147   1.321   3.251
  310SOL     OW  940   1.592   1.629   3.487
  310SOL    HW1  941   1.619   1.663   3.397
  310SOL    HW2  942   1.671   1.591   3.533
  311SOL     OW  943   1.111   1.195   2.962
  311SOL    HW1  944   1.071   1.239   3.043
  311SOL    HW2  945   1.070   1.232   2.879
  312SOL     OW  946   1.638   1.099   2.941
  312SOL    HW1  947   1.643   1.180   3.000
  312SOL    HW2  948   1.552   1.101   2.890
  313SOL     OW  949   0.915   0.089   3.264
  313SOL    HW1  950   0.940   0.069   3.169
  313SOL    HW2  951   0.987   0.145   3.306
  314SOL     OW  952   0.980   1.116   3.581
  314SOL    HW1  953   0.881   1.122   3.591
  314SOL    HW2  954   1.003   1.036   3.525
  315SOL     OW  955   0.705   1.050   2.230
  315SOL    HW1  956   0.691   1.057   2.329
  315SOL    HW2  957   0.789   0.999   2.212
  316SOL     OW  958   0.410   0.813   3.113
  316SOL    HW1  959   0.496   0.825   3.163
  316SOL    HW2  960   0.368   0.726   3.140
  317SOL     OW  961   1.274   0.386   3.124
  317SOL    HW1  962   1.295   0.460   3.188
  317SOL    HW2  963   1.185   0.403   3.081
  318SOL     OW  964   0.064   1.564   3.193
  318SOL    HW1  965   0.018   1.646   3.159
  318SOL    HW2  966   0.162   1.583   3.202
  319SOL     OW  967   0.367   1.100   2.363
  319SOL    HW1  968   0.360   1.183   2.307
  319SOL    HW2  969   0.371   1.020   2.303
  320SOL     OW  970   0.566   0.537   2.727
  320SOL    HW1  971   0.578   0.603   2.653
  320SOL    HW2  972   0.612   0.571   2.810
  321SOL     OW  973   1.252   1.348   2.250
  321SOL    HW1  974   1.302   1.425   2.290
  321SOL    HW2  975   1.157   1.350   2.282
  322SOL     OW  976   1.272   1.445   3.004
  322SOL    HW1  977   1.319   1.458   3.091
  322SOL    HW2  978   1.206   1.371   3.013
  323SOL     OW  979   1.582   0.639   2.334
  323SOL    HW1  980   1.551   0.700   2.407
  323SOL    HW2  981   1.632   0.691   2.265
  324SOL     OW  982   0.354   1.510   3.191
  324SOL    HW1  983   0.333   1.466   3.104
  324SOL    HW2  984   0.451   1.536   3.194
  325SOL     OW  985   0.402   0.751   3.460
  325SOL    HW1  986   0.470   0.806   3.413
  325SOL    HW2  987   0.442   0.663   3.487
  326SOL     OW  988   1.587   0.779   3.532
  326SOL    HW1  989   1.495   0.817   3.527
  326SOL    HW2  990   1.647   0.826   3.467
  327SOL     OW  991   1.013   0.105   3.632
  327SOL    HW1  992   1.019   0.190   3.580
  327SOL    HW2  993   1.045   0.029   3.575
  328SOL     OW  994   0.504   0.050   3.602
  328SOL    HW1  995   0.462  -0.007   3.532
  328SOL    HW2  996   0.438   0.119   3.634
  329SOL     OW  997   0.573   0.870   2.891
  329SOL    HW1  998   0.617   0.959   2.882
  329SOL    HW2  999   0.510   0.870   2.968
  330SOL     OW 1000   1.360   0.862   2.907
  330SOL    HW1 1001   1.285   0.862   2.841
  330SOL    HW2 1002   1.397   0.770   2.916
  331SOL     OW 1003   1.209   0.525   2.137
  331SOL    HW1 1004   1.222   0.441   2.191
  331SOL    HW2 1005   1.180   0.599   2.197
  332SOL     OW 1006   0.307   0.213   3.093
  332SOL    HW1 1007   0.284   0.250   3.183
  332SOL    HW2 1008   0.277   0.118   3.087
  333SOL     OW 1009   0.037   1.310   3.144
  333SOL    HW1 1010   0.090   1.261   3.212
  333SOL    HW2 1011   0.059   1.408   3.149
  334SOL     OW 1012   0.732   0.634   2.926
  334SOL    HW1 1013   0.791   0.608   2.850
  334SOL    HW2 1014   0.704   0.730   2.915
  335SOL     OW 1015   1.728   0.935   3.716
  335SOL    HW1 1016   1.682   0.928   3.627
  335SOL    HW2 1017   1.666   0.979   3.782
  336SOL     OW 1018   0.307   0.063   2.480
  336SOL    HW1 1019   0.296   0.157   2.513
  336SOL    HW2 1020   0.302   0.000   2.557
  337SOL     OW 1021   1.622   0.367   2.236
  337SOL    HW1 1022   1.624   0.291   2.300
  337SOL    HW2 1023   1.574   0.444   2.276
  338SOL     OW 1024   1.023   0.766   2.828
  338SOL    HW1 1025   1.038   0.787   2.924
  338SOL    HW2 1026   0.993   0.671   2.819
  339SOL     OW 1027   0.980   1.573   3.562
  339SOL    HW1 1028   0.960   1.617   3.474
  339SOL    HW2 1029   1.019   1.482   3.546
  340SOL     OW 1030   1.859   1.518   3.467
  340SOL    HW1 1031   1.873   1.545   3.372
  340SOL    HW2 1032   1.942   1.540   3.520
  341SOL     OW 1033   0.350   0.898   3.666
  341SOL    HW1 1034   0.426   0.942   3.714
  341SOL    HW2 1035   0.385   0.851   3.584
  342SOL     OW 1036   1.540   0.274   1.987
  342SOL    HW1 1037   1.479   0.199   2.010
  342SOL    HW2 1038   1.562   0.326   2.070
  343SOL     OW 1039   1.303   0.838   1.904
  343SOL    HW1 1040   1.337   0.745   1.919
  343SOL    HW2 1041   1.321   0.865   1.809
  344SOL     OW 1042   1.068   1.333   2.711
  344SOL    HW1 1043   1.075   1.249   2.656
  344SOL    HW2 1044   1.130   1.402   2.675
  345SOL     OW 1045   0.319   0.810   2.811
  345SOL    HW1 1046   0.412   0.846   2.816
  345SOL    HW2 1047   0.313   0.725   2.863
  346SOL     OW 1048   0.339   0.509   2.868
  346SOL    HW1 1049   0.287   0.426   2.851
  346SOL    HW2 1050   0.416   0.514   2.804
  347SOL     OW 1051   1.138   0.380   3.540
  347SOL    HW1 1052   1.093   0.443   3.604
  347SOL    HW2 1053   1.231   0.411   3.523
  348SOL     OW 1054   1.160   0.207   3.339
  348SOL    HW1 1055   1.160   0.271   3.416
  348SOL    HW2 1056   1.188   0.255   3.256
  349SOL     OW 1057   0.008   1.326   2.062
  349SOL    HW1 1058  -0.085   1.347   2.031
  349SOL    HW2 1059   0.018   1.227   2.075
  350SOL     OW 1060   0.088   1.801   2.789
  350SOL    HW1 1061   0.046   1.715   2.762
  350SOL    HW2 1062   0.182   1.804   2.755
  351SOL     OW 1063   0.504   1.568   2.772
  351SOL    HW1 1064   0.570   1.642   2.781
  351SOL    HW2 1065   0.548   1.489   2.730
  352SOL     OW 1066   1.002   0.796   3.100
  352SOL    HW1 1067   1.043   0.764   3.186
  352SOL    HW2 1068   0.906   0.769   3.097
  353SOL     OW 1069   0.040   0.544   2.976
  353SOL    HW1 1070   0.125   0.511   2.935
  353SOL    HW2 1071   0.053   0.559   3.074
  354SOL     OW 1072   0.189   0.520   3.584
  354SOL    HW1 1073   0.248   0.480   3.514
  354SOL    HW2 1074   0.131   0.591   3.543
  355SOL     OW 1075   1.369   0.950   3.522
  355SOL    HW1 1076   1.408   1.039   3.542
  355SOL    HW2 1077   1.379   0.930   3.425
  356SOL     OW 1078   0.815   0.572   2.187
  356SOL    HW1 1079   0.822   0.483   2.141
  356SOL    HW2 1080   0.721   0.606   2.179
  357SOL     OW 1081   1.657   0.604   3.068
  357SOL    HW1 1082   1.619   0.535   3.130
  357SOL    HW2 1083   1.739   0.568   3.024
  358SOL     OW 1084   0.252   1.564   3.606
  358SOL    HW1 1085   0.222   1.621   3.682
  358SOL    HW2 1086   0.245   1.467   3.632
  359SOL     OW 1087   0.671   0.464   3.131
  359SOL    HW1 1088   0.637   0.375   3.101
  359SOL    HW2 1089   0.697   0.518   3.051
  360SOL     OW 1090   0.930   1.678   3.327
  360SOL    HW1 1091   0.906   1.660   3.232
  360SOL    HW2 1092   0.960   1.772   3.337
  361SOL     OW 1093   0.473   0.500   2.053
  361SOL    HW1 1094   0.534   0.580   2.057
  361SOL    HW2 1095   0.378   0.531   2.060
  362SOL     OW 1096   0.159   1.137   3.328
  362SOL    HW1 1097   0.181   1.076   3.404
  362SOL    HW2 1098   0.169   1.088   3.242
  363SOL     OW 1099   1.347   1.059   3.096
  363SOL    HW1 1100   1.371   0.996   3.022
  363SOL    HW2 1101   1.257   1.099   3.078
  364SOL     OW 1102   1.302   0.855   2.171
  364SOL    HW1 1103   1.216   0.824   2.213
  364SOL    HW2 1104   1.298   0.841   2.072
  365SOL     OW 1105   1.759   1.747   3.016
  365SOL    HW1 1106   1.820   1.777   2.943
  365SOL    HW2 1107   1.721   1.658   2.994
  366SOL     OW 1108   1.252   1.731   2.990
  366SOL    HW1 1109   1.336   1.736   2.936
  366SOL    HW2 1110   1.229   1.635   3.008
  367SOL     OW 1111   0.083   1.258   2.884
  367SOL    HW1 1112   0.078   1.257   2.984
  367SOL    HW2 1113   0.000   1.217   2.846
  368SOL     OW 1114   0.688   1.662   3.578
  368SOL    HW1 1115   0.632   1.743   3.587
  368SOL    HW2 1116   0.740   1.666   3.492
  369SOL     OW 1117   1.726   0.135   2.385
  369SOL    HW1 1118   1.799   0.118   2.318
  369SOL    HW2 1119   1.695   0.048   2.423
  370SOL     OW 1120   1.388   1.573   2.339
  370SOL    HW1 1121   1.455   1.585   2.265
  370SOL    HW2 1122   1.348   1.662   2.362
  371SOL     OW 1123   0.130   1.794   3.713
  371SOL    HW1 1124   0.089   1.720   3.766
  371SOL    HW2 1125   0.194   1.845   3.771
  372SOL     OW 1126   1.280   0.927   2.534
  372SOL    HW1 1127   1.340   0.846   2.536
  372SOL    HW2 1128   1.320   0.996   2.474
  373SOL     OW 1129   0.830   1.273   3.284
  373SOL    HW1 1130   0.825   1.306   3.379
  373SOL    HW2 1131   0.744   1.292   3.238
  374SOL     OW 1132   0.672   1.616   2.016
  374SOL    HW1 1133   0.681   1.626   1.917
  374SOL    HW2 1134   0.632   1.527   2.037
  375SOL     OW 1135   1.650   1.720   3.256
  375SOL    HW1 1136   1.703   1.730   3.172
  375SOL    HW2 1137   1.623   1.810   3.290
  376SOL     OW 1138   1.841   0.175   2.825
  376SOL    HW1 1139   1.880   0.090   2.789
  376SOL    HW2 1140   1.743   0.177   2.806
  377SOL     OW 1141   0.263   0.326   2.582
  377SOL    HW1 1142   0.184   0.377   2.548
  377SOL    HW2 1143   0.254   0.311   2.680
  378SOL     OW 1144   1.194   1.612   1.893
  378SOL    HW1 1145   1.200   1.519   1.930
  378SOL    HW2 1146   1.135   1.612   1.813
  379SOL     OW 1147   0.822   1.002   3.234
  379SOL    HW1 1148   0.862   1.001   3.142
  379SOL    HW2 1149   0.832   1.094   3.274
  380SOL     OW 1150   0.916   0.910   2.153
  380SOL    HW1 1151   0.979   0.948   2.085
  380SOL    HW2 1152   0.956   0.827   2.192
  381SOL     OW 1153   1.504   1.607   1.906
  381SOL    HW1 1154   1.412   1.644   1.913
  381SOL    HW2 1155   1.542   1.627   1.816
  382SOL     OW 1156   0.372   1.288   3.352
  382SOL    HW1 1157   0.359   1.381   3.318
  382SOL    HW2 1158   0.288   1.236   3.339
  383SOL     OW 1159   1.614   1.292   3.151
  383SOL    HW1 1160   1.674   1.295   3.231
  383SOL    HW2 1161   1.539   1.356   3.164
  384SOL     OW 1162   1.039   1.098   2.558
  384SOL    HW1 1163   0.969   1.051   2.612
  384SOL    HW2 1164   1.098   1.030   2.515
  385SOL     OW 1165   1.014   0.236   2.833
  385SOL    HW1 1166   1.006   0.200   2.740
  385SOL    HW2 1167   1.012   0.160   2.898
  386SOL     OW 1168   0.590   1.487   2.353
  386SOL    HW1 1169   0.632   1.429   2.283
  386SOL    HW2 1170   0.546   1.566   2.309
  387SOL     OW 1171   1.709   0.385   3.243
  387SOL    HW1 1172   1.782   0.454   3.247
  387SOL    HW2 1173   1.737   0.310   3.184
  388SOL     OW 1174   0.255   1.348   2.152
  388SOL    HW1 1175   0.159   1.349   2.125
  388SOL    HW2 1176   0.267   1.401   2.236
  389SOL     OW 1177   0.105   1.013   3.588
  389SOL    HW1 1178   0.028   0.980   3.642
  389SOL    HW2 1179   0.190   0.983   3.630
  390SOL     OW 1180   0.672   0.203   3.351
  390SOL    HW1 1181   0.762   0.187   3.311
  390SOL    HW2 1182   0.680   0.208   3.450
  391SOL     OW 1183   0.075   0.345   1.895
  391SOL    HW1 1184  -0.017   0.317   1.866
  391SOL    HW2 1185   0.106   0.422   1.839
  392SOL     OW 1186   1.440   0.856   3.260
  392SOL    HW1 1187   1.383   0.908   3.197
  392SOL    HW2 1188   1.536   0.868   3.236
  393SOL     OW 1189   0.072   0.166   2.180
  393SOL    HW1 1190   0.055   0.249   2.126
  393SOL    HW2 1191   0.162   0.129   2.158
  394SOL     OW 1192   1.183   1.335   1.981
  394SOL    HW1 1193   1.084   1.324   1.983
  394SOL    HW2 1194   1.217   1.350   2.074
  395SOL     OW 1195   0.613   0.842   3.293
  395SOL    HW1 1196   0.669   0.923   3.276
  395SOL    HW2 1197   0.672   0.762   3.296
  396SOL     OW 1198   1.493   1.767   2.821
  396SOL    HW1 1199   1.526   1.831   2.752
  396SOL    HW2 1200   1.559   1.761   2.896
  397SOL     OW 1201   0.716   0.565   3.570
  397SOL    HW1 1202   0.735   0.630   3.644
  397SOL    HW2 1203   0.776   0.485   3.579
  398SOL     OW 1204   1.450   1.220   3.495
  398SOL    HW1 1205   1.441   1.210   3.594
  398SOL    HW2 1206   1.546   1.213   3.469
  399SOL     OW 1207   0.390   1.741   3.422
  399SOL    HW1 1208   0.299   1.782   3.420
  399SOL    HW2 1209   0.383   1.647   3.454
  400SOL     OW 1210   1.674   0.883   3.116
  400SOL    HW1 1211   1.647   0.794   3.079
  400SOL    HW2 1212   1.675   0.951   3.043
  401SOL     OW 1213   1.225   0.325   2.311
  401SOL    HW1 1214   1.290   0.251   2.300
  401SOL    HW2 1215   1.245   0.375   2.395
  402SOL     OW 1216   0.594   0.745   2.514
  402SOL    HW1 1217   0.644   0.830   2.495
  402SOL    HW2 1218   0.506   0.747   2.466
  403SOL     OW 1219   1.777   0.342   3.504
  403SOL    HW1 1220   1.760   0.373   3.410
  403SOL    HW2 1221   1.693   0.305   3.542
  404SOL     OW 1222   1.730   0.934   3.379
  404SOL    HW1 1223   1.768   1.025   3.394
  404SOL    HW2 1224   1.722   0.917   3.280
  405SOL     OW 1225   0.859   1.374   1.878
  405SOL    HW1 1226   0.813   1.389   1.966
  405SOL    HW2 1227   0.903   1.459   1.848
  406SOL     OW 1228   0.661   1.790   2.815
  406SOL    HW1 1229   0.615   1.878   2.802
  406SOL    HW2 1230   0.760   1.802   2.808
  407SOL     OW 1231   0.859   0.956   2.723
  407SOL    HW1 1232   0.913   0.887   2.771
  407SOL    HW2 1233   0.827   1.025   2.789
  408SOL     OW 1234   1.083   0.984   1.949
  408SOL    HW1 1235   1.060   1.037   1.867
  408SOL    HW2 1236   1.164   0.928   1.930
  409SOL     OW 1237   1.861   1.569   2.713
  409SOL    HW1 1238   1.790   1.557   2.643
  409SOL    HW2 1239   1.862   1.490   2.773
  410SOL     OW 1240   0.221   1.314   3.706
  410SOL    HW1 1241   0.156   1.241   3.685
  410SOL    HW2 1242   0.225   1.328   3.804
  411SOL     OW 1243   0.079   1.240   2.515
  411SOL    HW1 1244   0.078   1.193   2.603
  411SOL    HW2 1245   0.161   1.212   2.464
  412SOL     OW 1246   0.672   1.391   3.486
  412SOL    HW1 1247   0.594   1.341   3.524
  412SOL    HW2 1248   0.669   1.486   3.517
  413SOL     OW 1249   1.824   0.192   3.089
  413SOL    HW1 1250   1.820   0.102   3.133
  413SOL    HW2 1251   1.827   0.181   2.990
  414SOL     OW 1252   0.428   0.424   2.382
  414SOL    HW1 1253   0.458   0.352   2.320
  414SOL    HW2 1254   0.389   0.384   2.465
  415SOL     OW 1255   1.705   1.487   2.966
  415SOL    HW1 1256   1.612   1.462   2.939
  415SOL    HW2 1257   1.731   1.437   3.048
  416SOL     OW 1258   0.317   0.547   3.142
  416SOL    HW1 1259   0.355   0.488   3.214
  416SOL    HW2 1260   0.357   0.521   3.054
  417SOL     OW 1261   0.812   1.586   2.549
  417SOL    HW1 1262   0.844   1.596   2.455
  417SOL    HW2 1263   0.733   1.524   2.551
  418SOL     OW 1264   1.424   0.214   2.974
  418SOL    HW1 1265   1.476   0.149   3.029
  418SOL    HW2 1266   1.375   0.277   3.035
  419SOL     OW 1267   1.001   0.034   3.016
  419SOL    HW1 1268   0.938  -0.038   2.985
  419SOL    HW2 1269   1.094  -0.002   3.016
  420SOL     OW 1270   0.770   1.330   2.163
  420SOL    HW1 1271   0.724   1.243   2.180
  420SOL    HW2 1272   0.861   1.327   2.204
  421SOL     OW 1273   0.618   1.567   3.146
  421SOL    HW1 1274   0.613   1.649   3.203
  421SOL    HW2 1275   0.707   1.564   3.101
  422SOL     OW 1276   1.352   0.052   2.030
  422SOL    HW1 1277   1.387   0.011   1.946
  422SOL    HW2 1278   1.262   0.014   2.050
  423SOL     OW 1279   1.300   0.453   2.553
  423SOL    HW1 1280   1.241   0.533   2.557
  423SOL    HW2 1281   1.315   0.418   2.646
  424SOL     OW 1282   1.593   0.221   2.744
  424SOL    HW1 1283   1.509   0.220   2.798
  424SOL    HW2 1284   1.595   0.304   2.688
  425SOL     OW 1285   0.039   1.077   2.162
  425SOL    HW1 1286   0.138   1.066   2.153
  425SOL    HW2 1287  -0.001   0.991   2.194
  426SOL     OW 1288   0.875   1.646   2.199
  426SOL    HW1 1289   0.798   1.611   2.145
  426SOL    HW2 1290   0.843   1.717   2.261
  427SOL     OW 1291   0.230   0.628   3.837
  427SOL    HW1 1292   0.137   0.626   3.874
  427SOL    HW2 1293   0.231   0.589   3.745
  428SOL     OW 1294   0.019   0.368   4.371
  428SOL    HW1 1295  -0.063   0.411   4.410
  428SOL    HW2 1296  -0.009   0.295   4.308
  429SOL     OW 1297   1.555   1.511   4.427
  429SOL    HW1 1298   1.498   1.495   4.508
  429SOL    HW2 1299   1.496   1.521   4.347
  430SOL     OW 1300   1.135   0.703   4.441
  430SOL    HW1 1301   1.192   0.781   4.416
  430SOL    HW2 1302   1.075   0.729   4.517
  431SOL     OW 1303   1.755   0.607   3.955
  431SOL    HW1 1304   1.743   0.594   3.856
  431SOL    HW2 1305   1.725   0.526   4.004
  432SOL     OW 1306   0.685   1.012   4.389
  432SOL    HW1 1307   0.754   0.996   4.459
  432SOL    HW2 1308   0.612   1.069   4.427
  433SOL     OW 1309   1.603   0.447   4.461
  433SOL    HW1 1310   1.529   0.493   4.411
  433SOL    HW2 1311   1.654   0.515   4.514
  434SOL     OW 1312   0.231   1.713   4.207
  434SOL    HW1 1313   0.265   1.790   4.261
  434SOL    HW2 1314   0.275   1.713   4.117
  435SOL     OW 1315   0.230   1.434   4.262
  435SOL    HW1 1316   0.204   1.530   4.262
  435SOL    HW2 1317   0.159   1.380   4.307
  436SOL     OW 1318   0.240   1.091   4.610
  436SOL    HW1 1319   0.254   1.007   4.662
  436SOL    HW2 1320   0.185   1.155   4.665
  437SOL     OW 1321   0.606   0.964   3.847
  437SOL    HW1 1322   0.613   1.048   3.793
  437SOL    HW2 1323   0.652   0.977   3.935
  438SOL     OW 1324   0.122   0.643   4.287
  438SOL    HW1 1325   0.077   0.555   4.304
  438SOL    HW2 1326   0.121   0.697   4.371
  439SOL     OW 1327   1.842   1.767   4.083
  439SOL    HW1 1328   1.896   1.738   4.163
  439SOL    HW2 1329   1.872   1.857   4.054
  440SOL     OW 1330   0.027   1.596   3.841
  440SOL    HW1 1331   0.008   1.500   3.862
  440SOL    HW2 1332  -0.006   1.654   3.916
  441SOL     OW 1333   1.689   0.922   4.336
  441SOL    HW1 1334   1.784   0.893   4.344
  441SOL    HW2 1335   1.681   0.987   4.261
  442SOL     OW 1336   1.641   1.108   4.156
  442SOL    HW1 1337   1.727   1.110   4.104
  442SOL    HW2 1338   1.655   1.155   4.244
  443SOL     OW 1339   0.613   1.365   4.450
  443SOL    HW1 1340   0.564   1.278   4.459
  443SOL    HW2 1341   0.590   1.408   4.363
  444SOL     OW 1342   0.809   0.004   4.226
  444SOL    HW1 1343   0.849   0.095   4.217
  444SOL    HW2 1344   0.709   0.012   4.232
  445SOL     OW 1345   1.525   0.999   3.914
  445SOL    HW1 1346   1.462   0.923   3.927
  445SOL    HW2 1347   1.573   1.017   4.000
  446SOL     OW 1348   1.466   1.417   4.677
  446SOL    HW1 1349   1.407   1.423   4.757
  446SOL    HW2 1350   1.451   1.329   4.631
  447SOL     OW 1351   1.667   1.714   4.296
  447SOL    HW1 1352   1.626   1.691   4.208
  447SOL    HW2 1353   1.649   1.640   4.361
  448SOL     OW 1354   0.598   0.729   3.994
  448SOL    HW1 1355   0.622   0.798   3.926
  448SOL    HW2 1356   0.520   0.762   4.048
  449SOL     OW 1357   1.281   0.345   4.668
  449SOL    HW1 1358   1.195   0.295   4.655
  449SOL    HW2 1359   1.343   0.291   4.724
  450SOL     OW 1360   1.576   1.662   4.031
  450SOL    HW1 1361   1.665   1.708   4.034
  450SOL    HW2 1362   1.555   1.638   3.936
  451SOL     OW 1363   1.041   0.701   4.153
  451SOL    HW1 1364   1.067   0.697   4.249
  451SOL    HW2 1365   0.956   0.650   4.139
  452SOL     OW 1366   0.076   0.811   4.513
  452SOL    HW1 1367   0.175   0.799   4.522
  452SOL    HW2 1368   0.052   0.906   4.534
  453SOL     OW 1369   0.865   0.348   3.919
  453SOL    HW1 1370   0.924   0.411   3.870
  453SOL    HW2 1371   0.884   0.254   3.890
  454SOL     OW 1372   1.362   1.144   4.269
  454SOL    HW1 1373   1.445   1.115   4.221
  454SOL    HW2 1374   1.313   1.211   4.213
  455SOL     OW 1375   1.008   1.456   4.201
  455SOL    HW1 1376   0.962   1.528   4.149
  455SOL    HW2 1377   1.004   1.476   4.299
  456SOL     OW 1378   0.351   1.801   4.577
  456SOL    HW1 1379   0.401   1.715   4.583
  456SOL    HW2 1380   0.416   1.878   4.574
  457SOL     OW 1381   1.795   1.066   4.597
  457SOL    HW1 1382   1.733   1.051   4.521
  457SOL    HW2 1383   1.743   1.077   4.682
  458SOL     OW 1384   0.321   0.943   3.966
  458SOL    HW1 1385   0.403   0.982   3.924
  458SOL    HW2 1386   0.294   0.861   3.917
  459SOL     OW 1387   1.458   0.735   4.452
  459SOL    HW1 1388   1.453   0.670   4.527
  459SOL    HW2 1389   1.538   0.794   4.465
  460SOL     OW 1390   1.111   1.776   3.961
  460SOL    HW1 1391   1.051   1.714   4.011
  460SOL    HW2 1392   1.142   1.732   3.876
  461SOL     OW 1393   1.632   1.377   3.805
  461SOL    HW1 1394   1.600   1.471   3.795
  461SOL    HW2 1395   1.556   1.314   3.793
  462SOL     OW 1396   0.464   1.743   4.047
  462SOL    HW1 1397   0.497   1.782   4.133
  462SOL    HW2 1398   0.540   1.736   3.982
  463SOL     OW 1399   1.400   0.107   4.150
  463SOL    HW1 1400   1.376   0.070   4.060
  463SOL    HW2 1401   1.499   0.123   4.154
  464SOL     OW 1402   0.382   0.700   4.204
  464SOL    HW1 1403   0.427   0.610   4.201
  464SOL    HW2 1404   0.288   0.689   4.237
  465SOL     OW 1405   0.614   0.122   3.841
  465SOL    HW1 1406   0.712   0.100   3.848
  465SOL    HW2 1407   0.583   0.105   3.748
  466SOL     OW 1408   0.539   0.064   4.236
  466SOL    HW1 1409   0.458   0.065   4.294
  466SOL    HW2 1410   0.542   0.147   4.181
  467SOL     OW 1411   1.434   1.188   3.765
  467SOL    HW1 1412   1.466   1.112   3.822
  467SOL    HW2 1413   1.342   1.215   3.795
  468SOL     OW 1414   0.297   0.035   3.895
  468SOL    HW1 1415   0.346   0.119   3.874
  468SOL    HW2 1416   0.359  -0.030   3.940
  469SOL     OW 1417   0.935   0.236   4.204
  469SOL    HW1 1418   0.887   0.277   4.126
  469SOL    HW2 1419   1.034   0.234   4.185
  470SOL     OW 1420   1.227   1.570   4.517
  470SOL    HW1 1421   1.248   1.644   4.452
  470SOL    HW2 1422   1.295   1.570   4.590
  471SOL     OW 1423   0.459   1.152   4.465
  471SOL    HW1 1424   0.388   1.125   4.530
  471SOL    HW2 1425   0.433   1.124   4.372
  472SOL     OW 1426   1.271   1.797   4.315
  472SOL    HW1 1427   1.315   1.861   4.251
  472SOL    HW2 1428   1.221   1.849   4.385
  473SOL     OW 1429   1.032   0.549   3.740
  473SOL    HW1 1430   0.991   0.631   3.701
  473SOL    HW2 1431   1.096   0.575   3.813
  474SOL     OW 1432   0.866   0.454   4.366
  474SOL    HW1 1433   0.834   0.526   4.304
  474SOL    HW2 1434   0.890   0.373   4.313
  475SOL     OW 1435   1.017   0.039   4.477
  475SOL    HW1 1436   0.945   0.044   4.408
  475SOL    HW2 1437   0.993  -0.030   4.546
  476SOL     OW 1438   1.857   0.833   4.101
  476SOL    HW1 1439   1.899   0.769   4.165
  476SOL    HW2 1440   1.819   0.782   4.023
  477SOL     OW 1441   0.488   1.385   3.898
  477SOL    HW1 1442   0.401   1.370   3.945
  477SOL    HW2 1443   0.471   1.411   3.803
  478SOL     OW 1444   1.664   1.280   4.381
  478SOL    HW1 1445   1.763   1.288   4.395
  478SOL    HW2 1446   1.619   1.364   4.412
  479SOL     OW 1447   1.390   0.575   3.802
  479SOL    HW1 1448   1.336   0.554   3.883
  479SOL    HW2 1449   1.481   0.534   3.811
  480SOL     OW 1450   0.527   0.256   4.052
  480SOL    HW1 1451   0.554   0.197   3.977
  480SOL    HW2 1452   0.527   0.351   4.021
  481SOL     OW 1453   0.705   1.050   4.092
  481SOL    HW1 1454   0.691   1.057   4.191
  481SOL    HW2 1455   0.789   0.999   4.074
  482SOL     OW 1456   0.367   1.100   4.225
  482SOL    HW1 1457   0.360   1.183   4.169
  482SOL    HW2 1458   0.371   1.020   4.165
  483SOL     OW 1459   0.566   0.537   4.589
  483SOL    HW1 1460   0.578   0.603   4.515
  483SOL    HW2 1461   0.612   0.571   4.672
  484SOL     OW 1462   1.252   1.348   4.112
  484SOL    HW1 1463   1.302   1.425   4.152
  484SOL    HW2 1464   1.157   1.350   4.144
  485SOL     OW 1465   1.582   0.639   4.196
  485SOL    HW1 1466   1.551   0.700   4.269
  485SOL    HW2 1467   1.632   0.691   4.127
  486SOL     OW 1468   1.209   0.525   3.999
  486SOL    HW1 1469   1.222   0.441   4.053
  486SOL    HW2 1470   1.180   0.599   4.059
  487SOL     OW 1471   0.732   0.634   4.788
  487SOL    HW1 1472   0.791   0.608   4.712
  487SOL    HW2 1473   0.704   0.730   4.777
  488SOL     OW 1474   0.307   0.063   4.342
  488SOL    HW1 1475   0.296   0.157   4.375
  488SOL    HW2 1476   0.302   0.000   4.419
  489SOL     OW 1477   1.622   0.367   4.098
  489SOL    HW1 1478   1.624   0.291   4.162
  489SOL    HW2 1479   1.574   0.444   4.138
  490SOL     OW 1480   1.540   0.274   3.849
  490SOL    HW1 1481   1.479   0.199   3.872
  490SOL    HW2 1482   1.562   0.326   3.932
  491SOL     OW 1483   1.303   0.838   3.766
  491SOL    HW1 1484   1.337   0.745   3.781
  491SOL    HW2 1485   1.321   0.865   3.671
  492SOL     OW 1486   1.068   1.333   4.573
  492SOL    HW1 1487   1.075   1.249   4.518
  492SOL    HW2 1488   1.130   1.402   4.537
  493SOL     OW 1489   0.008   1.326   3.924
  493SOL    HW1 1490  -0.085   1.347   3.893
  493SOL    HW2 1491   0.018   1.227   3.937
  494SOL     OW 1492   0.088   1.801   4.651
  494SOL    HW1 1493   0.046   1.715   4.624
  494SOL    HW2 1494   0.182   1.804   4.617
  495SOL     OW 1495   0.504   1.568   4.634
  495SOL    HW1 1496   0.570   1.642   4.643
  495SOL    HW2 1497   0.548   1.489   4.592
  496SOL     OW 1498   0.815   0.572   4.049
  496SOL    HW1 1499   0.822   0.483   4.003
  496SOL    HW2 1500   0.721   0.606   4.041
  497SOL     OW 1501   0.473   0.500   3.915
  497SOL    HW1 1502   0.534   0.580   3.919
  497SOL    HW2 1503   0.378   0.531   3.922
  498SOL     OW 1504   1.302   0.855   4.033
  498SOL    HW1 1505   1.216   0.824   4.075
  498SOL    HW2 1506   1.298   0.841   3.934
  499SOL     OW 1507   1.759   1.747   4.878
  499SOL    HW1 1508   1.820   1.777   4.805
  499SOL    HW2 1509   1.721   1.658   4.856
  500SOL     OW 1510   1.726   0.135   4.247
  500SOL    HW1 1511   1.799   0.118   4.180
  500SOL    HW2 1512   1.695   0.048   4.285
  501SOL     OW 1513   1.388   1.573   4.201
  501SOL    HW1 1514   1.455   1.585   4.127
  501SOL    HW2 1515   1.348   1.662   4.224
  502SOL     OW 1516   1.280   0.927   4.396
  502SOL    HW1 1517   1.340   0.846   4.398
  502SOL    HW2 1518   1.320   0.996   4.336
  503SOL     OW 1519   0.672   1.616   3.878
  503SOL    HW1 1520   0.681   1.626   3.779
  503SOL    HW2 1521   0.632   1.527   3.899
  504SOL     OW 1522   1.841   0.175   4.687
  504SOL    HW1 1523   1.880   0.090   4.651
  504SOL    HW2 1524   1.743   0.177   4.668
  505SOL     OW 1525   0.263   0.326   4.444
  505SOL    HW1 1526   0.184   0.377   4.410
  505SOL    HW2 1527   0.254   0.311   4.542
  506SOL     OW 1528   1.194   1.612   3.755
  506SOL    HW1 1529   1.200   1.519   3.792
  506SOL    HW2 1530   1.135   1.612   3.675
  507SOL     OW 1531   0.916   0.910   4.015
  507SOL    HW1 1532   0.979   0.948   3.947
  507SOL    HW2 1533   0.956   0.827   4.054
  508SOL     OW 1534   1.504   1.607   3.768
  508SOL    HW1 1535   1.412   1.644   3.775
  508SOL    HW2 1536   1.542   1.627   3.678
  509SOL     OW 1537   1.039   1.098   4.420
  509SOL    HW1 1538   0.969   1.051   4.474
  509SOL    HW2 1539   1.098   1.030   4.377
  510SOL     OW 1540   0.590   1.487   4.215
  510SOL    HW1 1541   0.632   1.429   4.145
  510SOL    HW2 1542   0.546   1.566   4.171
  511SOL     OW 1543   0.255   1.348   4.014
  511SOL    HW1 1544   0.159   1.349   3.987
  511SOL    HW2 1545   0.267   1.401   4.098
  512SOL     OW 1546   0.075   0.345   3.757
  512SOL    HW1 1547  -0.017   0.317   3.728
  512SOL    HW2 1548   0.106   0.422   3.701
  513SOL     OW 1549   0.072   0.166   4.042
  513SOL    HW1 1550   0.055   0.249   3.988
  513SOL    HW2 1551   0.162   0.129   4.020
  514SOL     OW 1552   1.183   1.335   3.843
  514SOL    HW1 1553   1.084   1.324   3.845
  514SOL    HW2 1554   1.217   1.350   3.936
  515SOL     OW 1555   1.225   0.325   4.173
  515SOL    HW1 1556   1.290   0.251   4.162
  515SOL    HW2 1557   1.245   0.375   4.257
  516SOL     OW 1558   0.594   0.745   4.376
  516SOL    HW1 1559   0.644   0.830   4.357
  516SOL    HW2 1560   0.506   0.747   4.328
  517SOL     OW 1561   0.859   1.374   3.740
  517SOL    HW1 1562   0.813   1.389   3.828
  517SOL    HW2 1563   0.903   1.459   3.710
  518SOL     OW 1564   0.661   1.790   4.677
  518SOL    HW1 1565   0.615   1.878   4.664
  518SOL    HW2 1566   0.760   1.802   4.670
  519SOL     OW 1567   0.859   0.956   4.585
  519SOL    HW1 1568   0.913   0.887   4.633
  519SOL    HW2 1569   0.827   1.025   4.651
  520SOL     OW 1570   1.083   0.984   3.811
  520SOL    HW1 1571   1.060   1.037   3.729
  520SOL    HW2 1572   1.164   0.928   3.792
  521SOL     OW 1573   1.861   1.569   4.575
  521SOL    HW1 1574   1.790   1.557   4.505
  521SOL    HW2 1575   1.862   1.490   4.635
  522SOL     OW 1576   0.079   1.240   4.377
  522SOL    HW1 1577   0.078   1.193   4.465
  522SOL    HW2 1578   0.161   1.212   4.326
  523SOL     OW 1579   1.824   0.192   4.951
  523SOL    HW1 1580   1.820   0.102   4.995
  523SOL    HW2 1581   1.827   0.181   4.852
  524SOL     OW 1582   0.428   0.424   4.244
  524SOL    HW1 1583   0.458   0.352   4.182
  524SOL    HW2 1584   0.389   0.384   4.327
  525SOL     OW 1585   0.812   1.586   4.411
  525SOL    HW1 1586   0.844   1.596   4.317
  525SOL    HW2 1587   0.733   1.524   4.413
  526SOL     OW 1588   0.770   1.330   4.025
  526SOL    HW1 1589   0.724   1.243   4.042
  526SOL    HW2 1590   0.861   1.327   4.066
  527SOL     OW 1591   1.352   0.052   3.892
  527SOL    HW1 1592   1.387   0.011   3.808
  527SOL    HW2 1593   1.262   0.014   3.912
  528SOL     OW 1594   1.300   0.453   4.415
  528SOL    HW1 1595   1.241   0.533   4.419
  528SOL    HW2 1596   1.315   0.418   4.508
  529SOL     OW 1597   1.593   0.221   4.606
  529SOL    HW1 1598   1.509   0.220   4.660
  529SOL    HW2 1599   1.595   0.304   4.550
  530SOL     OW 1600   0.039   1.077   4.024
  530SOL    HW1 1601   0.138   1.066   4.015
  530SOL    HW2 1602  -0.001   0.991   4.056
  531SOL     OW 1603   0.875   1.646   4.061
  531SOL    HW1 1604   0.798   1.611   4.007
  531SOL    HW2 1605   0.843   1.717   4.123
  532SOL     OW 1606   0.230   2.490   0.113
  532SOL    HW1 1607   0.137   2.488   0.150
  532SOL    HW2 1608   0.231   2.451   0.021
  533SOL     OW 1609   0.225   2.137   0.996
  533SOL    HW1 1610   0.260   2.120   1.088
  533SOL    HW2 1611   0.137   2.092   0.984
  534SOL     OW 1612   0.019   2.230   0.647
  534SOL    HW1 1613  -0.063   2.273   0.686
  534SOL    HW2 1614  -0.009   2.157   0.584
  535SOL     OW 1615   0.569   3.137   1.165
  535SOL    HW1 1616   0.476   3.130   1.128
  535SOL    HW2 1617   0.580   3.226   1.209
  536SOL     OW 1618   1.555   3.373   0.703
  536SOL    HW1 1619   1.498   3.357   0.784
  536SOL    HW2 1620   1.496   3.383   0.623
  537SOL     OW 1621   1.135   2.565   0.717
  537SOL    HW1 1622   1.192   2.643   0.692
  537SOL    HW2 1623   1.075   2.591   0.793
  538SOL     OW 1624   1.755   2.469   0.231
  538SOL    HW1 1625   1.743   2.456   0.132
  538SOL    HW2 1626   1.725   2.388   0.280
  539SOL     OW 1627   0.768   3.006   1.023
  539SOL    HW1 1628   0.690   3.023   1.083
  539SOL    HW2 1629   0.802   3.093   0.987
  540SOL     OW 1630   0.850   2.660   1.823
  540SOL    HW1 1631   0.846   2.736   1.888
  540SOL    HW2 1632   0.872   2.696   1.732
  541SOL     OW 1633   0.685   2.874   0.665
  541SOL    HW1 1634   0.754   2.858   0.735
  541SOL    HW2 1635   0.612   2.931   0.703
  542SOL     OW 1636   0.686   3.023   1.803
  542SOL    HW1 1637   0.746   3.102   1.817
  542SOL    HW2 1638   0.600   3.054   1.762
  543SOL     OW 1639   0.335   3.297   1.061
  543SOL    HW1 1640   0.257   3.266   1.008
  543SOL    HW2 1641   0.393   3.355   1.004
  544SOL     OW 1642   1.460   3.367   1.339
  544SOL    HW1 1643   1.484   3.461   1.365
  544SOL    HW2 1644   1.444   3.313   1.421
  545SOL     OW 1645   0.438   2.254   1.499
  545SOL    HW1 1646   0.520   2.198   1.508
  545SOL    HW2 1647   0.357   2.196   1.503
  546SOL     OW 1648   1.603   2.309   0.737
  546SOL    HW1 1649   1.529   2.355   0.687
  546SOL    HW2 1650   1.654   2.377   0.790
  547SOL     OW 1651   0.231   3.575   0.483
  547SOL    HW1 1652   0.265   3.652   0.537
  547SOL    HW2 1653   0.275   3.575   0.393
  548SOL     OW 1654   1.127   3.203   1.690
  548SOL    HW1 1655   1.174   3.203   1.778
  548SOL    HW2 1656   1.079   3.116   1.679
  549SOL     OW 1657   0.230   3.296   0.538
  549SOL    HW1 1658   0.204   3.392   0.538
  549SOL    HW2 1659   0.159   3.242   0.583
  550SOL     OW 1660   0.240   2.953   0.886
  550SOL    HW1 1661   0.254   2.869   0.938
  550SOL    HW2 1662   0.185   3.017   0.941
  551SOL     OW 1663   0.620   3.648   1.439
  551SOL    HW1 1664   0.528   3.631   1.474
  551SOL    HW2 1665   0.648   3.740   1.465
  552SOL     OW 1666   0.606   2.826   0.123
  552SOL    HW1 1667   0.613   2.910   0.069
  552SOL    HW2 1668   0.652   2.839   0.211
  553SOL     OW 1669   1.594   1.976   1.480
  553SOL    HW1 1670   1.576   2.043   1.408
  553SOL    HW2 1671   1.591   2.022   1.569
  554SOL     OW 1672   0.122   2.505   0.563
  554SOL    HW1 1673   0.077   2.417   0.580
  554SOL    HW2 1674   0.121   2.559   0.647
  555SOL     OW 1675   1.842   3.629   0.359
  555SOL    HW1 1676   1.896   3.600   0.439
  555SOL    HW2 1677   1.872   3.719   0.330
  556SOL     OW 1678   0.027   3.458   0.117
  556SOL    HW1 1679   0.008   3.362   0.138
  556SOL    HW2 1680  -0.006   3.516   0.192
  557SOL     OW 1681   1.689   2.784   0.612
  557SOL    HW1 1682   1.784   2.755   0.620
  557SOL    HW2 1683   1.681   2.849   0.537
  558SOL     OW 1684   1.641   2.970   0.432
  558SOL    HW1 1685   1.727   2.972   0.380
  558SOL    HW2 1686   1.655   3.017   0.520
  559SOL     OW 1687   0.113   2.599   1.597
  559SOL    HW1 1688   0.201   2.586   1.642
  559SOL    HW2 1689   0.100   2.696   1.575
  560SOL     OW 1690   0.613   3.227   0.726
  560SOL    HW1 1691   0.564   3.140   0.735
  560SOL    HW2 1692   0.590   3.270   0.639
  561SOL     OW 1693   1.293   3.090   1.423
  561SOL    HW1 1694   1.330   3.017   1.365
  561SOL    HW2 1695   1.345   3.095   1.508
  562SOL     OW 1696   0.809   1.866   0.502
  562SOL    HW1 1697   0.849   1.957   0.493
  562SOL    HW2 1698   0.709   1.874   0.508
  563SOL     OW 1699   0.197   2.838   1.264
  563SOL    HW1 1700   0.286   2.793   1.250
  563SOL    HW2 1701   0.124   2.773   1.245
  564SOL     OW 1702   1.525   2.861   0.190
  564SOL    HW1 1703   1.462   2.785   0.203
  564SOL    HW2 1704   1.573   2.879   0.276
  565SOL     OW 1705   1.187   3.654   1.616
  565SOL    HW1 1706   1.211   3.714   1.540
  565SOL    HW2 1707   1.194   3.559   1.586
  566SOL     OW 1708   0.317   2.113   1.801
  566SOL    HW1 1709   0.388   2.184   1.807
  566SOL    HW2 1710   0.229   2.152   1.829
  567SOL     OW 1711   1.466   3.279   0.953
  567SOL    HW1 1712   1.407   3.285   1.033
  567SOL    HW2 1713   1.451   3.191   0.907
  568SOL     OW 1714   1.667   3.576   0.572
  568SOL    HW1 1715   1.626   3.553   0.484
  568SOL    HW2 1716   1.649   3.502   0.637
  569SOL     OW 1717   0.598   2.591   0.270
  569SOL    HW1 1718   0.622   2.660   0.202
  569SOL    HW2 1719   0.520   2.624   0.324
  570SOL     OW 1720   1.281   2.207   0.944
  570SOL    HW1 1721   1.195   2.157   0.931
  570SOL    HW2 1722   1.343   2.153   1.000
  571SOL     OW 1723   1.576   3.524   0.307
  571SOL    HW1 1724   1.665   3.570   0.310
  571SOL    HW2 1725   1.555   3.500   0.212
  572SOL     OW 1726   0.807   2.467   1.465
  572SOL    HW1 1727   0.760   2.464   1.554
  572SOL    HW2 1728   0.756   2.412   1.399
  573SOL     OW 1729   1.394   2.331   1.674
  573SOL    HW1 1730   1.374   2.374   1.762
  573SOL    HW2 1731   1.472   2.269   1.683
  574SOL     OW 1732   0.973   2.752   1.572
  574SOL    HW1 1733   1.019   2.668   1.543
  574SOL    HW2 1734   0.917   2.786   1.497
  575SOL     OW 1735   0.991   2.272   1.242
  575SOL    HW1 1736   0.914   2.306   1.296
  575SOL    HW2 1737   0.957   2.221   1.163
  576SOL     OW 1738   1.041   2.563   0.429
  576SOL    HW1 1739   1.067   2.559   0.525
  576SOL    HW2 1740   0.956   2.512   0.415
  577SOL     OW 1741   0.076   2.673   0.789
  577SOL    HW1 1742   0.175   2.661   0.798
  577SOL    HW2 1743   0.052   2.768   0.810
  578SOL     OW 1744   0.130   3.683   1.571
  578SOL    HW1 1745   0.120   3.668   1.670
  578SOL    HW2 1746   0.044   3.719   1.535
  579SOL     OW 1747   0.865   2.210   0.195
  579SOL    HW1 1748   0.924   2.273   0.146
  579SOL    HW2 1749   0.884   2.116   0.166
  580SOL     OW 1750   1.719   2.447   1.831
  580SOL    HW1 1751   1.693   2.536   1.795
  580SOL    HW2 1752   1.717   2.379   1.758
  581SOL     OW 1753   1.362   3.006   0.545
  581SOL    HW1 1754   1.445   2.977   0.497
  581SOL    HW2 1755   1.313   3.073   0.489
  582SOL     OW 1756   0.550   2.058   0.885
  582SOL    HW1 1757   0.545   2.053   0.985
  582SOL    HW2 1758   0.552   2.154   0.856
  583SOL     OW 1759   1.008   3.318   0.477
  583SOL    HW1 1760   0.962   3.390   0.425
  583SOL    HW2 1761   1.004   3.338   0.575
  584SOL     OW 1762   0.351   3.663   0.853
  584SOL    HW1 1763   0.401   3.577   0.859
  584SOL    HW2 1764   0.416   3.740   0.850
  585SOL     OW 1765   1.795   2.928   0.873
  585SOL    HW1 1766   1.733   2.913   0.797
  585SOL    HW2 1767   1.743   2.939   0.958
  586SOL     OW 1768   1.227   3.412   1.506
  586SOL    HW1 1769   1.233   3.335   1.570
  586SOL    HW2 1770   1.175   3.386   1.426
  587SOL     OW 1771   0.321   2.805   0.242
  587SOL    HW1 1772   0.403   2.844   0.200
  587SOL    HW2 1773   0.294   2.723   0.193
  588SOL     OW 1774   1.458   2.597   0.728
  588SOL    HW1 1775   1.453   2.532   0.803
  588SOL    HW2 1776   1.538   2.656   0.741
  589SOL     OW 1777   0.461   3.128   1.727
  589SOL    HW1 1778   0.411   3.129   1.641
  589SOL    HW2 1779   0.398   3.110   1.803
  590SOL     OW 1780   1.111   3.638   0.237
  590SOL    HW1 1781   1.051   3.576   0.287
  590SOL    HW2 1782   1.142   3.594   0.152
  591SOL     OW 1783   0.202   2.147   1.498
  591SOL    HW1 1784   0.122   2.207   1.485
  591SOL    HW2 1785   0.192   2.098   1.584
  592SOL     OW 1786   1.632   3.239   0.081
  592SOL    HW1 1787   1.600   3.333   0.071
  592SOL    HW2 1788   1.556   3.176   0.069
  593SOL     OW 1789   0.464   3.605   0.323
  593SOL    HW1 1790   0.497   3.644   0.409
  593SOL    HW2 1791   0.540   3.598   0.258
  594SOL     OW 1792   1.400   1.969   0.426
  594SOL    HW1 1793   1.376   1.932   0.336
  594SOL    HW2 1794   1.499   1.985   0.430
  595SOL     OW 1795   0.249   3.647   1.241
  595SOL    HW1 1796   0.306   3.582   1.291
  595SOL    HW2 1797   0.233   3.614   1.148
  596SOL     OW 1798   0.940   3.560   0.904
  596SOL    HW1 1799   1.020   3.503   0.925
  596SOL    HW2 1800   0.891   3.520   0.827
  597SOL     OW 1801   0.382   2.562   0.480
  597SOL    HW1 1802   0.427   2.472   0.477
  597SOL    HW2 1803   0.288   2.551   0.513
  598SOL     OW 1804   1.547   2.084   1.729
  598SOL    HW1 1805   1.542   2.121   1.821
  598SOL    HW2 1806   1.475   2.015   1.717
  599SOL     OW 1807   0.781   2.126   1.749
  599SOL    HW1 1808   0.848   2.065   1.792
  599SOL    HW2 1809   0.708   2.145   1.814
  600SOL     OW 1810   0.888   3.376   1.195
  600SOL    HW1 1811   0.865   3.351   1.101
  600SOL    HW2 1812   0.949   3.307   1.234
  601SOL     OW 1813   1.351   2.452   1.433
  601SOL    HW1 1814   1.379   2.409   1.518
  601SOL    HW2 1815   1.376   2.548   1.434
  602SOL     OW 1816   0.803   3.264   0.924
  602SOL    HW1 1817   0.893   3.278   0.882
  602SOL    HW2 1818   0.732   3.266   0.853
  603SOL     OW 1819   0.922   2.365   0.899
  603SOL    HW1 1820   0.897   2.356   0.803
  603SOL    HW2 1821   0.970   2.283   0.930
  604SOL     OW 1822   0.539   1.926   0.512
  604SOL    HW1 1823   0.458   1.927   0.570
  604SOL    HW2 1824   0.542   2.009   0.457
  605SOL     OW 1825   1.434   3.050   0.041
  605SOL    HW1 1826   1.466   2.974   0.098
  605SOL    HW2 1827   1.342   3.077   0.071
  606SOL     OW 1828   0.297   1.897   0.171
  606SOL    HW1 1829   0.346   1.981   0.150
  606SOL    HW2 1830   0.359   1.832   0.216
  607SOL     OW 1831   0.935   2.098   0.480
  607SOL    HW1 1832   0.887   2.139   0.402
  607SOL    HW2 1833   1.034   2.096   0.461
  608SOL     OW 1834   1.076   2.545   1.464
  608SOL    HW1 1835   0.996   2.484   1.467
  608SOL    HW2 1836   1.157   2.492   1.440
  609SOL     OW 1837   1.227   3.432   0.793
  609SOL    HW1 1838   1.248   3.506   0.728
  609SOL    HW2 1839   1.295   3.432   0.866
  610SOL     OW 1840   0.459   3.014   0.741
  610SOL    HW1 1841   0.388   2.987   0.806
  610SOL    HW2 1842   0.433   2.986   0.648
  611SOL     OW 1843   1.271   3.659   0.591
  611SOL    HW1 1844   1.315   3.723   0.527
  611SOL    HW2 1845   1.221   3.711   0.661
  612SOL     OW 1846   1.032   2.411   0.016
  612SOL    HW1 1847   0.991   2.493  -0.023
  612SOL    HW2 1848   1.096   2.437   0.089
  613SOL     OW 1849   0.078   2.418   1.386
  613SOL    HW1 1850   0.170   2.417   1.345
  613SOL    HW2 1851   0.072   2.492   1.453
  614SOL     OW 1852   0.561   2.084   1.147
  614SOL    HW1 1853   0.599   2.000   1.184
  614SOL    HW2 1854   0.473   2.103   1.191
  615SOL     OW 1855   0.866   2.316   0.642
  615SOL    HW1 1856   0.834   2.388   0.580
  615SOL    HW2 1857   0.890   2.235   0.589
  616SOL     OW 1858   1.017   1.901   0.753
  616SOL    HW1 1859   0.945   1.906   0.684
  616SOL    HW2 1860   0.993   1.832   0.822
  617SOL     OW 1861   1.429   3.035   0.867
  617SOL    HW1 1862   1.374   2.951   0.860
  617SOL    HW2 1863   1.455   3.064   0.775
  618SOL     OW 1864   1.466   2.452   0.992
  618SOL    HW1 1865   1.436   2.357   0.999
  618SOL    HW2 1866   1.539   2.468   1.058
  619SOL     OW 1867   1.857   2.695   0.377
  619SOL    HW1 1868   1.899   2.631   0.441
  619SOL    HW2 1869   1.819   2.644   0.299
  620SOL     OW 1870   0.488   3.247   0.174
  620SOL    HW1 1871   0.401   3.232   0.221
  620SOL    HW2 1872   0.471   3.273   0.079
  621SOL     OW 1873   1.664   3.142   0.657
  621SOL    HW1 1874   1.763   3.150   0.671
  621SOL    HW2 1875   1.619   3.226   0.688
  622SOL     OW 1876   1.390   2.437   0.078
  622SOL    HW1 1877   1.336   2.416   0.159
  622SOL    HW2 1878   1.481   2.396   0.087
  623SOL     OW 1879   0.527   2.118   0.328
  623SOL    HW1 1880   0.554   2.059   0.253
  623SOL    HW2 1881   0.527   2.213   0.297
  624SOL     OW 1882   1.754   3.085   1.588
  624SOL    HW1 1883   1.845   3.046   1.575
  624SOL    HW2 1884   1.762   3.181   1.612
  625SOL     OW 1885   1.064   3.209   1.340
  625SOL    HW1 1886   0.984   3.186   1.395
  625SOL    HW2 1887   1.147   3.183   1.389
  626SOL     OW 1888   1.592   3.491   1.625
  626SOL    HW1 1889   1.619   3.525   1.535
  626SOL    HW2 1890   1.671   3.453   1.671
  627SOL     OW 1891   1.111   3.057   1.100
  627SOL    HW1 1892   1.071   3.101   1.181
  627SOL    HW2 1893   1.070   3.094   1.017
  628SOL     OW 1894   1.638   2.961   1.079
  628SOL    HW1 1895   1.643   3.042   1.138
  628SOL    HW2 1896   1.552   2.963   1.028
  629SOL     OW 1897   0.915   1.951   1.402
  629SOL    HW1 1898   0.940   1.931   1.307
  629SOL    HW2 1899   0.987   2.007   1.444
  630SOL     OW 1900   0.980   2.978   1.719
  630SOL    HW1 1901   0.881   2.984   1.729
  630SOL    HW2 1902   1.003   2.898   1.663
  631SOL     OW 1903   0.705   2.912   0.368
  631SOL    HW1 1904   0.691   2.919   0.467
  631SOL    HW2 1905   0.789   2.861   0.350
  632SOL     OW 1906   0.410   2.675   1.251
  632SOL    HW1 1907   0.496   2.687   1.301
  632SOL    HW2 1908   0.368   2.588   1.278
  633SOL     OW 1909   1.274   2.248   1.262
  633SOL    HW1 1910   1.295   2.322   1.326
  633SOL    HW2 1911   1.185   2.265   1.219
  634SOL     OW 1912   0.064   3.426   1.331
  634SOL    HW1 1913   0.018   3.508   1.297
  634SOL    HW2 1914   0.162   3.445   1.340
  635SOL     OW 1915   0.367   2.962   0.501
  635SOL    HW1 1916   0.360   3.045   0.445
  635SOL    HW2 1917   0.371   2.882   0.441
  636SOL     OW 1918   0.566   2.399   0.865
  636SOL    HW1 1919   0.578   2.465   0.791
  636SOL    HW2 1920   0.612   2.433   0.948
  637SOL     OW 1921   1.252   3.210   0.388
  637SOL    HW1 1922   1.302   3.287   0.428
  637SOL    HW2 1923   1.157   3.212   0.420
  638SOL     OW 1924   1.272   3.307   1.142
  638SOL    HW1 1925   1.319   3.320   1.229
  638SOL    HW2 1926   1.206   3.233   1.151
  639SOL     OW 1927   1.582   2.501   0.472
  639SOL    HW1 1928   1.551   2.562   0.545
  639SOL    HW2 1929   1.632   2.553   0.403
  640SOL     OW 1930   0.354   3.372   1.329
  640SOL    HW1 1931   0.333   3.328   1.242
  640SOL    HW2 1932   0.451   3.398   1.332
  641SOL     OW 1933   0.402   2.613   1.598
  641SOL    HW1 1934   0.470   2.668   1.551
  641SOL    HW2 1935   0.442   2.525   1.625
  642SOL     OW 1936   1.587   2.641   1.670
  642SOL    HW1 1937   1.495   2.679   1.665
  642SOL    HW2 1938   1.647   2.688   1.605
  643SOL     OW 1939   1.013   1.967   1.770
  643SOL    HW1 1940   1.019   2.052   1.718
  643SOL    HW2 1941   1.045   1.891   1.713
  644SOL     OW 1942   0.504   1.912   1.740
  644SOL    HW1 1943   0.462   1.855   1.670
  644SOL    HW2 1944   0.438   1.981   1.772
  645SOL     OW 1945   0.573   2.732   1.029
  645SOL    HW1 1946   0.617   2.821   1.020
  645SOL    HW2 1947   0.510   2.732   1.106
  646SOL     OW 1948   1.360   2.724   1.045
  646SOL    HW1 1949   1.285   2.724   0.979
  646SOL    HW2 1950   1.397   2.632   1.054
  647SOL     OW 1951   1.209   2.387   0.275
  647SOL    HW1 1952   1.222   2.303   0.329
  647SOL    HW2 1953   1.180   2.461   0.335
  648SOL     OW 1954   0.307   2.075   1.231
  648SOL    HW1 1955   0.284   2.112   1.321
  648SOL    HW2 1956   0.277   1.980   1.225
  649SOL     OW 1957   0.037   3.172   1.282
  649SOL    HW1 1958   0.090   3.123   1.350
  649SOL    HW2 1959   0.059   3.270   1.287
  650SOL     OW 1960   0.732   2.496   1.064
  650SOL    HW1 1961   0.791   2.470   0.988
  650SOL    HW2 1962   0.704   2.592   1.053
  651SOL     OW 1963   1.728   2.797   1.854
  651SOL    HW1 1964   1.682   2.790   1.765
  651SOL    HW2 1965   1.666   2.841   1.920
  652SOL     OW 1966   0.307   1.925   0.618
  652SOL    HW1 1967   0.296   2.019   0.651
  652SOL    HW2 1968   0.302   1.862   0.695
  653SOL     OW 1969   1.622   2.229   0.374
  653SOL    HW1 1970   1.624   2.153   0.438
  653SOL    HW2 1971   1.574   2.306   0.414
  654SOL     OW 1972   1.023   2.628   0.966
  654SOL    HW1 1973   1.038   2.649   1.062
  654SOL    HW2 1974   0.993   2.533   0.957
  655SOL     OW 1975   0.980   3.435   1.700
  655SOL    HW1 1976   0.960   3.479   1.612
  655SOL    HW2 1977   1.019   3.344   1.684
  656SOL     OW 1978   1.859   3.380   1.605
  656SOL    HW1 1979   1.873   3.407   1.510
  656SOL    HW2 1980   1.942   3.402   1.658
  657SOL     OW 1981   0.350   2.760   1.804
  657SOL    HW1 1982   0.426   2.804   1.852
  657SOL    HW2 1983   0.385   2.713   1.722
  658SOL     OW 1984   1.540   2.136   0.125
  658SOL    HW1 1985   1.479   2.061   0.148
  658SOL    HW2 1986   1.562   2.188   0.208
  659SOL     OW 1987   1.303   2.700   0.042
  659SOL    HW1 1988   1.337   2.607   0.057
  659SOL    HW2 1989   1.321   2.727  -0.053
  660SOL     OW 1990   1.068   3.195   0.849
  660SOL    HW1 1991   1.075   3.111   0.794
  660SOL    HW2 1992   1.130   3.264   0.813
  661SOL     OW 1993   0.319   2.672   0.949
  661SOL    HW1 1994   0.412   2.708   0.954
  661SOL    HW2 1995   0.313   2.587   1.001
  662SOL     OW 1996   0.339   2.371   1.006
  662SOL    HW1 1997   0.287   2.288   0.989
  662SOL    HW2 1998   0.416   2.376   0.942
  663SOL     OW 1999   1.138   2.242   1.678
  663SOL    HW1 2000   1.093   2.305   1.742
  663SOL    HW2 2001   1.231   2.273   1.661
  664SOL     OW 2002   1.160   2.069   1.477
  664SOL    HW1 2003   1.160   2.133   1.554
  664SOL    HW2 2004   1.188   2.117   1.394
  665SOL     OW 2005   0.008   3.188   0.200
  665SOL    HW1 2006  -0.085   3.209   0.169
  665SOL    HW2 2007   0.018   3.089   0.213
  666SOL     OW 2008   0.088   3.663   0.927
  666SOL    HW1 2009   0.046   3.577   0.900
  666SOL    HW2 2010   0.182   3.666   0.893
  667SOL     OW 2011   0.504   3.430   0.910
  667SOL    HW1 2012   0.570   3.504   0.919
  667SOL    HW2 2013   0.548   3.351   0.868
  668SOL     OW 2014   1.002   2.658   1.238
  668SOL    HW1 2015   1.043   2.626   1.324
  668SOL    HW2 2016   0.906   2.631   1.235
  669SOL     OW 2017   0.040   2.406   1.114
  669SOL    HW1 2018   0.125   2.373   1.073
  669SOL    HW2 2019   0.053   2.421   1.212
  670SOL     OW 2020   0.189   2.382   1.722
  670SOL    HW1 2021   0.248   2.342   1.652
  670SOL    HW2 2022   0.131   2.453   1.681
  671SOL     OW 2023   1.369   2.812   1.660
  671SOL    HW1 2024   1.408   2.901   1.680
  671SOL    HW2 2025   1.379   2.792   1.563
  672SOL     OW 2026   0.815   2.434   0.325
  672SOL    HW1 2027   0.822   2.345   0.279
  672SOL    HW2 2028   0.721   2.468   0.317
  673SOL     OW 2029   1.657   2.466   1.206
  673SOL    HW1 2030   1.619   2.397   1.268
  673SOL    HW2 2031   1.739   2.430   1.162
  674SOL     OW 2032   0.252   3.426   1.744
  674SOL    HW1 2033   0.222   3.483   1.820
  674SOL    HW2 2034   0.245   3.329   1.770
  675SOL     OW 2035   0.671   2.326   1.269
  675SOL    HW1 2036   0.637   2.237   1.239
  675SOL    HW2 2037   0.697   2.380   1.189
  676SOL     OW 2038   0.930   3.540   1.465
  676SOL    HW1 2039   0.906   3.522   1.370
  676SOL    HW2 2040   0.960   3.634   1.475
  677SOL     OW 2041   0.473   2.362   0.191
  677SOL    HW1 2042   0.534   2.442   0.195
  677SOL    HW2 2043   0.378   2.393   0.198
  678SOL     OW 2044   0.159   2.999   1.466
  678SOL    HW1 2045   0.181   2.938   1.542
  678SOL    HW2 2046   0.169   2.950   1.380
  679SOL     OW 2047   1.347   2.921   1.234
  679SOL    HW1 2048   1.371   2.858   1.160
  679SOL    HW2 2049   1.257   2.961   1.216
  680SOL     OW 2050   1.302   2.717   0.309
  680SOL    HW1 2051   1.216   2.686   0.351
  680SOL    HW2 2052   1.298   2.703   0.210
  681SOL     OW 2053   1.759   3.609   1.154
  681SOL    HW1 2054   1.820   3.639   1.081
  681SOL    HW2 2055   1.721   3.520   1.132
  682SOL     OW 2056   1.252   3.593   1.128
  682SOL    HW1 2057   1.336   3.598   1.074
  682SOL    HW2 2058   1.229   3.497   1.146
  683SOL     OW 2059   0.083   3.120   1.022
  683SOL    HW1 2060   0.078   3.119   1.122
  683SOL    HW2 2061   0.000   3.079   0.984
  684SOL     OW 2062   0.688   3.524   1.716
  684SOL    HW1 2063   0.632   3.605   1.725
  684SOL    HW2 2064   0.740   3.528   1.630
  685SOL     OW 2065   0.903   1.948   0.133
  685SOL    HW1 2066   0.954   1.949   0.047
  685SOL    HW2 2067   0.959   1.906   0.204
  686SOL     OW 2068   1.726   1.997   0.523
  686SOL    HW1 2069   1.799   1.980   0.456
  686SOL    HW2 2070   1.695   1.910   0.561
  687SOL     OW 2071   1.388   3.435   0.477
  687SOL    HW1 2072   1.455   3.447   0.403
  687SOL    HW2 2073   1.348   3.524   0.500
  688SOL     OW 2074   0.130   3.656   1.851
  688SOL    HW1 2075   0.089   3.582   1.904
  688SOL    HW2 2076   0.194   3.707   1.909
  689SOL     OW 2077   1.280   2.789   0.672
  689SOL    HW1 2078   1.340   2.708   0.674
  689SOL    HW2 2079   1.320   2.858   0.612
  690SOL     OW 2080   0.830   3.135   1.422
  690SOL    HW1 2081   0.825   3.168   1.517
  690SOL    HW2 2082   0.744   3.154   1.376
  691SOL     OW 2083   0.672   3.478   0.154
  691SOL    HW1 2084   0.681   3.488   0.055
  691SOL    HW2 2085   0.632   3.389   0.175
  692SOL     OW 2086   1.650   3.582   1.394
  692SOL    HW1 2087   1.703   3.592   1.310
  692SOL    HW2 2088   1.623   3.672   1.428
  693SOL     OW 2089   1.841   2.037   0.963
  693SOL    HW1 2090   1.880   1.952   0.927
  693SOL    HW2 2091   1.743   2.039   0.944
  694SOL     OW 2092   0.263   2.188   0.720
  694SOL    HW1 2093   0.184   2.239   0.686
  694SOL    HW2 2094   0.254   2.173   0.818
  695SOL     OW 2095   1.194   3.474   0.031
  695SOL    HW1 2096   1.200   3.381   0.068
  695SOL    HW2 2097   1.135   3.474  -0.049
  696SOL     OW 2098   0.822   2.864   1.372
  696SOL    HW1 2099   0.862   2.863   1.280
  696SOL    HW2 2100   0.832   2.956   1.412
  697SOL     OW 2101   0.916   2.772   0.291
  697SOL    HW1 2102   0.979   2.810   0.223
  697SOL    HW2 2103   0.956   2.689   0.330
  698SOL     OW 2104   1.504   3.469   0.044
  698SOL    HW1 2105   1.412   3.506   0.051
  698SOL    HW2 2106   1.542   3.489  -0.046
  699SOL     OW 2107   0.372   3.150   1.490
  699SOL    HW1 2108   0.359   3.243   1.456
  699SOL    HW2 2109   0.288   3.098   1.477
  700SOL     OW 2110   1.614   3.154   1.289
  700SOL    HW1 2111   1.674   3.157   1.369
  700SOL    HW2 2112   1.539   3.218   1.302
  701SOL     OW 2113   1.039   2.960   0.696
  701SOL    HW1 2114   0.969   2.913   0.750
  701SOL    HW2 2115   1.098   2.892   0.653
  702SOL     OW 2116   1.014   2.098   0.971
  702SOL    HW1 2117   1.006   2.062   0.878
  702SOL    HW2 2118   1.012   2.022   1.036
  703SOL     OW 2119   0.590   3.349   0.491
  703SOL    HW1 2120   0.632   3.291   0.421
  703SOL    HW2 2121   0.546   3.428   0.447
  704SOL     OW 2122   1.709   2.247   1.381
  704SOL    HW1 2123   1.782   2.316   1.385
  704SOL    HW2 2124   1.737   2.172   1.322
  705SOL     OW 2125   0.255   3.210   0.290
  705SOL    HW1 2126   0.159   3.211   0.263
  705SOL    HW2 2127   0.267   3.263   0.374
  706SOL     OW 2128   0.105   2.875   1.726
  706SOL    HW1 2129   0.028   2.842   1.780
  706SOL    HW2 2130   0.190   2.845   1.768
  707SOL     OW 2131   0.672   2.065   1.489
  707SOL    HW1 2132   0.762   2.049   1.449
  707SOL    HW2 2133   0.680   2.070   1.588
  708SOL     OW 2134   0.075   2.207   0.033
  708SOL    HW1 2135  -0.017   2.179   0.004
  708SOL    HW2 2136   0.106   2.284  -0.023
  709SOL     OW 2137   1.440   2.718   1.398
  709SOL    HW1 2138   1.383   2.770   1.335
  709SOL    HW2 2139   1.536   2.730   1.374
  710SOL     OW 2140   0.072   2.028   0.318
  710SOL    HW1 2141   0.055   2.111   0.264
  710SOL    HW2 2142   0.162   1.991   0.296
  711SOL     OW 2143   1.183   3.197   0.119
  711SOL    HW1 2144   1.084   3.186   0.121
  711SOL    HW2 2145   1.217   3.212   0.212
  712SOL     OW 2146   0.613   2.704   1.431
  712SOL    HW1 2147   0.669   2.785   1.414
  712SOL    HW2 2148   0.672   2.624   1.434
  713SOL     OW 2149   1.493   3.629   0.959
  713SOL    HW1 2150   1.526   3.693   0.890
  713SOL    HW2 2151   1.559   3.623   1.034
  714SOL     OW 2152   0.716   2.427   1.708
  714SOL    HW1 2153   0.735   2.492   1.782
  714SOL    HW2 2154   0.776   2.347   1.717
  715SOL     OW 2155   1.450   3.082   1.633
  715SOL    HW1 2156   1.441   3.072   1.732
  715SOL    HW2 2157   1.546   3.075   1.607
  716SOL     OW 2158   0.390   3.603   1.560
  716SOL    HW1 2159   0.299   3.644   1.558
  716SOL    HW2 2160   0.383   3.509   1.592
  717SOL     OW 2161   1.674   2.745   1.254
  717SOL    HW1 2162   1.647   2.656   1.217
  717SOL    HW2 2163   1.675   2.813   1.181
  718SOL     OW 2164   1.225   2.187   0.449
  718SOL    HW1 2165   1.290   2.113   0.438
  718SOL    HW2 2166   1.245   2.237   0.533
  719SOL     OW 2167   0.594   2.607   0.652
  719SOL    HW1 2168   0.644   2.692   0.633
  719SOL    HW2 2169   0.506   2.609   0.604
  720SOL     OW 2170   1.777   2.204   1.642
  720SOL    HW1 2171   1.760   2.235   1.548
  720SOL    HW2 2172   1.693   2.167   1.680
  721SOL     OW 2173   1.730   2.796   1.517
  721SOL    HW1 2174   1.768   2.887   1.532
  721SOL    HW2 2175   1.722   2.779   1.418
  722SOL     OW 2176   0.859   3.236   0.016
  722SOL    HW1 2177   0.813   3.251   0.104
  722SOL    HW2 2178   0.903   3.321  -0.014
  723SOL     OW 2179   0.661   3.652   0.953
  723SOL    HW1 2180   0.615   3.740   0.940
  723SOL    HW2 2181   0.760   3.664   0.946
  724SOL     OW 2182   0.859   2.818   0.861
  724SOL    HW1 2183   0.913   2.749   0.909
  724SOL    HW2 2184   0.827   2.887   0.927
  725SOL     OW 2185   1.083   2.846   0.087
  725SOL    HW1 2186   1.060   2.899   0.005
  725SOL    HW2 2187   1.164   2.790   0.068
  726SOL     OW 2188   1.861   3.431   0.851
  726SOL    HW1 2189   1.790   3.419   0.781
  726SOL    HW2 2190   1.862   3.352   0.911
  727SOL     OW 2191   0.221   3.176   1.844
  727SOL    HW1 2192   0.156   3.103   1.823
  727SOL    HW2 2193   0.225   3.190   1.942
  728SOL     OW 2194   0.079   3.102   0.653
  728SOL    HW1 2195   0.078   3.055   0.741
  728SOL    HW2 2196   0.161   3.074   0.602
  729SOL     OW 2197   0.672   3.253   1.624
  729SOL    HW1 2198   0.594   3.203   1.662
  729SOL    HW2 2199   0.669   3.348   1.655
  730SOL     OW 2200   1.824   2.054   1.227
  730SOL    HW1 2201   1.820   1.964   1.271
  730SOL    HW2 2202   1.827   2.043   1.128
  731SOL     OW 2203   0.428   2.286   0.520
  731SOL    HW1 2204   0.458   2.214   0.458
  731SOL    HW2 2205   0.389   2.246   0.603
  732SOL     OW 2206   1.705   3.349   1.104
  732SOL    HW1 2207   1.612   3.324   1.077
  732SOL    HW2 2208   1.731   3.299   1.186
  733SOL     OW 2209   0.317   2.409   1.280
  733SOL    HW1 2210   0.355   2.350   1.352
  733SOL    HW2 2211   0.357   2.383   1.192
  734SOL     OW 2212   0.812   3.448   0.687
  734SOL    HW1 2213   0.844   3.458   0.593
  734SOL    HW2 2214   0.733   3.386   0.689
  735SOL     OW 2215   1.424   2.076   1.112
  735SOL    HW1 2216   1.476   2.011   1.167
  735SOL    HW2 2217   1.375   2.139   1.173
  736SOL     OW 2218   1.001   1.896   1.154
  736SOL    HW1 2219   0.938   1.824   1.123
  736SOL    HW2 2220   1.094   1.860   1.154
  737SOL     OW 2221   0.770   3.192   0.301
  737SOL    HW1 2222   0.724   3.105   0.318
  737SOL    HW2 2223   0.861   3.189   0.342
  738SOL     OW 2224   0.618   3.429   1.284
  738SOL    HW1 2225   0.613   3.511   1.341
  738SOL    HW2 2226   0.707   3.426   1.239
  739SOL     OW 2227   1.352   1.914   0.168
  739SOL    HW1 2228   1.387   1.873   0.084
  739SOL    HW2 2229   1.262   1.876   0.188
  740SOL     OW 2230   1.300   2.315   0.691
  740SOL    HW1 2231   1.241   2.395   0.695
  740SOL    HW2 2232   1.315   2.280   0.784
  741SOL     OW 2233   1.593   2.083   0.882
  741SOL    HW1 2234   1.509   2.082   0.936
  741SOL    HW2 2235   1.595   2.166   0.826
  742SOL     OW 2236   0.039   2.939   0.300
  742SOL    HW1 2237   0.138   2.928   0.291
  742SOL    HW2 2238  -0.001   2.853   0.332
  743SOL     OW 2239   0.875   3.508   0.337
  743SOL    HW1 2240   0.798   3.473   0.283
  743SOL    HW2 2241   0.843   3.579   0.399
  744SOL     OW 2242   0.230   2.490   1.975
  744SOL    HW1 2243   0.137   2.488   2.012
  744SOL    HW2 2244   0.231   2.451   1.883
  745SOL     OW 2245   0.225   2.137   2.858
  745SOL    HW1 2246   0.260   2.120   2.950
  745SOL    HW2 2247   0.137   2.092   2.846
  746SOL     OW 2248   0.019   2.230   2.509
  746SOL    HW1 2249  -0.063   2.273   2.548
  746SOL    HW2 2250  -0.009   2.157   2.446
  747SOL     OW 2251   0.569   3.137   3.027
  747SOL    HW1 2252   0.476   3.130   2.990
  747SOL    HW2 2253   0.580   3.226   3.071
  748SOL     OW 2254   1.555   3.373   2.565
  748SOL    HW1 2255   1.498   3.357   2.646
  748SOL    HW2 2256   1.496   3.383   2.485
  749SOL     OW 2257   1.135   2.565   2.579
  749SOL    HW1 2258   1.192   2.643   2.554
  749SOL    HW2 2259   1.075   2.591   2.655
  750SOL     OW 2260   1.755   2.469   2.093
  750SOL    HW1 2261   1.743   2.456   1.994
  750SOL    HW2 2262   1.725   2.388   2.142
  751SOL     OW 2263   0.768   3.006   2.885
  751SOL    HW1 2264   0.690   3.023   2.945
  751SOL    HW2 2265   0.802   3.093   2.849
  752SOL     OW 2266   0.850   2.660   3.685
  752SOL    HW1 2267   0.846   2.736   3.750
  752SOL    HW2 2268   0.872   2.696   3.594
  753SOL     OW 2269   0.685   2.874   2.527
  753SOL    HW1 2270   0.754   2.858   2.597
  753SOL    HW2 2271   0.612   2.931   2.565
  754SOL     OW 2272   0.686   3.023   3.665
  754SOL    HW1 2273   0.746   3.102   3.679
  754SOL    HW2 2274   0.600   3.054   3.624
  755SOL     OW 2275   0.335   3.297   2.923
  755SOL    HW1 2276   0.257   3.266   2.870
  755SOL    HW2 2277   0.393   3.355   2.866
  756SOL     OW 2278   1.460   3.367   3.201
  756SOL    HW1 2279   1.484   3.461   3.227
  756SOL    HW2 2280   1.444   3.313   3.283
  757SOL     OW 2281   0.438   2.254   3.361
  757SOL    HW1 2282   0.520   2.198   3.370
  757SOL    HW2 2283   0.357   2.196   3.365
  758SOL     OW 2284   1.603   2.309   2.599
  758SOL    HW1 2285   1.529   2.355   2.549
  758SOL    HW2 2286   1.654   2.377   2.652
  759SOL     OW 2287   0.231   3.575   2.345
  759SOL    HW1 2288   0.265   3.652   2.399
  759SOL    HW2 2289   0.275   3.575   2.255
  760SOL     OW 2290   1.127   3.203   3.552
  760SOL    HW1 2291   1.174   3.203   3.640
  760SOL    HW2 2292   1.079   3.116   3.541
  761SOL     OW 2293   0.230   3.296   2.400
  761SOL    HW1 2294   0.204   3.392   2.400
  761SOL    HW2 2295   0.159   3.242   2.445
  762SOL     OW 2296   0.240   2.953   2.748
  762SOL    HW1 2297   0.254   2.869   2.800
  762SOL    HW2 2298   0.185   3.017   2.803
  763SOL     OW 2299   0.620   3.648   3.301
  763SOL    HW1 2300   0.528   3.631   3.336
  763SOL    HW2 2301   0.648   3.740   3.327
  764SOL     OW 2302   0.606   2.826   1.985
  764SOL    HW1 2303   0.613   2.910   1.931
  764SOL    HW2 2304   0.652   2.839   2.073
  765SOL     OW 2305   1.594   1.976   3.342
  765SOL    HW1 2306   1.576   2.043   3.270
  765SOL    HW2 2307   1.591   2.022   3.431
  766SOL     OW 2308   0.122   2.505   2.425
  766SOL    HW1 2309   0.077   2.417   2.442
  766SOL    HW2 2310   0.121   2.559   2.509
  767SOL     OW 2311   1.842   3.629   2.221
  767SOL    HW1 2312   1.896   3.600   2.301
  767SOL    HW2 2313   1.872   3.719   2.192
  768SOL     OW 2314   0.027   3.458   1.979
  768SOL    HW1 2315   0.008   3.362   2.000
  768SOL    HW2 2316  -0.006   3.516   2.054
  769SOL     OW 2317   1.689   2.784   2.474
  769SOL    HW1 2318   1.784   2.755   2.482
  769SOL    HW2 2319   1.681   2.849   2.399
  770SOL     OW 2320   1.641   2.970   2.294
  770SOL    HW1 2321   1.727   2.972   2.242
  770SOL    HW2 2322   1.655   3.017   2.382
  771SOL     OW 2323   0.113   2.599   3.459
  771SOL    HW1 2324   0.201   2.586   3.504
  771SOL    HW2 2325   0.100   2.696   3.437
  772SOL     OW 2326   0.613   3.227   2.588
  772SOL    HW1 2327   0.564   3.140   2.597
  772SOL    HW2 2328   0.590   3.270   2.501
  773SOL     OW 2329   1.293   3.090   3.285
  773SOL    HW1 2330   1.330   3.017   3.227
  773SOL    HW2 2331   1.345   3.095   3.370
  774SOL     OW 2332   0.809   1.866   2.364
  774SOL    HW1 2333   0.849   1.957   2.355
  774SOL    HW2 2334   0.709   1.874   2.370
  775SOL     OW 2335   0.197   2.838   3.126
  775SOL    HW1 2336   0.286   2.793   3.112
  775SOL    HW2 2337   0.124   2.773   3.107
  776SOL     OW 2338   1.525   2.861   2.052
  776SOL    HW1 2339   1.462   2.785   2.065
  776SOL    HW2 2340   1.573   2.879   2.138
  777SOL     OW 2341   1.187   3.654   3.478
  777SOL    HW1 2342   1.211   3.714   3.402
  777SOL    HW2 2343   1.194   3.559   3.448
  778SOL     OW 2344   0.317   2.113   3.663
  778SOL    HW1 2345   0.388   2.184   3.669
  778SOL    HW2 2346   0.229   2.152   3.691
  779SOL     OW 2347   1.466   3.279   2.815
  779SOL    HW1 2348   1.407   3.285   2.895
  779SOL    HW2 2349   1.451   3.191   2.769
  780SOL     OW 2350   1.667   3.576   2.434
  780SOL    HW1 2351   1.626   3.553   2.346
  780SOL    HW2 2352   1.649   3.502   2.499
  781SOL     OW 2353   0.598   2.591   2.132
  781SOL    HW1 2354   0.622   2.660   2.064
  781SOL    HW2 2355   0.520   2.624   2.186
  782SOL     OW 2356   1.281   2.207   2.806
  782SOL    HW1 2357   1.195   2.157   2.793
  782SOL    HW2 2358   1.343   2.153   2.862
  783SOL     OW 2359   1.576   3.524   2.169
  783SOL    HW1 2360   1.665   3.570   2.172
  783SOL    HW2 2361   1.555   3.500   2.074
  784SOL     OW 2362   0.807   2.467   3.327
  784SOL    HW1 2363   0.760   2.464   3.416
  784SOL    HW2 2364   0.756   2.412   3.261
  785SOL     OW 2365   1.394   2.331   3.536
  785SOL    HW1 2366   1.374   2.374   3.624
  785SOL    HW2 2367   1.472   2.269   3.545
  786SOL     OW 2368   0.973   2.752   3.434
  786SOL    HW1 2369   1.019   2.668   3.405
  786SOL    HW2 2370   0.917   2.786   3.359
  787SOL     OW 2371   0.991   2.272   3.104
  787SOL    HW1 2372   0.914   2.306   3.158
  787SOL    HW2 2373   0.957   2.221   3.025
  788SOL     OW 2374   1.041   2.563   2.291
  788SOL    HW1 2375   1.067   2.559   2.387
  788SOL    HW2 2376   0.956   2.512   2.277
  789SOL     OW 2377   0.076   2.673   2.651
  789SOL    HW1 2378   0.175   2.661   2.660
  789SOL    HW2 2379   0.052   2.768   2.672
  790SOL     OW 2380   0.130   3.683   3.433
  790SOL    HW1 2381   0.120   3.668   3.532
  790SOL    HW2 2382   0.044   3.719   3.397
  791SOL     OW 2383   0.865   2.210   2.057
  791SOL    HW1 2384   0.924   2.273   2.008
  791SOL    HW2 2385   0.884   2.116   2.028
  792SOL     OW 2386   1.719   2.447   3.693
  792SOL    HW1 2387   1.693   2.536   3.657
  792SOL    HW2 2388   1.717   2.379   3.620
  793SOL     OW 2389   1.362   3.006   2.407
  793SOL    HW1 2390   1.445   2.977   2.359
  793SOL    HW2 2391   1.313   3.073   2.351
  794SOL     OW 2392   0.550   2.058   2.747
  794SOL    HW1 2393   0.545   2.053   2.847
  794SOL    HW2 2394   0.552   2.154   2.718
  795SOL     OW 2395   1.008   3.318   2.339
  795SOL    HW1 2396   0.962   3.390   2.287
  795SOL    HW2 2397   1.004   3.338   2.437
  796SOL     OW 2398   0.351   3.663   2.715
  796SOL    HW1 2399   0.401   3.577   2.721
  796SOL    HW2 2400   0.416   3.740   2.712
  797SOL     OW 2401   1.795   2.928   2.735
  797SOL    HW1 2402   1.733   2.913   2.659
  797SOL    HW2 2403   1.743   2.939   2.820
  798SOL     OW 2404   1.227   3.412   3.368
  798SOL    HW1 2405   1.233   3.335   3.432
  798SOL    HW2 2406   1.175   3.386   3.288
  799SOL     OW 2407   0.321   2.805   2.104
  799SOL    HW1 2408   0.403   2.844   2.062
  799SOL    HW2 2409   0.294   2.723   2.055
  800SOL     OW 2410   1.458   2.597   2.590
  800SOL    HW1 2411   1.453   2.532   2.665
  800SOL    HW2 2412   1.538   2.656   2.603
  801SOL     OW 2413   0.461   3.128   3.589
  801SOL    HW1 2414   0.411   3.129   3.503
  801SOL    HW2 2415   0.398   3.110   3.665
  802SOL     OW 2416   1.111   3.638   2.099
  802SOL    HW1 2417   1.051   3.576   2.149
  802SOL    HW2 2418   1.142   3.594   2.014
  803SOL     OW 2419   0.202   2.147   3.360
  803SOL    HW1 2420   0.122   2.207   3.347
  803SOL    HW2 2421   0.192   2.098   3.446
  804SOL     OW 2422   1.632   3.239   1.943
  804SOL    HW1 2423   1.600   3.333   1.933
  804SOL    HW2 2424   1.556   3.176   1.931
  805SOL     OW 2425   0.464   3.605   2.185
  805SOL    HW1 2426   0.497   3.644   2.271
  805SOL    HW2 2427   0.540   3.598   2.120
  806SOL     OW 2428   1.400   1.969   2.288
  806SOL    HW1 2429   1.376   1.932   2.198
  806SOL    HW2 2430   1.499   1.985   2.292
  807SOL     OW 2431   0.249   3.647   3.103
  807SOL    HW1 2432   0.306   3.582   3.153
  807SOL    HW2 2433   0.233   3.614   3.010
  808SOL     OW 2434   0.940   3.560   2.766
  808SOL    HW1 2435   1.020   3.503   2.787
  808SOL    HW2 2436   0.891   3.520   2.689
  809SOL     OW 2437   0.382   2.562   2.342
  809SOL    HW1 2438   0.427   2.472   2.339
  809SOL    HW2 2439   0.288   2.551   2.375
  810SOL     OW 2440   1.547   2.084   3.591
  810SOL    HW1 2441   1.542   2.121   3.683
  810SOL    HW2 2442   1.475   2.015   3.579
  811SOL     OW 2443   0.614   1.984   1.979
  811SOL    HW1 2444   0.712   1.962   1.986
  811SOL    HW2 2445   0.583   1.967   1.886
  812SOL     OW 2446   0.781   2.126   3.611
  812SOL    HW1 2447   0.848   2.065   3.654
  812SOL    HW2 2448   0.708   2.145   3.676
  813SOL     OW 2449   0.888   3.376   3.057
  813SOL    HW1 2450   0.865   3.351   2.963
  813SOL    HW2 2451   0.949   3.307   3.096
  814SOL     OW 2452   1.351   2.452   3.295
  814SOL    HW1 2453   1.379   2.409   3.380
  814SOL    HW2 2454   1.376   2.548   3.296
  815SOL     OW 2455   0.803   3.264   2.786
  815SOL    HW1 2456   0.893   3.278   2.744
  815SOL    HW2 2457   0.732   3.266   2.715
  816SOL     OW 2458   0.922   2.365   2.761
  816SOL    HW1 2459   0.897   2.356   2.665
  816SOL    HW2 2460   0.970   2.283   2.792
  817SOL     OW 2461   0.539   1.926   2.374
  817SOL    HW1 2462   0.458   1.927   2.432
  817SOL    HW2 2463   0.542   2.009   2.319
  818SOL     OW 2464   1.434   3.050   1.903
  818SOL    HW1 2465   1.466   2.974   1.960
  818SOL    HW2 2466   1.342   3.077   1.933
  819SOL     OW 2467   0.297   1.897   2.033
  819SOL    HW1 2468   0.346   1.981   2.012
  819SOL    HW2 2469   0.359   1.832   2.078
  820SOL     OW 2470   0.935   2.098   2.342
  820SOL    HW1 2471   0.887   2.139   2.264
  820SOL    HW2 2472   1.034   2.096   2.323
  821SOL     OW 2473   1.076   2.545   3.326
  821SOL    HW1 2474   0.996   2.484   3.329
  821SOL    HW2 2475   1.157   2.492   3.302
  822SOL     OW 2476   1.227   3.432   2.655
  822SOL    HW1 2477   1.248   3.506   2.590
  822SOL    HW2 2478   1.295   3.432   2.728
  823SOL     OW 2479   0.459   3.014   2.603
  823SOL    HW1 2480   0.388   2.987   2.668
  823SOL    HW2 2481   0.433   2.986   2.510
  824SOL     OW 2482   1.271   3.659   2.453
  824SOL    HW1 2483   1.315   3.723   2.389
  824SOL    HW2 2484   1.221   3.711   2.523
  825SOL     OW 2485   1.032   2.411   1.878
  825SOL    HW1 2486   0.991   2.493   1.839
  825SOL    HW2 2487   1.096   2.437   1.951
  826SOL     OW 2488   0.078   2.418   3.248
  826SOL    HW1 2489   0.170   2.417   3.207
  826SOL    HW2 2490   0.072   2.492   3.315
  827SOL     OW 2491   0.561   2.084   3.009
  827SOL    HW1 2492   0.599   2.000   3.046
  827SOL    HW2 2493   0.473   2.103   3.053
  828SOL     OW 2494   0.866   2.316   2.504
  828SOL    HW1 2495   0.834   2.388   2.442
  828SOL    HW2 2496   0.890   2.235   2.451
  829SOL     OW 2497   1.017   1.901   2.615
  829SOL    HW1 2498   0.945   1.906   2.546
  829SOL    HW2 2499   0.993   1.832   2.684
  830SOL     OW 2500   1.429   3.035   2.729
  830SOL    HW1 2501   1.374   2.951   2.722
  830SOL    HW2 2502   1.455   3.064   2.637
  831SOL     OW 2503   1.466   2.452   2.854
  831SOL    HW1 2504   1.436   2.357   2.861
  831SOL    HW2 2505   1.539   2.468   2.920
  832SOL     OW 2506   1.857   2.695   2.239
  832SOL    HW1 2507   1.899   2.631   2.303
  832SOL    HW2 2508   1.819   2.644   2.161
  833SOL     OW 2509   0.488   3.247   2.036
  833SOL    HW1 2510   0.401   3.232   2.083
  833SOL    HW2 2511   0.471   3.273   1.941
  834SOL     OW 2512   1.664   3.142   2.519
  834SOL    HW1 2513   1.763   3.150   2.533
  834SOL    HW2 2514   1.619   3.226   2.550
  835SOL     OW 2515   1.390   2.437   1.940
  835SOL    HW1 2516   1.336   2.416   2.021
  835SOL    HW2 2517   1.481   2.396   1.949
  836SOL     OW 2518   0.527   2.118   2.190
  836SOL    HW1 2519   0.554   2.059   2.115
  836SOL    HW2 2520   0.527   2.213   2.159
  837SOL     OW 2521   1.754   3.085   3.450
  837SOL    HW1 2522   1.845   3.046   3.437
  837SOL    HW2 2523   1.762   3.181   3.474
  838SOL     OW 2524   1.064   3.209   3.202
  838SOL    HW1 2525   0.984   3.186   3.257
  838SOL    HW2 2526   1.147   3.183   3.251
  839SOL     OW 2527   1.592   3.491   3.487
  839SOL    HW1 2528   1.619   3.525   3.397
  839SOL    HW2 2529   1.671   3.453   3.533
  840SOL     OW 2530   1.111   3.057   2.962
  840SOL    HW1 2531   1.071   3.101   3.043
  840SOL    HW2 2532   1.070   3.094   2.879
  841SOL     OW 2533   1.638   2.961   2.941
  841SOL    HW1 2534   1.643   3.042   3.000
  841SOL    HW2 2535   1.552   2.963   2.890
  842SOL     OW 2536   0.915   1.951   3.264
  842SOL    HW1 2537   0.940   1.931   3.169
  842SOL    HW2 2538   0.987   2.007   3.306
  843SOL     OW 2539   0.980   2.978   3.581
  843SOL    HW1 2540   0.881   2.984   3.591
  843SOL    HW2 2541   1.003   2.898   3.525
  844SOL     OW 2542   0.705   2.912   2.230
  844SOL    HW1 2543   0.691   2.919   2.329
  844SOL    HW2 2544   0.789   2.861   2.212
  845SOL     OW 2545   0.410   2.675   3.113
  845SOL    HW1 2546   0.496   2.687   3.163
  845SOL    HW2 2547   0.368   2.588   3.140
  846SOL     OW 2548   1.274   2.248   3.124
  846SOL    HW1 2549   1.295   2.322   3.188
  846SOL    HW2 2550   1.185   2.265   3.081
  847SOL     OW 2551   0.064   3.426   3.193
  847SOL    HW1 2552   0.018   3.508   3.159
  847SOL    HW2 2553   0.162   3.445   3.202
  848SOL     OW 2554   0.367   2.962   2.363
  848SOL    HW1 2555   0.360   3.045   2.307
  848SOL    HW2 2556   0.371   2.882   2.303
  849SOL     OW 2557   0.566   2.399   2.727
  849SOL    HW1 2558   0.578   2.465   2.653
  849SOL    HW2 2559   0.612   2.433   2.810
  850SOL     OW 2560   1.252   3.210   2.250
  850SOL    HW1 2561   1.302   3.287   2.290
  850SOL    HW2 2562   1.157   3.212   2.282
  851SOL     OW 2563   1.272   3.307   3.004
  851SOL    HW1 2564   1.319   3.320   3.091
  851SOL    HW2 2565   1.206   3.233   3.013
  852SOL     OW 2566   1.582   2.501   2.334
  852SOL    HW1 2567   1.551   2.562   2.407
  852SOL    HW2 2568   1.632   2.553   2.265
  853SOL     OW 2569   0.354   3.372   3.191
  853SOL    HW1 2570   0.333   3.328   3.104
  853SOL    HW2 2571   0.451   3.398   3.194
  854SOL     OW 2572   0.402   2.613   3.460
  854SOL    HW1 2573   0.470   2.668   3.413
  854SOL    HW2 2574   0.442   2.525   3.487
  855SOL     OW 2575   1.587   2.641   3.532
  855SOL    HW1 2576   1.495   2.679   3.527
  855SOL    HW2 2577   1.647   2.688   3.467
  856SOL     OW 2578   1.013   1.967   3.632
  856SOL    HW1 2579   1.019   2.052   3.580
  856SOL    HW2 2580   1.045   1.891   3.575
  857SOL     OW 2581   0.504   1.912   3.602
  857SOL    HW1 2582   0.462   1.855   3.532
  857SOL    HW2 2583   0.438   1.981   3.634
  858SOL     OW 2584   0.573   2.732   2.891
  858SOL    HW1 2585   0.617   2.821   2.882
  858SOL    HW2 2586   0.510   2.732   2.968
  859SOL     OW 2587   1.360   2.724   2.907
  859SOL    HW1 2588   1.285   2.724   2.841
  859SOL    HW2 2589   1.397   2.632   2.916
  860SOL     OW 2590   1.209   2.387   2.137
  860SOL    HW1 2591   1.222   2.303   2.191
  860SOL    HW2 2592   1.180   2.461   2.197
  861SOL     OW 2593   0.307   2.075   3.093
  861SOL    HW1 2594   0.284   2.112   3.183
  861SOL    HW2 2595   0.277   1.980   3.087
  862SOL     OW 2596   0.037   3.172   3.144
  862SOL    HW1 2597   0.090   3.123   3.212
  862SOL    HW2 2598   0.059   3.270   3.149
  863SOL     OW 2599   0.732   2.496   2.926
  863SOL    HW1 2600   0.791   2.470   2.850
  863SOL    HW2 2601   0.704   2.592   2.915
  864SOL     OW 2602   1.728   2.797   3.716
  864SOL    HW1 2603   1.682   2.790   3.627
  864SOL    HW2 2604   1.666   2.841   3.782
  865SOL     OW 2605   0.307   1.925   2.480
  865SOL    HW1 2606   0.296   2.019   2.513
  865SOL    HW2 2607   0.302   1.862   2.557
  866SOL     OW 2608   1.622   2.229   2.236
  866SOL    HW1 2609   1.624   2.153   2.300
  866SOL    HW2 2610   1.574   2.306   2.276
  867SOL     OW 2611   1.023   2.628   2.828
  867SOL    HW1 2612   1.038   2.649   2.924
  867SOL    HW2 2613   0.993   2.533   2.819
  868SOL     OW 2614   0.980   3.435   3.562
  868SOL    HW1 2615   0.960   3.479   3.474
  868SOL    HW2 2616   1.019   3.344   3.546
  869SOL     OW 2617   1.859   3.380   3.467
  869SOL    HW1 2618   1.873   3.407   3.372
  869SOL    HW2 2619   1.942   3.402   3.520
  870SOL     OW 2620   0.350   2.760   3.666
  870SOL    HW1 2621   0.426   2.804   3.714
  870SOL    HW2 2622   0.385   2.713   3.584
  871SOL     OW 2623   1.540   2.136   1.987
  871SOL    HW1 2624   1.479   2.061   2.010
  871SOL    HW2 2625   1.562   2.188   2.070
  872SOL     OW 2626   1.303   2.700   1.904
  872SOL    HW1 2627   1.337   2.607   1.919
  872SOL    HW2 2628   1.321   2.727   1.809
  873SOL     OW 2629   1.068   3.195   2.711
  873SOL    HW1 2630   1.075   3.111   2.656
  873SOL    HW2 2631   1.130   3.264   2.675
  874SOL     OW 2632   0.319   2.672   2.811
  874SOL    HW1 2633   0.412   2.708   2.816
  874SOL    HW2 2634   0.313   2.587   2.863
  875SOL     OW 2635   0.339   2.371   2.868
  875SOL    HW1 2636   0.287   2.288   2.851
  875SOL    HW2 2637   0.416   2.376   2.804
  876SOL     OW 2638   1.138   2.242   3.540
  876SOL    HW1 2639   1.093   2.305   3.604
  876SOL    HW2 2640   1.231   2.273   3.523
  877SOL     OW 2641   1.160   2.069   3.339
  877SOL    HW1 2642   1.160   2.133   3.416
  877SOL    HW2 2643   1.188   2.117   3.256
  878SOL     OW 2644   0.008   3.188   2.062
  878SOL    HW1 2645  -0.085   3.209   2.031
  878SOL    HW2 2646   0.018   3.089   2.075
  879SOL     OW 2647   0.088   3.663   2.789
  879SOL    HW1 2648   0.046   3.577   2.762
  879SOL    HW2 2649   0.182   3.666   2.755
  880SOL     OW 2650   0.504   3.430   2.772
  880SOL    HW1 2651   0.570   3.504   2.781
  880SOL    HW2 2652   0.548   3.351   2.730
  881SOL     OW 2653   1.002   2.658   3.100
  881SOL    HW1 2654   1.043   2.626   3.186
  881SOL    HW2 2655   0.906   2.631   3.097
  882SOL     OW 2656   0.040   2.406   2.976
  882SOL    HW1 2657   0.125   2.373   2.935
  882SOL    HW2 2658   0.053   2.421   3.074
  883SOL     OW 2659   0.189   2.382   3.584
  883SOL    HW1 2660   0.248   2.342   3.514
  883SOL    HW2 2661   0.131   2.453   3.543
  884SOL     OW 2662   1.369   2.812   3.522
  884SOL    HW1 2663   1.408   2.901   3.542
  884SOL    HW2 2664   1.379   2.792   3.425
  885SOL     OW 2665   0.815   2.434   2.187
  885SOL    HW1 2666   0.822   2.345   2.141
  885SOL    HW2 2667   0.721   2.468   2.179
  886SOL     OW 2668   1.657   2.466   3.068
  886SOL    HW1 2669   1.619   2.397   3.130
  886SOL    HW2 2670   1.739   2.430   3.024
  887SOL     OW 2671   0.252   3.426   3.606
  887SOL    HW1 2672   0.222   3.483   3.682
  887SOL    HW2 2673   0.245   3.329   3.632
  888SOL     OW 2674   0.671   2.326   3.131
  888SOL    HW1 2675   0.637   2.237   3.101
  888SOL    HW2 2676   0.697   2.380   3.051
  889SOL     OW 2677   0.930   3.540   3.327
  889SOL    HW1 2678   0.906   3.522   3.232
  889SOL    HW2 2679   0.960   3.634   3.337
  890SOL     OW 2680   0.473   2.362   2.053
  890SOL    HW1 2681   0.534   2.442   2.057
  890SOL    HW2 2682   0.378   2.393   2.060
  891SOL     OW 2683   0.159   2.999   3.328
  891SOL    HW1 2684   0.181   2.938   3.404
  891SOL    HW2 2685   0.169   2.950   3.242
  892SOL     OW 2686   1.347   2.921   3.096
  892SOL    HW1 2687   1.371   2.858   3.022
  892SOL    HW2 2688   1.257   2.961   3.078
  893SOL     OW 2689   1.302   2.717   2.171
  893SOL    HW1 2690   1.216   2.686   2.213
  893SOL    HW2 2691   1.298   2.703   2.072
  894SOL     OW 2692   1.759   3.609   3.016
  894SOL    HW1 2693   1.820   3.639   2.943
  894SOL    HW2 2694   1.721   3.520   2.994
  895SOL     OW 2695   1.252   3.593   2.990
  895SOL    HW1 2696   1.336   3.598   2.936
  895SOL    HW2 2697   1.229   3.497   3.008
  896SOL     OW 2698   0.083   3.120   2.884
  896SOL    HW1 2699   0.078   3.119   2.984
  896SOL    HW2 2700   0.000   3.079   2.846
  897SOL     OW 2701   0.688   3.524   3.578
  897SOL    HW1 2702   0.632   3.605   3.587
  897SOL    HW2 2703   0.740   3.528   3.492
  898SOL     OW 2704   1.726   1.997   2.385
  898SOL    HW1 2705   1.799   1.980   2.318
  898SOL    HW2 2706   1.695   1.910   2.423
  899SOL     OW 2707   1.388   3.435   2.339
  899SOL    HW1 2708   1.455   3.447   2.265
  899SOL    HW2 2709   1.348   3.524   2.362
  900SOL     OW 2710   0.130   3.656   3.713
  900SOL    HW1 2711   0.089   3.582   3.766
  900SOL    HW2 2712   0.194   3.707   3.771
  901SOL     OW 2713   1.280   2.789   2.534
  901SOL    HW1 2714   1.340   2.708   2.536
  901SOL    HW2 2715   1.320   2.858   2.474
  902SOL     OW 2716   0.830   3.135   3.284
  902SOL    HW1 2717   0.825   3.168   3.379
  902SOL    HW2 2718   0.744   3.154   3.238
  903SOL     OW 2719   0.672   3.478   2.016
  903SOL    HW1 2720   0.681   3.488   1.917
  903SOL    HW2 2721   0.632   3.389   2.037
  904SOL     OW 2722   1.650   3.582   3.256
  904SOL    HW1 2723   1.703   3.592   3.172
  904SOL    HW2 2724   1.623   3.672   3.290
  905SOL     OW 2725   1.841   2.037   2.825
  905SOL    HW1 2726   1.880   1.952   2.789
  905SOL    HW2 2727   1.743   2.039   2.806
  906SOL     OW 2728   0.263   2.188   2.582
  906SOL    HW1 2729   0.184   2.239   2.548
  906SOL    HW2 2730   0.254   2.173   2.680
  907SOL     OW 2731   1.194   3.474   1.893
  907SOL    HW1 2732   1.200   3.381   1.930
  907SOL    HW2 2733   1.135   3.474   1.813
  908SOL     OW 2734   0.822   2.864   3.234
  908SOL    HW1 2735   0.862   2.863   3.142
  908SOL    HW2 2736   0.832   2.956   3.274
  909SOL     OW 2737   0.916   2.772   2.153
  909SOL    HW1 2738   0.979   2.810   2.085
  909SOL    HW2 2739   0.956   2.689   2.192
  910SOL     OW 2740   1.504   3.469   1.906
  910SOL    HW1 2741   1.412   3.506   1.913
  910SOL    HW2 2742   1.542   3.489   1.816
  911SOL     OW 2743   0.372   3.150   3.352
  911SOL    HW1 2744   0.359   3.243   3.318
  911SOL    HW2 2745   0.288   3.098   3.339
  912SOL     OW 2746   1.614   3.154   3.151
  912SOL    HW1 2747   1.674   3.157   3.231
  912SOL    HW2 2748   1.539   3.218   3.164
  913SOL     OW 2749   1.039   2.960   2.558
  913SOL    HW1 2750   0.969   2.913   2.612
  913SOL    HW2 2751   1.098   2.892   2.515
  914SOL     OW 2752   1.014   2.098   2.833
  914SOL    HW1 2753   1.006   2.062   2.740
  914SOL    HW2 2754   1.012   2.022   2.898
  915SOL     OW 2755   0.590   3.349   2.353
  915SOL    HW1 2756   0.632   3.291   2.283
  915SOL    HW2 2757   0.546   3.428   2.309
  916SOL     OW 2758   1.709   2.247   3.243
  916SOL    HW1 2759   1.782   2.316   3.247
  916SOL    HW2 2760   1.737   2.172   3.184
  917SOL     OW 2761   0.255   3.210   2.152
  917SOL    HW1 2762   0.159   3.211   2.125
  917SOL    HW2 2763   0.267   3.263   2.236
  918SOL     OW 2764   0.105   2.875   3.588
  918SOL    HW1 2765   0.028   2.842   3.642
  918SOL    HW2 2766   0.190   2.845   3.630
  919SOL     OW 2767   0.672   2.065   3.351
  919SOL    HW1 2768   0.762   2.049   3.311
  919SOL    HW2 2769   0.680   2.070   3.450
  920SOL     OW 2770   0.075   2.207   1.895
  920SOL    HW1 2771  -0.017   2.179   1.866
  920SOL    HW2 2772   0.106   2.284   1.839
  921SOL     OW 2773   1.440   2.718   3.260
  921SOL    HW1 2774   1.383   2.770   3.197
  921SOL    HW2 2775   1.536   2.730   3.236
  922SOL     OW 2776   0.072   2.028   2.180
  922SOL    HW1 2777   0.055   2.111   2.126
  922SOL    HW2 2778   0.162   1.991   2.158
  923SOL     OW 2779   1.183   3.197   1.981
  923SOL    HW1 2780   1.084   3.186   1.983
  923SOL    HW2 2781   1.217   3.212   2.074
  924SOL     OW 2782   0.613   2.704   3.293
  924SOL    HW1 2783   0.669   2.785   3.276
  924SOL    HW2 2784   0.672   2.624   3.296
  925SOL     OW 2785   1.493   3.629   2.821
  925SOL    HW1 2786   1.526   3.693   2.752
  925SOL    HW2 2787   1.559   3.623   2.896
  926SOL     OW 2788   0.716   2.427   3.570
  926SOL    HW1 2789   0.735   2.492   3.644
  926SOL    HW2 2790   0.776   2.347   3.579
  927SOL     OW 2791   1.450   3.082   3.495
  927SOL    HW1 2792   1.441   3.072   3.594
  927SOL    HW2 2793   1.546   3.075   3.469
  928SOL     OW 2794   0.390   3.603   3.422
  928SOL    HW1 2795   0.299   3.644   3.420
  928SOL    HW2 2796   0.383   3.509   3.454
  929SOL     OW 2797   1.674   2.745   3.116
  929SOL    HW1 2798   1.647   2.656   3.079
  929SOL    HW2 2799   1.675   2.813   3.043
  930SOL     OW 2800   1.225   2.187   2.311
  930SOL    HW1 2801   1.290   2.113   2.300
  930SOL    HW2 2802   1.245   2.237   2.395
  931SOL     OW 2803   0.594   2.607   2.514
  931SOL    HW1 2804   0.644   2.692   2.495
  931SOL    HW2 2805   0.506   2.609   2.466
  932SOL     OW 2806   1.777   2.204   3.504
  932SOL    HW1 2807   1.760   2.235   3.410
  932SOL    HW2 2808   1.693   2.167   3.542
  933SOL     OW 2809   1.730   2.796   3.379
  933SOL    HW1 2810   1.768   2.887   3.394
  933SOL    HW2 2811   1.722   2.779   3.280
  934SOL     OW 2812   0.859   3.236   1.878
  934SOL    HW1 2813   0.813   3.251   1.966
  934SOL    HW2 2814   0.903   3.321   1.848
  935SOL     OW 2815   0.661   3.652   2.815
  935SOL    HW1 2816   0.615   3.740   2.802
  935SOL    HW2 2817   0.760   3.664   2.808
  936SOL     OW 2818   0.859   2.818   2.723
  936SOL    HW1 2819   0.913   2.749   2.771
  936SOL    HW2 2820   0.827   2.887   2.789
  937SOL     OW 2821   1.083   2.846   1.949
  937SOL    HW1 2822   1.060   2.899   1.867
  937SOL    HW2 2823   1.164   2.790   1.930
  938SOL     OW 2824   1.861   3.431   2.713
  938SOL    HW1 2825   1.790   3.419   2.643
  938SOL    HW2 2826   1.862   3.352   2.773
  939SOL     OW 2827   0.221   3.176   3.706
  939SOL    HW1 2828   0.156   3.103   3.685
  939SOL    HW2 2829   0.225   3.190   3.804
  940SOL     OW 2830   0.079   3.102   2.515
  940SOL    HW1 2831   0.078   3.055   2.603
  940SOL    HW2 2832   0.161   3.074   2.464
  941SOL     OW 2833   0.672   3.253   3.486
  941SOL    HW1 2834   0.594   3.203   3.524
  941SOL    HW2 2835   0.669   3.348   3.517
  942SOL     OW 2836   1.824   2.054   3.089
  942SOL    HW1 2837   1.820   1.964   3.133
  942SOL    HW2 2838   1.827   2.043   2.990
  943SOL     OW 2839   0.428   2.286   2.382
  943SOL    HW1 2840   0.458   2.214   2.320
  943SOL    HW2 2841   0.389   2.246   2.465
  944SOL     OW 2842   1.705   3.349   2.966
  944SOL    HW1 2843   1.612   3.324   2.939
  944SOL    HW2 2844   1.731   3.299   3.048
  945SOL     OW 2845   0.317   2.409   3.142
  945SOL    HW1 2846   0.355   2.350   3.214
  945SOL    HW2 2847   0.357   2.383   3.054
  946SOL     OW 2848   0.812   3.448   2.549
  946SOL    HW1 2849   0.844   3.458   2.455
  946SOL    HW2 2850   0.733   3.386   2.551
  947SOL     OW 2851   1.424   2.076   2.974
  947SOL    HW1 2852   1.476   2.011   3.029
  947SOL    HW2 2853   1.375   2.139   3.035
  948SOL     OW 2854   1.001   1.896   3.016
  948SOL    HW1 2855   0.938   1.824   2.985
  948SOL    HW2 2856   1.094   1.860   3.016
  949SOL     OW 2857   0.770   3.192   2.163
  949SOL    HW1 2858   0.724   3.105   2.180
  949SOL    HW2 2859   0.861   3.189   2.204
  950SOL     OW 2860   0.618   3.429   3.146
  950SOL    HW1 2861   0.613   3.511   3.203
  950SOL    HW2 2862   0.707   3.426   3.101
  951SOL     OW 2863   1.352   1.914   2.030
  951SOL    HW1 2864   1.387   1.873   1.946
  951SOL    HW2 2865   1.262   1.876   2.050
  952SOL     OW 2866   1.300   2.315   2.553
  952SOL    HW1 2867   1.241   2.395   2.557
  952SOL    HW2 2868   1.315   2.280   2.646
  953SOL     OW 2869   1.593   2.083   2.744
  953SOL    HW1 2870   1.509   2.082   2.798
  953SOL    HW2 2871   1.595   2.166   2.688
  954SOL     OW 2872   0.039   2.939   2.162
  954SOL    HW1 2873   0.138   2.928   2.153
  954SOL    HW2 2874  -0.001   2.853   2.194
  955SOL     OW 2875   0.875   3.508   2.199
  955SOL    HW1 2876   0.798   3.473   2.145
  955SOL    HW2 2877   0.843   3.579   2.261
  956SOL     OW 2878   0.230   2.490   3.837
  956SOL    HW1 2879   0.137   2.488   3.874
  956SOL    HW2 2880   0.231   2.451   3.745
  957SOL     OW 2881   0.019   2.230   4.371
  957SOL    HW1 2882  -0.063   2.273   4.410
  957SOL    HW2 2883  -0.009   2.157   4.308
  958SOL     OW 2884   1.555   3.373   4.427
  958SOL    HW1 2885   1.498   3.357   4.508
  958SOL    HW2 2886   1.496   3.383   4.347
  959SOL     OW 2887   1.135   2.565   4.441
  959SOL    HW1 2888   1.192   2.643   4.416
  959SOL    HW2 2889   1.075   2.591   4.517
  960SOL     OW 2890   1.755   2.469   3.955
  960SOL    HW1 2891   1.743   2.456   3.856
  960SOL    HW2 2892   1.725   2.388   4.004
  961SOL     OW 2893   0.685   2.874   4.389
  961SOL    HW1 2894   0.754   2.858   4.459
  961SOL    HW2 2895   0.612   2.931   4.427
  962SOL     OW 2896   1.603   2.309   4.461
  962SOL    HW1 2897   1.529   2.355   4.411
  962SOL    HW2 2898   1.654   2.377   4.514
  963SOL     OW 2899   0.231   3.575   4.207
  963SOL    HW1 2900   0.265   3.652   4.261
  963SOL    HW2 2901   0.275   3.575   4.117
  964SOL     OW 2902   0.230   3.296   4.262
  964SOL    HW1 2903   0.204   3.392   4.262
  964SOL    HW2 2904   0.159   3.242   4.307
  965SOL     OW 2905   0.240   2.953   4.610
  965SOL    HW1 2906   0.254   2.869   4.662
  965SOL    HW2 2907   0.185   3.017   4.665
  966SOL     OW 2908   0.606   2.826   3.847
  966SOL    HW1 2909   0.613   2.910   3.793
  966SOL    HW2 2910   0.652   2.839   3.935
  967SOL     OW 2911   0.122   2.505   4.287
  967SOL    HW1 2912   0.077   2.417   4.304
  967SOL    HW2 2913   0.121   2.559   4.371
  968SOL     OW 2914   1.842   3.629   4.083
  968SOL    HW1 2915   1.896   3.600   4.163
  968SOL    HW2 2916   1.872   3.719   4.054
  969SOL     OW 2917   0.027   3.458   3.841
  969SOL    HW1 2918   0.008   3.362   3.862
  969SOL    HW2 2919  -0.006   3.516   3.916
  970SOL     OW 2920   1.689   2.784   4.336
  970SOL    HW1 2921   1.784   2.755   4.344
  970SOL    HW2 2922   1.681   2.849   4.261
  971SOL     OW 2923   1.641   2.970   4.156
  971SOL    HW1 2924   1.727   2.972   4.104
  971SOL    HW2 2925   1.655   3.017   4.244
  972SOL     OW 2926   0.613   3.227   4.450
  972SOL    HW1 2927   0.564   3.140   4.459
  972SOL    HW2 2928   0.590   3.270   4.363
  973SOL     OW 2929   0.809   1.866   4.226
  973SOL    HW1 2930   0.849   1.957   4.217
  973SOL    HW2 2931   0.709   1.874   4.232
  974SOL     OW 2932   1.525   2.861   3.914
  974SOL    HW1 2933   1.462   2.785   3.927
  974SOL    HW2 2934   1.573   2.879   4.000
  975SOL     OW 2935   1.466   3.279   4.677
  975SOL    HW1 2936   1.407   3.285   4.757
  975SOL    HW2 2937   1.451   3.191   4.631
  976SOL     OW 2938   1.667   3.576   4.296
  976SOL    HW1 2939   1.626   3.553   4.208
  976SOL    HW2 2940   1.649   3.502   4.361
  977SOL     OW 2941   0.598   2.591   3.994
  977SOL    HW1 2942   0.622   2.660   3.926
  977SOL    HW2 2943   0.520   2.624   4.048
  978SOL     OW 2944   1.281   2.207   4.668
  978SOL    HW1 2945   1.195   2.157   4.655
  978SOL    HW2 2946   1.343   2.153   4.724
  979SOL     OW 2947   1.576   3.524   4.031
  979SOL    HW1 2948   1.665   3.570   4.034
  979SOL    HW2 2949   1.555   3.500   3.936
  980SOL     OW 2950   1.041   2.563   4.153
  980SOL    HW1 2951   1.067   2.559   4.249
  980SOL    HW2 2952   0.956   2.512   4.139
  981SOL     OW 2953   0.076   2.673   4.513
  981SOL    HW1 2954   0.175   2.661   4.522
  981SOL    HW2 2955   0.052   2.768   4.534
  982SOL     OW 2956   0.865   2.210   3.919
  982SOL    HW1 2957   0.924   2.273   3.870
  982SOL    HW2 2958   0.884   2.116   3.890
  983SOL     OW 2959   1.362   3.006   4.269
  983SOL    HW1 2960   1.445   2.977   4.221
  983SOL    HW2 2961   1.313   3.073   4.213
  984SOL     OW 2962   0.550   2.058   4.609
  984SOL    HW1 2963   0.545   2.053   4.709
  984SOL    HW2 2964   0.552   2.154   4.580
  985SOL     OW 2965   1.008   3.318   4.201
  985SOL    HW1 2966   0.962   3.390   4.149
  985SOL    HW2 2967   1.004   3.338   4.299
  986SOL     OW 2968   0.351   3.663   4.577
  986SOL    HW1 2969   0.401   3.577   4.583
  986SOL    HW2 2970   0.416   3.740   4.574
  987SOL     OW 2971   1.795   2.928   4.597
  987SOL    HW1 2972   1.733   2.913   4.521
  987SOL    HW2 2973   1.743   2.939   4.682
  988SOL     OW 2974   0.321   2.805   3.966
  988SOL    HW1 2975   0.403   2.844   3.924
  988SOL    HW2 2976   0.294   2.723   3.917
  989SOL     OW 2977   1.458   2.597   4.452
  989SOL    HW1 2978   1.453   2.532   4.527
  989SOL    HW2 2979   1.538   2.656   4.465
  990SOL     OW 2980   1.111   3.638   3.961
  990SOL    HW1 2981   1.051   3.576   4.011
  990SOL    HW2 2982   1.142   3.594   3.876
  991SOL     OW 2983   1.632   3.239   3.805
  991SOL    HW1 2984   1.600   3.333   3.795
  991SOL    HW2 2985   1.556   3.176   3.793
  992SOL     OW 2986   0.464   3.605   4.047
  992SOL    HW1 2987   0.497   3.644   4.133
  992SOL    HW2 2988   0.540   3.598   3.982
  993SOL     OW 2989   1.400   1.969   4.150
  993SOL    HW1 2990   1.376   1.932   4.060
  993SOL    HW2 2991   1.499   1.985   4.154
  994SOL     OW 2992   0.382   2.562   4.204
  994SOL    HW1 2993   0.427   2.472   4.201
  994SOL    HW2 2994   0.288   2.551   4.237
  995SOL     OW 2995   0.614   1.984   3.841
  995SOL    HW1 2996   0.712   1.962   3.848
  995SOL    HW2 2997   0.583   1.967   3.748
  996SOL     OW 2998   0.539   1.926   4.236
  996SOL    HW1 2999   0.458   1.927   4.294
  996SOL    HW2 3000   0.542   2.009   4.181
  997SOL     OW 3001   1.434   3.050   3.765
  997SOL    HW1 3002   1.466   2.974   3.822
  997SOL    HW2 3003   1.342   3.077   3.795
  998SOL     OW 3004   0.297   1.897   3.895
  998SOL    HW1 3005   0.346   1.981   3.874
  998SOL    HW2 3006   0.359   1.832   3.940
  999SOL     OW 3007   0.935   2.098   4.204
  999SOL    HW1 3008   0.887   2.139   4.126
  999SOL    HW2 3009   1.034   2.096   4.185
 1000SOL     OW 3010   1.227   3.432   4.517
 1000SOL    HW1 3011   1.248   3.506   4.452
 1000SOL    HW2 3012   1.295   3.432   4.590
 1001SOL     OW 3013   0.459   3.014   4.465
 1001SOL    HW1 3014   0.388   2.987   4.530
 1001SOL    HW2 3015   0.433   2.986   4.372
 1002SOL     OW 3016   1.271   3.659   4.315
 1002SOL    HW1 3017   1.315   3.723   4.251
 1002SOL    HW2 3018   1.221   3.711   4.385
 1003SOL     OW 3019   1.032   2.411   3.740
 1003SOL    HW1 3020   0.991   2.493   3.701
 1003SOL    HW2 3021   1.096   2.437   3.813
 1004SOL     OW 3022   0.866   2.316   4.366
 1004SOL    HW1 3023   0.834   2.388   4.304
 1004SOL    HW2 3024   0.890   2.235   4.313
 1005SOL     OW 3025   1.017   1.901   4.477
 1005SOL    HW1 3026   0.945   1.906   4.408
 1005SOL    HW2 3027   0.993   1.832   4.546
 1006SOL     OW 3028   1.857   2.695   4.101
 1006SOL    HW1 3029   1.899   2.631   4.165
 1006SOL    HW2 3030   1.819   2.644   4.023
 1007SOL     OW 3031   0.488   3.247   3.898
 1007SOL    HW1 3032   0.401   3.232   3.945
 1007SOL    HW2 3033   0.471   3.273   3.803
 1008SOL     OW 3034   1.664   3.142   4.381
 1008SOL    HW1 3035   1.763   3.150   4.395
 1008SOL    HW2 3036   1.619   3.226   4.412
 1009SOL     OW 3037   1.390   2.437   3.802
 1009SOL    HW1 3038   1.336   2.416   3.883
 1009SOL    HW2 3039   1.481   2.396   3.811
 1010SOL     OW 3040   0.527   2.118   4.052
 1010SOL    HW1 3041   0.554   2.059   3.977
 1010SOL    HW2 3042   0.527   2.213   4.021
 1011SOL     OW 3043   0.705   2.912   4.092
 1011SOL    HW1 3044   0.691   2.919   4.191
 1011SOL    HW2 3045   0.789   2.861   4.074
 1012SOL     OW 3046   0.367   2.962   4.225
 1012SOL    HW1 3047   0.360   3.045   4.169
 1012SOL    HW2 3048   0.371   2.882   4.165
 1013SOL     OW 3049   0.566   2.399   4.589
 1013SOL    HW1 3050   0.578   2.465   4.515
 1013SOL    HW2 3051   0.612   2.433   4.672
 1014SOL     OW 3052   1.252   3.210   4.112
 1014SOL    HW1 3053   1.302   3.287   4.152
 1014SOL    HW2 3054   1.157   3.212   4.144
 1015SOL     OW 3055   1.582   2.501   4.196
 1015SOL    HW1 3056   1.551   2.562   4.269
 1015SOL    HW2 3057   1.632   2.553   4.127
 1016SOL     OW 3058   1.209   2.387   3.999
 1016SOL    HW1 3059   1.222   2.303   4.053
 1016SOL    HW2 3060   1.180   2.461   4.059
 1017SOL     OW 3061   0.732   2.496   4.788
 1017SOL    HW1 3062   0.791   2.470   4.712
 1017SOL    HW2 3063   0.704   2.592   4.777
 1018SOL     OW 3064   0.307   1.925   4.342
 1018SOL    HW1 3065   0.296   2.019   4.375
 1018SOL    HW2 3066   0.302   1.862   4.419
 1019SOL     OW 3067   1.622   2.229   4.098
 1019SOL    HW1 3068   1.624   2.153   4.162
 1019SOL    HW2 3069   1.574   2.306   4.138
 1020SOL     OW 3070   1.540   2.136   3.849
 1020SOL    HW1 3071   1.479   2.061   3.872
 1020SOL    HW2 3072   1.562   2.188   3.932
 1021SOL     OW 3073   1.303   2.700   3.766
 1021SOL    HW1 3074   1.337   2.607   3.781
 1021SOL    HW2 3075   1.321   2.727   3.671
 1022SOL     OW 3076   1.068   3.195   4.573
 1022SOL    HW1 3077   1.075   3.111   4.518
 1022SOL    HW2 3078   1.130   3.264   4.537
 1023SOL     OW 3079   0.008   3.188   3.924
 1023SOL    HW1 3080  -0.085   3.209   3.893
 1023SOL    HW2 3081   0.018   3.089   3.937
 1024SOL     OW 3082   0.088   3.663   4.651
 1024SOL    HW1 3083   0.046   3.577   4.624
 1024SOL    HW2 3084   0.182   3.666   4.617
 1025SOL     OW 3085   0.504   3.430   4.634
 1025SOL    HW1 3086   0.570   3.504   4.643
 1025SOL    HW2 3087   0.548   3.351   4.592
 1026SOL     OW 3088   0.815   2.434   4.049
 1026SOL    HW1 3089   0.822   2.345   4.003
 1026SOL    HW2 3090   0.721   2.468   4.041
 1027SOL     OW 3091   0.473   2.362   3.915
 1027SOL    HW1 3092   0.534   2.442   3.919
 1027SOL    HW2 3093   0.378   2.393   3.922
 1028SOL     OW 3094   1.302   2.717   4.033
 1028SOL    HW1 3095   1.216   2.686   4.075
 1028SOL    HW2 3096   1.298   2.703   3.934
 1029SOL     OW 3097   1.759   3.609   4.878
 1029SOL    HW1 3098   1.820   3.639   4.805
 1029SOL    HW2 3099   1.721   3.520   4.856
 1030SOL     OW 3100   1.726   1.997   4.247
 1030SOL    HW1 3101   1.799   1.980   4.180
 1030SOL    HW2 3102   1.695   1.910   4.285
 1031SOL     OW 3103   1.388   3.435   4.201
 1031SOL    HW1 3104   1.455   3.447   4.127
 1031SOL    HW2 3105   1.348   3.524   4.224
 1032SOL     OW 3106   1.280   2.789   4.396
 1032SOL    HW1 3107   1.340   2.708   4.398
 1032SOL    HW2 3108   1.320   2.858   4.336
 1033SOL     OW 3109   0.672   3.478   3.878
 1033SOL    HW1 3110   0.681   3.488   3.779
 1033SOL    HW2 3111   0.632   3.389   3.899
 1034SOL     OW 3112   1.841   2.037   4.687
 1034SOL    HW1 3113   1.880   1.952   4.651
 1034SOL    HW2 3114   1.743   2.039   4.668
 1035SOL     OW 3115   0.263   2.188   4.444
 1035SOL    HW1 3116   0.184   2.239   4.410
 1035SOL    HW2 3117   0.254   2.173   4.542
 1036SOL     OW 3118   1.194   3.474   3.755
 1036SOL    HW1 3119   1.200   3.381   3.792
 1036SOL    HW2 3120   1.135   3.474   3.675
 1037SOL     OW 3121   0.916   2.772   4.015
 1037SOL    HW1 3122   0.979   2.810   3.947
 1037SOL    HW2 3123   0.956   2.689   4.054
 1038SOL     OW 3124   1.504   3.469   3.768
 1038SOL    HW1 3125   1.412   3.506   3.775
 1038SOL    HW2 3126   1.542   3.489   3.678
 1039SOL     OW 3127   1.039   2.960   4.420
 1039SOL    HW1 3128   0.969   2.913   4.474
 1039SOL    HW2 3129   1.098   2.892   4.377
 1040SOL     OW 3130   0.590   3.349   4.215
 1040SOL    HW1 3131   0.632   3.291   4.145
 1040SOL    HW2 3132   0.546   3.428   4.171
 1041SOL     OW 3133   0.255   3.210   4.014
 1041SOL    HW1 3134   0.159   3.211   3.987
 1041SOL    HW2 3135   0.267   3.263   4.098
 1042SOL     OW 3136   0.075   2.207   3.757
 1042SOL    HW1 3137  -0.017   2.179   3.728
 1042SOL    HW2 3138   0.106   2.284   3.701
 1043SOL     OW 3139   0.072   2.028   4.042
 1043SOL    HW1 3140   0.055   2.111   3.988
 1043SOL    HW2 3141   0.162   1.991   4.020
 1044SOL     OW 3142   1.183   3.197   3.843
 1044SOL    HW1 3143   1.084   3.186   3.845
 1044SOL    HW2 3144   1.217   3.212   3.936
 1045SOL     OW 3145   1.225   2.187   4.173
 1045SOL    HW1 3146   1.290   2.113   4.162
 1045SOL    HW2 3147   1.245   2.237   4.257
 1046SOL     OW 3148   0.594   2.607   4.376
 1046SOL    HW1 3149   0.644   2.692   4.357
 1046SOL    HW2 3150   0.506   2.609   4.328
 1047SOL     OW 3151   0.859   3.236   3.740
 1047SOL    HW1 3152   0.813   3.251   3.828
 1047SOL    HW2 3153   0.903   3.321   3.710
 1048SOL     OW 3154   0.661   3.652   4.677
 1048SOL    HW1 3155   0.615   3.740   4.664
 1048SOL    HW2 3156   0.760   3.664   4.670
 1049SOL     OW 3157   0.859   2.818   4.585
 1049SOL    HW1 3158   0.913   2.749   4.633
 1049SOL    HW2 3159   0.827   2.887   4.651
 1050SOL     OW 3160   1.083   2.846   3.811
 1050SOL    HW1 3161   1.060   2.899   3.729
 1050SOL    HW2 3162   1.164   2.790   3.792
 1051SOL     OW 3163   1.861   3.431   4.575
 1051SOL    HW1 3164   1.790   3.419   4.505
 1051SOL    HW2 3165   1.862   3.352   4.635
 1052SOL     OW 3166   0.079   3.102   4.377
 1052SOL    HW1 3167   0.078   3.055   4.465
 1052SOL    HW2 3168   0.161   3.074   4.326
 1053SOL     OW 3169   0.428   2.286   4.244
 1053SOL    HW1 3170   0.458   2.214   4.182
 1053SOL    HW2 3171   0.389   2.246   4.327
 1054SOL     OW 3172   0.812   3.448   4.411
 1054SOL    HW1 3173   0.844   3.458   4.317
 1054SOL    HW2 3174   0.733   3.386   4.413
 1055SOL     OW 3175   0.770   3.192   4.025
 1055SOL    HW1 3176   0.724   3.105   4.042
 1055SOL    HW2 3177   0.861   3.189   4.066
 1056SOL     OW 3178   1.352   1.914   3.892
 1056SOL    HW1 3179   1.387   1.873   3.808
 1056SOL    HW2 3180   1.262   1.876   3.912
 1057SOL     OW 3181   1.300   2.315   4.415
 1057SOL    HW1 3182   1.241   2.395   4.419
 1057SOL    HW2 3183   1.315   2.280   4.508
 1058SOL     OW 3184   1.593   2.083   4.606
 1058SOL    HW1 3185   1.509   2.082   4.660
 1058SOL    HW2 3186   1.595   2.166   4.550
 1059SOL     OW 3187   0.039   2.939   4.024
 1059SOL    HW1 3188   0.138   2.928   4.015
 1059SOL    HW2 3189  -0.001   2.853   4.056
 1060SOL     OW 3190   0.875   3.508   4.061
 1060SOL    HW1 3191   0.798   3.473   4.007
 1060SOL    HW2 3192   0.843   3.579   4.123
 1061SOL     OW 3193   0.230   4.352   0.113
 1061SOL    HW1 3194   0.137   4.350   0.150
 1061SOL    HW2 3195   0.231   4.313   0.021
 1062SOL     OW 3196   0.225   3.999   0.996
 1062SOL    HW1 3197   0.260   3.982   1.088
 1062SOL    HW2 3198   0.137   3.954   0.984
 1063SOL     OW 3199   0.019   4.092   0.647
 1063SOL    HW1 3200  -0.063   4.135   0.686
 1063SOL    HW2 3201  -0.009   4.019   0.584
 1064SOL     OW 3202   1.135   4.427   0.717
 1064SOL    HW1 3203   1.192   4.505   0.692
 1064SOL    HW2 3204   1.075   4.453   0.793
 1065SOL     OW 3205   1.755   4.331   0.231
 1065SOL    HW1 3206   1.743   4.318   0.132
 1065SOL    HW2 3207   1.725   4.250   0.280
 1066SOL     OW 3208   0.850   4.522   1.823
 1066SOL    HW1 3209   0.846   4.598   1.888
 1066SOL    HW2 3210   0.872   4.558   1.732
 1067SOL     OW 3211   0.685   4.736   0.665
 1067SOL    HW1 3212   0.754   4.720   0.735
 1067SOL    HW2 3213   0.612   4.793   0.703
 1068SOL     OW 3214   0.438   4.116   1.499
 1068SOL    HW1 3215   0.520   4.060   1.508
 1068SOL    HW2 3216   0.357   4.058   1.503
 1069SOL     OW 3217   1.603   4.171   0.737
 1069SOL    HW1 3218   1.529   4.217   0.687
 1069SOL    HW2 3219   1.654   4.239   0.790
 1070SOL     OW 3220   1.594   3.838   1.480
 1070SOL    HW1 3221   1.576   3.905   1.408
 1070SOL    HW2 3222   1.591   3.884   1.569
 1071SOL     OW 3223   0.122   4.367   0.563
 1071SOL    HW1 3224   0.077   4.279   0.580
 1071SOL    HW2 3225   0.121   4.421   0.647
 1072SOL     OW 3226   0.113   4.461   1.597
 1072SOL    HW1 3227   0.201   4.448   1.642
 1072SOL    HW2 3228   0.100   4.558   1.575
 1073SOL     OW 3229   0.809   3.728   0.502
 1073SOL    HW1 3230   0.849   3.819   0.493
 1073SOL    HW2 3231   0.709   3.736   0.508
 1074SOL     OW 3232   0.317   3.975   1.801
 1074SOL    HW1 3233   0.388   4.046   1.807
 1074SOL    HW2 3234   0.229   4.014   1.829
 1075SOL     OW 3235   0.598   4.453   0.270
 1075SOL    HW1 3236   0.622   4.522   0.202
 1075SOL    HW2 3237   0.520   4.486   0.324
 1076SOL     OW 3238   1.281   4.069   0.944
 1076SOL    HW1 3239   1.195   4.019   0.931
 1076SOL    HW2 3240   1.343   4.015   1.000
 1077SOL     OW 3241   0.807   4.329   1.465
 1077SOL    HW1 3242   0.760   4.326   1.554
 1077SOL    HW2 3243   0.756   4.274   1.399
 1078SOL     OW 3244   1.394   4.193   1.674
 1078SOL    HW1 3245   1.374   4.236   1.762
 1078SOL    HW2 3246   1.472   4.131   1.683
 1079SOL     OW 3247   0.973   4.614   1.572
 1079SOL    HW1 3248   1.019   4.530   1.543
 1079SOL    HW2 3249   0.917   4.648   1.497
 1080SOL     OW 3250   0.991   4.134   1.242
 1080SOL    HW1 3251   0.914   4.168   1.296
 1080SOL    HW2 3252   0.957   4.083   1.163
 1081SOL     OW 3253   1.041   4.425   0.429
 1081SOL    HW1 3254   1.067   4.421   0.525
 1081SOL    HW2 3255   0.956   4.374   0.415
 1082SOL     OW 3256   0.076   4.535   0.789
 1082SOL    HW1 3257   0.175   4.523   0.798
 1082SOL    HW2 3258   0.052   4.630   0.810
 1083SOL     OW 3259   0.865   4.072   0.195
 1083SOL    HW1 3260   0.924   4.135   0.146
 1083SOL    HW2 3261   0.884   3.978   0.166
 1084SOL     OW 3262   1.719   4.309   1.831
 1084SOL    HW1 3263   1.693   4.398   1.795
 1084SOL    HW2 3264   1.717   4.241   1.758
 1085SOL     OW 3265   0.550   3.920   0.885
 1085SOL    HW1 3266   0.545   3.915   0.985
 1085SOL    HW2 3267   0.552   4.016   0.856
 1086SOL     OW 3268   1.458   4.459   0.728
 1086SOL    HW1 3269   1.453   4.394   0.803
 1086SOL    HW2 3270   1.538   4.518   0.741
 1087SOL     OW 3271   0.202   4.009   1.498
 1087SOL    HW1 3272   0.122   4.069   1.485
 1087SOL    HW2 3273   0.192   3.960   1.584
 1088SOL     OW 3274   1.400   3.831   0.426
 1088SOL    HW1 3275   1.376   3.794   0.336
 1088SOL    HW2 3276   1.499   3.847   0.430
 1089SOL     OW 3277   0.382   4.424   0.480
 1089SOL    HW1 3278   0.427   4.334   0.477
 1089SOL    HW2 3279   0.288   4.413   0.513
 1090SOL     OW 3280   1.547   3.946   1.729
 1090SOL    HW1 3281   1.542   3.983   1.821
 1090SOL    HW2 3282   1.475   3.877   1.717
 1091SOL     OW 3283   0.781   3.988   1.749
 1091SOL    HW1 3284   0.848   3.927   1.792
 1091SOL    HW2 3285   0.708   4.007   1.814
 1092SOL     OW 3286   1.351   4.314   1.433
 1092SOL    HW1 3287   1.379   4.271   1.518
 1092SOL    HW2 3288   1.376   4.410   1.434
 1093SOL     OW 3289   0.922   4.227   0.899
 1093SOL    HW1 3290   0.897   4.218   0.803
 1093SOL    HW2 3291   0.970   4.145   0.930
 1094SOL     OW 3292   0.539   3.788   0.512
 1094SOL    HW1 3293   0.458   3.789   0.570
 1094SOL    HW2 3294   0.542   3.871   0.457
 1095SOL     OW 3295   0.297   3.759   0.171
 1095SOL    HW1 3296   0.346   3.843   0.150
 1095SOL    HW2 3297   0.359   3.694   0.216
 1096SOL     OW 3298   0.935   3.960   0.480
 1096SOL    HW1 3299   0.887   4.001   0.402
 1096SOL    HW2 3300   1.034   3.958   0.461
 1097SOL     OW 3301   1.076   4.407   1.464
 1097SOL    HW1 3302   0.996   4.346   1.467
 1097SOL    HW2 3303   1.157   4.354   1.440
 1098SOL     OW 3304   1.032   4.273   0.016
 1098SOL    HW1 3305   0.991   4.355  -0.023
 1098SOL    HW2 3306   1.096   4.299   0.089
 1099SOL     OW 3307   0.078   4.280   1.386
 1099SOL    HW1 3308   0.170   4.279   1.345
 1099SOL    HW2 3309   0.072   4.354   1.453
 1100SOL     OW 3310   0.561   3.946   1.147
 1100SOL    HW1 3311   0.599   3.862   1.184
 1100SOL    HW2 3312   0.473   3.965   1.191
 1101SOL     OW 3313   0.866   4.178   0.642
 1101SOL    HW1 3314   0.834   4.250   0.580
 1101SOL    HW2 3315   0.890   4.097   0.589
 1102SOL     OW 3316   1.017   3.763   0.753
 1102SOL    HW1 3317   0.945   3.768   0.684
 1102SOL    HW2 3318   0.993   3.694   0.822
 1103SOL     OW 3319   1.466   4.314   0.992
 1103SOL    HW1 3320   1.436   4.219   0.999
 1103SOL    HW2 3321   1.539   4.330   1.058
 1104SOL     OW 3322   1.857   4.557   0.377
 1104SOL    HW1 3323   1.899   4.493   0.441
 1104SOL    HW2 3324   1.819   4.506   0.299
 1105SOL     OW 3325   1.390   4.299   0.078
 1105SOL    HW1 3326   1.336   4.278   0.159
 1105SOL    HW2 3327   1.481   4.258   0.087
 1106SOL     OW 3328   0.527   3.980   0.328
 1106SOL    HW1 3329   0.554   3.921   0.253
 1106SOL    HW2 3330   0.527   4.075   0.297
 1107SOL     OW 3331   0.915   3.813   1.402
 1107SOL    HW1 3332   0.940   3.793   1.307
 1107SOL    HW2 3333   0.987   3.869   1.444
 1108SOL     OW 3334   0.410   4.537   1.251
 1108SOL    HW1 3335   0.496   4.549   1.301
 1108SOL    HW2 3336   0.368   4.450   1.278
 1109SOL     OW 3337   1.274   4.110   1.262
 1109SOL    HW1 3338   1.295   4.184   1.326
 1109SOL    HW2 3339   1.185   4.127   1.219
 1110SOL     OW 3340   0.566   4.261   0.865
 1110SOL    HW1 3341   0.578   4.327   0.791
 1110SOL    HW2 3342   0.612   4.295   0.948
 1111SOL     OW 3343   1.582   4.363   0.472
 1111SOL    HW1 3344   1.551   4.424   0.545
 1111SOL    HW2 3345   1.632   4.415   0.403
 1112SOL     OW 3346   0.402   4.475   1.598
 1112SOL    HW1 3347   0.470   4.530   1.551
 1112SOL    HW2 3348   0.442   4.387   1.625
 1113SOL     OW 3349   1.587   4.503   1.670
 1113SOL    HW1 3350   1.495   4.541   1.665
 1113SOL    HW2 3351   1.647   4.550   1.605
 1114SOL     OW 3352   1.013   3.829   1.770
 1114SOL    HW1 3353   1.019   3.914   1.718
 1114SOL    HW2 3354   1.045   3.753   1.713
 1115SOL     OW 3355   0.504   3.774   1.740
 1115SOL    HW1 3356   0.462   3.717   1.670
 1115SOL    HW2 3357   0.438   3.843   1.772
 1116SOL     OW 3358   0.573   4.594   1.029
 1116SOL    HW1 3359   0.617   4.683   1.020
 1116SOL    HW2 3360   0.510   4.594   1.106
 1117SOL     OW 3361   1.360   4.586   1.045
 1117SOL    HW1 3362   1.285   4.586   0.979
 1117SOL    HW2 3363   1.397   4.494   1.054
 1118SOL     OW 3364   1.209   4.249   0.275
 1118SOL    HW1 3365   1.222   4.165   0.329
 1118SOL    HW2 3366   1.180   4.323   0.335
 1119SOL     OW 3367   0.307   3.937   1.231
 1119SOL    HW1 3368   0.284   3.974   1.321
 1119SOL    HW2 3369   0.277   3.842   1.225
 1120SOL     OW 3370   0.732   4.358   1.064
 1120SOL    HW1 3371   0.791   4.332   0.988
 1120SOL    HW2 3372   0.704   4.454   1.053
 1121SOL     OW 3373   1.728   4.659   1.854
 1121SOL    HW1 3374   1.682   4.652   1.765
 1121SOL    HW2 3375   1.666   4.703   1.920
 1122SOL     OW 3376   0.307   3.787   0.618
 1122SOL    HW1 3377   0.296   3.881   0.651
 1122SOL    HW2 3378   0.302   3.724   0.695
 1123SOL     OW 3379   1.622   4.091   0.374
 1123SOL    HW1 3380   1.624   4.015   0.438
 1123SOL    HW2 3381   1.574   4.168   0.414
 1124SOL     OW 3382   1.023   4.490   0.966
 1124SOL    HW1 3383   1.038   4.511   1.062
 1124SOL    HW2 3384   0.993   4.395   0.957
 1125SOL     OW 3385   1.540   3.998   0.125
 1125SOL    HW1 3386   1.479   3.923   0.148
 1125SOL    HW2 3387   1.562   4.050   0.208
 1126SOL     OW 3388   1.303   4.562   0.042
 1126SOL    HW1 3389   1.337   4.469   0.057
 1126SOL    HW2 3390   1.321   4.589  -0.053
 1127SOL     OW 3391   0.319   4.534   0.949
 1127SOL    HW1 3392   0.412   4.570   0.954
 1127SOL    HW2 3393   0.313   4.449   1.001
 1128SOL     OW 3394   0.339   4.233   1.006
 1128SOL    HW1 3395   0.287   4.150   0.989
 1128SOL    HW2 3396   0.416   4.238   0.942
 1129SOL     OW 3397   1.138   4.104   1.678
 1129SOL    HW1 3398   1.093   4.167   1.742
 1129SOL    HW2 3399   1.231   4.135   1.661
 1130SOL     OW 3400   1.160   3.931   1.477
 1130SOL    HW1 3401   1.160   3.995   1.554
 1130SOL    HW2 3402   1.188   3.979   1.394
 1131SOL     OW 3403   1.002   4.520   1.238
 1131SOL    HW1 3404   1.043   4.488   1.324
 1131SOL    HW2 3405   0.906   4.493   1.235
 1132SOL     OW 3406   0.040   4.268   1.114
 1132SOL    HW1 3407   0.125   4.235   1.073
 1132SOL    HW2 3408   0.053   4.283   1.212
 1133SOL     OW 3409   0.189   4.244   1.722
 1133SOL    HW1 3410   0.248   4.204   1.652
 1133SOL    HW2 3411   0.131   4.315   1.681
 1134SOL     OW 3412   0.815   4.296   0.325
 1134SOL    HW1 3413   0.822   4.207   0.279
 1134SOL    HW2 3414   0.721   4.330   0.317
 1135SOL     OW 3415   1.657   4.328   1.206
 1135SOL    HW1 3416   1.619   4.259   1.268
 1135SOL    HW2 3417   1.739   4.292   1.162
 1136SOL     OW 3418   0.671   4.188   1.269
 1136SOL    HW1 3419   0.637   4.099   1.239
 1136SOL    HW2 3420   0.697   4.242   1.189
 1137SOL     OW 3421   0.473   4.224   0.191
 1137SOL    HW1 3422   0.534   4.304   0.195
 1137SOL    HW2 3423   0.378   4.255   0.198
 1138SOL     OW 3424   1.302   4.579   0.309
 1138SOL    HW1 3425   1.216   4.548   0.351
 1138SOL    HW2 3426   1.298   4.565   0.210
 1139SOL     OW 3427   0.903   3.810   0.133
 1139SOL    HW1 3428   0.954   3.811   0.047
 1139SOL    HW2 3429   0.959   3.768   0.204
 1140SOL     OW 3430   1.726   3.859   0.523
 1140SOL    HW1 3431   1.799   3.842   0.456
 1140SOL    HW2 3432   1.695   3.772   0.561
 1141SOL     OW 3433   1.280   4.651   0.672
 1141SOL    HW1 3434   1.340   4.570   0.674
 1141SOL    HW2 3435   1.320   4.720   0.612
 1142SOL     OW 3436   1.841   3.899   0.963
 1142SOL    HW1 3437   1.880   3.814   0.927
 1142SOL    HW2 3438   1.743   3.901   0.944
 1143SOL     OW 3439   0.263   4.050   0.720
 1143SOL    HW1 3440   0.184   4.101   0.686
 1143SOL    HW2 3441   0.254   4.035   0.818
 1144SOL     OW 3442   1.014   3.960   0.971
 1144SOL    HW1 3443   1.006   3.924   0.878
 1144SOL    HW2 3444   1.012   3.884   1.036
 1145SOL     OW 3445   1.709   4.109   1.381
 1145SOL    HW1 3446   1.782   4.178   1.385
 1145SOL    HW2 3447   1.737   4.034   1.322
 1146SOL     OW 3448   0.105   4.737   1.726
 1146SOL    HW1 3449   0.028   4.704   1.780
 1146SOL    HW2 3450   0.190   4.707   1.768
 1147SOL     OW 3451   0.672   3.927   1.489
 1147SOL    HW1 3452   0.762   3.911   1.449
 1147SOL    HW2 3453   0.680   3.932   1.588
 1148SOL     OW 3454   0.075   4.069   0.033
 1148SOL    HW1 3455  -0.017   4.041   0.004
 1148SOL    HW2 3456   0.106   4.146  -0.023
 1149SOL     OW 3457   1.440   4.580   1.398
 1149SOL    HW1 3458   1.383   4.632   1.335
 1149SOL    HW2 3459   1.536   4.592   1.374
 1150SOL     OW 3460   0.072   3.890   0.318
 1150SOL    HW1 3461   0.055   3.973   0.264
 1150SOL    HW2 3462   0.162   3.853   0.296
 1151SOL     OW 3463   0.613   4.566   1.431
 1151SOL    HW1 3464   0.669   4.647   1.414
 1151SOL    HW2 3465   0.672   4.486   1.434
 1152SOL     OW 3466   0.716   4.289   1.708
 1152SOL    HW1 3467   0.735   4.354   1.782
 1152SOL    HW2 3468   0.776   4.209   1.717
 1153SOL     OW 3469   1.674   4.607   1.254
 1153SOL    HW1 3470   1.647   4.518   1.217
 1153SOL    HW2 3471   1.675   4.675   1.181
 1154SOL     OW 3472   1.225   4.049   0.449
 1154SOL    HW1 3473   1.290   3.975   0.438
 1154SOL    HW2 3474   1.245   4.099   0.533
 1155SOL     OW 3475   0.594   4.469   0.652
 1155SOL    HW1 3476   0.644   4.554   0.633
 1155SOL    HW2 3477   0.506   4.471   0.604
 1156SOL     OW 3478   1.777   4.066   1.642
 1156SOL    HW1 3479   1.760   4.097   1.548
 1156SOL    HW2 3480   1.693   4.029   1.680
 1157SOL     OW 3481   1.730   4.658   1.517
 1157SOL    HW1 3482   1.768   4.749   1.532
 1157SOL    HW2 3483   1.722   4.641   1.418
 1158SOL     OW 3484   1.824   3.916   1.227
 1158SOL    HW1 3485   1.820   3.826   1.271
 1158SOL    HW2 3486   1.827   3.905   1.128
 1159SOL     OW 3487   0.428   4.148   0.520
 1159SOL    HW1 3488   0.458   4.076   0.458
 1159SOL    HW2 3489   0.389   4.108   0.603
 1160SOL     OW 3490   0.317   4.271   1.280
 1160SOL    HW1 3491   0.355   4.212   1.352
 1160SOL    HW2 3492   0.357   4.245   1.192
 1161SOL     OW 3493   1.424   3.938   1.112
 1161SOL    HW1 3494   1.476   3.873   1.167
 1161SOL    HW2 3495   1.375   4.001   1.173
 1162SOL     OW 3496   1.001   3.758   1.154
 1162SOL    HW1 3497   0.938   3.686   1.123
 1162SOL    HW2 3498   1.094   3.722   1.154
 1163SOL     OW 3499   1.352   3.776   0.168
 1163SOL    HW1 3500   1.387   3.735   0.084
 1163SOL    HW2 3501   1.262   3.738   0.188
 1164SOL     OW 3502   1.300   4.177   0.691
 1164SOL    HW1 3503   1.241   4.257   0.695
 1164SOL    HW2 3504   1.315   4.142   0.784
 1165SOL     OW 3505   1.593   3.945   0.882
 1165SOL    HW1 3506   1.509   3.944   0.936
 1165SOL    HW2 3507   1.595   4.028   0.826
 1166SOL     OW 3508   0.230   4.352   1.975
 1166SOL    HW1 3509   0.137   4.350   2.012
 1166SOL    HW2 3510   0.231   4.313   1.883
 1167SOL     OW 3511   0.225   3.999   2.858
 1167SOL    HW1 3512   0.260   3.982   2.950
 1167SOL    HW2 3513   0.137   3.954   2.846
 1168SOL     OW 3514   0.019   4.092   2.509
 1168SOL    HW1 3515  -0.063   4.135   2.548
 1168SOL    HW2 3516  -0.009   4.019   2.446
 1169SOL     OW 3517   1.135   4.427   2.579
 1169SOL    HW1 3518   1.192   4.505   2.554
 1169SOL    HW2 3519   1.075   4.453   2.655
 1170SOL     OW 3520   1.755   4.331   2.093
 1170SOL    HW1 3521   1.743   4.318   1.994
 1170SOL    HW2 3522   1.725   4.250   2.142
 1171SOL     OW 3523   0.850   4.522   3.685
 1171SOL    HW1 3524   0.846   4.598   3.750
 1171SOL    HW2 3525   0.872   4.558   3.594
 1172SOL     OW 3526   0.685   4.736   2.527
 1172SOL    HW1 3527   0.754   4.720   2.597
 1172SOL    HW2 3528   0.612   4.793   2.565
 1173SOL     OW 3529   0.438   4.116   3.361
 1173SOL    HW1 3530   0.520   4.060   3.370
 1173SOL    HW2 3531   0.357   4.058   3.365
 1174SOL     OW 3532   1.603   4.171   2.599
 1174SOL    HW1 3533   1.529   4.217   2.549
 1174SOL    HW2 3534   1.654   4.239   2.652
 1175SOL     OW 3535   1.594   3.838   3.342
 1175SOL    HW1 3536   1.576   3.905   3.270
 1175SOL    HW2 3537   1.591   3.884   3.431
 1176SOL     OW 3538   0.122   4.367   2.425
 1176SOL    HW1 3539   0.077   4.279   2.442
 1176SOL    HW2 3540   0.121   4.421   2.509
 1177SOL     OW 3541   0.113   4.461   3.459
 1177SOL    HW1 3542   0.201   4.448   3.504
 1177SOL    HW2 3543   0.100   4.558   3.437
 1178SOL     OW 3544   0.809   3.728   2.364
 1178SOL    HW1 3545   0.849   3.819   2.355
 1178SOL    HW2 3546   0.709   3.736   2.370
 1179SOL     OW 3547   0.317   3.975   3.663
 1179SOL    HW1 3548   0.388   4.046   3.669
 1179SOL    HW2 3549   0.229   4.014   3.691
 1180SOL     OW 3550   0.598   4.453   2.132
 1180SOL    HW1 3551   0.622   4.522   2.064
 1180SOL    HW2 3552   0.520   4.486   2.186
 1181SOL     OW 3553   1.281   4.069   2.806
 1181SOL    HW1 3554   1.195   4.019   2.793
 1181SOL    HW2 3555   1.343   4.015   2.862
 1182SOL     OW 3556   0.807   4.329   3.327
 1182SOL    HW1 3557   0.760   4.326   3.416
 1182SOL    HW2 3558   0.756   4.274   3.261
 1183SOL     OW 3559   1.394   4.193   3.536
 1183SOL    HW1 3560   1.374   4.236   3.624
 1183SOL    HW2 3561   1.472   4.131   3.545
 1184SOL     OW 3562   0.973   4.614   3.434
 1184SOL    HW1 3563   1.019   4.530   3.405
 1184SOL    HW2 3564   0.917   4.648   3.359
 1185SOL     OW 3565   0.991   4.134   3.104
 1185SOL    HW1 3566   0.914   4.168   3.158
 1185SOL    HW2 3567   0.957   4.083   3.025
 1186SOL     OW 3568   1.041   4.425   2.291
 1186SOL    HW1 3569   1.067   4.421   2.387
 1186SOL    HW2 3570   0.956   4.374   2.277
 1187SOL     OW 3571   0.076   4.535   2.651
 1187SOL    HW1 3572   0.175   4.523   2.660
 1187SOL    HW2 3573   0.052   4.630   2.672
 1188SOL     OW 3574   0.865   4.072   2.057
 1188SOL    HW1 3575   0.924   4.135   2.008
 1188SOL    HW2 3576   0.884   3.978   2.028
 1189SOL     OW 3577   1.719   4.309   3.693
 1189SOL    HW1 3578   1.693   4.398   3.657
 1189SOL    HW2 3579   1.717   4.241   3.620
 1190SOL     OW 3580   0.550   3.920   2.747
 1190SOL    HW1 3581   0.545   3.915   2.847
 1190SOL    HW2 3582   0.552   4.016   2.718
 1191SOL     OW 3583   1.458   4.459   2.590
 1191SOL    HW1 3584   1.453   4.394   2.665
 1191SOL    HW2 3585   1.538   4.518   2.603
 1192SOL     OW 3586   0.202   4.009   3.360
 1192SOL    HW1 3587   0.122   4.069   3.347
 1192SOL    HW2 3588   0.192   3.960   3.446
 1193SOL     OW 3589   1.400   3.831   2.288
 1193SOL    HW1 3590   1.376   3.794   2.198
 1193SOL    HW2 3591   1.499   3.847   2.292
 1194SOL     OW 3592   0.382   4.424   2.342
 1194SOL    HW1 3593   0.427   4.334   2.339
 1194SOL    HW2 3594   0.288   4.413   2.375
 1195SOL     OW 3595   1.547   3.946   3.591
 1195SOL    HW1 3596   1.542   3.983   3.683
 1195SOL    HW2 3597   1.475   3.877   3.579
 1196SOL     OW 3598   0.614   3.846   1.979
 1196SOL    HW1 3599   0.712   3.824   1.986
 1196SOL    HW2 3600   0.583   3.829   1.886
 1197SOL     OW 3601   0.781   3.988   3.611
 1197SOL    HW1 3602   0.848   3.927   3.654
 1197SOL    HW2 3603   0.708   4.007   3.676
 1198SOL     OW 3604   1.351   4.314   3.295
 1198SOL    HW1 3605   1.379   4.271   3.380
 1198SOL    HW2 3606   1.376   4.410   3.296
 1199SOL     OW 3607   0.922   4.227   2.761
 1199SOL    HW1 3608   0.897   4.218   2.665
 1199SOL    HW2 3609   0.970   4.145   2.792
 1200SOL     OW 3610   0.539   3.788   2.374
 1200SOL    HW1 3611   0.458   3.789   2.432
 1200SOL    HW2 3612   0.542   3.871   2.319
 1201SOL     OW 3613   0.297   3.759   2.033
 1201SOL    HW1 3614   0.346   3.843   2.012
 1201SOL    HW2 3615   0.359   3.694   2.078
 1202SOL     OW 3616   0.935   3.960   2.342
 1202SOL    HW1 3617   0.887   4.001   2.264
 1202SOL    HW2 3618   1.034   3.958   2.323
 1203SOL     OW 3619   1.076   4.407   3.326
 1203SOL    HW1 3620   0.996   4.346   3.329
 1203SOL    HW2 3621   1.157   4.354   3.302
 1204SOL     OW 3622   1.032   4.273   1.878
 1204SOL    HW1 3623   0.991   4.355   1.839
 1204SOL    HW2 3624   1.096   4.299   1.951
 1205SOL     OW 3625   0.078   4.280   3.248
 1205SOL    HW1 3626   0.170   4.279   3.207
 1205SOL    HW2 3627   0.072   4.354   3.315
 1206SOL     OW 3628   0.561   3.946   3.009
 1206SOL    HW1 3629   0.599   3.862   3.046
 1206SOL    HW2 3630   0.473   3.965   3.053
 1207SOL     OW 3631   0.866   4.178   2.504
 1207SOL    HW1 3632   0.834   4.250   2.442
 1207SOL    HW2 3633   0.890   4.097   2.451
 1208SOL     OW 3634   1.017   3.763   2.615
 1208SOL    HW1 3635   0.945   3.768   2.546
 1208SOL    HW2 3636   0.993   3.694   2.684
 1209SOL     OW 3637   1.466   4.314   2.854
 1209SOL    HW1 3638   1.436   4.219   2.861
 1209SOL    HW2 3639   1.539   4.330   2.920
 1210SOL     OW 3640   1.857   4.557   2.239
 1210SOL    HW1 3641   1.899   4.493   2.303
 1210SOL    HW2 3642   1.819   4.506   2.161
 1211SOL     OW 3643   1.390   4.299   1.940
 1211SOL    HW1 3644   1.336   4.278   2.021
 1211SOL    HW2 3645   1.481   4.258   1.949
 1212SOL     OW 3646   0.527   3.980   2.190
 1212SOL    HW1 3647   0.554   3.921   2.115
 1212SOL    HW2 3648   0.527   4.075   2.159
 1213SOL     OW 3649   0.915   3.813   3.264
 1213SOL    HW1 3650   0.940   3.793   3.169
 1213SOL    HW2 3651   0.987   3.869   3.306
 1214SOL     OW 3652   0.410   4.537   3.113
 1214SOL    HW1 3653   0.496   4.549   3.163
 1214SOL    HW2 3654   0.368   4.450   3.140
 1215SOL     OW 3655   1.274   4.110   3.124
 1215SOL    HW1 3656   1.295   4.184   3.188
 1215SOL    HW2 3657   1.185   4.127   3.081
 1216SOL     OW 3658   0.566   4.261   2.727
 1216SOL    HW1 3659   0.578   4.327   2.653
 1216SOL    HW2 3660   0.612   4.295   2.810
 1217SOL     OW 3661   1.582   4.363   2.334
 1217SOL    HW1 3662   1.551   4.424   2.407
 1217SOL    HW2 3663   1.632   4.415   2.265
 1218SOL     OW 3664   0.402   4.475   3.460
 1218SOL    HW1 3665   0.470   4.530   3.413
 1218SOL    HW2 3666   0.442   4.387   3.487
 1219SOL     OW 3667   1.587   4.503   3.532
 1219SOL    HW1 3668   1.495   4.541   3.527
 1219SOL    HW2 3669   1.647   4.550   3.467
 1220SOL     OW 3670   1.013   3.829   3.632
 1220SOL    HW1 3671   1.019   3.914   3.580
 1220SOL    HW2 3672   1.045   3.753   3.575
 1221SOL     OW 3673   0.504   3.774   3.602
 1221SOL    HW1 3674   0.462   3.717   3.532
 1221SOL    HW2 3675   0.438   3.843   3.634
 1222SOL     OW 3676   0.573   4.594   2.891
 1222SOL    HW1 3677   0.617   4.683   2.882
 1222SOL    HW2 3678   0.510   4.594   2.968
 1223SOL     OW 3679   1.360   4.586   2.907
 1223SOL    HW1 3680   1.285   4.586   2.841
 1223SOL    HW2 3681   1.397   4.494   2.916
 1224SOL     OW 3682   1.209   4.249   2.137
 1224SOL    HW1 3683   1.222   4.165   2.191
 1224SOL    HW2 3684   1.180   4.323   2.197
 1225SOL     OW 3685   0.307   3.937   3.093
 1225SOL    HW1 3686   0.284   3.974   3.183
 1225SOL    HW2 3687   0.277   3.842   3.087
 1226SOL     OW 3688   0.732   4.358   2.926
 1226SOL    HW1 3689   0.791   4.332   2.850
 1226SOL    HW2 3690   0.704   4.454   2.915
 1227SOL     OW 3691   1.728   4.659   3.716
 1227SOL    HW1 3692   1.682   4.652   3.627
 1227SOL    HW2 3693   1.666   4.703   3.782
 1228SOL     OW 3694   0.307   3.787   2.480
 1228SOL    HW1 3695   0.296   3.881   2.513
 1228SOL    HW2 3696   0.302   3.724   2.557
 1229SOL     OW 3697   1.622   4.091   2.236
 1229SOL    HW1 3698   1.624   4.015   2.300
 1229SOL    HW2 3699   1.574   4.168   2.276
 1230SOL     OW 3700   1.023   4.490   2.828
 1230SOL    HW1 3701   1.038   4.511   2.924
 1230SOL    HW2 3702   0.993   4.395   2.819
 1231SOL     OW 3703   1.540   3.998   1.987
 1231SOL    HW1 3704   1.479   3.923   2.010
 1231SOL    HW2 3705   1.562   4.050   2.070
 1232SOL     OW 3706   1.303   4.562   1.904
 1232SOL    HW1 3707   1.337   4.469   1.919
 1232SOL    HW2 3708   1.321   4.589   1.809
 1233SOL     OW 3709   0.319   4.534   2.811
 1233SOL    HW1 3710   0.412   4.570   2.816
 1233SOL    HW2 3711   0.313   4.449   2.863
 1234SOL     OW 3712   0.339   4.233   2.868
 1234SOL    HW1 3713   0.287   4.150   2.851
 1234SOL    HW2 3714   0.416   4.238   2.804
 1235SOL     OW 3715   1.138   4.104   3.540
 1235SOL    HW1 3716   1.093   4.167   3.604
 1235SOL    HW2 3717   1.231   4.135   3.523
 1236SOL     OW 3718   1.160   3.931   3.339
 1236SOL    HW1 3719   1.160   3.995   3.416
 1236SOL    HW2 3720   1.188   3.979   3.256
 1237SOL     OW 3721   1.002   4.520   3.100
 1237SOL    HW1 3722   1.043   4.488   3.186
 1237SOL    HW2 3723   0.906   4.493   3.097
 1238SOL     OW 3724   0.040   4.268   2.976
 1238SOL    HW1 3725   0.125   4.235   2.935
 1238SOL    HW2 3726   0.053   4.283   3.074
 1239SOL     OW 3727   0.189   4.244   3.584
 1239SOL    HW1 3728   0.248   4.204   3.514
 1239SOL    HW2 3729   0.131   4.315   3.543
 1240SOL     OW 3730   0.815   4.296   2.187
 1240SOL    HW1 3731   0.822   4.207   2.141
 1240SOL    HW2 3732   0.721   4.330   2.179
 1241SOL     OW 3733   1.657   4.328   3.068
 1241SOL    HW1 3734   1.619   4.259   3.130
 1241SOL    HW2 3735   1.739   4.292   3.024
 1242SOL     OW 3736   0.671   4.188   3.131
 1242SOL    HW1 3737   0.637   4.099   3.101
 1242SOL    HW2 3738   0.697   4.242   3.051
 1243SOL     OW 3739   0.473   4.224   2.053
 1243SOL    HW1 3740   0.534   4.304   2.057
 1243SOL    HW2 3741   0.378   4.255   2.060
 1244SOL     OW 3742   1.302   4.579   2.171
 1244SOL    HW1 3743   1.216   4.548   2.213
 1244SOL    HW2 3744   1.298   4.565   2.072
 1245SOL     OW 3745   1.726   3.859   2.385
 1245SOL    HW1 3746   1.799   3.842   2.318
 1245SOL    HW2 3747   1.695   3.772   2.423
 1246SOL     OW 3748   1.280   4.651   2.534
 1246SOL    HW1 3749   1.340   4.570   2.536
 1246SOL    HW2 3750   1.320   4.720   2.474
 1247SOL     OW 3751   1.841   3.899   2.825
 1247SOL    HW1 3752   1.880   3.814   2.789
 1247SOL    HW2 3753   1.743   3.901   2.806
 1248SOL     OW 3754   0.263   4.050   2.582
 1248SOL    HW1 3755   0.184   4.101   2.548
 1248SOL    HW2 3756   0.254   4.035   2.680
 1249SOL     OW 3757   0.916   4.634   2.153
 1249SOL    HW1 3758   0.979   4.672   2.085
 1249SOL    HW2 3759   0.956   4.551   2.192
 1250SOL     OW 3760   1.014   3.960   2.833
 1250SOL    HW1 3761   1.006   3.924   2.740
 1250SOL    HW2 3762   1.012   3.884   2.898
 1251SOL     OW 3763   1.709   4.109   3.243
 1251SOL    HW1 3764   1.782   4.178   3.247
 1251SOL    HW2 3765   1.737   4.034   3.184
 1252SOL     OW 3766   0.105   4.737   3.588
 1252SOL    HW1 3767   0.028   4.704   3.642
 1252SOL    HW2 3768   0.190   4.707   3.630
 1253SOL     OW 3769   0.672   3.927   3.351
 1253SOL    HW1 3770   0.762   3.911   3.311
 1253SOL    HW2 3771   0.680   3.932   3.450
 1254SOL     OW 3772   0.075   4.069   1.895
 1254SOL    HW1 3773  -0.017   4.041   1.866
 1254SOL    HW2 3774   0.106   4.146   1.839
 1255SOL     OW 3775   1.440   4.580   3.260
 1255SOL    HW1 3776   1.383   4.632   3.197
 1255SOL    HW2 3777   1.536   4.592   3.236
 1256SOL     OW 3778   0.072   3.890   2.180
 1256SOL    HW1 3779   0.055   3.973   2.126
 1256SOL    HW2 3780   0.162   3.853   2.158
 1257SOL     OW 3781   0.613   4.566   3.293
 1257SOL    HW1 3782   0.669   4.647   3.276
 1257SOL    HW2 3783   0.672   4.486   3.296
 1258SOL     OW 3784   0.716   4.289   3.570
 1258SOL    HW1 3785   0.735   4.354   3.644
 1258SOL    HW2 3786   0.776   4.209   3.579
 1259SOL     OW 3787   1.674   4.607   3.116
 1259SOL    HW1 3788   1.647   4.518   3.079
 1259SOL    HW2 3789   1.675   4.675   3.043
 1260SOL     OW 3790   1.225   4.049   2.311
 1260SOL    HW1 3791   1.290   3.975   2.300
 1260SOL    HW2 3792   1.245   4.099   2.395
 1261SOL     OW 3793   0.594   4.469   2.514
 1261SOL    HW1 3794   0.644   4.554   2.495
 1261SOL    HW2 3795   0.506   4.471   2.466
 1262SOL     OW 3796   1.777   4.066   3.504
 1262SOL    HW1 3797   1.760   4.097   3.410
 1262SOL    HW2 3798   1.693   4.029   3.542
 1263SOL     OW 3799   1.730   4.658   3.379
 1263SOL    HW1 3800   1.768   4.749   3.394
 1263SOL    HW2 3801   1.722   4.641   3.280
 1264SOL     OW 3802   1.824   3.916   3.089
 1264SOL    HW1 3803   1.820   3.826   3.133
 1264SOL    HW2 3804   1.827   3.905   2.990
 1265SOL     OW 3805   0.428   4.148   2.382
 1265SOL    HW1 3806   0.458   4.076   2.320
 1265SOL    HW2 3807   0.389   4.108   2.465
 1266SOL     OW 3808   0.317   4.271   3.142
 1266SOL    HW1 3809   0.355   4.212   3.214
 1266SOL    HW2 3810   0.357   4.245   3.054
 1267SOL     OW 3811   1.424   3.938   2.974
 1267SOL    HW1 3812   1.476   3.873   3.029
 1267SOL    HW2 3813   1.375   4.001   3.035
 1268SOL     OW 3814   1.001   3.758   3.016
 1268SOL    HW1 3815   0.938   3.686   2.985
 1268SOL    HW2 3816   1.094   3.722   3.016
 1269SOL     OW 3817   1.352   3.776   2.030
 1269SOL    HW1 3818   1.387   3.735   1.946
 1269SOL    HW2 3819   1.262   3.738   2.050
 1270SOL     OW 3820   1.300   4.177   2.553
 1270SOL    HW1 3821   1.241   4.257   2.557
 1270SOL    HW2 3822   1.315   4.142   2.646
 1271SOL     OW 3823   1.593   3.945   2.744
 1271SOL    HW1 3824   1.509   3.944   2.798
 1271SOL    HW2 3825   1.595   4.028   2.688
 1272SOL     OW 3826   0.230   4.352   3.837
 1272SOL    HW1 3827   0.137   4.350   3.874
 1272SOL    HW2 3828   0.231   4.313   3.745
 1273SOL     OW 3829   0.019   4.092   4.371
 1273SOL    HW1 3830  -0.063   4.135   4.410
 1273SOL    HW2 3831  -0.009   4.019   4.308
 1274SOL     OW 3832   1.135   4.427   4.441
 1274SOL    HW1 3833   1.192   4.505   4.416
 1274SOL    HW2 3834   1.075   4.453   4.517
 1275SOL     OW 3835   1.755   4.331   3.955
 1275SOL    HW1 3836   1.743   4.318   3.856
 1275SOL    HW2 3837   1.725   4.250   4.004
 1276SOL     OW 3838   0.685   4.736   4.389
 1276SOL    HW1 3839   0.754   4.720   4.459
 1276SOL    HW2 3840   0.612   4.793   4.427
 1277SOL     OW 3841   1.603   4.171   4.461
 1277SOL    HW1 3842   1.529   4.217   4.411
 1277SOL    HW2 3843   1.654   4.239   4.514
 1278SOL     OW 3844   0.240   4.815   4.610
 1278SOL    HW1 3845   0.254   4.731   4.662
 1278SOL    HW2 3846   0.185   4.879   4.665
 1279SOL     OW 3847   0.122   4.367   4.287
 1279SOL    HW1 3848   0.077   4.279   4.304
 1279SOL    HW2 3849   0.121   4.421   4.371
 1280SOL     OW 3850   0.809   3.728   4.226
 1280SOL    HW1 3851   0.849   3.819   4.217
 1280SOL    HW2 3852   0.709   3.736   4.232
 1281SOL     OW 3853   0.598   4.453   3.994
 1281SOL    HW1 3854   0.622   4.522   3.926
 1281SOL    HW2 3855   0.520   4.486   4.048
 1282SOL     OW 3856   1.281   4.069   4.668
 1282SOL    HW1 3857   1.195   4.019   4.655
 1282SOL    HW2 3858   1.343   4.015   4.724
 1283SOL     OW 3859   1.041   4.425   4.153
 1283SOL    HW1 3860   1.067   4.421   4.249
 1283SOL    HW2 3861   0.956   4.374   4.139
 1284SOL     OW 3862   0.076   4.535   4.513
 1284SOL    HW1 3863   0.175   4.523   4.522
 1284SOL    HW2 3864   0.052   4.630   4.534
 1285SOL     OW 3865   0.865   4.072   3.919
 1285SOL    HW1 3866   0.924   4.135   3.870
 1285SOL    HW2 3867   0.884   3.978   3.890
 1286SOL     OW 3868   0.550   3.920   4.609
 1286SOL    HW1 3869   0.545   3.915   4.709
 1286SOL    HW2 3870   0.552   4.016   4.580
 1287SOL     OW 3871   1.458   4.459   4.452
 1287SOL    HW1 3872   1.453   4.394   4.527
 1287SOL    HW2 3873   1.538   4.518   4.465
 1288SOL     OW 3874   1.400   3.831   4.150
 1288SOL    HW1 3875   1.376   3.794   4.060
 1288SOL    HW2 3876   1.499   3.847   4.154
 1289SOL     OW 3877   0.382   4.424   4.204
 1289SOL    HW1 3878   0.427   4.334   4.201
 1289SOL    HW2 3879   0.288   4.413   4.237
 1290SOL     OW 3880   0.614   3.846   3.841
 1290SOL    HW1 3881   0.712   3.824   3.848
 1290SOL    HW2 3882   0.583   3.829   3.748
 1291SOL     OW 3883   0.539   3.788   4.236
 1291SOL    HW1 3884   0.458   3.789   4.294
 1291SOL    HW2 3885   0.542   3.871   4.181
 1292SOL     OW 3886   0.297   3.759   3.895
 1292SOL    HW1 3887   0.346   3.843   3.874
 1292SOL    HW2 3888   0.359   3.694   3.940
 1293SOL     OW 3889   0.935   3.960   4.204
 1293SOL    HW1 3890   0.887   4.001   4.126
 1293SOL    HW2 3891   1.034   3.958   4.185
 1294SOL     OW 3892   1.032   4.273   3.740
 1294SOL    HW1 3893   0.991   4.355   3.701
 1294SOL    HW2 3894   1.096   4.299   3.813
 1295SOL     OW 3895   0.866   4.178   4.366
 1295SOL    HW1 3896   0.834   4.250   4.304
 1295SOL    HW2 3897   0.890   4.097   4.313
 1296SOL     OW 3898   1.017   3.763   4.477
 1296SOL    HW1 3899   0.945   3.768   4.408
 1296SOL    HW2 3900   0.993   3.694   4.546
 1297SOL     OW 3901   1.857   4.557   4.101
 1297SOL    HW1 3902   1.899   4.493   4.165
 1297SOL    HW2 3903   1.819   4.506   4.023
 1298SOL     OW 3904   1.390   4.299   3.802
 1298SOL    HW1 3905   1.336   4.278   3.883
 1298SOL    HW2 3906   1.481   4.258   3.811
 1299SOL     OW 3907   0.527   3.980   4.052
 1299SOL    HW1 3908   0.554   3.921   3.977
 1299SOL    HW2 3909   0.527   4.075   4.021
 1300SOL     OW 3910   1.111   4.919   4.824
 1300SOL    HW1 3911   1.071   4.963   4.905
 1300SOL    HW2 3912   1.070   4.956   4.741
 1301SOL     OW 3913   0.566   4.261   4.589
 1301SOL    HW1 3914   0.578   4.327   4.515
 1301SOL    HW2 3915   0.612   4.295   4.672
 1302SOL     OW 3916   1.582   4.363   4.196
 1302SOL    HW1 3917   1.551   4.424   4.269
 1302SOL    HW2 3918   1.632   4.415   4.127
 1303SOL     OW 3919   1.209   4.249   3.999
 1303SOL    HW1 3920   1.222   4.165   4.053
 1303SOL    HW2 3921   1.180   4.323   4.059
 1304SOL     OW 3922   0.732   4.358   4.788
 1304SOL    HW1 3923   0.791   4.332   4.712
 1304SOL    HW2 3924   0.704   4.454   4.777
 1305SOL     OW 3925   0.307   3.787   4.342
 1305SOL    HW1 3926   0.296   3.881   4.375
 1305SOL    HW2 3927   0.302   3.724   4.419
 1306SOL     OW 3928   1.622   4.091   4.098
 1306SOL    HW1 3929   1.624   4.015   4.162
 1306SOL    HW2 3930   1.574   4.168   4.138
 1307SOL     OW 3931   1.540   3.998   3.849
 1307SOL    HW1 3932   1.479   3.923   3.872
 1307SOL    HW2 3933   1.562   4.050   3.932
 1308SOL     OW 3934   1.303   4.562   3.766
 1308SOL    HW1 3935   1.337   4.469   3.781
 1308SOL    HW2 3936   1.321   4.589   3.671
 1309SOL     OW 3937   0.815   4.296   4.049
 1309SOL    HW1 3938   0.822   4.207   4.003
 1309SOL    HW2 3939   0.721   4.330   4.041
 1310SOL     OW 3940   0.473   4.224   3.915
 1310SOL    HW1 3941   0.534   4.304   3.919
 1310SOL    HW2 3942   0.378   4.255   3.922
 1311SOL     OW 3943   1.302   4.579   4.033
 1311SOL    HW1 3944   1.216   4.548   4.075
 1311SOL    HW2 3945   1.298   4.565   3.934
 1312SOL     OW 3946   1.726   3.859   4.247
 1312SOL    HW1 3947   1.799   3.842   4.180
 1312SOL    HW2 3948   1.695   3.772   4.285
 1313SOL     OW 3949   1.280   4.651   4.396
 1313SOL    HW1 3950   1.340   4.570   4.398
 1313SOL    HW2 3951   1.320   4.720   4.336
 1314SOL     OW 3952   1.841   3.899   4.687
 1314SOL    HW1 3953   1.880   3.814   4.651
 1314SOL    HW2 3954   1.743   3.901   4.668
 1315SOL     OW 3955   0.263   4.050   4.444
 1315SOL    HW1 3956   0.184   4.101   4.410
 1315SOL    HW2 3957   0.254   4.035   4.542
 1316SOL     OW 3958   0.916   4.634   4.015
 1316SOL    HW1 3959   0.979   4.672   3.947
 1316SOL    HW2 3960   0.956   4.551   4.054
 1317SOL     OW 3961   0.075   4.069   3.757
 1317SOL    HW1 3962  -0.017   4.041   3.728
 1317SOL    HW2 3963   0.106   4.146   3.701
 1318SOL     OW 3964   0.072   3.890   4.042
 1318SOL    HW1 3965   0.055   3.973   3.988
 1318SOL    HW2 3966   0.162   3.853   4.020
 1319SOL     OW 3967   1.674   4.607   4.978
 1319SOL    HW1 3968   1.647   4.518   4.941
 1319SOL    HW2 3969   1.675   4.675   4.905
 1320SOL     OW 3970   1.225   4.049   4.173
 1320SOL    HW1 3971   1.290   3.975   4.162
 1320SOL    HW2 3972   1.245   4.099   4.257
 1321SOL     OW 3973   0.594   4.469   4.376
 1321SOL    HW1 3974   0.644   4.554   4.357
 1321SOL    HW2 3975   0.506   4.471   4.328
 1322SOL     OW 3976   0.428   4.148   4.244
 1322SOL    HW1 3977   0.458   4.076   4.182
 1322SOL    HW2 3978   0.389   4.108   4.327
 1323SOL     OW 3979   1.352   3.776   3.892
 1323SOL    HW1 3980   1.387   3.735   3.808
 1323SOL    HW2 3981   1.262   3.738   3.912
 1324SOL     OW 3982   1.300   4.177   4.415
 1324SOL    HW1 3983   1.241   4.257   4.419
 1324SOL    HW2 3984   1.315   4.142   4.508
 1325SOL     OW 3985   1.593   3.945   4.606
 1325SOL    HW1 3986   1.509   3.944   4.660
 1325SOL    HW2 3987   1.595   4.028   4.550
 1326SOL     OW 3988   2.092   0.628   0.113
 1326SOL    HW1 3989   1.999   0.626   0.150
 1326SOL    HW2 3990   2.093   0.589   0.021
 1327SOL     OW 3991   2.087   0.275   0.996
 1327SOL    HW1 3992   2.122   0.258   1.088
 1327SOL    HW2 3993   1.999   0.230   0.984
 1328SOL     OW 3994   1.881   0.368   0.647
 1328SOL    HW1 3995   1.799   0.411   0.686
 1328SOL    HW2 3996   1.853   0.295   0.584
 1329SOL     OW 3997   2.431   1.275   1.165
 1329SOL    HW1 3998   2.338   1.268   1.128
 1329SOL    HW2 3999   2.442   1.364   1.209
 1330SOL     OW 4000   3.417   1.511   0.703
 1330SOL    HW1 4001   3.360   1.495   0.784
 1330SOL    HW2 4002   3.358   1.521   0.623
 1331SOL     OW 4003   2.997   0.703   0.717
 1331SOL    HW1 4004   3.054   0.781   0.692
 1331SOL    HW2 4005   2.937   0.729   0.793
 1332SOL     OW 4006   3.617   0.607   0.231
 1332SOL    HW1 4007   3.605   0.594   0.132
 1332SOL    HW2 4008   3.587   0.526   0.280
 1333SOL     OW 4009   2.630   1.144   1.023
 1333SOL    HW1 4010   2.552   1.161   1.083
 1333SOL    HW2 4011   2.664   1.231   0.987
 1334SOL     OW 4012   2.712   0.798   1.823
 1334SOL    HW1 4013   2.708   0.874   1.888
 1334SOL    HW2 4014   2.734   0.834   1.732
 1335SOL     OW 4015   2.547   1.012   0.665
 1335SOL    HW1 4016   2.616   0.996   0.735
 1335SOL    HW2 4017   2.474   1.069   0.703
 1336SOL     OW 4018   2.548   1.161   1.803
 1336SOL    HW1 4019   2.608   1.240   1.817
 1336SOL    HW2 4020   2.462   1.192   1.762
 1337SOL     OW 4021   2.197   1.435   1.061
 1337SOL    HW1 4022   2.119   1.404   1.008
 1337SOL    HW2 4023   2.255   1.493   1.004
 1338SOL     OW 4024   3.322   1.505   1.339
 1338SOL    HW1 4025   3.346   1.599   1.365
 1338SOL    HW2 4026   3.306   1.451   1.421
 1339SOL     OW 4027   2.300   0.392   1.499
 1339SOL    HW1 4028   2.382   0.336   1.508
 1339SOL    HW2 4029   2.219   0.334   1.503
 1340SOL     OW 4030   3.465   0.447   0.737
 1340SOL    HW1 4031   3.391   0.493   0.687
 1340SOL    HW2 4032   3.516   0.515   0.790
 1341SOL     OW 4033   2.093   1.713   0.483
 1341SOL    HW1 4034   2.127   1.790   0.537
 1341SOL    HW2 4035   2.137   1.713   0.393
 1342SOL     OW 4036   2.989   1.341   1.690
 1342SOL    HW1 4037   3.036   1.341   1.778
 1342SOL    HW2 4038   2.941   1.254   1.679
 1343SOL     OW 4039   2.092   1.434   0.538
 1343SOL    HW1 4040   2.066   1.530   0.538
 1343SOL    HW2 4041   2.021   1.380   0.583
 1344SOL     OW 4042   2.102   1.091   0.886
 1344SOL    HW1 4043   2.116   1.007   0.938
 1344SOL    HW2 4044   2.047   1.155   0.941
 1345SOL     OW 4045   2.482   1.786   1.439
 1345SOL    HW1 4046   2.390   1.769   1.474
 1345SOL    HW2 4047   2.510   1.878   1.465
 1346SOL     OW 4048   2.468   0.964   0.123
 1346SOL    HW1 4049   2.475   1.048   0.069
 1346SOL    HW2 4050   2.514   0.977   0.211
 1347SOL     OW 4051   3.456   0.114   1.480
 1347SOL    HW1 4052   3.438   0.181   1.408
 1347SOL    HW2 4053   3.453   0.160   1.569
 1348SOL     OW 4054   1.984   0.643   0.563
 1348SOL    HW1 4055   1.939   0.555   0.580
 1348SOL    HW2 4056   1.983   0.697   0.647
 1349SOL     OW 4057   3.704   1.767   0.359
 1349SOL    HW1 4058   3.758   1.738   0.439
 1349SOL    HW2 4059   3.734   1.857   0.330
 1350SOL     OW 4060   3.551   0.922   0.612
 1350SOL    HW1 4061   3.646   0.893   0.620
 1350SOL    HW2 4062   3.543   0.987   0.537
 1351SOL     OW 4063   3.503   1.108   0.432
 1351SOL    HW1 4064   3.589   1.110   0.380
 1351SOL    HW2 4065   3.517   1.155   0.520
 1352SOL     OW 4066   1.975   0.737   1.597
 1352SOL    HW1 4067   2.063   0.724   1.642
 1352SOL    HW2 4068   1.962   0.834   1.575
 1353SOL     OW 4069   2.475   1.365   0.726
 1353SOL    HW1 4070   2.426   1.278   0.735
 1353SOL    HW2 4071   2.452   1.408   0.639
 1354SOL     OW 4072   3.155   1.228   1.423
 1354SOL    HW1 4073   3.192   1.155   1.365
 1354SOL    HW2 4074   3.207   1.233   1.508
 1355SOL     OW 4075   2.671   0.004   0.502
 1355SOL    HW1 4076   2.711   0.095   0.493
 1355SOL    HW2 4077   2.571   0.012   0.508
 1356SOL     OW 4078   2.059   0.976   1.264
 1356SOL    HW1 4079   2.148   0.931   1.250
 1356SOL    HW2 4080   1.986   0.911   1.245
 1357SOL     OW 4081   3.387   0.999   0.190
 1357SOL    HW1 4082   3.324   0.923   0.203
 1357SOL    HW2 4083   3.435   1.017   0.276
 1358SOL     OW 4084   3.049   1.792   1.616
 1358SOL    HW1 4085   3.073   1.852   1.540
 1358SOL    HW2 4086   3.056   1.697   1.586
 1359SOL     OW 4087   2.179   0.251   1.801
 1359SOL    HW1 4088   2.250   0.322   1.807
 1359SOL    HW2 4089   2.091   0.290   1.829
 1360SOL     OW 4090   3.328   1.417   0.953
 1360SOL    HW1 4091   3.269   1.423   1.033
 1360SOL    HW2 4092   3.313   1.329   0.907
 1361SOL     OW 4093   3.529   1.714   0.572
 1361SOL    HW1 4094   3.488   1.691   0.484
 1361SOL    HW2 4095   3.511   1.640   0.637
 1362SOL     OW 4096   2.460   0.729   0.270
 1362SOL    HW1 4097   2.484   0.798   0.202
 1362SOL    HW2 4098   2.382   0.762   0.324
 1363SOL     OW 4099   3.143   0.345   0.944
 1363SOL    HW1 4100   3.057   0.295   0.931
 1363SOL    HW2 4101   3.205   0.291   1.000
 1364SOL     OW 4102   3.438   1.662   0.307
 1364SOL    HW1 4103   3.527   1.708   0.310
 1364SOL    HW2 4104   3.417   1.638   0.212
 1365SOL     OW 4105   2.669   0.605   1.465
 1365SOL    HW1 4106   2.622   0.602   1.554
 1365SOL    HW2 4107   2.618   0.550   1.399
 1366SOL     OW 4108   3.256   0.469   1.674
 1366SOL    HW1 4109   3.236   0.512   1.762
 1366SOL    HW2 4110   3.334   0.407   1.683
 1367SOL     OW 4111   2.835   0.890   1.572
 1367SOL    HW1 4112   2.881   0.806   1.543
 1367SOL    HW2 4113   2.779   0.924   1.497
 1368SOL     OW 4114   2.853   0.410   1.242
 1368SOL    HW1 4115   2.776   0.444   1.296
 1368SOL    HW2 4116   2.819   0.359   1.163
 1369SOL     OW 4117   2.903   0.701   0.429
 1369SOL    HW1 4118   2.929   0.697   0.525
 1369SOL    HW2 4119   2.818   0.650   0.415
 1370SOL     OW 4120   1.938   0.811   0.789
 1370SOL    HW1 4121   2.037   0.799   0.798
 1370SOL    HW2 4122   1.914   0.906   0.810
 1371SOL     OW 4123   1.992   1.821   1.571
 1371SOL    HW1 4124   1.982   1.806   1.670
 1371SOL    HW2 4125   1.906   1.857   1.535
 1372SOL     OW 4126   2.727   0.348   0.195
 1372SOL    HW1 4127   2.786   0.411   0.146
 1372SOL    HW2 4128   2.746   0.254   0.166
 1373SOL     OW 4129   3.581   0.585   1.831
 1373SOL    HW1 4130   3.555   0.674   1.795
 1373SOL    HW2 4131   3.579   0.517   1.758
 1374SOL     OW 4132   3.224   1.144   0.545
 1374SOL    HW1 4133   3.307   1.115   0.497
 1374SOL    HW2 4134   3.175   1.211   0.489
 1375SOL     OW 4135   2.412   0.196   0.885
 1375SOL    HW1 4136   2.407   0.191   0.985
 1375SOL    HW2 4137   2.414   0.292   0.856
 1376SOL     OW 4138   2.870   1.456   0.477
 1376SOL    HW1 4139   2.824   1.528   0.425
 1376SOL    HW2 4140   2.866   1.476   0.575
 1377SOL     OW 4141   2.213   1.801   0.853
 1377SOL    HW1 4142   2.263   1.715   0.859
 1377SOL    HW2 4143   2.278   1.878   0.850
 1378SOL     OW 4144   3.657   1.066   0.873
 1378SOL    HW1 4145   3.595   1.051   0.797
 1378SOL    HW2 4146   3.605   1.077   0.958
 1379SOL     OW 4147   3.089   1.550   1.506
 1379SOL    HW1 4148   3.095   1.473   1.570
 1379SOL    HW2 4149   3.037   1.524   1.426
 1380SOL     OW 4150   2.183   0.943   0.242
 1380SOL    HW1 4151   2.265   0.982   0.200
 1380SOL    HW2 4152   2.156   0.861   0.193
 1381SOL     OW 4153   3.320   0.735   0.728
 1381SOL    HW1 4154   3.315   0.670   0.803
 1381SOL    HW2 4155   3.400   0.794   0.741
 1382SOL     OW 4156   2.323   1.266   1.727
 1382SOL    HW1 4157   2.273   1.267   1.641
 1382SOL    HW2 4158   2.260   1.248   1.803
 1383SOL     OW 4159   2.973   1.776   0.237
 1383SOL    HW1 4160   2.913   1.714   0.287
 1383SOL    HW2 4161   3.004   1.732   0.152
 1384SOL     OW 4162   2.064   0.285   1.498
 1384SOL    HW1 4163   1.984   0.345   1.485
 1384SOL    HW2 4164   2.054   0.236   1.584
 1385SOL     OW 4165   3.494   1.377   0.081
 1385SOL    HW1 4166   3.462   1.471   0.071
 1385SOL    HW2 4167   3.418   1.314   0.069
 1386SOL     OW 4168   2.326   1.743   0.323
 1386SOL    HW1 4169   2.359   1.782   0.409
 1386SOL    HW2 4170   2.402   1.736   0.258
 1387SOL     OW 4171   3.262   0.107   0.426
 1387SOL    HW1 4172   3.238   0.070   0.336
 1387SOL    HW2 4173   3.361   0.123   0.430
 1388SOL     OW 4174   2.111   1.785   1.241
 1388SOL    HW1 4175   2.168   1.720   1.291
 1388SOL    HW2 4176   2.095   1.752   1.148
 1389SOL     OW 4177   2.802   1.698   0.904
 1389SOL    HW1 4178   2.882   1.641   0.925
 1389SOL    HW2 4179   2.753   1.658   0.827
 1390SOL     OW 4180   2.244   0.700   0.480
 1390SOL    HW1 4181   2.289   0.610   0.477
 1390SOL    HW2 4182   2.150   0.689   0.513
 1391SOL     OW 4183   3.409   0.222   1.729
 1391SOL    HW1 4184   3.404   0.259   1.821
 1391SOL    HW2 4185   3.337   0.153   1.717
 1392SOL     OW 4186   2.476   0.122   0.117
 1392SOL    HW1 4187   2.574   0.100   0.124
 1392SOL    HW2 4188   2.445   0.105   0.024
 1393SOL     OW 4189   2.643   0.264   1.749
 1393SOL    HW1 4190   2.710   0.203   1.792
 1393SOL    HW2 4191   2.570   0.283   1.814
 1394SOL     OW 4192   2.750   1.514   1.195
 1394SOL    HW1 4193   2.727   1.489   1.101
 1394SOL    HW2 4194   2.811   1.445   1.234
 1395SOL     OW 4195   3.213   0.590   1.433
 1395SOL    HW1 4196   3.241   0.547   1.518
 1395SOL    HW2 4197   3.238   0.686   1.434
 1396SOL     OW 4198   2.665   1.402   0.924
 1396SOL    HW1 4199   2.755   1.416   0.882
 1396SOL    HW2 4200   2.594   1.404   0.853
 1397SOL     OW 4201   2.784   0.503   0.899
 1397SOL    HW1 4202   2.759   0.494   0.803
 1397SOL    HW2 4203   2.832   0.421   0.930
 1398SOL     OW 4204   2.401   0.064   0.512
 1398SOL    HW1 4205   2.320   0.065   0.570
 1398SOL    HW2 4206   2.404   0.147   0.457
 1399SOL     OW 4207   3.296   1.188   0.041
 1399SOL    HW1 4208   3.328   1.112   0.098
 1399SOL    HW2 4209   3.204   1.215   0.071
 1400SOL     OW 4210   2.159   0.035   0.171
 1400SOL    HW1 4211   2.208   0.119   0.150
 1400SOL    HW2 4212   2.221  -0.030   0.216
 1401SOL     OW 4213   2.797   0.236   0.480
 1401SOL    HW1 4214   2.749   0.277   0.402
 1401SOL    HW2 4215   2.896   0.234   0.461
 1402SOL     OW 4216   2.938   0.683   1.464
 1402SOL    HW1 4217   2.858   0.622   1.467
 1402SOL    HW2 4218   3.019   0.630   1.440
 1403SOL     OW 4219   3.089   1.570   0.793
 1403SOL    HW1 4220   3.110   1.644   0.728
 1403SOL    HW2 4221   3.157   1.570   0.866
 1404SOL     OW 4222   2.321   1.152   0.741
 1404SOL    HW1 4223   2.250   1.125   0.806
 1404SOL    HW2 4224   2.295   1.124   0.648
 1405SOL     OW 4225   3.133   1.797   0.591
 1405SOL    HW1 4226   3.177   1.861   0.527
 1405SOL    HW2 4227   3.083   1.849   0.661
 1406SOL     OW 4228   2.894   0.549   0.016
 1406SOL    HW1 4229   2.853   0.631  -0.023
 1406SOL    HW2 4230   2.958   0.575   0.089
 1407SOL     OW 4231   1.940   0.556   1.386
 1407SOL    HW1 4232   2.032   0.555   1.345
 1407SOL    HW2 4233   1.934   0.630   1.453
 1408SOL     OW 4234   2.423   0.222   1.147
 1408SOL    HW1 4235   2.461   0.138   1.184
 1408SOL    HW2 4236   2.335   0.241   1.191
 1409SOL     OW 4237   2.728   0.454   0.642
 1409SOL    HW1 4238   2.696   0.526   0.580
 1409SOL    HW2 4239   2.752   0.373   0.589
 1410SOL     OW 4240   2.879   0.039   0.753
 1410SOL    HW1 4241   2.807   0.044   0.684
 1410SOL    HW2 4242   2.855  -0.030   0.822
 1411SOL     OW 4243   3.291   1.173   0.867
 1411SOL    HW1 4244   3.236   1.089   0.860
 1411SOL    HW2 4245   3.317   1.202   0.775
 1412SOL     OW 4246   3.328   0.590   0.992
 1412SOL    HW1 4247   3.298   0.495   0.999
 1412SOL    HW2 4248   3.401   0.606   1.058
 1413SOL     OW 4249   3.719   0.833   0.377
 1413SOL    HW1 4250   3.761   0.769   0.441
 1413SOL    HW2 4251   3.681   0.782   0.299
 1414SOL     OW 4252   2.350   1.385   0.174
 1414SOL    HW1 4253   2.263   1.370   0.221
 1414SOL    HW2 4254   2.333   1.411   0.079
 1415SOL     OW 4255   3.526   1.280   0.657
 1415SOL    HW1 4256   3.625   1.288   0.671
 1415SOL    HW2 4257   3.481   1.364   0.688
 1416SOL     OW 4258   3.252   0.575   0.078
 1416SOL    HW1 4259   3.198   0.554   0.159
 1416SOL    HW2 4260   3.343   0.534   0.087
 1417SOL     OW 4261   2.389   0.256   0.328
 1417SOL    HW1 4262   2.416   0.197   0.253
 1417SOL    HW2 4263   2.389   0.351   0.297
 1418SOL     OW 4264   3.616   1.223   1.588
 1418SOL    HW1 4265   3.707   1.184   1.575
 1418SOL    HW2 4266   3.624   1.319   1.612
 1419SOL     OW 4267   2.926   1.347   1.340
 1419SOL    HW1 4268   2.846   1.324   1.395
 1419SOL    HW2 4269   3.009   1.321   1.389
 1420SOL     OW 4270   3.454   1.629   1.625
 1420SOL    HW1 4271   3.481   1.663   1.535
 1420SOL    HW2 4272   3.533   1.591   1.671
 1421SOL     OW 4273   2.973   1.195   1.100
 1421SOL    HW1 4274   2.933   1.239   1.181
 1421SOL    HW2 4275   2.932   1.232   1.017
 1422SOL     OW 4276   3.500   1.099   1.079
 1422SOL    HW1 4277   3.505   1.180   1.138
 1422SOL    HW2 4278   3.414   1.101   1.028
 1423SOL     OW 4279   2.777   0.089   1.402
 1423SOL    HW1 4280   2.802   0.069   1.307
 1423SOL    HW2 4281   2.849   0.145   1.444
 1424SOL     OW 4282   2.842   1.116   1.719
 1424SOL    HW1 4283   2.743   1.122   1.729
 1424SOL    HW2 4284   2.865   1.036   1.663
 1425SOL     OW 4285   2.567   1.050   0.368
 1425SOL    HW1 4286   2.553   1.057   0.467
 1425SOL    HW2 4287   2.651   0.999   0.350
 1426SOL     OW 4288   2.272   0.813   1.251
 1426SOL    HW1 4289   2.358   0.825   1.301
 1426SOL    HW2 4290   2.230   0.726   1.278
 1427SOL     OW 4291   3.136   0.386   1.262
 1427SOL    HW1 4292   3.157   0.460   1.326
 1427SOL    HW2 4293   3.047   0.403   1.219
 1428SOL     OW 4294   1.926   1.564   1.331
 1428SOL    HW1 4295   1.880   1.646   1.297
 1428SOL    HW2 4296   2.024   1.583   1.340
 1429SOL     OW 4297   2.229   1.100   0.501
 1429SOL    HW1 4298   2.222   1.183   0.445
 1429SOL    HW2 4299   2.233   1.020   0.441
 1430SOL     OW 4300   2.428   0.537   0.865
 1430SOL    HW1 4301   2.440   0.603   0.791
 1430SOL    HW2 4302   2.474   0.571   0.948
 1431SOL     OW 4303   3.114   1.348   0.388
 1431SOL    HW1 4304   3.164   1.425   0.428
 1431SOL    HW2 4305   3.019   1.350   0.420
 1432SOL     OW 4306   3.134   1.445   1.142
 1432SOL    HW1 4307   3.181   1.458   1.229
 1432SOL    HW2 4308   3.068   1.371   1.151
 1433SOL     OW 4309   3.444   0.639   0.472
 1433SOL    HW1 4310   3.413   0.700   0.545
 1433SOL    HW2 4311   3.494   0.691   0.403
 1434SOL     OW 4312   2.216   1.510   1.329
 1434SOL    HW1 4313   2.195   1.466   1.242
 1434SOL    HW2 4314   2.313   1.536   1.332
 1435SOL     OW 4315   2.264   0.751   1.598
 1435SOL    HW1 4316   2.332   0.806   1.551
 1435SOL    HW2 4317   2.304   0.663   1.625
 1436SOL     OW 4318   3.449   0.779   1.670
 1436SOL    HW1 4319   3.357   0.817   1.665
 1436SOL    HW2 4320   3.509   0.826   1.605
 1437SOL     OW 4321   2.875   0.105   1.770
 1437SOL    HW1 4322   2.881   0.190   1.718
 1437SOL    HW2 4323   2.907   0.029   1.713
 1438SOL     OW 4324   2.366   0.050   1.740
 1438SOL    HW1 4325   2.324  -0.007   1.670
 1438SOL    HW2 4326   2.300   0.119   1.772
 1439SOL     OW 4327   2.435   0.870   1.029
 1439SOL    HW1 4328   2.479   0.959   1.020
 1439SOL    HW2 4329   2.372   0.870   1.106
 1440SOL     OW 4330   3.222   0.862   1.045
 1440SOL    HW1 4331   3.147   0.862   0.979
 1440SOL    HW2 4332   3.259   0.770   1.054
 1441SOL     OW 4333   3.071   0.525   0.275
 1441SOL    HW1 4334   3.084   0.441   0.329
 1441SOL    HW2 4335   3.042   0.599   0.335
 1442SOL     OW 4336   2.169   0.213   1.231
 1442SOL    HW1 4337   2.146   0.250   1.321
 1442SOL    HW2 4338   2.139   0.118   1.225
 1443SOL     OW 4339   1.899   1.310   1.282
 1443SOL    HW1 4340   1.952   1.261   1.350
 1443SOL    HW2 4341   1.921   1.408   1.287
 1444SOL     OW 4342   2.594   0.634   1.064
 1444SOL    HW1 4343   2.653   0.608   0.988
 1444SOL    HW2 4344   2.566   0.730   1.053
 1445SOL     OW 4345   3.590   0.935   1.854
 1445SOL    HW1 4346   3.544   0.928   1.765
 1445SOL    HW2 4347   3.528   0.979   1.920
 1446SOL     OW 4348   2.169   0.063   0.618
 1446SOL    HW1 4349   2.158   0.157   0.651
 1446SOL    HW2 4350   2.164   0.000   0.695
 1447SOL     OW 4351   3.484   0.367   0.374
 1447SOL    HW1 4352   3.486   0.291   0.438
 1447SOL    HW2 4353   3.436   0.444   0.414
 1448SOL     OW 4354   2.885   0.766   0.966
 1448SOL    HW1 4355   2.900   0.787   1.062
 1448SOL    HW2 4356   2.855   0.671   0.957
 1449SOL     OW 4357   2.842   1.573   1.700
 1449SOL    HW1 4358   2.822   1.617   1.612
 1449SOL    HW2 4359   2.881   1.482   1.684
 1450SOL     OW 4360   3.721   1.518   1.605
 1450SOL    HW1 4361   3.735   1.545   1.510
 1450SOL    HW2 4362   3.804   1.540   1.658
 1451SOL     OW 4363   2.212   0.898   1.804
 1451SOL    HW1 4364   2.288   0.942   1.852
 1451SOL    HW2 4365   2.247   0.851   1.722
 1452SOL     OW 4366   3.402   0.274   0.125
 1452SOL    HW1 4367   3.341   0.199   0.148
 1452SOL    HW2 4368   3.424   0.326   0.208
 1453SOL     OW 4369   3.165   0.838   0.042
 1453SOL    HW1 4370   3.199   0.745   0.057
 1453SOL    HW2 4371   3.183   0.865  -0.053
 1454SOL     OW 4372   2.930   1.333   0.849
 1454SOL    HW1 4373   2.937   1.249   0.794
 1454SOL    HW2 4374   2.992   1.402   0.813
 1455SOL     OW 4375   2.181   0.810   0.949
 1455SOL    HW1 4376   2.274   0.846   0.954
 1455SOL    HW2 4377   2.175   0.725   1.001
 1456SOL     OW 4378   2.201   0.509   1.006
 1456SOL    HW1 4379   2.149   0.426   0.989
 1456SOL    HW2 4380   2.278   0.514   0.942
 1457SOL     OW 4381   3.000   0.380   1.678
 1457SOL    HW1 4382   2.955   0.443   1.742
 1457SOL    HW2 4383   3.093   0.411   1.661
 1458SOL     OW 4384   3.022   0.207   1.477
 1458SOL    HW1 4385   3.022   0.271   1.554
 1458SOL    HW2 4386   3.050   0.255   1.394
 1459SOL     OW 4387   1.870   1.326   0.200
 1459SOL    HW1 4388   1.777   1.347   0.169
 1459SOL    HW2 4389   1.880   1.227   0.213
 1460SOL     OW 4390   1.950   1.801   0.927
 1460SOL    HW1 4391   1.908   1.715   0.900
 1460SOL    HW2 4392   2.044   1.804   0.893
 1461SOL     OW 4393   2.366   1.568   0.910
 1461SOL    HW1 4394   2.432   1.642   0.919
 1461SOL    HW2 4395   2.410   1.489   0.868
 1462SOL     OW 4396   2.864   0.796   1.238
 1462SOL    HW1 4397   2.905   0.764   1.324
 1462SOL    HW2 4398   2.768   0.769   1.235
 1463SOL     OW 4399   1.902   0.544   1.114
 1463SOL    HW1 4400   1.987   0.511   1.073
 1463SOL    HW2 4401   1.915   0.559   1.212
 1464SOL     OW 4402   2.051   0.520   1.722
 1464SOL    HW1 4403   2.110   0.480   1.652
 1464SOL    HW2 4404   1.993   0.591   1.681
 1465SOL     OW 4405   3.231   0.950   1.660
 1465SOL    HW1 4406   3.270   1.039   1.680
 1465SOL    HW2 4407   3.241   0.930   1.563
 1466SOL     OW 4408   2.677   0.572   0.325
 1466SOL    HW1 4409   2.684   0.483   0.279
 1466SOL    HW2 4410   2.583   0.606   0.317
 1467SOL     OW 4411   3.519   0.604   1.206
 1467SOL    HW1 4412   3.481   0.535   1.268
 1467SOL    HW2 4413   3.601   0.568   1.162
 1468SOL     OW 4414   2.114   1.564   1.744
 1468SOL    HW1 4415   2.084   1.621   1.820
 1468SOL    HW2 4416   2.107   1.467   1.770
 1469SOL     OW 4417   2.533   0.464   1.269
 1469SOL    HW1 4418   2.499   0.375   1.239
 1469SOL    HW2 4419   2.559   0.518   1.189
 1470SOL     OW 4420   2.792   1.678   1.465
 1470SOL    HW1 4421   2.768   1.660   1.370
 1470SOL    HW2 4422   2.822   1.772   1.475
 1471SOL     OW 4423   2.335   0.500   0.191
 1471SOL    HW1 4424   2.396   0.580   0.195
 1471SOL    HW2 4425   2.240   0.531   0.198
 1472SOL     OW 4426   2.021   1.137   1.466
 1472SOL    HW1 4427   2.043   1.076   1.542
 1472SOL    HW2 4428   2.031   1.088   1.380
 1473SOL     OW 4429   3.209   1.059   1.234
 1473SOL    HW1 4430   3.233   0.996   1.160
 1473SOL    HW2 4431   3.119   1.099   1.216
 1474SOL     OW 4432   3.164   0.855   0.309
 1474SOL    HW1 4433   3.078   0.824   0.351
 1474SOL    HW2 4434   3.160   0.841   0.210
 1475SOL     OW 4435   3.621   1.747   1.154
 1475SOL    HW1 4436   3.682   1.777   1.081
 1475SOL    HW2 4437   3.583   1.658   1.132
 1476SOL     OW 4438   3.114   1.731   1.128
 1476SOL    HW1 4439   3.198   1.736   1.074
 1476SOL    HW2 4440   3.091   1.635   1.146
 1477SOL     OW 4441   1.945   1.258   1.022
 1477SOL    HW1 4442   1.940   1.257   1.122
 1477SOL    HW2 4443   1.862   1.217   0.984
 1478SOL     OW 4444   2.550   1.662   1.716
 1478SOL    HW1 4445   2.494   1.743   1.725
 1478SOL    HW2 4446   2.602   1.666   1.630
 1479SOL     OW 4447   2.765   0.086   0.133
 1479SOL    HW1 4448   2.816   0.087   0.047
 1479SOL    HW2 4449   2.821   0.044   0.204
 1480SOL     OW 4450   3.588   0.135   0.523
 1480SOL    HW1 4451   3.661   0.118   0.456
 1480SOL    HW2 4452   3.557   0.048   0.561
 1481SOL     OW 4453   3.250   1.573   0.477
 1481SOL    HW1 4454   3.317   1.585   0.403
 1481SOL    HW2 4455   3.210   1.662   0.500
 1482SOL     OW 4456   1.992   1.794   1.851
 1482SOL    HW1 4457   1.951   1.720   1.904
 1482SOL    HW2 4458   2.056   1.845   1.909
 1483SOL     OW 4459   3.142   0.927   0.672
 1483SOL    HW1 4460   3.202   0.846   0.674
 1483SOL    HW2 4461   3.182   0.996   0.612
 1484SOL     OW 4462   2.692   1.273   1.422
 1484SOL    HW1 4463   2.687   1.306   1.517
 1484SOL    HW2 4464   2.606   1.292   1.376
 1485SOL     OW 4465   2.534   1.616   0.154
 1485SOL    HW1 4466   2.543   1.626   0.055
 1485SOL    HW2 4467   2.494   1.527   0.175
 1486SOL     OW 4468   3.512   1.720   1.394
 1486SOL    HW1 4469   3.565   1.730   1.310
 1486SOL    HW2 4470   3.485   1.810   1.428
 1487SOL     OW 4471   3.703   0.175   0.963
 1487SOL    HW1 4472   3.742   0.090   0.927
 1487SOL    HW2 4473   3.605   0.177   0.944
 1488SOL     OW 4474   2.125   0.326   0.720
 1488SOL    HW1 4475   2.046   0.377   0.686
 1488SOL    HW2 4476   2.116   0.311   0.818
 1489SOL     OW 4477   3.056   1.612   0.031
 1489SOL    HW1 4478   3.062   1.519   0.068
 1489SOL    HW2 4479   2.997   1.612  -0.049
 1490SOL     OW 4480   2.684   1.002   1.372
 1490SOL    HW1 4481   2.724   1.001   1.280
 1490SOL    HW2 4482   2.694   1.094   1.412
 1491SOL     OW 4483   2.778   0.910   0.291
 1491SOL    HW1 4484   2.841   0.948   0.223
 1491SOL    HW2 4485   2.818   0.827   0.330
 1492SOL     OW 4486   3.366   1.607   0.044
 1492SOL    HW1 4487   3.274   1.644   0.051
 1492SOL    HW2 4488   3.404   1.627  -0.046
 1493SOL     OW 4489   2.234   1.288   1.490
 1493SOL    HW1 4490   2.221   1.381   1.456
 1493SOL    HW2 4491   2.150   1.236   1.477
 1494SOL     OW 4492   3.476   1.292   1.289
 1494SOL    HW1 4493   3.536   1.295   1.369
 1494SOL    HW2 4494   3.401   1.356   1.302
 1495SOL     OW 4495   2.901   1.098   0.696
 1495SOL    HW1 4496   2.831   1.051   0.750
 1495SOL    HW2 4497   2.960   1.030   0.653
 1496SOL     OW 4498   2.876   0.236   0.971
 1496SOL    HW1 4499   2.868   0.200   0.878
 1496SOL    HW2 4500   2.874   0.160   1.036
 1497SOL     OW 4501   2.452   1.487   0.491
 1497SOL    HW1 4502   2.494   1.429   0.421
 1497SOL    HW2 4503   2.408   1.566   0.447
 1498SOL     OW 4504   3.571   0.385   1.381
 1498SOL    HW1 4505   3.644   0.454   1.385
 1498SOL    HW2 4506   3.599   0.310   1.322
 1499SOL     OW 4507   2.117   1.348   0.290
 1499SOL    HW1 4508   2.021   1.349   0.263
 1499SOL    HW2 4509   2.129   1.401   0.374
 1500SOL     OW 4510   1.967   1.013   1.726
 1500SOL    HW1 4511   1.890   0.980   1.780
 1500SOL    HW2 4512   2.052   0.983   1.768
 1501SOL     OW 4513   2.534   0.203   1.489
 1501SOL    HW1 4514   2.624   0.187   1.449
 1501SOL    HW2 4515   2.542   0.208   1.588
 1502SOL     OW 4516   3.302   0.856   1.398
 1502SOL    HW1 4517   3.245   0.908   1.335
 1502SOL    HW2 4518   3.398   0.868   1.374
 1503SOL     OW 4519   3.045   1.335   0.119
 1503SOL    HW1 4520   2.946   1.324   0.121
 1503SOL    HW2 4521   3.079   1.350   0.212
 1504SOL     OW 4522   2.475   0.842   1.431
 1504SOL    HW1 4523   2.531   0.923   1.414
 1504SOL    HW2 4524   2.534   0.762   1.434
 1505SOL     OW 4525   3.355   1.767   0.959
 1505SOL    HW1 4526   3.388   1.831   0.890
 1505SOL    HW2 4527   3.421   1.761   1.034
 1506SOL     OW 4528   2.578   0.565   1.708
 1506SOL    HW1 4529   2.597   0.630   1.782
 1506SOL    HW2 4530   2.638   0.485   1.717
 1507SOL     OW 4531   3.312   1.220   1.633
 1507SOL    HW1 4532   3.303   1.210   1.732
 1507SOL    HW2 4533   3.408   1.213   1.607
 1508SOL     OW 4534   2.252   1.741   1.560
 1508SOL    HW1 4535   2.161   1.782   1.558
 1508SOL    HW2 4536   2.245   1.647   1.592
 1509SOL     OW 4537   3.536   0.883   1.254
 1509SOL    HW1 4538   3.509   0.794   1.217
 1509SOL    HW2 4539   3.537   0.951   1.181
 1510SOL     OW 4540   3.087   0.325   0.449
 1510SOL    HW1 4541   3.152   0.251   0.438
 1510SOL    HW2 4542   3.107   0.375   0.533
 1511SOL     OW 4543   2.456   0.745   0.652
 1511SOL    HW1 4544   2.506   0.830   0.633
 1511SOL    HW2 4545   2.368   0.747   0.604
 1512SOL     OW 4546   3.639   0.342   1.642
 1512SOL    HW1 4547   3.622   0.373   1.548
 1512SOL    HW2 4548   3.555   0.305   1.680
 1513SOL     OW 4549   3.592   0.934   1.517
 1513SOL    HW1 4550   3.630   1.025   1.532
 1513SOL    HW2 4551   3.584   0.917   1.418
 1514SOL     OW 4552   2.721   1.374   0.016
 1514SOL    HW1 4553   2.675   1.389   0.104
 1514SOL    HW2 4554   2.765   1.459  -0.014
 1515SOL     OW 4555   2.523   1.790   0.953
 1515SOL    HW1 4556   2.477   1.878   0.940
 1515SOL    HW2 4557   2.622   1.802   0.946
 1516SOL     OW 4558   2.721   0.956   0.861
 1516SOL    HW1 4559   2.775   0.887   0.909
 1516SOL    HW2 4560   2.689   1.025   0.927
 1517SOL     OW 4561   2.945   0.984   0.087
 1517SOL    HW1 4562   2.922   1.037   0.005
 1517SOL    HW2 4563   3.026   0.928   0.068
 1518SOL     OW 4564   3.723   1.569   0.851
 1518SOL    HW1 4565   3.652   1.557   0.781
 1518SOL    HW2 4566   3.724   1.490   0.911
 1519SOL     OW 4567   2.083   1.314   1.844
 1519SOL    HW1 4568   2.018   1.241   1.823
 1519SOL    HW2 4569   2.087   1.328   1.942
 1520SOL     OW 4570   1.941   1.240   0.653
 1520SOL    HW1 4571   1.940   1.193   0.741
 1520SOL    HW2 4572   2.023   1.212   0.602
 1521SOL     OW 4573   2.534   1.391   1.624
 1521SOL    HW1 4574   2.456   1.341   1.662
 1521SOL    HW2 4575   2.531   1.486   1.655
 1522SOL     OW 4576   3.686   0.192   1.227
 1522SOL    HW1 4577   3.682   0.102   1.271
 1522SOL    HW2 4578   3.689   0.181   1.128
 1523SOL     OW 4579   2.290   0.424   0.520
 1523SOL    HW1 4580   2.320   0.352   0.458
 1523SOL    HW2 4581   2.251   0.384   0.603
 1524SOL     OW 4582   3.567   1.487   1.104
 1524SOL    HW1 4583   3.474   1.462   1.077
 1524SOL    HW2 4584   3.593   1.437   1.186
 1525SOL     OW 4585   2.179   0.547   1.280
 1525SOL    HW1 4586   2.217   0.488   1.352
 1525SOL    HW2 4587   2.219   0.521   1.192
 1526SOL     OW 4588   2.674   1.586   0.687
 1526SOL    HW1 4589   2.706   1.596   0.593
 1526SOL    HW2 4590   2.595   1.524   0.689
 1527SOL     OW 4591   3.286   0.214   1.112
 1527SOL    HW1 4592   3.338   0.149   1.167
 1527SOL    HW2 4593   3.237   0.277   1.173
 1528SOL     OW 4594   2.863   0.034   1.154
 1528SOL    HW1 4595   2.800  -0.038   1.123
 1528SOL    HW2 4596   2.956  -0.002   1.154
 1529SOL     OW 4597   2.632   1.330   0.301
 1529SOL    HW1 4598   2.586   1.243   0.318
 1529SOL    HW2 4599   2.723   1.327   0.342
 1530SOL     OW 4600   2.480   1.567   1.284
 1530SOL    HW1 4601   2.475   1.649   1.341
 1530SOL    HW2 4602   2.569   1.564   1.239
 1531SOL     OW 4603   3.214   0.052   0.168
 1531SOL    HW1 4604   3.249   0.011   0.084
 1531SOL    HW2 4605   3.124   0.014   0.188
 1532SOL     OW 4606   3.162   0.453   0.691
 1532SOL    HW1 4607   3.103   0.533   0.695
 1532SOL    HW2 4608   3.177   0.418   0.784
 1533SOL     OW 4609   3.455   0.221   0.882
 1533SOL    HW1 4610   3.371   0.220   0.936
 1533SOL    HW2 4611   3.457   0.304   0.826
 1534SOL     OW 4612   1.901   1.077   0.300
 1534SOL    HW1 4613   2.000   1.066   0.291
 1534SOL    HW2 4614   1.861   0.991   0.332
 1535SOL     OW 4615   2.737   1.646   0.337
 1535SOL    HW1 4616   2.660   1.611   0.283
 1535SOL    HW2 4617   2.705   1.717   0.399
 1536SOL     OW 4618   2.092   0.628   1.975
 1536SOL    HW1 4619   1.999   0.626   2.012
 1536SOL    HW2 4620   2.093   0.589   1.883
 1537SOL     OW 4621   2.087   0.275   2.858
 1537SOL    HW1 4622   2.122   0.258   2.950
 1537SOL    HW2 4623   1.999   0.230   2.846
 1538SOL     OW 4624   1.881   0.368   2.509
 1538SOL    HW1 4625   1.799   0.411   2.548
 1538SOL    HW2 4626   1.853   0.295   2.446
 1539SOL     OW 4627   2.431   1.275   3.027
 1539SOL    HW1 4628   2.338   1.268   2.990
 1539SOL    HW2 4629   2.442   1.364   3.071
 1540SOL     OW 4630   3.417   1.511   2.565
 1540SOL    HW1 4631   3.360   1.495   2.646
 1540SOL    HW2 4632   3.358   1.521   2.485
 1541SOL     OW 4633   2.997   0.703   2.579
 1541SOL    HW1 4634   3.054   0.781   2.554
 1541SOL    HW2 4635   2.937   0.729   2.655
 1542SOL     OW 4636   3.617   0.607   2.093
 1542SOL    HW1 4637   3.605   0.594   1.994
 1542SOL    HW2 4638   3.587   0.526   2.142
 1543SOL     OW 4639   2.630   1.144   2.885
 1543SOL    HW1 4640   2.552   1.161   2.945
 1543SOL    HW2 4641   2.664   1.231   2.849
 1544SOL     OW 4642   2.712   0.798   3.685
 1544SOL    HW1 4643   2.708   0.874   3.750
 1544SOL    HW2 4644   2.734   0.834   3.594
 1545SOL     OW 4645   2.547   1.012   2.527
 1545SOL    HW1 4646   2.616   0.996   2.597
 1545SOL    HW2 4647   2.474   1.069   2.565
 1546SOL     OW 4648   2.548   1.161   3.665
 1546SOL    HW1 4649   2.608   1.240   3.679
 1546SOL    HW2 4650   2.462   1.192   3.624
 1547SOL     OW 4651   2.197   1.435   2.923
 1547SOL    HW1 4652   2.119   1.404   2.870
 1547SOL    HW2 4653   2.255   1.493   2.866
 1548SOL     OW 4654   3.322   1.505   3.201
 1548SOL    HW1 4655   3.346   1.599   3.227
 1548SOL    HW2 4656   3.306   1.451   3.283
 1549SOL     OW 4657   2.300   0.392   3.361
 1549SOL    HW1 4658   2.382   0.336   3.370
 1549SOL    HW2 4659   2.219   0.334   3.365
 1550SOL     OW 4660   3.465   0.447   2.599
 1550SOL    HW1 4661   3.391   0.493   2.549
 1550SOL    HW2 4662   3.516   0.515   2.652
 1551SOL     OW 4663   2.093   1.713   2.345
 1551SOL    HW1 4664   2.127   1.790   2.399
 1551SOL    HW2 4665   2.137   1.713   2.255
 1552SOL     OW 4666   2.989   1.341   3.552
 1552SOL    HW1 4667   3.036   1.341   3.640
 1552SOL    HW2 4668   2.941   1.254   3.541
 1553SOL     OW 4669   2.092   1.434   2.400
 1553SOL    HW1 4670   2.066   1.530   2.400
 1553SOL    HW2 4671   2.021   1.380   2.445
 1554SOL     OW 4672   2.102   1.091   2.748
 1554SOL    HW1 4673   2.116   1.007   2.800
 1554SOL    HW2 4674   2.047   1.155   2.803
 1555SOL     OW 4675   2.482   1.786   3.301
 1555SOL    HW1 4676   2.390   1.769   3.336
 1555SOL    HW2 4677   2.510   1.878   3.327
 1556SOL     OW 4678   2.468   0.964   1.985
 1556SOL    HW1 4679   2.475   1.048   1.931
 1556SOL    HW2 4680   2.514   0.977   2.073
 1557SOL     OW 4681   3.456   0.114   3.342
 1557SOL    HW1 4682   3.438   0.181   3.270
 1557SOL    HW2 4683   3.453   0.160   3.431
 1558SOL     OW 4684   1.984   0.643   2.425
 1558SOL    HW1 4685   1.939   0.555   2.442
 1558SOL    HW2 4686   1.983   0.697   2.509
 1559SOL     OW 4687   3.704   1.767   2.221
 1559SOL    HW1 4688   3.758   1.738   2.301
 1559SOL    HW2 4689   3.734   1.857   2.192
 1560SOL     OW 4690   1.889   1.596   1.979
 1560SOL    HW1 4691   1.870   1.500   2.000
 1560SOL    HW2 4692   1.856   1.654   2.054
 1561SOL     OW 4693   3.551   0.922   2.474
 1561SOL    HW1 4694   3.646   0.893   2.482
 1561SOL    HW2 4695   3.543   0.987   2.399
 1562SOL     OW 4696   3.503   1.108   2.294
 1562SOL    HW1 4697   3.589   1.110   2.242
 1562SOL    HW2 4698   3.517   1.155   2.382
 1563SOL     OW 4699   1.975   0.737   3.459
 1563SOL    HW1 4700   2.063   0.724   3.504
 1563SOL    HW2 4701   1.962   0.834   3.437
 1564SOL     OW 4702   2.475   1.365   2.588
 1564SOL    HW1 4703   2.426   1.278   2.597
 1564SOL    HW2 4704   2.452   1.408   2.501
 1565SOL     OW 4705   3.155   1.228   3.285
 1565SOL    HW1 4706   3.192   1.155   3.227
 1565SOL    HW2 4707   3.207   1.233   3.370
 1566SOL     OW 4708   2.671   0.004   2.364
 1566SOL    HW1 4709   2.711   0.095   2.355
 1566SOL    HW2 4710   2.571   0.012   2.370
 1567SOL     OW 4711   2.059   0.976   3.126
 1567SOL    HW1 4712   2.148   0.931   3.112
 1567SOL    HW2 4713   1.986   0.911   3.107
 1568SOL     OW 4714   3.387   0.999   2.052
 1568SOL    HW1 4715   3.324   0.923   2.065
 1568SOL    HW2 4716   3.435   1.017   2.138
 1569SOL     OW 4717   3.049   1.792   3.478
 1569SOL    HW1 4718   3.073   1.852   3.402
 1569SOL    HW2 4719   3.056   1.697   3.448
 1570SOL     OW 4720   2.179   0.251   3.663
 1570SOL    HW1 4721   2.250   0.322   3.669
 1570SOL    HW2 4722   2.091   0.290   3.691
 1571SOL     OW 4723   3.328   1.417   2.815
 1571SOL    HW1 4724   3.269   1.423   2.895
 1571SOL    HW2 4725   3.313   1.329   2.769
 1572SOL     OW 4726   3.529   1.714   2.434
 1572SOL    HW1 4727   3.488   1.691   2.346
 1572SOL    HW2 4728   3.511   1.640   2.499
 1573SOL     OW 4729   2.460   0.729   2.132
 1573SOL    HW1 4730   2.484   0.798   2.064
 1573SOL    HW2 4731   2.382   0.762   2.186
 1574SOL     OW 4732   3.143   0.345   2.806
 1574SOL    HW1 4733   3.057   0.295   2.793
 1574SOL    HW2 4734   3.205   0.291   2.862
 1575SOL     OW 4735   3.438   1.662   2.169
 1575SOL    HW1 4736   3.527   1.708   2.172
 1575SOL    HW2 4737   3.417   1.638   2.074
 1576SOL     OW 4738   2.669   0.605   3.327
 1576SOL    HW1 4739   2.622   0.602   3.416
 1576SOL    HW2 4740   2.618   0.550   3.261
 1577SOL     OW 4741   3.256   0.469   3.536
 1577SOL    HW1 4742   3.236   0.512   3.624
 1577SOL    HW2 4743   3.334   0.407   3.545
 1578SOL     OW 4744   2.835   0.890   3.434
 1578SOL    HW1 4745   2.881   0.806   3.405
 1578SOL    HW2 4746   2.779   0.924   3.359
 1579SOL     OW 4747   2.853   0.410   3.104
 1579SOL    HW1 4748   2.776   0.444   3.158
 1579SOL    HW2 4749   2.819   0.359   3.025
 1580SOL     OW 4750   2.903   0.701   2.291
 1580SOL    HW1 4751   2.929   0.697   2.387
 1580SOL    HW2 4752   2.818   0.650   2.277
 1581SOL     OW 4753   1.938   0.811   2.651
 1581SOL    HW1 4754   2.037   0.799   2.660
 1581SOL    HW2 4755   1.914   0.906   2.672
 1582SOL     OW 4756   1.992   1.821   3.433
 1582SOL    HW1 4757   1.982   1.806   3.532
 1582SOL    HW2 4758   1.906   1.857   3.397
 1583SOL     OW 4759   2.727   0.348   2.057
 1583SOL    HW1 4760   2.786   0.411   2.008
 1583SOL    HW2 4761   2.746   0.254   2.028
 1584SOL     OW 4762   3.581   0.585   3.693
 1584SOL    HW1 4763   3.555   0.674   3.657
 1584SOL    HW2 4764   3.579   0.517   3.620
 1585SOL     OW 4765   3.224   1.144   2.407
 1585SOL    HW1 4766   3.307   1.115   2.359
 1585SOL    HW2 4767   3.175   1.211   2.351
 1586SOL     OW 4768   2.412   0.196   2.747
 1586SOL    HW1 4769   2.407   0.191   2.847
 1586SOL    HW2 4770   2.414   0.292   2.718
 1587SOL     OW 4771   2.870   1.456   2.339
 1587SOL    HW1 4772   2.824   1.528   2.287
 1587SOL    HW2 4773   2.866   1.476   2.437
 1588SOL     OW 4774   2.213   1.801   2.715
 1588SOL    HW1 4775   2.263   1.715   2.721
 1588SOL    HW2 4776   2.278   1.878   2.712
 1589SOL     OW 4777   3.657   1.066   2.735
 1589SOL    HW1 4778   3.595   1.051   2.659
 1589SOL    HW2 4779   3.605   1.077   2.820
 1590SOL     OW 4780   3.089   1.550   3.368
 1590SOL    HW1 4781   3.095   1.473   3.432
 1590SOL    HW2 4782   3.037   1.524   3.288
 1591SOL     OW 4783   2.183   0.943   2.104
 1591SOL    HW1 4784   2.265   0.982   2.062
 1591SOL    HW2 4785   2.156   0.861   2.055
 1592SOL     OW 4786   3.320   0.735   2.590
 1592SOL    HW1 4787   3.315   0.670   2.665
 1592SOL    HW2 4788   3.400   0.794   2.603
 1593SOL     OW 4789   2.323   1.266   3.589
 1593SOL    HW1 4790   2.273   1.267   3.503
 1593SOL    HW2 4791   2.260   1.248   3.665
 1594SOL     OW 4792   2.973   1.776   2.099
 1594SOL    HW1 4793   2.913   1.714   2.149
 1594SOL    HW2 4794   3.004   1.732   2.014
 1595SOL     OW 4795   2.064   0.285   3.360
 1595SOL    HW1 4796   1.984   0.345   3.347
 1595SOL    HW2 4797   2.054   0.236   3.446
 1596SOL     OW 4798   3.494   1.377   1.943
 1596SOL    HW1 4799   3.462   1.471   1.933
 1596SOL    HW2 4800   3.418   1.314   1.931
 1597SOL     OW 4801   2.326   1.743   2.185
 1597SOL    HW1 4802   2.359   1.782   2.271
 1597SOL    HW2 4803   2.402   1.736   2.120
 1598SOL     OW 4804   3.262   0.107   2.288
 1598SOL    HW1 4805   3.238   0.070   2.198
 1598SOL    HW2 4806   3.361   0.123   2.292
 1599SOL     OW 4807   2.111   1.785   3.103
 1599SOL    HW1 4808   2.168   1.720   3.153
 1599SOL    HW2 4809   2.095   1.752   3.010
 1600SOL     OW 4810   2.802   1.698   2.766
 1600SOL    HW1 4811   2.882   1.641   2.787
 1600SOL    HW2 4812   2.753   1.658   2.689
 1601SOL     OW 4813   2.244   0.700   2.342
 1601SOL    HW1 4814   2.289   0.610   2.339
 1601SOL    HW2 4815   2.150   0.689   2.375
 1602SOL     OW 4816   3.409   0.222   3.591
 1602SOL    HW1 4817   3.404   0.259   3.683
 1602SOL    HW2 4818   3.337   0.153   3.579
 1603SOL     OW 4819   2.476   0.122   1.979
 1603SOL    HW1 4820   2.574   0.100   1.986
 1603SOL    HW2 4821   2.445   0.105   1.886
 1604SOL     OW 4822   2.643   0.264   3.611
 1604SOL    HW1 4823   2.710   0.203   3.654
 1604SOL    HW2 4824   2.570   0.283   3.676
 1605SOL     OW 4825   2.750   1.514   3.057
 1605SOL    HW1 4826   2.727   1.489   2.963
 1605SOL    HW2 4827   2.811   1.445   3.096
 1606SOL     OW 4828   3.213   0.590   3.295
 1606SOL    HW1 4829   3.241   0.547   3.380
 1606SOL    HW2 4830   3.238   0.686   3.296
 1607SOL     OW 4831   2.665   1.402   2.786
 1607SOL    HW1 4832   2.755   1.416   2.744
 1607SOL    HW2 4833   2.594   1.404   2.715
 1608SOL     OW 4834   2.784   0.503   2.761
 1608SOL    HW1 4835   2.759   0.494   2.665
 1608SOL    HW2 4836   2.832   0.421   2.792
 1609SOL     OW 4837   2.401   0.064   2.374
 1609SOL    HW1 4838   2.320   0.065   2.432
 1609SOL    HW2 4839   2.404   0.147   2.319
 1610SOL     OW 4840   3.296   1.188   1.903
 1610SOL    HW1 4841   3.328   1.112   1.960
 1610SOL    HW2 4842   3.204   1.215   1.933
 1611SOL     OW 4843   2.159   0.035   2.033
 1611SOL    HW1 4844   2.208   0.119   2.012
 1611SOL    HW2 4845   2.221  -0.030   2.078
 1612SOL     OW 4846   2.797   0.236   2.342
 1612SOL    HW1 4847   2.749   0.277   2.264
 1612SOL    HW2 4848   2.896   0.234   2.323
 1613SOL     OW 4849   2.938   0.683   3.326
 1613SOL    HW1 4850   2.858   0.622   3.329
 1613SOL    HW2 4851   3.019   0.630   3.302
 1614SOL     OW 4852   3.089   1.570   2.655
 1614SOL    HW1 4853   3.110   1.644   2.590
 1614SOL    HW2 4854   3.157   1.570   2.728
 1615SOL     OW 4855   2.321   1.152   2.603
 1615SOL    HW1 4856   2.250   1.125   2.668
 1615SOL    HW2 4857   2.295   1.124   2.510
 1616SOL     OW 4858   3.133   1.797   2.453
 1616SOL    HW1 4859   3.177   1.861   2.389
 1616SOL    HW2 4860   3.083   1.849   2.523
 1617SOL     OW 4861   2.894   0.549   1.878
 1617SOL    HW1 4862   2.853   0.631   1.839
 1617SOL    HW2 4863   2.958   0.575   1.951
 1618SOL     OW 4864   1.940   0.556   3.248
 1618SOL    HW1 4865   2.032   0.555   3.207
 1618SOL    HW2 4866   1.934   0.630   3.315
 1619SOL     OW 4867   2.423   0.222   3.009
 1619SOL    HW1 4868   2.461   0.138   3.046
 1619SOL    HW2 4869   2.335   0.241   3.053
 1620SOL     OW 4870   2.728   0.454   2.504
 1620SOL    HW1 4871   2.696   0.526   2.442
 1620SOL    HW2 4872   2.752   0.373   2.451
 1621SOL     OW 4873   2.879   0.039   2.615
 1621SOL    HW1 4874   2.807   0.044   2.546
 1621SOL    HW2 4875   2.855  -0.030   2.684
 1622SOL     OW 4876   3.291   1.173   2.729
 1622SOL    HW1 4877   3.236   1.089   2.722
 1622SOL    HW2 4878   3.317   1.202   2.637
 1623SOL     OW 4879   3.328   0.590   2.854
 1623SOL    HW1 4880   3.298   0.495   2.861
 1623SOL    HW2 4881   3.401   0.606   2.920
 1624SOL     OW 4882   3.719   0.833   2.239
 1624SOL    HW1 4883   3.761   0.769   2.303
 1624SOL    HW2 4884   3.681   0.782   2.161
 1625SOL     OW 4885   2.350   1.385   2.036
 1625SOL    HW1 4886   2.263   1.370   2.083
 1625SOL    HW2 4887   2.333   1.411   1.941
 1626SOL     OW 4888   3.526   1.280   2.519
 1626SOL    HW1 4889   3.625   1.288   2.533
 1626SOL    HW2 4890   3.481   1.364   2.550
 1627SOL     OW 4891   3.252   0.575   1.940
 1627SOL    HW1 4892   3.198   0.554   2.021
 1627SOL    HW2 4893   3.343   0.534   1.949
 1628SOL     OW 4894   2.389   0.256   2.190
 1628SOL    HW1 4895   2.416   0.197   2.115
 1628SOL    HW2 4896   2.389   0.351   2.159
 1629SOL     OW 4897   3.616   1.223   3.450
 1629SOL    HW1 4898   3.707   1.184   3.437
 1629SOL    HW2 4899   3.624   1.319   3.474
 1630SOL     OW 4900   2.926   1.347   3.202
 1630SOL    HW1 4901   2.846   1.324   3.257
 1630SOL    HW2 4902   3.009   1.321   3.251
 1631SOL     OW 4903   3.454   1.629   3.487
 1631SOL    HW1 4904   3.481   1.663   3.397
 1631SOL    HW2 4905   3.533   1.591   3.533
 1632SOL     OW 4906   2.973   1.195   2.962
 1632SOL    HW1 4907   2.933   1.239   3.043
 1632SOL    HW2 4908   2.932   1.232   2.879
 1633SOL     OW 4909   3.500   1.099   2.941
 1633SOL    HW1 4910   3.505   1.180   3.000
 1633SOL    HW2 4911   3.414   1.101   2.890
 1634SOL     OW 4912   2.777   0.089   3.264
 1634SOL    HW1 4913   2.802   0.069   3.169
 1634SOL    HW2 4914   2.849   0.145   3.306
 1635SOL     OW 4915   2.842   1.116   3.581
 1635SOL    HW1 4916   2.743   1.122   3.591
 1635SOL    HW2 4917   2.865   1.036   3.525
 1636SOL     OW 4918   2.567   1.050   2.230
 1636SOL    HW1 4919   2.553   1.057   2.329
 1636SOL    HW2 4920   2.651   0.999   2.212
 1637SOL     OW 4921   2.272   0.813   3.113
 1637SOL    HW1 4922   2.358   0.825   3.163
 1637SOL    HW2 4923   2.230   0.726   3.140
 1638SOL     OW 4924   3.136   0.386   3.124
 1638SOL    HW1 4925   3.157   0.460   3.188
 1638SOL    HW2 4926   3.047   0.403   3.081
 1639SOL     OW 4927   1.926   1.564   3.193
 1639SOL    HW1 4928   1.880   1.646   3.159
 1639SOL    HW2 4929   2.024   1.583   3.202
 1640SOL     OW 4930   2.229   1.100   2.363
 1640SOL    HW1 4931   2.222   1.183   2.307
 1640SOL    HW2 4932   2.233   1.020   2.303
 1641SOL     OW 4933   2.428   0.537   2.727
 1641SOL    HW1 4934   2.440   0.603   2.653
 1641SOL    HW2 4935   2.474   0.571   2.810
 1642SOL     OW 4936   3.114   1.348   2.250
 1642SOL    HW1 4937   3.164   1.425   2.290
 1642SOL    HW2 4938   3.019   1.350   2.282
 1643SOL     OW 4939   3.134   1.445   3.004
 1643SOL    HW1 4940   3.181   1.458   3.091
 1643SOL    HW2 4941   3.068   1.371   3.013
 1644SOL     OW 4942   3.444   0.639   2.334
 1644SOL    HW1 4943   3.413   0.700   2.407
 1644SOL    HW2 4944   3.494   0.691   2.265
 1645SOL     OW 4945   2.216   1.510   3.191
 1645SOL    HW1 4946   2.195   1.466   3.104
 1645SOL    HW2 4947   2.313   1.536   3.194
 1646SOL     OW 4948   2.264   0.751   3.460
 1646SOL    HW1 4949   2.332   0.806   3.413
 1646SOL    HW2 4950   2.304   0.663   3.487
 1647SOL     OW 4951   3.449   0.779   3.532
 1647SOL    HW1 4952   3.357   0.817   3.527
 1647SOL    HW2 4953   3.509   0.826   3.467
 1648SOL     OW 4954   2.875   0.105   3.632
 1648SOL    HW1 4955   2.881   0.190   3.580
 1648SOL    HW2 4956   2.907   0.029   3.575
 1649SOL     OW 4957   2.366   0.050   3.602
 1649SOL    HW1 4958   2.324  -0.007   3.532
 1649SOL    HW2 4959   2.300   0.119   3.634
 1650SOL     OW 4960   2.435   0.870   2.891
 1650SOL    HW1 4961   2.479   0.959   2.882
 1650SOL    HW2 4962   2.372   0.870   2.968
 1651SOL     OW 4963   3.222   0.862   2.907
 1651SOL    HW1 4964   3.147   0.862   2.841
 1651SOL    HW2 4965   3.259   0.770   2.916
 1652SOL     OW 4966   3.071   0.525   2.137
 1652SOL    HW1 4967   3.084   0.441   2.191
 1652SOL    HW2 4968   3.042   0.599   2.197
 1653SOL     OW 4969   2.169   0.213   3.093
 1653SOL    HW1 4970   2.146   0.250   3.183
 1653SOL    HW2 4971   2.139   0.118   3.087
 1654SOL     OW 4972   1.899   1.310   3.144
 1654SOL    HW1 4973   1.952   1.261   3.212
 1654SOL    HW2 4974   1.921   1.408   3.149
 1655SOL     OW 4975   2.594   0.634   2.926
 1655SOL    HW1 4976   2.653   0.608   2.850
 1655SOL    HW2 4977   2.566   0.730   2.915
 1656SOL     OW 4978   3.590   0.935   3.716
 1656SOL    HW1 4979   3.544   0.928   3.627
 1656SOL    HW2 4980   3.528   0.979   3.782
 1657SOL     OW 4981   2.169   0.063   2.480
 1657SOL    HW1 4982   2.158   0.157   2.513
 1657SOL    HW2 4983   2.164   0.000   2.557
 1658SOL     OW 4984   3.484   0.367   2.236
 1658SOL    HW1 4985   3.486   0.291   2.300
 1658SOL    HW2 4986   3.436   0.444   2.276
 1659SOL     OW 4987   2.885   0.766   2.828
 1659SOL    HW1 4988   2.900   0.787   2.924
 1659SOL    HW2 4989   2.855   0.671   2.819
 1660SOL     OW 4990   2.842   1.573   3.562
 1660SOL    HW1 4991   2.822   1.617   3.474
 1660SOL    HW2 4992   2.881   1.482   3.546
 1661SOL     OW 4993   3.721   1.518   3.467
 1661SOL    HW1 4994   3.735   1.545   3.372
 1661SOL    HW2 4995   3.804   1.540   3.520
 1662SOL     OW 4996   2.212   0.898   3.666
 1662SOL    HW1 4997   2.288   0.942   3.714
 1662SOL    HW2 4998   2.247   0.851   3.584
 1663SOL     OW 4999   3.402   0.274   1.987
 1663SOL    HW1 5000   3.341   0.199   2.010
 1663SOL    HW2 5001   3.424   0.326   2.070
 1664SOL     OW 5002   3.165   0.838   1.904
 1664SOL    HW1 5003   3.199   0.745   1.919
 1664SOL    HW2 5004   3.183   0.865   1.809
 1665SOL     OW 5005   2.930   1.333   2.711
 1665SOL    HW1 5006   2.937   1.249   2.656
 1665SOL    HW2 5007   2.992   1.402   2.675
 1666SOL     OW 5008   2.181   0.810   2.811
 1666SOL    HW1 5009   2.274   0.846   2.816
 1666SOL    HW2 5010   2.175   0.725   2.863
 1667SOL     OW 5011   2.201   0.509   2.868
 1667SOL    HW1 5012   2.149   0.426   2.851
 1667SOL    HW2 5013   2.278   0.514   2.804
 1668SOL     OW 5014   3.000   0.380   3.540
 1668SOL    HW1 5015   2.955   0.443   3.604
 1668SOL    HW2 5016   3.093   0.411   3.523
 1669SOL     OW 5017   3.022   0.207   3.339
 1669SOL    HW1 5018   3.022   0.271   3.416
 1669SOL    HW2 5019   3.050   0.255   3.256
 1670SOL     OW 5020   1.870   1.326   2.062
 1670SOL    HW1 5021   1.777   1.347   2.031
 1670SOL    HW2 5022   1.880   1.227   2.075
 1671SOL     OW 5023   1.950   1.801   2.789
 1671SOL    HW1 5024   1.908   1.715   2.762
 1671SOL    HW2 5025   2.044   1.804   2.755
 1672SOL     OW 5026   2.366   1.568   2.772
 1672SOL    HW1 5027   2.432   1.642   2.781
 1672SOL    HW2 5028   2.410   1.489   2.730
 1673SOL     OW 5029   2.864   0.796   3.100
 1673SOL    HW1 5030   2.905   0.764   3.186
 1673SOL    HW2 5031   2.768   0.769   3.097
 1674SOL     OW 5032   1.902   0.544   2.976
 1674SOL    HW1 5033   1.987   0.511   2.935
 1674SOL    HW2 5034   1.915   0.559   3.074
 1675SOL     OW 5035   2.051   0.520   3.584
 1675SOL    HW1 5036   2.110   0.480   3.514
 1675SOL    HW2 5037   1.993   0.591   3.543
 1676SOL     OW 5038   3.231   0.950   3.522
 1676SOL    HW1 5039   3.270   1.039   3.542
 1676SOL    HW2 5040   3.241   0.930   3.425
 1677SOL     OW 5041   2.677   0.572   2.187
 1677SOL    HW1 5042   2.684   0.483   2.141
 1677SOL    HW2 5043   2.583   0.606   2.179
 1678SOL     OW 5044   3.519   0.604   3.068
 1678SOL    HW1 5045   3.481   0.535   3.130
 1678SOL    HW2 5046   3.601   0.568   3.024
 1679SOL     OW 5047   2.114   1.564   3.606
 1679SOL    HW1 5048   2.084   1.621   3.682
 1679SOL    HW2 5049   2.107   1.467   3.632
 1680SOL     OW 5050   2.533   0.464   3.131
 1680SOL    HW1 5051   2.499   0.375   3.101
 1680SOL    HW2 5052   2.559   0.518   3.051
 1681SOL     OW 5053   2.792   1.678   3.327
 1681SOL    HW1 5054   2.768   1.660   3.232
 1681SOL    HW2 5055   2.822   1.772   3.337
 1682SOL     OW 5056   2.335   0.500   2.053
 1682SOL    HW1 5057   2.396   0.580   2.057
 1682SOL    HW2 5058   2.240   0.531   2.060
 1683SOL     OW 5059   2.021   1.137   3.328
 1683SOL    HW1 5060   2.043   1.076   3.404
 1683SOL    HW2 5061   2.031   1.088   3.242
 1684SOL     OW 5062   3.209   1.059   3.096
 1684SOL    HW1 5063   3.233   0.996   3.022
 1684SOL    HW2 5064   3.119   1.099   3.078
 1685SOL     OW 5065   3.164   0.855   2.171
 1685SOL    HW1 5066   3.078   0.824   2.213
 1685SOL    HW2 5067   3.160   0.841   2.072
 1686SOL     OW 5068   3.621   1.747   3.016
 1686SOL    HW1 5069   3.682   1.777   2.943
 1686SOL    HW2 5070   3.583   1.658   2.994
 1687SOL     OW 5071   3.114   1.731   2.990
 1687SOL    HW1 5072   3.198   1.736   2.936
 1687SOL    HW2 5073   3.091   1.635   3.008
 1688SOL     OW 5074   1.945   1.258   2.884
 1688SOL    HW1 5075   1.940   1.257   2.984
 1688SOL    HW2 5076   1.862   1.217   2.846
 1689SOL     OW 5077   2.550   1.662   3.578
 1689SOL    HW1 5078   2.494   1.743   3.587
 1689SOL    HW2 5079   2.602   1.666   3.492
 1690SOL     OW 5080   3.588   0.135   2.385
 1690SOL    HW1 5081   3.661   0.118   2.318
 1690SOL    HW2 5082   3.557   0.048   2.423
 1691SOL     OW 5083   3.250   1.573   2.339
 1691SOL    HW1 5084   3.317   1.585   2.265
 1691SOL    HW2 5085   3.210   1.662   2.362
 1692SOL     OW 5086   1.992   1.794   3.713
 1692SOL    HW1 5087   1.951   1.720   3.766
 1692SOL    HW2 5088   2.056   1.845   3.771
 1693SOL     OW 5089   3.142   0.927   2.534
 1693SOL    HW1 5090   3.202   0.846   2.536
 1693SOL    HW2 5091   3.182   0.996   2.474
 1694SOL     OW 5092   2.692   1.273   3.284
 1694SOL    HW1 5093   2.687   1.306   3.379
 1694SOL    HW2 5094   2.606   1.292   3.238
 1695SOL     OW 5095   2.534   1.616   2.016
 1695SOL    HW1 5096   2.543   1.626   1.917
 1695SOL    HW2 5097   2.494   1.527   2.037
 1696SOL     OW 5098   3.512   1.720   3.256
 1696SOL    HW1 5099   3.565   1.730   3.172
 1696SOL    HW2 5100   3.485   1.810   3.290
 1697SOL     OW 5101   3.703   0.175   2.825
 1697SOL    HW1 5102   3.742   0.090   2.789
 1697SOL    HW2 5103   3.605   0.177   2.806
 1698SOL     OW 5104   2.125   0.326   2.582
 1698SOL    HW1 5105   2.046   0.377   2.548
 1698SOL    HW2 5106   2.116   0.311   2.680
 1699SOL     OW 5107   3.056   1.612   1.893
 1699SOL    HW1 5108   3.062   1.519   1.930
 1699SOL    HW2 5109   2.997   1.612   1.813
 1700SOL     OW 5110   2.684   1.002   3.234
 1700SOL    HW1 5111   2.724   1.001   3.142
 1700SOL    HW2 5112   2.694   1.094   3.274
 1701SOL     OW 5113   2.778   0.910   2.153
 1701SOL    HW1 5114   2.841   0.948   2.085
 1701SOL    HW2 5115   2.818   0.827   2.192
 1702SOL     OW 5116   3.366   1.607   1.906
 1702SOL    HW1 5117   3.274   1.644   1.913
 1702SOL    HW2 5118   3.404   1.627   1.816
 1703SOL     OW 5119   2.234   1.288   3.352
 1703SOL    HW1 5120   2.221   1.381   3.318
 1703SOL    HW2 5121   2.150   1.236   3.339
 1704SOL     OW 5122   3.476   1.292   3.151
 1704SOL    HW1 5123   3.536   1.295   3.231
 1704SOL    HW2 5124   3.401   1.356   3.164
 1705SOL     OW 5125   2.901   1.098   2.558
 1705SOL    HW1 5126   2.831   1.051   2.612
 1705SOL    HW2 5127   2.960   1.030   2.515
 1706SOL     OW 5128   2.876   0.236   2.833
 1706SOL    HW1 5129   2.868   0.200   2.740
 1706SOL    HW2 5130   2.874   0.160   2.898
 1707SOL     OW 5131   2.452   1.487   2.353
 1707SOL    HW1 5132   2.494   1.429   2.283
 1707SOL    HW2 5133   2.408   1.566   2.309
 1708SOL     OW 5134   3.571   0.385   3.243
 1708SOL    HW1 5135   3.644   0.454   3.247
 1708SOL    HW2 5136   3.599   0.310   3.184
 1709SOL     OW 5137   2.117   1.348   2.152
 1709SOL    HW1 5138   2.021   1.349   2.125
 1709SOL    HW2 5139   2.129   1.401   2.236
 1710SOL     OW 5140   1.967   1.013   3.588
 1710SOL    HW1 5141   1.890   0.980   3.642
 1710SOL    HW2 5142   2.052   0.983   3.630
 1711SOL     OW 5143   2.534   0.203   3.351
 1711SOL    HW1 5144   2.624   0.187   3.311
 1711SOL    HW2 5145   2.542   0.208   3.450
 1712SOL     OW 5146   1.937   0.345   1.895
 1712SOL    HW1 5147   1.845   0.317   1.866
 1712SOL    HW2 5148   1.968   0.422   1.839
 1713SOL     OW 5149   3.302   0.856   3.260
 1713SOL    HW1 5150   3.245   0.908   3.197
 1713SOL    HW2 5151   3.398   0.868   3.236
 1714SOL     OW 5152   1.934   0.166   2.180
 1714SOL    HW1 5153   1.917   0.249   2.126
 1714SOL    HW2 5154   2.024   0.129   2.158
 1715SOL     OW 5155   3.045   1.335   1.981
 1715SOL    HW1 5156   2.946   1.324   1.983
 1715SOL    HW2 5157   3.079   1.350   2.074
 1716SOL     OW 5158   2.475   0.842   3.293
 1716SOL    HW1 5159   2.531   0.923   3.276
 1716SOL    HW2 5160   2.534   0.762   3.296
 1717SOL     OW 5161   3.355   1.767   2.821
 1717SOL    HW1 5162   3.388   1.831   2.752
 1717SOL    HW2 5163   3.421   1.761   2.896
 1718SOL     OW 5164   2.578   0.565   3.570
 1718SOL    HW1 5165   2.597   0.630   3.644
 1718SOL    HW2 5166   2.638   0.485   3.579
 1719SOL     OW 5167   3.312   1.220   3.495
 1719SOL    HW1 5168   3.303   1.210   3.594
 1719SOL    HW2 5169   3.408   1.213   3.469
 1720SOL     OW 5170   2.252   1.741   3.422
 1720SOL    HW1 5171   2.161   1.782   3.420
 1720SOL    HW2 5172   2.245   1.647   3.454
 1721SOL     OW 5173   3.536   0.883   3.116
 1721SOL    HW1 5174   3.509   0.794   3.079
 1721SOL    HW2 5175   3.537   0.951   3.043
 1722SOL     OW 5176   3.087   0.325   2.311
 1722SOL    HW1 5177   3.152   0.251   2.300
 1722SOL    HW2 5178   3.107   0.375   2.395
 1723SOL     OW 5179   2.456   0.745   2.514
 1723SOL    HW1 5180   2.506   0.830   2.495
 1723SOL    HW2 5181   2.368   0.747   2.466
 1724SOL     OW 5182   3.639   0.342   3.504
 1724SOL    HW1 5183   3.622   0.373   3.410
 1724SOL    HW2 5184   3.555   0.305   3.542
 1725SOL     OW 5185   3.592   0.934   3.379
 1725SOL    HW1 5186   3.630   1.025   3.394
 1725SOL    HW2 5187   3.584   0.917   3.280
 1726SOL     OW 5188   2.721   1.374   1.878
 1726SOL    HW1 5189   2.675   1.389   1.966
 1726SOL    HW2 5190   2.765   1.459   1.848
 1727SOL     OW 5191   2.523   1.790   2.815
 1727SOL    HW1 5192   2.477   1.878   2.802
 1727SOL    HW2 5193   2.622   1.802   2.808
 1728SOL     OW 5194   2.721   0.956   2.723
 1728SOL    HW1 5195   2.775   0.887   2.771
 1728SOL    HW2 5196   2.689   1.025   2.789
 1729SOL     OW 5197   2.945   0.984   1.949
 1729SOL    HW1 5198   2.922   1.037   1.867
 1729SOL    HW2 5199   3.026   0.928   1.930
 1730SOL     OW 5200   3.723   1.569   2.713
 1730SOL    HW1 5201   3.652   1.557   2.643
 1730SOL    HW2 5202   3.724   1.490   2.773
 1731SOL     OW 5203   2.083   1.314   3.706
 1731SOL    HW1 5204   2.018   1.241   3.685
 1731SOL    HW2 5205   2.087   1.328   3.804
 1732SOL     OW 5206   1.941   1.240   2.515
 1732SOL    HW1 5207   1.940   1.193   2.603
 1732SOL    HW2 5208   2.023   1.212   2.464
 1733SOL     OW 5209   2.534   1.391   3.486
 1733SOL    HW1 5210   2.456   1.341   3.524
 1733SOL    HW2 5211   2.531   1.486   3.517
 1734SOL     OW 5212   3.686   0.192   3.089
 1734SOL    HW1 5213   3.682   0.102   3.133
 1734SOL    HW2 5214   3.689   0.181   2.990
 1735SOL     OW 5215   2.290   0.424   2.382
 1735SOL    HW1 5216   2.320   0.352   2.320
 1735SOL    HW2 5217   2.251   0.384   2.465
 1736SOL     OW 5218   3.567   1.487   2.966
 1736SOL    HW1 5219   3.474   1.462   2.939
 1736SOL    HW2 5220   3.593   1.437   3.048
 1737SOL     OW 5221   2.179   0.547   3.142
 1737SOL    HW1 5222   2.217   0.488   3.214
 1737SOL    HW2 5223   2.219   0.521   3.054
 1738SOL     OW 5224   2.674   1.586   2.549
 1738SOL    HW1 5225   2.706   1.596   2.455
 1738SOL    HW2 5226   2.595   1.524   2.551
 1739SOL     OW 5227   3.286   0.214   2.974
 1739SOL    HW1 5228   3.338   0.149   3.029
 1739SOL    HW2 5229   3.237   0.277   3.035
 1740SOL     OW 5230   2.863   0.034   3.016
 1740SOL    HW1 5231   2.800  -0.038   2.985
 1740SOL    HW2 5232   2.956  -0.002   3.016
 1741SOL     OW 5233   2.632   1.330   2.163
 1741SOL    HW1 5234   2.586   1.243   2.180
 1741SOL    HW2 5235   2.723   1.327   2.204
 1742SOL     OW 5236   2.480   1.567   3.146
 1742SOL    HW1 5237   2.475   1.649   3.203
 1742SOL    HW2 5238   2.569   1.564   3.101
 1743SOL     OW 5239   3.214   0.052   2.030
 1743SOL    HW1 5240   3.249   0.011   1.946
 1743SOL    HW2 5241   3.124   0.014   2.050
 1744SOL     OW 5242   3.162   0.453   2.553
 1744SOL    HW1 5243   3.103   0.533   2.557
 1744SOL    HW2 5244   3.177   0.418   2.646
 1745SOL     OW 5245   3.455   0.221   2.744
 1745SOL    HW1 5246   3.371   0.220   2.798
 1745SOL    HW2 5247   3.457   0.304   2.688
 1746SOL     OW 5248   1.901   1.077   2.162
 1746SOL    HW1 5249   2.000   1.066   2.153
 1746SOL    HW2 5250   1.861   0.991   2.194
 1747SOL     OW 5251   2.737   1.646   2.199
 1747SOL    HW1 5252   2.660   1.611   2.145
 1747SOL    HW2 5253   2.705   1.717   2.261
 1748SOL     OW 5254   2.092   0.628   3.837
 1748SOL    HW1 5255   1.999   0.626   3.874
 1748SOL    HW2 5256   2.093   0.589   3.745
 1749SOL     OW 5257   2.087   0.275   4.720
 1749SOL    HW1 5258   2.122   0.258   4.812
 1749SOL    HW2 5259   1.999   0.230   4.708
 1750SOL     OW 5260   1.881   0.368   4.371
 1750SOL    HW1 5261   1.799   0.411   4.410
 1750SOL    HW2 5262   1.853   0.295   4.308
 1751SOL     OW 5263   3.417   1.511   4.427
 1751SOL    HW1 5264   3.360   1.495   4.508
 1751SOL    HW2 5265   3.358   1.521   4.347
 1752SOL     OW 5266   2.997   0.703   4.441
 1752SOL    HW1 5267   3.054   0.781   4.416
 1752SOL    HW2 5268   2.937   0.729   4.517
 1753SOL     OW 5269   3.617   0.607   3.955
 1753SOL    HW1 5270   3.605   0.594   3.856
 1753SOL    HW2 5271   3.587   0.526   4.004
 1754SOL     OW 5272   2.547   1.012   4.389
 1754SOL    HW1 5273   2.616   0.996   4.459
 1754SOL    HW2 5274   2.474   1.069   4.427
 1755SOL     OW 5275   3.465   0.447   4.461
 1755SOL    HW1 5276   3.391   0.493   4.411
 1755SOL    HW2 5277   3.516   0.515   4.514
 1756SOL     OW 5278   2.093   1.713   4.207
 1756SOL    HW1 5279   2.127   1.790   4.261
 1756SOL    HW2 5280   2.137   1.713   4.117
 1757SOL     OW 5281   2.092   1.434   4.262
 1757SOL    HW1 5282   2.066   1.530   4.262
 1757SOL    HW2 5283   2.021   1.380   4.307
 1758SOL     OW 5284   2.102   1.091   4.610
 1758SOL    HW1 5285   2.116   1.007   4.662
 1758SOL    HW2 5286   2.047   1.155   4.665
 1759SOL     OW 5287   2.468   0.964   3.847
 1759SOL    HW1 5288   2.475   1.048   3.793
 1759SOL    HW2 5289   2.514   0.977   3.935
 1760SOL     OW 5290   1.984   0.643   4.287
 1760SOL    HW1 5291   1.939   0.555   4.304
 1760SOL    HW2 5292   1.983   0.697   4.371
 1761SOL     OW 5293   3.704   1.767   4.083
 1761SOL    HW1 5294   3.758   1.738   4.163
 1761SOL    HW2 5295   3.734   1.857   4.054
 1762SOL     OW 5296   1.889   1.596   3.841
 1762SOL    HW1 5297   1.870   1.500   3.862
 1762SOL    HW2 5298   1.856   1.654   3.916
 1763SOL     OW 5299   3.551   0.922   4.336
 1763SOL    HW1 5300   3.646   0.893   4.344
 1763SOL    HW2 5301   3.543   0.987   4.261
 1764SOL     OW 5302   3.503   1.108   4.156
 1764SOL    HW1 5303   3.589   1.110   4.104
 1764SOL    HW2 5304   3.517   1.155   4.244
 1765SOL     OW 5305   2.475   1.365   4.450
 1765SOL    HW1 5306   2.426   1.278   4.459
 1765SOL    HW2 5307   2.452   1.408   4.363
 1766SOL     OW 5308   2.671   0.004   4.226
 1766SOL    HW1 5309   2.711   0.095   4.217
 1766SOL    HW2 5310   2.571   0.012   4.232
 1767SOL     OW 5311   3.387   0.999   3.914
 1767SOL    HW1 5312   3.324   0.923   3.927
 1767SOL    HW2 5313   3.435   1.017   4.000
 1768SOL     OW 5314   3.328   1.417   4.677
 1768SOL    HW1 5315   3.269   1.423   4.757
 1768SOL    HW2 5316   3.313   1.329   4.631
 1769SOL     OW 5317   3.529   1.714   4.296
 1769SOL    HW1 5318   3.488   1.691   4.208
 1769SOL    HW2 5319   3.511   1.640   4.361
 1770SOL     OW 5320   2.460   0.729   3.994
 1770SOL    HW1 5321   2.484   0.798   3.926
 1770SOL    HW2 5322   2.382   0.762   4.048
 1771SOL     OW 5323   3.143   0.345   4.668
 1771SOL    HW1 5324   3.057   0.295   4.655
 1771SOL    HW2 5325   3.205   0.291   4.724
 1772SOL     OW 5326   3.438   1.662   4.031
 1772SOL    HW1 5327   3.527   1.708   4.034
 1772SOL    HW2 5328   3.417   1.638   3.936
 1773SOL     OW 5329   2.903   0.701   4.153
 1773SOL    HW1 5330   2.929   0.697   4.249
 1773SOL    HW2 5331   2.818   0.650   4.139
 1774SOL     OW 5332   1.938   0.811   4.513
 1774SOL    HW1 5333   2.037   0.799   4.522
 1774SOL    HW2 5334   1.914   0.906   4.534
 1775SOL     OW 5335   2.727   0.348   3.919
 1775SOL    HW1 5336   2.786   0.411   3.870
 1775SOL    HW2 5337   2.746   0.254   3.890
 1776SOL     OW 5338   3.224   1.144   4.269
 1776SOL    HW1 5339   3.307   1.115   4.221
 1776SOL    HW2 5340   3.175   1.211   4.213
 1777SOL     OW 5341   2.870   1.456   4.201
 1777SOL    HW1 5342   2.824   1.528   4.149
 1777SOL    HW2 5343   2.866   1.476   4.299
 1778SOL     OW 5344   2.213   1.801   4.577
 1778SOL    HW1 5345   2.263   1.715   4.583
 1778SOL    HW2 5346   2.278   1.878   4.574
 1779SOL     OW 5347   3.657   1.066   4.597
 1779SOL    HW1 5348   3.595   1.051   4.521
 1779SOL    HW2 5349   3.605   1.077   4.682
 1780SOL     OW 5350   2.183   0.943   3.966
 1780SOL    HW1 5351   2.265   0.982   3.924
 1780SOL    HW2 5352   2.156   0.861   3.917
 1781SOL     OW 5353   3.320   0.735   4.452
 1781SOL    HW1 5354   3.315   0.670   4.527
 1781SOL    HW2 5355   3.400   0.794   4.465
 1782SOL     OW 5356   2.973   1.776   3.961
 1782SOL    HW1 5357   2.913   1.714   4.011
 1782SOL    HW2 5358   3.004   1.732   3.876
 1783SOL     OW 5359   3.494   1.377   3.805
 1783SOL    HW1 5360   3.462   1.471   3.795
 1783SOL    HW2 5361   3.418   1.314   3.793
 1784SOL     OW 5362   2.326   1.743   4.047
 1784SOL    HW1 5363   2.359   1.782   4.133
 1784SOL    HW2 5364   2.402   1.736   3.982
 1785SOL     OW 5365   3.262   0.107   4.150
 1785SOL    HW1 5366   3.238   0.070   4.060
 1785SOL    HW2 5367   3.361   0.123   4.154
 1786SOL     OW 5368   2.244   0.700   4.204
 1786SOL    HW1 5369   2.289   0.610   4.201
 1786SOL    HW2 5370   2.150   0.689   4.237
 1787SOL     OW 5371   2.476   0.122   3.841
 1787SOL    HW1 5372   2.574   0.100   3.848
 1787SOL    HW2 5373   2.445   0.105   3.748
 1788SOL     OW 5374   2.401   0.064   4.236
 1788SOL    HW1 5375   2.320   0.065   4.294
 1788SOL    HW2 5376   2.404   0.147   4.181
 1789SOL     OW 5377   3.296   1.188   3.765
 1789SOL    HW1 5378   3.328   1.112   3.822
 1789SOL    HW2 5379   3.204   1.215   3.795
 1790SOL     OW 5380   2.159   0.035   3.895
 1790SOL    HW1 5381   2.208   0.119   3.874
 1790SOL    HW2 5382   2.221  -0.030   3.940
 1791SOL     OW 5383   2.797   0.236   4.204
 1791SOL    HW1 5384   2.749   0.277   4.126
 1791SOL    HW2 5385   2.896   0.234   4.185
 1792SOL     OW 5386   3.089   1.570   4.517
 1792SOL    HW1 5387   3.110   1.644   4.452
 1792SOL    HW2 5388   3.157   1.570   4.590
 1793SOL     OW 5389   2.321   1.152   4.465
 1793SOL    HW1 5390   2.250   1.125   4.530
 1793SOL    HW2 5391   2.295   1.124   4.372
 1794SOL     OW 5392   3.133   1.797   4.315
 1794SOL    HW1 5393   3.177   1.861   4.251
 1794SOL    HW2 5394   3.083   1.849   4.385
 1795SOL     OW 5395   2.894   0.549   3.740
 1795SOL    HW1 5396   2.853   0.631   3.701
 1795SOL    HW2 5397   2.958   0.575   3.813
 1796SOL     OW 5398   2.728   0.454   4.366
 1796SOL    HW1 5399   2.696   0.526   4.304
 1796SOL    HW2 5400   2.752   0.373   4.313
 1797SOL     OW 5401   2.879   0.039   4.477
 1797SOL    HW1 5402   2.807   0.044   4.408
 1797SOL    HW2 5403   2.855  -0.030   4.546
 1798SOL     OW 5404   3.719   0.833   4.101
 1798SOL    HW1 5405   3.761   0.769   4.165
 1798SOL    HW2 5406   3.681   0.782   4.023
 1799SOL     OW 5407   2.350   1.385   3.898
 1799SOL    HW1 5408   2.263   1.370   3.945
 1799SOL    HW2 5409   2.333   1.411   3.803
 1800SOL     OW 5410   3.526   1.280   4.381
 1800SOL    HW1 5411   3.625   1.288   4.395
 1800SOL    HW2 5412   3.481   1.364   4.412
 1801SOL     OW 5413   3.252   0.575   3.802
 1801SOL    HW1 5414   3.198   0.554   3.883
 1801SOL    HW2 5415   3.343   0.534   3.811
 1802SOL     OW 5416   2.389   0.256   4.052
 1802SOL    HW1 5417   2.416   0.197   3.977
 1802SOL    HW2 5418   2.389   0.351   4.021
 1803SOL     OW 5419   2.567   1.050   4.092
 1803SOL    HW1 5420   2.553   1.057   4.191
 1803SOL    HW2 5421   2.651   0.999   4.074
 1804SOL     OW 5422   2.229   1.100   4.225
 1804SOL    HW1 5423   2.222   1.183   4.169
 1804SOL    HW2 5424   2.233   1.020   4.165
 1805SOL     OW 5425   2.428   0.537   4.589
 1805SOL    HW1 5426   2.440   0.603   4.515
 1805SOL    HW2 5427   2.474   0.571   4.672
 1806SOL     OW 5428   3.114   1.348   4.112
 1806SOL    HW1 5429   3.164   1.425   4.152
 1806SOL    HW2 5430   3.019   1.350   4.144
 1807SOL     OW 5431   3.444   0.639   4.196
 1807SOL    HW1 5432   3.413   0.700   4.269
 1807SOL    HW2 5433   3.494   0.691   4.127
 1808SOL     OW 5434   3.071   0.525   3.999
 1808SOL    HW1 5435   3.084   0.441   4.053
 1808SOL    HW2 5436   3.042   0.599   4.059
 1809SOL     OW 5437   2.594   0.634   4.788
 1809SOL    HW1 5438   2.653   0.608   4.712
 1809SOL    HW2 5439   2.566   0.730   4.777
 1810SOL     OW 5440   2.169   0.063   4.342
 1810SOL    HW1 5441   2.158   0.157   4.375
 1810SOL    HW2 5442   2.164   0.000   4.419
 1811SOL     OW 5443   3.484   0.367   4.098
 1811SOL    HW1 5444   3.486   0.291   4.162
 1811SOL    HW2 5445   3.436   0.444   4.138
 1812SOL     OW 5446   3.402   0.274   3.849
 1812SOL    HW1 5447   3.341   0.199   3.872
 1812SOL    HW2 5448   3.424   0.326   3.932
 1813SOL     OW 5449   3.165   0.838   3.766
 1813SOL    HW1 5450   3.199   0.745   3.781
 1813SOL    HW2 5451   3.183   0.865   3.671
 1814SOL     OW 5452   2.930   1.333   4.573
 1814SOL    HW1 5453   2.937   1.249   4.518
 1814SOL    HW2 5454   2.992   1.402   4.537
 1815SOL     OW 5455   1.870   1.326   3.924
 1815SOL    HW1 5456   1.777   1.347   3.893
 1815SOL    HW2 5457   1.880   1.227   3.937
 1816SOL     OW 5458   1.950   1.801   4.651
 1816SOL    HW1 5459   1.908   1.715   4.624
 1816SOL    HW2 5460   2.044   1.804   4.617
 1817SOL     OW 5461   2.366   1.568   4.634
 1817SOL    HW1 5462   2.432   1.642   4.643
 1817SOL    HW2 5463   2.410   1.489   4.592
 1818SOL     OW 5464   2.677   0.572   4.049
 1818SOL    HW1 5465   2.684   0.483   4.003
 1818SOL    HW2 5466   2.583   0.606   4.041
 1819SOL     OW 5467   2.335   0.500   3.915
 1819SOL    HW1 5468   2.396   0.580   3.919
 1819SOL    HW2 5469   2.240   0.531   3.922
 1820SOL     OW 5470   3.164   0.855   4.033
 1820SOL    HW1 5471   3.078   0.824   4.075
 1820SOL    HW2 5472   3.160   0.841   3.934
 1821SOL     OW 5473   3.621   1.747   4.878
 1821SOL    HW1 5474   3.682   1.777   4.805
 1821SOL    HW2 5475   3.583   1.658   4.856
 1822SOL     OW 5476   3.588   0.135   4.247
 1822SOL    HW1 5477   3.661   0.118   4.180
 1822SOL    HW2 5478   3.557   0.048   4.285
 1823SOL     OW 5479   3.250   1.573   4.201
 1823SOL    HW1 5480   3.317   1.585   4.127
 1823SOL    HW2 5481   3.210   1.662   4.224
 1824SOL     OW 5482   3.142   0.927   4.396
 1824SOL    HW1 5483   3.202   0.846   4.398
 1824SOL    HW2 5484   3.182   0.996   4.336
 1825SOL     OW 5485   2.534   1.616   3.878
 1825SOL    HW1 5486   2.543   1.626   3.779
 1825SOL    HW2 5487   2.494   1.527   3.899
 1826SOL     OW 5488   3.703   0.175   4.687
 1826SOL    HW1 5489   3.742   0.090   4.651
 1826SOL    HW2 5490   3.605   0.177   4.668
 1827SOL     OW 5491   2.125   0.326   4.444
 1827SOL    HW1 5492   2.046   0.377   4.410
 1827SOL    HW2 5493   2.116   0.311   4.542
 1828SOL     OW 5494   3.056   1.612   3.755
 1828SOL    HW1 5495   3.062   1.519   3.792
 1828SOL    HW2 5496   2.997   1.612   3.675
 1829SOL     OW 5497   2.778   0.910   4.015
 1829SOL    HW1 5498   2.841   0.948   3.947
 1829SOL    HW2 5499   2.818   0.827   4.054
 1830SOL     OW 5500   3.366   1.607   3.768
 1830SOL    HW1 5501   3.274   1.644   3.775
 1830SOL    HW2 5502   3.404   1.627   3.678
 1831SOL     OW 5503   2.901   1.098   4.420
 1831SOL    HW1 5504   2.831   1.051   4.474
 1831SOL    HW2 5505   2.960   1.030   4.377
 1832SOL     OW 5506   2.452   1.487   4.215
 1832SOL    HW1 5507   2.494   1.429   4.145
 1832SOL    HW2 5508   2.408   1.566   4.171
 1833SOL     OW 5509   2.117   1.348   4.014
 1833SOL    HW1 5510   2.021   1.349   3.987
 1833SOL    HW2 5511   2.129   1.401   4.098
 1834SOL     OW 5512   1.937   0.345   3.757
 1834SOL    HW1 5513   1.845   0.317   3.728
 1834SOL    HW2 5514   1.968   0.422   3.701
 1835SOL     OW 5515   1.934   0.166   4.042
 1835SOL    HW1 5516   1.917   0.249   3.988
 1835SOL    HW2 5517   2.024   0.129   4.020
 1836SOL     OW 5518   3.045   1.335   3.843
 1836SOL    HW1 5519   2.946   1.324   3.845
 1836SOL    HW2 5520   3.079   1.350   3.936
 1837SOL     OW 5521   3.087   0.325   4.173
 1837SOL    HW1 5522   3.152   0.251   4.162
 1837SOL    HW2 5523   3.107   0.375   4.257
 1838SOL     OW 5524   2.456   0.745   4.376
 1838SOL    HW1 5525   2.506   0.830   4.357
 1838SOL    HW2 5526   2.368   0.747   4.328
 1839SOL     OW 5527   2.721   1.374   3.740
 1839SOL    HW1 5528   2.675   1.389   3.828
 1839SOL    HW2 5529   2.765   1.459   3.710
 1840SOL     OW 5530   2.523   1.790   4.677
 1840SOL    HW1 5531   2.477   1.878   4.664
 1840SOL    HW2 5532   2.622   1.802   4.670
 1841SOL     OW 5533   2.721   0.956   4.585
 1841SOL    HW1 5534   2.775   0.887   4.633
 1841SOL    HW2 5535   2.689   1.025   4.651
 1842SOL     OW 5536   2.945   0.984   3.811
 1842SOL    HW1 5537   2.922   1.037   3.729
 1842SOL    HW2 5538   3.026   0.928   3.792
 1843SOL     OW 5539   3.723   1.569   4.575
 1843SOL    HW1 5540   3.652   1.557   4.505
 1843SOL    HW2 5541   3.724   1.490   4.635
 1844SOL     OW 5542   1.941   1.240   4.377
 1844SOL    HW1 5543   1.940   1.193   4.465
 1844SOL    HW2 5544   2.023   1.212   4.326
 1845SOL     OW 5545   3.686   0.192   4.951
 1845SOL    HW1 5546   3.682   0.102   4.995
 1845SOL    HW2 5547   3.689   0.181   4.852
 1846SOL     OW 5548   2.290   0.424   4.244
 1846SOL    HW1 5549   2.320   0.352   4.182
 1846SOL    HW2 5550   2.251   0.384   4.327
 1847SOL     OW 5551   2.674   1.586   4.411
 1847SOL    HW1 5552   2.706   1.596   4.317
 1847SOL    HW2 5553   2.595   1.524   4.413
 1848SOL     OW 5554   2.632   1.330   4.025
 1848SOL    HW1 5555   2.586   1.243   4.042
 1848SOL    HW2 5556   2.723   1.327   4.066
 1849SOL     OW 5557   3.214   0.052   3.892
 1849SOL    HW1 5558   3.249   0.011   3.808
 1849SOL    HW2 5559   3.124   0.014   3.912
 1850SOL     OW 5560   3.162   0.453   4.415
 1850SOL    HW1 5561   3.103   0.533   4.419
 1850SOL    HW2 5562   3.177   0.418   4.508
 1851SOL     OW 5563   3.455   0.221   4.606
 1851SOL    HW1 5564   3.371   0.220   4.660
 1851SOL    HW2 5565   3.457   0.304   4.550
 1852SOL     OW 5566   1.901   1.077   4.024
 1852SOL    HW1 5567   2.000   1.066   4.015
 1852SOL    HW2 5568   1.861   0.991   4.056
 1853SOL     OW 5569   2.737   1.646   4.061
 1853SOL    HW1 5570   2.660   1.611   4.007
 1853SOL    HW2 5571   2.705   1.717   4.123
 1854SOL     OW 5572   2.092   2.490   0.113
 1854SOL    HW1 5573   1.999   2.488   0.150
 1854SOL    HW2 5574   2.093   2.451   0.021
 1855SOL     OW 5575   2.087   2.137   0.996
 1855SOL    HW1 5576   2.122   2.120   1.088
 1855SOL    HW2 5577   1.999   2.092   0.984
 1856SOL     OW 5578   1.881   2.230   0.647
 1856SOL    HW1 5579   1.799   2.273   0.686
 1856SOL    HW2 5580   1.853   2.157   0.584
 1857SOL     OW 5581   2.431   3.137   1.165
 1857SOL    HW1 5582   2.338   3.130   1.128
 1857SOL    HW2 5583   2.442   3.226   1.209
 1858SOL     OW 5584   3.417   3.373   0.703
 1858SOL    HW1 5585   3.360   3.357   0.784
 1858SOL    HW2 5586   3.358   3.383   0.623
 1859SOL     OW 5587   2.997   2.565   0.717
 1859SOL    HW1 5588   3.054   2.643   0.692
 1859SOL    HW2 5589   2.937   2.591   0.793
 1860SOL     OW 5590   3.617   2.469   0.231
 1860SOL    HW1 5591   3.605   2.456   0.132
 1860SOL    HW2 5592   3.587   2.388   0.280
 1861SOL     OW 5593   2.630   3.006   1.023
 1861SOL    HW1 5594   2.552   3.023   1.083
 1861SOL    HW2 5595   2.664   3.093   0.987
 1862SOL     OW 5596   2.712   2.660   1.823
 1862SOL    HW1 5597   2.708   2.736   1.888
 1862SOL    HW2 5598   2.734   2.696   1.732
 1863SOL     OW 5599   2.547   2.874   0.665
 1863SOL    HW1 5600   2.616   2.858   0.735
 1863SOL    HW2 5601   2.474   2.931   0.703
 1864SOL     OW 5602   2.548   3.023   1.803
 1864SOL    HW1 5603   2.608   3.102   1.817
 1864SOL    HW2 5604   2.462   3.054   1.762
 1865SOL     OW 5605   2.197   3.297   1.061
 1865SOL    HW1 5606   2.119   3.266   1.008
 1865SOL    HW2 5607   2.255   3.355   1.004
 1866SOL     OW 5608   3.322   3.367   1.339
 1866SOL    HW1 5609   3.346   3.461   1.365
 1866SOL    HW2 5610   3.306   3.313   1.421
 1867SOL     OW 5611   2.300   2.254   1.499
 1867SOL    HW1 5612   2.382   2.198   1.508
 1867SOL    HW2 5613   2.219   2.196   1.503
 1868SOL     OW 5614   3.465   2.309   0.737
 1868SOL    HW1 5615   3.391   2.355   0.687
 1868SOL    HW2 5616   3.516   2.377   0.790
 1869SOL     OW 5617   2.093   3.575   0.483
 1869SOL    HW1 5618   2.127   3.652   0.537
 1869SOL    HW2 5619   2.137   3.575   0.393
 1870SOL     OW 5620   2.989   3.203   1.690
 1870SOL    HW1 5621   3.036   3.203   1.778
 1870SOL    HW2 5622   2.941   3.116   1.679
 1871SOL     OW 5623   2.092   3.296   0.538
 1871SOL    HW1 5624   2.066   3.392   0.538
 1871SOL    HW2 5625   2.021   3.242   0.583
 1872SOL     OW 5626   2.102   2.953   0.886
 1872SOL    HW1 5627   2.116   2.869   0.938
 1872SOL    HW2 5628   2.047   3.017   0.941
 1873SOL     OW 5629   2.482   3.648   1.439
 1873SOL    HW1 5630   2.390   3.631   1.474
 1873SOL    HW2 5631   2.510   3.740   1.465
 1874SOL     OW 5632   2.468   2.826   0.123
 1874SOL    HW1 5633   2.475   2.910   0.069
 1874SOL    HW2 5634   2.514   2.839   0.211
 1875SOL     OW 5635   3.456   1.976   1.480
 1875SOL    HW1 5636   3.438   2.043   1.408
 1875SOL    HW2 5637   3.453   2.022   1.569
 1876SOL     OW 5638   1.984   2.505   0.563
 1876SOL    HW1 5639   1.939   2.417   0.580
 1876SOL    HW2 5640   1.983   2.559   0.647
 1877SOL     OW 5641   3.704   3.629   0.359
 1877SOL    HW1 5642   3.758   3.600   0.439
 1877SOL    HW2 5643   3.734   3.719   0.330
 1878SOL     OW 5644   3.551   2.784   0.612
 1878SOL    HW1 5645   3.646   2.755   0.620
 1878SOL    HW2 5646   3.543   2.849   0.537
 1879SOL     OW 5647   3.503   2.970   0.432
 1879SOL    HW1 5648   3.589   2.972   0.380
 1879SOL    HW2 5649   3.517   3.017   0.520
 1880SOL     OW 5650   1.975   2.599   1.597
 1880SOL    HW1 5651   2.063   2.586   1.642
 1880SOL    HW2 5652   1.962   2.696   1.575
 1881SOL     OW 5653   2.475   3.227   0.726
 1881SOL    HW1 5654   2.426   3.140   0.735
 1881SOL    HW2 5655   2.452   3.270   0.639
 1882SOL     OW 5656   3.155   3.090   1.423
 1882SOL    HW1 5657   3.192   3.017   1.365
 1882SOL    HW2 5658   3.207   3.095   1.508
 1883SOL     OW 5659   2.671   1.866   0.502
 1883SOL    HW1 5660   2.711   1.957   0.493
 1883SOL    HW2 5661   2.571   1.874   0.508
 1884SOL     OW 5662   2.059   2.838   1.264
 1884SOL    HW1 5663   2.148   2.793   1.250
 1884SOL    HW2 5664   1.986   2.773   1.245
 1885SOL     OW 5665   3.387   2.861   0.190
 1885SOL    HW1 5666   3.324   2.785   0.203
 1885SOL    HW2 5667   3.435   2.879   0.276
 1886SOL     OW 5668   3.049   3.654   1.616
 1886SOL    HW1 5669   3.073   3.714   1.540
 1886SOL    HW2 5670   3.056   3.559   1.586
 1887SOL     OW 5671   2.179   2.113   1.801
 1887SOL    HW1 5672   2.250   2.184   1.807
 1887SOL    HW2 5673   2.091   2.152   1.829
 1888SOL     OW 5674   3.328   3.279   0.953
 1888SOL    HW1 5675   3.269   3.285   1.033
 1888SOL    HW2 5676   3.313   3.191   0.907
 1889SOL     OW 5677   3.529   3.576   0.572
 1889SOL    HW1 5678   3.488   3.553   0.484
 1889SOL    HW2 5679   3.511   3.502   0.637
 1890SOL     OW 5680   2.460   2.591   0.270
 1890SOL    HW1 5681   2.484   2.660   0.202
 1890SOL    HW2 5682   2.382   2.624   0.324
 1891SOL     OW 5683   3.143   2.207   0.944
 1891SOL    HW1 5684   3.057   2.157   0.931
 1891SOL    HW2 5685   3.205   2.153   1.000
 1892SOL     OW 5686   3.438   3.524   0.307
 1892SOL    HW1 5687   3.527   3.570   0.310
 1892SOL    HW2 5688   3.417   3.500   0.212
 1893SOL     OW 5689   2.669   2.467   1.465
 1893SOL    HW1 5690   2.622   2.464   1.554
 1893SOL    HW2 5691   2.618   2.412   1.399
 1894SOL     OW 5692   3.256   2.331   1.674
 1894SOL    HW1 5693   3.236   2.374   1.762
 1894SOL    HW2 5694   3.334   2.269   1.683
 1895SOL     OW 5695   2.835   2.752   1.572
 1895SOL    HW1 5696   2.881   2.668   1.543
 1895SOL    HW2 5697   2.779   2.786   1.497
 1896SOL     OW 5698   2.853   2.272   1.242
 1896SOL    HW1 5699   2.776   2.306   1.296
 1896SOL    HW2 5700   2.819   2.221   1.163
 1897SOL     OW 5701   2.903   2.563   0.429
 1897SOL    HW1 5702   2.929   2.559   0.525
 1897SOL    HW2 5703   2.818   2.512   0.415
 1898SOL     OW 5704   1.938   2.673   0.789
 1898SOL    HW1 5705   2.037   2.661   0.798
 1898SOL    HW2 5706   1.914   2.768   0.810
 1899SOL     OW 5707   1.992   3.683   1.571
 1899SOL    HW1 5708   1.982   3.668   1.670
 1899SOL    HW2 5709   1.906   3.719   1.535
 1900SOL     OW 5710   2.727   2.210   0.195
 1900SOL    HW1 5711   2.786   2.273   0.146
 1900SOL    HW2 5712   2.746   2.116   0.166
 1901SOL     OW 5713   3.581   2.447   1.831
 1901SOL    HW1 5714   3.555   2.536   1.795
 1901SOL    HW2 5715   3.579   2.379   1.758
 1902SOL     OW 5716   3.224   3.006   0.545
 1902SOL    HW1 5717   3.307   2.977   0.497
 1902SOL    HW2 5718   3.175   3.073   0.489
 1903SOL     OW 5719   2.412   2.058   0.885
 1903SOL    HW1 5720   2.407   2.053   0.985
 1903SOL    HW2 5721   2.414   2.154   0.856
 1904SOL     OW 5722   2.870   3.318   0.477
 1904SOL    HW1 5723   2.824   3.390   0.425
 1904SOL    HW2 5724   2.866   3.338   0.575
 1905SOL     OW 5725   2.213   3.663   0.853
 1905SOL    HW1 5726   2.263   3.577   0.859
 1905SOL    HW2 5727   2.278   3.740   0.850
 1906SOL     OW 5728   3.657   2.928   0.873
 1906SOL    HW1 5729   3.595   2.913   0.797
 1906SOL    HW2 5730   3.605   2.939   0.958
 1907SOL     OW 5731   3.089   3.412   1.506
 1907SOL    HW1 5732   3.095   3.335   1.570
 1907SOL    HW2 5733   3.037   3.386   1.426
 1908SOL     OW 5734   2.183   2.805   0.242
 1908SOL    HW1 5735   2.265   2.844   0.200
 1908SOL    HW2 5736   2.156   2.723   0.193
 1909SOL     OW 5737   3.320   2.597   0.728
 1909SOL    HW1 5738   3.315   2.532   0.803
 1909SOL    HW2 5739   3.400   2.656   0.741
 1910SOL     OW 5740   2.323   3.128   1.727
 1910SOL    HW1 5741   2.273   3.129   1.641
 1910SOL    HW2 5742   2.260   3.110   1.803
 1911SOL     OW 5743   2.973   3.638   0.237
 1911SOL    HW1 5744   2.913   3.576   0.287
 1911SOL    HW2 5745   3.004   3.594   0.152
 1912SOL     OW 5746   2.064   2.147   1.498
 1912SOL    HW1 5747   1.984   2.207   1.485
 1912SOL    HW2 5748   2.054   2.098   1.584
 1913SOL     OW 5749   3.494   3.239   0.081
 1913SOL    HW1 5750   3.462   3.333   0.071
 1913SOL    HW2 5751   3.418   3.176   0.069
 1914SOL     OW 5752   2.326   3.605   0.323
 1914SOL    HW1 5753   2.359   3.644   0.409
 1914SOL    HW2 5754   2.402   3.598   0.258
 1915SOL     OW 5755   3.262   1.969   0.426
 1915SOL    HW1 5756   3.238   1.932   0.336
 1915SOL    HW2 5757   3.361   1.985   0.430
 1916SOL     OW 5758   2.111   3.647   1.241
 1916SOL    HW1 5759   2.168   3.582   1.291
 1916SOL    HW2 5760   2.095   3.614   1.148
 1917SOL     OW 5761   2.802   3.560   0.904
 1917SOL    HW1 5762   2.882   3.503   0.925
 1917SOL    HW2 5763   2.753   3.520   0.827
 1918SOL     OW 5764   2.244   2.562   0.480
 1918SOL    HW1 5765   2.289   2.472   0.477
 1918SOL    HW2 5766   2.150   2.551   0.513
 1919SOL     OW 5767   3.409   2.084   1.729
 1919SOL    HW1 5768   3.404   2.121   1.821
 1919SOL    HW2 5769   3.337   2.015   1.717
 1920SOL     OW 5770   2.643   2.126   1.749
 1920SOL    HW1 5771   2.710   2.065   1.792
 1920SOL    HW2 5772   2.570   2.145   1.814
 1921SOL     OW 5773   2.750   3.376   1.195
 1921SOL    HW1 5774   2.727   3.351   1.101
 1921SOL    HW2 5775   2.811   3.307   1.234
 1922SOL     OW 5776   3.213   2.452   1.433
 1922SOL    HW1 5777   3.241   2.409   1.518
 1922SOL    HW2 5778   3.238   2.548   1.434
 1923SOL     OW 5779   2.665   3.264   0.924
 1923SOL    HW1 5780   2.755   3.278   0.882
 1923SOL    HW2 5781   2.594   3.266   0.853
 1924SOL     OW 5782   2.784   2.365   0.899
 1924SOL    HW1 5783   2.759   2.356   0.803
 1924SOL    HW2 5784   2.832   2.283   0.930
 1925SOL     OW 5785   2.401   1.926   0.512
 1925SOL    HW1 5786   2.320   1.927   0.570
 1925SOL    HW2 5787   2.404   2.009   0.457
 1926SOL     OW 5788   3.296   3.050   0.041
 1926SOL    HW1 5789   3.328   2.974   0.098
 1926SOL    HW2 5790   3.204   3.077   0.071
 1927SOL     OW 5791   2.159   1.897   0.171
 1927SOL    HW1 5792   2.208   1.981   0.150
 1927SOL    HW2 5793   2.221   1.832   0.216
 1928SOL     OW 5794   2.797   2.098   0.480
 1928SOL    HW1 5795   2.749   2.139   0.402
 1928SOL    HW2 5796   2.896   2.096   0.461
 1929SOL     OW 5797   2.938   2.545   1.464
 1929SOL    HW1 5798   2.858   2.484   1.467
 1929SOL    HW2 5799   3.019   2.492   1.440
 1930SOL     OW 5800   3.089   3.432   0.793
 1930SOL    HW1 5801   3.110   3.506   0.728
 1930SOL    HW2 5802   3.157   3.432   0.866
 1931SOL     OW 5803   2.321   3.014   0.741
 1931SOL    HW1 5804   2.250   2.987   0.806
 1931SOL    HW2 5805   2.295   2.986   0.648
 1932SOL     OW 5806   3.133   3.659   0.591
 1932SOL    HW1 5807   3.177   3.723   0.527
 1932SOL    HW2 5808   3.083   3.711   0.661
 1933SOL     OW 5809   2.894   2.411   0.016
 1933SOL    HW1 5810   2.853   2.493  -0.023
 1933SOL    HW2 5811   2.958   2.437   0.089
 1934SOL     OW 5812   1.940   2.418   1.386
 1934SOL    HW1 5813   2.032   2.417   1.345
 1934SOL    HW2 5814   1.934   2.492   1.453
 1935SOL     OW 5815   2.423   2.084   1.147
 1935SOL    HW1 5816   2.461   2.000   1.184
 1935SOL    HW2 5817   2.335   2.103   1.191
 1936SOL     OW 5818   2.728   2.316   0.642
 1936SOL    HW1 5819   2.696   2.388   0.580
 1936SOL    HW2 5820   2.752   2.235   0.589
 1937SOL     OW 5821   2.879   1.901   0.753
 1937SOL    HW1 5822   2.807   1.906   0.684
 1937SOL    HW2 5823   2.855   1.832   0.822
 1938SOL     OW 5824   3.291   3.035   0.867
 1938SOL    HW1 5825   3.236   2.951   0.860
 1938SOL    HW2 5826   3.317   3.064   0.775
 1939SOL     OW 5827   3.328   2.452   0.992
 1939SOL    HW1 5828   3.298   2.357   0.999
 1939SOL    HW2 5829   3.401   2.468   1.058
 1940SOL     OW 5830   3.719   2.695   0.377
 1940SOL    HW1 5831   3.761   2.631   0.441
 1940SOL    HW2 5832   3.681   2.644   0.299
 1941SOL     OW 5833   2.350   3.247   0.174
 1941SOL    HW1 5834   2.263   3.232   0.221
 1941SOL    HW2 5835   2.333   3.273   0.079
 1942SOL     OW 5836   3.526   3.142   0.657
 1942SOL    HW1 5837   3.625   3.150   0.671
 1942SOL    HW2 5838   3.481   3.226   0.688
 1943SOL     OW 5839   3.252   2.437   0.078
 1943SOL    HW1 5840   3.198   2.416   0.159
 1943SOL    HW2 5841   3.343   2.396   0.087
 1944SOL     OW 5842   2.389   2.118   0.328
 1944SOL    HW1 5843   2.416   2.059   0.253
 1944SOL    HW2 5844   2.389   2.213   0.297
 1945SOL     OW 5845   3.616   3.085   1.588
 1945SOL    HW1 5846   3.707   3.046   1.575
 1945SOL    HW2 5847   3.624   3.181   1.612
 1946SOL     OW 5848   2.926   3.209   1.340
 1946SOL    HW1 5849   2.846   3.186   1.395
 1946SOL    HW2 5850   3.009   3.183   1.389
 1947SOL     OW 5851   3.454   3.491   1.625
 1947SOL    HW1 5852   3.481   3.525   1.535
 1947SOL    HW2 5853   3.533   3.453   1.671
 1948SOL     OW 5854   2.973   3.057   1.100
 1948SOL    HW1 5855   2.933   3.101   1.181
 1948SOL    HW2 5856   2.932   3.094   1.017
 1949SOL     OW 5857   3.500   2.961   1.079
 1949SOL    HW1 5858   3.505   3.042   1.138
 1949SOL    HW2 5859   3.414   2.963   1.028
 1950SOL     OW 5860   2.777   1.951   1.402
 1950SOL    HW1 5861   2.802   1.931   1.307
 1950SOL    HW2 5862   2.849   2.007   1.444
 1951SOL     OW 5863   2.842   2.978   1.719
 1951SOL    HW1 5864   2.743   2.984   1.729
 1951SOL    HW2 5865   2.865   2.898   1.663
 1952SOL     OW 5866   2.567   2.912   0.368
 1952SOL    HW1 5867   2.553   2.919   0.467
 1952SOL    HW2 5868   2.651   2.861   0.350
 1953SOL     OW 5869   2.272   2.675   1.251
 1953SOL    HW1 5870   2.358   2.687   1.301
 1953SOL    HW2 5871   2.230   2.588   1.278
 1954SOL     OW 5872   3.136   2.248   1.262
 1954SOL    HW1 5873   3.157   2.322   1.326
 1954SOL    HW2 5874   3.047   2.265   1.219
 1955SOL     OW 5875   1.926   3.426   1.331
 1955SOL    HW1 5876   1.880   3.508   1.297
 1955SOL    HW2 5877   2.024   3.445   1.340
 1956SOL     OW 5878   2.229   2.962   0.501
 1956SOL    HW1 5879   2.222   3.045   0.445
 1956SOL    HW2 5880   2.233   2.882   0.441
 1957SOL     OW 5881   2.428   2.399   0.865
 1957SOL    HW1 5882   2.440   2.465   0.791
 1957SOL    HW2 5883   2.474   2.433   0.948
 1958SOL     OW 5884   3.114   3.210   0.388
 1958SOL    HW1 5885   3.164   3.287   0.428
 1958SOL    HW2 5886   3.019   3.212   0.420
 1959SOL     OW 5887   3.134   3.307   1.142
 1959SOL    HW1 5888   3.181   3.320   1.229
 1959SOL    HW2 5889   3.068   3.233   1.151
 1960SOL     OW 5890   3.444   2.501   0.472
 1960SOL    HW1 5891   3.413   2.562   0.545
 1960SOL    HW2 5892   3.494   2.553   0.403
 1961SOL     OW 5893   2.216   3.372   1.329
 1961SOL    HW1 5894   2.195   3.328   1.242
 1961SOL    HW2 5895   2.313   3.398   1.332
 1962SOL     OW 5896   2.264   2.613   1.598
 1962SOL    HW1 5897   2.332   2.668   1.551
 1962SOL    HW2 5898   2.304   2.525   1.625
 1963SOL     OW 5899   3.449   2.641   1.670
 1963SOL    HW1 5900   3.357   2.679   1.665
 1963SOL    HW2 5901   3.509   2.688   1.605
 1964SOL     OW 5902   2.875   1.967   1.770
 1964SOL    HW1 5903   2.881   2.052   1.718
 1964SOL    HW2 5904   2.907   1.891   1.713
 1965SOL     OW 5905   2.366   1.912   1.740
 1965SOL    HW1 5906   2.324   1.855   1.670
 1965SOL    HW2 5907   2.300   1.981   1.772
 1966SOL     OW 5908   2.435   2.732   1.029
 1966SOL    HW1 5909   2.479   2.821   1.020
 1966SOL    HW2 5910   2.372   2.732   1.106
 1967SOL     OW 5911   3.222   2.724   1.045
 1967SOL    HW1 5912   3.147   2.724   0.979
 1967SOL    HW2 5913   3.259   2.632   1.054
 1968SOL     OW 5914   3.071   2.387   0.275
 1968SOL    HW1 5915   3.084   2.303   0.329
 1968SOL    HW2 5916   3.042   2.461   0.335
 1969SOL     OW 5917   2.169   2.075   1.231
 1969SOL    HW1 5918   2.146   2.112   1.321
 1969SOL    HW2 5919   2.139   1.980   1.225
 1970SOL     OW 5920   1.899   3.172   1.282
 1970SOL    HW1 5921   1.952   3.123   1.350
 1970SOL    HW2 5922   1.921   3.270   1.287
 1971SOL     OW 5923   2.594   2.496   1.064
 1971SOL    HW1 5924   2.653   2.470   0.988
 1971SOL    HW2 5925   2.566   2.592   1.053
 1972SOL     OW 5926   3.590   2.797   1.854
 1972SOL    HW1 5927   3.544   2.790   1.765
 1972SOL    HW2 5928   3.528   2.841   1.920
 1973SOL     OW 5929   2.169   1.925   0.618
 1973SOL    HW1 5930   2.158   2.019   0.651
 1973SOL    HW2 5931   2.164   1.862   0.695
 1974SOL     OW 5932   3.484   2.229   0.374
 1974SOL    HW1 5933   3.486   2.153   0.438
 1974SOL    HW2 5934   3.436   2.306   0.414
 1975SOL     OW 5935   2.885   2.628   0.966
 1975SOL    HW1 5936   2.900   2.649   1.062
 1975SOL    HW2 5937   2.855   2.533   0.957
 1976SOL     OW 5938   2.842   3.435   1.700
 1976SOL    HW1 5939   2.822   3.479   1.612
 1976SOL    HW2 5940   2.881   3.344   1.684
 1977SOL     OW 5941   3.721   3.380   1.605
 1977SOL    HW1 5942   3.735   3.407   1.510
 1977SOL    HW2 5943   3.804   3.402   1.658
 1978SOL     OW 5944   2.212   2.760   1.804
 1978SOL    HW1 5945   2.288   2.804   1.852
 1978SOL    HW2 5946   2.247   2.713   1.722
 1979SOL     OW 5947   3.402   2.136   0.125
 1979SOL    HW1 5948   3.341   2.061   0.148
 1979SOL    HW2 5949   3.424   2.188   0.208
 1980SOL     OW 5950   3.165   2.700   0.042
 1980SOL    HW1 5951   3.199   2.607   0.057
 1980SOL    HW2 5952   3.183   2.727  -0.053
 1981SOL     OW 5953   2.930   3.195   0.849
 1981SOL    HW1 5954   2.937   3.111   0.794
 1981SOL    HW2 5955   2.992   3.264   0.813
 1982SOL     OW 5956   2.181   2.672   0.949
 1982SOL    HW1 5957   2.274   2.708   0.954
 1982SOL    HW2 5958   2.175   2.587   1.001
 1983SOL     OW 5959   2.201   2.371   1.006
 1983SOL    HW1 5960   2.149   2.288   0.989
 1983SOL    HW2 5961   2.278   2.376   0.942
 1984SOL     OW 5962   3.000   2.242   1.678
 1984SOL    HW1 5963   2.955   2.305   1.742
 1984SOL    HW2 5964   3.093   2.273   1.661
 1985SOL     OW 5965   3.022   2.069   1.477
 1985SOL    HW1 5966   3.022   2.133   1.554
 1985SOL    HW2 5967   3.050   2.117   1.394
 1986SOL     OW 5968   1.870   3.188   0.200
 1986SOL    HW1 5969   1.777   3.209   0.169
 1986SOL    HW2 5970   1.880   3.089   0.213
 1987SOL     OW 5971   1.950   3.663   0.927
 1987SOL    HW1 5972   1.908   3.577   0.900
 1987SOL    HW2 5973   2.044   3.666   0.893
 1988SOL     OW 5974   2.366   3.430   0.910
 1988SOL    HW1 5975   2.432   3.504   0.919
 1988SOL    HW2 5976   2.410   3.351   0.868
 1989SOL     OW 5977   2.864   2.658   1.238
 1989SOL    HW1 5978   2.905   2.626   1.324
 1989SOL    HW2 5979   2.768   2.631   1.235
 1990SOL     OW 5980   1.902   2.406   1.114
 1990SOL    HW1 5981   1.987   2.373   1.073
 1990SOL    HW2 5982   1.915   2.421   1.212
 1991SOL     OW 5983   2.051   2.382   1.722
 1991SOL    HW1 5984   2.110   2.342   1.652
 1991SOL    HW2 5985   1.993   2.453   1.681
 1992SOL     OW 5986   3.231   2.812   1.660
 1992SOL    HW1 5987   3.270   2.901   1.680
 1992SOL    HW2 5988   3.241   2.792   1.563
 1993SOL     OW 5989   2.677   2.434   0.325
 1993SOL    HW1 5990   2.684   2.345   0.279
 1993SOL    HW2 5991   2.583   2.468   0.317
 1994SOL     OW 5992   3.519   2.466   1.206
 1994SOL    HW1 5993   3.481   2.397   1.268
 1994SOL    HW2 5994   3.601   2.430   1.162
 1995SOL     OW 5995   2.114   3.426   1.744
 1995SOL    HW1 5996   2.084   3.483   1.820
 1995SOL    HW2 5997   2.107   3.329   1.770
 1996SOL     OW 5998   2.533   2.326   1.269
 1996SOL    HW1 5999   2.499   2.237   1.239
 1996SOL    HW2 6000   2.559   2.380   1.189
 1997SOL     OW 6001   2.792   3.540   1.465
 1997SOL    HW1 6002   2.768   3.522   1.370
 1997SOL    HW2 6003   2.822   3.634   1.475
 1998SOL     OW 6004   2.335   2.362   0.191
 1998SOL    HW1 6005   2.396   2.442   0.195
 1998SOL    HW2 6006   2.240   2.393   0.198
 1999SOL     OW 6007   2.021   2.999   1.466
 1999SOL    HW1 6008   2.043   2.938   1.542
 1999SOL    HW2 6009   2.031   2.950   1.380
 2000SOL     OW 6010   3.209   2.921   1.234
 2000SOL    HW1 6011   3.233   2.858   1.160
 2000SOL    HW2 6012   3.119   2.961   1.216
 2001SOL     OW 6013   3.164   2.717   0.309
 2001SOL    HW1 6014   3.078   2.686   0.351
 2001SOL    HW2 6015   3.160   2.703   0.210
 2002SOL     OW 6016   3.621   3.609   1.154
 2002SOL    HW1 6017   3.682   3.639   1.081
 2002SOL    HW2 6018   3.583   3.520   1.132
 2003SOL     OW 6019   3.114   3.593   1.128
 2003SOL    HW1 6020   3.198   3.598   1.074
 2003SOL    HW2 6021   3.091   3.497   1.146
 2004SOL     OW 6022   1.945   3.120   1.022
 2004SOL    HW1 6023   1.940   3.119   1.122
 2004SOL    HW2 6024   1.862   3.079   0.984
 2005SOL     OW 6025   2.550   3.524   1.716
 2005SOL    HW1 6026   2.494   3.605   1.725
 2005SOL    HW2 6027   2.602   3.528   1.630
 2006SOL     OW 6028   2.765   1.948   0.133
 2006SOL    HW1 6029   2.816   1.949   0.047
 2006SOL    HW2 6030   2.821   1.906   0.204
 2007SOL     OW 6031   3.588   1.997   0.523
 2007SOL    HW1 6032   3.661   1.980   0.456
 2007SOL    HW2 6033   3.557   1.910   0.561
 2008SOL     OW 6034   3.250   3.435   0.477
 2008SOL    HW1 6035   3.317   3.447   0.403
 2008SOL    HW2 6036   3.210   3.524   0.500
 2009SOL     OW 6037   1.992   3.656   1.851
 2009SOL    HW1 6038   1.951   3.582   1.904
 2009SOL    HW2 6039   2.056   3.707   1.909
 2010SOL     OW 6040   3.142   2.789   0.672
 2010SOL    HW1 6041   3.202   2.708   0.674
 2010SOL    HW2 6042   3.182   2.858   0.612
 2011SOL     OW 6043   2.692   3.135   1.422
 2011SOL    HW1 6044   2.687   3.168   1.517
 2011SOL    HW2 6045   2.606   3.154   1.376
 2012SOL     OW 6046   2.534   3.478   0.154
 2012SOL    HW1 6047   2.543   3.488   0.055
 2012SOL    HW2 6048   2.494   3.389   0.175
 2013SOL     OW 6049   3.512   3.582   1.394
 2013SOL    HW1 6050   3.565   3.592   1.310
 2013SOL    HW2 6051   3.485   3.672   1.428
 2014SOL     OW 6052   3.703   2.037   0.963
 2014SOL    HW1 6053   3.742   1.952   0.927
 2014SOL    HW2 6054   3.605   2.039   0.944
 2015SOL     OW 6055   2.125   2.188   0.720
 2015SOL    HW1 6056   2.046   2.239   0.686
 2015SOL    HW2 6057   2.116   2.173   0.818
 2016SOL     OW 6058   3.056   3.474   0.031
 2016SOL    HW1 6059   3.062   3.381   0.068
 2016SOL    HW2 6060   2.997   3.474  -0.049
 2017SOL     OW 6061   2.684   2.864   1.372
 2017SOL    HW1 6062   2.724   2.863   1.280
 2017SOL    HW2 6063   2.694   2.956   1.412
 2018SOL     OW 6064   2.778   2.772   0.291
 2018SOL    HW1 6065   2.841   2.810   0.223
 2018SOL    HW2 6066   2.818   2.689   0.330
 2019SOL     OW 6067   3.366   3.469   0.044
 2019SOL    HW1 6068   3.274   3.506   0.051
 2019SOL    HW2 6069   3.404   3.489  -0.046
 2020SOL     OW 6070   2.234   3.150   1.490
 2020SOL    HW1 6071   2.221   3.243   1.456
 2020SOL    HW2 6072   2.150   3.098   1.477
 2021SOL     OW 6073   3.476   3.154   1.289
 2021SOL    HW1 6074   3.536   3.157   1.369
 2021SOL    HW2 6075   3.401   3.218   1.302
 2022SOL     OW 6076   2.901   2.960   0.696
 2022SOL    HW1 6077   2.831   2.913   0.750
 2022SOL    HW2 6078   2.960   2.892   0.653
 2023SOL     OW 6079   2.876   2.098   0.971
 2023SOL    HW1 6080   2.868   2.062   0.878
 2023SOL    HW2 6081   2.874   2.022   1.036
 2024SOL     OW 6082   2.452   3.349   0.491
 2024SOL    HW1 6083   2.494   3.291   0.421
 2024SOL    HW2 6084   2.408   3.428   0.447
 2025SOL     OW 6085   3.571   2.247   1.381
 2025SOL    HW1 6086   3.644   2.316   1.385
 2025SOL    HW2 6087   3.599   2.172   1.322
 2026SOL     OW 6088   2.117   3.210   0.290
 2026SOL    HW1 6089   2.021   3.211   0.263
 2026SOL    HW2 6090   2.129   3.263   0.374
 2027SOL     OW 6091   1.967   2.875   1.726
 2027SOL    HW1 6092   1.890   2.842   1.780
 2027SOL    HW2 6093   2.052   2.845   1.768
 2028SOL     OW 6094   2.534   2.065   1.489
 2028SOL    HW1 6095   2.624   2.049   1.449
 2028SOL    HW2 6096   2.542   2.070   1.588
 2029SOL     OW 6097   3.302   2.718   1.398
 2029SOL    HW1 6098   3.245   2.770   1.335
 2029SOL    HW2 6099   3.398   2.730   1.374
 2030SOL     OW 6100   1.934   2.028   0.318
 2030SOL    HW1 6101   1.917   2.111   0.264
 2030SOL    HW2 6102   2.024   1.991   0.296
 2031SOL     OW 6103   3.045   3.197   0.119
 2031SOL    HW1 6104   2.946   3.186   0.121
 2031SOL    HW2 6105   3.079   3.212   0.212
 2032SOL     OW 6106   2.475   2.704   1.431
 2032SOL    HW1 6107   2.531   2.785   1.414
 2032SOL    HW2 6108   2.534   2.624   1.434
 2033SOL     OW 6109   3.355   3.629   0.959
 2033SOL    HW1 6110   3.388   3.693   0.890
 2033SOL    HW2 6111   3.421   3.623   1.034
 2034SOL     OW 6112   2.578   2.427   1.708
 2034SOL    HW1 6113   2.597   2.492   1.782
 2034SOL    HW2 6114   2.638   2.347   1.717
 2035SOL     OW 6115   3.312   3.082   1.633
 2035SOL    HW1 6116   3.303   3.072   1.732
 2035SOL    HW2 6117   3.408   3.075   1.607
 2036SOL     OW 6118   2.252   3.603   1.560
 2036SOL    HW1 6119   2.161   3.644   1.558
 2036SOL    HW2 6120   2.245   3.509   1.592
 2037SOL     OW 6121   3.536   2.745   1.254
 2037SOL    HW1 6122   3.509   2.656   1.217
 2037SOL    HW2 6123   3.537   2.813   1.181
 2038SOL     OW 6124   3.087   2.187   0.449
 2038SOL    HW1 6125   3.152   2.113   0.438
 2038SOL    HW2 6126   3.107   2.237   0.533
 2039SOL     OW 6127   2.456   2.607   0.652
 2039SOL    HW1 6128   2.506   2.692   0.633
 2039SOL    HW2 6129   2.368   2.609   0.604
 2040SOL     OW 6130   3.639   2.204   1.642
 2040SOL    HW1 6131   3.622   2.235   1.548
 2040SOL    HW2 6132   3.555   2.167   1.680
 2041SOL     OW 6133   3.592   2.796   1.517
 2041SOL    HW1 6134   3.630   2.887   1.532
 2041SOL    HW2 6135   3.584   2.779   1.418
 2042SOL     OW 6136   2.721   3.236   0.016
 2042SOL    HW1 6137   2.675   3.251   0.104
 2042SOL    HW2 6138   2.765   3.321  -0.014
 2043SOL     OW 6139   2.523   3.652   0.953
 2043SOL    HW1 6140   2.477   3.740   0.940
 2043SOL    HW2 6141   2.622   3.664   0.946
 2044SOL     OW 6142   2.721   2.818   0.861
 2044SOL    HW1 6143   2.775   2.749   0.909
 2044SOL    HW2 6144   2.689   2.887   0.927
 2045SOL     OW 6145   2.945   2.846   0.087
 2045SOL    HW1 6146   2.922   2.899   0.005
 2045SOL    HW2 6147   3.026   2.790   0.068
 2046SOL     OW 6148   3.723   3.431   0.851
 2046SOL    HW1 6149   3.652   3.419   0.781
 2046SOL    HW2 6150   3.724   3.352   0.911
 2047SOL     OW 6151   2.083   3.176   1.844
 2047SOL    HW1 6152   2.018   3.103   1.823
 2047SOL    HW2 6153   2.087   3.190   1.942
 2048SOL     OW 6154   1.941   3.102   0.653
 2048SOL    HW1 6155   1.940   3.055   0.741
 2048SOL    HW2 6156   2.023   3.074   0.602
 2049SOL     OW 6157   2.534   3.253   1.624
 2049SOL    HW1 6158   2.456   3.203   1.662
 2049SOL    HW2 6159   2.531   3.348   1.655
 2050SOL     OW 6160   3.686   2.054   1.227
 2050SOL    HW1 6161   3.682   1.964   1.271
 2050SOL    HW2 6162   3.689   2.043   1.128
 2051SOL     OW 6163   2.290   2.286   0.520
 2051SOL    HW1 6164   2.320   2.214   0.458
 2051SOL    HW2 6165   2.251   2.246   0.603
 2052SOL     OW 6166   3.567   3.349   1.104
 2052SOL    HW1 6167   3.474   3.324   1.077
 2052SOL    HW2 6168   3.593   3.299   1.186
 2053SOL     OW 6169   2.179   2.409   1.280
 2053SOL    HW1 6170   2.217   2.350   1.352
 2053SOL    HW2 6171   2.219   2.383   1.192
 2054SOL     OW 6172   2.674   3.448   0.687
 2054SOL    HW1 6173   2.706   3.458   0.593
 2054SOL    HW2 6174   2.595   3.386   0.689
 2055SOL     OW 6175   3.286   2.076   1.112
 2055SOL    HW1 6176   3.338   2.011   1.167
 2055SOL    HW2 6177   3.237   2.139   1.173
 2056SOL     OW 6178   2.863   1.896   1.154
 2056SOL    HW1 6179   2.800   1.824   1.123
 2056SOL    HW2 6180   2.956   1.860   1.154
 2057SOL     OW 6181   2.632   3.192   0.301
 2057SOL    HW1 6182   2.586   3.105   0.318
 2057SOL    HW2 6183   2.723   3.189   0.342
 2058SOL     OW 6184   2.480   3.429   1.284
 2058SOL    HW1 6185   2.475   3.511   1.341
 2058SOL    HW2 6186   2.569   3.426   1.239
 2059SOL     OW 6187   3.214   1.914   0.168
 2059SOL    HW1 6188   3.249   1.873   0.084
 2059SOL    HW2 6189   3.124   1.876   0.188
 2060SOL     OW 6190   3.162   2.315   0.691
 2060SOL    HW1 6191   3.103   2.395   0.695
 2060SOL    HW2 6192   3.177   2.280   0.784
 2061SOL     OW 6193   3.455   2.083   0.882
 2061SOL    HW1 6194   3.371   2.082   0.936
 2061SOL    HW2 6195   3.457   2.166   0.826
 2062SOL     OW 6196   1.901   2.939   0.300
 2062SOL    HW1 6197   2.000   2.928   0.291
 2062SOL    HW2 6198   1.861   2.853   0.332
 2063SOL     OW 6199   2.737   3.508   0.337
 2063SOL    HW1 6200   2.660   3.473   0.283
 2063SOL    HW2 6201   2.705   3.579   0.399
 2064SOL     OW 6202   2.092   2.490   1.975
 2064SOL    HW1 6203   1.999   2.488   2.012
 2064SOL    HW2 6204   2.093   2.451   1.883
 2065SOL     OW 6205   2.087   2.137   2.858
 2065SOL    HW1 6206   2.122   2.120   2.950
 2065SOL    HW2 6207   1.999   2.092   2.846
 2066SOL     OW 6208   1.881   2.230   2.509
 2066SOL    HW1 6209   1.799   2.273   2.548
 2066SOL    HW2 6210   1.853   2.157   2.446
 2067SOL     OW 6211   2.431   3.137   3.027
 2067SOL    HW1 6212   2.338   3.130   2.990
 2067SOL    HW2 6213   2.442   3.226   3.071
 2068SOL     OW 6214   3.417   3.373   2.565
 2068SOL    HW1 6215   3.360   3.357   2.646
 2068SOL    HW2 6216   3.358   3.383   2.485
 2069SOL     OW 6217   2.997   2.565   2.579
 2069SOL    HW1 6218   3.054   2.643   2.554
 2069SOL    HW2 6219   2.937   2.591   2.655
 2070SOL     OW 6220   3.617   2.469   2.093
 2070SOL    HW1 6221   3.605   2.456   1.994
 2070SOL    HW2 6222   3.587   2.388   2.142
 2071SOL     OW 6223   2.630   3.006   2.885
 2071SOL    HW1 6224   2.552   3.023   2.945
 2071SOL    HW2 6225   2.664   3.093   2.849
 2072SOL     OW 6226   2.712   2.660   3.685
 2072SOL    HW1 6227   2.708   2.736   3.750
 2072SOL    HW2 6228   2.734   2.696   3.594
 2073SOL     OW 6229   2.547   2.874   2.527
 2073SOL    HW1 6230   2.616   2.858   2.597
 2073SOL    HW2 6231   2.474   2.931   2.565
 2074SOL     OW 6232   2.548   3.023   3.665
 2074SOL    HW1 6233   2.608   3.102   3.679
 2074SOL    HW2 6234   2.462   3.054   3.624
 2075SOL     OW 6235   2.197   3.297   2.923
 2075SOL    HW1 6236   2.119   3.266   2.870
 2075SOL    HW2 6237   2.255   3.355   2.866
 2076SOL     OW 6238   3.322   3.367   3.201
 2076SOL    HW1 6239   3.346   3.461   3.227
 2076SOL    HW2 6240   3.306   3.313   3.283
 2077SOL     OW 6241   2.300   2.254   3.361
 2077SOL    HW1 6242   2.382   2.198   3.370
 2077SOL    HW2 6243   2.219   2.196   3.365
 2078SOL     OW 6244   3.465   2.309   2.599
 2078SOL    HW1 6245   3.391   2.355   2.549
 2078SOL    HW2 6246   3.516   2.377   2.652
 2079SOL     OW 6247   2.093   3.575   2.345
 2079SOL    HW1 6248   2.127   3.652   2.399
 2079SOL    HW2 6249   2.137   3.575   2.255
 2080SOL     OW 6250   2.989   3.203   3.552
 2080SOL    HW1 6251   3.036   3.203   3.640
 2080SOL    HW2 6252   2.941   3.116   3.541
 2081SOL     OW 6253   2.092   3.296   2.400
 2081SOL    HW1 6254   2.066   3.392   2.400
 2081SOL    HW2 6255   2.021   3.242   2.445
 2082SOL     OW 6256   2.102   2.953   2.748
 2082SOL    HW1 6257   2.116   2.869   2.800
 2082SOL    HW2 6258   2.047   3.017   2.803
 2083SOL     OW 6259   2.482   3.648   3.301
 2083SOL    HW1 6260   2.390   3.631   3.336
 2083SOL    HW2 6261   2.510   3.740   3.327
 2084SOL     OW 6262   2.468   2.826   1.985
 2084SOL    HW1 6263   2.475   2.910   1.931
 2084SOL    HW2 6264   2.514   2.839   2.073
 2085SOL     OW 6265   3.456   1.976   3.342
 2085SOL    HW1 6266   3.438   2.043   3.270
 2085SOL    HW2 6267   3.453   2.022   3.431
 2086SOL     OW 6268   1.984   2.505   2.425
 2086SOL    HW1 6269   1.939   2.417   2.442
 2086SOL    HW2 6270   1.983   2.559   2.509
 2087SOL     OW 6271   3.704   3.629   2.221
 2087SOL    HW1 6272   3.758   3.600   2.301
 2087SOL    HW2 6273   3.734   3.719   2.192
 2088SOL     OW 6274   1.889   3.458   1.979
 2088SOL    HW1 6275   1.870   3.362   2.000
 2088SOL    HW2 6276   1.856   3.516   2.054
 2089SOL     OW 6277   3.551   2.784   2.474
 2089SOL    HW1 6278   3.646   2.755   2.482
 2089SOL    HW2 6279   3.543   2.849   2.399
 2090SOL     OW 6280   3.503   2.970   2.294
 2090SOL    HW1 6281   3.589   2.972   2.242
 2090SOL    HW2 6282   3.517   3.017   2.382
 2091SOL     OW 6283   1.975   2.599   3.459
 2091SOL    HW1 6284   2.063   2.586   3.504
 2091SOL    HW2 6285   1.962   2.696   3.437
 2092SOL     OW 6286   2.475   3.227   2.588
 2092SOL    HW1 6287   2.426   3.140   2.597
 2092SOL    HW2 6288   2.452   3.270   2.501
 2093SOL     OW 6289   3.155   3.090   3.285
 2093SOL    HW1 6290   3.192   3.017   3.227
 2093SOL    HW2 6291   3.207   3.095   3.370
 2094SOL     OW 6292   2.671   1.866   2.364
 2094SOL    HW1 6293   2.711   1.957   2.355
 2094SOL    HW2 6294   2.571   1.874   2.370
 2095SOL     OW 6295   2.059   2.838   3.126
 2095SOL    HW1 6296   2.148   2.793   3.112
 2095SOL    HW2 6297   1.986   2.773   3.107
 2096SOL     OW 6298   3.387   2.861   2.052
 2096SOL    HW1 6299   3.324   2.785   2.065
 2096SOL    HW2 6300   3.435   2.879   2.138
 2097SOL     OW 6301   3.049   3.654   3.478
 2097SOL    HW1 6302   3.073   3.714   3.402
 2097SOL    HW2 6303   3.056   3.559   3.448
 2098SOL     OW 6304   2.179   2.113   3.663
 2098SOL    HW1 6305   2.250   2.184   3.669
 2098SOL    HW2 6306   2.091   2.152   3.691
 2099SOL     OW 6307   3.328   3.279   2.815
 2099SOL    HW1 6308   3.269   3.285   2.895
 2099SOL    HW2 6309   3.313   3.191   2.769
 2100SOL     OW 6310   3.529   3.576   2.434
 2100SOL    HW1 6311   3.488   3.553   2.346
 2100SOL    HW2 6312   3.511   3.502   2.499
 2101SOL     OW 6313   2.460   2.591   2.132
 2101SOL    HW1 6314   2.484   2.660   2.064
 2101SOL    HW2 6315   2.382   2.624   2.186
 2102SOL     OW 6316   3.143   2.207   2.806
 2102SOL    HW1 6317   3.057   2.157   2.793
 2102SOL    HW2 6318   3.205   2.153   2.862
 2103SOL     OW 6319   3.438   3.524   2.169
 2103SOL    HW1 6320   3.527   3.570   2.172
 2103SOL    HW2 6321   3.417   3.500   2.074
 2104SOL     OW 6322   2.669   2.467   3.327
 2104SOL    HW1 6323   2.622   2.464   3.416
 2104SOL    HW2 6324   2.618   2.412   3.261
 2105SOL     OW 6325   3.256   2.331   3.536
 2105SOL    HW1 6326   3.236   2.374   3.624
 2105SOL    HW2 6327   3.334   2.269   3.545
 2106SOL     OW 6328   2.835   2.752   3.434
 2106SOL    HW1 6329   2.881   2.668   3.405
 2106SOL    HW2 6330   2.779   2.786   3.359
 2107SOL     OW 6331   2.853   2.272   3.104
 2107SOL    HW1 6332   2.776   2.306   3.158
 2107SOL    HW2 6333   2.819   2.221   3.025
 2108SOL     OW 6334   2.903   2.563   2.291
 2108SOL    HW1 6335   2.929   2.559   2.387
 2108SOL    HW2 6336   2.818   2.512   2.277
 2109SOL     OW 6337   1.938   2.673   2.651
 2109SOL    HW1 6338   2.037   2.661   2.660
 2109SOL    HW2 6339   1.914   2.768   2.672
 2110SOL     OW 6340   1.992   3.683   3.433
 2110SOL    HW1 6341   1.982   3.668   3.532
 2110SOL    HW2 6342   1.906   3.719   3.397
 2111SOL     OW 6343   2.727   2.210   2.057
 2111SOL    HW1 6344   2.786   2.273   2.008
 2111SOL    HW2 6345   2.746   2.116   2.028
 2112SOL     OW 6346   3.581   2.447   3.693
 2112SOL    HW1 6347   3.555   2.536   3.657
 2112SOL    HW2 6348   3.579   2.379   3.620
 2113SOL     OW 6349   3.224   3.006   2.407
 2113SOL    HW1 6350   3.307   2.977   2.359
 2113SOL    HW2 6351   3.175   3.073   2.351
 2114SOL     OW 6352   2.412   2.058   2.747
 2114SOL    HW1 6353   2.407   2.053   2.847
 2114SOL    HW2 6354   2.414   2.154   2.718
 2115SOL     OW 6355   2.870   3.318   2.339
 2115SOL    HW1 6356   2.824   3.390   2.287
 2115SOL    HW2 6357   2.866   3.338   2.437
 2116SOL     OW 6358   2.213   3.663   2.715
 2116SOL    HW1 6359   2.263   3.577   2.721
 2116SOL    HW2 6360   2.278   3.740   2.712
 2117SOL     OW 6361   3.657   2.928   2.735
 2117SOL    HW1 6362   3.595   2.913   2.659
 2117SOL    HW2 6363   3.605   2.939   2.820
 2118SOL     OW 6364   3.089   3.412   3.368
 2118SOL    HW1 6365   3.095   3.335   3.432
 2118SOL    HW2 6366   3.037   3.386   3.288
 2119SOL     OW 6367   2.183   2.805   2.104
 2119SOL    HW1 6368   2.265   2.844   2.062
 2119SOL    HW2 6369   2.156   2.723   2.055
 2120SOL     OW 6370   3.320   2.597   2.590
 2120SOL    HW1 6371   3.315   2.532   2.665
 2120SOL    HW2 6372   3.400   2.656   2.603
 2121SOL     OW 6373   2.323   3.128   3.589
 2121SOL    HW1 6374   2.273   3.129   3.503
 2121SOL    HW2 6375   2.260   3.110   3.665
 2122SOL     OW 6376   2.973   3.638   2.099
 2122SOL    HW1 6377   2.913   3.576   2.149
 2122SOL    HW2 6378   3.004   3.594   2.014
 2123SOL     OW 6379   2.064   2.147   3.360
 2123SOL    HW1 6380   1.984   2.207   3.347
 2123SOL    HW2 6381   2.054   2.098   3.446
 2124SOL     OW 6382   3.494   3.239   1.943
 2124SOL    HW1 6383   3.462   3.333   1.933
 2124SOL    HW2 6384   3.418   3.176   1.931
 2125SOL     OW 6385   2.326   3.605   2.185
 2125SOL    HW1 6386   2.359   3.644   2.271
 2125SOL    HW2 6387   2.402   3.598   2.120
 2126SOL     OW 6388   3.262   1.969   2.288
 2126SOL    HW1 6389   3.238   1.932   2.198
 2126SOL    HW2 6390   3.361   1.985   2.292
 2127SOL     OW 6391   2.111   3.647   3.103
 2127SOL    HW1 6392   2.168   3.582   3.153
 2127SOL    HW2 6393   2.095   3.614   3.010
 2128SOL     OW 6394   2.802   3.560   2.766
 2128SOL    HW1 6395   2.882   3.503   2.787
 2128SOL    HW2 6396   2.753   3.520   2.689
 2129SOL     OW 6397   3.409   2.084   3.591
 2129SOL    HW1 6398   3.404   2.121   3.683
 2129SOL    HW2 6399   3.337   2.015   3.579
 2130SOL     OW 6400   2.476   1.984   1.979
 2130SOL    HW1 6401   2.574   1.962   1.986
 2130SOL    HW2 6402   2.445   1.967   1.886
 2131SOL     OW 6403   2.643   2.126   3.611
 2131SOL    HW1 6404   2.710   2.065   3.654
 2131SOL    HW2 6405   2.570   2.145   3.676
 2132SOL     OW 6406   2.750   3.376   3.057
 2132SOL    HW1 6407   2.727   3.351   2.963
 2132SOL    HW2 6408   2.811   3.307   3.096
 2133SOL     OW 6409   3.213   2.452   3.295
 2133SOL    HW1 6410   3.241   2.409   3.380
 2133SOL    HW2 6411   3.238   2.548   3.296
 2134SOL     OW 6412   2.665   3.264   2.786
 2134SOL    HW1 6413   2.755   3.278   2.744
 2134SOL    HW2 6414   2.594   3.266   2.715
 2135SOL     OW 6415   2.784   2.365   2.761
 2135SOL    HW1 6416   2.759   2.356   2.665
 2135SOL    HW2 6417   2.832   2.283   2.792
 2136SOL     OW 6418   2.401   1.926   2.374
 2136SOL    HW1 6419   2.320   1.927   2.432
 2136SOL    HW2 6420   2.404   2.009   2.319
 2137SOL     OW 6421   3.296   3.050   1.903
 2137SOL    HW1 6422   3.328   2.974   1.960
 2137SOL    HW2 6423   3.204   3.077   1.933
 2138SOL     OW 6424   2.159   1.897   2.033
 2138SOL    HW1 6425   2.208   1.981   2.012
 2138SOL    HW2 6426   2.221   1.832   2.078
 2139SOL     OW 6427   2.797   2.098   2.342
 2139SOL    HW1 6428   2.749   2.139   2.264
 2139SOL    HW2 6429   2.896   2.096   2.323
 2140SOL     OW 6430   2.938   2.545   3.326
 2140SOL    HW1 6431   2.858   2.484   3.329
 2140SOL    HW2 6432   3.019   2.492   3.302
 2141SOL     OW 6433   3.089   3.432   2.655
 2141SOL    HW1 6434   3.110   3.506   2.590
 2141SOL    HW2 6435   3.157   3.432   2.728
 2142SOL     OW 6436   2.321   3.014   2.603
 2142SOL    HW1 6437   2.250   2.987   2.668
 2142SOL    HW2 6438   2.295   2.986   2.510
 2143SOL     OW 6439   3.133   3.659   2.453
 2143SOL    HW1 6440   3.177   3.723   2.389
 2143SOL    HW2 6441   3.083   3.711   2.523
 2144SOL     OW 6442   2.894   2.411   1.878
 2144SOL    HW1 6443   2.853   2.493   1.839
 2144SOL    HW2 6444   2.958   2.437   1.951
 2145SOL     OW 6445   1.940   2.418   3.248
 2145SOL    HW1 6446   2.032   2.417   3.207
 2145SOL    HW2 6447   1.934   2.492   3.315
 2146SOL     OW 6448   2.423   2.084   3.009
 2146SOL    HW1 6449   2.461   2.000   3.046
 2146SOL    HW2 6450   2.335   2.103   3.053
 2147SOL     OW 6451   2.728   2.316   2.504
 2147SOL    HW1 6452   2.696   2.388   2.442
 2147SOL    HW2 6453   2.752   2.235   2.451
 2148SOL     OW 6454   2.879   1.901   2.615
 2148SOL    HW1 6455   2.807   1.906   2.546
 2148SOL    HW2 6456   2.855   1.832   2.684
 2149SOL     OW 6457   3.291   3.035   2.729
 2149SOL    HW1 6458   3.236   2.951   2.722
 2149SOL    HW2 6459   3.317   3.064   2.637
 2150SOL     OW 6460   3.328   2.452   2.854
 2150SOL    HW1 6461   3.298   2.357   2.861
 2150SOL    HW2 6462   3.401   2.468   2.920
 2151SOL     OW 6463   3.719   2.695   2.239
 2151SOL    HW1 6464   3.761   2.631   2.303
 2151SOL    HW2 6465   3.681   2.644   2.161
 2152SOL     OW 6466   2.350   3.247   2.036
 2152SOL    HW1 6467   2.263   3.232   2.083
 2152SOL    HW2 6468   2.333   3.273   1.941
 2153SOL     OW 6469   3.526   3.142   2.519
 2153SOL    HW1 6470   3.625   3.150   2.533
 2153SOL    HW2 6471   3.481   3.226   2.550
 2154SOL     OW 6472   3.252   2.437   1.940
 2154SOL    HW1 6473   3.198   2.416   2.021
 2154SOL    HW2 6474   3.343   2.396   1.949
 2155SOL     OW 6475   3.616   3.085   3.450
 2155SOL    HW1 6476   3.707   3.046   3.437
 2155SOL    HW2 6477   3.624   3.181   3.474
 2156SOL     OW 6478   2.926   3.209   3.202
 2156SOL    HW1 6479   2.846   3.186   3.257
 2156SOL    HW2 6480   3.009   3.183   3.251
 2157SOL     OW 6481   3.454   3.491   3.487
 2157SOL    HW1 6482   3.481   3.525   3.397
 2157SOL    HW2 6483   3.533   3.453   3.533
 2158SOL     OW 6484   2.973   3.057   2.962
 2158SOL    HW1 6485   2.933   3.101   3.043
 2158SOL    HW2 6486   2.932   3.094   2.879
 2159SOL     OW 6487   3.500   2.961   2.941
 2159SOL    HW1 6488   3.505   3.042   3.000
 2159SOL    HW2 6489   3.414   2.963   2.890
 2160SOL     OW 6490   2.777   1.951   3.264
 2160SOL    HW1 6491   2.802   1.931   3.169
 2160SOL    HW2 6492   2.849   2.007   3.306
 2161SOL     OW 6493   2.842   2.978   3.581
 2161SOL    HW1 6494   2.743   2.984   3.591
 2161SOL    HW2 6495   2.865   2.898   3.525
 2162SOL     OW 6496   2.567   2.912   2.230
 2162SOL    HW1 6497   2.553   2.919   2.329
 2162SOL    HW2 6498   2.651   2.861   2.212
 2163SOL     OW 6499   2.272   2.675   3.113
 2163SOL    HW1 6500   2.358   2.687   3.163
 2163SOL    HW2 6501   2.230   2.588   3.140
 2164SOL     OW 6502   3.136   2.248   3.124
 2164SOL    HW1 6503   3.157   2.322   3.188
 2164SOL    HW2 6504   3.047   2.265   3.081
 2165SOL     OW 6505   1.926   3.426   3.193
 2165SOL    HW1 6506   1.880   3.508   3.159
 2165SOL    HW2 6507   2.024   3.445   3.202
 2166SOL     OW 6508   2.229   2.962   2.363
 2166SOL    HW1 6509   2.222   3.045   2.307
 2166SOL    HW2 6510   2.233   2.882   2.303
 2167SOL     OW 6511   3.114   3.210   2.250
 2167SOL    HW1 6512   3.164   3.287   2.290
 2167SOL    HW2 6513   3.019   3.212   2.282
 2168SOL     OW 6514   3.134   3.307   3.004
 2168SOL    HW1 6515   3.181   3.320   3.091
 2168SOL    HW2 6516   3.068   3.233   3.013
 2169SOL     OW 6517   3.444   2.501   2.334
 2169SOL    HW1 6518   3.413   2.562   2.407
 2169SOL    HW2 6519   3.494   2.553   2.265
 2170SOL     OW 6520   2.216   3.372   3.191
 2170SOL    HW1 6521   2.195   3.328   3.104
 2170SOL    HW2 6522   2.313   3.398   3.194
 2171SOL     OW 6523   2.264   2.613   3.460
 2171SOL    HW1 6524   2.332   2.668   3.413
 2171SOL    HW2 6525   2.304   2.525   3.487
 2172SOL     OW 6526   3.449   2.641   3.532
 2172SOL    HW1 6527   3.357   2.679   3.527
 2172SOL    HW2 6528   3.509   2.688   3.467
 2173SOL     OW 6529   2.875   1.967   3.632
 2173SOL    HW1 6530   2.881   2.052   3.580
 2173SOL    HW2 6531   2.907   1.891   3.575
 2174SOL     OW 6532   2.366   1.912   3.602
 2174SOL    HW1 6533   2.324   1.855   3.532
 2174SOL    HW2 6534   2.300   1.981   3.634
 2175SOL     OW 6535   2.435   2.732   2.891
 2175SOL    HW1 6536   2.479   2.821   2.882
 2175SOL    HW2 6537   2.372   2.732   2.968
 2176SOL     OW 6538   3.222   2.724   2.907
 2176SOL    HW1 6539   3.147   2.724   2.841
 2176SOL    HW2 6540   3.259   2.632   2.916
 2177SOL     OW 6541   3.071   2.387   2.137
 2177SOL    HW1 6542   3.084   2.303   2.191
 2177SOL    HW2 6543   3.042   2.461   2.197
 2178SOL     OW 6544   2.169   2.075   3.093
 2178SOL    HW1 6545   2.146   2.112   3.183
 2178SOL    HW2 6546   2.139   1.980   3.087
 2179SOL     OW 6547   1.899   3.172   3.144
 2179SOL    HW1 6548   1.952   3.123   3.212
 2179SOL    HW2 6549   1.921   3.270   3.149
 2180SOL     OW 6550   2.594   2.496   2.926
 2180SOL    HW1 6551   2.653   2.470   2.850
 2180SOL    HW2 6552   2.566   2.592   2.915
 2181SOL     OW 6553   3.590   2.797   3.716
 2181SOL    HW1 6554   3.544   2.790   3.627
 2181SOL    HW2 6555   3.528   2.841   3.782
 2182SOL     OW 6556   2.169   1.925   2.480
 2182SOL    HW1 6557   2.158   2.019   2.513
 2182SOL    HW2 6558   2.164   1.862   2.557
 2183SOL     OW 6559   3.484   2.229   2.236
 2183SOL    HW1 6560   3.486   2.153   2.300
 2183SOL    HW2 6561   3.436   2.306   2.276
 2184SOL     OW 6562   2.885   2.628   2.828
 2184SOL    HW1 6563   2.900   2.649   2.924
 2184SOL    HW2 6564   2.855   2.533   2.819
 2185SOL     OW 6565   2.842   3.435   3.562
 2185SOL    HW1 6566   2.822   3.479   3.474
 2185SOL    HW2 6567   2.881   3.344   3.546
 2186SOL     OW 6568   3.721   3.380   3.467
 2186SOL    HW1 6569   3.735   3.407   3.372
 2186SOL    HW2 6570   3.804   3.402   3.520
 2187SOL     OW 6571   2.212   2.760   3.666
 2187SOL    HW1 6572   2.288   2.804   3.714
 2187SOL    HW2 6573   2.247   2.713   3.584
 2188SOL     OW 6574   3.402   2.136   1.987
 2188SOL    HW1 6575   3.341   2.061   2.010
 2188SOL    HW2 6576   3.424   2.188   2.070
 2189SOL     OW 6577   3.165   2.700   1.904
 2189SOL    HW1 6578   3.199   2.607   1.919
 2189SOL    HW2 6579   3.183   2.727   1.809
 2190SOL     OW 6580   2.930   3.195   2.711
 2190SOL    HW1 6581   2.937   3.111   2.656
 2190SOL    HW2 6582   2.992   3.264   2.675
 2191SOL     OW 6583   2.181   2.672   2.811
 2191SOL    HW1 6584   2.274   2.708   2.816
 2191SOL    HW2 6585   2.175   2.587   2.863
 2192SOL     OW 6586   3.000   2.242   3.540
 2192SOL    HW1 6587   2.955   2.305   3.604
 2192SOL    HW2 6588   3.093   2.273   3.523
 2193SOL     OW 6589   3.022   2.069   3.339
 2193SOL    HW1 6590   3.022   2.133   3.416
 2193SOL    HW2 6591   3.050   2.117   3.256
 2194SOL     OW 6592   1.870   3.188   2.062
 2194SOL    HW1 6593   1.777   3.209   2.031
 2194SOL    HW2 6594   1.880   3.089   2.075
 2195SOL     OW 6595   1.950   3.663   2.789
 2195SOL    HW1 6596   1.908   3.577   2.762
 2195SOL    HW2 6597   2.044   3.666   2.755
 2196SOL     OW 6598   2.366   3.430   2.772
 2196SOL    HW1 6599   2.432   3.504   2.781
 2196SOL    HW2 6600   2.410   3.351   2.730
 2197SOL     OW 6601   2.864   2.658   3.100
 2197SOL    HW1 6602   2.905   2.626   3.186
 2197SOL    HW2 6603   2.768   2.631   3.097
 2198SOL     OW 6604   1.902   2.406   2.976
 2198SOL    HW1 6605   1.987   2.373   2.935
 2198SOL    HW2 6606   1.915   2.421   3.074
 2199SOL     OW 6607   2.051   2.382   3.584
 2199SOL    HW1 6608   2.110   2.342   3.514
 2199SOL    HW2 6609   1.993   2.453   3.543
 2200SOL     OW 6610   3.231   2.812   3.522
 2200SOL    HW1 6611   3.270   2.901   3.542
 2200SOL    HW2 6612   3.241   2.792   3.425
 2201SOL     OW 6613   2.677   2.434   2.187
 2201SOL    HW1 6614   2.684   2.345   2.141
 2201SOL    HW2 6615   2.583   2.468   2.179
 2202SOL     OW 6616   3.519   2.466   3.068
 2202SOL    HW1 6617   3.481   2.397   3.130
 2202SOL    HW2 6618   3.601   2.430   3.024
 2203SOL     OW 6619   2.114   3.426   3.606
 2203SOL    HW1 6620   2.084   3.483   3.682
 2203SOL    HW2 6621   2.107   3.329   3.632
 2204SOL     OW 6622   2.533   2.326   3.131
 2204SOL    HW1 6623   2.499   2.237   3.101
 2204SOL    HW2 6624   2.559   2.380   3.051
 2205SOL     OW 6625   2.792   3.540   3.327
 2205SOL    HW1 6626   2.768   3.522   3.232
 2205SOL    HW2 6627   2.822   3.634   3.337
 2206SOL     OW 6628   2.021   2.999   3.328
 2206SOL    HW1 6629   2.043   2.938   3.404
 2206SOL    HW2 6630   2.031   2.950   3.242
 2207SOL     OW 6631   3.209   2.921   3.096
 2207SOL    HW1 6632   3.233   2.858   3.022
 2207SOL    HW2 6633   3.119   2.961   3.078
 2208SOL     OW 6634   3.164   2.717   2.171
 2208SOL    HW1 6635   3.078   2.686   2.213
 2208SOL    HW2 6636   3.160   2.703   2.072
 2209SOL     OW 6637   3.621   3.609   3.016
 2209SOL    HW1 6638   3.682   3.639   2.943
 2209SOL    HW2 6639   3.583   3.520   2.994
 2210SOL     OW 6640   3.114   3.593   2.990
 2210SOL    HW1 6641   3.198   3.598   2.936
 2210SOL    HW2 6642   3.091   3.497   3.008
 2211SOL     OW 6643   1.945   3.120   2.884
 2211SOL    HW1 6644   1.940   3.119   2.984
 2211SOL    HW2 6645   1.862   3.079   2.846
 2212SOL     OW 6646   2.550   3.524   3.578
 2212SOL    HW1 6647   2.494   3.605   3.587
 2212SOL    HW2 6648   2.602   3.528   3.492
 2213SOL     OW 6649   3.588   1.997   2.385
 2213SOL    HW1 6650   3.661   1.980   2.318
 2213SOL    HW2 6651   3.557   1.910   2.423
 2214SOL     OW 6652   3.250   3.435   2.339
 2214SOL    HW1 6653   3.317   3.447   2.265
 2214SOL    HW2 6654   3.210   3.524   2.362
 2215SOL     OW 6655   1.992   3.656   3.713
 2215SOL    HW1 6656   1.951   3.582   3.766
 2215SOL    HW2 6657   2.056   3.707   3.771
 2216SOL     OW 6658   3.142   2.789   2.534
 2216SOL    HW1 6659   3.202   2.708   2.536
 2216SOL    HW2 6660   3.182   2.858   2.474
 2217SOL     OW 6661   2.692   3.135   3.284
 2217SOL    HW1 6662   2.687   3.168   3.379
 2217SOL    HW2 6663   2.606   3.154   3.238
 2218SOL     OW 6664   2.534   3.478   2.016
 2218SOL    HW1 6665   2.543   3.488   1.917
 2218SOL    HW2 6666   2.494   3.389   2.037
 2219SOL     OW 6667   3.512   3.582   3.256
 2219SOL    HW1 6668   3.565   3.592   3.172
 2219SOL    HW2 6669   3.485   3.672   3.290
 2220SOL     OW 6670   3.703   2.037   2.825
 2220SOL    HW1 6671   3.742   1.952   2.789
 2220SOL    HW2 6672   3.605   2.039   2.806
 2221SOL     OW 6673   2.125   2.188   2.582
 2221SOL    HW1 6674   2.046   2.239   2.548
 2221SOL    HW2 6675   2.116   2.173   2.680
 2222SOL     OW 6676   3.056   3.474   1.893
 2222SOL    HW1 6677   3.062   3.381   1.930
 2222SOL    HW2 6678   2.997   3.474   1.813
 2223SOL     OW 6679   2.684   2.864   3.234
 2223SOL    HW1 6680   2.724   2.863   3.142
 2223SOL    HW2 6681   2.694   2.956   3.274
 2224SOL     OW 6682   2.778   2.772   2.153
 2224SOL    HW1 6683   2.841   2.810   2.085
 2224SOL    HW2 6684   2.818   2.689   2.192
 2225SOL     OW 6685   3.366   3.469   1.906
 2225SOL    HW1 6686   3.274   3.506   1.913
 2225SOL    HW2 6687   3.404   3.489   1.816
 2226SOL     OW 6688   2.234   3.150   3.352
 2226SOL    HW1 6689   2.221   3.243   3.318
 2226SOL    HW2 6690   2.150   3.098   3.339
 2227SOL     OW 6691   3.476   3.154   3.151
 2227SOL    HW1 6692   3.536   3.157   3.231
 2227SOL    HW2 6693   3.401   3.218   3.164
 2228SOL     OW 6694   2.901   2.960   2.558
 2228SOL    HW1 6695   2.831   2.913   2.612
 2228SOL    HW2 6696   2.960   2.892   2.515
 2229SOL     OW 6697   2.876   2.098   2.833
 2229SOL    HW1 6698   2.868   2.062   2.740
 2229SOL    HW2 6699   2.874   2.022   2.898
 2230SOL     OW 6700   2.452   3.349   2.353
 2230SOL    HW1 6701   2.494   3.291   2.283
 2230SOL    HW2 6702   2.408   3.428   2.309
 2231SOL     OW 6703   3.571   2.247   3.243
 2231SOL    HW1 6704   3.644   2.316   3.247
 2231SOL    HW2 6705   3.599   2.172   3.184
 2232SOL     OW 6706   2.117   3.210   2.152
 2232SOL    HW1 6707   2.021   3.211   2.125
 2232SOL    HW2 6708   2.129   3.263   2.236
 2233SOL     OW 6709   1.967   2.875   3.588
 2233SOL    HW1 6710   1.890   2.842   3.642
 2233SOL    HW2 6711   2.052   2.845   3.630
 2234SOL     OW 6712   2.534   2.065   3.351
 2234SOL    HW1 6713   2.624   2.049   3.311
 2234SOL    HW2 6714   2.542   2.070   3.450
 2235SOL     OW 6715   1.937   2.207   1.895
 2235SOL    HW1 6716   1.845   2.179   1.866
 2235SOL    HW2 6717   1.968   2.284   1.839
 2236SOL     OW 6718   3.302   2.718   3.260
 2236SOL    HW1 6719   3.245   2.770   3.197
 2236SOL    HW2 6720   3.398   2.730   3.236
 2237SOL     OW 6721   1.934   2.028   2.180
 2237SOL    HW1 6722   1.917   2.111   2.126
 2237SOL    HW2 6723   2.024   1.991   2.158
 2238SOL     OW 6724   3.045   3.197   1.981
 2238SOL    HW1 6725   2.946   3.186   1.983
 2238SOL    HW2 6726   3.079   3.212   2.074
 2239SOL     OW 6727   2.475   2.704   3.293
 2239SOL    HW1 6728   2.531   2.785   3.276
 2239SOL    HW2 6729   2.534   2.624   3.296
 2240SOL     OW 6730   3.355   3.629   2.821
 2240SOL    HW1 6731   3.388   3.693   2.752
 2240SOL    HW2 6732   3.421   3.623   2.896
 2241SOL     OW 6733   2.578   2.427   3.570
 2241SOL    HW1 6734   2.597   2.492   3.644
 2241SOL    HW2 6735   2.638   2.347   3.579
 2242SOL     OW 6736   3.312   3.082   3.495
 2242SOL    HW1 6737   3.303   3.072   3.594
 2242SOL    HW2 6738   3.408   3.075   3.469
 2243SOL     OW 6739   2.252   3.603   3.422
 2243SOL    HW1 6740   2.161   3.644   3.420
 2243SOL    HW2 6741   2.245   3.509   3.454
 2244SOL     OW 6742   3.536   2.745   3.116
 2244SOL    HW1 6743   3.509   2.656   3.079
 2244SOL    HW2 6744   3.537   2.813   3.043
 2245SOL     OW 6745   3.087   2.187   2.311
 2245SOL    HW1 6746   3.152   2.113   2.300
 2245SOL    HW2 6747   3.107   2.237   2.395
 2246SOL     OW 6748   2.456   2.607   2.514
 2246SOL    HW1 6749   2.506   2.692   2.495
 2246SOL    HW2 6750   2.368   2.609   2.466
 2247SOL     OW 6751   3.639   2.204   3.504
 2247SOL    HW1 6752   3.622   2.235   3.410
 2247SOL    HW2 6753   3.555   2.167   3.542
 2248SOL     OW 6754   3.592   2.796   3.379
 2248SOL    HW1 6755   3.630   2.887   3.394
 2248SOL    HW2 6756   3.584   2.779   3.280
 2249SOL     OW 6757   2.721   3.236   1.878
 2249SOL    HW1 6758   2.675   3.251   1.966
 2249SOL    HW2 6759   2.765   3.321   1.848
 2250SOL     OW 6760   2.523   3.652   2.815
 2250SOL    HW1 6761   2.477   3.740   2.802
 2250SOL    HW2 6762   2.622   3.664   2.808
 2251SOL     OW 6763   2.721   2.818   2.723
 2251SOL    HW1 6764   2.775   2.749   2.771
 2251SOL    HW2 6765   2.689   2.887   2.789
 2252SOL     OW 6766   2.945   2.846   1.949
 2252SOL    HW1 6767   2.922   2.899   1.867
 2252SOL    HW2 6768   3.026   2.790   1.930
 2253SOL     OW 6769   3.723   3.431   2.713
 2253SOL    HW1 6770   3.652   3.419   2.643
 2253SOL    HW2 6771   3.724   3.352   2.773
 2254SOL     OW 6772   2.083   3.176   3.706
 2254SOL    HW1 6773   2.018   3.103   3.685
 2254SOL    HW2 6774   2.087   3.190   3.804
 2255SOL     OW 6775   1.941   3.102   2.515
 2255SOL    HW1 6776   1.940   3.055   2.603
 2255SOL    HW2 6777   2.023   3.074   2.464
 2256SOL     OW 6778   2.534   3.253   3.486
 2256SOL    HW1 6779   2.456   3.203   3.524
 2256SOL    HW2 6780   2.531   3.348   3.517
 2257SOL     OW 6781   3.686   2.054   3.089
 2257SOL    HW1 6782   3.682   1.964   3.133
 2257SOL    HW2 6783   3.689   2.043   2.990
 2258SOL     OW 6784   3.567   3.349   2.966
 2258SOL    HW1 6785   3.474   3.324   2.939
 2258SOL    HW2 6786   3.593   3.299   3.048
 2259SOL     OW 6787   2.179   2.409   3.142
 2259SOL    HW1 6788   2.217   2.350   3.214
 2259SOL    HW2 6789   2.219   2.383   3.054
 2260SOL     OW 6790   2.674   3.448   2.549
 2260SOL    HW1 6791   2.706   3.458   2.455
 2260SOL    HW2 6792   2.595   3.386   2.551
 2261SOL     OW 6793   3.286   2.076   2.974
 2261SOL    HW1 6794   3.338   2.011   3.029
 2261SOL    HW2 6795   3.237   2.139   3.035
 2262SOL     OW 6796   2.863   1.896   3.016
 2262SOL    HW1 6797   2.800   1.824   2.985
 2262SOL    HW2 6798   2.956   1.860   3.016
 2263SOL     OW 6799   2.632   3.192   2.163
 2263SOL    HW1 6800   2.586   3.105   2.180
 2263SOL    HW2 6801   2.723   3.189   2.204
 2264SOL     OW 6802   2.480   3.429   3.146
 2264SOL    HW1 6803   2.475   3.511   3.203
 2264SOL    HW2 6804   2.569   3.426   3.101
 2265SOL     OW 6805   3.214   1.914   2.030
 2265SOL    HW1 6806   3.249   1.873   1.946
 2265SOL    HW2 6807   3.124   1.876   2.050
 2266SOL     OW 6808   3.162   2.315   2.553
 2266SOL    HW1 6809   3.103   2.395   2.557
 2266SOL    HW2 6810   3.177   2.280   2.646
 2267SOL     OW 6811   3.455   2.083   2.744
 2267SOL    HW1 6812   3.371   2.082   2.798
 2267SOL    HW2 6813   3.457   2.166   2.688
 2268SOL     OW 6814   1.901   2.939   2.162
 2268SOL    HW1 6815   2.000   2.928   2.153
 2268SOL    HW2 6816   1.861   2.853   2.194
 2269SOL     OW 6817   2.737   3.508   2.199
 2269SOL    HW1 6818   2.660   3.473   2.145
 2269SOL    HW2 6819   2.705   3.579   2.261
 2270SOL     OW 6820   2.092   2.490   3.837
 2270SOL    HW1 6821   1.999   2.488   3.874
 2270SOL    HW2 6822   2.093   2.451   3.745
 2271SOL     OW 6823   2.087   2.137   4.720
 2271SOL    HW1 6824   2.122   2.120   4.812
 2271SOL    HW2 6825   1.999   2.092   4.708
 2272SOL     OW 6826   1.881   2.230   4.371
 2272SOL    HW1 6827   1.799   2.273   4.410
 2272SOL    HW2 6828   1.853   2.157   4.308
 2273SOL     OW 6829   3.417   3.373   4.427
 2273SOL    HW1 6830   3.360   3.357   4.508
 2273SOL    HW2 6831   3.358   3.383   4.347
 2274SOL     OW 6832   2.997   2.565   4.441
 2274SOL    HW1 6833   3.054   2.643   4.416
 2274SOL    HW2 6834   2.937   2.591   4.517
 2275SOL     OW 6835   3.617   2.469   3.955
 2275SOL    HW1 6836   3.605   2.456   3.856
 2275SOL    HW2 6837   3.587   2.388   4.004
 2276SOL     OW 6838   2.547   2.874   4.389
 2276SOL    HW1 6839   2.616   2.858   4.459
 2276SOL    HW2 6840   2.474   2.931   4.427
 2277SOL     OW 6841   3.465   2.309   4.461
 2277SOL    HW1 6842   3.391   2.355   4.411
 2277SOL    HW2 6843   3.516   2.377   4.514
 2278SOL     OW 6844   2.093   3.575   4.207
 2278SOL    HW1 6845   2.127   3.652   4.261
 2278SOL    HW2 6846   2.137   3.575   4.117
 2279SOL     OW 6847   2.092   3.296   4.262
 2279SOL    HW1 6848   2.066   3.392   4.262
 2279SOL    HW2 6849   2.021   3.242   4.307
 2280SOL     OW 6850   2.102   2.953   4.610
 2280SOL    HW1 6851   2.116   2.869   4.662
 2280SOL    HW2 6852   2.047   3.017   4.665
 2281SOL     OW 6853   2.468   2.826   3.847
 2281SOL    HW1 6854   2.475   2.910   3.793
 2281SOL    HW2 6855   2.514   2.839   3.935
 2282SOL     OW 6856   1.984   2.505   4.287
 2282SOL    HW1 6857   1.939   2.417   4.304
 2282SOL    HW2 6858   1.983   2.559   4.371
 2283SOL     OW 6859   3.704   3.629   4.083
 2283SOL    HW1 6860   3.758   3.600   4.163
 2283SOL    HW2 6861   3.734   3.719   4.054
 2284SOL     OW 6862   1.889   3.458   3.841
 2284SOL    HW1 6863   1.870   3.362   3.862
 2284SOL    HW2 6864   1.856   3.516   3.916
 2285SOL     OW 6865   3.551   2.784   4.336
 2285SOL    HW1 6866   3.646   2.755   4.344
 2285SOL    HW2 6867   3.543   2.849   4.261
 2286SOL     OW 6868   3.503   2.970   4.156
 2286SOL    HW1 6869   3.589   2.972   4.104
 2286SOL    HW2 6870   3.517   3.017   4.244
 2287SOL     OW 6871   2.475   3.227   4.450
 2287SOL    HW1 6872   2.426   3.140   4.459
 2287SOL    HW2 6873   2.452   3.270   4.363
 2288SOL     OW 6874   2.671   1.866   4.226
 2288SOL    HW1 6875   2.711   1.957   4.217
 2288SOL    HW2 6876   2.571   1.874   4.232
 2289SOL     OW 6877   3.387   2.861   3.914
 2289SOL    HW1 6878   3.324   2.785   3.927
 2289SOL    HW2 6879   3.435   2.879   4.000
 2290SOL     OW 6880   3.328   3.279   4.677
 2290SOL    HW1 6881   3.269   3.285   4.757
 2290SOL    HW2 6882   3.313   3.191   4.631
 2291SOL     OW 6883   3.529   3.576   4.296
 2291SOL    HW1 6884   3.488   3.553   4.208
 2291SOL    HW2 6885   3.511   3.502   4.361
 2292SOL     OW 6886   2.460   2.591   3.994
 2292SOL    HW1 6887   2.484   2.660   3.926
 2292SOL    HW2 6888   2.382   2.624   4.048
 2293SOL     OW 6889   3.143   2.207   4.668
 2293SOL    HW1 6890   3.057   2.157   4.655
 2293SOL    HW2 6891   3.205   2.153   4.724
 2294SOL     OW 6892   3.438   3.524   4.031
 2294SOL    HW1 6893   3.527   3.570   4.034
 2294SOL    HW2 6894   3.417   3.500   3.936
 2295SOL     OW 6895   2.903   2.563   4.153
 2295SOL    HW1 6896   2.929   2.559   4.249
 2295SOL    HW2 6897   2.818   2.512   4.139
 2296SOL     OW 6898   1.938   2.673   4.513
 2296SOL    HW1 6899   2.037   2.661   4.522
 2296SOL    HW2 6900   1.914   2.768   4.534
 2297SOL     OW 6901   2.727   2.210   3.919
 2297SOL    HW1 6902   2.786   2.273   3.870
 2297SOL    HW2 6903   2.746   2.116   3.890
 2298SOL     OW 6904   3.224   3.006   4.269
 2298SOL    HW1 6905   3.307   2.977   4.221
 2298SOL    HW2 6906   3.175   3.073   4.213
 2299SOL     OW 6907   2.412   2.058   4.609
 2299SOL    HW1 6908   2.407   2.053   4.709
 2299SOL    HW2 6909   2.414   2.154   4.580
 2300SOL     OW 6910   2.870   3.318   4.201
 2300SOL    HW1 6911   2.824   3.390   4.149
 2300SOL    HW2 6912   2.866   3.338   4.299
 2301SOL     OW 6913   2.213   3.663   4.577
 2301SOL    HW1 6914   2.263   3.577   4.583
 2301SOL    HW2 6915   2.278   3.740   4.574
 2302SOL     OW 6916   3.657   2.928   4.597
 2302SOL    HW1 6917   3.595   2.913   4.521
 2302SOL    HW2 6918   3.605   2.939   4.682
 2303SOL     OW 6919   2.183   2.805   3.966
 2303SOL    HW1 6920   2.265   2.844   3.924
 2303SOL    HW2 6921   2.156   2.723   3.917
 2304SOL     OW 6922   3.320   2.597   4.452
 2304SOL    HW1 6923   3.315   2.532   4.527
 2304SOL    HW2 6924   3.400   2.656   4.465
 2305SOL     OW 6925   2.973   3.638   3.961
 2305SOL    HW1 6926   2.913   3.576   4.011
 2305SOL    HW2 6927   3.004   3.594   3.876
 2306SOL     OW 6928   3.494   3.239   3.805
 2306SOL    HW1 6929   3.462   3.333   3.795
 2306SOL    HW2 6930   3.418   3.176   3.793
 2307SOL     OW 6931   2.326   3.605   4.047
 2307SOL    HW1 6932   2.359   3.644   4.133
 2307SOL    HW2 6933   2.402   3.598   3.982
 2308SOL     OW 6934   3.262   1.969   4.150
 2308SOL    HW1 6935   3.238   1.932   4.060
 2308SOL    HW2 6936   3.361   1.985   4.154
 2309SOL     OW 6937   2.244   2.562   4.204
 2309SOL    HW1 6938   2.289   2.472   4.201
 2309SOL    HW2 6939   2.150   2.551   4.237
 2310SOL     OW 6940   2.476   1.984   3.841
 2310SOL    HW1 6941   2.574   1.962   3.848
 2310SOL    HW2 6942   2.445   1.967   3.748
 2311SOL     OW 6943   2.401   1.926   4.236
 2311SOL    HW1 6944   2.320   1.927   4.294
 2311SOL    HW2 6945   2.404   2.009   4.181
 2312SOL     OW 6946   3.296   3.050   3.765
 2312SOL    HW1 6947   3.328   2.974   3.822
 2312SOL    HW2 6948   3.204   3.077   3.795
 2313SOL     OW 6949   2.159   1.897   3.895
 2313SOL    HW1 6950   2.208   1.981   3.874
 2313SOL    HW2 6951   2.221   1.832   3.940
 2314SOL     OW 6952   2.797   2.098   4.204
 2314SOL    HW1 6953   2.749   2.139   4.126
 2314SOL    HW2 6954   2.896   2.096   4.185
 2315SOL     OW 6955   3.089   3.432   4.517
 2315SOL    HW1 6956   3.110   3.506   4.452
 2315SOL    HW2 6957   3.157   3.432   4.590
 2316SOL     OW 6958   2.321   3.014   4.465
 2316SOL    HW1 6959   2.250   2.987   4.530
 2316SOL    HW2 6960   2.295   2.986   4.372
 2317SOL     OW 6961   3.133   3.659   4.315
 2317SOL    HW1 6962   3.177   3.723   4.251
 2317SOL    HW2 6963   3.083   3.711   4.385
 2318SOL     OW 6964   2.894   2.411   3.740
 2318SOL    HW1 6965   2.853   2.493   3.701
 2318SOL    HW2 6966   2.958   2.437   3.813
 2319SOL     OW 6967   2.728   2.316   4.366
 2319SOL    HW1 6968   2.696   2.388   4.304
 2319SOL    HW2 6969   2.752   2.235   4.313
 2320SOL     OW 6970   2.879   1.901   4.477
 2320SOL    HW1 6971   2.807   1.906   4.408
 2320SOL    HW2 6972   2.855   1.832   4.546
 2321SOL     OW 6973   3.719   2.695   4.101
 2321SOL    HW1 6974   3.761   2.631   4.165
 2321SOL    HW2 6975   3.681   2.644   4.023
 2322SOL     OW 6976   2.350   3.247   3.898
 2322SOL    HW1 6977   2.263   3.232   3.945
 2322SOL    HW2 6978   2.333   3.273   3.803
 2323SOL     OW 6979   3.526   3.142   4.381
 2323SOL    HW1 6980   3.625   3.150   4.395
 2323SOL    HW2 6981   3.481   3.226   4.412
 2324SOL     OW 6982   3.252   2.437   3.802
 2324SOL    HW1 6983   3.198   2.416   3.883
 2324SOL    HW2 6984   3.343   2.396   3.811
 2325SOL     OW 6985   2.389   2.118   4.052
 2325SOL    HW1 6986   2.416   2.059   3.977
 2325SOL    HW2 6987   2.389   2.213   4.021
 2326SOL     OW 6988   2.567   2.912   4.092
 2326SOL    HW1 6989   2.553   2.919   4.191
 2326SOL    HW2 6990   2.651   2.861   4.074
 2327SOL     OW 6991   2.229   2.962   4.225
 2327SOL    HW1 6992   2.222   3.045   4.169
 2327SOL    HW2 6993   2.233   2.882   4.165
 2328SOL     OW 6994   2.428   2.399   4.589
 2328SOL    HW1 6995   2.440   2.465   4.515
 2328SOL    HW2 6996   2.474   2.433   4.672
 2329SOL     OW 6997   3.114   3.210   4.112
 2329SOL    HW1 6998   3.164   3.287   4.152
 2329SOL    HW2 6999   3.019   3.212   4.144
 2330SOL     OW 7000   3.444   2.501   4.196
 2330SOL    HW1 7001   3.413   2.562   4.269
 2330SOL    HW2 7002   3.494   2.553   4.127
 2331SOL     OW 7003   3.071   2.387   3.999
 2331SOL    HW1 7004   3.084   2.303   4.053
 2331SOL    HW2 7005   3.042   2.461   4.059
 2332SOL     OW 7006   2.594   2.496   4.788
 2332SOL    HW1 7007   2.653   2.470   4.712
 2332SOL    HW2 7008   2.566   2.592   4.777
 2333SOL     OW 7009   2.169   1.925   4.342
 2333SOL    HW1 7010   2.158   2.019   4.375
 2333SOL    HW2 7011   2.164   1.862   4.419
 2334SOL     OW 7012   3.484   2.229   4.098
 2334SOL    HW1 7013   3.486   2.153   4.162
 2334SOL    HW2 7014   3.436   2.306   4.138
 2335SOL     OW 7015   3.402   2.136   3.849
 2335SOL    HW1 7016   3.341   2.061   3.872
 2335SOL    HW2 7017   3.424   2.188   3.932
 2336SOL     OW 7018   3.165   2.700   3.766
 2336SOL    HW1 7019   3.199   2.607   3.781
 2336SOL    HW2 7020   3.183   2.727   3.671
 2337SOL     OW 7021   2.930   3.195   4.573
 2337SOL    HW1 7022   2.937   3.111   4.518
 2337SOL    HW2 7023   2.992   3.264   4.537
 2338SOL     OW 7024   1.870   3.188   3.924
 2338SOL    HW1 7025   1.777   3.209   3.893
 2338SOL    HW2 7026   1.880   3.089   3.937
 2339SOL     OW 7027   1.950   3.663   4.651
 2339SOL    HW1 7028   1.908   3.577   4.624
 2339SOL    HW2 7029   2.044   3.666   4.617
 2340SOL     OW 7030   2.366   3.430   4.634
 2340SOL    HW1 7031   2.432   3.504   4.643
 2340SOL    HW2 7032   2.410   3.351   4.592
 2341SOL     OW 7033   2.677   2.434   4.049
 2341SOL    HW1 7034   2.684   2.345   4.003
 2341SOL    HW2 7035   2.583   2.468   4.041
 2342SOL     OW 7036   2.335   2.362   3.915
 2342SOL    HW1 7037   2.396   2.442   3.919
 2342SOL    HW2 7038   2.240   2.393   3.922
 2343SOL     OW 7039   3.164   2.717   4.033
 2343SOL    HW1 7040   3.078   2.686   4.075
 2343SOL    HW2 7041   3.160   2.703   3.934
 2344SOL     OW 7042   3.621   3.609   4.878
 2344SOL    HW1 7043   3.682   3.639   4.805
 2344SOL    HW2 7044   3.583   3.520   4.856
 2345SOL     OW 7045   3.588   1.997   4.247
 2345SOL    HW1 7046   3.661   1.980   4.180
 2345SOL    HW2 7047   3.557   1.910   4.285
 2346SOL     OW 7048   3.250   3.435   4.201
 2346SOL    HW1 7049   3.317   3.447   4.127
 2346SOL    HW2 7050   3.210   3.524   4.224
 2347SOL     OW 7051   3.142   2.789   4.396
 2347SOL    HW1 7052   3.202   2.708   4.398
 2347SOL    HW2 7053   3.182   2.858   4.336
 2348SOL     OW 7054   2.534   3.478   3.878
 2348SOL    HW1 7055   2.543   3.488   3.779
 2348SOL    HW2 7056   2.494   3.389   3.899
 2349SOL     OW 7057   3.703   2.037   4.687
 2349SOL    HW1 7058   3.742   1.952   4.651
 2349SOL    HW2 7059   3.605   2.039   4.668
 2350SOL     OW 7060   2.125   2.188   4.444
 2350SOL    HW1 7061   2.046   2.239   4.410
 2350SOL    HW2 7062   2.116   2.173   4.542
 2351SOL     OW 7063   3.056   3.474   3.755
 2351SOL    HW1 7064   3.062   3.381   3.792
 2351SOL    HW2 7065   2.997   3.474   3.675
 2352SOL     OW 7066   2.778   2.772   4.015
 2352SOL    HW1 7067   2.841   2.810   3.947
 2352SOL    HW2 7068   2.818   2.689   4.054
 2353SOL     OW 7069   3.366   3.469   3.768
 2353SOL    HW1 7070   3.274   3.506   3.775
 2353SOL    HW2 7071   3.404   3.489   3.678
 2354SOL     OW 7072   2.901   2.960   4.420
 2354SOL    HW1 7073   2.831   2.913   4.474
 2354SOL    HW2 7074   2.960   2.892   4.377
 2355SOL     OW 7075   2.452   3.349   4.215
 2355SOL    HW1 7076   2.494   3.291   4.145
 2355SOL    HW2 7077   2.408   3.428   4.171
 2356SOL     OW 7078   2.117   3.210   4.014
 2356SOL    HW1 7079   2.021   3.211   3.987
 2356SOL    HW2 7080   2.129   3.263   4.098
 2357SOL     OW 7081   1.937   2.207   3.757
 2357SOL    HW1 7082   1.845   2.179   3.728
 2357SOL    HW2 7083   1.968   2.284   3.701
 2358SOL     OW 7084   1.934   2.028   4.042
 2358SOL    HW1 7085   1.917   2.111   3.988
 2358SOL    HW2 7086   2.024   1.991   4.020
 2359SOL     OW 7087   3.045   3.197   3.843
 2359SOL    HW1 7088   2.946   3.186   3.845
 2359SOL    HW2 7089   3.079   3.212   3.936
 2360SOL     OW 7090   3.087   2.187   4.173
 2360SOL    HW1 7091   3.152   2.113   4.162
 2360SOL    HW2 7092   3.107   2.237   4.257
 2361SOL     OW 7093   2.456   2.607   4.376
 2361SOL    HW1 7094   2.506   2.692   4.357
 2361SOL    HW2 7095   2.368   2.609   4.328
 2362SOL     OW 7096   2.721   3.236   3.740
 2362SOL    HW1 7097   2.675   3.251   3.828
 2362SOL    HW2 7098   2.765   3.321   3.710
 2363SOL     OW 7099   2.523   3.652   4.677
 2363SOL    HW1 7100   2.477   3.740   4.664
 2363SOL    HW2 7101   2.622   3.664   4.670
 2364SOL     OW 7102   2.721   2.818   4.585
 2364SOL    HW1 7103   2.775   2.749   4.633
 2364SOL    HW2 7104   2.689   2.887   4.651
 2365SOL     OW 7105   2.945   2.846   3.811
 2365SOL    HW1 7106   2.922   2.899   3.729
 2365SOL    HW2 7107   3.026   2.790   3.792
 2366SOL     OW 7108   3.723   3.431   4.575
 2366SOL    HW1 7109   3.652   3.419   4.505
 2366SOL    HW2 7110   3.724   3.352   4.635
 2367SOL     OW 7111   1.941   3.102   4.377
 2367SOL    HW1 7112   1.940   3.055   4.465
 2367SOL    HW2 7113   2.023   3.074   4.326
 2368SOL     OW 7114   2.290   2.286   4.244
 2368SOL    HW1 7115   2.320   2.214   4.182
 2368SOL    HW2 7116   2.251   2.246   4.327
 2369SOL     OW 7117   2.674   3.448   4.411
 2369SOL    HW1 7118   2.706   3.458   4.317
 2369SOL    HW2 7119   2.595   3.386   4.413
 2370SOL     OW 7120   2.632   3.192   4.025
 2370SOL    HW1 7121   2.586   3.105   4.042
 2370SOL    HW2 7122   2.723   3.189   4.066
 2371SOL     OW 7123   3.214   1.914   3.892
 2371SOL    HW1 7124   3.249   1.873   3.808
 2371SOL    HW2 7125   3.124   1.876   3.912
 2372SOL     OW 7126   3.162   2.315   4.415
 2372SOL    HW1 7127   3.103   2.395   4.419
 2372SOL    HW2 7128   3.177   2.280   4.508
 2373SOL     OW 7129   3.455   2.083   4.606
 2373SOL    HW1 7130   3.371   2.082   4.660
 2373SOL    HW2 7131   3.457   2.166   4.550
 2374SOL     OW 7132   1.901   2.939   4.024
 2374SOL    HW1 7133   2.000   2.928   4.015
 2374SOL    HW2 7134   1.861   2.853   4.056
 2375SOL     OW 7135   2.737   3.508   4.061
 2375SOL    HW1 7136   2.660   3.473   4.007
 2375SOL    HW2 7137   2.705   3.579   4.123
 2376SOL     OW 7138   2.092   4.352   0.113
 2376SOL    HW1 7139   1.999   4.350   0.150
 2376SOL    HW2 7140   2.093   4.313   0.021
 2377SOL     OW 7141   2.087   3.999   0.996
 2377SOL    HW1 7142   2.122   3.982   1.088
 2377SOL    HW2 7143   1.999   3.954   0.984
 2378SOL     OW 7144   1.881   4.092   0.647
 2378SOL    HW1 7145   1.799   4.135   0.686
 2378SOL    HW2 7146   1.853   4.019   0.584
 2379SOL     OW 7147   2.997   4.427   0.717
 2379SOL    HW1 7148   3.054   4.505   0.692
 2379SOL    HW2 7149   2.937   4.453   0.793
 2380SOL     OW 7150   3.617   4.331   0.231
 2380SOL    HW1 7151   3.605   4.318   0.132
 2380SOL    HW2 7152   3.587   4.250   0.280
 2381SOL     OW 7153   2.712   4.522   1.823
 2381SOL    HW1 7154   2.708   4.598   1.888
 2381SOL    HW2 7155   2.734   4.558   1.732
 2382SOL     OW 7156   2.547   4.736   0.665
 2382SOL    HW1 7157   2.616   4.720   0.735
 2382SOL    HW2 7158   2.474   4.793   0.703
 2383SOL     OW 7159   2.300   4.116   1.499
 2383SOL    HW1 7160   2.382   4.060   1.508
 2383SOL    HW2 7161   2.219   4.058   1.503
 2384SOL     OW 7162   3.465   4.171   0.737
 2384SOL    HW1 7163   3.391   4.217   0.687
 2384SOL    HW2 7164   3.516   4.239   0.790
 2385SOL     OW 7165   3.456   3.838   1.480
 2385SOL    HW1 7166   3.438   3.905   1.408
 2385SOL    HW2 7167   3.453   3.884   1.569
 2386SOL     OW 7168   1.984   4.367   0.563
 2386SOL    HW1 7169   1.939   4.279   0.580
 2386SOL    HW2 7170   1.983   4.421   0.647
 2387SOL     OW 7171   1.975   4.461   1.597
 2387SOL    HW1 7172   2.063   4.448   1.642
 2387SOL    HW2 7173   1.962   4.558   1.575
 2388SOL     OW 7174   2.671   3.728   0.502
 2388SOL    HW1 7175   2.711   3.819   0.493
 2388SOL    HW2 7176   2.571   3.736   0.508
 2389SOL     OW 7177   2.179   3.975   1.801
 2389SOL    HW1 7178   2.250   4.046   1.807
 2389SOL    HW2 7179   2.091   4.014   1.829
 2390SOL     OW 7180   2.460   4.453   0.270
 2390SOL    HW1 7181   2.484   4.522   0.202
 2390SOL    HW2 7182   2.382   4.486   0.324
 2391SOL     OW 7183   3.143   4.069   0.944
 2391SOL    HW1 7184   3.057   4.019   0.931
 2391SOL    HW2 7185   3.205   4.015   1.000
 2392SOL     OW 7186   2.669   4.329   1.465
 2392SOL    HW1 7187   2.622   4.326   1.554
 2392SOL    HW2 7188   2.618   4.274   1.399
 2393SOL     OW 7189   3.256   4.193   1.674
 2393SOL    HW1 7190   3.236   4.236   1.762
 2393SOL    HW2 7191   3.334   4.131   1.683
 2394SOL     OW 7192   2.835   4.614   1.572
 2394SOL    HW1 7193   2.881   4.530   1.543
 2394SOL    HW2 7194   2.779   4.648   1.497
 2395SOL     OW 7195   2.853   4.134   1.242
 2395SOL    HW1 7196   2.776   4.168   1.296
 2395SOL    HW2 7197   2.819   4.083   1.163
 2396SOL     OW 7198   2.903   4.425   0.429
 2396SOL    HW1 7199   2.929   4.421   0.525
 2396SOL    HW2 7200   2.818   4.374   0.415
 2397SOL     OW 7201   1.938   4.535   0.789
 2397SOL    HW1 7202   2.037   4.523   0.798
 2397SOL    HW2 7203   1.914   4.630   0.810
 2398SOL     OW 7204   2.727   4.072   0.195
 2398SOL    HW1 7205   2.786   4.135   0.146
 2398SOL    HW2 7206   2.746   3.978   0.166
 2399SOL     OW 7207   3.581   4.309   1.831
 2399SOL    HW1 7208   3.555   4.398   1.795
 2399SOL    HW2 7209   3.579   4.241   1.758
 2400SOL     OW 7210   2.412   3.920   0.885
 2400SOL    HW1 7211   2.407   3.915   0.985
 2400SOL    HW2 7212   2.414   4.016   0.856
 2401SOL     OW 7213   3.320   4.459   0.728
 2401SOL    HW1 7214   3.315   4.394   0.803
 2401SOL    HW2 7215   3.400   4.518   0.741
 2402SOL     OW 7216   2.064   4.009   1.498
 2402SOL    HW1 7217   1.984   4.069   1.485
 2402SOL    HW2 7218   2.054   3.960   1.584
 2403SOL     OW 7219   3.262   3.831   0.426
 2403SOL    HW1 7220   3.238   3.794   0.336
 2403SOL    HW2 7221   3.361   3.847   0.430
 2404SOL     OW 7222   2.244   4.424   0.480
 2404SOL    HW1 7223   2.289   4.334   0.477
 2404SOL    HW2 7224   2.150   4.413   0.513
 2405SOL     OW 7225   3.409   3.946   1.729
 2405SOL    HW1 7226   3.404   3.983   1.821
 2405SOL    HW2 7227   3.337   3.877   1.717
 2406SOL     OW 7228   2.643   3.988   1.749
 2406SOL    HW1 7229   2.710   3.927   1.792
 2406SOL    HW2 7230   2.570   4.007   1.814
 2407SOL     OW 7231   3.213   4.314   1.433
 2407SOL    HW1 7232   3.241   4.271   1.518
 2407SOL    HW2 7233   3.238   4.410   1.434
 2408SOL     OW 7234   2.784   4.227   0.899
 2408SOL    HW1 7235   2.759   4.218   0.803
 2408SOL    HW2 7236   2.832   4.145   0.930
 2409SOL     OW 7237   2.401   3.788   0.512
 2409SOL    HW1 7238   2.320   3.789   0.570
 2409SOL    HW2 7239   2.404   3.871   0.457
 2410SOL     OW 7240   2.159   3.759   0.171
 2410SOL    HW1 7241   2.208   3.843   0.150
 2410SOL    HW2 7242   2.221   3.694   0.216
 2411SOL     OW 7243   2.797   3.960   0.480
 2411SOL    HW1 7244   2.749   4.001   0.402
 2411SOL    HW2 7245   2.896   3.958   0.461
 2412SOL     OW 7246   2.938   4.407   1.464
 2412SOL    HW1 7247   2.858   4.346   1.467
 2412SOL    HW2 7248   3.019   4.354   1.440
 2413SOL     OW 7249   2.894   4.273   0.016
 2413SOL    HW1 7250   2.853   4.355  -0.023
 2413SOL    HW2 7251   2.958   4.299   0.089
 2414SOL     OW 7252   1.940   4.280   1.386
 2414SOL    HW1 7253   2.032   4.279   1.345
 2414SOL    HW2 7254   1.934   4.354   1.453
 2415SOL     OW 7255   2.423   3.946   1.147
 2415SOL    HW1 7256   2.461   3.862   1.184
 2415SOL    HW2 7257   2.335   3.965   1.191
 2416SOL     OW 7258   2.728   4.178   0.642
 2416SOL    HW1 7259   2.696   4.250   0.580
 2416SOL    HW2 7260   2.752   4.097   0.589
 2417SOL     OW 7261   2.879   3.763   0.753
 2417SOL    HW1 7262   2.807   3.768   0.684
 2417SOL    HW2 7263   2.855   3.694   0.822
 2418SOL     OW 7264   3.328   4.314   0.992
 2418SOL    HW1 7265   3.298   4.219   0.999
 2418SOL    HW2 7266   3.401   4.330   1.058
 2419SOL     OW 7267   3.719   4.557   0.377
 2419SOL    HW1 7268   3.761   4.493   0.441
 2419SOL    HW2 7269   3.681   4.506   0.299
 2420SOL     OW 7270   3.252   4.299   0.078
 2420SOL    HW1 7271   3.198   4.278   0.159
 2420SOL    HW2 7272   3.343   4.258   0.087
 2421SOL     OW 7273   2.389   3.980   0.328
 2421SOL    HW1 7274   2.416   3.921   0.253
 2421SOL    HW2 7275   2.389   4.075   0.297
 2422SOL     OW 7276   2.777   3.813   1.402
 2422SOL    HW1 7277   2.802   3.793   1.307
 2422SOL    HW2 7278   2.849   3.869   1.444
 2423SOL     OW 7279   2.272   4.537   1.251
 2423SOL    HW1 7280   2.358   4.549   1.301
 2423SOL    HW2 7281   2.230   4.450   1.278
 2424SOL     OW 7282   3.136   4.110   1.262
 2424SOL    HW1 7283   3.157   4.184   1.326
 2424SOL    HW2 7284   3.047   4.127   1.219
 2425SOL     OW 7285   2.428   4.261   0.865
 2425SOL    HW1 7286   2.440   4.327   0.791
 2425SOL    HW2 7287   2.474   4.295   0.948
 2426SOL     OW 7288   3.444   4.363   0.472
 2426SOL    HW1 7289   3.413   4.424   0.545
 2426SOL    HW2 7290   3.494   4.415   0.403
 2427SOL     OW 7291   2.264   4.475   1.598
 2427SOL    HW1 7292   2.332   4.530   1.551
 2427SOL    HW2 7293   2.304   4.387   1.625
 2428SOL     OW 7294   3.449   4.503   1.670
 2428SOL    HW1 7295   3.357   4.541   1.665
 2428SOL    HW2 7296   3.509   4.550   1.605
 2429SOL     OW 7297   2.875   3.829   1.770
 2429SOL    HW1 7298   2.881   3.914   1.718
 2429SOL    HW2 7299   2.907   3.753   1.713
 2430SOL     OW 7300   2.366   3.774   1.740
 2430SOL    HW1 7301   2.324   3.717   1.670
 2430SOL    HW2 7302   2.300   3.843   1.772
 2431SOL     OW 7303   2.435   4.594   1.029
 2431SOL    HW1 7304   2.479   4.683   1.020
 2431SOL    HW2 7305   2.372   4.594   1.106
 2432SOL     OW 7306   3.222   4.586   1.045
 2432SOL    HW1 7307   3.147   4.586   0.979
 2432SOL    HW2 7308   3.259   4.494   1.054
 2433SOL     OW 7309   3.071   4.249   0.275
 2433SOL    HW1 7310   3.084   4.165   0.329
 2433SOL    HW2 7311   3.042   4.323   0.335
 2434SOL     OW 7312   2.169   3.937   1.231
 2434SOL    HW1 7313   2.146   3.974   1.321
 2434SOL    HW2 7314   2.139   3.842   1.225
 2435SOL     OW 7315   2.594   4.358   1.064
 2435SOL    HW1 7316   2.653   4.332   0.988
 2435SOL    HW2 7317   2.566   4.454   1.053
 2436SOL     OW 7318   3.590   4.659   1.854
 2436SOL    HW1 7319   3.544   4.652   1.765
 2436SOL    HW2 7320   3.528   4.703   1.920
 2437SOL     OW 7321   2.169   3.787   0.618
 2437SOL    HW1 7322   2.158   3.881   0.651
 2437SOL    HW2 7323   2.164   3.724   0.695
 2438SOL     OW 7324   3.484   4.091   0.374
 2438SOL    HW1 7325   3.486   4.015   0.438
 2438SOL    HW2 7326   3.436   4.168   0.414
 2439SOL     OW 7327   2.885   4.490   0.966
 2439SOL    HW1 7328   2.900   4.511   1.062
 2439SOL    HW2 7329   2.855   4.395   0.957
 2440SOL     OW 7330   3.402   3.998   0.125
 2440SOL    HW1 7331   3.341   3.923   0.148
 2440SOL    HW2 7332   3.424   4.050   0.208
 2441SOL     OW 7333   3.165   4.562   0.042
 2441SOL    HW1 7334   3.199   4.469   0.057
 2441SOL    HW2 7335   3.183   4.589  -0.053
 2442SOL     OW 7336   2.181   4.534   0.949
 2442SOL    HW1 7337   2.274   4.570   0.954
 2442SOL    HW2 7338   2.175   4.449   1.001
 2443SOL     OW 7339   2.201   4.233   1.006
 2443SOL    HW1 7340   2.149   4.150   0.989
 2443SOL    HW2 7341   2.278   4.238   0.942
 2444SOL     OW 7342   3.000   4.104   1.678
 2444SOL    HW1 7343   2.955   4.167   1.742
 2444SOL    HW2 7344   3.093   4.135   1.661
 2445SOL     OW 7345   3.022   3.931   1.477
 2445SOL    HW1 7346   3.022   3.995   1.554
 2445SOL    HW2 7347   3.050   3.979   1.394
 2446SOL     OW 7348   2.864   4.520   1.238
 2446SOL    HW1 7349   2.905   4.488   1.324
 2446SOL    HW2 7350   2.768   4.493   1.235
 2447SOL     OW 7351   1.902   4.268   1.114
 2447SOL    HW1 7352   1.987   4.235   1.073
 2447SOL    HW2 7353   1.915   4.283   1.212
 2448SOL     OW 7354   2.051   4.244   1.722
 2448SOL    HW1 7355   2.110   4.204   1.652
 2448SOL    HW2 7356   1.993   4.315   1.681
 2449SOL     OW 7357   2.677   4.296   0.325
 2449SOL    HW1 7358   2.684   4.207   0.279
 2449SOL    HW2 7359   2.583   4.330   0.317
 2450SOL     OW 7360   3.519   4.328   1.206
 2450SOL    HW1 7361   3.481   4.259   1.268
 2450SOL    HW2 7362   3.601   4.292   1.162
 2451SOL     OW 7363   2.533   4.188   1.269
 2451SOL    HW1 7364   2.499   4.099   1.239
 2451SOL    HW2 7365   2.559   4.242   1.189
 2452SOL     OW 7366   2.335   4.224   0.191
 2452SOL    HW1 7367   2.396   4.304   0.195
 2452SOL    HW2 7368   2.240   4.255   0.198
 2453SOL     OW 7369   3.164   4.579   0.309
 2453SOL    HW1 7370   3.078   4.548   0.351
 2453SOL    HW2 7371   3.160   4.565   0.210
 2454SOL     OW 7372   2.765   3.810   0.133
 2454SOL    HW1 7373   2.816   3.811   0.047
 2454SOL    HW2 7374   2.821   3.768   0.204
 2455SOL     OW 7375   3.588   3.859   0.523
 2455SOL    HW1 7376   3.661   3.842   0.456
 2455SOL    HW2 7377   3.557   3.772   0.561
 2456SOL     OW 7378   3.142   4.651   0.672
 2456SOL    HW1 7379   3.202   4.570   0.674
 2456SOL    HW2 7380   3.182   4.720   0.612
 2457SOL     OW 7381   3.703   3.899   0.963
 2457SOL    HW1 7382   3.742   3.814   0.927
 2457SOL    HW2 7383   3.605   3.901   0.944
 2458SOL     OW 7384   2.125   4.050   0.720
 2458SOL    HW1 7385   2.046   4.101   0.686
 2458SOL    HW2 7386   2.116   4.035   0.818
 2459SOL     OW 7387   2.876   3.960   0.971
 2459SOL    HW1 7388   2.868   3.924   0.878
 2459SOL    HW2 7389   2.874   3.884   1.036
 2460SOL     OW 7390   3.571   4.109   1.381
 2460SOL    HW1 7391   3.644   4.178   1.385
 2460SOL    HW2 7392   3.599   4.034   1.322
 2461SOL     OW 7393   1.967   4.737   1.726
 2461SOL    HW1 7394   1.890   4.704   1.780
 2461SOL    HW2 7395   2.052   4.707   1.768
 2462SOL     OW 7396   2.534   3.927   1.489
 2462SOL    HW1 7397   2.624   3.911   1.449
 2462SOL    HW2 7398   2.542   3.932   1.588
 2463SOL     OW 7399   3.302   4.580   1.398
 2463SOL    HW1 7400   3.245   4.632   1.335
 2463SOL    HW2 7401   3.398   4.592   1.374
 2464SOL     OW 7402   1.934   3.890   0.318
 2464SOL    HW1 7403   1.917   3.973   0.264
 2464SOL    HW2 7404   2.024   3.853   0.296
 2465SOL     OW 7405   2.475   4.566   1.431
 2465SOL    HW1 7406   2.531   4.647   1.414
 2465SOL    HW2 7407   2.534   4.486   1.434
 2466SOL     OW 7408   2.578   4.289   1.708
 2466SOL    HW1 7409   2.597   4.354   1.782
 2466SOL    HW2 7410   2.638   4.209   1.717
 2467SOL     OW 7411   3.536   4.607   1.254
 2467SOL    HW1 7412   3.509   4.518   1.217
 2467SOL    HW2 7413   3.537   4.675   1.181
 2468SOL     OW 7414   3.087   4.049   0.449
 2468SOL    HW1 7415   3.152   3.975   0.438
 2468SOL    HW2 7416   3.107   4.099   0.533
 2469SOL     OW 7417   2.456   4.469   0.652
 2469SOL    HW1 7418   2.506   4.554   0.633
 2469SOL    HW2 7419   2.368   4.471   0.604
 2470SOL     OW 7420   3.639   4.066   1.642
 2470SOL    HW1 7421   3.622   4.097   1.548
 2470SOL    HW2 7422   3.555   4.029   1.680
 2471SOL     OW 7423   3.592   4.658   1.517
 2471SOL    HW1 7424   3.630   4.749   1.532
 2471SOL    HW2 7425   3.584   4.641   1.418
 2472SOL     OW 7426   3.686   3.916   1.227
 2472SOL    HW1 7427   3.682   3.826   1.271
 2472SOL    HW2 7428   3.689   3.905   1.128
 2473SOL     OW 7429   2.290   4.148   0.520
 2473SOL    HW1 7430   2.320   4.076   0.458
 2473SOL    HW2 7431   2.251   4.108   0.603
 2474SOL     OW 7432   2.179   4.271   1.280
 2474SOL    HW1 7433   2.217   4.212   1.352
 2474SOL    HW2 7434   2.219   4.245   1.192
 2475SOL     OW 7435   3.286   3.938   1.112
 2475SOL    HW1 7436   3.338   3.873   1.167
 2475SOL    HW2 7437   3.237   4.001   1.173
 2476SOL     OW 7438   2.863   3.758   1.154
 2476SOL    HW1 7439   2.800   3.686   1.123
 2476SOL    HW2 7440   2.956   3.722   1.154
 2477SOL     OW 7441   3.214   3.776   0.168
 2477SOL    HW1 7442   3.249   3.735   0.084
 2477SOL    HW2 7443   3.124   3.738   0.188
 2478SOL     OW 7444   3.162   4.177   0.691
 2478SOL    HW1 7445   3.103   4.257   0.695
 2478SOL    HW2 7446   3.177   4.142   0.784
 2479SOL     OW 7447   3.455   3.945   0.882
 2479SOL    HW1 7448   3.371   3.944   0.936
 2479SOL    HW2 7449   3.457   4.028   0.826
 2480SOL     OW 7450   2.092   4.352   1.975
 2480SOL    HW1 7451   1.999   4.350   2.012
 2480SOL    HW2 7452   2.093   4.313   1.883
 2481SOL     OW 7453   2.087   3.999   2.858
 2481SOL    HW1 7454   2.122   3.982   2.950
 2481SOL    HW2 7455   1.999   3.954   2.846
 2482SOL     OW 7456   1.881   4.092   2.509
 2482SOL    HW1 7457   1.799   4.135   2.548
 2482SOL    HW2 7458   1.853   4.019   2.446
 2483SOL     OW 7459   2.997   4.427   2.579
 2483SOL    HW1 7460   3.054   4.505   2.554
 2483SOL    HW2 7461   2.937   4.453   2.655
 2484SOL     OW 7462   3.617   4.331   2.093
 2484SOL    HW1 7463   3.605   4.318   1.994
 2484SOL    HW2 7464   3.587   4.250   2.142
 2485SOL     OW 7465   2.712   4.522   3.685
 2485SOL    HW1 7466   2.708   4.598   3.750
 2485SOL    HW2 7467   2.734   4.558   3.594
 2486SOL     OW 7468   2.547   4.736   2.527
 2486SOL    HW1 7469   2.616   4.720   2.597
 2486SOL    HW2 7470   2.474   4.793   2.565
 2487SOL     OW 7471   2.300   4.116   3.361
 2487SOL    HW1 7472   2.382   4.060   3.370
 2487SOL    HW2 7473   2.219   4.058   3.365
 2488SOL     OW 7474   3.465   4.171   2.599
 2488SOL    HW1 7475   3.391   4.217   2.549
 2488SOL    HW2 7476   3.516   4.239   2.652
 2489SOL     OW 7477   3.456   3.838   3.342
 2489SOL    HW1 7478   3.438   3.905   3.270
 2489SOL    HW2 7479   3.453   3.884   3.431
 2490SOL     OW 7480   1.984   4.367   2.425
 2490SOL    HW1 7481   1.939   4.279   2.442
 2490SOL    HW2 7482   1.983   4.421   2.509
 2491SOL     OW 7483   1.975   4.461   3.459
 2491SOL    HW1 7484   2.063   4.448   3.504
 2491SOL    HW2 7485   1.962   4.558   3.437
 2492SOL     OW 7486   2.671   3.728   2.364
 2492SOL    HW1 7487   2.711   3.819   2.355
 2492SOL    HW2 7488   2.571   3.736   2.370
 2493SOL     OW 7489   2.179   3.975   3.663
 2493SOL    HW1 7490   2.250   4.046   3.669
 2493SOL    HW2 7491   2.091   4.014   3.691
 2494SOL     OW 7492   2.460   4.453   2.132
 2494SOL    HW1 7493   2.484   4.522   2.064
 2494SOL    HW2 7494   2.382   4.486   2.186
 2495SOL     OW 7495   3.143   4.069   2.806
 2495SOL    HW1 7496   3.057   4.019   2.793
 2495SOL    HW2 7497   3.205   4.015   2.862
 2496SOL     OW 7498   2.669   4.329   3.327
 2496SOL    HW1 7499   2.622   4.326   3.416
 2496SOL    HW2 7500   2.618   4.274   3.261
 2497SOL     OW 7501   3.256   4.193   3.536
 2497SOL    HW1 7502   3.236   4.236   3.624
 2497SOL    HW2 7503   3.334   4.131   3.545
 2498SOL     OW 7504   2.835   4.614   3.434
 2498SOL    HW1 7505   2.881   4.530   3.405
 2498SOL    HW2 7506   2.779   4.648   3.359
 2499SOL     OW 7507   2.853   4.134   3.104
 2499SOL    HW1 7508   2.776   4.168   3.158
 2499SOL    HW2 7509   2.819   4.083   3.025
 2500SOL     OW 7510   2.903   4.425   2.291
 2500SOL    HW1 7511   2.929   4.421   2.387
 2500SOL    HW2 7512   2.818   4.374   2.277
 2501SOL     OW 7513   1.938   4.535   2.651
 2501SOL    HW1 7514   2.037   4.523   2.660
 2501SOL    HW2 7515   1.914   4.630   2.672
 2502SOL     OW 7516   2.727   4.072   2.057
 2502SOL    HW1 7517   2.786   4.135   2.008
 2502SOL    HW2 7518   2.746   3.978   2.028
 2503SOL     OW 7519   3.581   4.309   3.693
 2503SOL    HW1 7520   3.555   4.398   3.657
 2503SOL    HW2 7521   3.579   4.241   3.620
 2504SOL     OW 7522   2.412   3.920   2.747
 2504SOL    HW1 7523   2.407   3.915   2.847
 2504SOL    HW2 7524   2.414   4.016   2.718
 2505SOL     OW 7525   3.320   4.459   2.590
 2505SOL    HW1 7526   3.315   4.394   2.665
 2505SOL    HW2 7527   3.400   4.518   2.603
 2506SOL     OW 7528   2.064   4.009   3.360
 2506SOL    HW1 7529   1.984   4.069   3.347
 2506SOL    HW2 7530   2.054   3.960   3.446
 2507SOL     OW 7531   3.262   3.831   2.288
 2507SOL    HW1 7532   3.238   3.794   2.198
 2507SOL    HW2 7533   3.361   3.847   2.292
 2508SOL     OW 7534   2.244   4.424   2.342
 2508SOL    HW1 7535   2.289   4.334   2.339
 2508SOL    HW2 7536   2.150   4.413   2.375
 2509SOL     OW 7537   3.409   3.946   3.591
 2509SOL    HW1 7538   3.404   3.983   3.683
 2509SOL    HW2 7539   3.337   3.877   3.579
 2510SOL     OW 7540   2.476   3.846   1.979
 2510SOL    HW1 7541   2.574   3.824   1.986
 2510SOL    HW2 7542   2.445   3.829   1.886
 2511SOL     OW 7543   2.643   3.988   3.611
 2511SOL    HW1 7544   2.710   3.927   3.654
 2511SOL    HW2 7545   2.570   4.007   3.676
 2512SOL     OW 7546   3.213   4.314   3.295
 2512SOL    HW1 7547   3.241   4.271   3.380
 2512SOL    HW2 7548   3.238   4.410   3.296
 2513SOL     OW 7549   2.784   4.227   2.761
 2513SOL    HW1 7550   2.759   4.218   2.665
 2513SOL    HW2 7551   2.832   4.145   2.792
 2514SOL     OW 7552   2.401   3.788   2.374
 2514SOL    HW1 7553   2.320   3.789   2.432
 2514SOL    HW2 7554   2.404   3.871   2.319
 2515SOL     OW 7555   2.159   3.759   2.033
 2515SOL    HW1 7556   2.208   3.843   2.012
 2515SOL    HW2 7557   2.221   3.694   2.078
 2516SOL     OW 7558   2.797   3.960   2.342
 2516SOL    HW1 7559   2.749   4.001   2.264
 2516SOL    HW2 7560   2.896   3.958   2.323
 2517SOL     OW 7561   2.938   4.407   3.326
 2517SOL    HW1 7562   2.858   4.346   3.329
 2517SOL    HW2 7563   3.019   4.354   3.302
 2518SOL     OW 7564   2.894   4.273   1.878
 2518SOL    HW1 7565   2.853   4.355   1.839
 2518SOL    HW2 7566   2.958   4.299   1.951
 2519SOL     OW 7567   1.940   4.280   3.248
 2519SOL    HW1 7568   2.032   4.279   3.207
 2519SOL    HW2 7569   1.934   4.354   3.315
 2520SOL     OW 7570   2.423   3.946   3.009
 2520SOL    HW1 7571   2.461   3.862   3.046
 2520SOL    HW2 7572   2.335   3.965   3.053
 2521SOL     OW 7573   2.728   4.178   2.504
 2521SOL    HW1 7574   2.696   4.250   2.442
 2521SOL    HW2 7575   2.752   4.097   2.451
 2522SOL     OW 7576   2.879   3.763   2.615
 2522SOL    HW1 7577   2.807   3.768   2.546
 2522SOL    HW2 7578   2.855   3.694   2.684
 2523SOL     OW 7579   3.328   4.314   2.854
 2523SOL    HW1 7580   3.298   4.219   2.861
 2523SOL    HW2 7581   3.401   4.330   2.920
 2524SOL     OW 7582   3.719   4.557   2.239
 2524SOL    HW1 7583   3.761   4.493   2.303
 2524SOL    HW2 7584   3.681   4.506   2.161
 2525SOL     OW 7585   3.252   4.299   1.940
 2525SOL    HW1 7586   3.198   4.278   2.021
 2525SOL    HW2 7587   3.343   4.258   1.949
 2526SOL     OW 7588   2.389   3.980   2.190
 2526SOL    HW1 7589   2.416   3.921   2.115
 2526SOL    HW2 7590   2.389   4.075   2.159
 2527SOL     OW 7591   2.777   3.813   3.264
 2527SOL    HW1 7592   2.802   3.793   3.169
 2527SOL    HW2 7593   2.849   3.869   3.306
 2528SOL     OW 7594   2.272   4.537   3.113
 2528SOL    HW1 7595   2.358   4.549   3.163
 2528SOL    HW2 7596   2.230   4.450   3.140
 2529SOL     OW 7597   3.136   4.110   3.124
 2529SOL    HW1 7598   3.157   4.184   3.188
 2529SOL    HW2 7599   3.047   4.127   3.081
 2530SOL     OW 7600   2.428   4.261   2.727
 2530SOL    HW1 7601   2.440   4.327   2.653
 2530SOL    HW2 7602   2.474   4.295   2.810
 2531SOL     OW 7603   3.444   4.363   2.334
 2531SOL    HW1 7604   3.413   4.424   2.407
 2531SOL    HW2 7605   3.494   4.415   2.265
 2532SOL     OW 7606   2.264   4.475   3.460
 2532SOL    HW1 7607   2.332   4.530   3.413
 2532SOL    HW2 7608   2.304   4.387   3.487
 2533SOL     OW 7609   3.449   4.503   3.532
 2533SOL    HW1 7610   3.357   4.541   3.527
 2533SOL    HW2 7611   3.509   4.550   3.467
 2534SOL     OW 7612   2.875   3.829   3.632
 2534SOL    HW1 7613   2.881   3.914   3.580
 2534SOL    HW2 7614   2.907   3.753   3.575
 2535SOL     OW 7615   2.366   3.774   3.602
 2535SOL    HW1 7616   2.324   3.717   3.532
 2535SOL    HW2 7617   2.300   3.843   3.634
 2536SOL     OW 7618   2.435   4.594   2.891
 2536SOL    HW1 7619   2.479   4.683   2.882
 2536SOL    HW2 7620   2.372   4.594   2.968
 2537SOL     OW 7621   3.222   4.586   2.907
 2537SOL    HW1 7622   3.147   4.586   2.841
 2537SOL    HW2 7623   3.259   4.494   2.916
 2538SOL     OW 7624   3.071   4.249   2.137
 2538SOL    HW1 7625   3.084   4.165   2.191
 2538SOL    HW2 7626   3.042   4.323   2.197
 2539SOL     OW 7627   2.169   3.937   3.093
 2539SOL    HW1 7628   2.146   3.974   3.183
 2539SOL    HW2 7629   2.139   3.842   3.087
 2540SOL     OW 7630   2.594   4.358   2.926
 2540SOL    HW1 7631   2.653   4.332   2.850
 2540SOL    HW2 7632   2.566   4.454   2.915
 2541SOL     OW 7633   3.590   4.659   3.716
 2541SOL    HW1 7634   3.544   4.652   3.627
 2541SOL    HW2 7635   3.528   4.703   3.782
 2542SOL     OW 7636   2.169   3.787   2.480
 2542SOL    HW1 7637   2.158   3.881   2.513
 2542SOL    HW2 7638   2.164   3.724   2.557
 2543SOL     OW 7639   3.484   4.091   2.236
 2543SOL    HW1 7640   3.486   4.015   2.300
 2543SOL    HW2 7641   3.436   4.168   2.276
 2544SOL     OW 7642   2.885   4.490   2.828
 2544SOL    HW1 7643   2.900   4.511   2.924
 2544SOL    HW2 7644   2.855   4.395   2.819
 2545SOL     OW 7645   3.402   3.998   1.987
 2545SOL    HW1 7646   3.341   3.923   2.010
 2545SOL    HW2 7647   3.424   4.050   2.070
 2546SOL     OW 7648   3.165   4.562   1.904
 2546SOL    HW1 7649   3.199   4.469   1.919
 2546SOL    HW2 7650   3.183   4.589   1.809
 2547SOL     OW 7651   2.181   4.534   2.811
 2547SOL    HW1 7652   2.274   4.570   2.816
 2547SOL    HW2 7653   2.175   4.449   2.863
 2548SOL     OW 7654   2.201   4.233   2.868
 2548SOL    HW1 7655   2.149   4.150   2.851
 2548SOL    HW2 7656   2.278   4.238   2.804
 2549SOL     OW 7657   3.000   4.104   3.540
 2549SOL    HW1 7658   2.955   4.167   3.604
 2549SOL    HW2 7659   3.093   4.135   3.523
 2550SOL     OW 7660   3.022   3.931   3.339
 2550SOL    HW1 7661   3.022   3.995   3.416
 2550SOL    HW2 7662   3.050   3.979   3.256
 2551SOL     OW 7663   2.864   4.520   3.100
 2551SOL    HW1 7664   2.905   4.488   3.186
 2551SOL    HW2 7665   2.768   4.493   3.097
 2552SOL     OW 7666   1.902   4.268   2.976
 2552SOL    HW1 7667   1.987   4.235   2.935
 2552SOL    HW2 7668   1.915   4.283   3.074
 2553SOL     OW 7669   2.051   4.244   3.584
 2553SOL    HW1 7670   2.110   4.204   3.514
 2553SOL    HW2 7671   1.993   4.315   3.543
 2554SOL     OW 7672   2.677   4.296   2.187
 2554SOL    HW1 7673   2.684   4.207   2.141
 2554SOL    HW2 7674   2.583   4.330   2.179
 2555SOL     OW 7675   3.519   4.328   3.068
 2555SOL    HW1 7676   3.481   4.259   3.130
 2555SOL    HW2 7677   3.601   4.292   3.024
 2556SOL     OW 7678   2.533   4.188   3.131
 2556SOL    HW1 7679   2.499   4.099   3.101
 2556SOL    HW2 7680   2.559   4.242   3.051
 2557SOL     OW 7681   2.335   4.224   2.053
 2557SOL    HW1 7682   2.396   4.304   2.057
 2557SOL    HW2 7683   2.240   4.255   2.060
 2558SOL     OW 7684   3.164   4.579   2.171
 2558SOL    HW1 7685   3.078   4.548   2.213
 2558SOL    HW2 7686   3.160   4.565   2.072
 2559SOL     OW 7687   3.588   3.859   2.385
 2559SOL    HW1 7688   3.661   3.842   2.318
 2559SOL    HW2 7689   3.557   3.772   2.423
 2560SOL     OW 7690   3.142   4.651   2.534
 2560SOL    HW1 7691   3.202   4.570   2.536
 2560SOL    HW2 7692   3.182   4.720   2.474
 2561SOL     OW 7693   3.703   3.899   2.825
 2561SOL    HW1 7694   3.742   3.814   2.789
 2561SOL    HW2 7695   3.605   3.901   2.806
 2562SOL     OW 7696   2.125   4.050   2.582
 2562SOL    HW1 7697   2.046   4.101   2.548
 2562SOL    HW2 7698   2.116   4.035   2.680
 2563SOL     OW 7699   2.778   4.634   2.153
 2563SOL    HW1 7700   2.841   4.672   2.085
 2563SOL    HW2 7701   2.818   4.551   2.192
 2564SOL     OW 7702   2.876   3.960   2.833
 2564SOL    HW1 7703   2.868   3.924   2.740
 2564SOL    HW2 7704   2.874   3.884   2.898
 2565SOL     OW 7705   3.571   4.109   3.243
 2565SOL    HW1 7706   3.644   4.178   3.247
 2565SOL    HW2 7707   3.599   4.034   3.184
 2566SOL     OW 7708   1.967   4.737   3.588
 2566SOL    HW1 7709   1.890   4.704   3.642
 2566SOL    HW2 7710   2.052   4.707   3.630
 2567SOL     OW 7711   2.534   3.927   3.351
 2567SOL    HW1 7712   2.624   3.911   3.311
 2567SOL    HW2 7713   2.542   3.932   3.450
 2568SOL     OW 7714   1.937   4.069   1.895
 2568SOL    HW1 7715   1.845   4.041   1.866
 2568SOL    HW2 7716   1.968   4.146   1.839
 2569SOL     OW 7717   3.302   4.580   3.260
 2569SOL    HW1 7718   3.245   4.632   3.197
 2569SOL    HW2 7719   3.398   4.592   3.236
 2570SOL     OW 7720   1.934   3.890   2.180
 2570SOL    HW1 7721   1.917   3.973   2.126
 2570SOL    HW2 7722   2.024   3.853   2.158
 2571SOL     OW 7723   2.475   4.566   3.293
 2571SOL    HW1 7724   2.531   4.647   3.276
 2571SOL    HW2 7725   2.534   4.486   3.296
 2572SOL     OW 7726   2.578   4.289   3.570
 2572SOL    HW1 7727   2.597   4.354   3.644
 2572SOL    HW2 7728   2.638   4.209   3.579
 2573SOL     OW 7729   3.536   4.607   3.116
 2573SOL    HW1 7730   3.509   4.518   3.079
 2573SOL    HW2 7731   3.537   4.675   3.043
 2574SOL     OW 7732   3.087   4.049   2.311
 2574SOL    HW1 7733   3.152   3.975   2.300
 2574SOL    HW2 7734   3.107   4.099   2.395
 2575SOL     OW 7735   2.456   4.469   2.514
 2575SOL    HW1 7736   2.506   4.554   2.495
 2575SOL    HW2 7737   2.368   4.471   2.466
 2576SOL     OW 7738   3.639   4.066   3.504
 2576SOL    HW1 7739   3.622   4.097   3.410
 2576SOL    HW2 7740   3.555   4.029   3.542
 2577SOL     OW 7741   3.592   4.658   3.379
 2577SOL    HW1 7742   3.630   4.749   3.394
 2577SOL    HW2 7743   3.584   4.641   3.280
 2578SOL     OW 7744   3.686   3.916   3.089
 2578SOL    HW1 7745   3.682   3.826   3.133
 2578SOL    HW2 7746   3.689   3.905   2.990
 2579SOL     OW 7747   2.290   4.148   2.382
 2579SOL    HW1 7748   2.320   4.076   2.320
 2579SOL    HW2 7749   2.251   4.108   2.465
 2580SOL     OW 7750   2.179   4.271   3.142
 2580SOL    HW1 7751   2.217   4.212   3.214
 2580SOL    HW2 7752   2.219   4.245   3.054
 2581SOL     OW 7753   3.286   3.938   2.974
 2581SOL    HW1 7754   3.338   3.873   3.029
 2581SOL    HW2 7755   3.237   4.001   3.035
 2582SOL     OW 7756   2.863   3.758   3.016
 2582SOL    HW1 7757   2.800   3.686   2.985
 2582SOL    HW2 7758   2.956   3.722   3.016
 2583SOL     OW 7759   3.214   3.776   2.030
 2583SOL    HW1 7760   3.249   3.735   1.946
 2583SOL    HW2 7761   3.124   3.738   2.050
 2584SOL     OW 7762   3.162   4.177   2.553
 2584SOL    HW1 7763   3.103   4.257   2.557
 2584SOL    HW2 7764   3.177   4.142   2.646
 2585SOL     OW 7765   3.455   3.945   2.744
 2585SOL    HW1 7766   3.371   3.944   2.798
 2585SOL    HW2 7767   3.457   4.028   2.688
 2586SOL     OW 7768   2.092   4.352   3.837
 2586SOL    HW1 7769   1.999   4.350   3.874
 2586SOL    HW2 7770   2.093   4.313   3.745
 2587SOL     OW 7771   2.087   3.999   4.720
 2587SOL    HW1 7772   2.122   3.982   4.812
 2587SOL    HW2 7773   1.999   3.954   4.708
 2588SOL     OW 7774   1.881   4.092   4.371
 2588SOL    HW1 7775   1.799   4.135   4.410
 2588SOL    HW2 7776   1.853   4.019   4.308
 2589SOL     OW 7777   2.997   4.427   4.441
 2589SOL    HW1 7778   3.054   4.505   4.416
 2589SOL    HW2 7779   2.937   4.453   4.517
 2590SOL     OW 7780   3.617   4.331   3.955
 2590SOL    HW1 7781   3.605   4.318   3.856
 2590SOL    HW2 7782   3.587   4.250   4.004
 2591SOL     OW 7783   2.547   4.736   4.389
 2591SOL    HW1 7784   2.616   4.720   4.459
 2591SOL    HW2 7785   2.474   4.793   4.427
 2592SOL     OW 7786   3.465   4.171   4.461
 2592SOL    HW1 7787   3.391   4.217   4.411
 2592SOL    HW2 7788   3.516   4.239   4.514
 2593SOL     OW 7789   1.984   4.367   4.287
 2593SOL    HW1 7790   1.939   4.279   4.304
 2593SOL    HW2 7791   1.983   4.421   4.371
 2594SOL     OW 7792   2.671   3.728   4.226
 2594SOL    HW1 7793   2.711   3.819   4.217
 2594SOL    HW2 7794   2.571   3.736   4.232
 2595SOL     OW 7795   2.460   4.453   3.994
 2595SOL    HW1 7796   2.484   4.522   3.926
 2595SOL    HW2 7797   2.382   4.486   4.048
 2596SOL     OW 7798   3.143   4.069   4.668
 2596SOL    HW1 7799   3.057   4.019   4.655
 2596SOL    HW2 7800   3.205   4.015   4.724
 2597SOL     OW 7801   2.903   4.425   4.153
 2597SOL    HW1 7802   2.929   4.421   4.249
 2597SOL    HW2 7803   2.818   4.374   4.139
 2598SOL     OW 7804   1.938   4.535   4.513
 2598SOL    HW1 7805   2.037   4.523   4.522
 2598SOL    HW2 7806   1.914   4.630   4.534
 2599SOL     OW 7807   2.727   4.072   3.919
 2599SOL    HW1 7808   2.786   4.135   3.870
 2599SOL    HW2 7809   2.746   3.978   3.890
 2600SOL     OW 7810   2.412   3.920   4.609
 2600SOL    HW1 7811   2.407   3.915   4.709
 2600SOL    HW2 7812   2.414   4.016   4.580
 2601SOL     OW 7813   3.320   4.459   4.452
 2601SOL    HW1 7814   3.315   4.394   4.527
 2601SOL    HW2 7815   3.400   4.518   4.465
 2602SOL     OW 7816   3.262   3.831   4.150
 2602SOL    HW1 7817   3.238   3.794   4.060
 2602SOL    HW2 7818   3.361   3.847   4.154
 2603SOL     OW 7819   2.244   4.424   4.204
 2603SOL    HW1 7820   2.289   4.334   4.201
 2603SOL    HW2 7821   2.150   4.413   4.237
 2604SOL     OW 7822   2.476   3.846   3.841
 2604SOL    HW1 7823   2.574   3.824   3.848
 2604SOL    HW2 7824   2.445   3.829   3.748
 2605SOL     OW 7825   2.401   3.788   4.236
 2605SOL    HW1 7826   2.320   3.789   4.294
 2605SOL    HW2 7827   2.404   3.871   4.181
 2606SOL     OW 7828   2.159   3.759   3.895
 2606SOL    HW1 7829   2.208   3.843   3.874
 2606SOL    HW2 7830   2.221   3.694   3.940
 2607SOL     OW 7831   2.797   3.960   4.204
 2607SOL    HW1 7832   2.749   4.001   4.126
 2607SOL    HW2 7833   2.896   3.958   4.185
 2608SOL     OW 7834   2.894   4.273   3.740
 2608SOL    HW1 7835   2.853   4.355   3.701
 2608SOL    HW2 7836   2.958   4.299   3.813
 2609SOL     OW 7837   2.728   4.178   4.366
 2609SOL    HW1 7838   2.696   4.250   4.304
 2609SOL    HW2 7839   2.752   4.097   4.313
 2610SOL     OW 7840   2.879   3.763   4.477
 2610SOL    HW1 7841   2.807   3.768   4.408
 2610SOL    HW2 7842   2.855   3.694   4.546
 2611SOL     OW 7843   3.719   4.557   4.101
 2611SOL    HW1 7844   3.761   4.493   4.165
 2611SOL    HW2 7845   3.681   4.506   4.023
 2612SOL     OW 7846   3.252   4.299   3.802
 2612SOL    HW1 7847   3.198   4.278   3.883
 2612SOL    HW2 7848   3.343   4.258   3.811
 2613SOL     OW 7849   2.389   3.980   4.052
 2613SOL    HW1 7850   2.416   3.921   3.977
 2613SOL    HW2 7851   2.389   4.075   4.021
 2614SOL     OW 7852   2.973   4.919   4.824
 2614SOL    HW1 7853   2.933   4.963   4.905
 2614SOL    HW2 7854   2.932   4.956   4.741
 2615SOL     OW 7855   2.428   4.261   4.589
 2615SOL    HW1 7856   2.440   4.327   4.515
 2615SOL    HW2 7857   2.474   4.295   4.672
 2616SOL     OW 7858   3.444   4.363   4.196
 2616SOL    HW1 7859   3.413   4.424   4.269
 2616SOL    HW2 7860   3.494   4.415   4.127
 2617SOL     OW 7861   3.071   4.249   3.999
 2617SOL    HW1 7862   3.084   4.165   4.053
 2617SOL    HW2 7863   3.042   4.323   4.059
 2618SOL     OW 7864   2.594   4.358   4.788
 2618SOL    HW1 7865   2.653   4.332   4.712
 2618SOL    HW2 7866   2.566   4.454   4.777
 2619SOL     OW 7867   2.169   3.787   4.342
 2619SOL    HW1 7868   2.158   3.881   4.375
 2619SOL    HW2 7869   2.164   3.724   4.419
 2620SOL     OW 7870   3.484   4.091   4.098
 2620SOL    HW1 7871   3.486   4.015   4.162
 2620SOL    HW2 7872   3.436   4.168   4.138
 2621SOL     OW 7873   3.402   3.998   3.849
 2621SOL    HW1 7874   3.341   3.923   3.872
 2621SOL    HW2 7875   3.424   4.050   3.932
 2622SOL     OW 7876   3.165   4.562   3.766
 2622SOL    HW1 7877   3.199   4.469   3.781
 2622SOL    HW2 7878   3.183   4.589   3.671
 2623SOL     OW 7879   2.677   4.296   4.049
 2623SOL    HW1 7880   2.684   4.207   4.003
 2623SOL    HW2 7881   2.583   4.330   4.041
 2624SOL     OW 7882   2.335   4.224   3.915
 2624SOL    HW1 7883   2.396   4.304   3.919
 2624SOL    HW2 7884   2.240   4.255   3.922
 2625SOL     OW 7885   3.164   4.579   4.033
 2625SOL    HW1 7886   3.078   4.548   4.075
 2625SOL    HW2 7887   3.160   4.565   3.934
 2626SOL     OW 7888   3.588   3.859   4.247
 2626SOL    HW1 7889   3.661   3.842   4.180
 2626SOL    HW2 7890   3.557   3.772   4.285
 2627SOL     OW 7891   3.142   4.651   4.396
 2627SOL    HW1 7892   3.202   4.570   4.398
 2627SOL    HW2 7893   3.182   4.720   4.336
 2628SOL     OW 7894   3.703   3.899   4.687
 2628SOL    HW1 7895   3.742   3.814   4.651
 2628SOL    HW2 7896   3.605   3.901   4.668
 2629SOL     OW 7897   2.125   4.050   4.444
 2629SOL    HW1 7898   2.046   4.101   4.410
 2629SOL    HW2 7899   2.116   4.035   4.542
 2630SOL     OW 7900   2.778   4.634   4.015
 2630SOL    HW1 7901   2.841   4.672   3.947
 2630SOL    HW2 7902   2.818   4.551   4.054
 2631SOL     OW 7903   1.937   4.069   3.757
 2631SOL    HW1 7904   1.845   4.041   3.728
 2631SOL    HW2 7905   1.968   4.146   3.701
 2632SOL     OW 7906   1.934   3.890   4.042
 2632SOL    HW1 7907   1.917   3.973   3.988
 2632SOL    HW2 7908   2.024   3.853   4.020
 2633SOL     OW 7909   3.536   4.607   4.978
 2633SOL    HW1 7910   3.509   4.518   4.941
 2633SOL    HW2 7911   3.537   4.675   4.905
 2634SOL     OW 7912   3.087   4.049   4.173
 2634SOL    HW1 7913   3.152   3.975   4.162
 2634SOL    HW2 7914   3.107   4.099   4.257
 2635SOL     OW 7915   2.456   4.469   4.376
 2635SOL    HW1 7916   2.506   4.554   4.357
 2635SOL    HW2 7917   2.368   4.471   4.328
 2636SOL     OW 7918   2.290   4.148   4.244
 2636SOL    HW1 7919   2.320   4.076   4.182
 2636SOL    HW2 7920   2.251   4.108   4.327
 2637SOL     OW 7921   3.214   3.776   3.892
 2637SOL    HW1 7922   3.249   3.735   3.808
 2637SOL    HW2 7923   3.124   3.738   3.912
 2638SOL     OW 7924   3.162   4.177   4.415
 2638SOL    HW1 7925   3.103   4.257   4.419
 2638SOL    HW2 7926   3.177   4.142   4.508
 2639SOL     OW 7927   3.455   3.945   4.606
 2639SOL    HW1 7928   3.371   3.944   4.660
 2639SOL    HW2 7929   3.457   4.028   4.550
 2640SOL     OW 7930   3.954   0.628   0.113
 2640SOL    HW1 7931   3.861   0.626   0.150
 2640SOL    HW2 7932   3.955   0.589   0.021
 2641SOL     OW 7933   3.949   0.275   0.996
 2641SOL    HW1 7934   3.984   0.258   1.088
 2641SOL    HW2 7935   3.861   0.230   0.984
 2642SOL     OW 7936   3.743   0.368   0.647
 2642SOL    HW1 7937   3.661   0.411   0.686
 2642SOL    HW2 7938   3.715   0.295   0.584
 2643SOL     OW 7939   4.293   1.275   1.165
 2643SOL    HW1 7940   4.200   1.268   1.128
 2643SOL    HW2 7941   4.304   1.364   1.209
 2644SOL     OW 7942   4.492   1.144   1.023
 2644SOL    HW1 7943   4.414   1.161   1.083
 2644SOL    HW2 7944   4.526   1.231   0.987
 2645SOL     OW 7945   4.574   0.798   1.823
 2645SOL    HW1 7946   4.570   0.874   1.888
 2645SOL    HW2 7947   4.596   0.834   1.732
 2646SOL     OW 7948   4.409   1.012   0.665
 2646SOL    HW1 7949   4.478   0.996   0.735
 2646SOL    HW2 7950   4.336   1.069   0.703
 2647SOL     OW 7951   4.410   1.161   1.803
 2647SOL    HW1 7952   4.470   1.240   1.817
 2647SOL    HW2 7953   4.324   1.192   1.762
 2648SOL     OW 7954   4.059   1.435   1.061
 2648SOL    HW1 7955   3.981   1.404   1.008
 2648SOL    HW2 7956   4.117   1.493   1.004
 2649SOL     OW 7957   4.162   0.392   1.499
 2649SOL    HW1 7958   4.244   0.336   1.508
 2649SOL    HW2 7959   4.081   0.334   1.503
 2650SOL     OW 7960   3.955   1.713   0.483
 2650SOL    HW1 7961   3.989   1.790   0.537
 2650SOL    HW2 7962   3.999   1.713   0.393
 2651SOL     OW 7963   3.954   1.434   0.538
 2651SOL    HW1 7964   3.928   1.530   0.538
 2651SOL    HW2 7965   3.883   1.380   0.583
 2652SOL     OW 7966   3.964   1.091   0.886
 2652SOL    HW1 7967   3.978   1.007   0.938
 2652SOL    HW2 7968   3.909   1.155   0.941
 2653SOL     OW 7969   4.344   1.786   1.439
 2653SOL    HW1 7970   4.252   1.769   1.474
 2653SOL    HW2 7971   4.372   1.878   1.465
 2654SOL     OW 7972   4.330   0.964   0.123
 2654SOL    HW1 7973   4.337   1.048   0.069
 2654SOL    HW2 7974   4.376   0.977   0.211
 2655SOL     OW 7975   3.846   0.643   0.563
 2655SOL    HW1 7976   3.801   0.555   0.580
 2655SOL    HW2 7977   3.845   0.697   0.647
 2656SOL     OW 7978   3.837   0.737   1.597
 2656SOL    HW1 7979   3.925   0.724   1.642
 2656SOL    HW2 7980   3.824   0.834   1.575
 2657SOL     OW 7981   4.337   1.365   0.726
 2657SOL    HW1 7982   4.288   1.278   0.735
 2657SOL    HW2 7983   4.314   1.408   0.639
 2658SOL     OW 7984   4.533   0.004   0.502
 2658SOL    HW1 7985   4.573   0.095   0.493
 2658SOL    HW2 7986   4.433   0.012   0.508
 2659SOL     OW 7987   3.921   0.976   1.264
 2659SOL    HW1 7988   4.010   0.931   1.250
 2659SOL    HW2 7989   3.848   0.911   1.245
 2660SOL     OW 7990   4.041   0.251   1.801
 2660SOL    HW1 7991   4.112   0.322   1.807
 2660SOL    HW2 7992   3.953   0.290   1.829
 2661SOL     OW 7993   4.322   0.729   0.270
 2661SOL    HW1 7994   4.346   0.798   0.202
 2661SOL    HW2 7995   4.244   0.762   0.324
 2662SOL     OW 7996   4.531   0.605   1.465
 2662SOL    HW1 7997   4.484   0.602   1.554
 2662SOL    HW2 7998   4.480   0.550   1.399
 2663SOL     OW 7999   3.800   0.811   0.789
 2663SOL    HW1 8000   3.899   0.799   0.798
 2663SOL    HW2 8001   3.776   0.906   0.810
 2664SOL     OW 8002   3.854   1.821   1.571
 2664SOL    HW1 8003   3.844   1.806   1.670
 2664SOL    HW2 8004   3.768   1.857   1.535
 2665SOL     OW 8005   4.589   0.348   0.195
 2665SOL    HW1 8006   4.648   0.411   0.146
 2665SOL    HW2 8007   4.608   0.254   0.166
 2666SOL     OW 8008   4.274   0.196   0.885
 2666SOL    HW1 8009   4.269   0.191   0.985
 2666SOL    HW2 8010   4.276   0.292   0.856
 2667SOL     OW 8011   4.732   1.456   0.477
 2667SOL    HW1 8012   4.686   1.528   0.425
 2667SOL    HW2 8013   4.728   1.476   0.575
 2668SOL     OW 8014   4.075   1.801   0.853
 2668SOL    HW1 8015   4.125   1.715   0.859
 2668SOL    HW2 8016   4.140   1.878   0.850
 2669SOL     OW 8017   4.045   0.943   0.242
 2669SOL    HW1 8018   4.127   0.982   0.200
 2669SOL    HW2 8019   4.018   0.861   0.193
 2670SOL     OW 8020   4.185   1.266   1.727
 2670SOL    HW1 8021   4.135   1.267   1.641
 2670SOL    HW2 8022   4.122   1.248   1.803
 2671SOL     OW 8023   4.835   1.776   0.237
 2671SOL    HW1 8024   4.775   1.714   0.287
 2671SOL    HW2 8025   4.866   1.732   0.152
 2672SOL     OW 8026   3.926   0.285   1.498
 2672SOL    HW1 8027   3.846   0.345   1.485
 2672SOL    HW2 8028   3.916   0.236   1.584
 2673SOL     OW 8029   4.188   1.743   0.323
 2673SOL    HW1 8030   4.221   1.782   0.409
 2673SOL    HW2 8031   4.264   1.736   0.258
 2674SOL     OW 8032   3.973   1.785   1.241
 2674SOL    HW1 8033   4.030   1.720   1.291
 2674SOL    HW2 8034   3.957   1.752   1.148
 2675SOL     OW 8035   4.106   0.700   0.480
 2675SOL    HW1 8036   4.151   0.610   0.477
 2675SOL    HW2 8037   4.012   0.689   0.513
 2676SOL     OW 8038   4.338   0.122   0.117
 2676SOL    HW1 8039   4.436   0.100   0.124
 2676SOL    HW2 8040   4.307   0.105   0.024
 2677SOL     OW 8041   4.505   0.264   1.749
 2677SOL    HW1 8042   4.572   0.203   1.792
 2677SOL    HW2 8043   4.432   0.283   1.814
 2678SOL     OW 8044   4.527   1.402   0.924
 2678SOL    HW1 8045   4.617   1.416   0.882
 2678SOL    HW2 8046   4.456   1.404   0.853
 2679SOL     OW 8047   4.646   0.503   0.899
 2679SOL    HW1 8048   4.621   0.494   0.803
 2679SOL    HW2 8049   4.694   0.421   0.930
 2680SOL     OW 8050   4.263   0.064   0.512
 2680SOL    HW1 8051   4.182   0.065   0.570
 2680SOL    HW2 8052   4.266   0.147   0.457
 2681SOL     OW 8053   4.021   0.035   0.171
 2681SOL    HW1 8054   4.070   0.119   0.150
 2681SOL    HW2 8055   4.083  -0.030   0.216
 2682SOL     OW 8056   4.183   1.152   0.741
 2682SOL    HW1 8057   4.112   1.125   0.806
 2682SOL    HW2 8058   4.157   1.124   0.648
 2683SOL     OW 8059   3.802   0.556   1.386
 2683SOL    HW1 8060   3.894   0.555   1.345
 2683SOL    HW2 8061   3.796   0.630   1.453
 2684SOL     OW 8062   4.285   0.222   1.147
 2684SOL    HW1 8063   4.323   0.138   1.184
 2684SOL    HW2 8064   4.197   0.241   1.191
 2685SOL     OW 8065   4.212   1.385   0.174
 2685SOL    HW1 8066   4.125   1.370   0.221
 2685SOL    HW2 8067   4.195   1.411   0.079
 2686SOL     OW 8068   4.251   0.256   0.328
 2686SOL    HW1 8069   4.278   0.197   0.253
 2686SOL    HW2 8070   4.251   0.351   0.297
 2687SOL     OW 8071   4.639   0.089   1.402
 2687SOL    HW1 8072   4.664   0.069   1.307
 2687SOL    HW2 8073   4.711   0.145   1.444
 2688SOL     OW 8074   4.429   1.050   0.368
 2688SOL    HW1 8075   4.415   1.057   0.467
 2688SOL    HW2 8076   4.513   0.999   0.350
 2689SOL     OW 8077   4.134   0.813   1.251
 2689SOL    HW1 8078   4.220   0.825   1.301
 2689SOL    HW2 8079   4.092   0.726   1.278
 2690SOL     OW 8080   3.788   1.564   1.331
 2690SOL    HW1 8081   3.742   1.646   1.297
 2690SOL    HW2 8082   3.886   1.583   1.340
 2691SOL     OW 8083   4.091   1.100   0.501
 2691SOL    HW1 8084   4.084   1.183   0.445
 2691SOL    HW2 8085   4.095   1.020   0.441
 2692SOL     OW 8086   4.290   0.537   0.865
 2692SOL    HW1 8087   4.302   0.603   0.791
 2692SOL    HW2 8088   4.336   0.571   0.948
 2693SOL     OW 8089   4.078   1.510   1.329
 2693SOL    HW1 8090   4.057   1.466   1.242
 2693SOL    HW2 8091   4.175   1.536   1.332
 2694SOL     OW 8092   4.126   0.751   1.598
 2694SOL    HW1 8093   4.194   0.806   1.551
 2694SOL    HW2 8094   4.166   0.663   1.625
 2695SOL     OW 8095   4.228   0.050   1.740
 2695SOL    HW1 8096   4.186  -0.007   1.670
 2695SOL    HW2 8097   4.162   0.119   1.772
 2696SOL     OW 8098   4.297   0.870   1.029
 2696SOL    HW1 8099   4.341   0.959   1.020
 2696SOL    HW2 8100   4.234   0.870   1.106
 2697SOL     OW 8101   4.031   0.213   1.231
 2697SOL    HW1 8102   4.008   0.250   1.321
 2697SOL    HW2 8103   4.001   0.118   1.225
 2698SOL     OW 8104   3.761   1.310   1.282
 2698SOL    HW1 8105   3.814   1.261   1.350
 2698SOL    HW2 8106   3.783   1.408   1.287
 2699SOL     OW 8107   4.456   0.634   1.064
 2699SOL    HW1 8108   4.515   0.608   0.988
 2699SOL    HW2 8109   4.428   0.730   1.053
 2700SOL     OW 8110   4.031   0.063   0.618
 2700SOL    HW1 8111   4.020   0.157   0.651
 2700SOL    HW2 8112   4.026   0.000   0.695
 2701SOL     OW 8113   4.747   0.766   0.966
 2701SOL    HW1 8114   4.762   0.787   1.062
 2701SOL    HW2 8115   4.717   0.671   0.957
 2702SOL     OW 8116   4.704   1.573   1.700
 2702SOL    HW1 8117   4.684   1.617   1.612
 2702SOL    HW2 8118   4.743   1.482   1.684
 2703SOL     OW 8119   4.074   0.898   1.804
 2703SOL    HW1 8120   4.150   0.942   1.852
 2703SOL    HW2 8121   4.109   0.851   1.722
 2704SOL     OW 8122   4.043   0.810   0.949
 2704SOL    HW1 8123   4.136   0.846   0.954
 2704SOL    HW2 8124   4.037   0.725   1.001
 2705SOL     OW 8125   4.063   0.509   1.006
 2705SOL    HW1 8126   4.011   0.426   0.989
 2705SOL    HW2 8127   4.140   0.514   0.942
 2706SOL     OW 8128   3.732   1.326   0.200
 2706SOL    HW1 8129   3.639   1.347   0.169
 2706SOL    HW2 8130   3.742   1.227   0.213
 2707SOL     OW 8131   3.812   1.801   0.927
 2707SOL    HW1 8132   3.770   1.715   0.900
 2707SOL    HW2 8133   3.906   1.804   0.893
 2708SOL     OW 8134   4.228   1.568   0.910
 2708SOL    HW1 8135   4.294   1.642   0.919
 2708SOL    HW2 8136   4.272   1.489   0.868
 2709SOL     OW 8137   3.764   0.544   1.114
 2709SOL    HW1 8138   3.849   0.511   1.073
 2709SOL    HW2 8139   3.777   0.559   1.212
 2710SOL     OW 8140   3.913   0.520   1.722
 2710SOL    HW1 8141   3.972   0.480   1.652
 2710SOL    HW2 8142   3.855   0.591   1.681
 2711SOL     OW 8143   4.539   0.572   0.325
 2711SOL    HW1 8144   4.546   0.483   0.279
 2711SOL    HW2 8145   4.445   0.606   0.317
 2712SOL     OW 8146   3.976   1.564   1.744
 2712SOL    HW1 8147   3.946   1.621   1.820
 2712SOL    HW2 8148   3.969   1.467   1.770
 2713SOL     OW 8149   4.395   0.464   1.269
 2713SOL    HW1 8150   4.361   0.375   1.239
 2713SOL    HW2 8151   4.421   0.518   1.189
 2714SOL     OW 8152   4.197   0.500   0.191
 2714SOL    HW1 8153   4.258   0.580   0.195
 2714SOL    HW2 8154   4.102   0.531   0.198
 2715SOL     OW 8155   3.883   1.137   1.466
 2715SOL    HW1 8156   3.905   1.076   1.542
 2715SOL    HW2 8157   3.893   1.088   1.380
 2716SOL     OW 8158   3.807   1.258   1.022
 2716SOL    HW1 8159   3.802   1.257   1.122
 2716SOL    HW2 8160   3.724   1.217   0.984
 2717SOL     OW 8161   4.412   1.662   1.716
 2717SOL    HW1 8162   4.356   1.743   1.725
 2717SOL    HW2 8163   4.464   1.666   1.630
 2718SOL     OW 8164   4.627   0.086   0.133
 2718SOL    HW1 8165   4.678   0.087   0.047
 2718SOL    HW2 8166   4.683   0.044   0.204
 2719SOL     OW 8167   3.854   1.794   1.851
 2719SOL    HW1 8168   3.813   1.720   1.904
 2719SOL    HW2 8169   3.918   1.845   1.909
 2720SOL     OW 8170   4.554   1.273   1.422
 2720SOL    HW1 8171   4.549   1.306   1.517
 2720SOL    HW2 8172   4.468   1.292   1.376
 2721SOL     OW 8173   4.396   1.616   0.154
 2721SOL    HW1 8174   4.405   1.626   0.055
 2721SOL    HW2 8175   4.356   1.527   0.175
 2722SOL     OW 8176   3.987   0.326   0.720
 2722SOL    HW1 8177   3.908   0.377   0.686
 2722SOL    HW2 8178   3.978   0.311   0.818
 2723SOL     OW 8179   4.918   1.612   0.031
 2723SOL    HW1 8180   4.924   1.519   0.068
 2723SOL    HW2 8181   4.859   1.612  -0.049
 2724SOL     OW 8182   4.546   1.002   1.372
 2724SOL    HW1 8183   4.586   1.001   1.280
 2724SOL    HW2 8184   4.556   1.094   1.412
 2725SOL     OW 8185   4.096   1.288   1.490
 2725SOL    HW1 8186   4.083   1.381   1.456
 2725SOL    HW2 8187   4.012   1.236   1.477
 2726SOL     OW 8188   4.314   1.487   0.491
 2726SOL    HW1 8189   4.356   1.429   0.421
 2726SOL    HW2 8190   4.270   1.566   0.447
 2727SOL     OW 8191   3.979   1.348   0.290
 2727SOL    HW1 8192   3.883   1.349   0.263
 2727SOL    HW2 8193   3.991   1.401   0.374
 2728SOL     OW 8194   3.829   1.013   1.726
 2728SOL    HW1 8195   3.752   0.980   1.780
 2728SOL    HW2 8196   3.914   0.983   1.768
 2729SOL     OW 8197   4.396   0.203   1.489
 2729SOL    HW1 8198   4.486   0.187   1.449
 2729SOL    HW2 8199   4.404   0.208   1.588
 2730SOL     OW 8200   4.337   0.842   1.431
 2730SOL    HW1 8201   4.393   0.923   1.414
 2730SOL    HW2 8202   4.396   0.762   1.434
 2731SOL     OW 8203   4.440   0.565   1.708
 2731SOL    HW1 8204   4.459   0.630   1.782
 2731SOL    HW2 8205   4.500   0.485   1.717
 2732SOL     OW 8206   4.114   1.741   1.560
 2732SOL    HW1 8207   4.023   1.782   1.558
 2732SOL    HW2 8208   4.107   1.647   1.592
 2733SOL     OW 8209   4.318   0.745   0.652
 2733SOL    HW1 8210   4.368   0.830   0.633
 2733SOL    HW2 8211   4.230   0.747   0.604
 2734SOL     OW 8212   4.385   1.790   0.953
 2734SOL    HW1 8213   4.339   1.878   0.940
 2734SOL    HW2 8214   4.484   1.802   0.946
 2735SOL     OW 8215   4.583   0.956   0.861
 2735SOL    HW1 8216   4.637   0.887   0.909
 2735SOL    HW2 8217   4.551   1.025   0.927
 2736SOL     OW 8218   3.945   1.314   1.844
 2736SOL    HW1 8219   3.880   1.241   1.823
 2736SOL    HW2 8220   3.949   1.328   1.942
 2737SOL     OW 8221   3.803   1.240   0.653
 2737SOL    HW1 8222   3.802   1.193   0.741
 2737SOL    HW2 8223   3.885   1.212   0.602
 2738SOL     OW 8224   4.396   1.391   1.624
 2738SOL    HW1 8225   4.318   1.341   1.662
 2738SOL    HW2 8226   4.393   1.486   1.655
 2739SOL     OW 8227   4.152   0.424   0.520
 2739SOL    HW1 8228   4.182   0.352   0.458
 2739SOL    HW2 8229   4.113   0.384   0.603
 2740SOL     OW 8230   4.041   0.547   1.280
 2740SOL    HW1 8231   4.079   0.488   1.352
 2740SOL    HW2 8232   4.081   0.521   1.192
 2741SOL     OW 8233   4.536   1.586   0.687
 2741SOL    HW1 8234   4.568   1.596   0.593
 2741SOL    HW2 8235   4.457   1.524   0.689
 2742SOL     OW 8236   4.725   0.034   1.154
 2742SOL    HW1 8237   4.662  -0.038   1.123
 2742SOL    HW2 8238   4.818  -0.002   1.154
 2743SOL     OW 8239   4.494   1.330   0.301
 2743SOL    HW1 8240   4.448   1.243   0.318
 2743SOL    HW2 8241   4.585   1.327   0.342
 2744SOL     OW 8242   4.342   1.567   1.284
 2744SOL    HW1 8243   4.337   1.649   1.341
 2744SOL    HW2 8244   4.431   1.564   1.239
 2745SOL     OW 8245   3.763   1.077   0.300
 2745SOL    HW1 8246   3.862   1.066   0.291
 2745SOL    HW2 8247   3.723   0.991   0.332
 2746SOL     OW 8248   4.599   1.646   0.337
 2746SOL    HW1 8249   4.522   1.611   0.283
 2746SOL    HW2 8250   4.567   1.717   0.399
 2747SOL     OW 8251   3.954   0.628   1.975
 2747SOL    HW1 8252   3.861   0.626   2.012
 2747SOL    HW2 8253   3.955   0.589   1.883
 2748SOL     OW 8254   3.949   0.275   2.858
 2748SOL    HW1 8255   3.984   0.258   2.950
 2748SOL    HW2 8256   3.861   0.230   2.846
 2749SOL     OW 8257   3.743   0.368   2.509
 2749SOL    HW1 8258   3.661   0.411   2.548
 2749SOL    HW2 8259   3.715   0.295   2.446
 2750SOL     OW 8260   4.293   1.275   3.027
 2750SOL    HW1 8261   4.200   1.268   2.990
 2750SOL    HW2 8262   4.304   1.364   3.071
 2751SOL     OW 8263   4.492   1.144   2.885
 2751SOL    HW1 8264   4.414   1.161   2.945
 2751SOL    HW2 8265   4.526   1.231   2.849
 2752SOL     OW 8266   4.574   0.798   3.685
 2752SOL    HW1 8267   4.570   0.874   3.750
 2752SOL    HW2 8268   4.596   0.834   3.594
 2753SOL     OW 8269   4.409   1.012   2.527
 2753SOL    HW1 8270   4.478   0.996   2.597
 2753SOL    HW2 8271   4.336   1.069   2.565
 2754SOL     OW 8272   4.410   1.161   3.665
 2754SOL    HW1 8273   4.470   1.240   3.679
 2754SOL    HW2 8274   4.324   1.192   3.624
 2755SOL     OW 8275   4.059   1.435   2.923
 2755SOL    HW1 8276   3.981   1.404   2.870
 2755SOL    HW2 8277   4.117   1.493   2.866
 2756SOL     OW 8278   4.162   0.392   3.361
 2756SOL    HW1 8279   4.244   0.336   3.370
 2756SOL    HW2 8280   4.081   0.334   3.365
 2757SOL     OW 8281   3.955   1.713   2.345
 2757SOL    HW1 8282   3.989   1.790   2.399
 2757SOL    HW2 8283   3.999   1.713   2.255
 2758SOL     OW 8284   3.954   1.434   2.400
 2758SOL    HW1 8285   3.928   1.530   2.400
 2758SOL    HW2 8286   3.883   1.380   2.445
 2759SOL     OW 8287   3.964   1.091   2.748
 2759SOL    HW1 8288   3.978   1.007   2.800
 2759SOL    HW2 8289   3.909   1.155   2.803
 2760SOL     OW 8290   4.344   1.786   3.301
 2760SOL    HW1 8291   4.252   1.769   3.336
 2760SOL    HW2 8292   4.372   1.878   3.327
 2761SOL     OW 8293   4.330   0.964   1.985
 2761SOL    HW1 8294   4.337   1.048   1.931
 2761SOL    HW2 8295   4.376   0.977   2.073
 2762SOL     OW 8296   3.846   0.643   2.425
 2762SOL    HW1 8297   3.801   0.555   2.442
 2762SOL    HW2 8298   3.845   0.697   2.509
 2763SOL     OW 8299   3.751   1.596   1.979
 2763SOL    HW1 8300   3.732   1.500   2.000
 2763SOL    HW2 8301   3.718   1.654   2.054
 2764SOL     OW 8302   3.837   0.737   3.459
 2764SOL    HW1 8303   3.925   0.724   3.504
 2764SOL    HW2 8304   3.824   0.834   3.437
 2765SOL     OW 8305   4.337   1.365   2.588
 2765SOL    HW1 8306   4.288   1.278   2.597
 2765SOL    HW2 8307   4.314   1.408   2.501
 2766SOL     OW 8308   4.533   0.004   2.364
 2766SOL    HW1 8309   4.573   0.095   2.355
 2766SOL    HW2 8310   4.433   0.012   2.370
 2767SOL     OW 8311   3.921   0.976   3.126
 2767SOL    HW1 8312   4.010   0.931   3.112
 2767SOL    HW2 8313   3.848   0.911   3.107
 2768SOL     OW 8314   4.041   0.251   3.663
 2768SOL    HW1 8315   4.112   0.322   3.669
 2768SOL    HW2 8316   3.953   0.290   3.691
 2769SOL     OW 8317   4.322   0.729   2.132
 2769SOL    HW1 8318   4.346   0.798   2.064
 2769SOL    HW2 8319   4.244   0.762   2.186
 2770SOL     OW 8320   4.531   0.605   3.327
 2770SOL    HW1 8321   4.484   0.602   3.416
 2770SOL    HW2 8322   4.480   0.550   3.261
 2771SOL     OW 8323   3.800   0.811   2.651
 2771SOL    HW1 8324   3.899   0.799   2.660
 2771SOL    HW2 8325   3.776   0.906   2.672
 2772SOL     OW 8326   3.854   1.821   3.433
 2772SOL    HW1 8327   3.844   1.806   3.532
 2772SOL    HW2 8328   3.768   1.857   3.397
 2773SOL     OW 8329   4.589   0.348   2.057
 2773SOL    HW1 8330   4.648   0.411   2.008
 2773SOL    HW2 8331   4.608   0.254   2.028
 2774SOL     OW 8332   4.274   0.196   2.747
 2774SOL    HW1 8333   4.269   0.191   2.847
 2774SOL    HW2 8334   4.276   0.292   2.718
 2775SOL     OW 8335   4.732   1.456   2.339
 2775SOL    HW1 8336   4.686   1.528   2.287
 2775SOL    HW2 8337   4.728   1.476   2.437
 2776SOL     OW 8338   4.075   1.801   2.715
 2776SOL    HW1 8339   4.125   1.715   2.721
 2776SOL    HW2 8340   4.140   1.878   2.712
 2777SOL     OW 8341   4.045   0.943   2.104
 2777SOL    HW1 8342   4.127   0.982   2.062
 2777SOL    HW2 8343   4.018   0.861   2.055
 2778SOL     OW 8344   4.185   1.266   3.589
 2778SOL    HW1 8345   4.135   1.267   3.503
 2778SOL    HW2 8346   4.122   1.248   3.665
 2779SOL     OW 8347   4.835   1.776   2.099
 2779SOL    HW1 8348   4.775   1.714   2.149
 2779SOL    HW2 8349   4.866   1.732   2.014
 2780SOL     OW 8350   3.926   0.285   3.360
 2780SOL    HW1 8351   3.846   0.345   3.347
 2780SOL    HW2 8352   3.916   0.236   3.446
 2781SOL     OW 8353   4.188   1.743   2.185
 2781SOL    HW1 8354   4.221   1.782   2.271
 2781SOL    HW2 8355   4.264   1.736   2.120
 2782SOL     OW 8356   3.973   1.785   3.103
 2782SOL    HW1 8357   4.030   1.720   3.153
 2782SOL    HW2 8358   3.957   1.752   3.010
 2783SOL     OW 8359   4.106   0.700   2.342
 2783SOL    HW1 8360   4.151   0.610   2.339
 2783SOL    HW2 8361   4.012   0.689   2.375
 2784SOL     OW 8362   4.338   0.122   1.979
 2784SOL    HW1 8363   4.436   0.100   1.986
 2784SOL    HW2 8364   4.307   0.105   1.886
 2785SOL     OW 8365   4.505   0.264   3.611
 2785SOL    HW1 8366   4.572   0.203   3.654
 2785SOL    HW2 8367   4.432   0.283   3.676
 2786SOL     OW 8368   4.527   1.402   2.786
 2786SOL    HW1 8369   4.617   1.416   2.744
 2786SOL    HW2 8370   4.456   1.404   2.715
 2787SOL     OW 8371   4.646   0.503   2.761
 2787SOL    HW1 8372   4.621   0.494   2.665
 2787SOL    HW2 8373   4.694   0.421   2.792
 2788SOL     OW 8374   4.263   0.064   2.374
 2788SOL    HW1 8375   4.182   0.065   2.432
 2788SOL    HW2 8376   4.266   0.147   2.319
 2789SOL     OW 8377   4.021   0.035   2.033
 2789SOL    HW1 8378   4.070   0.119   2.012
 2789SOL    HW2 8379   4.083  -0.030   2.078
 2790SOL     OW 8380   4.183   1.152   2.603
 2790SOL    HW1 8381   4.112   1.125   2.668
 2790SOL    HW2 8382   4.157   1.124   2.510
 2791SOL     OW 8383   3.802   0.556   3.248
 2791SOL    HW1 8384   3.894   0.555   3.207
 2791SOL    HW2 8385   3.796   0.630   3.315
 2792SOL     OW 8386   4.285   0.222   3.009
 2792SOL    HW1 8387   4.323   0.138   3.046
 2792SOL    HW2 8388   4.197   0.241   3.053
 2793SOL     OW 8389   4.212   1.385   2.036
 2793SOL    HW1 8390   4.125   1.370   2.083
 2793SOL    HW2 8391   4.195   1.411   1.941
 2794SOL     OW 8392   4.251   0.256   2.190
 2794SOL    HW1 8393   4.278   0.197   2.115
 2794SOL    HW2 8394   4.251   0.351   2.159
 2795SOL     OW 8395   4.639   0.089   3.264
 2795SOL    HW1 8396   4.664   0.069   3.169
 2795SOL    HW2 8397   4.711   0.145   3.306
 2796SOL     OW 8398   4.429   1.050   2.230
 2796SOL    HW1 8399   4.415   1.057   2.329
 2796SOL    HW2 8400   4.513   0.999   2.212
 2797SOL     OW 8401   4.134   0.813   3.113
 2797SOL    HW1 8402   4.220   0.825   3.163
 2797SOL    HW2 8403   4.092   0.726   3.140
 2798SOL     OW 8404   3.788   1.564   3.193
 2798SOL    HW1 8405   3.742   1.646   3.159
 2798SOL    HW2 8406   3.886   1.583   3.202
 2799SOL     OW 8407   4.091   1.100   2.363
 2799SOL    HW1 8408   4.084   1.183   2.307
 2799SOL    HW2 8409   4.095   1.020   2.303
 2800SOL     OW 8410   4.290   0.537   2.727
 2800SOL    HW1 8411   4.302   0.603   2.653
 2800SOL    HW2 8412   4.336   0.571   2.810
 2801SOL     OW 8413   4.078   1.510   3.191
 2801SOL    HW1 8414   4.057   1.466   3.104
 2801SOL    HW2 8415   4.175   1.536   3.194
 2802SOL     OW 8416   4.126   0.751   3.460
 2802SOL    HW1 8417   4.194   0.806   3.413
 2802SOL    HW2 8418   4.166   0.663   3.487
 2803SOL     OW 8419   4.228   0.050   3.602
 2803SOL    HW1 8420   4.186  -0.007   3.532
 2803SOL    HW2 8421   4.162   0.119   3.634
 2804SOL     OW 8422   4.297   0.870   2.891
 2804SOL    HW1 8423   4.341   0.959   2.882
 2804SOL    HW2 8424   4.234   0.870   2.968
 2805SOL     OW 8425   4.031   0.213   3.093
 2805SOL    HW1 8426   4.008   0.250   3.183
 2805SOL    HW2 8427   4.001   0.118   3.087
 2806SOL     OW 8428   3.761   1.310   3.144
 2806SOL    HW1 8429   3.814   1.261   3.212
 2806SOL    HW2 8430   3.783   1.408   3.149
 2807SOL     OW 8431   4.456   0.634   2.926
 2807SOL    HW1 8432   4.515   0.608   2.850
 2807SOL    HW2 8433   4.428   0.730   2.915
 2808SOL     OW 8434   4.031   0.063   2.480
 2808SOL    HW1 8435   4.020   0.157   2.513
 2808SOL    HW2 8436   4.026   0.000   2.557
 2809SOL     OW 8437   4.747   0.766   2.828
 2809SOL    HW1 8438   4.762   0.787   2.924
 2809SOL    HW2 8439   4.717   0.671   2.819
 2810SOL     OW 8440   4.704   1.573   3.562
 2810SOL    HW1 8441   4.684   1.617   3.474
 2810SOL    HW2 8442   4.743   1.482   3.546
 2811SOL     OW 8443   4.074   0.898   3.666
 2811SOL    HW1 8444   4.150   0.942   3.714
 2811SOL    HW2 8445   4.109   0.851   3.584
 2812SOL     OW 8446   4.043   0.810   2.811
 2812SOL    HW1 8447   4.136   0.846   2.816
 2812SOL    HW2 8448   4.037   0.725   2.863
 2813SOL     OW 8449   4.063   0.509   2.868
 2813SOL    HW1 8450   4.011   0.426   2.851
 2813SOL    HW2 8451   4.140   0.514   2.804
 2814SOL     OW 8452   3.732   1.326   2.062
 2814SOL    HW1 8453   3.639   1.347   2.031
 2814SOL    HW2 8454   3.742   1.227   2.075
 2815SOL     OW 8455   3.812   1.801   2.789
 2815SOL    HW1 8456   3.770   1.715   2.762
 2815SOL    HW2 8457   3.906   1.804   2.755
 2816SOL     OW 8458   4.228   1.568   2.772
 2816SOL    HW1 8459   4.294   1.642   2.781
 2816SOL    HW2 8460   4.272   1.489   2.730
 2817SOL     OW 8461   3.764   0.544   2.976
 2817SOL    HW1 8462   3.849   0.511   2.935
 2817SOL    HW2 8463   3.777   0.559   3.074
 2818SOL     OW 8464   3.913   0.520   3.584
 2818SOL    HW1 8465   3.972   0.480   3.514
 2818SOL    HW2 8466   3.855   0.591   3.543
 2819SOL     OW 8467   4.539   0.572   2.187
 2819SOL    HW1 8468   4.546   0.483   2.141
 2819SOL    HW2 8469   4.445   0.606   2.179
 2820SOL     OW 8470   3.976   1.564   3.606
 2820SOL    HW1 8471   3.946   1.621   3.682
 2820SOL    HW2 8472   3.969   1.467   3.632
 2821SOL     OW 8473   4.395   0.464   3.131
 2821SOL    HW1 8474   4.361   0.375   3.101
 2821SOL    HW2 8475   4.421   0.518   3.051
 2822SOL     OW 8476   4.197   0.500   2.053
 2822SOL    HW1 8477   4.258   0.580   2.057
 2822SOL    HW2 8478   4.102   0.531   2.060
 2823SOL     OW 8479   3.883   1.137   3.328
 2823SOL    HW1 8480   3.905   1.076   3.404
 2823SOL    HW2 8481   3.893   1.088   3.242
 2824SOL     OW 8482   3.807   1.258   2.884
 2824SOL    HW1 8483   3.802   1.257   2.984
 2824SOL    HW2 8484   3.724   1.217   2.846
 2825SOL     OW 8485   4.412   1.662   3.578
 2825SOL    HW1 8486   4.356   1.743   3.587
 2825SOL    HW2 8487   4.464   1.666   3.492
 2826SOL     OW 8488   4.627   0.086   1.995
 2826SOL    HW1 8489   4.678   0.087   1.909
 2826SOL    HW2 8490   4.683   0.044   2.066
 2827SOL     OW 8491   3.854   1.794   3.713
 2827SOL    HW1 8492   3.813   1.720   3.766
 2827SOL    HW2 8493   3.918   1.845   3.771
 2828SOL     OW 8494   4.554   1.273   3.284
 2828SOL    HW1 8495   4.549   1.306   3.379
 2828SOL    HW2 8496   4.468   1.292   3.238
 2829SOL     OW 8497   4.396   1.616   2.016
 2829SOL    HW1 8498   4.405   1.626   1.917
 2829SOL    HW2 8499   4.356   1.527   2.037
 2830SOL     OW 8500   3.987   0.326   2.582
 2830SOL    HW1 8501   3.908   0.377   2.548
 2830SOL    HW2 8502   3.978   0.311   2.680
 2831SOL     OW 8503   4.546   1.002   3.234
 2831SOL    HW1 8504   4.586   1.001   3.142
 2831SOL    HW2 8505   4.556   1.094   3.274
 2832SOL     OW 8506   4.096   1.288   3.352
 2832SOL    HW1 8507   4.083   1.381   3.318
 2832SOL    HW2 8508   4.012   1.236   3.339
 2833SOL     OW 8509   4.314   1.487   2.353
 2833SOL    HW1 8510   4.356   1.429   2.283
 2833SOL    HW2 8511   4.270   1.566   2.309
 2834SOL     OW 8512   3.979   1.348   2.152
 2834SOL    HW1 8513   3.883   1.349   2.125
 2834SOL    HW2 8514   3.991   1.401   2.236
 2835SOL     OW 8515   3.829   1.013   3.588
 2835SOL    HW1 8516   3.752   0.980   3.642
 2835SOL    HW2 8517   3.914   0.983   3.630
 2836SOL     OW 8518   4.396   0.203   3.351
 2836SOL    HW1 8519   4.486   0.187   3.311
 2836SOL    HW2 8520   4.404   0.208   3.450
 2837SOL     OW 8521   3.799   0.345   1.895
 2837SOL    HW1 8522   3.707   0.317   1.866
 2837SOL    HW2 8523   3.830   0.422   1.839
 2838SOL     OW 8524   3.796   0.166   2.180
 2838SOL    HW1 8525   3.779   0.249   2.126
 2838SOL    HW2 8526   3.886   0.129   2.158
 2839SOL     OW 8527   4.337   0.842   3.293
 2839SOL    HW1 8528   4.393   0.923   3.276
 2839SOL    HW2 8529   4.396   0.762   3.296
 2840SOL     OW 8530   4.440   0.565   3.570
 2840SOL    HW1 8531   4.459   0.630   3.644
 2840SOL    HW2 8532   4.500   0.485   3.579
 2841SOL     OW 8533   4.114   1.741   3.422
 2841SOL    HW1 8534   4.023   1.782   3.420
 2841SOL    HW2 8535   4.107   1.647   3.454
 2842SOL     OW 8536   4.318   0.745   2.514
 2842SOL    HW1 8537   4.368   0.830   2.495
 2842SOL    HW2 8538   4.230   0.747   2.466
 2843SOL     OW 8539   4.385   1.790   2.815
 2843SOL    HW1 8540   4.339   1.878   2.802
 2843SOL    HW2 8541   4.484   1.802   2.808
 2844SOL     OW 8542   4.583   0.956   2.723
 2844SOL    HW1 8543   4.637   0.887   2.771
 2844SOL    HW2 8544   4.551   1.025   2.789
 2845SOL     OW 8545   3.945   1.314   3.706
 2845SOL    HW1 8546   3.880   1.241   3.685
 2845SOL    HW2 8547   3.949   1.328   3.804
 2846SOL     OW 8548   3.803   1.240   2.515
 2846SOL    HW1 8549   3.802   1.193   2.603
 2846SOL    HW2 8550   3.885   1.212   2.464
 2847SOL     OW 8551   4.396   1.391   3.486
 2847SOL    HW1 8552   4.318   1.341   3.524
 2847SOL    HW2 8553   4.393   1.486   3.517
 2848SOL     OW 8554   4.152   0.424   2.382
 2848SOL    HW1 8555   4.182   0.352   2.320
 2848SOL    HW2 8556   4.113   0.384   2.465
 2849SOL     OW 8557   4.041   0.547   3.142
 2849SOL    HW1 8558   4.079   0.488   3.214
 2849SOL    HW2 8559   4.081   0.521   3.054
 2850SOL     OW 8560   4.536   1.586   2.549
 2850SOL    HW1 8561   4.568   1.596   2.455
 2850SOL    HW2 8562   4.457   1.524   2.551
 2851SOL     OW 8563   4.725   0.034   3.016
 2851SOL    HW1 8564   4.662  -0.038   2.985
 2851SOL    HW2 8565   4.818  -0.002   3.016
 2852SOL     OW 8566   4.494   1.330   2.163
 2852SOL    HW1 8567   4.448   1.243   2.180
 2852SOL    HW2 8568   4.585   1.327   2.204
 2853SOL     OW 8569   4.342   1.567   3.146
 2853SOL    HW1 8570   4.337   1.649   3.203
 2853SOL    HW2 8571   4.431   1.564   3.101
 2854SOL     OW 8572   3.763   1.077   2.162
 2854SOL    HW1 8573   3.862   1.066   2.153
 2854SOL    HW2 8574   3.723   0.991   2.194
 2855SOL     OW 8575   4.599   1.646   2.199
 2855SOL    HW1 8576   4.522   1.611   2.145
 2855SOL    HW2 8577   4.567   1.717   2.261
 2856SOL     OW 8578   3.954   0.628   3.837
 2856SOL    HW1 8579   3.861   0.626   3.874
 2856SOL    HW2 8580   3.955   0.589   3.745
 2857SOL     OW 8581   3.949   0.275   4.720
 2857SOL    HW1 8582   3.984   0.258   4.812
 2857SOL    HW2 8583   3.861   0.230   4.708
 2858SOL     OW 8584   3.743   0.368   4.371
 2858SOL    HW1 8585   3.661   0.411   4.410
 2858SOL    HW2 8586   3.715   0.295   4.308
 2859SOL     OW 8587   4.492   1.144   4.747
 2859SOL    HW1 8588   4.414   1.161   4.807
 2859SOL    HW2 8589   4.526   1.231   4.711
 2860SOL     OW 8590   4.409   1.012   4.389
 2860SOL    HW1 8591   4.478   0.996   4.459
 2860SOL    HW2 8592   4.336   1.069   4.427
 2861SOL     OW 8593   3.955   1.713   4.207
 2861SOL    HW1 8594   3.989   1.790   4.261
 2861SOL    HW2 8595   3.999   1.713   4.117
 2862SOL     OW 8596   3.954   1.434   4.262
 2862SOL    HW1 8597   3.928   1.530   4.262
 2862SOL    HW2 8598   3.883   1.380   4.307
 2863SOL     OW 8599   3.964   1.091   4.610
 2863SOL    HW1 8600   3.978   1.007   4.662
 2863SOL    HW2 8601   3.909   1.155   4.665
 2864SOL     OW 8602   4.330   0.964   3.847
 2864SOL    HW1 8603   4.337   1.048   3.793
 2864SOL    HW2 8604   4.376   0.977   3.935
 2865SOL     OW 8605   3.846   0.643   4.287
 2865SOL    HW1 8606   3.801   0.555   4.304
 2865SOL    HW2 8607   3.845   0.697   4.371
 2866SOL     OW 8608   3.751   1.596   3.841
 2866SOL    HW1 8609   3.732   1.500   3.862
 2866SOL    HW2 8610   3.718   1.654   3.916
 2867SOL     OW 8611   4.337   1.365   4.450
 2867SOL    HW1 8612   4.288   1.278   4.459
 2867SOL    HW2 8613   4.314   1.408   4.363
 2868SOL     OW 8614   4.533   0.004   4.226
 2868SOL    HW1 8615   4.573   0.095   4.217
 2868SOL    HW2 8616   4.433   0.012   4.232
 2869SOL     OW 8617   4.322   0.729   3.994
 2869SOL    HW1 8618   4.346   0.798   3.926
 2869SOL    HW2 8619   4.244   0.762   4.048
 2870SOL     OW 8620   3.800   0.811   4.513
 2870SOL    HW1 8621   3.899   0.799   4.522
 2870SOL    HW2 8622   3.776   0.906   4.534
 2871SOL     OW 8623   4.589   0.348   3.919
 2871SOL    HW1 8624   4.648   0.411   3.870
 2871SOL    HW2 8625   4.608   0.254   3.890
 2872SOL     OW 8626   4.732   1.456   4.201
 2872SOL    HW1 8627   4.686   1.528   4.149
 2872SOL    HW2 8628   4.728   1.476   4.299
 2873SOL     OW 8629   4.075   1.801   4.577
 2873SOL    HW1 8630   4.125   1.715   4.583
 2873SOL    HW2 8631   4.140   1.878   4.574
 2874SOL     OW 8632   4.045   0.943   3.966
 2874SOL    HW1 8633   4.127   0.982   3.924
 2874SOL    HW2 8634   4.018   0.861   3.917
 2875SOL     OW 8635   4.835   1.776   3.961
 2875SOL    HW1 8636   4.775   1.714   4.011
 2875SOL    HW2 8637   4.866   1.732   3.876
 2876SOL     OW 8638   4.188   1.743   4.047
 2876SOL    HW1 8639   4.221   1.782   4.133
 2876SOL    HW2 8640   4.264   1.736   3.982
 2877SOL     OW 8641   4.106   0.700   4.204
 2877SOL    HW1 8642   4.151   0.610   4.201
 2877SOL    HW2 8643   4.012   0.689   4.237
 2878SOL     OW 8644   4.338   0.122   3.841
 2878SOL    HW1 8645   4.436   0.100   3.848
 2878SOL    HW2 8646   4.307   0.105   3.748
 2879SOL     OW 8647   4.527   1.402   4.648
 2879SOL    HW1 8648   4.617   1.416   4.606
 2879SOL    HW2 8649   4.456   1.404   4.577
 2880SOL     OW 8650   4.263   0.064   4.236
 2880SOL    HW1 8651   4.182   0.065   4.294
 2880SOL    HW2 8652   4.266   0.147   4.181
 2881SOL     OW 8653   4.021   0.035   3.895
 2881SOL    HW1 8654   4.070   0.119   3.874
 2881SOL    HW2 8655   4.083  -0.030   3.940
 2882SOL     OW 8656   4.183   1.152   4.465
 2882SOL    HW1 8657   4.112   1.125   4.530
 2882SOL    HW2 8658   4.157   1.124   4.372
 2883SOL     OW 8659   4.212   1.385   3.898
 2883SOL    HW1 8660   4.125   1.370   3.945
 2883SOL    HW2 8661   4.195   1.411   3.803
 2884SOL     OW 8662   4.251   0.256   4.052
 2884SOL    HW1 8663   4.278   0.197   3.977
 2884SOL    HW2 8664   4.251   0.351   4.021
 2885SOL     OW 8665   4.429   1.050   4.092
 2885SOL    HW1 8666   4.415   1.057   4.191
 2885SOL    HW2 8667   4.513   0.999   4.074
 2886SOL     OW 8668   4.998   0.386   4.986
 2886SOL    HW1 8669   5.019   0.460   5.050
 2886SOL    HW2 8670   4.909   0.403   4.943
 2887SOL     OW 8671   4.091   1.100   4.225
 2887SOL    HW1 8672   4.084   1.183   4.169
 2887SOL    HW2 8673   4.095   1.020   4.165
 2888SOL     OW 8674   4.290   0.537   4.589
 2888SOL    HW1 8675   4.302   0.603   4.515
 2888SOL    HW2 8676   4.336   0.571   4.672
 2889SOL     OW 8677   4.456   0.634   4.788
 2889SOL    HW1 8678   4.515   0.608   4.712
 2889SOL    HW2 8679   4.428   0.730   4.777
 2890SOL     OW 8680   4.031   0.063   4.342
 2890SOL    HW1 8681   4.020   0.157   4.375
 2890SOL    HW2 8682   4.026   0.000   4.419
 2891SOL     OW 8683   4.747   0.766   4.690
 2891SOL    HW1 8684   4.762   0.787   4.786
 2891SOL    HW2 8685   4.717   0.671   4.681
 2892SOL     OW 8686   3.732   1.326   3.924
 2892SOL    HW1 8687   3.639   1.347   3.893
 2892SOL    HW2 8688   3.742   1.227   3.937
 2893SOL     OW 8689   3.812   1.801   4.651
 2893SOL    HW1 8690   3.770   1.715   4.624
 2893SOL    HW2 8691   3.906   1.804   4.617
 2894SOL     OW 8692   4.228   1.568   4.634
 2894SOL    HW1 8693   4.294   1.642   4.643
 2894SOL    HW2 8694   4.272   1.489   4.592
 2895SOL     OW 8695   4.539   0.572   4.049
 2895SOL    HW1 8696   4.546   0.483   4.003
 2895SOL    HW2 8697   4.445   0.606   4.041
 2896SOL     OW 8698   4.197   0.500   3.915
 2896SOL    HW1 8699   4.258   0.580   3.919
 2896SOL    HW2 8700   4.102   0.531   3.922
 2897SOL     OW 8701   4.627   0.086   3.857
 2897SOL    HW1 8702   4.678   0.087   3.771
 2897SOL    HW2 8703   4.683   0.044   3.928
 2898SOL     OW 8704   4.396   1.616   3.878
 2898SOL    HW1 8705   4.405   1.626   3.779
 2898SOL    HW2 8706   4.356   1.527   3.899
 2899SOL     OW 8707   3.987   0.326   4.444
 2899SOL    HW1 8708   3.908   0.377   4.410
 2899SOL    HW2 8709   3.978   0.311   4.542
 2900SOL     OW 8710   4.314   1.487   4.215
 2900SOL    HW1 8711   4.356   1.429   4.145
 2900SOL    HW2 8712   4.270   1.566   4.171
 2901SOL     OW 8713   3.979   1.348   4.014
 2901SOL    HW1 8714   3.883   1.349   3.987
 2901SOL    HW2 8715   3.991   1.401   4.098
 2902SOL     OW 8716   3.799   0.345   3.757
 2902SOL    HW1 8717   3.707   0.317   3.728
 2902SOL    HW2 8718   3.830   0.422   3.701
 2903SOL     OW 8719   3.796   0.166   4.042
 2903SOL    HW1 8720   3.779   0.249   3.988
 2903SOL    HW2 8721   3.886   0.129   4.020
 2904SOL     OW 8722   4.318   0.745   4.376
 2904SOL    HW1 8723   4.368   0.830   4.357
 2904SOL    HW2 8724   4.230   0.747   4.328
 2905SOL     OW 8725   4.385   1.790   4.677
 2905SOL    HW1 8726   4.339   1.878   4.664
 2905SOL    HW2 8727   4.484   1.802   4.670
 2906SOL     OW 8728   4.583   0.956   4.585
 2906SOL    HW1 8729   4.637   0.887   4.633
 2906SOL    HW2 8730   4.551   1.025   4.651
 2907SOL     OW 8731   3.803   1.240   4.377
 2907SOL    HW1 8732   3.802   1.193   4.465
 2907SOL    HW2 8733   3.885   1.212   4.326
 2908SOL     OW 8734   4.152   0.424   4.244
 2908SOL    HW1 8735   4.182   0.352   4.182
 2908SOL    HW2 8736   4.113   0.384   4.327
 2909SOL     OW 8737   4.536   1.586   4.411
 2909SOL    HW1 8738   4.568   1.596   4.317
 2909SOL    HW2 8739   4.457   1.524   4.413
 2910SOL     OW 8740   4.494   1.330   4.025
 2910SOL    HW1 8741   4.448   1.243   4.042
 2910SOL    HW2 8742   4.585   1.327   4.066
 2911SOL     OW 8743   3.763   1.077   4.024
 2911SOL    HW1 8744   3.862   1.066   4.015
 2911SOL    HW2 8745   3.723   0.991   4.056
 2912SOL     OW 8746   4.599   1.646   4.061
 2912SOL    HW1 8747   4.522   1.611   4.007
 2912SOL    HW2 8748   4.567   1.717   4.123
 2913SOL     OW 8749   3.954   2.490   0.113
 2913SOL    HW1 8750   3.861   2.488   0.150
 2913SOL    HW2 8751   3.955   2.451   0.021
 2914SOL     OW 8752   3.949   2.137   0.996
 2914SOL    HW1 8753   3.984   2.120   1.088
 2914SOL    HW2 8754   3.861   2.092   0.984
 2915SOL     OW 8755   3.743   2.230   0.647
 2915SOL    HW1 8756   3.661   2.273   0.686
 2915SOL    HW2 8757   3.715   2.157   0.584
 2916SOL     OW 8758   4.293   3.137   1.165
 2916SOL    HW1 8759   4.200   3.130   1.128
 2916SOL    HW2 8760   4.304   3.226   1.209
 2917SOL     OW 8761   4.492   3.006   1.023
 2917SOL    HW1 8762   4.414   3.023   1.083
 2917SOL    HW2 8763   4.526   3.093   0.987
 2918SOL     OW 8764   4.574   2.660   1.823
 2918SOL    HW1 8765   4.570   2.736   1.888
 2918SOL    HW2 8766   4.596   2.696   1.732
 2919SOL     OW 8767   4.409   2.874   0.665
 2919SOL    HW1 8768   4.478   2.858   0.735
 2919SOL    HW2 8769   4.336   2.931   0.703
 2920SOL     OW 8770   4.410   3.023   1.803
 2920SOL    HW1 8771   4.470   3.102   1.817
 2920SOL    HW2 8772   4.324   3.054   1.762
 2921SOL     OW 8773   4.059   3.297   1.061
 2921SOL    HW1 8774   3.981   3.266   1.008
 2921SOL    HW2 8775   4.117   3.355   1.004
 2922SOL     OW 8776   4.162   2.254   1.499
 2922SOL    HW1 8777   4.244   2.198   1.508
 2922SOL    HW2 8778   4.081   2.196   1.503
 2923SOL     OW 8779   3.955   3.575   0.483
 2923SOL    HW1 8780   3.989   3.652   0.537
 2923SOL    HW2 8781   3.999   3.575   0.393
 2924SOL     OW 8782   3.954   3.296   0.538
 2924SOL    HW1 8783   3.928   3.392   0.538
 2924SOL    HW2 8784   3.883   3.242   0.583
 2925SOL     OW 8785   3.964   2.953   0.886
 2925SOL    HW1 8786   3.978   2.869   0.938
 2925SOL    HW2 8787   3.909   3.017   0.941
 2926SOL     OW 8788   4.344   3.648   1.439
 2926SOL    HW1 8789   4.252   3.631   1.474
 2926SOL    HW2 8790   4.372   3.740   1.465
 2927SOL     OW 8791   4.330   2.826   0.123
 2927SOL    HW1 8792   4.337   2.910   0.069
 2927SOL    HW2 8793   4.376   2.839   0.211
 2928SOL     OW 8794   3.846   2.505   0.563
 2928SOL    HW1 8795   3.801   2.417   0.580
 2928SOL    HW2 8796   3.845   2.559   0.647
 2929SOL     OW 8797   3.837   2.599   1.597
 2929SOL    HW1 8798   3.925   2.586   1.642
 2929SOL    HW2 8799   3.824   2.696   1.575
 2930SOL     OW 8800   4.337   3.227   0.726
 2930SOL    HW1 8801   4.288   3.140   0.735
 2930SOL    HW2 8802   4.314   3.270   0.639
 2931SOL     OW 8803   4.533   1.866   0.502
 2931SOL    HW1 8804   4.573   1.957   0.493
 2931SOL    HW2 8805   4.433   1.874   0.508
 2932SOL     OW 8806   3.921   2.838   1.264
 2932SOL    HW1 8807   4.010   2.793   1.250
 2932SOL    HW2 8808   3.848   2.773   1.245
 2933SOL     OW 8809   4.041   2.113   1.801
 2933SOL    HW1 8810   4.112   2.184   1.807
 2933SOL    HW2 8811   3.953   2.152   1.829
 2934SOL     OW 8812   4.322   2.591   0.270
 2934SOL    HW1 8813   4.346   2.660   0.202
 2934SOL    HW2 8814   4.244   2.624   0.324
 2935SOL     OW 8815   4.531   2.467   1.465
 2935SOL    HW1 8816   4.484   2.464   1.554
 2935SOL    HW2 8817   4.480   2.412   1.399
 2936SOL     OW 8818   3.800   2.673   0.789
 2936SOL    HW1 8819   3.899   2.661   0.798
 2936SOL    HW2 8820   3.776   2.768   0.810
 2937SOL     OW 8821   3.854   3.683   1.571
 2937SOL    HW1 8822   3.844   3.668   1.670
 2937SOL    HW2 8823   3.768   3.719   1.535
 2938SOL     OW 8824   4.589   2.210   0.195
 2938SOL    HW1 8825   4.648   2.273   0.146
 2938SOL    HW2 8826   4.608   2.116   0.166
 2939SOL     OW 8827   4.274   2.058   0.885
 2939SOL    HW1 8828   4.269   2.053   0.985
 2939SOL    HW2 8829   4.276   2.154   0.856
 2940SOL     OW 8830   4.732   3.318   0.477
 2940SOL    HW1 8831   4.686   3.390   0.425
 2940SOL    HW2 8832   4.728   3.338   0.575
 2941SOL     OW 8833   4.075   3.663   0.853
 2941SOL    HW1 8834   4.125   3.577   0.859
 2941SOL    HW2 8835   4.140   3.740   0.850
 2942SOL     OW 8836   4.045   2.805   0.242
 2942SOL    HW1 8837   4.127   2.844   0.200
 2942SOL    HW2 8838   4.018   2.723   0.193
 2943SOL     OW 8839   4.185   3.128   1.727
 2943SOL    HW1 8840   4.135   3.129   1.641
 2943SOL    HW2 8841   4.122   3.110   1.803
 2944SOL     OW 8842   4.835   3.638   0.237
 2944SOL    HW1 8843   4.775   3.576   0.287
 2944SOL    HW2 8844   4.866   3.594   0.152
 2945SOL     OW 8845   3.926   2.147   1.498
 2945SOL    HW1 8846   3.846   2.207   1.485
 2945SOL    HW2 8847   3.916   2.098   1.584
 2946SOL     OW 8848   4.188   3.605   0.323
 2946SOL    HW1 8849   4.221   3.644   0.409
 2946SOL    HW2 8850   4.264   3.598   0.258
 2947SOL     OW 8851   3.973   3.647   1.241
 2947SOL    HW1 8852   4.030   3.582   1.291
 2947SOL    HW2 8853   3.957   3.614   1.148
 2948SOL     OW 8854   4.106   2.562   0.480
 2948SOL    HW1 8855   4.151   2.472   0.477
 2948SOL    HW2 8856   4.012   2.551   0.513
 2949SOL     OW 8857   4.505   2.126   1.749
 2949SOL    HW1 8858   4.572   2.065   1.792
 2949SOL    HW2 8859   4.432   2.145   1.814
 2950SOL     OW 8860   4.527   3.264   0.924
 2950SOL    HW1 8861   4.617   3.278   0.882
 2950SOL    HW2 8862   4.456   3.266   0.853
 2951SOL     OW 8863   4.646   2.365   0.899
 2951SOL    HW1 8864   4.621   2.356   0.803
 2951SOL    HW2 8865   4.694   2.283   0.930
 2952SOL     OW 8866   4.263   1.926   0.512
 2952SOL    HW1 8867   4.182   1.927   0.570
 2952SOL    HW2 8868   4.266   2.009   0.457
 2953SOL     OW 8869   4.021   1.897   0.171
 2953SOL    HW1 8870   4.070   1.981   0.150
 2953SOL    HW2 8871   4.083   1.832   0.216
 2954SOL     OW 8872   4.183   3.014   0.741
 2954SOL    HW1 8873   4.112   2.987   0.806
 2954SOL    HW2 8874   4.157   2.986   0.648
 2955SOL     OW 8875   3.802   2.418   1.386
 2955SOL    HW1 8876   3.894   2.417   1.345
 2955SOL    HW2 8877   3.796   2.492   1.453
 2956SOL     OW 8878   4.285   2.084   1.147
 2956SOL    HW1 8879   4.323   2.000   1.184
 2956SOL    HW2 8880   4.197   2.103   1.191
 2957SOL     OW 8881   4.212   3.247   0.174
 2957SOL    HW1 8882   4.125   3.232   0.221
 2957SOL    HW2 8883   4.195   3.273   0.079
 2958SOL     OW 8884   4.251   2.118   0.328
 2958SOL    HW1 8885   4.278   2.059   0.253
 2958SOL    HW2 8886   4.251   2.213   0.297
 2959SOL     OW 8887   4.639   1.951   1.402
 2959SOL    HW1 8888   4.664   1.931   1.307
 2959SOL    HW2 8889   4.711   2.007   1.444
 2960SOL     OW 8890   4.429   2.912   0.368
 2960SOL    HW1 8891   4.415   2.919   0.467
 2960SOL    HW2 8892   4.513   2.861   0.350
 2961SOL     OW 8893   4.134   2.675   1.251
 2961SOL    HW1 8894   4.220   2.687   1.301
 2961SOL    HW2 8895   4.092   2.588   1.278
 2962SOL     OW 8896   3.788   3.426   1.331
 2962SOL    HW1 8897   3.742   3.508   1.297
 2962SOL    HW2 8898   3.886   3.445   1.340
 2963SOL     OW 8899   4.091   2.962   0.501
 2963SOL    HW1 8900   4.084   3.045   0.445
 2963SOL    HW2 8901   4.095   2.882   0.441
 2964SOL     OW 8902   4.290   2.399   0.865
 2964SOL    HW1 8903   4.302   2.465   0.791
 2964SOL    HW2 8904   4.336   2.433   0.948
 2965SOL     OW 8905   4.078   3.372   1.329
 2965SOL    HW1 8906   4.057   3.328   1.242
 2965SOL    HW2 8907   4.175   3.398   1.332
 2966SOL     OW 8908   4.126   2.613   1.598
 2966SOL    HW1 8909   4.194   2.668   1.551
 2966SOL    HW2 8910   4.166   2.525   1.625
 2967SOL     OW 8911   4.228   1.912   1.740
 2967SOL    HW1 8912   4.186   1.855   1.670
 2967SOL    HW2 8913   4.162   1.981   1.772
 2968SOL     OW 8914   4.297   2.732   1.029
 2968SOL    HW1 8915   4.341   2.821   1.020
 2968SOL    HW2 8916   4.234   2.732   1.106
 2969SOL     OW 8917   4.031   2.075   1.231
 2969SOL    HW1 8918   4.008   2.112   1.321
 2969SOL    HW2 8919   4.001   1.980   1.225
 2970SOL     OW 8920   3.761   3.172   1.282
 2970SOL    HW1 8921   3.814   3.123   1.350
 2970SOL    HW2 8922   3.783   3.270   1.287
 2971SOL     OW 8923   4.456   2.496   1.064
 2971SOL    HW1 8924   4.515   2.470   0.988
 2971SOL    HW2 8925   4.428   2.592   1.053
 2972SOL     OW 8926   4.031   1.925   0.618
 2972SOL    HW1 8927   4.020   2.019   0.651
 2972SOL    HW2 8928   4.026   1.862   0.695
 2973SOL     OW 8929   4.747   2.628   0.966
 2973SOL    HW1 8930   4.762   2.649   1.062
 2973SOL    HW2 8931   4.717   2.533   0.957
 2974SOL     OW 8932   4.704   3.435   1.700
 2974SOL    HW1 8933   4.684   3.479   1.612
 2974SOL    HW2 8934   4.743   3.344   1.684
 2975SOL     OW 8935   4.074   2.760   1.804
 2975SOL    HW1 8936   4.150   2.804   1.852
 2975SOL    HW2 8937   4.109   2.713   1.722
 2976SOL     OW 8938   4.043   2.672   0.949
 2976SOL    HW1 8939   4.136   2.708   0.954
 2976SOL    HW2 8940   4.037   2.587   1.001
 2977SOL     OW 8941   4.063   2.371   1.006
 2977SOL    HW1 8942   4.011   2.288   0.989
 2977SOL    HW2 8943   4.140   2.376   0.942
 2978SOL     OW 8944   3.732   3.188   0.200
 2978SOL    HW1 8945   3.639   3.209   0.169
 2978SOL    HW2 8946   3.742   3.089   0.213
 2979SOL     OW 8947   3.812   3.663   0.927
 2979SOL    HW1 8948   3.770   3.577   0.900
 2979SOL    HW2 8949   3.906   3.666   0.893
 2980SOL     OW 8950   4.228   3.430   0.910
 2980SOL    HW1 8951   4.294   3.504   0.919
 2980SOL    HW2 8952   4.272   3.351   0.868
 2981SOL     OW 8953   3.764   2.406   1.114
 2981SOL    HW1 8954   3.849   2.373   1.073
 2981SOL    HW2 8955   3.777   2.421   1.212
 2982SOL     OW 8956   3.913   2.382   1.722
 2982SOL    HW1 8957   3.972   2.342   1.652
 2982SOL    HW2 8958   3.855   2.453   1.681
 2983SOL     OW 8959   4.539   2.434   0.325
 2983SOL    HW1 8960   4.546   2.345   0.279
 2983SOL    HW2 8961   4.445   2.468   0.317
 2984SOL     OW 8962   3.976   3.426   1.744
 2984SOL    HW1 8963   3.946   3.483   1.820
 2984SOL    HW2 8964   3.969   3.329   1.770
 2985SOL     OW 8965   4.395   2.326   1.269
 2985SOL    HW1 8966   4.361   2.237   1.239
 2985SOL    HW2 8967   4.421   2.380   1.189
 2986SOL     OW 8968   4.197   2.362   0.191
 2986SOL    HW1 8969   4.258   2.442   0.195
 2986SOL    HW2 8970   4.102   2.393   0.198
 2987SOL     OW 8971   3.883   2.999   1.466
 2987SOL    HW1 8972   3.905   2.938   1.542
 2987SOL    HW2 8973   3.893   2.950   1.380
 2988SOL     OW 8974   3.807   3.120   1.022
 2988SOL    HW1 8975   3.802   3.119   1.122
 2988SOL    HW2 8976   3.724   3.079   0.984
 2989SOL     OW 8977   4.412   3.524   1.716
 2989SOL    HW1 8978   4.356   3.605   1.725
 2989SOL    HW2 8979   4.464   3.528   1.630
 2990SOL     OW 8980   4.627   1.948   0.133
 2990SOL    HW1 8981   4.678   1.949   0.047
 2990SOL    HW2 8982   4.683   1.906   0.204
 2991SOL     OW 8983   3.854   3.656   1.851
 2991SOL    HW1 8984   3.813   3.582   1.904
 2991SOL    HW2 8985   3.918   3.707   1.909
 2992SOL     OW 8986   4.554   3.135   1.422
 2992SOL    HW1 8987   4.549   3.168   1.517
 2992SOL    HW2 8988   4.468   3.154   1.376
 2993SOL     OW 8989   4.396   3.478   0.154
 2993SOL    HW1 8990   4.405   3.488   0.055
 2993SOL    HW2 8991   4.356   3.389   0.175
 2994SOL     OW 8992   3.987   2.188   0.720
 2994SOL    HW1 8993   3.908   2.239   0.686
 2994SOL    HW2 8994   3.978   2.173   0.818
 2995SOL     OW 8995   4.918   3.474   0.031
 2995SOL    HW1 8996   4.924   3.381   0.068
 2995SOL    HW2 8997   4.859   3.474  -0.049
 2996SOL     OW 8998   4.546   2.864   1.372
 2996SOL    HW1 8999   4.586   2.863   1.280
 2996SOL    HW2 9000   4.556   2.956   1.412
 2997SOL     OW 9001   4.096   3.150   1.490
 2997SOL    HW1 9002   4.083   3.243   1.456
 2997SOL    HW2 9003   4.012   3.098   1.477
 2998SOL     OW 9004   4.314   3.349   0.491
 2998SOL    HW1 9005   4.356   3.291   0.421
 2998SOL    HW2 9006   4.270   3.428   0.447
 2999SOL     OW 9007   3.979   3.210   0.290
 2999SOL    HW1 9008   3.883   3.211   0.263
 2999SOL    HW2 9009   3.991   3.263   0.374
 3000SOL     OW 9010   3.829   2.875   1.726
 3000SOL    HW1 9011   3.752   2.842   1.780
 3000SOL    HW2 9012   3.914   2.845   1.768
 3001SOL     OW 9013   4.396   2.065   1.489
 3001SOL    HW1 9014   4.486   2.049   1.449
 3001SOL    HW2 9015   4.404   2.070   1.588
 3002SOL     OW 9016   3.796   2.028   0.318
 3002SOL    HW1 9017   3.779   2.111   0.264
 3002SOL    HW2 9018   3.886   1.991   0.296
 3003SOL     OW 9019   4.337   2.704   1.431
 3003SOL    HW1 9020   4.393   2.785   1.414
 3003SOL    HW2 9021   4.396   2.624   1.434
 3004SOL     OW 9022   4.440   2.427   1.708
 3004SOL    HW1 9023   4.459   2.492   1.782
 3004SOL    HW2 9024   4.500   2.347   1.717
 3005SOL     OW 9025   4.114   3.603   1.560
 3005SOL    HW1 9026   4.023   3.644   1.558
 3005SOL    HW2 9027   4.107   3.509   1.592
 3006SOL     OW 9028   4.318   2.607   0.652
 3006SOL    HW1 9029   4.368   2.692   0.633
 3006SOL    HW2 9030   4.230   2.609   0.604
 3007SOL     OW 9031   4.385   3.652   0.953
 3007SOL    HW1 9032   4.339   3.740   0.940
 3007SOL    HW2 9033   4.484   3.664   0.946
 3008SOL     OW 9034   4.583   2.818   0.861
 3008SOL    HW1 9035   4.637   2.749   0.909
 3008SOL    HW2 9036   4.551   2.887   0.927
 3009SOL     OW 9037   3.945   3.176   1.844
 3009SOL    HW1 9038   3.880   3.103   1.823
 3009SOL    HW2 9039   3.949   3.190   1.942
 3010SOL     OW 9040   3.803   3.102   0.653
 3010SOL    HW1 9041   3.802   3.055   0.741
 3010SOL    HW2 9042   3.885   3.074   0.602
 3011SOL     OW 9043   4.396   3.253   1.624
 3011SOL    HW1 9044   4.318   3.203   1.662
 3011SOL    HW2 9045   4.393   3.348   1.655
 3012SOL     OW 9046   4.152   2.286   0.520
 3012SOL    HW1 9047   4.182   2.214   0.458
 3012SOL    HW2 9048   4.113   2.246   0.603
 3013SOL     OW 9049   4.041   2.409   1.280
 3013SOL    HW1 9050   4.079   2.350   1.352
 3013SOL    HW2 9051   4.081   2.383   1.192
 3014SOL     OW 9052   4.536   3.448   0.687
 3014SOL    HW1 9053   4.568   3.458   0.593
 3014SOL    HW2 9054   4.457   3.386   0.689
 3015SOL     OW 9055   4.725   1.896   1.154
 3015SOL    HW1 9056   4.662   1.824   1.123
 3015SOL    HW2 9057   4.818   1.860   1.154
 3016SOL     OW 9058   4.494   3.192   0.301
 3016SOL    HW1 9059   4.448   3.105   0.318
 3016SOL    HW2 9060   4.585   3.189   0.342
 3017SOL     OW 9061   4.342   3.429   1.284
 3017SOL    HW1 9062   4.337   3.511   1.341
 3017SOL    HW2 9063   4.431   3.426   1.239
 3018SOL     OW 9064   3.763   2.939   0.300
 3018SOL    HW1 9065   3.862   2.928   0.291
 3018SOL    HW2 9066   3.723   2.853   0.332
 3019SOL     OW 9067   4.599   3.508   0.337
 3019SOL    HW1 9068   4.522   3.473   0.283
 3019SOL    HW2 9069   4.567   3.579   0.399
 3020SOL     OW 9070   3.954   2.490   1.975
 3020SOL    HW1 9071   3.861   2.488   2.012
 3020SOL    HW2 9072   3.955   2.451   1.883
 3021SOL     OW 9073   3.949   2.137   2.858
 3021SOL    HW1 9074   3.984   2.120   2.950
 3021SOL    HW2 9075   3.861   2.092   2.846
 3022SOL     OW 9076   3.743   2.230   2.509
 3022SOL    HW1 9077   3.661   2.273   2.548
 3022SOL    HW2 9078   3.715   2.157   2.446
 3023SOL     OW 9079   4.293   3.137   3.027
 3023SOL    HW1 9080   4.200   3.130   2.990
 3023SOL    HW2 9081   4.304   3.226   3.071
 3024SOL     OW 9082   4.492   3.006   2.885
 3024SOL    HW1 9083   4.414   3.023   2.945
 3024SOL    HW2 9084   4.526   3.093   2.849
 3025SOL     OW 9085   4.574   2.660   3.685
 3025SOL    HW1 9086   4.570   2.736   3.750
 3025SOL    HW2 9087   4.596   2.696   3.594
 3026SOL     OW 9088   4.409   2.874   2.527
 3026SOL    HW1 9089   4.478   2.858   2.597
 3026SOL    HW2 9090   4.336   2.931   2.565
 3027SOL     OW 9091   4.410   3.023   3.665
 3027SOL    HW1 9092   4.470   3.102   3.679
 3027SOL    HW2 9093   4.324   3.054   3.624
 3028SOL     OW 9094   4.059   3.297   2.923
 3028SOL    HW1 9095   3.981   3.266   2.870
 3028SOL    HW2 9096   4.117   3.355   2.866
 3029SOL     OW 9097   4.162   2.254   3.361
 3029SOL    HW1 9098   4.244   2.198   3.370
 3029SOL    HW2 9099   4.081   2.196   3.365
 3030SOL     OW 9100   3.955   3.575   2.345
 3030SOL    HW1 9101   3.989   3.652   2.399
 3030SOL    HW2 9102   3.999   3.575   2.255
 3031SOL     OW 9103   3.954   3.296   2.400
 3031SOL    HW1 9104   3.928   3.392   2.400
 3031SOL    HW2 9105   3.883   3.242   2.445
 3032SOL     OW 9106   3.964   2.953   2.748
 3032SOL    HW1 9107   3.978   2.869   2.800
 3032SOL    HW2 9108   3.909   3.017   2.803
 3033SOL     OW 9109   4.344   3.648   3.301
 3033SOL    HW1 9110   4.252   3.631   3.336
 3033SOL    HW2 9111   4.372   3.740   3.327
 3034SOL     OW 9112   4.330   2.826   1.985
 3034SOL    HW1 9113   4.337   2.910   1.931
 3034SOL    HW2 9114   4.376   2.839   2.073
 3035SOL     OW 9115   3.846   2.505   2.425
 3035SOL    HW1 9116   3.801   2.417   2.442
 3035SOL    HW2 9117   3.845   2.559   2.509
 3036SOL     OW 9118   3.751   3.458   1.979
 3036SOL    HW1 9119   3.732   3.362   2.000
 3036SOL    HW2 9120   3.718   3.516   2.054
 3037SOL     OW 9121   3.837   2.599   3.459
 3037SOL    HW1 9122   3.925   2.586   3.504
 3037SOL    HW2 9123   3.824   2.696   3.437
 3038SOL     OW 9124   4.337   3.227   2.588
 3038SOL    HW1 9125   4.288   3.140   2.597
 3038SOL    HW2 9126   4.314   3.270   2.501
 3039SOL     OW 9127   4.533   1.866   2.364
 3039SOL    HW1 9128   4.573   1.957   2.355
 3039SOL    HW2 9129   4.433   1.874   2.370
 3040SOL     OW 9130   3.921   2.838   3.126
 3040SOL    HW1 9131   4.010   2.793   3.112
 3040SOL    HW2 9132   3.848   2.773   3.107
 3041SOL     OW 9133   4.041   2.113   3.663
 3041SOL    HW1 9134   4.112   2.184   3.669
 3041SOL    HW2 9135   3.953   2.152   3.691
 3042SOL     OW 9136   4.322   2.591   2.132
 3042SOL    HW1 9137   4.346   2.660   2.064
 3042SOL    HW2 9138   4.244   2.624   2.186
 3043SOL     OW 9139   4.531   2.467   3.327
 3043SOL    HW1 9140   4.484   2.464   3.416
 3043SOL    HW2 9141   4.480   2.412   3.261
 3044SOL     OW 9142   3.800   2.673   2.651
 3044SOL    HW1 9143   3.899   2.661   2.660
 3044SOL    HW2 9144   3.776   2.768   2.672
 3045SOL     OW 9145   3.854   3.683   3.433
 3045SOL    HW1 9146   3.844   3.668   3.532
 3045SOL    HW2 9147   3.768   3.719   3.397
 3046SOL     OW 9148   4.589   2.210   2.057
 3046SOL    HW1 9149   4.648   2.273   2.008
 3046SOL    HW2 9150   4.608   2.116   2.028
 3047SOL     OW 9151   4.274   2.058   2.747
 3047SOL    HW1 9152   4.269   2.053   2.847
 3047SOL    HW2 9153   4.276   2.154   2.718
 3048SOL     OW 9154   4.732   3.318   2.339
 3048SOL    HW1 9155   4.686   3.390   2.287
 3048SOL    HW2 9156   4.728   3.338   2.437
 3049SOL     OW 9157   4.075   3.663   2.715
 3049SOL    HW1 9158   4.125   3.577   2.721
 3049SOL    HW2 9159   4.140   3.740   2.712
 3050SOL     OW 9160   4.045   2.805   2.104
 3050SOL    HW1 9161   4.127   2.844   2.062
 3050SOL    HW2 9162   4.018   2.723   2.055
 3051SOL     OW 9163   4.185   3.128   3.589
 3051SOL    HW1 9164   4.135   3.129   3.503
 3051SOL    HW2 9165   4.122   3.110   3.665
 3052SOL     OW 9166   4.835   3.638   2.099
 3052SOL    HW1 9167   4.775   3.576   2.149
 3052SOL    HW2 9168   4.866   3.594   2.014
 3053SOL     OW 9169   3.926   2.147   3.360
 3053SOL    HW1 9170   3.846   2.207   3.347
 3053SOL    HW2 9171   3.916   2.098   3.446
 3054SOL     OW 9172   4.188   3.605   2.185
 3054SOL    HW1 9173   4.221   3.644   2.271
 3054SOL    HW2 9174   4.264   3.598   2.120
 3055SOL     OW 9175   3.973   3.647   3.103
 3055SOL    HW1 9176   4.030   3.582   3.153
 3055SOL    HW2 9177   3.957   3.614   3.010
 3056SOL     OW 9178   4.106   2.562   2.342
 3056SOL    HW1 9179   4.151   2.472   2.339
 3056SOL    HW2 9180   4.012   2.551   2.375
 3057SOL     OW 9181   4.338   1.984   1.979
 3057SOL    HW1 9182   4.436   1.962   1.986
 3057SOL    HW2 9183   4.307   1.967   1.886
 3058SOL     OW 9184   4.505   2.126   3.611
 3058SOL    HW1 9185   4.572   2.065   3.654
 3058SOL    HW2 9186   4.432   2.145   3.676
 3059SOL     OW 9187   4.527   3.264   2.786
 3059SOL    HW1 9188   4.617   3.278   2.744
 3059SOL    HW2 9189   4.456   3.266   2.715
 3060SOL     OW 9190   4.646   2.365   2.761
 3060SOL    HW1 9191   4.621   2.356   2.665
 3060SOL    HW2 9192   4.694   2.283   2.792
 3061SOL     OW 9193   4.263   1.926   2.374
 3061SOL    HW1 9194   4.182   1.927   2.432
 3061SOL    HW2 9195   4.266   2.009   2.319
 3062SOL     OW 9196   4.021   1.897   2.033
 3062SOL    HW1 9197   4.070   1.981   2.012
 3062SOL    HW2 9198   4.083   1.832   2.078
 3063SOL     OW 9199   4.183   3.014   2.603
 3063SOL    HW1 9200   4.112   2.987   2.668
 3063SOL    HW2 9201   4.157   2.986   2.510
 3064SOL     OW 9202   3.802   2.418   3.248
 3064SOL    HW1 9203   3.894   2.417   3.207
 3064SOL    HW2 9204   3.796   2.492   3.315
 3065SOL     OW 9205   4.285   2.084   3.009
 3065SOL    HW1 9206   4.323   2.000   3.046
 3065SOL    HW2 9207   4.197   2.103   3.053
 3066SOL     OW 9208   4.212   3.247   2.036
 3066SOL    HW1 9209   4.125   3.232   2.083
 3066SOL    HW2 9210   4.195   3.273   1.941
 3067SOL     OW 9211   4.251   2.118   2.190
 3067SOL    HW1 9212   4.278   2.059   2.115
 3067SOL    HW2 9213   4.251   2.213   2.159
 3068SOL     OW 9214   4.639   1.951   3.264
 3068SOL    HW1 9215   4.664   1.931   3.169
 3068SOL    HW2 9216   4.711   2.007   3.306
 3069SOL     OW 9217   4.429   2.912   2.230
 3069SOL    HW1 9218   4.415   2.919   2.329
 3069SOL    HW2 9219   4.513   2.861   2.212
 3070SOL     OW 9220   4.134   2.675   3.113
 3070SOL    HW1 9221   4.220   2.687   3.163
 3070SOL    HW2 9222   4.092   2.588   3.140
 3071SOL     OW 9223   3.788   3.426   3.193
 3071SOL    HW1 9224   3.742   3.508   3.159
 3071SOL    HW2 9225   3.886   3.445   3.202
 3072SOL     OW 9226   4.091   2.962   2.363
 3072SOL    HW1 9227   4.084   3.045   2.307
 3072SOL    HW2 9228   4.095   2.882   2.303
 3073SOL     OW 9229   4.290   2.399   2.727
 3073SOL    HW1 9230   4.302   2.465   2.653
 3073SOL    HW2 9231   4.336   2.433   2.810
 3074SOL     OW 9232   4.078   3.372   3.191
 3074SOL    HW1 9233   4.057   3.328   3.104
 3074SOL    HW2 9234   4.175   3.398   3.194
 3075SOL     OW 9235   4.126   2.613   3.460
 3075SOL    HW1 9236   4.194   2.668   3.413
 3075SOL    HW2 9237   4.166   2.525   3.487
 3076SOL     OW 9238   4.228   1.912   3.602
 3076SOL    HW1 9239   4.186   1.855   3.532
 3076SOL    HW2 9240   4.162   1.981   3.634
 3077SOL     OW 9241   4.297   2.732   2.891
 3077SOL    HW1 9242   4.341   2.821   2.882
 3077SOL    HW2 9243   4.234   2.732   2.968
 3078SOL     OW 9244   4.031   2.075   3.093
 3078SOL    HW1 9245   4.008   2.112   3.183
 3078SOL    HW2 9246   4.001   1.980   3.087
 3079SOL     OW 9247   3.761   3.172   3.144
 3079SOL    HW1 9248   3.814   3.123   3.212
 3079SOL    HW2 9249   3.783   3.270   3.149
 3080SOL     OW 9250   4.456   2.496   2.926
 3080SOL    HW1 9251   4.515   2.470   2.850
 3080SOL    HW2 9252   4.428   2.592   2.915
 3081SOL     OW 9253   4.031   1.925   2.480
 3081SOL    HW1 9254   4.020   2.019   2.513
 3081SOL    HW2 9255   4.026   1.862   2.557
 3082SOL     OW 9256   4.747   2.628   2.828
 3082SOL    HW1 9257   4.762   2.649   2.924
 3082SOL    HW2 9258   4.717   2.533   2.819
 3083SOL     OW 9259   4.704   3.435   3.562
 3083SOL    HW1 9260   4.684   3.479   3.474
 3083SOL    HW2 9261   4.743   3.344   3.546
 3084SOL     OW 9262   4.074   2.760   3.666
 3084SOL    HW1 9263   4.150   2.804   3.714
 3084SOL    HW2 9264   4.109   2.713   3.584
 3085SOL     OW 9265   4.043   2.672   2.811
 3085SOL    HW1 9266   4.136   2.708   2.816
 3085SOL    HW2 9267   4.037   2.587   2.863
 3086SOL     OW 9268   4.063   2.371   2.868
 3086SOL    HW1 9269   4.011   2.288   2.851
 3086SOL    HW2 9270   4.140   2.376   2.804
 3087SOL     OW 9271   3.732   3.188   2.062
 3087SOL    HW1 9272   3.639   3.209   2.031
 3087SOL    HW2 9273   3.742   3.089   2.075
 3088SOL     OW 9274   3.812   3.663   2.789
 3088SOL    HW1 9275   3.770   3.577   2.762
 3088SOL    HW2 9276   3.906   3.666   2.755
 3089SOL     OW 9277   4.228   3.430   2.772
 3089SOL    HW1 9278   4.294   3.504   2.781
 3089SOL    HW2 9279   4.272   3.351   2.730
 3090SOL     OW 9280   3.764   2.406   2.976
 3090SOL    HW1 9281   3.849   2.373   2.935
 3090SOL    HW2 9282   3.777   2.421   3.074
 3091SOL     OW 9283   3.913   2.382   3.584
 3091SOL    HW1 9284   3.972   2.342   3.514
 3091SOL    HW2 9285   3.855   2.453   3.543
 3092SOL     OW 9286   4.539   2.434   2.187
 3092SOL    HW1 9287   4.546   2.345   2.141
 3092SOL    HW2 9288   4.445   2.468   2.179
 3093SOL     OW 9289   3.976   3.426   3.606
 3093SOL    HW1 9290   3.946   3.483   3.682
 3093SOL    HW2 9291   3.969   3.329   3.632
 3094SOL     OW 9292   4.395   2.326   3.131
 3094SOL    HW1 9293   4.361   2.237   3.101
 3094SOL    HW2 9294   4.421   2.380   3.051
 3095SOL     OW 9295   4.197   2.362   2.053
 3095SOL    HW1 9296   4.258   2.442   2.057
 3095SOL    HW2 9297   4.102   2.393   2.060
 3096SOL     OW 9298   3.883   2.999   3.328
 3096SOL    HW1 9299   3.905   2.938   3.404
 3096SOL    HW2 9300   3.893   2.950   3.242
 3097SOL     OW 9301   3.807   3.120   2.884
 3097SOL    HW1 9302   3.802   3.119   2.984
 3097SOL    HW2 9303   3.724   3.079   2.846
 3098SOL     OW 9304   4.412   3.524   3.578
 3098SOL    HW1 9305   4.356   3.605   3.587
 3098SOL    HW2 9306   4.464   3.528   3.492
 3099SOL     OW 9307   4.627   1.948   1.995
 3099SOL    HW1 9308   4.678   1.949   1.909
 3099SOL    HW2 9309   4.683   1.906   2.066
 3100SOL     OW 9310   3.854   3.656   3.713
 3100SOL    HW1 9311   3.813   3.582   3.766
 3100SOL    HW2 9312   3.918   3.707   3.771
 3101SOL     OW 9313   4.554   3.135   3.284
 3101SOL    HW1 9314   4.549   3.168   3.379
 3101SOL    HW2 9315   4.468   3.154   3.238
 3102SOL     OW 9316   4.396   3.478   2.016
 3102SOL    HW1 9317   4.405   3.488   1.917
 3102SOL    HW2 9318   4.356   3.389   2.037
 3103SOL     OW 9319   3.987   2.188   2.582
 3103SOL    HW1 9320   3.908   2.239   2.548
 3103SOL    HW2 9321   3.978   2.173   2.680
 3104SOL     OW 9322   4.546   2.864   3.234
 3104SOL    HW1 9323   4.586   2.863   3.142
 3104SOL    HW2 9324   4.556   2.956   3.274
 3105SOL     OW 9325   4.096   3.150   3.352
 3105SOL    HW1 9326   4.083   3.243   3.318
 3105SOL    HW2 9327   4.012   3.098   3.339
 3106SOL     OW 9328   4.314   3.349   2.353
 3106SOL    HW1 9329   4.356   3.291   2.283
 3106SOL    HW2 9330   4.270   3.428   2.309
 3107SOL     OW 9331   3.979   3.210   2.152
 3107SOL    HW1 9332   3.883   3.211   2.125
 3107SOL    HW2 9333   3.991   3.263   2.236
 3108SOL     OW 9334   3.829   2.875   3.588
 3108SOL    HW1 9335   3.752   2.842   3.642
 3108SOL    HW2 9336   3.914   2.845   3.630
 3109SOL     OW 9337   4.396   2.065   3.351
 3109SOL    HW1 9338   4.486   2.049   3.311
 3109SOL    HW2 9339   4.404   2.070   3.450
 3110SOL     OW 9340   3.799   2.207   1.895
 3110SOL    HW1 9341   3.707   2.179   1.866
 3110SOL    HW2 9342   3.830   2.284   1.839
 3111SOL     OW 9343   3.796   2.028   2.180
 3111SOL    HW1 9344   3.779   2.111   2.126
 3111SOL    HW2 9345   3.886   1.991   2.158
 3112SOL     OW 9346   4.337   2.704   3.293
 3112SOL    HW1 9347   4.393   2.785   3.276
 3112SOL    HW2 9348   4.396   2.624   3.296
 3113SOL     OW 9349   4.440   2.427   3.570
 3113SOL    HW1 9350   4.459   2.492   3.644
 3113SOL    HW2 9351   4.500   2.347   3.579
 3114SOL     OW 9352   4.114   3.603   3.422
 3114SOL    HW1 9353   4.023   3.644   3.420
 3114SOL    HW2 9354   4.107   3.509   3.454
 3115SOL     OW 9355   4.318   2.607   2.514
 3115SOL    HW1 9356   4.368   2.692   2.495
 3115SOL    HW2 9357   4.230   2.609   2.466
 3116SOL     OW 9358   4.385   3.652   2.815
 3116SOL    HW1 9359   4.339   3.740   2.802
 3116SOL    HW2 9360   4.484   3.664   2.808
 3117SOL     OW 9361   4.583   2.818   2.723
 3117SOL    HW1 9362   4.637   2.749   2.771
 3117SOL    HW2 9363   4.551   2.887   2.789
 3118SOL     OW 9364   3.945   3.176   3.706
 3118SOL    HW1 9365   3.880   3.103   3.685
 3118SOL    HW2 9366   3.949   3.190   3.804
 3119SOL     OW 9367   3.803   3.102   2.515
 3119SOL    HW1 9368   3.802   3.055   2.603
 3119SOL    HW2 9369   3.885   3.074   2.464
 3120SOL     OW 9370   4.396   3.253   3.486
 3120SOL    HW1 9371   4.318   3.203   3.524
 3120SOL    HW2 9372   4.393   3.348   3.517
 3121SOL     OW 9373   4.152   2.286   2.382
 3121SOL    HW1 9374   4.182   2.214   2.320
 3121SOL    HW2 9375   4.113   2.246   2.465
 3122SOL     OW 9376   4.041   2.409   3.142
 3122SOL    HW1 9377   4.079   2.350   3.214
 3122SOL    HW2 9378   4.081   2.383   3.054
 3123SOL     OW 9379   4.536   3.448   2.549
 3123SOL    HW1 9380   4.568   3.458   2.455
 3123SOL    HW2 9381   4.457   3.386   2.551
 3124SOL     OW 9382   4.725   1.896   3.016
 3124SOL    HW1 9383   4.662   1.824   2.985
 3124SOL    HW2 9384   4.818   1.860   3.016
 3125SOL     OW 9385   4.494   3.192   2.163
 3125SOL    HW1 9386   4.448   3.105   2.180
 3125SOL    HW2 9387   4.585   3.189   2.204
 3126SOL     OW 9388   4.342   3.429   3.146
 3126SOL    HW1 9389   4.337   3.511   3.203
 3126SOL    HW2 9390   4.431   3.426   3.101
 3127SOL     OW 9391   3.763   2.939   2.162
 3127SOL    HW1 9392   3.862   2.928   2.153
 3127SOL    HW2 9393   3.723   2.853   2.194
 3128SOL     OW 9394   4.599   3.508   2.199
 3128SOL    HW1 9395   4.522   3.473   2.145
 3128SOL    HW2 9396   4.567   3.579   2.261
 3129SOL     OW 9397   3.954   2.490   3.837
 3129SOL    HW1 9398   3.861   2.488   3.874
 3129SOL    HW2 9399   3.955   2.451   3.745
 3130SOL     OW 9400   3.949   2.137   4.720
 3130SOL    HW1 9401   3.984   2.120   4.812
 3130SOL    HW2 9402   3.861   2.092   4.708
 3131SOL     OW 9403   3.743   2.230   4.371
 3131SOL    HW1 9404   3.661   2.273   4.410
 3131SOL    HW2 9405   3.715   2.157   4.308
 3132SOL     OW 9406   4.492   3.006   4.747
 3132SOL    HW1 9407   4.414   3.023   4.807
 3132SOL    HW2 9408   4.526   3.093   4.711
 3133SOL     OW 9409   4.409   2.874   4.389
 3133SOL    HW1 9410   4.478   2.858   4.459
 3133SOL    HW2 9411   4.336   2.931   4.427
 3134SOL     OW 9412   3.955   3.575   4.207
 3134SOL    HW1 9413   3.989   3.652   4.261
 3134SOL    HW2 9414   3.999   3.575   4.117
 3135SOL     OW 9415   3.954   3.296   4.262
 3135SOL    HW1 9416   3.928   3.392   4.262
 3135SOL    HW2 9417   3.883   3.242   4.307
 3136SOL     OW 9418   3.964   2.953   4.610
 3136SOL    HW1 9419   3.978   2.869   4.662
 3136SOL    HW2 9420   3.909   3.017   4.665
 3137SOL     OW 9421   4.330   2.826   3.847
 3137SOL    HW1 9422   4.337   2.910   3.793
 3137SOL    HW2 9423   4.376   2.839   3.935
 3138SOL     OW 9424   3.846   2.505   4.287
 3138SOL    HW1 9425   3.801   2.417   4.304
 3138SOL    HW2 9426   3.845   2.559   4.371
 3139SOL     OW 9427   3.751   3.458   3.841
 3139SOL    HW1 9428   3.732   3.362   3.862
 3139SOL    HW2 9429   3.718   3.516   3.916
 3140SOL     OW 9430   4.337   3.227   4.450
 3140SOL    HW1 9431   4.288   3.140   4.459
 3140SOL    HW2 9432   4.314   3.270   4.363
 3141SOL     OW 9433   4.533   1.866   4.226
 3141SOL    HW1 9434   4.573   1.957   4.217
 3141SOL    HW2 9435   4.433   1.874   4.232
 3142SOL     OW 9436   4.322   2.591   3.994
 3142SOL    HW1 9437   4.346   2.660   3.926
 3142SOL    HW2 9438   4.244   2.624   4.048
 3143SOL     OW 9439   3.800   2.673   4.513
 3143SOL    HW1 9440   3.899   2.661   4.522
 3143SOL    HW2 9441   3.776   2.768   4.534
 3144SOL     OW 9442   4.589   2.210   3.919
 3144SOL    HW1 9443   4.648   2.273   3.870
 3144SOL    HW2 9444   4.608   2.116   3.890
 3145SOL     OW 9445   4.274   2.058   4.609
 3145SOL    HW1 9446   4.269   2.053   4.709
 3145SOL    HW2 9447   4.276   2.154   4.580
 3146SOL     OW 9448   4.732   3.318   4.201
 3146SOL    HW1 9449   4.686   3.390   4.149
 3146SOL    HW2 9450   4.728   3.338   4.299
 3147SOL     OW 9451   4.075   3.663   4.577
 3147SOL    HW1 9452   4.125   3.577   4.583
 3147SOL    HW2 9453   4.140   3.740   4.574
 3148SOL     OW 9454   4.045   2.805   3.966
 3148SOL    HW1 9455   4.127   2.844   3.924
 3148SOL    HW2 9456   4.018   2.723   3.917
 3149SOL     OW 9457   4.835   3.638   3.961
 3149SOL    HW1 9458   4.775   3.576   4.011
 3149SOL    HW2 9459   4.866   3.594   3.876
 3150SOL     OW 9460   4.188   3.605   4.047
 3150SOL    HW1 9461   4.221   3.644   4.133
 3150SOL    HW2 9462   4.264   3.598   3.982
 3151SOL     OW 9463   4.106   2.562   4.204
 3151SOL    HW1 9464   4.151   2.472   4.201
 3151SOL    HW2 9465   4.012   2.551   4.237
 3152SOL     OW 9466   4.338   1.984   3.841
 3152SOL    HW1 9467   4.436   1.962   3.848
 3152SOL    HW2 9468   4.307   1.967   3.748
 3153SOL     OW 9469   4.527   3.264   4.648
 3153SOL    HW1 9470   4.617   3.278   4.606
 3153SOL    HW2 9471   4.456   3.266   4.577
 3154SOL     OW 9472   4.263   1.926   4.236
 3154SOL    HW1 9473   4.182   1.927   4.294
 3154SOL    HW2 9474   4.266   2.009   4.181
 3155SOL     OW 9475   4.021   1.897   3.895
 3155SOL    HW1 9476   4.070   1.981   3.874
 3155SOL    HW2 9477   4.083   1.832   3.940
 3156SOL     OW 9478   4.183   3.014   4.465
 3156SOL    HW1 9479   4.112   2.987   4.530
 3156SOL    HW2 9480   4.157   2.986   4.372
 3157SOL     OW 9481   4.212   3.247   3.898
 3157SOL    HW1 9482   4.125   3.232   3.945
 3157SOL    HW2 9483   4.195   3.273   3.803
 3158SOL     OW 9484   4.251   2.118   4.052
 3158SOL    HW1 9485   4.278   2.059   3.977
 3158SOL    HW2 9486   4.251   2.213   4.021
 3159SOL     OW 9487   4.429   2.912   4.092
 3159SOL    HW1 9488   4.415   2.919   4.191
 3159SOL    HW2 9489   4.513   2.861   4.074
 3160SOL     OW 9490   4.998   2.248   4.986
 3160SOL    HW1 9491   5.019   2.322   5.050
 3160SOL    HW2 9492   4.909   2.265   4.943
 3161SOL     OW 9493   4.091   2.962   4.225
 3161SOL    HW1 9494   4.084   3.045   4.169
 3161SOL    HW2 9495   4.095   2.882   4.165
 3162SOL     OW 9496   4.290   2.399   4.589
 3162SOL    HW1 9497   4.302   2.465   4.515
 3162SOL    HW2 9498   4.336   2.433   4.672
 3163SOL     OW 9499   4.456   2.496   4.788
 3163SOL    HW1 9500   4.515   2.470   4.712
 3163SOL    HW2 9501   4.428   2.592   4.777
 3164SOL     OW 9502   4.031   1.925   4.342
 3164SOL    HW1 9503   4.020   2.019   4.375
 3164SOL    HW2 9504   4.026   1.862   4.419
 3165SOL     OW 9505   4.747   2.628   4.690
 3165SOL    HW1 9506   4.762   2.649   4.786
 3165SOL    HW2 9507   4.717   2.533   4.681
 3166SOL     OW 9508   3.732   3.188   3.924
 3166SOL    HW1 9509   3.639   3.209   3.893
 3166SOL    HW2 9510   3.742   3.089   3.937
 3167SOL     OW 9511   3.812   3.663   4.651
 3167SOL    HW1 9512   3.770   3.577   4.624
 3167SOL    HW2 9513   3.906   3.666   4.617
 3168SOL     OW 9514   4.228   3.430   4.634
 3168SOL    HW1 9515   4.294   3.504   4.643
 3168SOL    HW2 9516   4.272   3.351   4.592
 3169SOL     OW 9517   4.539   2.434   4.049
 3169SOL    HW1 9518   4.546   2.345   4.003
 3169SOL    HW2 9519   4.445   2.468   4.041
 3170SOL     OW 9520   4.197   2.362   3.915
 3170SOL    HW1 9521   4.258   2.442   3.919
 3170SOL    HW2 9522   4.102   2.393   3.922
 3171SOL     OW 9523   4.627   1.948   3.857
 3171SOL    HW1 9524   4.678   1.949   3.771
 3171SOL    HW2 9525   4.683   1.906   3.928
 3172SOL     OW 9526   4.396   3.478   3.878
 3172SOL    HW1 9527   4.405   3.488   3.779
 3172SOL    HW2 9528   4.356   3.389   3.899
 3173SOL     OW 9529   3.987   2.188   4.444
 3173SOL    HW1 9530   3.908   2.239   4.410
 3173SOL    HW2 9531   3.978   2.173   4.542
 3174SOL     OW 9532   4.314   3.349   4.215
 3174SOL    HW1 9533   4.356   3.291   4.145
 3174SOL    HW2 9534   4.270   3.428   4.171
 3175SOL     OW 9535   3.979   3.210   4.014
 3175SOL    HW1 9536   3.883   3.211   3.987
 3175SOL    HW2 9537   3.991   3.263   4.098
 3176SOL     OW 9538   3.799   2.207   3.757
 3176SOL    HW1 9539   3.707   2.179   3.728
 3176SOL    HW2 9540   3.830   2.284   3.701
 3177SOL     OW 9541   3.796   2.028   4.042
 3177SOL    HW1 9542   3.779   2.111   3.988
 3177SOL    HW2 9543   3.886   1.991   4.020
 3178SOL     OW 9544   4.318   2.607   4.376
 3178SOL    HW1 9545   4.368   2.692   4.357
 3178SOL    HW2 9546   4.230   2.609   4.328
 3179SOL     OW 9547   4.385   3.652   4.677
 3179SOL    HW1 9548   4.339   3.740   4.664
 3179SOL    HW2 9549   4.484   3.664   4.670
 3180SOL     OW 9550   4.583   2.818   4.585
 3180SOL    HW1 9551   4.637   2.749   4.633
 3180SOL    HW2 9552   4.551   2.887   4.651
 3181SOL     OW 9553   3.803   3.102   4.377
 3181SOL    HW1 9554   3.802   3.055   4.465
 3181SOL    HW2 9555   3.885   3.074   4.326
 3182SOL     OW 9556   4.152   2.286   4.244
 3182SOL    HW1 9557   4.182   2.214   4.182
 3182SOL    HW2 9558   4.113   2.246   4.327
 3183SOL     OW 9559   4.536   3.448   4.411
 3183SOL    HW1 9560   4.568   3.458   4.317
 3183SOL    HW2 9561   4.457   3.386   4.413
 3184SOL     OW 9562   4.494   3.192   4.025
 3184SOL    HW1 9563   4.448   3.105   4.042
 3184SOL    HW2 9564   4.585   3.189   4.066
 3185SOL     OW 9565   3.763   2.939   4.024
 3185SOL    HW1 9566   3.862   2.928   4.015
 3185SOL    HW2 9567   3.723   2.853   4.056
 3186SOL     OW 9568   4.599   3.508   4.061
 3186SOL    HW1 9569   4.522   3.473   4.007
 3186SOL    HW2 9570   4.567   3.579   4.123
 3187SOL     OW 9571   3.954   4.352   0.113
 3187SOL    HW1 9572   3.861   4.350   0.150
 3187SOL    HW2 9573   3.955   4.313   0.021
 3188SOL     OW 9574   3.949   3.999   0.996
 3188SOL    HW1 9575   3.984   3.982   1.088
 3188SOL    HW2 9576   3.861   3.954   0.984
 3189SOL     OW 9577   3.743   4.092   0.647
 3189SOL    HW1 9578   3.661   4.135   0.686
 3189SOL    HW2 9579   3.715   4.019   0.584
 3190SOL     OW 9580   4.574   4.522   1.823
 3190SOL    HW1 9581   4.570   4.598   1.888
 3190SOL    HW2 9582   4.596   4.558   1.732
 3191SOL     OW 9583   4.409   4.736   0.665
 3191SOL    HW1 9584   4.478   4.720   0.735
 3191SOL    HW2 9585   4.336   4.793   0.703
 3192SOL     OW 9586   4.162   4.116   1.499
 3192SOL    HW1 9587   4.244   4.060   1.508
 3192SOL    HW2 9588   4.081   4.058   1.503
 3193SOL     OW 9589   3.846   4.367   0.563
 3193SOL    HW1 9590   3.801   4.279   0.580
 3193SOL    HW2 9591   3.845   4.421   0.647
 3194SOL     OW 9592   3.837   4.461   1.597
 3194SOL    HW1 9593   3.925   4.448   1.642
 3194SOL    HW2 9594   3.824   4.558   1.575
 3195SOL     OW 9595   4.533   3.728   0.502
 3195SOL    HW1 9596   4.573   3.819   0.493
 3195SOL    HW2 9597   4.433   3.736   0.508
 3196SOL     OW 9598   4.041   3.975   1.801
 3196SOL    HW1 9599   4.112   4.046   1.807
 3196SOL    HW2 9600   3.953   4.014   1.829
 3197SOL     OW 9601   4.322   4.453   0.270
 3197SOL    HW1 9602   4.346   4.522   0.202
 3197SOL    HW2 9603   4.244   4.486   0.324
 3198SOL     OW 9604   4.531   4.329   1.465
 3198SOL    HW1 9605   4.484   4.326   1.554
 3198SOL    HW2 9606   4.480   4.274   1.399
 3199SOL     OW 9607   3.800   4.535   0.789
 3199SOL    HW1 9608   3.899   4.523   0.798
 3199SOL    HW2 9609   3.776   4.630   0.810
 3200SOL     OW 9610   4.589   4.072   0.195
 3200SOL    HW1 9611   4.648   4.135   0.146
 3200SOL    HW2 9612   4.608   3.978   0.166
 3201SOL     OW 9613   4.274   3.920   0.885
 3201SOL    HW1 9614   4.269   3.915   0.985
 3201SOL    HW2 9615   4.276   4.016   0.856
 3202SOL     OW 9616   3.926   4.009   1.498
 3202SOL    HW1 9617   3.846   4.069   1.485
 3202SOL    HW2 9618   3.916   3.960   1.584
 3203SOL     OW 9619   4.106   4.424   0.480
 3203SOL    HW1 9620   4.151   4.334   0.477
 3203SOL    HW2 9621   4.012   4.413   0.513
 3204SOL     OW 9622   4.505   3.988   1.749
 3204SOL    HW1 9623   4.572   3.927   1.792
 3204SOL    HW2 9624   4.432   4.007   1.814
 3205SOL     OW 9625   4.646   4.227   0.899
 3205SOL    HW1 9626   4.621   4.218   0.803
 3205SOL    HW2 9627   4.694   4.145   0.930
 3206SOL     OW 9628   4.263   3.788   0.512
 3206SOL    HW1 9629   4.182   3.789   0.570
 3206SOL    HW2 9630   4.266   3.871   0.457
 3207SOL     OW 9631   4.021   3.759   0.171
 3207SOL    HW1 9632   4.070   3.843   0.150
 3207SOL    HW2 9633   4.083   3.694   0.216
 3208SOL     OW 9634   3.802   4.280   1.386
 3208SOL    HW1 9635   3.894   4.279   1.345
 3208SOL    HW2 9636   3.796   4.354   1.453
 3209SOL     OW 9637   4.285   3.946   1.147
 3209SOL    HW1 9638   4.323   3.862   1.184
 3209SOL    HW2 9639   4.197   3.965   1.191
 3210SOL     OW 9640   4.251   3.980   0.328
 3210SOL    HW1 9641   4.278   3.921   0.253
 3210SOL    HW2 9642   4.251   4.075   0.297
 3211SOL     OW 9643   4.639   3.813   1.402
 3211SOL    HW1 9644   4.664   3.793   1.307
 3211SOL    HW2 9645   4.711   3.869   1.444
 3212SOL     OW 9646   4.134   4.537   1.251
 3212SOL    HW1 9647   4.220   4.549   1.301
 3212SOL    HW2 9648   4.092   4.450   1.278
 3213SOL     OW 9649   4.290   4.261   0.865
 3213SOL    HW1 9650   4.302   4.327   0.791
 3213SOL    HW2 9651   4.336   4.295   0.948
 3214SOL     OW 9652   4.126   4.475   1.598
 3214SOL    HW1 9653   4.194   4.530   1.551
 3214SOL    HW2 9654   4.166   4.387   1.625
 3215SOL     OW 9655   4.228   3.774   1.740
 3215SOL    HW1 9656   4.186   3.717   1.670
 3215SOL    HW2 9657   4.162   3.843   1.772
 3216SOL     OW 9658   4.297   4.594   1.029
 3216SOL    HW1 9659   4.341   4.683   1.020
 3216SOL    HW2 9660   4.234   4.594   1.106
 3217SOL     OW 9661   4.031   3.937   1.231
 3217SOL    HW1 9662   4.008   3.974   1.321
 3217SOL    HW2 9663   4.001   3.842   1.225
 3218SOL     OW 9664   4.456   4.358   1.064
 3218SOL    HW1 9665   4.515   4.332   0.988
 3218SOL    HW2 9666   4.428   4.454   1.053
 3219SOL     OW 9667   4.031   3.787   0.618
 3219SOL    HW1 9668   4.020   3.881   0.651
 3219SOL    HW2 9669   4.026   3.724   0.695
 3220SOL     OW 9670   4.747   4.490   0.966
 3220SOL    HW1 9671   4.762   4.511   1.062
 3220SOL    HW2 9672   4.717   4.395   0.957
 3221SOL     OW 9673   4.043   4.534   0.949
 3221SOL    HW1 9674   4.136   4.570   0.954
 3221SOL    HW2 9675   4.037   4.449   1.001
 3222SOL     OW 9676   4.063   4.233   1.006
 3222SOL    HW1 9677   4.011   4.150   0.989
 3222SOL    HW2 9678   4.140   4.238   0.942
 3223SOL     OW 9679   4.726   4.520   1.238
 3223SOL    HW1 9680   4.767   4.488   1.324
 3223SOL    HW2 9681   4.630   4.493   1.235
 3224SOL     OW 9682   3.764   4.268   1.114
 3224SOL    HW1 9683   3.849   4.235   1.073
 3224SOL    HW2 9684   3.777   4.283   1.212
 3225SOL     OW 9685   3.913   4.244   1.722
 3225SOL    HW1 9686   3.972   4.204   1.652
 3225SOL    HW2 9687   3.855   4.315   1.681
 3226SOL     OW 9688   4.539   4.296   0.325
 3226SOL    HW1 9689   4.546   4.207   0.279
 3226SOL    HW2 9690   4.445   4.330   0.317
 3227SOL     OW 9691   4.395   4.188   1.269
 3227SOL    HW1 9692   4.361   4.099   1.239
 3227SOL    HW2 9693   4.421   4.242   1.189
 3228SOL     OW 9694   4.197   4.224   0.191
 3228SOL    HW1 9695   4.258   4.304   0.195
 3228SOL    HW2 9696   4.102   4.255   0.198
 3229SOL     OW 9697   4.627   3.810   0.133
 3229SOL    HW1 9698   4.678   3.811   0.047
 3229SOL    HW2 9699   4.683   3.768   0.204
 3230SOL     OW 9700   3.987   4.050   0.720
 3230SOL    HW1 9701   3.908   4.101   0.686
 3230SOL    HW2 9702   3.978   4.035   0.818
 3231SOL     OW 9703   4.763   4.822   0.696
 3231SOL    HW1 9704   4.693   4.775   0.750
 3231SOL    HW2 9705   4.822   4.754   0.653
 3232SOL     OW 9706   3.829   4.737   1.726
 3232SOL    HW1 9707   3.752   4.704   1.780
 3232SOL    HW2 9708   3.914   4.707   1.768
 3233SOL     OW 9709   4.396   3.927   1.489
 3233SOL    HW1 9710   4.486   3.911   1.449
 3233SOL    HW2 9711   4.404   3.932   1.588
 3234SOL     OW 9712   3.796   3.890   0.318
 3234SOL    HW1 9713   3.779   3.973   0.264
 3234SOL    HW2 9714   3.886   3.853   0.296
 3235SOL     OW 9715   4.337   4.566   1.431
 3235SOL    HW1 9716   4.393   4.647   1.414
 3235SOL    HW2 9717   4.396   4.486   1.434
 3236SOL     OW 9718   4.440   4.289   1.708
 3236SOL    HW1 9719   4.459   4.354   1.782
 3236SOL    HW2 9720   4.500   4.209   1.717
 3237SOL     OW 9721   4.318   4.469   0.652
 3237SOL    HW1 9722   4.368   4.554   0.633
 3237SOL    HW2 9723   4.230   4.471   0.604
 3238SOL     OW 9724   4.583   4.680   0.861
 3238SOL    HW1 9725   4.637   4.611   0.909
 3238SOL    HW2 9726   4.551   4.749   0.927
 3239SOL     OW 9727   4.152   4.148   0.520
 3239SOL    HW1 9728   4.182   4.076   0.458
 3239SOL    HW2 9729   4.113   4.108   0.603
 3240SOL     OW 9730   4.041   4.271   1.280
 3240SOL    HW1 9731   4.079   4.212   1.352
 3240SOL    HW2 9732   4.081   4.245   1.192
 3241SOL     OW 9733   4.725   3.758   1.154
 3241SOL    HW1 9734   4.662   3.686   1.123
 3241SOL    HW2 9735   4.818   3.722   1.154
 3242SOL     OW 9736   3.954   4.352   1.975
 3242SOL    HW1 9737   3.861   4.350   2.012
 3242SOL    HW2 9738   3.955   4.313   1.883
 3243SOL     OW 9739   3.949   3.999   2.858
 3243SOL    HW1 9740   3.984   3.982   2.950
 3243SOL    HW2 9741   3.861   3.954   2.846
 3244SOL     OW 9742   3.743   4.092   2.509
 3244SOL    HW1 9743   3.661   4.135   2.548
 3244SOL    HW2 9744   3.715   4.019   2.446
 3245SOL     OW 9745   4.574   4.522   3.685
 3245SOL    HW1 9746   4.570   4.598   3.750
 3245SOL    HW2 9747   4.596   4.558   3.594
 3246SOL     OW 9748   4.409   4.736   2.527
 3246SOL    HW1 9749   4.478   4.720   2.597
 3246SOL    HW2 9750   4.336   4.793   2.565
 3247SOL     OW 9751   4.162   4.116   3.361
 3247SOL    HW1 9752   4.244   4.060   3.370
 3247SOL    HW2 9753   4.081   4.058   3.365
 3248SOL     OW 9754   3.846   4.367   2.425
 3248SOL    HW1 9755   3.801   4.279   2.442
 3248SOL    HW2 9756   3.845   4.421   2.509
 3249SOL     OW 9757   3.837   4.461   3.459
 3249SOL    HW1 9758   3.925   4.448   3.504
 3249SOL    HW2 9759   3.824   4.558   3.437
 3250SOL     OW 9760   4.533   3.728   2.364
 3250SOL    HW1 9761   4.573   3.819   2.355
 3250SOL    HW2 9762   4.433   3.736   2.370
 3251SOL     OW 9763   4.041   3.975   3.663
 3251SOL    HW1 9764   4.112   4.046   3.669
 3251SOL    HW2 9765   3.953   4.014   3.691
 3252SOL     OW 9766   4.322   4.453   2.132
 3252SOL    HW1 9767   4.346   4.522   2.064
 3252SOL    HW2 9768   4.244   4.486   2.186
 3253SOL     OW 9769   4.531   4.329   3.327
 3253SOL    HW1 9770   4.484   4.326   3.416
 3253SOL    HW2 9771   4.480   4.274   3.261
 3254SOL     OW 9772   3.800   4.535   2.651
 3254SOL    HW1 9773   3.899   4.523   2.660
 3254SOL    HW2 9774   3.776   4.630   2.672
 3255SOL     OW 9775   4.589   4.072   2.057
 3255SOL    HW1 9776   4.648   4.135   2.008
 3255SOL    HW2 9777   4.608   3.978   2.028
 3256SOL     OW 9778   4.274   3.920   2.747
 3256SOL    HW1 9779   4.269   3.915   2.847
 3256SOL    HW2 9780   4.276   4.016   2.718
 3257SOL     OW 9781   3.926   4.009   3.360
 3257SOL    HW1 9782   3.846   4.069   3.347
 3257SOL    HW2 9783   3.916   3.960   3.446
 3258SOL     OW 9784   4.106   4.424   2.342
 3258SOL    HW1 9785   4.151   4.334   2.339
 3258SOL    HW2 9786   4.012   4.413   2.375
 3259SOL     OW 9787   4.338   3.846   1.979
 3259SOL    HW1 9788   4.436   3.824   1.986
 3259SOL    HW2 9789   4.307   3.829   1.886
 3260SOL     OW 9790   4.505   3.988   3.611
 3260SOL    HW1 9791   4.572   3.927   3.654
 3260SOL    HW2 9792   4.432   4.007   3.676
 3261SOL     OW 9793   4.646   4.227   2.761
 3261SOL    HW1 9794   4.621   4.218   2.665
 3261SOL    HW2 9795   4.694   4.145   2.792
 3262SOL     OW 9796   4.263   3.788   2.374
 3262SOL    HW1 9797   4.182   3.789   2.432
 3262SOL    HW2 9798   4.266   3.871   2.319
 3263SOL     OW 9799   4.021   3.759   2.033
 3263SOL    HW1 9800   4.070   3.843   2.012
 3263SOL    HW2 9801   4.083   3.694   2.078
 3264SOL     OW 9802   3.802   4.280   3.248
 3264SOL    HW1 9803   3.894   4.279   3.207
 3264SOL    HW2 9804   3.796   4.354   3.315
 3265SOL     OW 9805   4.285   3.946   3.009
 3265SOL    HW1 9806   4.323   3.862   3.046
 3265SOL    HW2 9807   4.197   3.965   3.053
 3266SOL     OW 9808   4.251   3.980   2.190
 3266SOL    HW1 9809   4.278   3.921   2.115
 3266SOL    HW2 9810   4.251   4.075   2.159
 3267SOL     OW 9811   4.639   3.813   3.264
 3267SOL    HW1 9812   4.664   3.793   3.169
 3267SOL    HW2 9813   4.711   3.869   3.306
 3268SOL     OW 9814   4.134   4.537   3.113
 3268SOL    HW1 9815   4.220   4.549   3.163
 3268SOL    HW2 9816   4.092   4.450   3.140
 3269SOL     OW 9817   4.290   4.261   2.727
 3269SOL    HW1 9818   4.302   4.327   2.653
 3269SOL    HW2 9819   4.336   4.295   2.810
 3270SOL     OW 9820   4.126   4.475   3.460
 3270SOL    HW1 9821   4.194   4.530   3.413
 3270SOL    HW2 9822   4.166   4.387   3.487
 3271SOL     OW 9823   4.228   3.774   3.602
 3271SOL    HW1 9824   4.186   3.717   3.532
 3271SOL    HW2 9825   4.162   3.843   3.634
 3272SOL     OW 9826   4.297   4.594   2.891
 3272SOL    HW1 9827   4.341   4.683   2.882
 3272SOL    HW2 9828   4.234   4.594   2.968
 3273SOL     OW 9829   4.031   3.937   3.093
 3273SOL    HW1 9830   4.008   3.974   3.183
 3273SOL    HW2 9831   4.001   3.842   3.087
 3274SOL     OW 9832   4.456   4.358   2.926
 3274SOL    HW1 9833   4.515   4.332   2.850
 3274SOL    HW2 9834   4.428   4.454   2.915
 3275SOL     OW 9835   4.031   3.787   2.480
 3275SOL    HW1 9836   4.020   3.881   2.513
 3275SOL    HW2 9837   4.026   3.724   2.557
 3276SOL     OW 9838   4.747   4.490   2.828
 3276SOL    HW1 9839   4.762   4.511   2.924
 3276SOL    HW2 9840   4.717   4.395   2.819
 3277SOL     OW 9841   4.043   4.534   2.811
 3277SOL    HW1 9842   4.136   4.570   2.816
 3277SOL    HW2 9843   4.037   4.449   2.863
 3278SOL     OW 9844   4.063   4.233   2.868
 3278SOL    HW1 9845   4.011   4.150   2.851
 3278SOL    HW2 9846   4.140   4.238   2.804
 3279SOL     OW 9847   4.726   4.520   3.100
 3279SOL    HW1 9848   4.767   4.488   3.186
 3279SOL    HW2 9849   4.630   4.493   3.097
 3280SOL     OW 9850   3.764   4.268   2.976
 3280SOL    HW1 9851   3.849   4.235   2.935
 3280SOL    HW2 9852   3.777   4.283   3.074
 3281SOL     OW 9853   3.913   4.244   3.584
 3281SOL    HW1 9854   3.972   4.204   3.514
 3281SOL    HW2 9855   3.855   4.315   3.543
 3282SOL     OW 9856   4.539   4.296   2.187
 3282SOL    HW1 9857   4.546   4.207   2.141
 3282SOL    HW2 9858   4.445   4.330   2.179
 3283SOL     OW 9859   4.395   4.188   3.131
 3283SOL    HW1 9860   4.361   4.099   3.101
 3283SOL    HW2 9861   4.421   4.242   3.051
 3284SOL     OW 9862   4.197   4.224   2.053
 3284SOL    HW1 9863   4.258   4.304   2.057
 3284SOL    HW2 9864   4.102   4.255   2.060
 3285SOL     OW 9865   4.627   3.810   1.995
 3285SOL    HW1 9866   4.678   3.811   1.909
 3285SOL    HW2 9867   4.683   3.768   2.066
 3286SOL     OW 9868   3.987   4.050   2.582
 3286SOL    HW1 9869   3.908   4.101   2.548
 3286SOL    HW2 9870   3.978   4.035   2.680
 3287SOL     OW 9871   4.763   4.822   2.558
 3287SOL    HW1 9872   4.693   4.775   2.612
 3287SOL    HW2 9873   4.822   4.754   2.515
 3288SOL     OW 9874   3.829   4.737   3.588
 3288SOL    HW1 9875   3.752   4.704   3.642
 3288SOL    HW2 9876   3.914   4.707   3.630
 3289SOL     OW 9877   4.396   3.927   3.351
 3289SOL    HW1 9878   4.486   3.911   3.311
 3289SOL    HW2 9879   4.404   3.932   3.450
 3290SOL     OW 9880   3.799   4.069   1.895
 3290SOL    HW1 9881   3.707   4.041   1.866
 3290SOL    HW2 9882   3.830   4.146   1.839
 3291SOL     OW 9883   3.796   3.890   2.180
 3291SOL    HW1 9884   3.779   3.973   2.126
 3291SOL    HW2 9885   3.886   3.853   2.158
 3292SOL     OW 9886   4.337   4.566   3.293
 3292SOL    HW1 9887   4.393   4.647   3.276
 3292SOL    HW2 9888   4.396   4.486   3.296
 3293SOL     OW 9889   4.440   4.289   3.570
 3293SOL    HW1 9890   4.459   4.354   3.644
 3293SOL    HW2 9891   4.500   4.209   3.579
 3294SOL     OW 9892   4.318   4.469   2.514
 3294SOL    HW1 9893   4.368   4.554   2.495
 3294SOL    HW2 9894   4.230   4.471   2.466
 3295SOL     OW 9895   4.583   4.680   2.723
 3295SOL    HW1 9896   4.637   4.611   2.771
 3295SOL    HW2 9897   4.551   4.749   2.789
 3296SOL     OW 9898   4.152   4.148   2.382
 3296SOL    HW1 9899   4.182   4.076   2.320
 3296SOL    HW2 9900   4.113   4.108   2.465
 3297SOL     OW 9901   4.041   4.271   3.142
 3297SOL    HW1 9902   4.079   4.212   3.214
 3297SOL    HW2 9903   4.081   4.245   3.054
 3298SOL     OW 9904   4.725   3.758   3.016
 3298SOL    HW1 9905   4.662   3.686   2.985
 3298SOL    HW2 9906   4.818   3.722   3.016
 3299SOL     OW 9907   3.954   4.352   3.837
 3299SOL    HW1 9908   3.861   4.350   3.874
 3299SOL    HW2 9909   3.955   4.313   3.745
 3300SOL     OW 9910   3.949   3.999   4.720
 3300SOL    HW1 9911   3.984   3.982   4.812
 3300SOL    HW2 9912   3.861   3.954   4.708
 3301SOL     OW 9913   3.743   4.092   4.371
 3301SOL    HW1 9914   3.661   4.135   4.410
 3301SOL    HW2 9915   3.715   4.019   4.308
 3302SOL     OW 9916   4.409   4.736   4.389
 3302SOL    HW1 9917   4.478   4.720   4.459
 3302SOL    HW2 9918   4.336   4.793   4.427
 3303SOL     OW 9919   3.846   4.367   4.287
 3303SOL    HW1 9920   3.801   4.279   4.304
 3303SOL    HW2 9921   3.845   4.421   4.371
 3304SOL     OW 9922   4.533   3.728   4.226
 3304SOL    HW1 9923   4.573   3.819   4.217
 3304SOL    HW2 9924   4.433   3.736   4.232
 3305SOL     OW 9925   4.322   4.453   3.994
 3305SOL    HW1 9926   4.346   4.522   3.926
 3305SOL    HW2 9927   4.244   4.486   4.048
 3306SOL     OW 9928   3.800   4.535   4.513
 3306SOL    HW1 9929   3.899   4.523   4.522
 3306SOL    HW2 9930   3.776   4.630   4.534
 3307SOL     OW 9931   4.589   4.072   3.919
 3307SOL    HW1 9932   4.648   4.135   3.870
 3307SOL    HW2 9933   4.608   3.978   3.890
 3308SOL     OW 9934   4.274   3.920   4.609
 3308SOL    HW1 9935   4.269   3.915   4.709
 3308SOL    HW2 9936   4.276   4.016   4.580
 3309SOL     OW 9937   4.106   4.424   4.204
 3309SOL    HW1 9938   4.151   4.334   4.201
 3309SOL    HW2 9939   4.012   4.413   4.237
 3310SOL     OW 9940   4.338   3.846   3.841
 3310SOL    HW1 9941   4.436   3.824   3.848
 3310SOL    HW2 9942   4.307   3.829   3.748
 3311SOL     OW 9943   4.263   3.788   4.236
 3311SOL    HW1 9944   4.182   3.789   4.294
 3311SOL    HW2 9945   4.266   3.871   4.181
 3312SOL     OW 9946   4.021   3.759   3.895
 3312SOL    HW1 9947   4.070   3.843   3.874
 3312SOL    HW2 9948   4.083   3.694   3.940
 3313SOL     OW 9949   4.251   3.980   4.052
 3313SOL    HW1 9950   4.278   3.921   3.977
 3313SOL    HW2 9951   4.251   4.075   4.021
 3314SOL     OW 9952   4.998   4.110   4.986
 3314SOL    HW1 9953   5.019   4.184   5.050
 3314SOL    HW2 9954   4.909   4.127   4.943
 3315SOL     OW 9955   4.290   4.261   4.589
 3315SOL    HW1 9956   4.302   4.327   4.515
 3315SOL    HW2 9957   4.336   4.295   4.672
 3316SOL     OW 9958   4.456   4.358   4.788
 3316SOL    HW1 9959   4.515   4.332   4.712
 3316SOL    HW2 9960   4.428   4.454   4.777
 3317SOL     OW 9961   4.031   3.787   4.342
 3317SOL    HW1 9962   4.020   3.881   4.375
 3317SOL    HW2 9963   4.026   3.724   4.419
 3318SOL     OW 9964   4.747   4.490   4.690
 3318SOL    HW1 9965   4.762   4.511   4.786
 3318SOL    HW2 9966   4.717   4.395   4.681
 3319SOL     OW 9967   4.539   4.296   4.049
 3319SOL    HW1 9968   4.546   4.207   4.003
 3319SOL    HW2 9969   4.445   4.330   4.041
 3320SOL     OW 9970   4.197   4.224   3.915
 3320SOL    HW1 9971   4.258   4.304   3.919
 3320SOL    HW2 9972   4.102   4.255   3.922
 3321SOL     OW 9973   4.627   3.810   3.857
 3321SOL    HW1 9974   4.678   3.811   3.771
 3321SOL    HW2 9975   4.683   3.768   3.928
 3322SOL     OW 9976   3.987   4.050   4.444
 3322SOL    HW1 9977   3.908   4.101   4.410
 3322SOL    HW2 9978   3.978   4.035   4.542
 3323SOL     OW 9979   4.763   4.822   4.420
 3323SOL    HW1 9980   4.693   4.775   4.474
 3323SOL    HW2 9981   4.822   4.754   4.377
 3324SOL     OW 9982   3.799   4.069   3.757
 3324SOL    HW1 9983   3.707   4.041   3.728
 3324SOL    HW2 9984   3.830   4.146   3.701
 3325SOL     OW 9985   3.796   3.890   4.042
 3325SOL    HW1 9986   3.779   3.973   3.988
 3325SOL    HW2 9987   3.886   3.853   4.020
 3326SOL     OW 9988   4.318   4.469   4.376
 3326SOL    HW1 9989   4.368   4.554   4.357
 3326SOL    HW2 9990   4.230   4.471   4.328
 3327SOL     OW 9991   4.583   4.680   4.585
 3327SOL    HW1 9992   4.637   4.611   4.633
 3327SOL    HW2 9993   4.551   4.749   4.651
 3328SOL     OW 9994   4.152   4.148   4.244
 3328SOL    HW1 9995   4.182   4.076   4.182
 3328SOL    HW2 9996   4.113   4.108   4.327
   4.68667   4.68667   4.68667
