; mobley_2609604_GMX_OPLS.top created by acpype (v: 2023.10.27) on Wed May 20 23:52:32 2026

; Include forcefield parameters
#include "ffoplsaa.itp"

; Include mobley_2609604_GMX.itp topology
#include "mobley_2609604_GMX.itp"

; Ligand position restraints
#ifdef POSRES_LIG
#include "posre_mobley_2609604.itp"
#endif

[ system ]
 mobley_2609604

[ molecules ]
; Compound        nmols
 mobley_2609604   1     
