33_dimethylpentane
    23
  -0.5080000  -0.4810000   0.8470000  -2.4260000  -3.7020000   0.5510000
  -2.7380000  -0.6450000   2.9740000  -4.3190000  -1.3070000   1.1670000
  -1.9970000  -0.5980000   0.5480000  -2.3930000  -2.8310000   1.8010000
  -2.8410000  -1.3570000   1.6080000  -0.3240000   0.0580000   1.7810000
  -0.0130000   0.0760000   0.0450000  -0.0280000  -1.4620000   0.9090000
  -2.0990000  -4.7180000   0.8000000  -3.4350000  -3.7760000   0.1360000
  -1.7550000  -3.3240000  -0.2250000  -3.0040000   0.4140000   2.8900000
  -1.7260000  -0.7060000   3.3880000  -3.4160000  -1.1000000   3.7060000
  -4.4580000  -1.7290000   0.1660000  -4.9590000  -1.8650000   1.8590000
  -4.6850000  -0.2740000   1.1360000  -2.3990000   0.4170000   0.4300000
  -2.1140000  -1.0780000  -0.4320000  -1.3760000  -2.8600000   2.2120000
  -3.0310000  -3.3050000   2.5590000
