; mobley_2609604_GMX_OPLS.itp created by acpype (v: 2023.10.27) on Wed May 20 23:52:32 2026

; For OPLS atomtypes manual fine tuning
; AC_at:OPLS_at:OPLScode: Possible_Alternatives (see ffoplsaa.atp and ffoplsaanb.itp)
; c3:CT:opls_135: ['136', '137', '149', '157', '158', '206', '209', '210', '223B', '224B', '245', '246', '274', '283', '284', '285', '292', '292B', '293B', '296', '307', '308', '505']
; hc:HC:opls_140: []

[ moleculetype ]
;name            nrexcl
 mobley_2609604   3

[ atoms ]
;   nr  type  resi  res  atom  cgnr     charge      mass       ; qtot   bond_type
     1 opls_135     1   MOL    C1    1    -0.093099     12.01100 ; qtot -0.093  CT  
     2 opls_135     1   MOL    C2    2    -0.093099     12.01100 ; qtot -0.186  CT  
     3 opls_135     1   MOL    C3    3    -0.087100     12.01100 ; qtot -0.273  CT  
     4 opls_135     1   MOL    C4    4    -0.087100     12.01100 ; qtot -0.360  CT  
     5 opls_135     1   MOL    C5    5    -0.070400     12.01100 ; qtot -0.431  CT  
     6 opls_135     1   MOL    C6    6    -0.070400     12.01100 ; qtot -0.501  CT  
     7 opls_135     1   MOL    C7    7    -0.052000     12.01100 ; qtot -0.553  CT  
     8 opls_140     1   MOL    H1    8     0.033033      1.00800 ; qtot -0.520  HC  
     9 opls_140     1   MOL    H2    9     0.033033      1.00800 ; qtot -0.487  HC  
    10 opls_140     1   MOL    H3   10     0.033033      1.00800 ; qtot -0.454  HC  
    11 opls_140     1   MOL    H4   11     0.033033      1.00800 ; qtot -0.421  HC  
    12 opls_140     1   MOL    H5   12     0.033033      1.00800 ; qtot -0.388  HC  
    13 opls_140     1   MOL    H6   13     0.033033      1.00800 ; qtot -0.355  HC  
    14 opls_140     1   MOL    H7   14     0.033700      1.00800 ; qtot -0.321  HC  
    15 opls_140     1   MOL    H8   15     0.033700      1.00800 ; qtot -0.288  HC  
    16 opls_140     1   MOL    H9   16     0.033700      1.00800 ; qtot -0.254  HC  
    17 opls_140     1   MOL   H10   17     0.033700      1.00800 ; qtot -0.220  HC  
    18 opls_140     1   MOL   H11   18     0.033700      1.00800 ; qtot -0.186  HC  
    19 opls_140     1   MOL   H12   19     0.033700      1.00800 ; qtot -0.153  HC  
    20 opls_140     1   MOL   H13   20     0.038200      1.00800 ; qtot -0.115  HC  
    21 opls_140     1   MOL   H14   21     0.038200      1.00800 ; qtot -0.076  HC  
    22 opls_140     1   MOL   H15   22     0.038200      1.00800 ; qtot -0.038  HC  
    23 opls_140     1   MOL   H16   23     0.038200      1.00800 ; qtot  0.000  HC  

[ bonds ]
;   ai     aj funct   r             k
     1      5   1 ;    1.5354e-01    1.9154e+05 ;     C1 - C5         CT - CT    
     1      8   1 ;    1.0962e-01    2.8891e+05 ;     C1 - H1         CT - HC    
     1      9   1 ;    1.0962e-01    2.8891e+05 ;     C1 - H2         CT - HC    
     1     10   1 ;    1.0962e-01    2.8891e+05 ;     C1 - H3         CT - HC    
     2      6   1 ;    1.5354e-01    1.9154e+05 ;     C2 - C6         CT - CT    
     2     11   1 ;    1.0962e-01    2.8891e+05 ;     C2 - H4         CT - HC    
     2     12   1 ;    1.0962e-01    2.8891e+05 ;     C2 - H5         CT - HC    
     2     13   1 ;    1.0962e-01    2.8891e+05 ;     C2 - H6         CT - HC    
     3      7   1 ;    1.5354e-01    1.9154e+05 ;     C3 - C7         CT - CT    
     3     14   1 ;    1.0962e-01    2.8891e+05 ;     C3 - H7         CT - HC    
     3     15   1 ;    1.0962e-01    2.8891e+05 ;     C3 - H8         CT - HC    
     3     16   1 ;    1.0962e-01    2.8891e+05 ;     C3 - H9         CT - HC    
     4      7   1 ;    1.5354e-01    1.9154e+05 ;     C4 - C7         CT - CT    
     4     17   1 ;    1.0962e-01    2.8891e+05 ;     C4 - H10        CT - HC    
     4     18   1 ;    1.0962e-01    2.8891e+05 ;     C4 - H11        CT - HC    
     4     19   1 ;    1.0962e-01    2.8891e+05 ;     C4 - H12        CT - HC    
     5      7   1 ;    1.5354e-01    1.9154e+05 ;     C5 - C7         CT - CT    
     5     20   1 ;    1.0962e-01    2.8891e+05 ;     C5 - H13        CT - HC    
     5     21   1 ;    1.0962e-01    2.8891e+05 ;     C5 - H14        CT - HC    
     6      7   1 ;    1.5354e-01    1.9154e+05 ;     C6 - C7         CT - CT    
     6     22   1 ;    1.0962e-01    2.8891e+05 ;     C6 - H15        CT - HC    
     6     23   1 ;    1.0962e-01    2.8891e+05 ;     C6 - H16        CT - HC    

[ pairs ]
;   ai     aj    funct
     1      3      1 ;     C1 - C3    
     1      4      1 ;     C1 - C4    
     1      6      1 ;     C1 - C6    
     2      3      1 ;     C2 - C3    
     2      4      1 ;     C2 - C4    
     2      5      1 ;     C2 - C5    
     3     17      1 ;     C3 - H10   
     3     18      1 ;     C3 - H11   
     3     19      1 ;     C3 - H12   
     3     20      1 ;     C3 - H13   
     3     21      1 ;     C3 - H14   
     3     22      1 ;     C3 - H15   
     3     23      1 ;     C3 - H16   
     4     14      1 ;     C4 - H7    
     4     15      1 ;     C4 - H8    
     4     16      1 ;     C4 - H9    
     4     20      1 ;     C4 - H13   
     4     21      1 ;     C4 - H14   
     4     22      1 ;     C4 - H15   
     4     23      1 ;     C4 - H16   
     5     14      1 ;     C5 - H7    
     5     15      1 ;     C5 - H8    
     5     16      1 ;     C5 - H9    
     5     17      1 ;     C5 - H10   
     5     18      1 ;     C5 - H11   
     5     19      1 ;     C5 - H12   
     5     22      1 ;     C5 - H15   
     5     23      1 ;     C5 - H16   
     6     14      1 ;     C6 - H7    
     6     15      1 ;     C6 - H8    
     6     16      1 ;     C6 - H9    
     6     17      1 ;     C6 - H10   
     6     18      1 ;     C6 - H11   
     6     19      1 ;     C6 - H12   
     6     20      1 ;     C6 - H13   
     6     21      1 ;     C6 - H14   
     7     11      1 ;     C7 - H4    
     7     12      1 ;     C7 - H5    
     7     13      1 ;     C7 - H6    
     8      7      1 ;     H1 - C7    
     8     20      1 ;     H1 - H13   
     8     21      1 ;     H1 - H14   
     9      7      1 ;     H2 - C7    
     9     20      1 ;     H2 - H13   
     9     21      1 ;     H2 - H14   
    10      7      1 ;     H3 - C7    
    10     20      1 ;     H3 - H13   
    10     21      1 ;     H3 - H14   
    11     22      1 ;     H4 - H15   
    11     23      1 ;     H4 - H16   
    12     22      1 ;     H5 - H15   
    12     23      1 ;     H5 - H16   
    13     22      1 ;     H6 - H15   
    13     23      1 ;     H6 - H16   

[ angles ]
;   ai     aj     ak    funct   theta         cth
     1      5      7      1 ;    1.1263e+02    5.0099e+02 ;     C1 - C5   - C7       CT -   CT - CT  
     1      5     20      1 ;    1.0968e+02    3.6208e+02 ;     C1 - C5   - H13      CT -   CT - HC  
     1      5     21      1 ;    1.0968e+02    3.6208e+02 ;     C1 - C5   - H14      CT -   CT - HC  
     2      6      7      1 ;    1.1263e+02    5.0099e+02 ;     C2 - C6   - C7       CT -   CT - CT  
     2      6     22      1 ;    1.0968e+02    3.6208e+02 ;     C2 - C6   - H15      CT -   CT - HC  
     2      6     23      1 ;    1.0968e+02    3.6208e+02 ;     C2 - C6   - H16      CT -   CT - HC  
     3      7      4      1 ;    1.1263e+02    5.0099e+02 ;     C3 - C7   - C4       CT -   CT - CT  
     3      7      5      1 ;    1.1263e+02    5.0099e+02 ;     C3 - C7   - C5       CT -   CT - CT  
     3      7      6      1 ;    1.1263e+02    5.0099e+02 ;     C3 - C7   - C6       CT -   CT - CT  
     4      7      5      1 ;    1.1263e+02    5.0099e+02 ;     C4 - C7   - C5       CT -   CT - CT  
     4      7      6      1 ;    1.1263e+02    5.0099e+02 ;     C4 - C7   - C6       CT -   CT - CT  
     5      1      8      1 ;    1.0968e+02    3.6208e+02 ;     C5 - C1   - H1       CT -   CT - HC  
     5      1      9      1 ;    1.0968e+02    3.6208e+02 ;     C5 - C1   - H2       CT -   CT - HC  
     5      1     10      1 ;    1.0968e+02    3.6208e+02 ;     C5 - C1   - H3       CT -   CT - HC  
     5      7      6      1 ;    1.1263e+02    5.0099e+02 ;     C5 - C7   - C6       CT -   CT - CT  
     6      2     11      1 ;    1.0968e+02    3.6208e+02 ;     C6 - C2   - H4       CT -   CT - HC  
     6      2     12      1 ;    1.0968e+02    3.6208e+02 ;     C6 - C2   - H5       CT -   CT - HC  
     6      2     13      1 ;    1.0968e+02    3.6208e+02 ;     C6 - C2   - H6       CT -   CT - HC  
     7      3     14      1 ;    1.0968e+02    3.6208e+02 ;     C7 - C3   - H7       CT -   CT - HC  
     7      3     15      1 ;    1.0968e+02    3.6208e+02 ;     C7 - C3   - H8       CT -   CT - HC  
     7      3     16      1 ;    1.0968e+02    3.6208e+02 ;     C7 - C3   - H9       CT -   CT - HC  
     7      4     17      1 ;    1.0968e+02    3.6208e+02 ;     C7 - C4   - H10      CT -   CT - HC  
     7      4     18      1 ;    1.0968e+02    3.6208e+02 ;     C7 - C4   - H11      CT -   CT - HC  
     7      4     19      1 ;    1.0968e+02    3.6208e+02 ;     C7 - C4   - H12      CT -   CT - HC  
     7      5     20      1 ;    1.0968e+02    3.6208e+02 ;     C7 - C5   - H13      CT -   CT - HC  
     7      5     21      1 ;    1.0968e+02    3.6208e+02 ;     C7 - C5   - H14      CT -   CT - HC  
     7      6     22      1 ;    1.0968e+02    3.6208e+02 ;     C7 - C6   - H15      CT -   CT - HC  
     7      6     23      1 ;    1.0968e+02    3.6208e+02 ;     C7 - C6   - H16      CT -   CT - HC  
     8      1      9      1 ;    1.0773e+02    2.9957e+02 ;     H1 - C1   - H2       HC -   CT - HC  
     8      1     10      1 ;    1.0773e+02    2.9957e+02 ;     H1 - C1   - H3       HC -   CT - HC  
     9      1     10      1 ;    1.0773e+02    2.9957e+02 ;     H2 - C1   - H3       HC -   CT - HC  
    11      2     12      1 ;    1.0773e+02    2.9957e+02 ;     H4 - C2   - H5       HC -   CT - HC  
    11      2     13      1 ;    1.0773e+02    2.9957e+02 ;     H4 - C2   - H6       HC -   CT - HC  
    12      2     13      1 ;    1.0773e+02    2.9957e+02 ;     H5 - C2   - H6       HC -   CT - HC  
    14      3     15      1 ;    1.0773e+02    2.9957e+02 ;     H7 - C3   - H8       HC -   CT - HC  
    14      3     16      1 ;    1.0773e+02    2.9957e+02 ;     H7 - C3   - H9       HC -   CT - HC  
    15      3     16      1 ;    1.0773e+02    2.9957e+02 ;     H8 - C3   - H9       HC -   CT - HC  
    17      4     18      1 ;    1.0773e+02    2.9957e+02 ;    H10 - C4   - H11      HC -   CT - HC  
    17      4     19      1 ;    1.0773e+02    2.9957e+02 ;    H10 - C4   - H12      HC -   CT - HC  
    18      4     19      1 ;    1.0773e+02    2.9957e+02 ;    H11 - C4   - H12      HC -   CT - HC  
    20      5     21      1 ;    1.0773e+02    2.9957e+02 ;    H13 - C5   - H14      HC -   CT - HC  
    22      6     23      1 ;    1.0773e+02    2.9957e+02 ;    H15 - C6   - H16      HC -   CT - HC  

[ dihedrals ] ; propers
; for gromacs 4.5 or higher, using funct 9
;    i      j      k      l   func   phase     kd      pn
     1      5      7      3      9 ;     0.00   2.17568   3 ;     C1-    C5-    C7-    C3
     1      5      7      4      9 ;     0.00   2.17568   3 ;     C1-    C5-    C7-    C4
     1      5      7      6      9 ;     0.00   2.17568   3 ;     C1-    C5-    C7-    C6
     2      6      7      3      9 ;     0.00   2.17568   3 ;     C2-    C6-    C7-    C3
     2      6      7      4      9 ;     0.00   2.17568   3 ;     C2-    C6-    C7-    C4
     2      6      7      5      9 ;     0.00   2.17568   3 ;     C2-    C6-    C7-    C5
     3      7      4     17      9 ;     0.00   0.54392   3 ;     C3-    C7-    C4-   H10
     3      7      4     18      9 ;     0.00   0.54392   3 ;     C3-    C7-    C4-   H11
     3      7      4     19      9 ;     0.00   0.54392   3 ;     C3-    C7-    C4-   H12
     3      7      5     20      9 ;     0.00   0.54392   3 ;     C3-    C7-    C5-   H13
     3      7      5     21      9 ;     0.00   0.54392   3 ;     C3-    C7-    C5-   H14
     3      7      6     22      9 ;     0.00   0.54392   3 ;     C3-    C7-    C6-   H15
     3      7      6     23      9 ;     0.00   0.54392   3 ;     C3-    C7-    C6-   H16
     4      7      3     14      9 ;     0.00   0.54392   3 ;     C4-    C7-    C3-    H7
     4      7      3     15      9 ;     0.00   0.54392   3 ;     C4-    C7-    C3-    H8
     4      7      3     16      9 ;     0.00   0.54392   3 ;     C4-    C7-    C3-    H9
     4      7      5     20      9 ;     0.00   0.54392   3 ;     C4-    C7-    C5-   H13
     4      7      5     21      9 ;     0.00   0.54392   3 ;     C4-    C7-    C5-   H14
     4      7      6     22      9 ;     0.00   0.54392   3 ;     C4-    C7-    C6-   H15
     4      7      6     23      9 ;     0.00   0.54392   3 ;     C4-    C7-    C6-   H16
     5      7      3     14      9 ;     0.00   0.54392   3 ;     C5-    C7-    C3-    H7
     5      7      3     15      9 ;     0.00   0.54392   3 ;     C5-    C7-    C3-    H8
     5      7      3     16      9 ;     0.00   0.54392   3 ;     C5-    C7-    C3-    H9
     5      7      4     17      9 ;     0.00   0.54392   3 ;     C5-    C7-    C4-   H10
     5      7      4     18      9 ;     0.00   0.54392   3 ;     C5-    C7-    C4-   H11
     5      7      4     19      9 ;     0.00   0.54392   3 ;     C5-    C7-    C4-   H12
     5      7      6     22      9 ;     0.00   0.54392   3 ;     C5-    C7-    C6-   H15
     5      7      6     23      9 ;     0.00   0.54392   3 ;     C5-    C7-    C6-   H16
     6      7      3     14      9 ;     0.00   0.54392   3 ;     C6-    C7-    C3-    H7
     6      7      3     15      9 ;     0.00   0.54392   3 ;     C6-    C7-    C3-    H8
     6      7      3     16      9 ;     0.00   0.54392   3 ;     C6-    C7-    C3-    H9
     6      7      4     17      9 ;     0.00   0.54392   3 ;     C6-    C7-    C4-   H10
     6      7      4     18      9 ;     0.00   0.54392   3 ;     C6-    C7-    C4-   H11
     6      7      4     19      9 ;     0.00   0.54392   3 ;     C6-    C7-    C4-   H12
     6      7      5     20      9 ;     0.00   0.54392   3 ;     C6-    C7-    C5-   H13
     6      7      5     21      9 ;     0.00   0.54392   3 ;     C6-    C7-    C5-   H14
     7      6      2     11      9 ;     0.00   0.54392   3 ;     C7-    C6-    C2-    H4
     7      6      2     12      9 ;     0.00   0.54392   3 ;     C7-    C6-    C2-    H5
     7      6      2     13      9 ;     0.00   0.54392   3 ;     C7-    C6-    C2-    H6
     8      1      5      7      9 ;     0.00   0.54392   3 ;     H1-    C1-    C5-    C7
     8      1      5     20      9 ;     0.00   0.50208   3 ;     H1-    C1-    C5-   H13
     8      1      5     21      9 ;     0.00   0.50208   3 ;     H1-    C1-    C5-   H14
     9      1      5      7      9 ;     0.00   0.54392   3 ;     H2-    C1-    C5-    C7
     9      1      5     20      9 ;     0.00   0.50208   3 ;     H2-    C1-    C5-   H13
     9      1      5     21      9 ;     0.00   0.50208   3 ;     H2-    C1-    C5-   H14
    10      1      5      7      9 ;     0.00   0.54392   3 ;     H3-    C1-    C5-    C7
    10      1      5     20      9 ;     0.00   0.50208   3 ;     H3-    C1-    C5-   H13
    10      1      5     21      9 ;     0.00   0.50208   3 ;     H3-    C1-    C5-   H14
    11      2      6     22      9 ;     0.00   0.50208   3 ;     H4-    C2-    C6-   H15
    11      2      6     23      9 ;     0.00   0.50208   3 ;     H4-    C2-    C6-   H16
    12      2      6     22      9 ;     0.00   0.50208   3 ;     H5-    C2-    C6-   H15
    12      2      6     23      9 ;     0.00   0.50208   3 ;     H5-    C2-    C6-   H16
    13      2      6     22      9 ;     0.00   0.50208   3 ;     H6-    C2-    C6-   H15
    13      2      6     23      9 ;     0.00   0.50208   3 ;     H6-    C2-    C6-   H16
