mobley_9201263_GMX.gro created by acpype (v: 2023.10.27) on Wed May 20 23:41:33 2026
   12
    1MOL     C1    1   2.082   2.199   2.248
    1MOL     C2    2   2.424   2.390   2.271
    1MOL     O1    3   2.389   2.140   2.202
    1MOL     O2    4   2.333   2.211   2.439
    1MOL     O3    5   2.191   2.290   2.247
    1MOL     S1    6   2.338   2.237   2.297
    1MOL     H1    7   2.119   2.097   2.263
    1MOL     H2    8   2.028   2.206   2.154
    1MOL     H3    9   2.015   2.225   2.331
    1MOL     H4   10   2.485   2.410   2.360
    1MOL     H5   11   2.487   2.379   2.183
    1MOL     H6   12   2.351   2.469   2.257
   4.54120   4.54120   4.54120
