mobley_3843583_GMX.gro created by acpype (v: 2023.10.27) on Wed May 20 23:53:30 2026
 20
    1  MOL   C1    1  -0.057  -0.206   0.023
    1  MOL   C2    2   0.034  -0.103   0.002
    1  MOL   C3    3   0.304  -0.531  -0.010
    1  MOL   C4    4  -0.013  -0.339   0.025
    1  MOL   C5    5   0.169  -0.132  -0.017
    1  MOL   C6    6   0.169  -0.502   0.009
    1  MOL   C7    7   0.395  -0.428  -0.031
    1  MOL   C8    8   0.123  -0.369   0.007
    1  MOL   C9    9   0.215  -0.265  -0.015
    1  MOL  C10   10   0.351  -0.296  -0.033
    1  MOL   N1   11   0.448  -0.194  -0.055
    1  MOL   H1   12  -0.162  -0.184   0.037
    1  MOL   H2   13  -0.000  -0.000   0.000
    1  MOL   H3   14   0.338  -0.634  -0.008
    1  MOL   H4   15  -0.086  -0.418   0.042
    1  MOL   H5   16   0.237  -0.049  -0.033
    1  MOL   H6   17   0.099  -0.585   0.025
    1  MOL   H7   18   0.500  -0.452  -0.045
    1  MOL   H8   19   0.528  -0.191   0.004
    1  MOL   H9   20   0.429  -0.124  -0.123
   13.80200    12.68400     3.28400
