; mobley_3843583_GMX_OPLS.top created by acpype (v: 2023.10.27) on Wed May 20 23:53:30 2026

; Include forcefield parameters
#include "ffoplsaa.itp"

; Include mobley_3843583_GMX.itp topology
#include "mobley_3843583_GMX.itp"

; Ligand position restraints
#ifdef POSRES_LIG
#include "posre_mobley_3843583.itp"
#endif

[ system ]
 mobley_3843583

[ molecules ]
; Compound        nmols
 mobley_3843583   1     
