; mobley_3843583_GMX.itp created by acpype (v: 2023.10.27) on Wed May 20 23:53:30 2026

[ atomtypes ]
;name   bond_type     mass     charge   ptype   sigma         epsilon       Amb
 ca       ca          0.00000  0.00000   A     3.31521e-01   4.13379e-01 ; 1.86  0.0988
 nv       nv          0.00000  0.00000   A     3.36813e-01   4.68608e-01 ; 1.89  0.1120
 ha       ha          0.00000  0.00000   A     2.62548e-01   6.73624e-02 ; 1.47  0.0161
 hn       hn          0.00000  0.00000   A     1.10650e-01   4.18400e-02 ; 0.62  0.0100

[ moleculetype ]
;name            nrexcl
 mobley_3843583   3

[ atoms ]
;   nr  type  resi  res  atom  cgnr     charge      mass       ; qtot   bond_type
     1   ca     1   MOL    C1    1    -0.121000     12.01000 ; qtot -0.121
     2   ca     1   MOL    C2    2    -0.139000     12.01000 ; qtot -0.260
     3   ca     1   MOL    C3    3    -0.086000     12.01000 ; qtot -0.346
     4   ca     1   MOL    C4    4    -0.125000     12.01000 ; qtot -0.471
     5   ca     1   MOL    C5    5    -0.110000     12.01000 ; qtot -0.581
     6   ca     1   MOL    C6    6    -0.164000     12.01000 ; qtot -0.745
     7   ca     1   MOL    C7    7    -0.213000     12.01000 ; qtot -0.958
     8   ca     1   MOL    C8    8    -0.006000     12.01000 ; qtot -0.964
     9   ca     1   MOL    C9    9    -0.065000     12.01000 ; qtot -1.029
    10   ca     1   MOL   C10   10     0.153600     12.01000 ; qtot -0.875
    11   nv     1   MOL    N1   11    -0.819200     14.01000 ; qtot -1.695
    12   ha     1   MOL    H1   12     0.132000      1.00800 ; qtot -1.563
    13   ha     1   MOL    H2   13     0.131000      1.00800 ; qtot -1.432
    14   ha     1   MOL    H3   14     0.130000      1.00800 ; qtot -1.302
    15   ha     1   MOL    H4   15     0.133000      1.00800 ; qtot -1.169
    16   ha     1   MOL    H5   16     0.127000      1.00800 ; qtot -1.042
    17   ha     1   MOL    H6   17     0.132000      1.00800 ; qtot -0.910
    18   ha     1   MOL    H7   18     0.130000      1.00800 ; qtot -0.780
    19   hn     1   MOL    H8   19     0.389800      1.00800 ; qtot -0.390
    20   hn     1   MOL    H9   20     0.389800      1.00800 ; qtot 0.000

[ bonds ]
;   ai     aj funct   r             k
     1      2   1    1.3986e-01    2.9644e+05 ;     C1 - C2    
     1      4   1    1.3986e-01    2.9644e+05 ;     C1 - C4    
     1     12   1    1.0860e-01    3.0183e+05 ;     C1 - H1    
     2      5   1    1.3986e-01    2.9644e+05 ;     C2 - C5    
     2     13   1    1.0860e-01    3.0183e+05 ;     C2 - H2    
     3      6   1    1.3986e-01    2.9644e+05 ;     C3 - C6    
     3      7   1    1.3986e-01    2.9644e+05 ;     C3 - C7    
     3     14   1    1.0860e-01    3.0183e+05 ;     C3 - H3    
     4      8   1    1.3986e-01    2.9644e+05 ;     C4 - C8    
     4     15   1    1.0860e-01    3.0183e+05 ;     C4 - H4    
     5      9   1    1.3986e-01    2.9644e+05 ;     C5 - C9    
     5     16   1    1.0860e-01    3.0183e+05 ;     C5 - H5    
     6      8   1    1.3986e-01    2.9644e+05 ;     C6 - C8    
     6     17   1    1.0860e-01    3.0183e+05 ;     C6 - H6    
     7     10   1    1.3986e-01    2.9644e+05 ;     C7 - C10   
     7     18   1    1.0860e-01    3.0183e+05 ;     C7 - H7    
     8      9   1    1.3986e-01    2.9644e+05 ;     C8 - C9    
     9     10   1    1.3986e-01    2.9644e+05 ;     C9 - C10   
    10     11   1    1.3744e-01    2.8644e+05 ;    C10 - N1    
    11     19   1    1.0114e-01    3.9961e+05 ;     N1 - H8    
    11     20   1    1.0114e-01    3.9961e+05 ;     N1 - H9    

[ pairs ]
;   ai     aj    funct
     1      6      1 ;     C1 - C6    
     1      9      1 ;     C1 - C9    
     1     16      1 ;     C1 - H5    
     2      8      1 ;     C2 - C8    
     2     10      1 ;     C2 - C10   
     2     15      1 ;     C2 - H4    
     3      4      1 ;     C3 - C4    
     3      9      1 ;     C3 - C9    
     3     11      1 ;     C3 - N1    
     4      5      1 ;     C4 - C5    
     4     10      1 ;     C4 - C10   
     4     13      1 ;     C4 - H2    
     4     17      1 ;     C4 - H6    
     5      6      1 ;     C5 - C6    
     5      7      1 ;     C5 - C7    
     5     11      1 ;     C5 - N1    
     6     10      1 ;     C6 - C10   
     6     15      1 ;     C6 - H4    
     6     18      1 ;     C6 - H7    
     7      8      1 ;     C7 - C8    
     7     17      1 ;     C7 - H6    
     7     19      1 ;     C7 - H8    
     7     20      1 ;     C7 - H9    
     8     11      1 ;     C8 - N1    
     8     14      1 ;     C8 - H3    
     8     16      1 ;     C8 - H5    
     9     13      1 ;     C9 - H2    
     9     15      1 ;     C9 - H4    
     9     17      1 ;     C9 - H6    
     9     18      1 ;     C9 - H7    
     9     19      1 ;     C9 - H8    
     9     20      1 ;     C9 - H9    
    10     14      1 ;    C10 - H3    
    10     16      1 ;    C10 - H5    
    11     18      1 ;     N1 - H7    
    12      5      1 ;     H1 - C5    
    12      8      1 ;     H1 - C8    
    12     13      1 ;     H1 - H2    
    12     15      1 ;     H1 - H4    
    13     16      1 ;     H2 - H5    
    14     17      1 ;     H3 - H6    
    14     18      1 ;     H3 - H7    

[ angles ]
;   ai     aj     ak    funct   theta         cth
     1      2      5      1    1.2002e+02    5.3279e+02 ;     C1 - C2     - C5    
     1      2     13      1    1.1988e+02    3.7572e+02 ;     C1 - C2     - H2    
     1      4      8      1    1.2002e+02    5.3279e+02 ;     C1 - C4     - C8    
     1      4     15      1    1.1988e+02    3.7572e+02 ;     C1 - C4     - H4    
     2      1      4      1    1.2002e+02    5.3279e+02 ;     C2 - C1     - C4    
     2      1     12      1    1.1988e+02    3.7572e+02 ;     C2 - C1     - H1    
     2      5      9      1    1.2002e+02    5.3279e+02 ;     C2 - C5     - C9    
     2      5     16      1    1.1988e+02    3.7572e+02 ;     C2 - C5     - H5    
     3      6      8      1    1.2002e+02    5.3279e+02 ;     C3 - C6     - C8    
     3      6     17      1    1.1988e+02    3.7572e+02 ;     C3 - C6     - H6    
     3      7     10      1    1.2002e+02    5.3279e+02 ;     C3 - C7     - C10   
     3      7     18      1    1.1988e+02    3.7572e+02 ;     C3 - C7     - H7    
     4      1     12      1    1.1988e+02    3.7572e+02 ;     C4 - C1     - H1    
     4      8      6      1    1.2002e+02    5.3279e+02 ;     C4 - C8     - C6    
     4      8      9      1    1.2002e+02    5.3279e+02 ;     C4 - C8     - C9    
     5      2     13      1    1.1988e+02    3.7572e+02 ;     C5 - C2     - H2    
     5      9      8      1    1.2002e+02    5.3279e+02 ;     C5 - C9     - C8    
     5      9     10      1    1.2002e+02    5.3279e+02 ;     C5 - C9     - C10   
     6      3      7      1    1.2002e+02    5.3279e+02 ;     C6 - C3     - C7    
     6      3     14      1    1.1988e+02    3.7572e+02 ;     C6 - C3     - H3    
     6      8      9      1    1.2002e+02    5.3279e+02 ;     C6 - C8     - C9    
     7      3     14      1    1.1988e+02    3.7572e+02 ;     C7 - C3     - H3    
     7     10      9      1    1.2002e+02    5.3279e+02 ;     C7 - C10    - C9    
     7     10     11      1    1.2094e+02    5.6827e+02 ;     C7 - C10    - N1    
     8      4     15      1    1.1988e+02    3.7572e+02 ;     C8 - C4     - H4    
     8      6     17      1    1.1988e+02    3.7572e+02 ;     C8 - C6     - H6    
     8      9     10      1    1.2002e+02    5.3279e+02 ;     C8 - C9     - C10   
     9      5     16      1    1.1988e+02    3.7572e+02 ;     C9 - C5     - H5    
     9     10     11      1    1.2094e+02    5.6827e+02 ;     C9 - C10    - N1    
    10      7     18      1    1.1988e+02    3.7572e+02 ;    C10 - C7     - H7    
    10     11     19      1    1.1673e+02    4.8292e+02 ;    C10 - N1     - H8    
    10     11     20      1    1.1673e+02    4.8292e+02 ;    C10 - N1     - H9    
    19     11     20      1    1.1528e+02    3.8794e+02 ;     H8 - N1     - H9    

[ dihedrals ] ; propers
; for gromacs 4.5 or higher, using funct 9
;    i      j      k      l   func   phase     kd      pn
     1      2      5      9      9   180.00  15.16700   2 ;     C1-    C2-    C5-    C9
     1      2      5     16      9   180.00  15.16700   2 ;     C1-    C2-    C5-    H5
     1      4      8      6      9   180.00  15.16700   2 ;     C1-    C4-    C8-    C6
     1      4      8      9      9   180.00  15.16700   2 ;     C1-    C4-    C8-    C9
     2      1      4      8      9   180.00  15.16700   2 ;     C2-    C1-    C4-    C8
     2      1      4     15      9   180.00  15.16700   2 ;     C2-    C1-    C4-    H4
     2      5      9      8      9   180.00  15.16700   2 ;     C2-    C5-    C9-    C8
     2      5      9     10      9   180.00  15.16700   2 ;     C2-    C5-    C9-   C10
     3      6      8      4      9   180.00  15.16700   2 ;     C3-    C6-    C8-    C4
     3      6      8      9      9   180.00  15.16700   2 ;     C3-    C6-    C8-    C9
     3      7     10      9      9   180.00  15.16700   2 ;     C3-    C7-   C10-    C9
     3      7     10     11      9   180.00  15.16700   2 ;     C3-    C7-   C10-    N1
     4      1      2      5      9   180.00  15.16700   2 ;     C4-    C1-    C2-    C5
     4      1      2     13      9   180.00  15.16700   2 ;     C4-    C1-    C2-    H2
     4      8      6     17      9   180.00  15.16700   2 ;     C4-    C8-    C6-    H6
     4      8      9      5      9   180.00  15.16700   2 ;     C4-    C8-    C9-    C5
     4      8      9     10      9   180.00  15.16700   2 ;     C4-    C8-    C9-   C10
     5      9      8      6      9   180.00  15.16700   2 ;     C5-    C9-    C8-    C6
     5      9     10      7      9   180.00  15.16700   2 ;     C5-    C9-   C10-    C7
     5      9     10     11      9   180.00  15.16700   2 ;     C5-    C9-   C10-    N1
     6      3      7     10      9   180.00  15.16700   2 ;     C6-    C3-    C7-   C10
     6      3      7     18      9   180.00  15.16700   2 ;     C6-    C3-    C7-    H7
     6      8      4     15      9   180.00  15.16700   2 ;     C6-    C8-    C4-    H4
     6      8      9     10      9   180.00  15.16700   2 ;     C6-    C8-    C9-   C10
     7      3      6      8      9   180.00  15.16700   2 ;     C7-    C3-    C6-    C8
     7      3      6     17      9   180.00  15.16700   2 ;     C7-    C3-    C6-    H6
     7     10      9      8      9   180.00  15.16700   2 ;     C7-   C10-    C9-    C8
     7     10     11     19      9   180.00   4.39320   2 ;     C7-   C10-    N1-    H8
     7     10     11     20      9   180.00   4.39320   2 ;     C7-   C10-    N1-    H9
     8      6      3     14      9   180.00  15.16700   2 ;     C8-    C6-    C3-    H3
     8      9      5     16      9   180.00  15.16700   2 ;     C8-    C9-    C5-    H5
     8      9     10     11      9   180.00  15.16700   2 ;     C8-    C9-   C10-    N1
     9      5      2     13      9   180.00  15.16700   2 ;     C9-    C5-    C2-    H2
     9      8      4     15      9   180.00  15.16700   2 ;     C9-    C8-    C4-    H4
     9      8      6     17      9   180.00  15.16700   2 ;     C9-    C8-    C6-    H6
     9     10      7     18      9   180.00  15.16700   2 ;     C9-   C10-    C7-    H7
     9     10     11     19      9   180.00   4.39320   2 ;     C9-   C10-    N1-    H8
     9     10     11     20      9   180.00   4.39320   2 ;     C9-   C10-    N1-    H9
    10      7      3     14      9   180.00  15.16700   2 ;    C10-    C7-    C3-    H3
    10      9      5     16      9   180.00  15.16700   2 ;    C10-    C9-    C5-    H5
    11     10      7     18      9   180.00  15.16700   2 ;     N1-   C10-    C7-    H7
    12      1      2      5      9   180.00  15.16700   2 ;     H1-    C1-    C2-    C5
    12      1      2     13      9   180.00  15.16700   2 ;     H1-    C1-    C2-    H2
    12      1      4      8      9   180.00  15.16700   2 ;     H1-    C1-    C4-    C8
    12      1      4     15      9   180.00  15.16700   2 ;     H1-    C1-    C4-    H4
    13      2      5     16      9   180.00  15.16700   2 ;     H2-    C2-    C5-    H5
    14      3      6     17      9   180.00  15.16700   2 ;     H3-    C3-    C6-    H6
    14      3      7     18      9   180.00  15.16700   2 ;     H3-    C3-    C7-    H7

[ dihedrals ] ; impropers
; treated as propers in GROMACS to use correct AMBER analytical function
;    i      j      k      l   func   phase     kd      pn
     1      5      2     13      4   180.00   4.60240   2 ;     C1-    C5-    C2-    H2
     1      8      4     15      4   180.00   4.60240   2 ;     C1-    C8-    C4-    H4
     2      9      5     16      4   180.00   4.60240   2 ;     C2-    C9-    C5-    H5
     3      8      6     17      4   180.00   4.60240   2 ;     C3-    C8-    C6-    H6
     3     10      7     18      4   180.00   4.60240   2 ;     C3-   C10-    C7-    H7
     4      6      8      9      4   180.00   4.60240   2 ;     C4-    C6-    C8-    C9
     5      8      9     10      4   180.00   4.60240   2 ;     C5-    C8-    C9-   C10
     6      7      3     14      4   180.00   4.60240   2 ;     C6-    C7-    C3-    H3
     7      9     10     11      4   180.00   4.60240   2 ;     C7-    C9-   C10-    N1
    10     19     11     20      4   180.00   4.60240   2 ;    C10-    H8-    N1-    H9
    12      1      4      2      4   180.00   4.60240   2 ;     H1-    C1-    C4-    C2
