1_naphthylamine
    20
  -0.5680000  -2.0630000   0.2280000   0.3420000  -1.0310000   0.0180000
   3.0390000  -5.3110000  -0.1010000  -0.1300000  -3.3870000   0.2510000
   1.6940000  -1.3190000  -0.1680000   1.6870000  -5.0230000   0.0860000
   3.9500000  -4.2790000  -0.3090000   1.2280000  -3.6950000   0.0650000
   2.1530000  -2.6460000  -0.1470000   3.5110000  -2.9550000  -0.3330000
   4.4790000  -1.9440000  -0.5500000  -1.6210000  -1.8370000   0.3730000
  -0.0010000  -0.0000000   0.0000000   3.3810000  -6.3420000  -0.0820000
  -0.8590000  -4.1770000   0.4160000   2.3730000  -0.4850000  -0.3290000
   0.9930000  -5.8450000   0.2470000   5.0000000  -4.5180000  -0.4530000
   5.2800000  -1.9090000   0.0430000   4.2920000  -1.2350000  -1.2260000
