mobley_2837389_GMX.gro created by acpype (v: 2023.10.27) on Thu May 21 00:02:04 2026
   10
    1MOL     C1    1   2.308   2.273   2.163
    1MOL     C2    2   2.190   2.226   2.101
    1MOL     C3    3   2.299   2.243   2.297
    1MOL     C4    4   2.112   2.168   2.199
    1MOL     N1    5   2.179   2.180   2.318
    1MOL     H1    6   2.391   2.324   2.116
    1MOL     H2    7   2.165   2.233   1.996
    1MOL     H3    8   2.366   2.261   2.380
    1MOL     H4    9   2.015   2.121   2.194
    1MOL     H5   10   2.145   2.146   2.407
   4.43436   4.43436   4.43436
