; mobley_6430250_GMX_OPLS.top created by acpype (v: 2023.10.27) on Wed May 20 23:46:04 2026

; Include forcefield parameters
#include "ffoplsaa.itp"

; Include mobley_6430250_GMX.itp topology
#include "mobley_6430250_GMX.itp"

; Ligand position restraints
#ifdef POSRES_LIG
#include "posre_mobley_6430250.itp"
#endif

[ system ]
 mobley_6430250

[ molecules ]
; Compound        nmols
 mobley_6430250   1     
