n_propylbenzene
    21
   1.8850000  -1.0380000  -0.1090000   0.8180000  -0.4410000   0.5630000
   2.9350000  -1.6040000   0.6140000   0.8010000  -0.4100000   1.9570000
   2.9180000  -1.5730000   2.0080000   1.8510000  -0.9770000   2.6800000
   2.4570000   0.3580000   6.2520000   1.8330000  -0.9440000   4.1710000
   2.5100000   0.3140000   4.7330000   1.8980000  -1.0610000  -1.1950000
   0.0000000   0.0000000  -0.0000000   3.7650000  -2.0680000   0.0910000
  -0.0350000   0.0570000   2.4720000   3.7400000  -2.0170000   2.5630000
   1.4220000   0.3580000   6.6090000   2.9710000  -0.5050000   6.6870000
   2.9440000   1.2660000   6.6220000   0.7950000  -0.9980000   4.5390000
   2.3300000  -1.8410000   4.5770000   3.5570000   0.3510000   4.4090000
   2.0220000   1.2110000   4.3310000
