mobley_1792062_GMX.gro created by acpype (v: 2023.10.27) on Thu May 21 00:01:58 2026
    8
    1MOL     C1    1   2.207   2.286   2.277
    1MOL     C2    2   2.256   2.176   2.186
    1MOL    BR1    3   2.095   2.209   2.416
    1MOL    BR2    4   2.364   2.254   2.043
    1MOL     H1    5   2.289   2.338   2.327
    1MOL     H2    6   2.145   2.359   2.224
    1MOL     H3    7   2.175   2.122   2.138
    1MOL     H4    8   2.321   2.105   2.238
   4.46208   4.46208   4.46208
