mobley_1792062_GMX.gro created by acpype (v: 2023.10.27) on Thu May 21 00:01:58 2026
 8744
    1MOL     C1    1   2.207   2.286   2.277
    1MOL     C2    2   2.256   2.176   2.186
    1MOL    BR1    3   2.095   2.209   2.416
    1MOL    BR2    4   2.364   2.254   2.043
    1MOL     H1    5   2.289   2.338   2.327
    1MOL     H2    6   2.145   2.359   2.224
    1MOL     H3    7   2.175   2.122   2.138
    1MOL     H4    8   2.321   2.105   2.238
    2SOL     OW    9   0.230   0.628   0.113
    2SOL    HW1   10   0.137   0.626   0.150
    2SOL    HW2   11   0.231   0.589   0.021
    3SOL     OW   12   0.225   0.275   0.996
    3SOL    HW1   13   0.260   0.258   1.088
    3SOL    HW2   14   0.137   0.230   0.984
    4SOL     OW   15   0.019   0.368   0.647
    4SOL    HW1   16  -0.063   0.411   0.686
    4SOL    HW2   17  -0.009   0.295   0.584
    5SOL     OW   18   0.569   1.275   1.165
    5SOL    HW1   19   0.476   1.268   1.128
    5SOL    HW2   20   0.580   1.364   1.209
    6SOL     OW   21   1.555   1.511   0.703
    6SOL    HW1   22   1.498   1.495   0.784
    6SOL    HW2   23   1.496   1.521   0.623
    7SOL     OW   24   1.135   0.703   0.717
    7SOL    HW1   25   1.192   0.781   0.692
    7SOL    HW2   26   1.075   0.729   0.793
    8SOL     OW   27   1.755   0.607   0.231
    8SOL    HW1   28   1.743   0.594   0.132
    8SOL    HW2   29   1.725   0.526   0.280
    9SOL     OW   30   0.768   1.144   1.023
    9SOL    HW1   31   0.690   1.161   1.083
    9SOL    HW2   32   0.802   1.231   0.987
   10SOL     OW   33   0.850   0.798   1.823
   10SOL    HW1   34   0.846   0.874   1.888
   10SOL    HW2   35   0.872   0.834   1.732
   11SOL     OW   36   0.685   1.012   0.665
   11SOL    HW1   37   0.754   0.996   0.735
   11SOL    HW2   38   0.612   1.069   0.703
   12SOL     OW   39   0.686   1.161   1.803
   12SOL    HW1   40   0.746   1.240   1.817
   12SOL    HW2   41   0.600   1.192   1.762
   13SOL     OW   42   0.335   1.435   1.061
   13SOL    HW1   43   0.257   1.404   1.008
   13SOL    HW2   44   0.393   1.493   1.004
   14SOL     OW   45   1.460   1.505   1.339
   14SOL    HW1   46   1.484   1.599   1.365
   14SOL    HW2   47   1.444   1.451   1.421
   15SOL     OW   48   0.438   0.392   1.499
   15SOL    HW1   49   0.520   0.336   1.508
   15SOL    HW2   50   0.357   0.334   1.503
   16SOL     OW   51   1.603   0.447   0.737
   16SOL    HW1   52   1.529   0.493   0.687
   16SOL    HW2   53   1.654   0.515   0.790
   17SOL     OW   54   0.231   1.713   0.483
   17SOL    HW1   55   0.265   1.790   0.537
   17SOL    HW2   56   0.275   1.713   0.393
   18SOL     OW   57   1.127   1.341   1.690
   18SOL    HW1   58   1.174   1.341   1.778
   18SOL    HW2   59   1.079   1.254   1.679
   19SOL     OW   60   0.230   1.434   0.538
   19SOL    HW1   61   0.204   1.530   0.538
   19SOL    HW2   62   0.159   1.380   0.583
   20SOL     OW   63   0.240   1.091   0.886
   20SOL    HW1   64   0.254   1.007   0.938
   20SOL    HW2   65   0.185   1.155   0.941
   21SOL     OW   66   0.620   1.786   1.439
   21SOL    HW1   67   0.528   1.769   1.474
   21SOL    HW2   68   0.648   1.878   1.465
   22SOL     OW   69   0.606   0.964   0.123
   22SOL    HW1   70   0.613   1.048   0.069
   22SOL    HW2   71   0.652   0.977   0.211
   23SOL     OW   72   1.594   0.114   1.480
   23SOL    HW1   73   1.576   0.181   1.408
   23SOL    HW2   74   1.591   0.160   1.569
   24SOL     OW   75   0.122   0.643   0.563
   24SOL    HW1   76   0.077   0.555   0.580
   24SOL    HW2   77   0.121   0.697   0.647
   25SOL     OW   78   1.842   1.767   0.359
   25SOL    HW1   79   1.896   1.738   0.439
   25SOL    HW2   80   1.872   1.857   0.330
   26SOL     OW   81   0.027   1.596   0.117
   26SOL    HW1   82   0.008   1.500   0.138
   26SOL    HW2   83  -0.006   1.654   0.192
   27SOL     OW   84   1.689   0.922   0.612
   27SOL    HW1   85   1.784   0.893   0.620
   27SOL    HW2   86   1.681   0.987   0.537
   28SOL     OW   87   1.641   1.108   0.432
   28SOL    HW1   88   1.727   1.110   0.380
   28SOL    HW2   89   1.655   1.155   0.520
   29SOL     OW   90   0.113   0.737   1.597
   29SOL    HW1   91   0.201   0.724   1.642
   29SOL    HW2   92   0.100   0.834   1.575
   30SOL     OW   93   0.613   1.365   0.726
   30SOL    HW1   94   0.564   1.278   0.735
   30SOL    HW2   95   0.590   1.408   0.639
   31SOL     OW   96   1.293   1.228   1.423
   31SOL    HW1   97   1.330   1.155   1.365
   31SOL    HW2   98   1.345   1.233   1.508
   32SOL     OW   99   0.809   0.004   0.502
   32SOL    HW1  100   0.849   0.095   0.493
   32SOL    HW2  101   0.709   0.012   0.508
   33SOL     OW  102   0.197   0.976   1.264
   33SOL    HW1  103   0.286   0.931   1.250
   33SOL    HW2  104   0.124   0.911   1.245
   34SOL     OW  105   1.525   0.999   0.190
   34SOL    HW1  106   1.462   0.923   0.203
   34SOL    HW2  107   1.573   1.017   0.276
   35SOL     OW  108   1.187   1.792   1.616
   35SOL    HW1  109   1.211   1.852   1.540
   35SOL    HW2  110   1.194   1.697   1.586
   36SOL     OW  111   0.317   0.251   1.801
   36SOL    HW1  112   0.388   0.322   1.807
   36SOL    HW2  113   0.229   0.290   1.829
   37SOL     OW  114   1.466   1.417   0.953
   37SOL    HW1  115   1.407   1.423   1.033
   37SOL    HW2  116   1.451   1.329   0.907
   38SOL     OW  117   1.667   1.714   0.572
   38SOL    HW1  118   1.626   1.691   0.484
   38SOL    HW2  119   1.649   1.640   0.637
   39SOL     OW  120   0.598   0.729   0.270
   39SOL    HW1  121   0.622   0.798   0.202
   39SOL    HW2  122   0.520   0.762   0.324
   40SOL     OW  123   1.281   0.345   0.944
   40SOL    HW1  124   1.195   0.295   0.931
   40SOL    HW2  125   1.343   0.291   1.000
   41SOL     OW  126   1.576   1.662   0.307
   41SOL    HW1  127   1.665   1.708   0.310
   41SOL    HW2  128   1.555   1.638   0.212
   42SOL     OW  129   0.807   0.605   1.465
   42SOL    HW1  130   0.760   0.602   1.554
   42SOL    HW2  131   0.756   0.550   1.399
   43SOL     OW  132   1.394   0.469   1.674
   43SOL    HW1  133   1.374   0.512   1.762
   43SOL    HW2  134   1.472   0.407   1.683
   44SOL     OW  135   0.973   0.890   1.572
   44SOL    HW1  136   1.019   0.806   1.543
   44SOL    HW2  137   0.917   0.924   1.497
   45SOL     OW  138   0.991   0.410   1.242
   45SOL    HW1  139   0.914   0.444   1.296
   45SOL    HW2  140   0.957   0.359   1.163
   46SOL     OW  141   1.041   0.701   0.429
   46SOL    HW1  142   1.067   0.697   0.525
   46SOL    HW2  143   0.956   0.650   0.415
   47SOL     OW  144   0.076   0.811   0.789
   47SOL    HW1  145   0.175   0.799   0.798
   47SOL    HW2  146   0.052   0.906   0.810
   48SOL     OW  147   0.130   1.821   1.571
   48SOL    HW1  148   0.120   1.806   1.670
   48SOL    HW2  149   0.044   1.857   1.535
   49SOL     OW  150   0.865   0.348   0.195
   49SOL    HW1  151   0.924   0.411   0.146
   49SOL    HW2  152   0.884   0.254   0.166
   50SOL     OW  153   1.719   0.585   1.831
   50SOL    HW1  154   1.693   0.674   1.795
   50SOL    HW2  155   1.717   0.517   1.758
   51SOL     OW  156   1.362   1.144   0.545
   51SOL    HW1  157   1.445   1.115   0.497
   51SOL    HW2  158   1.313   1.211   0.489
   52SOL     OW  159   0.550   0.196   0.885
   52SOL    HW1  160   0.545   0.191   0.985
   52SOL    HW2  161   0.552   0.292   0.856
   53SOL     OW  162   1.008   1.456   0.477
   53SOL    HW1  163   0.962   1.528   0.425
   53SOL    HW2  164   1.004   1.476   0.575
   54SOL     OW  165   0.351   1.801   0.853
   54SOL    HW1  166   0.401   1.715   0.859
   54SOL    HW2  167   0.416   1.878   0.850
   55SOL     OW  168   1.795   1.066   0.873
   55SOL    HW1  169   1.733   1.051   0.797
   55SOL    HW2  170   1.743   1.077   0.958
   56SOL     OW  171   1.227   1.550   1.506
   56SOL    HW1  172   1.233   1.473   1.570
   56SOL    HW2  173   1.175   1.524   1.426
   57SOL     OW  174   0.321   0.943   0.242
   57SOL    HW1  175   0.403   0.982   0.200
   57SOL    HW2  176   0.294   0.861   0.193
   58SOL     OW  177   1.458   0.735   0.728
   58SOL    HW1  178   1.453   0.670   0.803
   58SOL    HW2  179   1.538   0.794   0.741
   59SOL     OW  180   0.461   1.266   1.727
   59SOL    HW1  181   0.411   1.267   1.641
   59SOL    HW2  182   0.398   1.248   1.803
   60SOL     OW  183   1.111   1.776   0.237
   60SOL    HW1  184   1.051   1.714   0.287
   60SOL    HW2  185   1.142   1.732   0.152
   61SOL     OW  186   0.202   0.285   1.498
   61SOL    HW1  187   0.122   0.345   1.485
   61SOL    HW2  188   0.192   0.236   1.584
   62SOL     OW  189   1.632   1.377   0.081
   62SOL    HW1  190   1.600   1.471   0.071
   62SOL    HW2  191   1.556   1.314   0.069
   63SOL     OW  192   0.464   1.743   0.323
   63SOL    HW1  193   0.497   1.782   0.409
   63SOL    HW2  194   0.540   1.736   0.258
   64SOL     OW  195   1.400   0.107   0.426
   64SOL    HW1  196   1.376   0.070   0.336
   64SOL    HW2  197   1.499   0.123   0.430
   65SOL     OW  198   0.249   1.785   1.241
   65SOL    HW1  199   0.306   1.720   1.291
   65SOL    HW2  200   0.233   1.752   1.148
   66SOL     OW  201   0.940   1.698   0.904
   66SOL    HW1  202   1.020   1.641   0.925
   66SOL    HW2  203   0.891   1.658   0.827
   67SOL     OW  204   0.382   0.700   0.480
   67SOL    HW1  205   0.427   0.610   0.477
   67SOL    HW2  206   0.288   0.689   0.513
   68SOL     OW  207   1.547   0.222   1.729
   68SOL    HW1  208   1.542   0.259   1.821
   68SOL    HW2  209   1.475   0.153   1.717
   69SOL     OW  210   0.614   0.122   0.117
   69SOL    HW1  211   0.712   0.100   0.124
   69SOL    HW2  212   0.583   0.105   0.024
   70SOL     OW  213   0.781   0.264   1.749
   70SOL    HW1  214   0.848   0.203   1.792
   70SOL    HW2  215   0.708   0.283   1.814
   71SOL     OW  216   0.888   1.514   1.195
   71SOL    HW1  217   0.865   1.489   1.101
   71SOL    HW2  218   0.949   1.445   1.234
   72SOL     OW  219   1.351   0.590   1.433
   72SOL    HW1  220   1.379   0.547   1.518
   72SOL    HW2  221   1.376   0.686   1.434
   73SOL     OW  222   0.803   1.402   0.924
   73SOL    HW1  223   0.893   1.416   0.882
   73SOL    HW2  224   0.732   1.404   0.853
   74SOL     OW  225   0.922   0.503   0.899
   74SOL    HW1  226   0.897   0.494   0.803
   74SOL    HW2  227   0.970   0.421   0.930
   75SOL     OW  228   0.539   0.064   0.512
   75SOL    HW1  229   0.458   0.065   0.570
   75SOL    HW2  230   0.542   0.147   0.457
   76SOL     OW  231   1.434   1.188   0.041
   76SOL    HW1  232   1.466   1.112   0.098
   76SOL    HW2  233   1.342   1.215   0.071
   77SOL     OW  234   0.297   0.035   0.171
   77SOL    HW1  235   0.346   0.119   0.150
   77SOL    HW2  236   0.359  -0.030   0.216
   78SOL     OW  237   0.935   0.236   0.480
   78SOL    HW1  238   0.887   0.277   0.402
   78SOL    HW2  239   1.034   0.234   0.461
   79SOL     OW  240   1.076   0.683   1.464
   79SOL    HW1  241   0.996   0.622   1.467
   79SOL    HW2  242   1.157   0.630   1.440
   80SOL     OW  243   1.227   1.570   0.793
   80SOL    HW1  244   1.248   1.644   0.728
   80SOL    HW2  245   1.295   1.570   0.866
   81SOL     OW  246   0.459   1.152   0.741
   81SOL    HW1  247   0.388   1.125   0.806
   81SOL    HW2  248   0.433   1.124   0.648
   82SOL     OW  249   1.271   1.797   0.591
   82SOL    HW1  250   1.315   1.861   0.527
   82SOL    HW2  251   1.221   1.849   0.661
   83SOL     OW  252   1.032   0.549   0.016
   83SOL    HW1  253   0.991   0.631  -0.023
   83SOL    HW2  254   1.096   0.575   0.089
   84SOL     OW  255   0.078   0.556   1.386
   84SOL    HW1  256   0.170   0.555   1.345
   84SOL    HW2  257   0.072   0.630   1.453
   85SOL     OW  258   0.561   0.222   1.147
   85SOL    HW1  259   0.599   0.138   1.184
   85SOL    HW2  260   0.473   0.241   1.191
   86SOL     OW  261   0.866   0.454   0.642
   86SOL    HW1  262   0.834   0.526   0.580
   86SOL    HW2  263   0.890   0.373   0.589
   87SOL     OW  264   1.017   0.039   0.753
   87SOL    HW1  265   0.945   0.044   0.684
   87SOL    HW2  266   0.993  -0.030   0.822
   88SOL     OW  267   1.429   1.173   0.867
   88SOL    HW1  268   1.374   1.089   0.860
   88SOL    HW2  269   1.455   1.202   0.775
   89SOL     OW  270   1.466   0.590   0.992
   89SOL    HW1  271   1.436   0.495   0.999
   89SOL    HW2  272   1.539   0.606   1.058
   90SOL     OW  273   1.857   0.833   0.377
   90SOL    HW1  274   1.899   0.769   0.441
   90SOL    HW2  275   1.819   0.782   0.299
   91SOL     OW  276   0.488   1.385   0.174
   91SOL    HW1  277   0.401   1.370   0.221
   91SOL    HW2  278   0.471   1.411   0.079
   92SOL     OW  279   1.664   1.280   0.657
   92SOL    HW1  280   1.763   1.288   0.671
   92SOL    HW2  281   1.619   1.364   0.688
   93SOL     OW  282   1.390   0.575   0.078
   93SOL    HW1  283   1.336   0.554   0.159
   93SOL    HW2  284   1.481   0.534   0.087
   94SOL     OW  285   0.527   0.256   0.328
   94SOL    HW1  286   0.554   0.197   0.253
   94SOL    HW2  287   0.527   0.351   0.297
   95SOL     OW  288   1.754   1.223   1.588
   95SOL    HW1  289   1.845   1.184   1.575
   95SOL    HW2  290   1.762   1.319   1.612
   96SOL     OW  291   1.064   1.347   1.340
   96SOL    HW1  292   0.984   1.324   1.395
   96SOL    HW2  293   1.147   1.321   1.389
   97SOL     OW  294   1.592   1.629   1.625
   97SOL    HW1  295   1.619   1.663   1.535
   97SOL    HW2  296   1.671   1.591   1.671
   98SOL     OW  297   1.111   1.195   1.100
   98SOL    HW1  298   1.071   1.239   1.181
   98SOL    HW2  299   1.070   1.232   1.017
   99SOL     OW  300   1.638   1.099   1.079
   99SOL    HW1  301   1.643   1.180   1.138
   99SOL    HW2  302   1.552   1.101   1.028
  100SOL     OW  303   0.915   0.089   1.402
  100SOL    HW1  304   0.940   0.069   1.307
  100SOL    HW2  305   0.987   0.145   1.444
  101SOL     OW  306   0.980   1.116   1.719
  101SOL    HW1  307   0.881   1.122   1.729
  101SOL    HW2  308   1.003   1.036   1.663
  102SOL     OW  309   0.705   1.050   0.368
  102SOL    HW1  310   0.691   1.057   0.467
  102SOL    HW2  311   0.789   0.999   0.350
  103SOL     OW  312   0.410   0.813   1.251
  103SOL    HW1  313   0.496   0.825   1.301
  103SOL    HW2  314   0.368   0.726   1.278
  104SOL     OW  315   1.274   0.386   1.262
  104SOL    HW1  316   1.295   0.460   1.326
  104SOL    HW2  317   1.185   0.403   1.219
  105SOL     OW  318   0.064   1.564   1.331
  105SOL    HW1  319   0.018   1.646   1.297
  105SOL    HW2  320   0.162   1.583   1.340
  106SOL     OW  321   0.367   1.100   0.501
  106SOL    HW1  322   0.360   1.183   0.445
  106SOL    HW2  323   0.371   1.020   0.441
  107SOL     OW  324   0.566   0.537   0.865
  107SOL    HW1  325   0.578   0.603   0.791
  107SOL    HW2  326   0.612   0.571   0.948
  108SOL     OW  327   1.252   1.348   0.388
  108SOL    HW1  328   1.302   1.425   0.428
  108SOL    HW2  329   1.157   1.350   0.420
  109SOL     OW  330   1.272   1.445   1.142
  109SOL    HW1  331   1.319   1.458   1.229
  109SOL    HW2  332   1.206   1.371   1.151
  110SOL     OW  333   1.582   0.639   0.472
  110SOL    HW1  334   1.551   0.700   0.545
  110SOL    HW2  335   1.632   0.691   0.403
  111SOL     OW  336   0.354   1.510   1.329
  111SOL    HW1  337   0.333   1.466   1.242
  111SOL    HW2  338   0.451   1.536   1.332
  112SOL     OW  339   0.402   0.751   1.598
  112SOL    HW1  340   0.470   0.806   1.551
  112SOL    HW2  341   0.442   0.663   1.625
  113SOL     OW  342   1.587   0.779   1.670
  113SOL    HW1  343   1.495   0.817   1.665
  113SOL    HW2  344   1.647   0.826   1.605
  114SOL     OW  345   1.013   0.105   1.770
  114SOL    HW1  346   1.019   0.190   1.718
  114SOL    HW2  347   1.045   0.029   1.713
  115SOL     OW  348   0.504   0.050   1.740
  115SOL    HW1  349   0.462  -0.007   1.670
  115SOL    HW2  350   0.438   0.119   1.772
  116SOL     OW  351   0.573   0.870   1.029
  116SOL    HW1  352   0.617   0.959   1.020
  116SOL    HW2  353   0.510   0.870   1.106
  117SOL     OW  354   1.360   0.862   1.045
  117SOL    HW1  355   1.285   0.862   0.979
  117SOL    HW2  356   1.397   0.770   1.054
  118SOL     OW  357   1.209   0.525   0.275
  118SOL    HW1  358   1.222   0.441   0.329
  118SOL    HW2  359   1.180   0.599   0.335
  119SOL     OW  360   0.307   0.213   1.231
  119SOL    HW1  361   0.284   0.250   1.321
  119SOL    HW2  362   0.277   0.118   1.225
  120SOL     OW  363   0.037   1.310   1.282
  120SOL    HW1  364   0.090   1.261   1.350
  120SOL    HW2  365   0.059   1.408   1.287
  121SOL     OW  366   0.732   0.634   1.064
  121SOL    HW1  367   0.791   0.608   0.988
  121SOL    HW2  368   0.704   0.730   1.053
  122SOL     OW  369   1.728   0.935   1.854
  122SOL    HW1  370   1.682   0.928   1.765
  122SOL    HW2  371   1.666   0.979   1.920
  123SOL     OW  372   0.307   0.063   0.618
  123SOL    HW1  373   0.296   0.157   0.651
  123SOL    HW2  374   0.302   0.000   0.695
  124SOL     OW  375   1.622   0.367   0.374
  124SOL    HW1  376   1.624   0.291   0.438
  124SOL    HW2  377   1.574   0.444   0.414
  125SOL     OW  378   1.023   0.766   0.966
  125SOL    HW1  379   1.038   0.787   1.062
  125SOL    HW2  380   0.993   0.671   0.957
  126SOL     OW  381   0.980   1.573   1.700
  126SOL    HW1  382   0.960   1.617   1.612
  126SOL    HW2  383   1.019   1.482   1.684
  127SOL     OW  384   1.859   1.518   1.605
  127SOL    HW1  385   1.873   1.545   1.510
  127SOL    HW2  386   1.942   1.540   1.658
  128SOL     OW  387   0.350   0.898   1.804
  128SOL    HW1  388   0.426   0.942   1.852
  128SOL    HW2  389   0.385   0.851   1.722
  129SOL     OW  390   1.540   0.274   0.125
  129SOL    HW1  391   1.479   0.199   0.148
  129SOL    HW2  392   1.562   0.326   0.208
  130SOL     OW  393   1.303   0.838   0.042
  130SOL    HW1  394   1.337   0.745   0.057
  130SOL    HW2  395   1.321   0.865  -0.053
  131SOL     OW  396   1.068   1.333   0.849
  131SOL    HW1  397   1.075   1.249   0.794
  131SOL    HW2  398   1.130   1.402   0.813
  132SOL     OW  399   0.319   0.810   0.949
  132SOL    HW1  400   0.412   0.846   0.954
  132SOL    HW2  401   0.313   0.725   1.001
  133SOL     OW  402   0.339   0.509   1.006
  133SOL    HW1  403   0.287   0.426   0.989
  133SOL    HW2  404   0.416   0.514   0.942
  134SOL     OW  405   1.138   0.380   1.678
  134SOL    HW1  406   1.093   0.443   1.742
  134SOL    HW2  407   1.231   0.411   1.661
  135SOL     OW  408   1.160   0.207   1.477
  135SOL    HW1  409   1.160   0.271   1.554
  135SOL    HW2  410   1.188   0.255   1.394
  136SOL     OW  411   0.008   1.326   0.200
  136SOL    HW1  412  -0.085   1.347   0.169
  136SOL    HW2  413   0.018   1.227   0.213
  137SOL     OW  414   0.088   1.801   0.927
  137SOL    HW1  415   0.046   1.715   0.900
  137SOL    HW2  416   0.182   1.804   0.893
  138SOL     OW  417   0.504   1.568   0.910
  138SOL    HW1  418   0.570   1.642   0.919
  138SOL    HW2  419   0.548   1.489   0.868
  139SOL     OW  420   1.002   0.796   1.238
  139SOL    HW1  421   1.043   0.764   1.324
  139SOL    HW2  422   0.906   0.769   1.235
  140SOL     OW  423   0.040   0.544   1.114
  140SOL    HW1  424   0.125   0.511   1.073
  140SOL    HW2  425   0.053   0.559   1.212
  141SOL     OW  426   0.189   0.520   1.722
  141SOL    HW1  427   0.248   0.480   1.652
  141SOL    HW2  428   0.131   0.591   1.681
  142SOL     OW  429   1.369   0.950   1.660
  142SOL    HW1  430   1.408   1.039   1.680
  142SOL    HW2  431   1.379   0.930   1.563
  143SOL     OW  432   0.815   0.572   0.325
  143SOL    HW1  433   0.822   0.483   0.279
  143SOL    HW2  434   0.721   0.606   0.317
  144SOL     OW  435   1.657   0.604   1.206
  144SOL    HW1  436   1.619   0.535   1.268
  144SOL    HW2  437   1.739   0.568   1.162
  145SOL     OW  438   0.252   1.564   1.744
  145SOL    HW1  439   0.222   1.621   1.820
  145SOL    HW2  440   0.245   1.467   1.770
  146SOL     OW  441   0.671   0.464   1.269
  146SOL    HW1  442   0.637   0.375   1.239
  146SOL    HW2  443   0.697   0.518   1.189
  147SOL     OW  444   0.930   1.678   1.465
  147SOL    HW1  445   0.906   1.660   1.370
  147SOL    HW2  446   0.960   1.772   1.475
  148SOL     OW  447   0.473   0.500   0.191
  148SOL    HW1  448   0.534   0.580   0.195
  148SOL    HW2  449   0.378   0.531   0.198
  149SOL     OW  450   0.159   1.137   1.466
  149SOL    HW1  451   0.181   1.076   1.542
  149SOL    HW2  452   0.169   1.088   1.380
  150SOL     OW  453   1.347   1.059   1.234
  150SOL    HW1  454   1.371   0.996   1.160
  150SOL    HW2  455   1.257   1.099   1.216
  151SOL     OW  456   1.302   0.855   0.309
  151SOL    HW1  457   1.216   0.824   0.351
  151SOL    HW2  458   1.298   0.841   0.210
  152SOL     OW  459   1.759   1.747   1.154
  152SOL    HW1  460   1.820   1.777   1.081
  152SOL    HW2  461   1.721   1.658   1.132
  153SOL     OW  462   1.252   1.731   1.128
  153SOL    HW1  463   1.336   1.736   1.074
  153SOL    HW2  464   1.229   1.635   1.146
  154SOL     OW  465   0.083   1.258   1.022
  154SOL    HW1  466   0.078   1.257   1.122
  154SOL    HW2  467   0.000   1.217   0.984
  155SOL     OW  468   0.688   1.662   1.716
  155SOL    HW1  469   0.632   1.743   1.725
  155SOL    HW2  470   0.740   1.666   1.630
  156SOL     OW  471   0.903   0.086   0.133
  156SOL    HW1  472   0.954   0.087   0.047
  156SOL    HW2  473   0.959   0.044   0.204
  157SOL     OW  474   1.726   0.135   0.523
  157SOL    HW1  475   1.799   0.118   0.456
  157SOL    HW2  476   1.695   0.048   0.561
  158SOL     OW  477   1.388   1.573   0.477
  158SOL    HW1  478   1.455   1.585   0.403
  158SOL    HW2  479   1.348   1.662   0.500
  159SOL     OW  480   0.130   1.794   1.851
  159SOL    HW1  481   0.089   1.720   1.904
  159SOL    HW2  482   0.194   1.845   1.909
  160SOL     OW  483   1.280   0.927   0.672
  160SOL    HW1  484   1.340   0.846   0.674
  160SOL    HW2  485   1.320   0.996   0.612
  161SOL     OW  486   0.830   1.273   1.422
  161SOL    HW1  487   0.825   1.306   1.517
  161SOL    HW2  488   0.744   1.292   1.376
  162SOL     OW  489   0.672   1.616   0.154
  162SOL    HW1  490   0.681   1.626   0.055
  162SOL    HW2  491   0.632   1.527   0.175
  163SOL     OW  492   1.650   1.720   1.394
  163SOL    HW1  493   1.703   1.730   1.310
  163SOL    HW2  494   1.623   1.810   1.428
  164SOL     OW  495   1.841   0.175   0.963
  164SOL    HW1  496   1.880   0.090   0.927
  164SOL    HW2  497   1.743   0.177   0.944
  165SOL     OW  498   0.263   0.326   0.720
  165SOL    HW1  499   0.184   0.377   0.686
  165SOL    HW2  500   0.254   0.311   0.818
  166SOL     OW  501   1.194   1.612   0.031
  166SOL    HW1  502   1.200   1.519   0.068
  166SOL    HW2  503   1.135   1.612  -0.049
  167SOL     OW  504   0.822   1.002   1.372
  167SOL    HW1  505   0.862   1.001   1.280
  167SOL    HW2  506   0.832   1.094   1.412
  168SOL     OW  507   0.916   0.910   0.291
  168SOL    HW1  508   0.979   0.948   0.223
  168SOL    HW2  509   0.956   0.827   0.330
  169SOL     OW  510   1.504   1.607   0.044
  169SOL    HW1  511   1.412   1.644   0.051
  169SOL    HW2  512   1.542   1.627  -0.046
  170SOL     OW  513   0.372   1.288   1.490
  170SOL    HW1  514   0.359   1.381   1.456
  170SOL    HW2  515   0.288   1.236   1.477
  171SOL     OW  516   1.614   1.292   1.289
  171SOL    HW1  517   1.674   1.295   1.369
  171SOL    HW2  518   1.539   1.356   1.302
  172SOL     OW  519   1.039   1.098   0.696
  172SOL    HW1  520   0.969   1.051   0.750
  172SOL    HW2  521   1.098   1.030   0.653
  173SOL     OW  522   1.014   0.236   0.971
  173SOL    HW1  523   1.006   0.200   0.878
  173SOL    HW2  524   1.012   0.160   1.036
  174SOL     OW  525   0.590   1.487   0.491
  174SOL    HW1  526   0.632   1.429   0.421
  174SOL    HW2  527   0.546   1.566   0.447
  175SOL     OW  528   1.709   0.385   1.381
  175SOL    HW1  529   1.782   0.454   1.385
  175SOL    HW2  530   1.737   0.310   1.322
  176SOL     OW  531   0.255   1.348   0.290
  176SOL    HW1  532   0.159   1.349   0.263
  176SOL    HW2  533   0.267   1.401   0.374
  177SOL     OW  534   0.105   1.013   1.726
  177SOL    HW1  535   0.028   0.980   1.780
  177SOL    HW2  536   0.190   0.983   1.768
  178SOL     OW  537   0.672   0.203   1.489
  178SOL    HW1  538   0.762   0.187   1.449
  178SOL    HW2  539   0.680   0.208   1.588
  179SOL     OW  540   0.075   0.345   0.033
  179SOL    HW1  541  -0.017   0.317   0.004
  179SOL    HW2  542   0.106   0.422  -0.023
  180SOL     OW  543   1.440   0.856   1.398
  180SOL    HW1  544   1.383   0.908   1.335
  180SOL    HW2  545   1.536   0.868   1.374
  181SOL     OW  546   0.072   0.166   0.318
  181SOL    HW1  547   0.055   0.249   0.264
  181SOL    HW2  548   0.162   0.129   0.296
  182SOL     OW  549   1.183   1.335   0.119
  182SOL    HW1  550   1.084   1.324   0.121
  182SOL    HW2  551   1.217   1.350   0.212
  183SOL     OW  552   0.613   0.842   1.431
  183SOL    HW1  553   0.669   0.923   1.414
  183SOL    HW2  554   0.672   0.762   1.434
  184SOL     OW  555   1.493   1.767   0.959
  184SOL    HW1  556   1.526   1.831   0.890
  184SOL    HW2  557   1.559   1.761   1.034
  185SOL     OW  558   0.716   0.565   1.708
  185SOL    HW1  559   0.735   0.630   1.782
  185SOL    HW2  560   0.776   0.485   1.717
  186SOL     OW  561   1.450   1.220   1.633
  186SOL    HW1  562   1.441   1.210   1.732
  186SOL    HW2  563   1.546   1.213   1.607
  187SOL     OW  564   0.390   1.741   1.560
  187SOL    HW1  565   0.299   1.782   1.558
  187SOL    HW2  566   0.383   1.647   1.592
  188SOL     OW  567   1.674   0.883   1.254
  188SOL    HW1  568   1.647   0.794   1.217
  188SOL    HW2  569   1.675   0.951   1.181
  189SOL     OW  570   1.225   0.325   0.449
  189SOL    HW1  571   1.290   0.251   0.438
  189SOL    HW2  572   1.245   0.375   0.533
  190SOL     OW  573   0.594   0.745   0.652
  190SOL    HW1  574   0.644   0.830   0.633
  190SOL    HW2  575   0.506   0.747   0.604
  191SOL     OW  576   1.777   0.342   1.642
  191SOL    HW1  577   1.760   0.373   1.548
  191SOL    HW2  578   1.693   0.305   1.680
  192SOL     OW  579   1.730   0.934   1.517
  192SOL    HW1  580   1.768   1.025   1.532
  192SOL    HW2  581   1.722   0.917   1.418
  193SOL     OW  582   0.859   1.374   0.016
  193SOL    HW1  583   0.813   1.389   0.104
  193SOL    HW2  584   0.903   1.459  -0.014
  194SOL     OW  585   0.661   1.790   0.953
  194SOL    HW1  586   0.615   1.878   0.940
  194SOL    HW2  587   0.760   1.802   0.946
  195SOL     OW  588   0.859   0.956   0.861
  195SOL    HW1  589   0.913   0.887   0.909
  195SOL    HW2  590   0.827   1.025   0.927
  196SOL     OW  591   1.083   0.984   0.087
  196SOL    HW1  592   1.060   1.037   0.005
  196SOL    HW2  593   1.164   0.928   0.068
  197SOL     OW  594   1.861   1.569   0.851
  197SOL    HW1  595   1.790   1.557   0.781
  197SOL    HW2  596   1.862   1.490   0.911
  198SOL     OW  597   0.221   1.314   1.844
  198SOL    HW1  598   0.156   1.241   1.823
  198SOL    HW2  599   0.225   1.328   1.942
  199SOL     OW  600   0.079   1.240   0.653
  199SOL    HW1  601   0.078   1.193   0.741
  199SOL    HW2  602   0.161   1.212   0.602
  200SOL     OW  603   0.672   1.391   1.624
  200SOL    HW1  604   0.594   1.341   1.662
  200SOL    HW2  605   0.669   1.486   1.655
  201SOL     OW  606   1.824   0.192   1.227
  201SOL    HW1  607   1.820   0.102   1.271
  201SOL    HW2  608   1.827   0.181   1.128
  202SOL     OW  609   0.428   0.424   0.520
  202SOL    HW1  610   0.458   0.352   0.458
  202SOL    HW2  611   0.389   0.384   0.603
  203SOL     OW  612   1.705   1.487   1.104
  203SOL    HW1  613   1.612   1.462   1.077
  203SOL    HW2  614   1.731   1.437   1.186
  204SOL     OW  615   0.317   0.547   1.280
  204SOL    HW1  616   0.355   0.488   1.352
  204SOL    HW2  617   0.357   0.521   1.192
  205SOL     OW  618   0.812   1.586   0.687
  205SOL    HW1  619   0.844   1.596   0.593
  205SOL    HW2  620   0.733   1.524   0.689
  206SOL     OW  621   1.424   0.214   1.112
  206SOL    HW1  622   1.476   0.149   1.167
  206SOL    HW2  623   1.375   0.277   1.173
  207SOL     OW  624   1.001   0.034   1.154
  207SOL    HW1  625   0.938  -0.038   1.123
  207SOL    HW2  626   1.094  -0.002   1.154
  208SOL     OW  627   0.770   1.330   0.301
  208SOL    HW1  628   0.724   1.243   0.318
  208SOL    HW2  629   0.861   1.327   0.342
  209SOL     OW  630   0.618   1.567   1.284
  209SOL    HW1  631   0.613   1.649   1.341
  209SOL    HW2  632   0.707   1.564   1.239
  210SOL     OW  633   1.352   0.052   0.168
  210SOL    HW1  634   1.387   0.011   0.084
  210SOL    HW2  635   1.262   0.014   0.188
  211SOL     OW  636   1.300   0.453   0.691
  211SOL    HW1  637   1.241   0.533   0.695
  211SOL    HW2  638   1.315   0.418   0.784
  212SOL     OW  639   1.593   0.221   0.882
  212SOL    HW1  640   1.509   0.220   0.936
  212SOL    HW2  641   1.595   0.304   0.826
  213SOL     OW  642   0.039   1.077   0.300
  213SOL    HW1  643   0.138   1.066   0.291
  213SOL    HW2  644  -0.001   0.991   0.332
  214SOL     OW  645   0.875   1.646   0.337
  214SOL    HW1  646   0.798   1.611   0.283
  214SOL    HW2  647   0.843   1.717   0.399
  215SOL     OW  648   0.230   0.628   1.975
  215SOL    HW1  649   0.137   0.626   2.012
  215SOL    HW2  650   0.231   0.589   1.883
  216SOL     OW  651   0.225   0.275   2.858
  216SOL    HW1  652   0.260   0.258   2.950
  216SOL    HW2  653   0.137   0.230   2.846
  217SOL     OW  654   0.019   0.368   2.509
  217SOL    HW1  655  -0.063   0.411   2.548
  217SOL    HW2  656  -0.009   0.295   2.446
  218SOL     OW  657   0.569   1.275   3.027
  218SOL    HW1  658   0.476   1.268   2.990
  218SOL    HW2  659   0.580   1.364   3.071
  219SOL     OW  660   1.555   1.511   2.565
  219SOL    HW1  661   1.498   1.495   2.646
  219SOL    HW2  662   1.496   1.521   2.485
  220SOL     OW  663   1.135   0.703   2.579
  220SOL    HW1  664   1.192   0.781   2.554
  220SOL    HW2  665   1.075   0.729   2.655
  221SOL     OW  666   1.755   0.607   2.093
  221SOL    HW1  667   1.743   0.594   1.994
  221SOL    HW2  668   1.725   0.526   2.142
  222SOL     OW  669   0.768   1.144   2.885
  222SOL    HW1  670   0.690   1.161   2.945
  222SOL    HW2  671   0.802   1.231   2.849
  223SOL     OW  672   0.850   0.798   3.685
  223SOL    HW1  673   0.846   0.874   3.750
  223SOL    HW2  674   0.872   0.834   3.594
  224SOL     OW  675   0.685   1.012   2.527
  224SOL    HW1  676   0.754   0.996   2.597
  224SOL    HW2  677   0.612   1.069   2.565
  225SOL     OW  678   0.686   1.161   3.665
  225SOL    HW1  679   0.746   1.240   3.679
  225SOL    HW2  680   0.600   1.192   3.624
  226SOL     OW  681   0.335   1.435   2.923
  226SOL    HW1  682   0.257   1.404   2.870
  226SOL    HW2  683   0.393   1.493   2.866
  227SOL     OW  684   1.460   1.505   3.201
  227SOL    HW1  685   1.484   1.599   3.227
  227SOL    HW2  686   1.444   1.451   3.283
  228SOL     OW  687   0.438   0.392   3.361
  228SOL    HW1  688   0.520   0.336   3.370
  228SOL    HW2  689   0.357   0.334   3.365
  229SOL     OW  690   1.603   0.447   2.599
  229SOL    HW1  691   1.529   0.493   2.549
  229SOL    HW2  692   1.654   0.515   2.652
  230SOL     OW  693   0.231   1.713   2.345
  230SOL    HW1  694   0.265   1.790   2.399
  230SOL    HW2  695   0.275   1.713   2.255
  231SOL     OW  696   1.127   1.341   3.552
  231SOL    HW1  697   1.174   1.341   3.640
  231SOL    HW2  698   1.079   1.254   3.541
  232SOL     OW  699   0.230   1.434   2.400
  232SOL    HW1  700   0.204   1.530   2.400
  232SOL    HW2  701   0.159   1.380   2.445
  233SOL     OW  702   0.240   1.091   2.748
  233SOL    HW1  703   0.254   1.007   2.800
  233SOL    HW2  704   0.185   1.155   2.803
  234SOL     OW  705   0.620   1.786   3.301
  234SOL    HW1  706   0.528   1.769   3.336
  234SOL    HW2  707   0.648   1.878   3.327
  235SOL     OW  708   0.606   0.964   1.985
  235SOL    HW1  709   0.613   1.048   1.931
  235SOL    HW2  710   0.652   0.977   2.073
  236SOL     OW  711   1.594   0.114   3.342
  236SOL    HW1  712   1.576   0.181   3.270
  236SOL    HW2  713   1.591   0.160   3.431
  237SOL     OW  714   0.122   0.643   2.425
  237SOL    HW1  715   0.077   0.555   2.442
  237SOL    HW2  716   0.121   0.697   2.509
  238SOL     OW  717   1.842   1.767   2.221
  238SOL    HW1  718   1.896   1.738   2.301
  238SOL    HW2  719   1.872   1.857   2.192
  239SOL     OW  720   0.027   1.596   1.979
  239SOL    HW1  721   0.008   1.500   2.000
  239SOL    HW2  722  -0.006   1.654   2.054
  240SOL     OW  723   1.689   0.922   2.474
  240SOL    HW1  724   1.784   0.893   2.482
  240SOL    HW2  725   1.681   0.987   2.399
  241SOL     OW  726   1.641   1.108   2.294
  241SOL    HW1  727   1.727   1.110   2.242
  241SOL    HW2  728   1.655   1.155   2.382
  242SOL     OW  729   0.113   0.737   3.459
  242SOL    HW1  730   0.201   0.724   3.504
  242SOL    HW2  731   0.100   0.834   3.437
  243SOL     OW  732   0.613   1.365   2.588
  243SOL    HW1  733   0.564   1.278   2.597
  243SOL    HW2  734   0.590   1.408   2.501
  244SOL     OW  735   1.293   1.228   3.285
  244SOL    HW1  736   1.330   1.155   3.227
  244SOL    HW2  737   1.345   1.233   3.370
  245SOL     OW  738   0.809   0.004   2.364
  245SOL    HW1  739   0.849   0.095   2.355
  245SOL    HW2  740   0.709   0.012   2.370
  246SOL     OW  741   0.197   0.976   3.126
  246SOL    HW1  742   0.286   0.931   3.112
  246SOL    HW2  743   0.124   0.911   3.107
  247SOL     OW  744   1.525   0.999   2.052
  247SOL    HW1  745   1.462   0.923   2.065
  247SOL    HW2  746   1.573   1.017   2.138
  248SOL     OW  747   1.187   1.792   3.478
  248SOL    HW1  748   1.211   1.852   3.402
  248SOL    HW2  749   1.194   1.697   3.448
  249SOL     OW  750   0.317   0.251   3.663
  249SOL    HW1  751   0.388   0.322   3.669
  249SOL    HW2  752   0.229   0.290   3.691
  250SOL     OW  753   1.466   1.417   2.815
  250SOL    HW1  754   1.407   1.423   2.895
  250SOL    HW2  755   1.451   1.329   2.769
  251SOL     OW  756   1.667   1.714   2.434
  251SOL    HW1  757   1.626   1.691   2.346
  251SOL    HW2  758   1.649   1.640   2.499
  252SOL     OW  759   0.598   0.729   2.132
  252SOL    HW1  760   0.622   0.798   2.064
  252SOL    HW2  761   0.520   0.762   2.186
  253SOL     OW  762   1.281   0.345   2.806
  253SOL    HW1  763   1.195   0.295   2.793
  253SOL    HW2  764   1.343   0.291   2.862
  254SOL     OW  765   1.576   1.662   2.169
  254SOL    HW1  766   1.665   1.708   2.172
  254SOL    HW2  767   1.555   1.638   2.074
  255SOL     OW  768   0.807   0.605   3.327
  255SOL    HW1  769   0.760   0.602   3.416
  255SOL    HW2  770   0.756   0.550   3.261
  256SOL     OW  771   1.394   0.469   3.536
  256SOL    HW1  772   1.374   0.512   3.624
  256SOL    HW2  773   1.472   0.407   3.545
  257SOL     OW  774   0.973   0.890   3.434
  257SOL    HW1  775   1.019   0.806   3.405
  257SOL    HW2  776   0.917   0.924   3.359
  258SOL     OW  777   0.991   0.410   3.104
  258SOL    HW1  778   0.914   0.444   3.158
  258SOL    HW2  779   0.957   0.359   3.025
  259SOL     OW  780   1.041   0.701   2.291
  259SOL    HW1  781   1.067   0.697   2.387
  259SOL    HW2  782   0.956   0.650   2.277
  260SOL     OW  783   0.076   0.811   2.651
  260SOL    HW1  784   0.175   0.799   2.660
  260SOL    HW2  785   0.052   0.906   2.672
  261SOL     OW  786   0.130   1.821   3.433
  261SOL    HW1  787   0.120   1.806   3.532
  261SOL    HW2  788   0.044   1.857   3.397
  262SOL     OW  789   0.865   0.348   2.057
  262SOL    HW1  790   0.924   0.411   2.008
  262SOL    HW2  791   0.884   0.254   2.028
  263SOL     OW  792   1.719   0.585   3.693
  263SOL    HW1  793   1.693   0.674   3.657
  263SOL    HW2  794   1.717   0.517   3.620
  264SOL     OW  795   1.362   1.144   2.407
  264SOL    HW1  796   1.445   1.115   2.359
  264SOL    HW2  797   1.313   1.211   2.351
  265SOL     OW  798   0.550   0.196   2.747
  265SOL    HW1  799   0.545   0.191   2.847
  265SOL    HW2  800   0.552   0.292   2.718
  266SOL     OW  801   1.008   1.456   2.339
  266SOL    HW1  802   0.962   1.528   2.287
  266SOL    HW2  803   1.004   1.476   2.437
  267SOL     OW  804   0.351   1.801   2.715
  267SOL    HW1  805   0.401   1.715   2.721
  267SOL    HW2  806   0.416   1.878   2.712
  268SOL     OW  807   1.795   1.066   2.735
  268SOL    HW1  808   1.733   1.051   2.659
  268SOL    HW2  809   1.743   1.077   2.820
  269SOL     OW  810   1.227   1.550   3.368
  269SOL    HW1  811   1.233   1.473   3.432
  269SOL    HW2  812   1.175   1.524   3.288
  270SOL     OW  813   0.321   0.943   2.104
  270SOL    HW1  814   0.403   0.982   2.062
  270SOL    HW2  815   0.294   0.861   2.055
  271SOL     OW  816   1.458   0.735   2.590
  271SOL    HW1  817   1.453   0.670   2.665
  271SOL    HW2  818   1.538   0.794   2.603
  272SOL     OW  819   0.461   1.266   3.589
  272SOL    HW1  820   0.411   1.267   3.503
  272SOL    HW2  821   0.398   1.248   3.665
  273SOL     OW  822   1.111   1.776   2.099
  273SOL    HW1  823   1.051   1.714   2.149
  273SOL    HW2  824   1.142   1.732   2.014
  274SOL     OW  825   0.202   0.285   3.360
  274SOL    HW1  826   0.122   0.345   3.347
  274SOL    HW2  827   0.192   0.236   3.446
  275SOL     OW  828   1.632   1.377   1.943
  275SOL    HW1  829   1.600   1.471   1.933
  275SOL    HW2  830   1.556   1.314   1.931
  276SOL     OW  831   0.464   1.743   2.185
  276SOL    HW1  832   0.497   1.782   2.271
  276SOL    HW2  833   0.540   1.736   2.120
  277SOL     OW  834   1.400   0.107   2.288
  277SOL    HW1  835   1.376   0.070   2.198
  277SOL    HW2  836   1.499   0.123   2.292
  278SOL     OW  837   0.249   1.785   3.103
  278SOL    HW1  838   0.306   1.720   3.153
  278SOL    HW2  839   0.233   1.752   3.010
  279SOL     OW  840   0.940   1.698   2.766
  279SOL    HW1  841   1.020   1.641   2.787
  279SOL    HW2  842   0.891   1.658   2.689
  280SOL     OW  843   0.382   0.700   2.342
  280SOL    HW1  844   0.427   0.610   2.339
  280SOL    HW2  845   0.288   0.689   2.375
  281SOL     OW  846   1.547   0.222   3.591
  281SOL    HW1  847   1.542   0.259   3.683
  281SOL    HW2  848   1.475   0.153   3.579
  282SOL     OW  849   0.614   0.122   1.979
  282SOL    HW1  850   0.712   0.100   1.986
  282SOL    HW2  851   0.583   0.105   1.886
  283SOL     OW  852   0.781   0.264   3.611
  283SOL    HW1  853   0.848   0.203   3.654
  283SOL    HW2  854   0.708   0.283   3.676
  284SOL     OW  855   0.888   1.514   3.057
  284SOL    HW1  856   0.865   1.489   2.963
  284SOL    HW2  857   0.949   1.445   3.096
  285SOL     OW  858   1.351   0.590   3.295
  285SOL    HW1  859   1.379   0.547   3.380
  285SOL    HW2  860   1.376   0.686   3.296
  286SOL     OW  861   0.803   1.402   2.786
  286SOL    HW1  862   0.893   1.416   2.744
  286SOL    HW2  863   0.732   1.404   2.715
  287SOL     OW  864   0.922   0.503   2.761
  287SOL    HW1  865   0.897   0.494   2.665
  287SOL    HW2  866   0.970   0.421   2.792
  288SOL     OW  867   0.539   0.064   2.374
  288SOL    HW1  868   0.458   0.065   2.432
  288SOL    HW2  869   0.542   0.147   2.319
  289SOL     OW  870   1.434   1.188   1.903
  289SOL    HW1  871   1.466   1.112   1.960
  289SOL    HW2  872   1.342   1.215   1.933
  290SOL     OW  873   0.297   0.035   2.033
  290SOL    HW1  874   0.346   0.119   2.012
  290SOL    HW2  875   0.359  -0.030   2.078
  291SOL     OW  876   0.935   0.236   2.342
  291SOL    HW1  877   0.887   0.277   2.264
  291SOL    HW2  878   1.034   0.234   2.323
  292SOL     OW  879   1.076   0.683   3.326
  292SOL    HW1  880   0.996   0.622   3.329
  292SOL    HW2  881   1.157   0.630   3.302
  293SOL     OW  882   1.227   1.570   2.655
  293SOL    HW1  883   1.248   1.644   2.590
  293SOL    HW2  884   1.295   1.570   2.728
  294SOL     OW  885   0.459   1.152   2.603
  294SOL    HW1  886   0.388   1.125   2.668
  294SOL    HW2  887   0.433   1.124   2.510
  295SOL     OW  888   1.271   1.797   2.453
  295SOL    HW1  889   1.315   1.861   2.389
  295SOL    HW2  890   1.221   1.849   2.523
  296SOL     OW  891   1.032   0.549   1.878
  296SOL    HW1  892   0.991   0.631   1.839
  296SOL    HW2  893   1.096   0.575   1.951
  297SOL     OW  894   0.078   0.556   3.248
  297SOL    HW1  895   0.170   0.555   3.207
  297SOL    HW2  896   0.072   0.630   3.315
  298SOL     OW  897   0.561   0.222   3.009
  298SOL    HW1  898   0.599   0.138   3.046
  298SOL    HW2  899   0.473   0.241   3.053
  299SOL     OW  900   0.866   0.454   2.504
  299SOL    HW1  901   0.834   0.526   2.442
  299SOL    HW2  902   0.890   0.373   2.451
  300SOL     OW  903   1.017   0.039   2.615
  300SOL    HW1  904   0.945   0.044   2.546
  300SOL    HW2  905   0.993  -0.030   2.684
  301SOL     OW  906   1.429   1.173   2.729
  301SOL    HW1  907   1.374   1.089   2.722
  301SOL    HW2  908   1.455   1.202   2.637
  302SOL     OW  909   1.466   0.590   2.854
  302SOL    HW1  910   1.436   0.495   2.861
  302SOL    HW2  911   1.539   0.606   2.920
  303SOL     OW  912   1.857   0.833   2.239
  303SOL    HW1  913   1.899   0.769   2.303
  303SOL    HW2  914   1.819   0.782   2.161
  304SOL     OW  915   0.488   1.385   2.036
  304SOL    HW1  916   0.401   1.370   2.083
  304SOL    HW2  917   0.471   1.411   1.941
  305SOL     OW  918   1.664   1.280   2.519
  305SOL    HW1  919   1.763   1.288   2.533
  305SOL    HW2  920   1.619   1.364   2.550
  306SOL     OW  921   1.390   0.575   1.940
  306SOL    HW1  922   1.336   0.554   2.021
  306SOL    HW2  923   1.481   0.534   1.949
  307SOL     OW  924   0.527   0.256   2.190
  307SOL    HW1  925   0.554   0.197   2.115
  307SOL    HW2  926   0.527   0.351   2.159
  308SOL     OW  927   1.754   1.223   3.450
  308SOL    HW1  928   1.845   1.184   3.437
  308SOL    HW2  929   1.762   1.319   3.474
  309SOL     OW  930   1.064   1.347   3.202
  309SOL    HW1  931   0.984   1.324   3.257
  309SOL    HW2  932   1.147   1.321   3.251
  310SOL     OW  933   1.592   1.629   3.487
  310SOL    HW1  934   1.619   1.663   3.397
  310SOL    HW2  935   1.671   1.591   3.533
  311SOL     OW  936   1.111   1.195   2.962
  311SOL    HW1  937   1.071   1.239   3.043
  311SOL    HW2  938   1.070   1.232   2.879
  312SOL     OW  939   1.638   1.099   2.941
  312SOL    HW1  940   1.643   1.180   3.000
  312SOL    HW2  941   1.552   1.101   2.890
  313SOL     OW  942   0.915   0.089   3.264
  313SOL    HW1  943   0.940   0.069   3.169
  313SOL    HW2  944   0.987   0.145   3.306
  314SOL     OW  945   0.980   1.116   3.581
  314SOL    HW1  946   0.881   1.122   3.591
  314SOL    HW2  947   1.003   1.036   3.525
  315SOL     OW  948   0.705   1.050   2.230
  315SOL    HW1  949   0.691   1.057   2.329
  315SOL    HW2  950   0.789   0.999   2.212
  316SOL     OW  951   0.410   0.813   3.113
  316SOL    HW1  952   0.496   0.825   3.163
  316SOL    HW2  953   0.368   0.726   3.140
  317SOL     OW  954   1.274   0.386   3.124
  317SOL    HW1  955   1.295   0.460   3.188
  317SOL    HW2  956   1.185   0.403   3.081
  318SOL     OW  957   0.064   1.564   3.193
  318SOL    HW1  958   0.018   1.646   3.159
  318SOL    HW2  959   0.162   1.583   3.202
  319SOL     OW  960   0.367   1.100   2.363
  319SOL    HW1  961   0.360   1.183   2.307
  319SOL    HW2  962   0.371   1.020   2.303
  320SOL     OW  963   0.566   0.537   2.727
  320SOL    HW1  964   0.578   0.603   2.653
  320SOL    HW2  965   0.612   0.571   2.810
  321SOL     OW  966   1.252   1.348   2.250
  321SOL    HW1  967   1.302   1.425   2.290
  321SOL    HW2  968   1.157   1.350   2.282
  322SOL     OW  969   1.272   1.445   3.004
  322SOL    HW1  970   1.319   1.458   3.091
  322SOL    HW2  971   1.206   1.371   3.013
  323SOL     OW  972   1.582   0.639   2.334
  323SOL    HW1  973   1.551   0.700   2.407
  323SOL    HW2  974   1.632   0.691   2.265
  324SOL     OW  975   0.354   1.510   3.191
  324SOL    HW1  976   0.333   1.466   3.104
  324SOL    HW2  977   0.451   1.536   3.194
  325SOL     OW  978   0.402   0.751   3.460
  325SOL    HW1  979   0.470   0.806   3.413
  325SOL    HW2  980   0.442   0.663   3.487
  326SOL     OW  981   1.587   0.779   3.532
  326SOL    HW1  982   1.495   0.817   3.527
  326SOL    HW2  983   1.647   0.826   3.467
  327SOL     OW  984   1.013   0.105   3.632
  327SOL    HW1  985   1.019   0.190   3.580
  327SOL    HW2  986   1.045   0.029   3.575
  328SOL     OW  987   0.504   0.050   3.602
  328SOL    HW1  988   0.462  -0.007   3.532
  328SOL    HW2  989   0.438   0.119   3.634
  329SOL     OW  990   0.573   0.870   2.891
  329SOL    HW1  991   0.617   0.959   2.882
  329SOL    HW2  992   0.510   0.870   2.968
  330SOL     OW  993   1.360   0.862   2.907
  330SOL    HW1  994   1.285   0.862   2.841
  330SOL    HW2  995   1.397   0.770   2.916
  331SOL     OW  996   1.209   0.525   2.137
  331SOL    HW1  997   1.222   0.441   2.191
  331SOL    HW2  998   1.180   0.599   2.197
  332SOL     OW  999   0.307   0.213   3.093
  332SOL    HW1 1000   0.284   0.250   3.183
  332SOL    HW2 1001   0.277   0.118   3.087
  333SOL     OW 1002   0.037   1.310   3.144
  333SOL    HW1 1003   0.090   1.261   3.212
  333SOL    HW2 1004   0.059   1.408   3.149
  334SOL     OW 1005   0.732   0.634   2.926
  334SOL    HW1 1006   0.791   0.608   2.850
  334SOL    HW2 1007   0.704   0.730   2.915
  335SOL     OW 1008   1.728   0.935   3.716
  335SOL    HW1 1009   1.682   0.928   3.627
  335SOL    HW2 1010   1.666   0.979   3.782
  336SOL     OW 1011   0.307   0.063   2.480
  336SOL    HW1 1012   0.296   0.157   2.513
  336SOL    HW2 1013   0.302   0.000   2.557
  337SOL     OW 1014   1.622   0.367   2.236
  337SOL    HW1 1015   1.624   0.291   2.300
  337SOL    HW2 1016   1.574   0.444   2.276
  338SOL     OW 1017   1.023   0.766   2.828
  338SOL    HW1 1018   1.038   0.787   2.924
  338SOL    HW2 1019   0.993   0.671   2.819
  339SOL     OW 1020   0.980   1.573   3.562
  339SOL    HW1 1021   0.960   1.617   3.474
  339SOL    HW2 1022   1.019   1.482   3.546
  340SOL     OW 1023   1.859   1.518   3.467
  340SOL    HW1 1024   1.873   1.545   3.372
  340SOL    HW2 1025   1.942   1.540   3.520
  341SOL     OW 1026   0.350   0.898   3.666
  341SOL    HW1 1027   0.426   0.942   3.714
  341SOL    HW2 1028   0.385   0.851   3.584
  342SOL     OW 1029   1.540   0.274   1.987
  342SOL    HW1 1030   1.479   0.199   2.010
  342SOL    HW2 1031   1.562   0.326   2.070
  343SOL     OW 1032   1.303   0.838   1.904
  343SOL    HW1 1033   1.337   0.745   1.919
  343SOL    HW2 1034   1.321   0.865   1.809
  344SOL     OW 1035   1.068   1.333   2.711
  344SOL    HW1 1036   1.075   1.249   2.656
  344SOL    HW2 1037   1.130   1.402   2.675
  345SOL     OW 1038   0.319   0.810   2.811
  345SOL    HW1 1039   0.412   0.846   2.816
  345SOL    HW2 1040   0.313   0.725   2.863
  346SOL     OW 1041   0.339   0.509   2.868
  346SOL    HW1 1042   0.287   0.426   2.851
  346SOL    HW2 1043   0.416   0.514   2.804
  347SOL     OW 1044   1.138   0.380   3.540
  347SOL    HW1 1045   1.093   0.443   3.604
  347SOL    HW2 1046   1.231   0.411   3.523
  348SOL     OW 1047   1.160   0.207   3.339
  348SOL    HW1 1048   1.160   0.271   3.416
  348SOL    HW2 1049   1.188   0.255   3.256
  349SOL     OW 1050   0.008   1.326   2.062
  349SOL    HW1 1051  -0.085   1.347   2.031
  349SOL    HW2 1052   0.018   1.227   2.075
  350SOL     OW 1053   0.088   1.801   2.789
  350SOL    HW1 1054   0.046   1.715   2.762
  350SOL    HW2 1055   0.182   1.804   2.755
  351SOL     OW 1056   0.504   1.568   2.772
  351SOL    HW1 1057   0.570   1.642   2.781
  351SOL    HW2 1058   0.548   1.489   2.730
  352SOL     OW 1059   1.002   0.796   3.100
  352SOL    HW1 1060   1.043   0.764   3.186
  352SOL    HW2 1061   0.906   0.769   3.097
  353SOL     OW 1062   0.040   0.544   2.976
  353SOL    HW1 1063   0.125   0.511   2.935
  353SOL    HW2 1064   0.053   0.559   3.074
  354SOL     OW 1065   0.189   0.520   3.584
  354SOL    HW1 1066   0.248   0.480   3.514
  354SOL    HW2 1067   0.131   0.591   3.543
  355SOL     OW 1068   1.369   0.950   3.522
  355SOL    HW1 1069   1.408   1.039   3.542
  355SOL    HW2 1070   1.379   0.930   3.425
  356SOL     OW 1071   0.815   0.572   2.187
  356SOL    HW1 1072   0.822   0.483   2.141
  356SOL    HW2 1073   0.721   0.606   2.179
  357SOL     OW 1074   1.657   0.604   3.068
  357SOL    HW1 1075   1.619   0.535   3.130
  357SOL    HW2 1076   1.739   0.568   3.024
  358SOL     OW 1077   0.252   1.564   3.606
  358SOL    HW1 1078   0.222   1.621   3.682
  358SOL    HW2 1079   0.245   1.467   3.632
  359SOL     OW 1080   0.671   0.464   3.131
  359SOL    HW1 1081   0.637   0.375   3.101
  359SOL    HW2 1082   0.697   0.518   3.051
  360SOL     OW 1083   0.930   1.678   3.327
  360SOL    HW1 1084   0.906   1.660   3.232
  360SOL    HW2 1085   0.960   1.772   3.337
  361SOL     OW 1086   0.473   0.500   2.053
  361SOL    HW1 1087   0.534   0.580   2.057
  361SOL    HW2 1088   0.378   0.531   2.060
  362SOL     OW 1089   0.159   1.137   3.328
  362SOL    HW1 1090   0.181   1.076   3.404
  362SOL    HW2 1091   0.169   1.088   3.242
  363SOL     OW 1092   1.347   1.059   3.096
  363SOL    HW1 1093   1.371   0.996   3.022
  363SOL    HW2 1094   1.257   1.099   3.078
  364SOL     OW 1095   1.302   0.855   2.171
  364SOL    HW1 1096   1.216   0.824   2.213
  364SOL    HW2 1097   1.298   0.841   2.072
  365SOL     OW 1098   1.759   1.747   3.016
  365SOL    HW1 1099   1.820   1.777   2.943
  365SOL    HW2 1100   1.721   1.658   2.994
  366SOL     OW 1101   1.252   1.731   2.990
  366SOL    HW1 1102   1.336   1.736   2.936
  366SOL    HW2 1103   1.229   1.635   3.008
  367SOL     OW 1104   0.083   1.258   2.884
  367SOL    HW1 1105   0.078   1.257   2.984
  367SOL    HW2 1106   0.000   1.217   2.846
  368SOL     OW 1107   0.688   1.662   3.578
  368SOL    HW1 1108   0.632   1.743   3.587
  368SOL    HW2 1109   0.740   1.666   3.492
  369SOL     OW 1110   1.726   0.135   2.385
  369SOL    HW1 1111   1.799   0.118   2.318
  369SOL    HW2 1112   1.695   0.048   2.423
  370SOL     OW 1113   1.388   1.573   2.339
  370SOL    HW1 1114   1.455   1.585   2.265
  370SOL    HW2 1115   1.348   1.662   2.362
  371SOL     OW 1116   0.130   1.794   3.713
  371SOL    HW1 1117   0.089   1.720   3.766
  371SOL    HW2 1118   0.194   1.845   3.771
  372SOL     OW 1119   1.280   0.927   2.534
  372SOL    HW1 1120   1.340   0.846   2.536
  372SOL    HW2 1121   1.320   0.996   2.474
  373SOL     OW 1122   0.830   1.273   3.284
  373SOL    HW1 1123   0.825   1.306   3.379
  373SOL    HW2 1124   0.744   1.292   3.238
  374SOL     OW 1125   0.672   1.616   2.016
  374SOL    HW1 1126   0.681   1.626   1.917
  374SOL    HW2 1127   0.632   1.527   2.037
  375SOL     OW 1128   1.650   1.720   3.256
  375SOL    HW1 1129   1.703   1.730   3.172
  375SOL    HW2 1130   1.623   1.810   3.290
  376SOL     OW 1131   1.841   0.175   2.825
  376SOL    HW1 1132   1.880   0.090   2.789
  376SOL    HW2 1133   1.743   0.177   2.806
  377SOL     OW 1134   0.263   0.326   2.582
  377SOL    HW1 1135   0.184   0.377   2.548
  377SOL    HW2 1136   0.254   0.311   2.680
  378SOL     OW 1137   1.194   1.612   1.893
  378SOL    HW1 1138   1.200   1.519   1.930
  378SOL    HW2 1139   1.135   1.612   1.813
  379SOL     OW 1140   0.822   1.002   3.234
  379SOL    HW1 1141   0.862   1.001   3.142
  379SOL    HW2 1142   0.832   1.094   3.274
  380SOL     OW 1143   0.916   0.910   2.153
  380SOL    HW1 1144   0.979   0.948   2.085
  380SOL    HW2 1145   0.956   0.827   2.192
  381SOL     OW 1146   1.504   1.607   1.906
  381SOL    HW1 1147   1.412   1.644   1.913
  381SOL    HW2 1148   1.542   1.627   1.816
  382SOL     OW 1149   0.372   1.288   3.352
  382SOL    HW1 1150   0.359   1.381   3.318
  382SOL    HW2 1151   0.288   1.236   3.339
  383SOL     OW 1152   1.614   1.292   3.151
  383SOL    HW1 1153   1.674   1.295   3.231
  383SOL    HW2 1154   1.539   1.356   3.164
  384SOL     OW 1155   1.039   1.098   2.558
  384SOL    HW1 1156   0.969   1.051   2.612
  384SOL    HW2 1157   1.098   1.030   2.515
  385SOL     OW 1158   1.014   0.236   2.833
  385SOL    HW1 1159   1.006   0.200   2.740
  385SOL    HW2 1160   1.012   0.160   2.898
  386SOL     OW 1161   0.590   1.487   2.353
  386SOL    HW1 1162   0.632   1.429   2.283
  386SOL    HW2 1163   0.546   1.566   2.309
  387SOL     OW 1164   1.709   0.385   3.243
  387SOL    HW1 1165   1.782   0.454   3.247
  387SOL    HW2 1166   1.737   0.310   3.184
  388SOL     OW 1167   0.255   1.348   2.152
  388SOL    HW1 1168   0.159   1.349   2.125
  388SOL    HW2 1169   0.267   1.401   2.236
  389SOL     OW 1170   0.105   1.013   3.588
  389SOL    HW1 1171   0.028   0.980   3.642
  389SOL    HW2 1172   0.190   0.983   3.630
  390SOL     OW 1173   0.672   0.203   3.351
  390SOL    HW1 1174   0.762   0.187   3.311
  390SOL    HW2 1175   0.680   0.208   3.450
  391SOL     OW 1176   0.075   0.345   1.895
  391SOL    HW1 1177  -0.017   0.317   1.866
  391SOL    HW2 1178   0.106   0.422   1.839
  392SOL     OW 1179   1.440   0.856   3.260
  392SOL    HW1 1180   1.383   0.908   3.197
  392SOL    HW2 1181   1.536   0.868   3.236
  393SOL     OW 1182   0.072   0.166   2.180
  393SOL    HW1 1183   0.055   0.249   2.126
  393SOL    HW2 1184   0.162   0.129   2.158
  394SOL     OW 1185   1.183   1.335   1.981
  394SOL    HW1 1186   1.084   1.324   1.983
  394SOL    HW2 1187   1.217   1.350   2.074
  395SOL     OW 1188   0.613   0.842   3.293
  395SOL    HW1 1189   0.669   0.923   3.276
  395SOL    HW2 1190   0.672   0.762   3.296
  396SOL     OW 1191   1.493   1.767   2.821
  396SOL    HW1 1192   1.526   1.831   2.752
  396SOL    HW2 1193   1.559   1.761   2.896
  397SOL     OW 1194   0.716   0.565   3.570
  397SOL    HW1 1195   0.735   0.630   3.644
  397SOL    HW2 1196   0.776   0.485   3.579
  398SOL     OW 1197   1.450   1.220   3.495
  398SOL    HW1 1198   1.441   1.210   3.594
  398SOL    HW2 1199   1.546   1.213   3.469
  399SOL     OW 1200   0.390   1.741   3.422
  399SOL    HW1 1201   0.299   1.782   3.420
  399SOL    HW2 1202   0.383   1.647   3.454
  400SOL     OW 1203   1.674   0.883   3.116
  400SOL    HW1 1204   1.647   0.794   3.079
  400SOL    HW2 1205   1.675   0.951   3.043
  401SOL     OW 1206   1.225   0.325   2.311
  401SOL    HW1 1207   1.290   0.251   2.300
  401SOL    HW2 1208   1.245   0.375   2.395
  402SOL     OW 1209   0.594   0.745   2.514
  402SOL    HW1 1210   0.644   0.830   2.495
  402SOL    HW2 1211   0.506   0.747   2.466
  403SOL     OW 1212   1.777   0.342   3.504
  403SOL    HW1 1213   1.760   0.373   3.410
  403SOL    HW2 1214   1.693   0.305   3.542
  404SOL     OW 1215   1.730   0.934   3.379
  404SOL    HW1 1216   1.768   1.025   3.394
  404SOL    HW2 1217   1.722   0.917   3.280
  405SOL     OW 1218   0.859   1.374   1.878
  405SOL    HW1 1219   0.813   1.389   1.966
  405SOL    HW2 1220   0.903   1.459   1.848
  406SOL     OW 1221   0.661   1.790   2.815
  406SOL    HW1 1222   0.615   1.878   2.802
  406SOL    HW2 1223   0.760   1.802   2.808
  407SOL     OW 1224   0.859   0.956   2.723
  407SOL    HW1 1225   0.913   0.887   2.771
  407SOL    HW2 1226   0.827   1.025   2.789
  408SOL     OW 1227   1.083   0.984   1.949
  408SOL    HW1 1228   1.060   1.037   1.867
  408SOL    HW2 1229   1.164   0.928   1.930
  409SOL     OW 1230   1.861   1.569   2.713
  409SOL    HW1 1231   1.790   1.557   2.643
  409SOL    HW2 1232   1.862   1.490   2.773
  410SOL     OW 1233   0.221   1.314   3.706
  410SOL    HW1 1234   0.156   1.241   3.685
  410SOL    HW2 1235   0.225   1.328   3.804
  411SOL     OW 1236   0.079   1.240   2.515
  411SOL    HW1 1237   0.078   1.193   2.603
  411SOL    HW2 1238   0.161   1.212   2.464
  412SOL     OW 1239   0.672   1.391   3.486
  412SOL    HW1 1240   0.594   1.341   3.524
  412SOL    HW2 1241   0.669   1.486   3.517
  413SOL     OW 1242   1.824   0.192   3.089
  413SOL    HW1 1243   1.820   0.102   3.133
  413SOL    HW2 1244   1.827   0.181   2.990
  414SOL     OW 1245   0.428   0.424   2.382
  414SOL    HW1 1246   0.458   0.352   2.320
  414SOL    HW2 1247   0.389   0.384   2.465
  415SOL     OW 1248   1.705   1.487   2.966
  415SOL    HW1 1249   1.612   1.462   2.939
  415SOL    HW2 1250   1.731   1.437   3.048
  416SOL     OW 1251   0.317   0.547   3.142
  416SOL    HW1 1252   0.355   0.488   3.214
  416SOL    HW2 1253   0.357   0.521   3.054
  417SOL     OW 1254   0.812   1.586   2.549
  417SOL    HW1 1255   0.844   1.596   2.455
  417SOL    HW2 1256   0.733   1.524   2.551
  418SOL     OW 1257   1.424   0.214   2.974
  418SOL    HW1 1258   1.476   0.149   3.029
  418SOL    HW2 1259   1.375   0.277   3.035
  419SOL     OW 1260   1.001   0.034   3.016
  419SOL    HW1 1261   0.938  -0.038   2.985
  419SOL    HW2 1262   1.094  -0.002   3.016
  420SOL     OW 1263   0.770   1.330   2.163
  420SOL    HW1 1264   0.724   1.243   2.180
  420SOL    HW2 1265   0.861   1.327   2.204
  421SOL     OW 1266   0.618   1.567   3.146
  421SOL    HW1 1267   0.613   1.649   3.203
  421SOL    HW2 1268   0.707   1.564   3.101
  422SOL     OW 1269   1.352   0.052   2.030
  422SOL    HW1 1270   1.387   0.011   1.946
  422SOL    HW2 1271   1.262   0.014   2.050
  423SOL     OW 1272   1.300   0.453   2.553
  423SOL    HW1 1273   1.241   0.533   2.557
  423SOL    HW2 1274   1.315   0.418   2.646
  424SOL     OW 1275   1.593   0.221   2.744
  424SOL    HW1 1276   1.509   0.220   2.798
  424SOL    HW2 1277   1.595   0.304   2.688
  425SOL     OW 1278   0.039   1.077   2.162
  425SOL    HW1 1279   0.138   1.066   2.153
  425SOL    HW2 1280  -0.001   0.991   2.194
  426SOL     OW 1281   0.875   1.646   2.199
  426SOL    HW1 1282   0.798   1.611   2.145
  426SOL    HW2 1283   0.843   1.717   2.261
  427SOL     OW 1284   0.230   0.628   3.837
  427SOL    HW1 1285   0.137   0.626   3.874
  427SOL    HW2 1286   0.231   0.589   3.745
  428SOL     OW 1287   1.755   0.607   3.955
  428SOL    HW1 1288   1.743   0.594   3.856
  428SOL    HW2 1289   1.725   0.526   4.004
  429SOL     OW 1290   1.603   0.447   4.461
  429SOL    HW1 1291   1.529   0.493   4.411
  429SOL    HW2 1292   1.654   0.515   4.514
  430SOL     OW 1293   0.231   1.713   4.207
  430SOL    HW1 1294   0.265   1.790   4.261
  430SOL    HW2 1295   0.275   1.713   4.117
  431SOL     OW 1296   0.230   1.434   4.262
  431SOL    HW1 1297   0.204   1.530   4.262
  431SOL    HW2 1298   0.159   1.380   4.307
  432SOL     OW 1299   0.606   0.964   3.847
  432SOL    HW1 1300   0.613   1.048   3.793
  432SOL    HW2 1301   0.652   0.977   3.935
  433SOL     OW 1302   0.122   0.643   4.287
  433SOL    HW1 1303   0.077   0.555   4.304
  433SOL    HW2 1304   0.121   0.697   4.371
  434SOL     OW 1305   1.842   1.767   4.083
  434SOL    HW1 1306   1.896   1.738   4.163
  434SOL    HW2 1307   1.872   1.857   4.054
  435SOL     OW 1308   0.027   1.596   3.841
  435SOL    HW1 1309   0.008   1.500   3.862
  435SOL    HW2 1310  -0.006   1.654   3.916
  436SOL     OW 1311   1.689   0.922   4.336
  436SOL    HW1 1312   1.784   0.893   4.344
  436SOL    HW2 1313   1.681   0.987   4.261
  437SOL     OW 1314   1.641   1.108   4.156
  437SOL    HW1 1315   1.727   1.110   4.104
  437SOL    HW2 1316   1.655   1.155   4.244
  438SOL     OW 1317   0.613   1.365   4.450
  438SOL    HW1 1318   0.564   1.278   4.459
  438SOL    HW2 1319   0.590   1.408   4.363
  439SOL     OW 1320   0.809   0.004   4.226
  439SOL    HW1 1321   0.849   0.095   4.217
  439SOL    HW2 1322   0.709   0.012   4.232
  440SOL     OW 1323   1.525   0.999   3.914
  440SOL    HW1 1324   1.462   0.923   3.927
  440SOL    HW2 1325   1.573   1.017   4.000
  441SOL     OW 1326   1.466   1.417   4.677
  441SOL    HW1 1327   1.407   1.423   4.757
  441SOL    HW2 1328   1.451   1.329   4.631
  442SOL     OW 1329   0.598   0.729   3.994
  442SOL    HW1 1330   0.622   0.798   3.926
  442SOL    HW2 1331   0.520   0.762   4.048
  443SOL     OW 1332   1.281   0.345   4.668
  443SOL    HW1 1333   1.195   0.295   4.655
  443SOL    HW2 1334   1.343   0.291   4.724
  444SOL     OW 1335   1.576   1.662   4.031
  444SOL    HW1 1336   1.665   1.708   4.034
  444SOL    HW2 1337   1.555   1.638   3.936
  445SOL     OW 1338   1.041   0.701   4.153
  445SOL    HW1 1339   1.067   0.697   4.249
  445SOL    HW2 1340   0.956   0.650   4.139
  446SOL     OW 1341   0.076   0.811   4.513
  446SOL    HW1 1342   0.175   0.799   4.522
  446SOL    HW2 1343   0.052   0.906   4.534
  447SOL     OW 1344   0.865   0.348   3.919
  447SOL    HW1 1345   0.924   0.411   3.870
  447SOL    HW2 1346   0.884   0.254   3.890
  448SOL     OW 1347   1.362   1.144   4.269
  448SOL    HW1 1348   1.445   1.115   4.221
  448SOL    HW2 1349   1.313   1.211   4.213
  449SOL     OW 1350   1.008   1.456   4.201
  449SOL    HW1 1351   0.962   1.528   4.149
  449SOL    HW2 1352   1.004   1.476   4.299
  450SOL     OW 1353   0.351   1.801   4.577
  450SOL    HW1 1354   0.401   1.715   4.583
  450SOL    HW2 1355   0.416   1.878   4.574
  451SOL     OW 1356   1.795   1.066   4.597
  451SOL    HW1 1357   1.733   1.051   4.521
  451SOL    HW2 1358   1.743   1.077   4.682
  452SOL     OW 1359   0.321   0.943   3.966
  452SOL    HW1 1360   0.403   0.982   3.924
  452SOL    HW2 1361   0.294   0.861   3.917
  453SOL     OW 1362   1.111   1.776   3.961
  453SOL    HW1 1363   1.051   1.714   4.011
  453SOL    HW2 1364   1.142   1.732   3.876
  454SOL     OW 1365   1.632   1.377   3.805
  454SOL    HW1 1366   1.600   1.471   3.795
  454SOL    HW2 1367   1.556   1.314   3.793
  455SOL     OW 1368   0.464   1.743   4.047
  455SOL    HW1 1369   0.497   1.782   4.133
  455SOL    HW2 1370   0.540   1.736   3.982
  456SOL     OW 1371   1.400   0.107   4.150
  456SOL    HW1 1372   1.376   0.070   4.060
  456SOL    HW2 1373   1.499   0.123   4.154
  457SOL     OW 1374   0.382   0.700   4.204
  457SOL    HW1 1375   0.427   0.610   4.201
  457SOL    HW2 1376   0.288   0.689   4.237
  458SOL     OW 1377   0.614   0.122   3.841
  458SOL    HW1 1378   0.712   0.100   3.848
  458SOL    HW2 1379   0.583   0.105   3.748
  459SOL     OW 1380   0.539   0.064   4.236
  459SOL    HW1 1381   0.458   0.065   4.294
  459SOL    HW2 1382   0.542   0.147   4.181
  460SOL     OW 1383   1.434   1.188   3.765
  460SOL    HW1 1384   1.466   1.112   3.822
  460SOL    HW2 1385   1.342   1.215   3.795
  461SOL     OW 1386   0.297   0.035   3.895
  461SOL    HW1 1387   0.346   0.119   3.874
  461SOL    HW2 1388   0.359  -0.030   3.940
  462SOL     OW 1389   0.935   0.236   4.204
  462SOL    HW1 1390   0.887   0.277   4.126
  462SOL    HW2 1391   1.034   0.234   4.185
  463SOL     OW 1392   0.459   1.152   4.465
  463SOL    HW1 1393   0.388   1.125   4.530
  463SOL    HW2 1394   0.433   1.124   4.372
  464SOL     OW 1395   1.271   1.797   4.315
  464SOL    HW1 1396   1.315   1.861   4.251
  464SOL    HW2 1397   1.221   1.849   4.385
  465SOL     OW 1398   1.032   0.549   3.740
  465SOL    HW1 1399   0.991   0.631   3.701
  465SOL    HW2 1400   1.096   0.575   3.813
  466SOL     OW 1401   0.866   0.454   4.366
  466SOL    HW1 1402   0.834   0.526   4.304
  466SOL    HW2 1403   0.890   0.373   4.313
  467SOL     OW 1404   1.466   0.590   4.716
  467SOL    HW1 1405   1.436   0.495   4.723
  467SOL    HW2 1406   1.539   0.606   4.782
  468SOL     OW 1407   1.857   0.833   4.101
  468SOL    HW1 1408   1.899   0.769   4.165
  468SOL    HW2 1409   1.819   0.782   4.023
  469SOL     OW 1410   0.488   1.385   3.898
  469SOL    HW1 1411   0.401   1.370   3.945
  469SOL    HW2 1412   0.471   1.411   3.803
  470SOL     OW 1413   1.390   0.575   3.802
  470SOL    HW1 1414   1.336   0.554   3.883
  470SOL    HW2 1415   1.481   0.534   3.811
  471SOL     OW 1416   0.527   0.256   4.052
  471SOL    HW1 1417   0.554   0.197   3.977
  471SOL    HW2 1418   0.527   0.351   4.021
  472SOL     OW 1419   0.705   1.050   4.092
  472SOL    HW1 1420   0.691   1.057   4.191
  472SOL    HW2 1421   0.789   0.999   4.074
  473SOL     OW 1422   0.367   1.100   4.225
  473SOL    HW1 1423   0.360   1.183   4.169
  473SOL    HW2 1424   0.371   1.020   4.165
  474SOL     OW 1425   1.252   1.348   4.112
  474SOL    HW1 1426   1.302   1.425   4.152
  474SOL    HW2 1427   1.157   1.350   4.144
  475SOL     OW 1428   1.582   0.639   4.196
  475SOL    HW1 1429   1.551   0.700   4.269
  475SOL    HW2 1430   1.632   0.691   4.127
  476SOL     OW 1431   1.209   0.525   3.999
  476SOL    HW1 1432   1.222   0.441   4.053
  476SOL    HW2 1433   1.180   0.599   4.059
  477SOL     OW 1434   0.307   0.063   4.342
  477SOL    HW1 1435   0.296   0.157   4.375
  477SOL    HW2 1436   0.302   0.000   4.419
  478SOL     OW 1437   1.622   0.367   4.098
  478SOL    HW1 1438   1.624   0.291   4.162
  478SOL    HW2 1439   1.574   0.444   4.138
  479SOL     OW 1440   1.540   0.274   3.849
  479SOL    HW1 1441   1.479   0.199   3.872
  479SOL    HW2 1442   1.562   0.326   3.932
  480SOL     OW 1443   1.303   0.838   3.766
  480SOL    HW1 1444   1.337   0.745   3.781
  480SOL    HW2 1445   1.321   0.865   3.671
  481SOL     OW 1446   0.008   1.326   3.924
  481SOL    HW1 1447  -0.085   1.347   3.893
  481SOL    HW2 1448   0.018   1.227   3.937
  482SOL     OW 1449   0.815   0.572   4.049
  482SOL    HW1 1450   0.822   0.483   4.003
  482SOL    HW2 1451   0.721   0.606   4.041
  483SOL     OW 1452   0.473   0.500   3.915
  483SOL    HW1 1453   0.534   0.580   3.919
  483SOL    HW2 1454   0.378   0.531   3.922
  484SOL     OW 1455   1.302   0.855   4.033
  484SOL    HW1 1456   1.216   0.824   4.075
  484SOL    HW2 1457   1.298   0.841   3.934
  485SOL     OW 1458   1.726   0.135   4.247
  485SOL    HW1 1459   1.799   0.118   4.180
  485SOL    HW2 1460   1.695   0.048   4.285
  486SOL     OW 1461   1.388   1.573   4.201
  486SOL    HW1 1462   1.455   1.585   4.127
  486SOL    HW2 1463   1.348   1.662   4.224
  487SOL     OW 1464   0.672   1.616   3.878
  487SOL    HW1 1465   0.681   1.626   3.779
  487SOL    HW2 1466   0.632   1.527   3.899
  488SOL     OW 1467   1.841   0.175   4.687
  488SOL    HW1 1468   1.880   0.090   4.651
  488SOL    HW2 1469   1.743   0.177   4.668
  489SOL     OW 1470   1.194   1.612   3.755
  489SOL    HW1 1471   1.200   1.519   3.792
  489SOL    HW2 1472   1.135   1.612   3.675
  490SOL     OW 1473   0.916   0.910   4.015
  490SOL    HW1 1474   0.979   0.948   3.947
  490SOL    HW2 1475   0.956   0.827   4.054
  491SOL     OW 1476   1.504   1.607   3.768
  491SOL    HW1 1477   1.412   1.644   3.775
  491SOL    HW2 1478   1.542   1.627   3.678
  492SOL     OW 1479   0.590   1.487   4.215
  492SOL    HW1 1480   0.632   1.429   4.145
  492SOL    HW2 1481   0.546   1.566   4.171
  493SOL     OW 1482   0.255   1.348   4.014
  493SOL    HW1 1483   0.159   1.349   3.987
  493SOL    HW2 1484   0.267   1.401   4.098
  494SOL     OW 1485   0.075   0.345   3.757
  494SOL    HW1 1486  -0.017   0.317   3.728
  494SOL    HW2 1487   0.106   0.422   3.701
  495SOL     OW 1488   0.072   0.166   4.042
  495SOL    HW1 1489   0.055   0.249   3.988
  495SOL    HW2 1490   0.162   0.129   4.020
  496SOL     OW 1491   1.183   1.335   3.843
  496SOL    HW1 1492   1.084   1.324   3.845
  496SOL    HW2 1493   1.217   1.350   3.936
  497SOL     OW 1494   1.225   0.325   4.173
  497SOL    HW1 1495   1.290   0.251   4.162
  497SOL    HW2 1496   1.245   0.375   4.257
  498SOL     OW 1497   0.594   0.745   4.376
  498SOL    HW1 1498   0.644   0.830   4.357
  498SOL    HW2 1499   0.506   0.747   4.328
  499SOL     OW 1500   0.859   1.374   3.740
  499SOL    HW1 1501   0.813   1.389   3.828
  499SOL    HW2 1502   0.903   1.459   3.710
  500SOL     OW 1503   1.083   0.984   3.811
  500SOL    HW1 1504   1.060   1.037   3.729
  500SOL    HW2 1505   1.164   0.928   3.792
  501SOL     OW 1506   0.079   1.240   4.377
  501SOL    HW1 1507   0.078   1.193   4.465
  501SOL    HW2 1508   0.161   1.212   4.326
  502SOL     OW 1509   0.428   0.424   4.244
  502SOL    HW1 1510   0.458   0.352   4.182
  502SOL    HW2 1511   0.389   0.384   4.327
  503SOL     OW 1512   0.812   1.586   4.411
  503SOL    HW1 1513   0.844   1.596   4.317
  503SOL    HW2 1514   0.733   1.524   4.413
  504SOL     OW 1515   0.770   1.330   4.025
  504SOL    HW1 1516   0.724   1.243   4.042
  504SOL    HW2 1517   0.861   1.327   4.066
  505SOL     OW 1518   1.352   0.052   3.892
  505SOL    HW1 1519   1.387   0.011   3.808
  505SOL    HW2 1520   1.262   0.014   3.912
  506SOL     OW 1521   1.300   0.453   4.415
  506SOL    HW1 1522   1.241   0.533   4.419
  506SOL    HW2 1523   1.315   0.418   4.508
  507SOL     OW 1524   0.039   1.077   4.024
  507SOL    HW1 1525   0.138   1.066   4.015
  507SOL    HW2 1526  -0.001   0.991   4.056
  508SOL     OW 1527   0.875   1.646   4.061
  508SOL    HW1 1528   0.798   1.611   4.007
  508SOL    HW2 1529   0.843   1.717   4.123
  509SOL     OW 1530   0.230   2.490   0.113
  509SOL    HW1 1531   0.137   2.488   0.150
  509SOL    HW2 1532   0.231   2.451   0.021
  510SOL     OW 1533   0.225   2.137   0.996
  510SOL    HW1 1534   0.260   2.120   1.088
  510SOL    HW2 1535   0.137   2.092   0.984
  511SOL     OW 1536   0.019   2.230   0.647
  511SOL    HW1 1537  -0.063   2.273   0.686
  511SOL    HW2 1538  -0.009   2.157   0.584
  512SOL     OW 1539   0.569   3.137   1.165
  512SOL    HW1 1540   0.476   3.130   1.128
  512SOL    HW2 1541   0.580   3.226   1.209
  513SOL     OW 1542   1.555   3.373   0.703
  513SOL    HW1 1543   1.498   3.357   0.784
  513SOL    HW2 1544   1.496   3.383   0.623
  514SOL     OW 1545   1.135   2.565   0.717
  514SOL    HW1 1546   1.192   2.643   0.692
  514SOL    HW2 1547   1.075   2.591   0.793
  515SOL     OW 1548   1.755   2.469   0.231
  515SOL    HW1 1549   1.743   2.456   0.132
  515SOL    HW2 1550   1.725   2.388   0.280
  516SOL     OW 1551   0.768   3.006   1.023
  516SOL    HW1 1552   0.690   3.023   1.083
  516SOL    HW2 1553   0.802   3.093   0.987
  517SOL     OW 1554   0.850   2.660   1.823
  517SOL    HW1 1555   0.846   2.736   1.888
  517SOL    HW2 1556   0.872   2.696   1.732
  518SOL     OW 1557   0.685   2.874   0.665
  518SOL    HW1 1558   0.754   2.858   0.735
  518SOL    HW2 1559   0.612   2.931   0.703
  519SOL     OW 1560   0.686   3.023   1.803
  519SOL    HW1 1561   0.746   3.102   1.817
  519SOL    HW2 1562   0.600   3.054   1.762
  520SOL     OW 1563   0.335   3.297   1.061
  520SOL    HW1 1564   0.257   3.266   1.008
  520SOL    HW2 1565   0.393   3.355   1.004
  521SOL     OW 1566   1.460   3.367   1.339
  521SOL    HW1 1567   1.484   3.461   1.365
  521SOL    HW2 1568   1.444   3.313   1.421
  522SOL     OW 1569   0.438   2.254   1.499
  522SOL    HW1 1570   0.520   2.198   1.508
  522SOL    HW2 1571   0.357   2.196   1.503
  523SOL     OW 1572   1.603   2.309   0.737
  523SOL    HW1 1573   1.529   2.355   0.687
  523SOL    HW2 1574   1.654   2.377   0.790
  524SOL     OW 1575   0.231   3.575   0.483
  524SOL    HW1 1576   0.265   3.652   0.537
  524SOL    HW2 1577   0.275   3.575   0.393
  525SOL     OW 1578   1.127   3.203   1.690
  525SOL    HW1 1579   1.174   3.203   1.778
  525SOL    HW2 1580   1.079   3.116   1.679
  526SOL     OW 1581   0.230   3.296   0.538
  526SOL    HW1 1582   0.204   3.392   0.538
  526SOL    HW2 1583   0.159   3.242   0.583
  527SOL     OW 1584   0.240   2.953   0.886
  527SOL    HW1 1585   0.254   2.869   0.938
  527SOL    HW2 1586   0.185   3.017   0.941
  528SOL     OW 1587   0.620   3.648   1.439
  528SOL    HW1 1588   0.528   3.631   1.474
  528SOL    HW2 1589   0.648   3.740   1.465
  529SOL     OW 1590   0.606   2.826   0.123
  529SOL    HW1 1591   0.613   2.910   0.069
  529SOL    HW2 1592   0.652   2.839   0.211
  530SOL     OW 1593   1.594   1.976   1.480
  530SOL    HW1 1594   1.576   2.043   1.408
  530SOL    HW2 1595   1.591   2.022   1.569
  531SOL     OW 1596   0.122   2.505   0.563
  531SOL    HW1 1597   0.077   2.417   0.580
  531SOL    HW2 1598   0.121   2.559   0.647
  532SOL     OW 1599   1.842   3.629   0.359
  532SOL    HW1 1600   1.896   3.600   0.439
  532SOL    HW2 1601   1.872   3.719   0.330
  533SOL     OW 1602   0.027   3.458   0.117
  533SOL    HW1 1603   0.008   3.362   0.138
  533SOL    HW2 1604  -0.006   3.516   0.192
  534SOL     OW 1605   1.689   2.784   0.612
  534SOL    HW1 1606   1.784   2.755   0.620
  534SOL    HW2 1607   1.681   2.849   0.537
  535SOL     OW 1608   1.641   2.970   0.432
  535SOL    HW1 1609   1.727   2.972   0.380
  535SOL    HW2 1610   1.655   3.017   0.520
  536SOL     OW 1611   0.113   2.599   1.597
  536SOL    HW1 1612   0.201   2.586   1.642
  536SOL    HW2 1613   0.100   2.696   1.575
  537SOL     OW 1614   0.613   3.227   0.726
  537SOL    HW1 1615   0.564   3.140   0.735
  537SOL    HW2 1616   0.590   3.270   0.639
  538SOL     OW 1617   1.293   3.090   1.423
  538SOL    HW1 1618   1.330   3.017   1.365
  538SOL    HW2 1619   1.345   3.095   1.508
  539SOL     OW 1620   0.809   1.866   0.502
  539SOL    HW1 1621   0.849   1.957   0.493
  539SOL    HW2 1622   0.709   1.874   0.508
  540SOL     OW 1623   0.197   2.838   1.264
  540SOL    HW1 1624   0.286   2.793   1.250
  540SOL    HW2 1625   0.124   2.773   1.245
  541SOL     OW 1626   1.525   2.861   0.190
  541SOL    HW1 1627   1.462   2.785   0.203
  541SOL    HW2 1628   1.573   2.879   0.276
  542SOL     OW 1629   1.187   3.654   1.616
  542SOL    HW1 1630   1.211   3.714   1.540
  542SOL    HW2 1631   1.194   3.559   1.586
  543SOL     OW 1632   0.317   2.113   1.801
  543SOL    HW1 1633   0.388   2.184   1.807
  543SOL    HW2 1634   0.229   2.152   1.829
  544SOL     OW 1635   1.466   3.279   0.953
  544SOL    HW1 1636   1.407   3.285   1.033
  544SOL    HW2 1637   1.451   3.191   0.907
  545SOL     OW 1638   1.667   3.576   0.572
  545SOL    HW1 1639   1.626   3.553   0.484
  545SOL    HW2 1640   1.649   3.502   0.637
  546SOL     OW 1641   0.598   2.591   0.270
  546SOL    HW1 1642   0.622   2.660   0.202
  546SOL    HW2 1643   0.520   2.624   0.324
  547SOL     OW 1644   1.281   2.207   0.944
  547SOL    HW1 1645   1.195   2.157   0.931
  547SOL    HW2 1646   1.343   2.153   1.000
  548SOL     OW 1647   1.576   3.524   0.307
  548SOL    HW1 1648   1.665   3.570   0.310
  548SOL    HW2 1649   1.555   3.500   0.212
  549SOL     OW 1650   0.807   2.467   1.465
  549SOL    HW1 1651   0.760   2.464   1.554
  549SOL    HW2 1652   0.756   2.412   1.399
  550SOL     OW 1653   1.394   2.331   1.674
  550SOL    HW1 1654   1.374   2.374   1.762
  550SOL    HW2 1655   1.472   2.269   1.683
  551SOL     OW 1656   0.973   2.752   1.572
  551SOL    HW1 1657   1.019   2.668   1.543
  551SOL    HW2 1658   0.917   2.786   1.497
  552SOL     OW 1659   0.991   2.272   1.242
  552SOL    HW1 1660   0.914   2.306   1.296
  552SOL    HW2 1661   0.957   2.221   1.163
  553SOL     OW 1662   1.041   2.563   0.429
  553SOL    HW1 1663   1.067   2.559   0.525
  553SOL    HW2 1664   0.956   2.512   0.415
  554SOL     OW 1665   0.076   2.673   0.789
  554SOL    HW1 1666   0.175   2.661   0.798
  554SOL    HW2 1667   0.052   2.768   0.810
  555SOL     OW 1668   0.130   3.683   1.571
  555SOL    HW1 1669   0.120   3.668   1.670
  555SOL    HW2 1670   0.044   3.719   1.535
  556SOL     OW 1671   0.865   2.210   0.195
  556SOL    HW1 1672   0.924   2.273   0.146
  556SOL    HW2 1673   0.884   2.116   0.166
  557SOL     OW 1674   1.719   2.447   1.831
  557SOL    HW1 1675   1.693   2.536   1.795
  557SOL    HW2 1676   1.717   2.379   1.758
  558SOL     OW 1677   1.362   3.006   0.545
  558SOL    HW1 1678   1.445   2.977   0.497
  558SOL    HW2 1679   1.313   3.073   0.489
  559SOL     OW 1680   0.550   2.058   0.885
  559SOL    HW1 1681   0.545   2.053   0.985
  559SOL    HW2 1682   0.552   2.154   0.856
  560SOL     OW 1683   1.008   3.318   0.477
  560SOL    HW1 1684   0.962   3.390   0.425
  560SOL    HW2 1685   1.004   3.338   0.575
  561SOL     OW 1686   0.351   3.663   0.853
  561SOL    HW1 1687   0.401   3.577   0.859
  561SOL    HW2 1688   0.416   3.740   0.850
  562SOL     OW 1689   1.795   2.928   0.873
  562SOL    HW1 1690   1.733   2.913   0.797
  562SOL    HW2 1691   1.743   2.939   0.958
  563SOL     OW 1692   1.227   3.412   1.506
  563SOL    HW1 1693   1.233   3.335   1.570
  563SOL    HW2 1694   1.175   3.386   1.426
  564SOL     OW 1695   0.321   2.805   0.242
  564SOL    HW1 1696   0.403   2.844   0.200
  564SOL    HW2 1697   0.294   2.723   0.193
  565SOL     OW 1698   1.458   2.597   0.728
  565SOL    HW1 1699   1.453   2.532   0.803
  565SOL    HW2 1700   1.538   2.656   0.741
  566SOL     OW 1701   0.461   3.128   1.727
  566SOL    HW1 1702   0.411   3.129   1.641
  566SOL    HW2 1703   0.398   3.110   1.803
  567SOL     OW 1704   1.111   3.638   0.237
  567SOL    HW1 1705   1.051   3.576   0.287
  567SOL    HW2 1706   1.142   3.594   0.152
  568SOL     OW 1707   0.202   2.147   1.498
  568SOL    HW1 1708   0.122   2.207   1.485
  568SOL    HW2 1709   0.192   2.098   1.584
  569SOL     OW 1710   1.632   3.239   0.081
  569SOL    HW1 1711   1.600   3.333   0.071
  569SOL    HW2 1712   1.556   3.176   0.069
  570SOL     OW 1713   0.464   3.605   0.323
  570SOL    HW1 1714   0.497   3.644   0.409
  570SOL    HW2 1715   0.540   3.598   0.258
  571SOL     OW 1716   1.400   1.969   0.426
  571SOL    HW1 1717   1.376   1.932   0.336
  571SOL    HW2 1718   1.499   1.985   0.430
  572SOL     OW 1719   0.249   3.647   1.241
  572SOL    HW1 1720   0.306   3.582   1.291
  572SOL    HW2 1721   0.233   3.614   1.148
  573SOL     OW 1722   0.940   3.560   0.904
  573SOL    HW1 1723   1.020   3.503   0.925
  573SOL    HW2 1724   0.891   3.520   0.827
  574SOL     OW 1725   0.382   2.562   0.480
  574SOL    HW1 1726   0.427   2.472   0.477
  574SOL    HW2 1727   0.288   2.551   0.513
  575SOL     OW 1728   1.547   2.084   1.729
  575SOL    HW1 1729   1.542   2.121   1.821
  575SOL    HW2 1730   1.475   2.015   1.717
  576SOL     OW 1731   0.614   1.984   0.117
  576SOL    HW1 1732   0.712   1.962   0.124
  576SOL    HW2 1733   0.583   1.967   0.024
  577SOL     OW 1734   0.781   2.126   1.749
  577SOL    HW1 1735   0.848   2.065   1.792
  577SOL    HW2 1736   0.708   2.145   1.814
  578SOL     OW 1737   0.888   3.376   1.195
  578SOL    HW1 1738   0.865   3.351   1.101
  578SOL    HW2 1739   0.949   3.307   1.234
  579SOL     OW 1740   1.351   2.452   1.433
  579SOL    HW1 1741   1.379   2.409   1.518
  579SOL    HW2 1742   1.376   2.548   1.434
  580SOL     OW 1743   0.803   3.264   0.924
  580SOL    HW1 1744   0.893   3.278   0.882
  580SOL    HW2 1745   0.732   3.266   0.853
  581SOL     OW 1746   0.922   2.365   0.899
  581SOL    HW1 1747   0.897   2.356   0.803
  581SOL    HW2 1748   0.970   2.283   0.930
  582SOL     OW 1749   0.539   1.926   0.512
  582SOL    HW1 1750   0.458   1.927   0.570
  582SOL    HW2 1751   0.542   2.009   0.457
  583SOL     OW 1752   1.434   3.050   0.041
  583SOL    HW1 1753   1.466   2.974   0.098
  583SOL    HW2 1754   1.342   3.077   0.071
  584SOL     OW 1755   0.935   2.098   0.480
  584SOL    HW1 1756   0.887   2.139   0.402
  584SOL    HW2 1757   1.034   2.096   0.461
  585SOL     OW 1758   1.076   2.545   1.464
  585SOL    HW1 1759   0.996   2.484   1.467
  585SOL    HW2 1760   1.157   2.492   1.440
  586SOL     OW 1761   1.227   3.432   0.793
  586SOL    HW1 1762   1.248   3.506   0.728
  586SOL    HW2 1763   1.295   3.432   0.866
  587SOL     OW 1764   0.459   3.014   0.741
  587SOL    HW1 1765   0.388   2.987   0.806
  587SOL    HW2 1766   0.433   2.986   0.648
  588SOL     OW 1767   1.271   3.659   0.591
  588SOL    HW1 1768   1.315   3.723   0.527
  588SOL    HW2 1769   1.221   3.711   0.661
  589SOL     OW 1770   1.032   2.411   0.016
  589SOL    HW1 1771   0.991   2.493  -0.023
  589SOL    HW2 1772   1.096   2.437   0.089
  590SOL     OW 1773   0.078   2.418   1.386
  590SOL    HW1 1774   0.170   2.417   1.345
  590SOL    HW2 1775   0.072   2.492   1.453
  591SOL     OW 1776   0.561   2.084   1.147
  591SOL    HW1 1777   0.599   2.000   1.184
  591SOL    HW2 1778   0.473   2.103   1.191
  592SOL     OW 1779   0.866   2.316   0.642
  592SOL    HW1 1780   0.834   2.388   0.580
  592SOL    HW2 1781   0.890   2.235   0.589
  593SOL     OW 1782   1.017   1.901   0.753
  593SOL    HW1 1783   0.945   1.906   0.684
  593SOL    HW2 1784   0.993   1.832   0.822
  594SOL     OW 1785   1.429   3.035   0.867
  594SOL    HW1 1786   1.374   2.951   0.860
  594SOL    HW2 1787   1.455   3.064   0.775
  595SOL     OW 1788   1.466   2.452   0.992
  595SOL    HW1 1789   1.436   2.357   0.999
  595SOL    HW2 1790   1.539   2.468   1.058
  596SOL     OW 1791   1.857   2.695   0.377
  596SOL    HW1 1792   1.899   2.631   0.441
  596SOL    HW2 1793   1.819   2.644   0.299
  597SOL     OW 1794   0.488   3.247   0.174
  597SOL    HW1 1795   0.401   3.232   0.221
  597SOL    HW2 1796   0.471   3.273   0.079
  598SOL     OW 1797   1.664   3.142   0.657
  598SOL    HW1 1798   1.763   3.150   0.671
  598SOL    HW2 1799   1.619   3.226   0.688
  599SOL     OW 1800   1.390   2.437   0.078
  599SOL    HW1 1801   1.336   2.416   0.159
  599SOL    HW2 1802   1.481   2.396   0.087
  600SOL     OW 1803   0.527   2.118   0.328
  600SOL    HW1 1804   0.554   2.059   0.253
  600SOL    HW2 1805   0.527   2.213   0.297
  601SOL     OW 1806   1.754   3.085   1.588
  601SOL    HW1 1807   1.845   3.046   1.575
  601SOL    HW2 1808   1.762   3.181   1.612
  602SOL     OW 1809   1.064   3.209   1.340
  602SOL    HW1 1810   0.984   3.186   1.395
  602SOL    HW2 1811   1.147   3.183   1.389
  603SOL     OW 1812   1.592   3.491   1.625
  603SOL    HW1 1813   1.619   3.525   1.535
  603SOL    HW2 1814   1.671   3.453   1.671
  604SOL     OW 1815   1.111   3.057   1.100
  604SOL    HW1 1816   1.071   3.101   1.181
  604SOL    HW2 1817   1.070   3.094   1.017
  605SOL     OW 1818   1.638   2.961   1.079
  605SOL    HW1 1819   1.643   3.042   1.138
  605SOL    HW2 1820   1.552   2.963   1.028
  606SOL     OW 1821   0.915   1.951   1.402
  606SOL    HW1 1822   0.940   1.931   1.307
  606SOL    HW2 1823   0.987   2.007   1.444
  607SOL     OW 1824   0.980   2.978   1.719
  607SOL    HW1 1825   0.881   2.984   1.729
  607SOL    HW2 1826   1.003   2.898   1.663
  608SOL     OW 1827   0.705   2.912   0.368
  608SOL    HW1 1828   0.691   2.919   0.467
  608SOL    HW2 1829   0.789   2.861   0.350
  609SOL     OW 1830   0.410   2.675   1.251
  609SOL    HW1 1831   0.496   2.687   1.301
  609SOL    HW2 1832   0.368   2.588   1.278
  610SOL     OW 1833   1.274   2.248   1.262
  610SOL    HW1 1834   1.295   2.322   1.326
  610SOL    HW2 1835   1.185   2.265   1.219
  611SOL     OW 1836   0.064   3.426   1.331
  611SOL    HW1 1837   0.018   3.508   1.297
  611SOL    HW2 1838   0.162   3.445   1.340
  612SOL     OW 1839   0.367   2.962   0.501
  612SOL    HW1 1840   0.360   3.045   0.445
  612SOL    HW2 1841   0.371   2.882   0.441
  613SOL     OW 1842   0.566   2.399   0.865
  613SOL    HW1 1843   0.578   2.465   0.791
  613SOL    HW2 1844   0.612   2.433   0.948
  614SOL     OW 1845   1.252   3.210   0.388
  614SOL    HW1 1846   1.302   3.287   0.428
  614SOL    HW2 1847   1.157   3.212   0.420
  615SOL     OW 1848   1.272   3.307   1.142
  615SOL    HW1 1849   1.319   3.320   1.229
  615SOL    HW2 1850   1.206   3.233   1.151
  616SOL     OW 1851   1.582   2.501   0.472
  616SOL    HW1 1852   1.551   2.562   0.545
  616SOL    HW2 1853   1.632   2.553   0.403
  617SOL     OW 1854   0.354   3.372   1.329
  617SOL    HW1 1855   0.333   3.328   1.242
  617SOL    HW2 1856   0.451   3.398   1.332
  618SOL     OW 1857   0.402   2.613   1.598
  618SOL    HW1 1858   0.470   2.668   1.551
  618SOL    HW2 1859   0.442   2.525   1.625
  619SOL     OW 1860   1.587   2.641   1.670
  619SOL    HW1 1861   1.495   2.679   1.665
  619SOL    HW2 1862   1.647   2.688   1.605
  620SOL     OW 1863   1.013   1.967   1.770
  620SOL    HW1 1864   1.019   2.052   1.718
  620SOL    HW2 1865   1.045   1.891   1.713
  621SOL     OW 1866   0.504   1.912   1.740
  621SOL    HW1 1867   0.462   1.855   1.670
  621SOL    HW2 1868   0.438   1.981   1.772
  622SOL     OW 1869   0.573   2.732   1.029
  622SOL    HW1 1870   0.617   2.821   1.020
  622SOL    HW2 1871   0.510   2.732   1.106
  623SOL     OW 1872   1.360   2.724   1.045
  623SOL    HW1 1873   1.285   2.724   0.979
  623SOL    HW2 1874   1.397   2.632   1.054
  624SOL     OW 1875   1.209   2.387   0.275
  624SOL    HW1 1876   1.222   2.303   0.329
  624SOL    HW2 1877   1.180   2.461   0.335
  625SOL     OW 1878   0.307   2.075   1.231
  625SOL    HW1 1879   0.284   2.112   1.321
  625SOL    HW2 1880   0.277   1.980   1.225
  626SOL     OW 1881   0.037   3.172   1.282
  626SOL    HW1 1882   0.090   3.123   1.350
  626SOL    HW2 1883   0.059   3.270   1.287
  627SOL     OW 1884   0.732   2.496   1.064
  627SOL    HW1 1885   0.791   2.470   0.988
  627SOL    HW2 1886   0.704   2.592   1.053
  628SOL     OW 1887   1.728   2.797   1.854
  628SOL    HW1 1888   1.682   2.790   1.765
  628SOL    HW2 1889   1.666   2.841   1.920
  629SOL     OW 1890   0.307   1.925   0.618
  629SOL    HW1 1891   0.296   2.019   0.651
  629SOL    HW2 1892   0.302   1.862   0.695
  630SOL     OW 1893   1.622   2.229   0.374
  630SOL    HW1 1894   1.624   2.153   0.438
  630SOL    HW2 1895   1.574   2.306   0.414
  631SOL     OW 1896   1.023   2.628   0.966
  631SOL    HW1 1897   1.038   2.649   1.062
  631SOL    HW2 1898   0.993   2.533   0.957
  632SOL     OW 1899   0.980   3.435   1.700
  632SOL    HW1 1900   0.960   3.479   1.612
  632SOL    HW2 1901   1.019   3.344   1.684
  633SOL     OW 1902   1.859   3.380   1.605
  633SOL    HW1 1903   1.873   3.407   1.510
  633SOL    HW2 1904   1.942   3.402   1.658
  634SOL     OW 1905   0.350   2.760   1.804
  634SOL    HW1 1906   0.426   2.804   1.852
  634SOL    HW2 1907   0.385   2.713   1.722
  635SOL     OW 1908   1.540   2.136   0.125
  635SOL    HW1 1909   1.479   2.061   0.148
  635SOL    HW2 1910   1.562   2.188   0.208
  636SOL     OW 1911   1.303   2.700   0.042
  636SOL    HW1 1912   1.337   2.607   0.057
  636SOL    HW2 1913   1.321   2.727  -0.053
  637SOL     OW 1914   1.068   3.195   0.849
  637SOL    HW1 1915   1.075   3.111   0.794
  637SOL    HW2 1916   1.130   3.264   0.813
  638SOL     OW 1917   0.319   2.672   0.949
  638SOL    HW1 1918   0.412   2.708   0.954
  638SOL    HW2 1919   0.313   2.587   1.001
  639SOL     OW 1920   0.339   2.371   1.006
  639SOL    HW1 1921   0.287   2.288   0.989
  639SOL    HW2 1922   0.416   2.376   0.942
  640SOL     OW 1923   1.138   2.242   1.678
  640SOL    HW1 1924   1.093   2.305   1.742
  640SOL    HW2 1925   1.231   2.273   1.661
  641SOL     OW 1926   1.160   2.069   1.477
  641SOL    HW1 1927   1.160   2.133   1.554
  641SOL    HW2 1928   1.188   2.117   1.394
  642SOL     OW 1929   0.008   3.188   0.200
  642SOL    HW1 1930  -0.085   3.209   0.169
  642SOL    HW2 1931   0.018   3.089   0.213
  643SOL     OW 1932   0.088   3.663   0.927
  643SOL    HW1 1933   0.046   3.577   0.900
  643SOL    HW2 1934   0.182   3.666   0.893
  644SOL     OW 1935   0.504   3.430   0.910
  644SOL    HW1 1936   0.570   3.504   0.919
  644SOL    HW2 1937   0.548   3.351   0.868
  645SOL     OW 1938   1.002   2.658   1.238
  645SOL    HW1 1939   1.043   2.626   1.324
  645SOL    HW2 1940   0.906   2.631   1.235
  646SOL     OW 1941   0.040   2.406   1.114
  646SOL    HW1 1942   0.125   2.373   1.073
  646SOL    HW2 1943   0.053   2.421   1.212
  647SOL     OW 1944   0.189   2.382   1.722
  647SOL    HW1 1945   0.248   2.342   1.652
  647SOL    HW2 1946   0.131   2.453   1.681
  648SOL     OW 1947   1.369   2.812   1.660
  648SOL    HW1 1948   1.408   2.901   1.680
  648SOL    HW2 1949   1.379   2.792   1.563
  649SOL     OW 1950   0.815   2.434   0.325
  649SOL    HW1 1951   0.822   2.345   0.279
  649SOL    HW2 1952   0.721   2.468   0.317
  650SOL     OW 1953   1.657   2.466   1.206
  650SOL    HW1 1954   1.619   2.397   1.268
  650SOL    HW2 1955   1.739   2.430   1.162
  651SOL     OW 1956   0.252   3.426   1.744
  651SOL    HW1 1957   0.222   3.483   1.820
  651SOL    HW2 1958   0.245   3.329   1.770
  652SOL     OW 1959   0.671   2.326   1.269
  652SOL    HW1 1960   0.637   2.237   1.239
  652SOL    HW2 1961   0.697   2.380   1.189
  653SOL     OW 1962   0.930   3.540   1.465
  653SOL    HW1 1963   0.906   3.522   1.370
  653SOL    HW2 1964   0.960   3.634   1.475
  654SOL     OW 1965   0.473   2.362   0.191
  654SOL    HW1 1966   0.534   2.442   0.195
  654SOL    HW2 1967   0.378   2.393   0.198
  655SOL     OW 1968   0.159   2.999   1.466
  655SOL    HW1 1969   0.181   2.938   1.542
  655SOL    HW2 1970   0.169   2.950   1.380
  656SOL     OW 1971   1.347   2.921   1.234
  656SOL    HW1 1972   1.371   2.858   1.160
  656SOL    HW2 1973   1.257   2.961   1.216
  657SOL     OW 1974   1.302   2.717   0.309
  657SOL    HW1 1975   1.216   2.686   0.351
  657SOL    HW2 1976   1.298   2.703   0.210
  658SOL     OW 1977   1.759   3.609   1.154
  658SOL    HW1 1978   1.820   3.639   1.081
  658SOL    HW2 1979   1.721   3.520   1.132
  659SOL     OW 1980   1.252   3.593   1.128
  659SOL    HW1 1981   1.336   3.598   1.074
  659SOL    HW2 1982   1.229   3.497   1.146
  660SOL     OW 1983   0.083   3.120   1.022
  660SOL    HW1 1984   0.078   3.119   1.122
  660SOL    HW2 1985   0.000   3.079   0.984
  661SOL     OW 1986   0.688   3.524   1.716
  661SOL    HW1 1987   0.632   3.605   1.725
  661SOL    HW2 1988   0.740   3.528   1.630
  662SOL     OW 1989   0.903   1.948   0.133
  662SOL    HW1 1990   0.954   1.949   0.047
  662SOL    HW2 1991   0.959   1.906   0.204
  663SOL     OW 1992   1.726   1.997   0.523
  663SOL    HW1 1993   1.799   1.980   0.456
  663SOL    HW2 1994   1.695   1.910   0.561
  664SOL     OW 1995   1.388   3.435   0.477
  664SOL    HW1 1996   1.455   3.447   0.403
  664SOL    HW2 1997   1.348   3.524   0.500
  665SOL     OW 1998   0.130   3.656   1.851
  665SOL    HW1 1999   0.089   3.582   1.904
  665SOL    HW2 2000   0.194   3.707   1.909
  666SOL     OW 2001   1.280   2.789   0.672
  666SOL    HW1 2002   1.340   2.708   0.674
  666SOL    HW2 2003   1.320   2.858   0.612
  667SOL     OW 2004   0.830   3.135   1.422
  667SOL    HW1 2005   0.825   3.168   1.517
  667SOL    HW2 2006   0.744   3.154   1.376
  668SOL     OW 2007   0.672   3.478   0.154
  668SOL    HW1 2008   0.681   3.488   0.055
  668SOL    HW2 2009   0.632   3.389   0.175
  669SOL     OW 2010   1.650   3.582   1.394
  669SOL    HW1 2011   1.703   3.592   1.310
  669SOL    HW2 2012   1.623   3.672   1.428
  670SOL     OW 2013   1.841   2.037   0.963
  670SOL    HW1 2014   1.880   1.952   0.927
  670SOL    HW2 2015   1.743   2.039   0.944
  671SOL     OW 2016   0.263   2.188   0.720
  671SOL    HW1 2017   0.184   2.239   0.686
  671SOL    HW2 2018   0.254   2.173   0.818
  672SOL     OW 2019   1.194   3.474   0.031
  672SOL    HW1 2020   1.200   3.381   0.068
  672SOL    HW2 2021   1.135   3.474  -0.049
  673SOL     OW 2022   0.822   2.864   1.372
  673SOL    HW1 2023   0.862   2.863   1.280
  673SOL    HW2 2024   0.832   2.956   1.412
  674SOL     OW 2025   0.916   2.772   0.291
  674SOL    HW1 2026   0.979   2.810   0.223
  674SOL    HW2 2027   0.956   2.689   0.330
  675SOL     OW 2028   1.504   3.469   0.044
  675SOL    HW1 2029   1.412   3.506   0.051
  675SOL    HW2 2030   1.542   3.489  -0.046
  676SOL     OW 2031   0.372   3.150   1.490
  676SOL    HW1 2032   0.359   3.243   1.456
  676SOL    HW2 2033   0.288   3.098   1.477
  677SOL     OW 2034   1.614   3.154   1.289
  677SOL    HW1 2035   1.674   3.157   1.369
  677SOL    HW2 2036   1.539   3.218   1.302
  678SOL     OW 2037   1.039   2.960   0.696
  678SOL    HW1 2038   0.969   2.913   0.750
  678SOL    HW2 2039   1.098   2.892   0.653
  679SOL     OW 2040   1.014   2.098   0.971
  679SOL    HW1 2041   1.006   2.062   0.878
  679SOL    HW2 2042   1.012   2.022   1.036
  680SOL     OW 2043   0.590   3.349   0.491
  680SOL    HW1 2044   0.632   3.291   0.421
  680SOL    HW2 2045   0.546   3.428   0.447
  681SOL     OW 2046   1.709   2.247   1.381
  681SOL    HW1 2047   1.782   2.316   1.385
  681SOL    HW2 2048   1.737   2.172   1.322
  682SOL     OW 2049   0.255   3.210   0.290
  682SOL    HW1 2050   0.159   3.211   0.263
  682SOL    HW2 2051   0.267   3.263   0.374
  683SOL     OW 2052   0.105   2.875   1.726
  683SOL    HW1 2053   0.028   2.842   1.780
  683SOL    HW2 2054   0.190   2.845   1.768
  684SOL     OW 2055   0.672   2.065   1.489
  684SOL    HW1 2056   0.762   2.049   1.449
  684SOL    HW2 2057   0.680   2.070   1.588
  685SOL     OW 2058   0.075   2.207   0.033
  685SOL    HW1 2059  -0.017   2.179   0.004
  685SOL    HW2 2060   0.106   2.284  -0.023
  686SOL     OW 2061   1.440   2.718   1.398
  686SOL    HW1 2062   1.383   2.770   1.335
  686SOL    HW2 2063   1.536   2.730   1.374
  687SOL     OW 2064   0.072   2.028   0.318
  687SOL    HW1 2065   0.055   2.111   0.264
  687SOL    HW2 2066   0.162   1.991   0.296
  688SOL     OW 2067   1.183   3.197   0.119
  688SOL    HW1 2068   1.084   3.186   0.121
  688SOL    HW2 2069   1.217   3.212   0.212
  689SOL     OW 2070   0.613   2.704   1.431
  689SOL    HW1 2071   0.669   2.785   1.414
  689SOL    HW2 2072   0.672   2.624   1.434
  690SOL     OW 2073   1.493   3.629   0.959
  690SOL    HW1 2074   1.526   3.693   0.890
  690SOL    HW2 2075   1.559   3.623   1.034
  691SOL     OW 2076   0.716   2.427   1.708
  691SOL    HW1 2077   0.735   2.492   1.782
  691SOL    HW2 2078   0.776   2.347   1.717
  692SOL     OW 2079   1.450   3.082   1.633
  692SOL    HW1 2080   1.441   3.072   1.732
  692SOL    HW2 2081   1.546   3.075   1.607
  693SOL     OW 2082   0.390   3.603   1.560
  693SOL    HW1 2083   0.299   3.644   1.558
  693SOL    HW2 2084   0.383   3.509   1.592
  694SOL     OW 2085   1.674   2.745   1.254
  694SOL    HW1 2086   1.647   2.656   1.217
  694SOL    HW2 2087   1.675   2.813   1.181
  695SOL     OW 2088   1.225   2.187   0.449
  695SOL    HW1 2089   1.290   2.113   0.438
  695SOL    HW2 2090   1.245   2.237   0.533
  696SOL     OW 2091   0.594   2.607   0.652
  696SOL    HW1 2092   0.644   2.692   0.633
  696SOL    HW2 2093   0.506   2.609   0.604
  697SOL     OW 2094   1.777   2.204   1.642
  697SOL    HW1 2095   1.760   2.235   1.548
  697SOL    HW2 2096   1.693   2.167   1.680
  698SOL     OW 2097   1.730   2.796   1.517
  698SOL    HW1 2098   1.768   2.887   1.532
  698SOL    HW2 2099   1.722   2.779   1.418
  699SOL     OW 2100   0.859   3.236   0.016
  699SOL    HW1 2101   0.813   3.251   0.104
  699SOL    HW2 2102   0.903   3.321  -0.014
  700SOL     OW 2103   0.661   3.652   0.953
  700SOL    HW1 2104   0.615   3.740   0.940
  700SOL    HW2 2105   0.760   3.664   0.946
  701SOL     OW 2106   0.859   2.818   0.861
  701SOL    HW1 2107   0.913   2.749   0.909
  701SOL    HW2 2108   0.827   2.887   0.927
  702SOL     OW 2109   1.083   2.846   0.087
  702SOL    HW1 2110   1.060   2.899   0.005
  702SOL    HW2 2111   1.164   2.790   0.068
  703SOL     OW 2112   1.861   3.431   0.851
  703SOL    HW1 2113   1.790   3.419   0.781
  703SOL    HW2 2114   1.862   3.352   0.911
  704SOL     OW 2115   0.221   3.176   1.844
  704SOL    HW1 2116   0.156   3.103   1.823
  704SOL    HW2 2117   0.225   3.190   1.942
  705SOL     OW 2118   0.079   3.102   0.653
  705SOL    HW1 2119   0.078   3.055   0.741
  705SOL    HW2 2120   0.161   3.074   0.602
  706SOL     OW 2121   0.672   3.253   1.624
  706SOL    HW1 2122   0.594   3.203   1.662
  706SOL    HW2 2123   0.669   3.348   1.655
  707SOL     OW 2124   1.824   2.054   1.227
  707SOL    HW1 2125   1.820   1.964   1.271
  707SOL    HW2 2126   1.827   2.043   1.128
  708SOL     OW 2127   0.428   2.286   0.520
  708SOL    HW1 2128   0.458   2.214   0.458
  708SOL    HW2 2129   0.389   2.246   0.603
  709SOL     OW 2130   1.705   3.349   1.104
  709SOL    HW1 2131   1.612   3.324   1.077
  709SOL    HW2 2132   1.731   3.299   1.186
  710SOL     OW 2133   0.317   2.409   1.280
  710SOL    HW1 2134   0.355   2.350   1.352
  710SOL    HW2 2135   0.357   2.383   1.192
  711SOL     OW 2136   0.812   3.448   0.687
  711SOL    HW1 2137   0.844   3.458   0.593
  711SOL    HW2 2138   0.733   3.386   0.689
  712SOL     OW 2139   1.424   2.076   1.112
  712SOL    HW1 2140   1.476   2.011   1.167
  712SOL    HW2 2141   1.375   2.139   1.173
  713SOL     OW 2142   1.001   1.896   1.154
  713SOL    HW1 2143   0.938   1.824   1.123
  713SOL    HW2 2144   1.094   1.860   1.154
  714SOL     OW 2145   0.770   3.192   0.301
  714SOL    HW1 2146   0.724   3.105   0.318
  714SOL    HW2 2147   0.861   3.189   0.342
  715SOL     OW 2148   0.618   3.429   1.284
  715SOL    HW1 2149   0.613   3.511   1.341
  715SOL    HW2 2150   0.707   3.426   1.239
  716SOL     OW 2151   1.352   1.914   0.168
  716SOL    HW1 2152   1.387   1.873   0.084
  716SOL    HW2 2153   1.262   1.876   0.188
  717SOL     OW 2154   1.300   2.315   0.691
  717SOL    HW1 2155   1.241   2.395   0.695
  717SOL    HW2 2156   1.315   2.280   0.784
  718SOL     OW 2157   1.593   2.083   0.882
  718SOL    HW1 2158   1.509   2.082   0.936
  718SOL    HW2 2159   1.595   2.166   0.826
  719SOL     OW 2160   0.039   2.939   0.300
  719SOL    HW1 2161   0.138   2.928   0.291
  719SOL    HW2 2162  -0.001   2.853   0.332
  720SOL     OW 2163   0.875   3.508   0.337
  720SOL    HW1 2164   0.798   3.473   0.283
  720SOL    HW2 2165   0.843   3.579   0.399
  721SOL     OW 2166   0.230   2.490   1.975
  721SOL    HW1 2167   0.137   2.488   2.012
  721SOL    HW2 2168   0.231   2.451   1.883
  722SOL     OW 2169   0.225   2.137   2.858
  722SOL    HW1 2170   0.260   2.120   2.950
  722SOL    HW2 2171   0.137   2.092   2.846
  723SOL     OW 2172   0.019   2.230   2.509
  723SOL    HW1 2173  -0.063   2.273   2.548
  723SOL    HW2 2174  -0.009   2.157   2.446
  724SOL     OW 2175   0.569   3.137   3.027
  724SOL    HW1 2176   0.476   3.130   2.990
  724SOL    HW2 2177   0.580   3.226   3.071
  725SOL     OW 2178   1.555   3.373   2.565
  725SOL    HW1 2179   1.498   3.357   2.646
  725SOL    HW2 2180   1.496   3.383   2.485
  726SOL     OW 2181   1.135   2.565   2.579
  726SOL    HW1 2182   1.192   2.643   2.554
  726SOL    HW2 2183   1.075   2.591   2.655
  727SOL     OW 2184   1.755   2.469   2.093
  727SOL    HW1 2185   1.743   2.456   1.994
  727SOL    HW2 2186   1.725   2.388   2.142
  728SOL     OW 2187   0.768   3.006   2.885
  728SOL    HW1 2188   0.690   3.023   2.945
  728SOL    HW2 2189   0.802   3.093   2.849
  729SOL     OW 2190   0.850   2.660   3.685
  729SOL    HW1 2191   0.846   2.736   3.750
  729SOL    HW2 2192   0.872   2.696   3.594
  730SOL     OW 2193   0.685   2.874   2.527
  730SOL    HW1 2194   0.754   2.858   2.597
  730SOL    HW2 2195   0.612   2.931   2.565
  731SOL     OW 2196   0.686   3.023   3.665
  731SOL    HW1 2197   0.746   3.102   3.679
  731SOL    HW2 2198   0.600   3.054   3.624
  732SOL     OW 2199   0.335   3.297   2.923
  732SOL    HW1 2200   0.257   3.266   2.870
  732SOL    HW2 2201   0.393   3.355   2.866
  733SOL     OW 2202   1.460   3.367   3.201
  733SOL    HW1 2203   1.484   3.461   3.227
  733SOL    HW2 2204   1.444   3.313   3.283
  734SOL     OW 2205   0.438   2.254   3.361
  734SOL    HW1 2206   0.520   2.198   3.370
  734SOL    HW2 2207   0.357   2.196   3.365
  735SOL     OW 2208   1.603   2.309   2.599
  735SOL    HW1 2209   1.529   2.355   2.549
  735SOL    HW2 2210   1.654   2.377   2.652
  736SOL     OW 2211   0.231   3.575   2.345
  736SOL    HW1 2212   0.265   3.652   2.399
  736SOL    HW2 2213   0.275   3.575   2.255
  737SOL     OW 2214   1.127   3.203   3.552
  737SOL    HW1 2215   1.174   3.203   3.640
  737SOL    HW2 2216   1.079   3.116   3.541
  738SOL     OW 2217   0.230   3.296   2.400
  738SOL    HW1 2218   0.204   3.392   2.400
  738SOL    HW2 2219   0.159   3.242   2.445
  739SOL     OW 2220   0.240   2.953   2.748
  739SOL    HW1 2221   0.254   2.869   2.800
  739SOL    HW2 2222   0.185   3.017   2.803
  740SOL     OW 2223   0.620   3.648   3.301
  740SOL    HW1 2224   0.528   3.631   3.336
  740SOL    HW2 2225   0.648   3.740   3.327
  741SOL     OW 2226   0.606   2.826   1.985
  741SOL    HW1 2227   0.613   2.910   1.931
  741SOL    HW2 2228   0.652   2.839   2.073
  742SOL     OW 2229   1.594   1.976   3.342
  742SOL    HW1 2230   1.576   2.043   3.270
  742SOL    HW2 2231   1.591   2.022   3.431
  743SOL     OW 2232   0.122   2.505   2.425
  743SOL    HW1 2233   0.077   2.417   2.442
  743SOL    HW2 2234   0.121   2.559   2.509
  744SOL     OW 2235   1.842   3.629   2.221
  744SOL    HW1 2236   1.896   3.600   2.301
  744SOL    HW2 2237   1.872   3.719   2.192
  745SOL     OW 2238   0.027   3.458   1.979
  745SOL    HW1 2239   0.008   3.362   2.000
  745SOL    HW2 2240  -0.006   3.516   2.054
  746SOL     OW 2241   1.689   2.784   2.474
  746SOL    HW1 2242   1.784   2.755   2.482
  746SOL    HW2 2243   1.681   2.849   2.399
  747SOL     OW 2244   1.641   2.970   2.294
  747SOL    HW1 2245   1.727   2.972   2.242
  747SOL    HW2 2246   1.655   3.017   2.382
  748SOL     OW 2247   0.113   2.599   3.459
  748SOL    HW1 2248   0.201   2.586   3.504
  748SOL    HW2 2249   0.100   2.696   3.437
  749SOL     OW 2250   0.613   3.227   2.588
  749SOL    HW1 2251   0.564   3.140   2.597
  749SOL    HW2 2252   0.590   3.270   2.501
  750SOL     OW 2253   1.293   3.090   3.285
  750SOL    HW1 2254   1.330   3.017   3.227
  750SOL    HW2 2255   1.345   3.095   3.370
  751SOL     OW 2256   0.809   1.866   2.364
  751SOL    HW1 2257   0.849   1.957   2.355
  751SOL    HW2 2258   0.709   1.874   2.370
  752SOL     OW 2259   0.197   2.838   3.126
  752SOL    HW1 2260   0.286   2.793   3.112
  752SOL    HW2 2261   0.124   2.773   3.107
  753SOL     OW 2262   1.525   2.861   2.052
  753SOL    HW1 2263   1.462   2.785   2.065
  753SOL    HW2 2264   1.573   2.879   2.138
  754SOL     OW 2265   1.187   3.654   3.478
  754SOL    HW1 2266   1.211   3.714   3.402
  754SOL    HW2 2267   1.194   3.559   3.448
  755SOL     OW 2268   0.317   2.113   3.663
  755SOL    HW1 2269   0.388   2.184   3.669
  755SOL    HW2 2270   0.229   2.152   3.691
  756SOL     OW 2271   1.466   3.279   2.815
  756SOL    HW1 2272   1.407   3.285   2.895
  756SOL    HW2 2273   1.451   3.191   2.769
  757SOL     OW 2274   1.667   3.576   2.434
  757SOL    HW1 2275   1.626   3.553   2.346
  757SOL    HW2 2276   1.649   3.502   2.499
  758SOL     OW 2277   0.598   2.591   2.132
  758SOL    HW1 2278   0.622   2.660   2.064
  758SOL    HW2 2279   0.520   2.624   2.186
  759SOL     OW 2280   1.281   2.207   2.806
  759SOL    HW1 2281   1.195   2.157   2.793
  759SOL    HW2 2282   1.343   2.153   2.862
  760SOL     OW 2283   1.576   3.524   2.169
  760SOL    HW1 2284   1.665   3.570   2.172
  760SOL    HW2 2285   1.555   3.500   2.074
  761SOL     OW 2286   0.807   2.467   3.327
  761SOL    HW1 2287   0.760   2.464   3.416
  761SOL    HW2 2288   0.756   2.412   3.261
  762SOL     OW 2289   1.394   2.331   3.536
  762SOL    HW1 2290   1.374   2.374   3.624
  762SOL    HW2 2291   1.472   2.269   3.545
  763SOL     OW 2292   0.973   2.752   3.434
  763SOL    HW1 2293   1.019   2.668   3.405
  763SOL    HW2 2294   0.917   2.786   3.359
  764SOL     OW 2295   0.991   2.272   3.104
  764SOL    HW1 2296   0.914   2.306   3.158
  764SOL    HW2 2297   0.957   2.221   3.025
  765SOL     OW 2298   1.041   2.563   2.291
  765SOL    HW1 2299   1.067   2.559   2.387
  765SOL    HW2 2300   0.956   2.512   2.277
  766SOL     OW 2301   0.076   2.673   2.651
  766SOL    HW1 2302   0.175   2.661   2.660
  766SOL    HW2 2303   0.052   2.768   2.672
  767SOL     OW 2304   0.130   3.683   3.433
  767SOL    HW1 2305   0.120   3.668   3.532
  767SOL    HW2 2306   0.044   3.719   3.397
  768SOL     OW 2307   0.865   2.210   2.057
  768SOL    HW1 2308   0.924   2.273   2.008
  768SOL    HW2 2309   0.884   2.116   2.028
  769SOL     OW 2310   1.719   2.447   3.693
  769SOL    HW1 2311   1.693   2.536   3.657
  769SOL    HW2 2312   1.717   2.379   3.620
  770SOL     OW 2313   1.362   3.006   2.407
  770SOL    HW1 2314   1.445   2.977   2.359
  770SOL    HW2 2315   1.313   3.073   2.351
  771SOL     OW 2316   0.550   2.058   2.747
  771SOL    HW1 2317   0.545   2.053   2.847
  771SOL    HW2 2318   0.552   2.154   2.718
  772SOL     OW 2319   1.008   3.318   2.339
  772SOL    HW1 2320   0.962   3.390   2.287
  772SOL    HW2 2321   1.004   3.338   2.437
  773SOL     OW 2322   0.351   3.663   2.715
  773SOL    HW1 2323   0.401   3.577   2.721
  773SOL    HW2 2324   0.416   3.740   2.712
  774SOL     OW 2325   1.795   2.928   2.735
  774SOL    HW1 2326   1.733   2.913   2.659
  774SOL    HW2 2327   1.743   2.939   2.820
  775SOL     OW 2328   1.227   3.412   3.368
  775SOL    HW1 2329   1.233   3.335   3.432
  775SOL    HW2 2330   1.175   3.386   3.288
  776SOL     OW 2331   0.321   2.805   2.104
  776SOL    HW1 2332   0.403   2.844   2.062
  776SOL    HW2 2333   0.294   2.723   2.055
  777SOL     OW 2334   1.458   2.597   2.590
  777SOL    HW1 2335   1.453   2.532   2.665
  777SOL    HW2 2336   1.538   2.656   2.603
  778SOL     OW 2337   0.461   3.128   3.589
  778SOL    HW1 2338   0.411   3.129   3.503
  778SOL    HW2 2339   0.398   3.110   3.665
  779SOL     OW 2340   1.111   3.638   2.099
  779SOL    HW1 2341   1.051   3.576   2.149
  779SOL    HW2 2342   1.142   3.594   2.014
  780SOL     OW 2343   0.202   2.147   3.360
  780SOL    HW1 2344   0.122   2.207   3.347
  780SOL    HW2 2345   0.192   2.098   3.446
  781SOL     OW 2346   1.632   3.239   1.943
  781SOL    HW1 2347   1.600   3.333   1.933
  781SOL    HW2 2348   1.556   3.176   1.931
  782SOL     OW 2349   0.464   3.605   2.185
  782SOL    HW1 2350   0.497   3.644   2.271
  782SOL    HW2 2351   0.540   3.598   2.120
  783SOL     OW 2352   1.400   1.969   2.288
  783SOL    HW1 2353   1.376   1.932   2.198
  783SOL    HW2 2354   1.499   1.985   2.292
  784SOL     OW 2355   0.249   3.647   3.103
  784SOL    HW1 2356   0.306   3.582   3.153
  784SOL    HW2 2357   0.233   3.614   3.010
  785SOL     OW 2358   0.940   3.560   2.766
  785SOL    HW1 2359   1.020   3.503   2.787
  785SOL    HW2 2360   0.891   3.520   2.689
  786SOL     OW 2361   0.382   2.562   2.342
  786SOL    HW1 2362   0.427   2.472   2.339
  786SOL    HW2 2363   0.288   2.551   2.375
  787SOL     OW 2364   1.547   2.084   3.591
  787SOL    HW1 2365   1.542   2.121   3.683
  787SOL    HW2 2366   1.475   2.015   3.579
  788SOL     OW 2367   0.614   1.984   1.979
  788SOL    HW1 2368   0.712   1.962   1.986
  788SOL    HW2 2369   0.583   1.967   1.886
  789SOL     OW 2370   0.781   2.126   3.611
  789SOL    HW1 2371   0.848   2.065   3.654
  789SOL    HW2 2372   0.708   2.145   3.676
  790SOL     OW 2373   0.888   3.376   3.057
  790SOL    HW1 2374   0.865   3.351   2.963
  790SOL    HW2 2375   0.949   3.307   3.096
  791SOL     OW 2376   1.351   2.452   3.295
  791SOL    HW1 2377   1.379   2.409   3.380
  791SOL    HW2 2378   1.376   2.548   3.296
  792SOL     OW 2379   0.803   3.264   2.786
  792SOL    HW1 2380   0.893   3.278   2.744
  792SOL    HW2 2381   0.732   3.266   2.715
  793SOL     OW 2382   0.922   2.365   2.761
  793SOL    HW1 2383   0.897   2.356   2.665
  793SOL    HW2 2384   0.970   2.283   2.792
  794SOL     OW 2385   0.539   1.926   2.374
  794SOL    HW1 2386   0.458   1.927   2.432
  794SOL    HW2 2387   0.542   2.009   2.319
  795SOL     OW 2388   1.434   3.050   1.903
  795SOL    HW1 2389   1.466   2.974   1.960
  795SOL    HW2 2390   1.342   3.077   1.933
  796SOL     OW 2391   0.297   1.897   2.033
  796SOL    HW1 2392   0.346   1.981   2.012
  796SOL    HW2 2393   0.359   1.832   2.078
  797SOL     OW 2394   0.935   2.098   2.342
  797SOL    HW1 2395   0.887   2.139   2.264
  797SOL    HW2 2396   1.034   2.096   2.323
  798SOL     OW 2397   1.076   2.545   3.326
  798SOL    HW1 2398   0.996   2.484   3.329
  798SOL    HW2 2399   1.157   2.492   3.302
  799SOL     OW 2400   1.227   3.432   2.655
  799SOL    HW1 2401   1.248   3.506   2.590
  799SOL    HW2 2402   1.295   3.432   2.728
  800SOL     OW 2403   0.459   3.014   2.603
  800SOL    HW1 2404   0.388   2.987   2.668
  800SOL    HW2 2405   0.433   2.986   2.510
  801SOL     OW 2406   1.271   3.659   2.453
  801SOL    HW1 2407   1.315   3.723   2.389
  801SOL    HW2 2408   1.221   3.711   2.523
  802SOL     OW 2409   1.032   2.411   1.878
  802SOL    HW1 2410   0.991   2.493   1.839
  802SOL    HW2 2411   1.096   2.437   1.951
  803SOL     OW 2412   0.078   2.418   3.248
  803SOL    HW1 2413   0.170   2.417   3.207
  803SOL    HW2 2414   0.072   2.492   3.315
  804SOL     OW 2415   0.561   2.084   3.009
  804SOL    HW1 2416   0.599   2.000   3.046
  804SOL    HW2 2417   0.473   2.103   3.053
  805SOL     OW 2418   0.866   2.316   2.504
  805SOL    HW1 2419   0.834   2.388   2.442
  805SOL    HW2 2420   0.890   2.235   2.451
  806SOL     OW 2421   1.017   1.901   2.615
  806SOL    HW1 2422   0.945   1.906   2.546
  806SOL    HW2 2423   0.993   1.832   2.684
  807SOL     OW 2424   1.429   3.035   2.729
  807SOL    HW1 2425   1.374   2.951   2.722
  807SOL    HW2 2426   1.455   3.064   2.637
  808SOL     OW 2427   1.466   2.452   2.854
  808SOL    HW1 2428   1.436   2.357   2.861
  808SOL    HW2 2429   1.539   2.468   2.920
  809SOL     OW 2430   1.857   2.695   2.239
  809SOL    HW1 2431   1.899   2.631   2.303
  809SOL    HW2 2432   1.819   2.644   2.161
  810SOL     OW 2433   0.488   3.247   2.036
  810SOL    HW1 2434   0.401   3.232   2.083
  810SOL    HW2 2435   0.471   3.273   1.941
  811SOL     OW 2436   1.664   3.142   2.519
  811SOL    HW1 2437   1.763   3.150   2.533
  811SOL    HW2 2438   1.619   3.226   2.550
  812SOL     OW 2439   1.390   2.437   1.940
  812SOL    HW1 2440   1.336   2.416   2.021
  812SOL    HW2 2441   1.481   2.396   1.949
  813SOL     OW 2442   0.527   2.118   2.190
  813SOL    HW1 2443   0.554   2.059   2.115
  813SOL    HW2 2444   0.527   2.213   2.159
  814SOL     OW 2445   1.754   3.085   3.450
  814SOL    HW1 2446   1.845   3.046   3.437
  814SOL    HW2 2447   1.762   3.181   3.474
  815SOL     OW 2448   1.064   3.209   3.202
  815SOL    HW1 2449   0.984   3.186   3.257
  815SOL    HW2 2450   1.147   3.183   3.251
  816SOL     OW 2451   1.592   3.491   3.487
  816SOL    HW1 2452   1.619   3.525   3.397
  816SOL    HW2 2453   1.671   3.453   3.533
  817SOL     OW 2454   1.111   3.057   2.962
  817SOL    HW1 2455   1.071   3.101   3.043
  817SOL    HW2 2456   1.070   3.094   2.879
  818SOL     OW 2457   1.638   2.961   2.941
  818SOL    HW1 2458   1.643   3.042   3.000
  818SOL    HW2 2459   1.552   2.963   2.890
  819SOL     OW 2460   0.915   1.951   3.264
  819SOL    HW1 2461   0.940   1.931   3.169
  819SOL    HW2 2462   0.987   2.007   3.306
  820SOL     OW 2463   0.980   2.978   3.581
  820SOL    HW1 2464   0.881   2.984   3.591
  820SOL    HW2 2465   1.003   2.898   3.525
  821SOL     OW 2466   0.705   2.912   2.230
  821SOL    HW1 2467   0.691   2.919   2.329
  821SOL    HW2 2468   0.789   2.861   2.212
  822SOL     OW 2469   0.410   2.675   3.113
  822SOL    HW1 2470   0.496   2.687   3.163
  822SOL    HW2 2471   0.368   2.588   3.140
  823SOL     OW 2472   1.274   2.248   3.124
  823SOL    HW1 2473   1.295   2.322   3.188
  823SOL    HW2 2474   1.185   2.265   3.081
  824SOL     OW 2475   0.064   3.426   3.193
  824SOL    HW1 2476   0.018   3.508   3.159
  824SOL    HW2 2477   0.162   3.445   3.202
  825SOL     OW 2478   0.367   2.962   2.363
  825SOL    HW1 2479   0.360   3.045   2.307
  825SOL    HW2 2480   0.371   2.882   2.303
  826SOL     OW 2481   0.566   2.399   2.727
  826SOL    HW1 2482   0.578   2.465   2.653
  826SOL    HW2 2483   0.612   2.433   2.810
  827SOL     OW 2484   1.252   3.210   2.250
  827SOL    HW1 2485   1.302   3.287   2.290
  827SOL    HW2 2486   1.157   3.212   2.282
  828SOL     OW 2487   1.272   3.307   3.004
  828SOL    HW1 2488   1.319   3.320   3.091
  828SOL    HW2 2489   1.206   3.233   3.013
  829SOL     OW 2490   1.582   2.501   2.334
  829SOL    HW1 2491   1.551   2.562   2.407
  829SOL    HW2 2492   1.632   2.553   2.265
  830SOL     OW 2493   0.354   3.372   3.191
  830SOL    HW1 2494   0.333   3.328   3.104
  830SOL    HW2 2495   0.451   3.398   3.194
  831SOL     OW 2496   0.402   2.613   3.460
  831SOL    HW1 2497   0.470   2.668   3.413
  831SOL    HW2 2498   0.442   2.525   3.487
  832SOL     OW 2499   1.587   2.641   3.532
  832SOL    HW1 2500   1.495   2.679   3.527
  832SOL    HW2 2501   1.647   2.688   3.467
  833SOL     OW 2502   1.013   1.967   3.632
  833SOL    HW1 2503   1.019   2.052   3.580
  833SOL    HW2 2504   1.045   1.891   3.575
  834SOL     OW 2505   0.504   1.912   3.602
  834SOL    HW1 2506   0.462   1.855   3.532
  834SOL    HW2 2507   0.438   1.981   3.634
  835SOL     OW 2508   0.573   2.732   2.891
  835SOL    HW1 2509   0.617   2.821   2.882
  835SOL    HW2 2510   0.510   2.732   2.968
  836SOL     OW 2511   1.360   2.724   2.907
  836SOL    HW1 2512   1.285   2.724   2.841
  836SOL    HW2 2513   1.397   2.632   2.916
  837SOL     OW 2514   1.209   2.387   2.137
  837SOL    HW1 2515   1.222   2.303   2.191
  837SOL    HW2 2516   1.180   2.461   2.197
  838SOL     OW 2517   0.307   2.075   3.093
  838SOL    HW1 2518   0.284   2.112   3.183
  838SOL    HW2 2519   0.277   1.980   3.087
  839SOL     OW 2520   0.037   3.172   3.144
  839SOL    HW1 2521   0.090   3.123   3.212
  839SOL    HW2 2522   0.059   3.270   3.149
  840SOL     OW 2523   0.732   2.496   2.926
  840SOL    HW1 2524   0.791   2.470   2.850
  840SOL    HW2 2525   0.704   2.592   2.915
  841SOL     OW 2526   1.728   2.797   3.716
  841SOL    HW1 2527   1.682   2.790   3.627
  841SOL    HW2 2528   1.666   2.841   3.782
  842SOL     OW 2529   0.307   1.925   2.480
  842SOL    HW1 2530   0.296   2.019   2.513
  842SOL    HW2 2531   0.302   1.862   2.557
  843SOL     OW 2532   1.622   2.229   2.236
  843SOL    HW1 2533   1.624   2.153   2.300
  843SOL    HW2 2534   1.574   2.306   2.276
  844SOL     OW 2535   1.023   2.628   2.828
  844SOL    HW1 2536   1.038   2.649   2.924
  844SOL    HW2 2537   0.993   2.533   2.819
  845SOL     OW 2538   0.980   3.435   3.562
  845SOL    HW1 2539   0.960   3.479   3.474
  845SOL    HW2 2540   1.019   3.344   3.546
  846SOL     OW 2541   1.859   3.380   3.467
  846SOL    HW1 2542   1.873   3.407   3.372
  846SOL    HW2 2543   1.942   3.402   3.520
  847SOL     OW 2544   0.350   2.760   3.666
  847SOL    HW1 2545   0.426   2.804   3.714
  847SOL    HW2 2546   0.385   2.713   3.584
  848SOL     OW 2547   1.540   2.136   1.987
  848SOL    HW1 2548   1.479   2.061   2.010
  848SOL    HW2 2549   1.562   2.188   2.070
  849SOL     OW 2550   1.303   2.700   1.904
  849SOL    HW1 2551   1.337   2.607   1.919
  849SOL    HW2 2552   1.321   2.727   1.809
  850SOL     OW 2553   1.068   3.195   2.711
  850SOL    HW1 2554   1.075   3.111   2.656
  850SOL    HW2 2555   1.130   3.264   2.675
  851SOL     OW 2556   0.319   2.672   2.811
  851SOL    HW1 2557   0.412   2.708   2.816
  851SOL    HW2 2558   0.313   2.587   2.863
  852SOL     OW 2559   0.339   2.371   2.868
  852SOL    HW1 2560   0.287   2.288   2.851
  852SOL    HW2 2561   0.416   2.376   2.804
  853SOL     OW 2562   1.138   2.242   3.540
  853SOL    HW1 2563   1.093   2.305   3.604
  853SOL    HW2 2564   1.231   2.273   3.523
  854SOL     OW 2565   1.160   2.069   3.339
  854SOL    HW1 2566   1.160   2.133   3.416
  854SOL    HW2 2567   1.188   2.117   3.256
  855SOL     OW 2568   0.008   3.188   2.062
  855SOL    HW1 2569  -0.085   3.209   2.031
  855SOL    HW2 2570   0.018   3.089   2.075
  856SOL     OW 2571   0.088   3.663   2.789
  856SOL    HW1 2572   0.046   3.577   2.762
  856SOL    HW2 2573   0.182   3.666   2.755
  857SOL     OW 2574   0.504   3.430   2.772
  857SOL    HW1 2575   0.570   3.504   2.781
  857SOL    HW2 2576   0.548   3.351   2.730
  858SOL     OW 2577   1.002   2.658   3.100
  858SOL    HW1 2578   1.043   2.626   3.186
  858SOL    HW2 2579   0.906   2.631   3.097
  859SOL     OW 2580   0.040   2.406   2.976
  859SOL    HW1 2581   0.125   2.373   2.935
  859SOL    HW2 2582   0.053   2.421   3.074
  860SOL     OW 2583   0.189   2.382   3.584
  860SOL    HW1 2584   0.248   2.342   3.514
  860SOL    HW2 2585   0.131   2.453   3.543
  861SOL     OW 2586   1.369   2.812   3.522
  861SOL    HW1 2587   1.408   2.901   3.542
  861SOL    HW2 2588   1.379   2.792   3.425
  862SOL     OW 2589   0.815   2.434   2.187
  862SOL    HW1 2590   0.822   2.345   2.141
  862SOL    HW2 2591   0.721   2.468   2.179
  863SOL     OW 2592   1.657   2.466   3.068
  863SOL    HW1 2593   1.619   2.397   3.130
  863SOL    HW2 2594   1.739   2.430   3.024
  864SOL     OW 2595   0.252   3.426   3.606
  864SOL    HW1 2596   0.222   3.483   3.682
  864SOL    HW2 2597   0.245   3.329   3.632
  865SOL     OW 2598   0.671   2.326   3.131
  865SOL    HW1 2599   0.637   2.237   3.101
  865SOL    HW2 2600   0.697   2.380   3.051
  866SOL     OW 2601   0.930   3.540   3.327
  866SOL    HW1 2602   0.906   3.522   3.232
  866SOL    HW2 2603   0.960   3.634   3.337
  867SOL     OW 2604   0.473   2.362   2.053
  867SOL    HW1 2605   0.534   2.442   2.057
  867SOL    HW2 2606   0.378   2.393   2.060
  868SOL     OW 2607   0.159   2.999   3.328
  868SOL    HW1 2608   0.181   2.938   3.404
  868SOL    HW2 2609   0.169   2.950   3.242
  869SOL     OW 2610   1.347   2.921   3.096
  869SOL    HW1 2611   1.371   2.858   3.022
  869SOL    HW2 2612   1.257   2.961   3.078
  870SOL     OW 2613   1.302   2.717   2.171
  870SOL    HW1 2614   1.216   2.686   2.213
  870SOL    HW2 2615   1.298   2.703   2.072
  871SOL     OW 2616   1.759   3.609   3.016
  871SOL    HW1 2617   1.820   3.639   2.943
  871SOL    HW2 2618   1.721   3.520   2.994
  872SOL     OW 2619   1.252   3.593   2.990
  872SOL    HW1 2620   1.336   3.598   2.936
  872SOL    HW2 2621   1.229   3.497   3.008
  873SOL     OW 2622   0.083   3.120   2.884
  873SOL    HW1 2623   0.078   3.119   2.984
  873SOL    HW2 2624   0.000   3.079   2.846
  874SOL     OW 2625   0.688   3.524   3.578
  874SOL    HW1 2626   0.632   3.605   3.587
  874SOL    HW2 2627   0.740   3.528   3.492
  875SOL     OW 2628   1.726   1.997   2.385
  875SOL    HW1 2629   1.799   1.980   2.318
  875SOL    HW2 2630   1.695   1.910   2.423
  876SOL     OW 2631   1.388   3.435   2.339
  876SOL    HW1 2632   1.455   3.447   2.265
  876SOL    HW2 2633   1.348   3.524   2.362
  877SOL     OW 2634   0.130   3.656   3.713
  877SOL    HW1 2635   0.089   3.582   3.766
  877SOL    HW2 2636   0.194   3.707   3.771
  878SOL     OW 2637   1.280   2.789   2.534
  878SOL    HW1 2638   1.340   2.708   2.536
  878SOL    HW2 2639   1.320   2.858   2.474
  879SOL     OW 2640   0.830   3.135   3.284
  879SOL    HW1 2641   0.825   3.168   3.379
  879SOL    HW2 2642   0.744   3.154   3.238
  880SOL     OW 2643   0.672   3.478   2.016
  880SOL    HW1 2644   0.681   3.488   1.917
  880SOL    HW2 2645   0.632   3.389   2.037
  881SOL     OW 2646   1.650   3.582   3.256
  881SOL    HW1 2647   1.703   3.592   3.172
  881SOL    HW2 2648   1.623   3.672   3.290
  882SOL     OW 2649   1.841   2.037   2.825
  882SOL    HW1 2650   1.880   1.952   2.789
  882SOL    HW2 2651   1.743   2.039   2.806
  883SOL     OW 2652   0.263   2.188   2.582
  883SOL    HW1 2653   0.184   2.239   2.548
  883SOL    HW2 2654   0.254   2.173   2.680
  884SOL     OW 2655   1.194   3.474   1.893
  884SOL    HW1 2656   1.200   3.381   1.930
  884SOL    HW2 2657   1.135   3.474   1.813
  885SOL     OW 2658   0.822   2.864   3.234
  885SOL    HW1 2659   0.862   2.863   3.142
  885SOL    HW2 2660   0.832   2.956   3.274
  886SOL     OW 2661   0.916   2.772   2.153
  886SOL    HW1 2662   0.979   2.810   2.085
  886SOL    HW2 2663   0.956   2.689   2.192
  887SOL     OW 2664   1.504   3.469   1.906
  887SOL    HW1 2665   1.412   3.506   1.913
  887SOL    HW2 2666   1.542   3.489   1.816
  888SOL     OW 2667   0.372   3.150   3.352
  888SOL    HW1 2668   0.359   3.243   3.318
  888SOL    HW2 2669   0.288   3.098   3.339
  889SOL     OW 2670   1.614   3.154   3.151
  889SOL    HW1 2671   1.674   3.157   3.231
  889SOL    HW2 2672   1.539   3.218   3.164
  890SOL     OW 2673   1.039   2.960   2.558
  890SOL    HW1 2674   0.969   2.913   2.612
  890SOL    HW2 2675   1.098   2.892   2.515
  891SOL     OW 2676   1.014   2.098   2.833
  891SOL    HW1 2677   1.006   2.062   2.740
  891SOL    HW2 2678   1.012   2.022   2.898
  892SOL     OW 2679   0.590   3.349   2.353
  892SOL    HW1 2680   0.632   3.291   2.283
  892SOL    HW2 2681   0.546   3.428   2.309
  893SOL     OW 2682   1.709   2.247   3.243
  893SOL    HW1 2683   1.782   2.316   3.247
  893SOL    HW2 2684   1.737   2.172   3.184
  894SOL     OW 2685   0.255   3.210   2.152
  894SOL    HW1 2686   0.159   3.211   2.125
  894SOL    HW2 2687   0.267   3.263   2.236
  895SOL     OW 2688   0.105   2.875   3.588
  895SOL    HW1 2689   0.028   2.842   3.642
  895SOL    HW2 2690   0.190   2.845   3.630
  896SOL     OW 2691   0.672   2.065   3.351
  896SOL    HW1 2692   0.762   2.049   3.311
  896SOL    HW2 2693   0.680   2.070   3.450
  897SOL     OW 2694   0.075   2.207   1.895
  897SOL    HW1 2695  -0.017   2.179   1.866
  897SOL    HW2 2696   0.106   2.284   1.839
  898SOL     OW 2697   1.440   2.718   3.260
  898SOL    HW1 2698   1.383   2.770   3.197
  898SOL    HW2 2699   1.536   2.730   3.236
  899SOL     OW 2700   0.072   2.028   2.180
  899SOL    HW1 2701   0.055   2.111   2.126
  899SOL    HW2 2702   0.162   1.991   2.158
  900SOL     OW 2703   1.183   3.197   1.981
  900SOL    HW1 2704   1.084   3.186   1.983
  900SOL    HW2 2705   1.217   3.212   2.074
  901SOL     OW 2706   0.613   2.704   3.293
  901SOL    HW1 2707   0.669   2.785   3.276
  901SOL    HW2 2708   0.672   2.624   3.296
  902SOL     OW 2709   1.493   3.629   2.821
  902SOL    HW1 2710   1.526   3.693   2.752
  902SOL    HW2 2711   1.559   3.623   2.896
  903SOL     OW 2712   0.716   2.427   3.570
  903SOL    HW1 2713   0.735   2.492   3.644
  903SOL    HW2 2714   0.776   2.347   3.579
  904SOL     OW 2715   1.450   3.082   3.495
  904SOL    HW1 2716   1.441   3.072   3.594
  904SOL    HW2 2717   1.546   3.075   3.469
  905SOL     OW 2718   0.390   3.603   3.422
  905SOL    HW1 2719   0.299   3.644   3.420
  905SOL    HW2 2720   0.383   3.509   3.454
  906SOL     OW 2721   1.674   2.745   3.116
  906SOL    HW1 2722   1.647   2.656   3.079
  906SOL    HW2 2723   1.675   2.813   3.043
  907SOL     OW 2724   1.225   2.187   2.311
  907SOL    HW1 2725   1.290   2.113   2.300
  907SOL    HW2 2726   1.245   2.237   2.395
  908SOL     OW 2727   0.594   2.607   2.514
  908SOL    HW1 2728   0.644   2.692   2.495
  908SOL    HW2 2729   0.506   2.609   2.466
  909SOL     OW 2730   1.777   2.204   3.504
  909SOL    HW1 2731   1.760   2.235   3.410
  909SOL    HW2 2732   1.693   2.167   3.542
  910SOL     OW 2733   1.730   2.796   3.379
  910SOL    HW1 2734   1.768   2.887   3.394
  910SOL    HW2 2735   1.722   2.779   3.280
  911SOL     OW 2736   0.859   3.236   1.878
  911SOL    HW1 2737   0.813   3.251   1.966
  911SOL    HW2 2738   0.903   3.321   1.848
  912SOL     OW 2739   0.661   3.652   2.815
  912SOL    HW1 2740   0.615   3.740   2.802
  912SOL    HW2 2741   0.760   3.664   2.808
  913SOL     OW 2742   0.859   2.818   2.723
  913SOL    HW1 2743   0.913   2.749   2.771
  913SOL    HW2 2744   0.827   2.887   2.789
  914SOL     OW 2745   1.083   2.846   1.949
  914SOL    HW1 2746   1.060   2.899   1.867
  914SOL    HW2 2747   1.164   2.790   1.930
  915SOL     OW 2748   1.861   3.431   2.713
  915SOL    HW1 2749   1.790   3.419   2.643
  915SOL    HW2 2750   1.862   3.352   2.773
  916SOL     OW 2751   0.221   3.176   3.706
  916SOL    HW1 2752   0.156   3.103   3.685
  916SOL    HW2 2753   0.225   3.190   3.804
  917SOL     OW 2754   0.079   3.102   2.515
  917SOL    HW1 2755   0.078   3.055   2.603
  917SOL    HW2 2756   0.161   3.074   2.464
  918SOL     OW 2757   0.672   3.253   3.486
  918SOL    HW1 2758   0.594   3.203   3.524
  918SOL    HW2 2759   0.669   3.348   3.517
  919SOL     OW 2760   1.824   2.054   3.089
  919SOL    HW1 2761   1.820   1.964   3.133
  919SOL    HW2 2762   1.827   2.043   2.990
  920SOL     OW 2763   0.428   2.286   2.382
  920SOL    HW1 2764   0.458   2.214   2.320
  920SOL    HW2 2765   0.389   2.246   2.465
  921SOL     OW 2766   1.705   3.349   2.966
  921SOL    HW1 2767   1.612   3.324   2.939
  921SOL    HW2 2768   1.731   3.299   3.048
  922SOL     OW 2769   0.317   2.409   3.142
  922SOL    HW1 2770   0.355   2.350   3.214
  922SOL    HW2 2771   0.357   2.383   3.054
  923SOL     OW 2772   0.812   3.448   2.549
  923SOL    HW1 2773   0.844   3.458   2.455
  923SOL    HW2 2774   0.733   3.386   2.551
  924SOL     OW 2775   1.424   2.076   2.974
  924SOL    HW1 2776   1.476   2.011   3.029
  924SOL    HW2 2777   1.375   2.139   3.035
  925SOL     OW 2778   1.001   1.896   3.016
  925SOL    HW1 2779   0.938   1.824   2.985
  925SOL    HW2 2780   1.094   1.860   3.016
  926SOL     OW 2781   0.770   3.192   2.163
  926SOL    HW1 2782   0.724   3.105   2.180
  926SOL    HW2 2783   0.861   3.189   2.204
  927SOL     OW 2784   0.618   3.429   3.146
  927SOL    HW1 2785   0.613   3.511   3.203
  927SOL    HW2 2786   0.707   3.426   3.101
  928SOL     OW 2787   1.352   1.914   2.030
  928SOL    HW1 2788   1.387   1.873   1.946
  928SOL    HW2 2789   1.262   1.876   2.050
  929SOL     OW 2790   1.300   2.315   2.553
  929SOL    HW1 2791   1.241   2.395   2.557
  929SOL    HW2 2792   1.315   2.280   2.646
  930SOL     OW 2793   1.593   2.083   2.744
  930SOL    HW1 2794   1.509   2.082   2.798
  930SOL    HW2 2795   1.595   2.166   2.688
  931SOL     OW 2796   0.039   2.939   2.162
  931SOL    HW1 2797   0.138   2.928   2.153
  931SOL    HW2 2798  -0.001   2.853   2.194
  932SOL     OW 2799   0.875   3.508   2.199
  932SOL    HW1 2800   0.798   3.473   2.145
  932SOL    HW2 2801   0.843   3.579   2.261
  933SOL     OW 2802   0.230   2.490   3.837
  933SOL    HW1 2803   0.137   2.488   3.874
  933SOL    HW2 2804   0.231   2.451   3.745
  934SOL     OW 2805   1.755   2.469   3.955
  934SOL    HW1 2806   1.743   2.456   3.856
  934SOL    HW2 2807   1.725   2.388   4.004
  935SOL     OW 2808   1.603   2.309   4.461
  935SOL    HW1 2809   1.529   2.355   4.411
  935SOL    HW2 2810   1.654   2.377   4.514
  936SOL     OW 2811   0.231   3.575   4.207
  936SOL    HW1 2812   0.265   3.652   4.261
  936SOL    HW2 2813   0.275   3.575   4.117
  937SOL     OW 2814   0.230   3.296   4.262
  937SOL    HW1 2815   0.204   3.392   4.262
  937SOL    HW2 2816   0.159   3.242   4.307
  938SOL     OW 2817   0.606   2.826   3.847
  938SOL    HW1 2818   0.613   2.910   3.793
  938SOL    HW2 2819   0.652   2.839   3.935
  939SOL     OW 2820   0.122   2.505   4.287
  939SOL    HW1 2821   0.077   2.417   4.304
  939SOL    HW2 2822   0.121   2.559   4.371
  940SOL     OW 2823   1.842   3.629   4.083
  940SOL    HW1 2824   1.896   3.600   4.163
  940SOL    HW2 2825   1.872   3.719   4.054
  941SOL     OW 2826   0.027   3.458   3.841
  941SOL    HW1 2827   0.008   3.362   3.862
  941SOL    HW2 2828  -0.006   3.516   3.916
  942SOL     OW 2829   1.689   2.784   4.336
  942SOL    HW1 2830   1.784   2.755   4.344
  942SOL    HW2 2831   1.681   2.849   4.261
  943SOL     OW 2832   1.641   2.970   4.156
  943SOL    HW1 2833   1.727   2.972   4.104
  943SOL    HW2 2834   1.655   3.017   4.244
  944SOL     OW 2835   0.613   3.227   4.450
  944SOL    HW1 2836   0.564   3.140   4.459
  944SOL    HW2 2837   0.590   3.270   4.363
  945SOL     OW 2838   0.809   1.866   4.226
  945SOL    HW1 2839   0.849   1.957   4.217
  945SOL    HW2 2840   0.709   1.874   4.232
  946SOL     OW 2841   1.525   2.861   3.914
  946SOL    HW1 2842   1.462   2.785   3.927
  946SOL    HW2 2843   1.573   2.879   4.000
  947SOL     OW 2844   1.466   3.279   4.677
  947SOL    HW1 2845   1.407   3.285   4.757
  947SOL    HW2 2846   1.451   3.191   4.631
  948SOL     OW 2847   0.598   2.591   3.994
  948SOL    HW1 2848   0.622   2.660   3.926
  948SOL    HW2 2849   0.520   2.624   4.048
  949SOL     OW 2850   1.281   2.207   4.668
  949SOL    HW1 2851   1.195   2.157   4.655
  949SOL    HW2 2852   1.343   2.153   4.724
  950SOL     OW 2853   1.576   3.524   4.031
  950SOL    HW1 2854   1.665   3.570   4.034
  950SOL    HW2 2855   1.555   3.500   3.936
  951SOL     OW 2856   1.041   2.563   4.153
  951SOL    HW1 2857   1.067   2.559   4.249
  951SOL    HW2 2858   0.956   2.512   4.139
  952SOL     OW 2859   0.076   2.673   4.513
  952SOL    HW1 2860   0.175   2.661   4.522
  952SOL    HW2 2861   0.052   2.768   4.534
  953SOL     OW 2862   0.865   2.210   3.919
  953SOL    HW1 2863   0.924   2.273   3.870
  953SOL    HW2 2864   0.884   2.116   3.890
  954SOL     OW 2865   1.362   3.006   4.269
  954SOL    HW1 2866   1.445   2.977   4.221
  954SOL    HW2 2867   1.313   3.073   4.213
  955SOL     OW 2868   1.008   3.318   4.201
  955SOL    HW1 2869   0.962   3.390   4.149
  955SOL    HW2 2870   1.004   3.338   4.299
  956SOL     OW 2871   0.351   3.663   4.577
  956SOL    HW1 2872   0.401   3.577   4.583
  956SOL    HW2 2873   0.416   3.740   4.574
  957SOL     OW 2874   1.795   2.928   4.597
  957SOL    HW1 2875   1.733   2.913   4.521
  957SOL    HW2 2876   1.743   2.939   4.682
  958SOL     OW 2877   0.321   2.805   3.966
  958SOL    HW1 2878   0.403   2.844   3.924
  958SOL    HW2 2879   0.294   2.723   3.917
  959SOL     OW 2880   1.111   3.638   3.961
  959SOL    HW1 2881   1.051   3.576   4.011
  959SOL    HW2 2882   1.142   3.594   3.876
  960SOL     OW 2883   1.632   3.239   3.805
  960SOL    HW1 2884   1.600   3.333   3.795
  960SOL    HW2 2885   1.556   3.176   3.793
  961SOL     OW 2886   0.464   3.605   4.047
  961SOL    HW1 2887   0.497   3.644   4.133
  961SOL    HW2 2888   0.540   3.598   3.982
  962SOL     OW 2889   1.400   1.969   4.150
  962SOL    HW1 2890   1.376   1.932   4.060
  962SOL    HW2 2891   1.499   1.985   4.154
  963SOL     OW 2892   0.382   2.562   4.204
  963SOL    HW1 2893   0.427   2.472   4.201
  963SOL    HW2 2894   0.288   2.551   4.237
  964SOL     OW 2895   0.614   1.984   3.841
  964SOL    HW1 2896   0.712   1.962   3.848
  964SOL    HW2 2897   0.583   1.967   3.748
  965SOL     OW 2898   0.539   1.926   4.236
  965SOL    HW1 2899   0.458   1.927   4.294
  965SOL    HW2 2900   0.542   2.009   4.181
  966SOL     OW 2901   1.434   3.050   3.765
  966SOL    HW1 2902   1.466   2.974   3.822
  966SOL    HW2 2903   1.342   3.077   3.795
  967SOL     OW 2904   0.297   1.897   3.895
  967SOL    HW1 2905   0.346   1.981   3.874
  967SOL    HW2 2906   0.359   1.832   3.940
  968SOL     OW 2907   0.935   2.098   4.204
  968SOL    HW1 2908   0.887   2.139   4.126
  968SOL    HW2 2909   1.034   2.096   4.185
  969SOL     OW 2910   0.459   3.014   4.465
  969SOL    HW1 2911   0.388   2.987   4.530
  969SOL    HW2 2912   0.433   2.986   4.372
  970SOL     OW 2913   1.271   3.659   4.315
  970SOL    HW1 2914   1.315   3.723   4.251
  970SOL    HW2 2915   1.221   3.711   4.385
  971SOL     OW 2916   1.032   2.411   3.740
  971SOL    HW1 2917   0.991   2.493   3.701
  971SOL    HW2 2918   1.096   2.437   3.813
  972SOL     OW 2919   0.866   2.316   4.366
  972SOL    HW1 2920   0.834   2.388   4.304
  972SOL    HW2 2921   0.890   2.235   4.313
  973SOL     OW 2922   1.466   2.452   4.716
  973SOL    HW1 2923   1.436   2.357   4.723
  973SOL    HW2 2924   1.539   2.468   4.782
  974SOL     OW 2925   1.857   2.695   4.101
  974SOL    HW1 2926   1.899   2.631   4.165
  974SOL    HW2 2927   1.819   2.644   4.023
  975SOL     OW 2928   0.488   3.247   3.898
  975SOL    HW1 2929   0.401   3.232   3.945
  975SOL    HW2 2930   0.471   3.273   3.803
  976SOL     OW 2931   1.390   2.437   3.802
  976SOL    HW1 2932   1.336   2.416   3.883
  976SOL    HW2 2933   1.481   2.396   3.811
  977SOL     OW 2934   0.527   2.118   4.052
  977SOL    HW1 2935   0.554   2.059   3.977
  977SOL    HW2 2936   0.527   2.213   4.021
  978SOL     OW 2937   0.705   2.912   4.092
  978SOL    HW1 2938   0.691   2.919   4.191
  978SOL    HW2 2939   0.789   2.861   4.074
  979SOL     OW 2940   0.367   2.962   4.225
  979SOL    HW1 2941   0.360   3.045   4.169
  979SOL    HW2 2942   0.371   2.882   4.165
  980SOL     OW 2943   1.252   3.210   4.112
  980SOL    HW1 2944   1.302   3.287   4.152
  980SOL    HW2 2945   1.157   3.212   4.144
  981SOL     OW 2946   1.582   2.501   4.196
  981SOL    HW1 2947   1.551   2.562   4.269
  981SOL    HW2 2948   1.632   2.553   4.127
  982SOL     OW 2949   1.209   2.387   3.999
  982SOL    HW1 2950   1.222   2.303   4.053
  982SOL    HW2 2951   1.180   2.461   4.059
  983SOL     OW 2952   0.307   1.925   4.342
  983SOL    HW1 2953   0.296   2.019   4.375
  983SOL    HW2 2954   0.302   1.862   4.419
  984SOL     OW 2955   1.622   2.229   4.098
  984SOL    HW1 2956   1.624   2.153   4.162
  984SOL    HW2 2957   1.574   2.306   4.138
  985SOL     OW 2958   1.540   2.136   3.849
  985SOL    HW1 2959   1.479   2.061   3.872
  985SOL    HW2 2960   1.562   2.188   3.932
  986SOL     OW 2961   1.303   2.700   3.766
  986SOL    HW1 2962   1.337   2.607   3.781
  986SOL    HW2 2963   1.321   2.727   3.671
  987SOL     OW 2964   0.008   3.188   3.924
  987SOL    HW1 2965  -0.085   3.209   3.893
  987SOL    HW2 2966   0.018   3.089   3.937
  988SOL     OW 2967   0.815   2.434   4.049
  988SOL    HW1 2968   0.822   2.345   4.003
  988SOL    HW2 2969   0.721   2.468   4.041
  989SOL     OW 2970   0.473   2.362   3.915
  989SOL    HW1 2971   0.534   2.442   3.919
  989SOL    HW2 2972   0.378   2.393   3.922
  990SOL     OW 2973   1.302   2.717   4.033
  990SOL    HW1 2974   1.216   2.686   4.075
  990SOL    HW2 2975   1.298   2.703   3.934
  991SOL     OW 2976   1.726   1.997   4.247
  991SOL    HW1 2977   1.799   1.980   4.180
  991SOL    HW2 2978   1.695   1.910   4.285
  992SOL     OW 2979   1.388   3.435   4.201
  992SOL    HW1 2980   1.455   3.447   4.127
  992SOL    HW2 2981   1.348   3.524   4.224
  993SOL     OW 2982   0.672   3.478   3.878
  993SOL    HW1 2983   0.681   3.488   3.779
  993SOL    HW2 2984   0.632   3.389   3.899
  994SOL     OW 2985   1.841   2.037   4.687
  994SOL    HW1 2986   1.880   1.952   4.651
  994SOL    HW2 2987   1.743   2.039   4.668
  995SOL     OW 2988   1.194   3.474   3.755
  995SOL    HW1 2989   1.200   3.381   3.792
  995SOL    HW2 2990   1.135   3.474   3.675
  996SOL     OW 2991   0.916   2.772   4.015
  996SOL    HW1 2992   0.979   2.810   3.947
  996SOL    HW2 2993   0.956   2.689   4.054
  997SOL     OW 2994   1.504   3.469   3.768
  997SOL    HW1 2995   1.412   3.506   3.775
  997SOL    HW2 2996   1.542   3.489   3.678
  998SOL     OW 2997   0.590   3.349   4.215
  998SOL    HW1 2998   0.632   3.291   4.145
  998SOL    HW2 2999   0.546   3.428   4.171
  999SOL     OW 3000   0.255   3.210   4.014
  999SOL    HW1 3001   0.159   3.211   3.987
  999SOL    HW2 3002   0.267   3.263   4.098
 1000SOL     OW 3003   0.075   2.207   3.757
 1000SOL    HW1 3004  -0.017   2.179   3.728
 1000SOL    HW2 3005   0.106   2.284   3.701
 1001SOL     OW 3006   0.072   2.028   4.042
 1001SOL    HW1 3007   0.055   2.111   3.988
 1001SOL    HW2 3008   0.162   1.991   4.020
 1002SOL     OW 3009   1.183   3.197   3.843
 1002SOL    HW1 3010   1.084   3.186   3.845
 1002SOL    HW2 3011   1.217   3.212   3.936
 1003SOL     OW 3012   1.225   2.187   4.173
 1003SOL    HW1 3013   1.290   2.113   4.162
 1003SOL    HW2 3014   1.245   2.237   4.257
 1004SOL     OW 3015   0.594   2.607   4.376
 1004SOL    HW1 3016   0.644   2.692   4.357
 1004SOL    HW2 3017   0.506   2.609   4.328
 1005SOL     OW 3018   0.859   3.236   3.740
 1005SOL    HW1 3019   0.813   3.251   3.828
 1005SOL    HW2 3020   0.903   3.321   3.710
 1006SOL     OW 3021   1.083   2.846   3.811
 1006SOL    HW1 3022   1.060   2.899   3.729
 1006SOL    HW2 3023   1.164   2.790   3.792
 1007SOL     OW 3024   0.079   3.102   4.377
 1007SOL    HW1 3025   0.078   3.055   4.465
 1007SOL    HW2 3026   0.161   3.074   4.326
 1008SOL     OW 3027   0.428   2.286   4.244
 1008SOL    HW1 3028   0.458   2.214   4.182
 1008SOL    HW2 3029   0.389   2.246   4.327
 1009SOL     OW 3030   0.812   3.448   4.411
 1009SOL    HW1 3031   0.844   3.458   4.317
 1009SOL    HW2 3032   0.733   3.386   4.413
 1010SOL     OW 3033   0.770   3.192   4.025
 1010SOL    HW1 3034   0.724   3.105   4.042
 1010SOL    HW2 3035   0.861   3.189   4.066
 1011SOL     OW 3036   1.352   1.914   3.892
 1011SOL    HW1 3037   1.387   1.873   3.808
 1011SOL    HW2 3038   1.262   1.876   3.912
 1012SOL     OW 3039   1.300   2.315   4.415
 1012SOL    HW1 3040   1.241   2.395   4.419
 1012SOL    HW2 3041   1.315   2.280   4.508
 1013SOL     OW 3042   0.039   2.939   4.024
 1013SOL    HW1 3043   0.138   2.928   4.015
 1013SOL    HW2 3044  -0.001   2.853   4.056
 1014SOL     OW 3045   0.875   3.508   4.061
 1014SOL    HW1 3046   0.798   3.473   4.007
 1014SOL    HW2 3047   0.843   3.579   4.123
 1015SOL     OW 3048   0.225   3.999   0.996
 1015SOL    HW1 3049   0.260   3.982   1.088
 1015SOL    HW2 3050   0.137   3.954   0.984
 1016SOL     OW 3051   0.019   4.092   0.647
 1016SOL    HW1 3052  -0.063   4.135   0.686
 1016SOL    HW2 3053  -0.009   4.019   0.584
 1017SOL     OW 3054   1.755   4.331   0.231
 1017SOL    HW1 3055   1.743   4.318   0.132
 1017SOL    HW2 3056   1.725   4.250   0.280
 1018SOL     OW 3057   0.685   4.736   0.665
 1018SOL    HW1 3058   0.754   4.720   0.735
 1018SOL    HW2 3059   0.612   4.793   0.703
 1019SOL     OW 3060   0.438   4.116   1.499
 1019SOL    HW1 3061   0.520   4.060   1.508
 1019SOL    HW2 3062   0.357   4.058   1.503
 1020SOL     OW 3063   1.603   4.171   0.737
 1020SOL    HW1 3064   1.529   4.217   0.687
 1020SOL    HW2 3065   1.654   4.239   0.790
 1021SOL     OW 3066   1.594   3.838   1.480
 1021SOL    HW1 3067   1.576   3.905   1.408
 1021SOL    HW2 3068   1.591   3.884   1.569
 1022SOL     OW 3069   0.122   4.367   0.563
 1022SOL    HW1 3070   0.077   4.279   0.580
 1022SOL    HW2 3071   0.121   4.421   0.647
 1023SOL     OW 3072   0.113   4.461   1.597
 1023SOL    HW1 3073   0.201   4.448   1.642
 1023SOL    HW2 3074   0.100   4.558   1.575
 1024SOL     OW 3075   0.809   3.728   0.502
 1024SOL    HW1 3076   0.849   3.819   0.493
 1024SOL    HW2 3077   0.709   3.736   0.508
 1025SOL     OW 3078   0.317   3.975   1.801
 1025SOL    HW1 3079   0.388   4.046   1.807
 1025SOL    HW2 3080   0.229   4.014   1.829
 1026SOL     OW 3081   1.281   4.069   0.944
 1026SOL    HW1 3082   1.195   4.019   0.931
 1026SOL    HW2 3083   1.343   4.015   1.000
 1027SOL     OW 3084   0.807   4.329   1.465
 1027SOL    HW1 3085   0.760   4.326   1.554
 1027SOL    HW2 3086   0.756   4.274   1.399
 1028SOL     OW 3087   1.394   4.193   1.674
 1028SOL    HW1 3088   1.374   4.236   1.762
 1028SOL    HW2 3089   1.472   4.131   1.683
 1029SOL     OW 3090   0.991   4.134   1.242
 1029SOL    HW1 3091   0.914   4.168   1.296
 1029SOL    HW2 3092   0.957   4.083   1.163
 1030SOL     OW 3093   1.041   4.425   0.429
 1030SOL    HW1 3094   1.067   4.421   0.525
 1030SOL    HW2 3095   0.956   4.374   0.415
 1031SOL     OW 3096   0.076   4.535   0.789
 1031SOL    HW1 3097   0.175   4.523   0.798
 1031SOL    HW2 3098   0.052   4.630   0.810
 1032SOL     OW 3099   0.865   4.072   0.195
 1032SOL    HW1 3100   0.924   4.135   0.146
 1032SOL    HW2 3101   0.884   3.978   0.166
 1033SOL     OW 3102   1.719   4.309   1.831
 1033SOL    HW1 3103   1.693   4.398   1.795
 1033SOL    HW2 3104   1.717   4.241   1.758
 1034SOL     OW 3105   0.550   3.920   0.885
 1034SOL    HW1 3106   0.545   3.915   0.985
 1034SOL    HW2 3107   0.552   4.016   0.856
 1035SOL     OW 3108   1.458   4.459   0.728
 1035SOL    HW1 3109   1.453   4.394   0.803
 1035SOL    HW2 3110   1.538   4.518   0.741
 1036SOL     OW 3111   0.202   4.009   1.498
 1036SOL    HW1 3112   0.122   4.069   1.485
 1036SOL    HW2 3113   0.192   3.960   1.584
 1037SOL     OW 3114   1.400   3.831   0.426
 1037SOL    HW1 3115   1.376   3.794   0.336
 1037SOL    HW2 3116   1.499   3.847   0.430
 1038SOL     OW 3117   1.547   3.946   1.729
 1038SOL    HW1 3118   1.542   3.983   1.821
 1038SOL    HW2 3119   1.475   3.877   1.717
 1039SOL     OW 3120   0.614   3.846   0.117
 1039SOL    HW1 3121   0.712   3.824   0.124
 1039SOL    HW2 3122   0.583   3.829   0.024
 1040SOL     OW 3123   0.781   3.988   1.749
 1040SOL    HW1 3124   0.848   3.927   1.792
 1040SOL    HW2 3125   0.708   4.007   1.814
 1041SOL     OW 3126   1.351   4.314   1.433
 1041SOL    HW1 3127   1.379   4.271   1.518
 1041SOL    HW2 3128   1.376   4.410   1.434
 1042SOL     OW 3129   0.922   4.227   0.899
 1042SOL    HW1 3130   0.897   4.218   0.803
 1042SOL    HW2 3131   0.970   4.145   0.930
 1043SOL     OW 3132   0.539   3.788   0.512
 1043SOL    HW1 3133   0.458   3.789   0.570
 1043SOL    HW2 3134   0.542   3.871   0.457
 1044SOL     OW 3135   0.935   3.960   0.480
 1044SOL    HW1 3136   0.887   4.001   0.402
 1044SOL    HW2 3137   1.034   3.958   0.461
 1045SOL     OW 3138   1.076   4.407   1.464
 1045SOL    HW1 3139   0.996   4.346   1.467
 1045SOL    HW2 3140   1.157   4.354   1.440
 1046SOL     OW 3141   1.032   4.273   0.016
 1046SOL    HW1 3142   0.991   4.355  -0.023
 1046SOL    HW2 3143   1.096   4.299   0.089
 1047SOL     OW 3144   0.078   4.280   1.386
 1047SOL    HW1 3145   0.170   4.279   1.345
 1047SOL    HW2 3146   0.072   4.354   1.453
 1048SOL     OW 3147   0.561   3.946   1.147
 1048SOL    HW1 3148   0.599   3.862   1.184
 1048SOL    HW2 3149   0.473   3.965   1.191
 1049SOL     OW 3150   0.866   4.178   0.642
 1049SOL    HW1 3151   0.834   4.250   0.580
 1049SOL    HW2 3152   0.890   4.097   0.589
 1050SOL     OW 3153   1.017   3.763   0.753
 1050SOL    HW1 3154   0.945   3.768   0.684
 1050SOL    HW2 3155   0.993   3.694   0.822
 1051SOL     OW 3156   1.466   4.314   0.992
 1051SOL    HW1 3157   1.436   4.219   0.999
 1051SOL    HW2 3158   1.539   4.330   1.058
 1052SOL     OW 3159   1.390   4.299   0.078
 1052SOL    HW1 3160   1.336   4.278   0.159
 1052SOL    HW2 3161   1.481   4.258   0.087
 1053SOL     OW 3162   0.527   3.980   0.328
 1053SOL    HW1 3163   0.554   3.921   0.253
 1053SOL    HW2 3164   0.527   4.075   0.297
 1054SOL     OW 3165   0.915   3.813   1.402
 1054SOL    HW1 3166   0.940   3.793   1.307
 1054SOL    HW2 3167   0.987   3.869   1.444
 1055SOL     OW 3168   1.274   4.110   1.262
 1055SOL    HW1 3169   1.295   4.184   1.326
 1055SOL    HW2 3170   1.185   4.127   1.219
 1056SOL     OW 3171   0.566   4.261   0.865
 1056SOL    HW1 3172   0.578   4.327   0.791
 1056SOL    HW2 3173   0.612   4.295   0.948
 1057SOL     OW 3174   1.582   4.363   0.472
 1057SOL    HW1 3175   1.551   4.424   0.545
 1057SOL    HW2 3176   1.632   4.415   0.403
 1058SOL     OW 3177   1.013   3.829   1.770
 1058SOL    HW1 3178   1.019   3.914   1.718
 1058SOL    HW2 3179   1.045   3.753   1.713
 1059SOL     OW 3180   0.504   3.774   1.740
 1059SOL    HW1 3181   0.462   3.717   1.670
 1059SOL    HW2 3182   0.438   3.843   1.772
 1060SOL     OW 3183   1.209   4.249   0.275
 1060SOL    HW1 3184   1.222   4.165   0.329
 1060SOL    HW2 3185   1.180   4.323   0.335
 1061SOL     OW 3186   0.307   3.937   1.231
 1061SOL    HW1 3187   0.284   3.974   1.321
 1061SOL    HW2 3188   0.277   3.842   1.225
 1062SOL     OW 3189   0.732   4.358   1.064
 1062SOL    HW1 3190   0.791   4.332   0.988
 1062SOL    HW2 3191   0.704   4.454   1.053
 1063SOL     OW 3192   0.307   3.787   0.618
 1063SOL    HW1 3193   0.296   3.881   0.651
 1063SOL    HW2 3194   0.302   3.724   0.695
 1064SOL     OW 3195   1.622   4.091   0.374
 1064SOL    HW1 3196   1.624   4.015   0.438
 1064SOL    HW2 3197   1.574   4.168   0.414
 1065SOL     OW 3198   1.540   3.998   0.125
 1065SOL    HW1 3199   1.479   3.923   0.148
 1065SOL    HW2 3200   1.562   4.050   0.208
 1066SOL     OW 3201   0.319   4.534   0.949
 1066SOL    HW1 3202   0.412   4.570   0.954
 1066SOL    HW2 3203   0.313   4.449   1.001
 1067SOL     OW 3204   0.339   4.233   1.006
 1067SOL    HW1 3205   0.287   4.150   0.989
 1067SOL    HW2 3206   0.416   4.238   0.942
 1068SOL     OW 3207   1.138   4.104   1.678
 1068SOL    HW1 3208   1.093   4.167   1.742
 1068SOL    HW2 3209   1.231   4.135   1.661
 1069SOL     OW 3210   1.160   3.931   1.477
 1069SOL    HW1 3211   1.160   3.995   1.554
 1069SOL    HW2 3212   1.188   3.979   1.394
 1070SOL     OW 3213   0.040   4.268   1.114
 1070SOL    HW1 3214   0.125   4.235   1.073
 1070SOL    HW2 3215   0.053   4.283   1.212
 1071SOL     OW 3216   0.189   4.244   1.722
 1071SOL    HW1 3217   0.248   4.204   1.652
 1071SOL    HW2 3218   0.131   4.315   1.681
 1072SOL     OW 3219   0.815   4.296   0.325
 1072SOL    HW1 3220   0.822   4.207   0.279
 1072SOL    HW2 3221   0.721   4.330   0.317
 1073SOL     OW 3222   1.657   4.328   1.206
 1073SOL    HW1 3223   1.619   4.259   1.268
 1073SOL    HW2 3224   1.739   4.292   1.162
 1074SOL     OW 3225   0.671   4.188   1.269
 1074SOL    HW1 3226   0.637   4.099   1.239
 1074SOL    HW2 3227   0.697   4.242   1.189
 1075SOL     OW 3228   0.473   4.224   0.191
 1075SOL    HW1 3229   0.534   4.304   0.195
 1075SOL    HW2 3230   0.378   4.255   0.198
 1076SOL     OW 3231   0.903   3.810   0.133
 1076SOL    HW1 3232   0.954   3.811   0.047
 1076SOL    HW2 3233   0.959   3.768   0.204
 1077SOL     OW 3234   1.726   3.859   0.523
 1077SOL    HW1 3235   1.799   3.842   0.456
 1077SOL    HW2 3236   1.695   3.772   0.561
 1078SOL     OW 3237   1.280   4.651   0.672
 1078SOL    HW1 3238   1.340   4.570   0.674
 1078SOL    HW2 3239   1.320   4.720   0.612
 1079SOL     OW 3240   1.841   3.899   0.963
 1079SOL    HW1 3241   1.880   3.814   0.927
 1079SOL    HW2 3242   1.743   3.901   0.944
 1080SOL     OW 3243   0.263   4.050   0.720
 1080SOL    HW1 3244   0.184   4.101   0.686
 1080SOL    HW2 3245   0.254   4.035   0.818
 1081SOL     OW 3246   1.014   3.960   0.971
 1081SOL    HW1 3247   1.006   3.924   0.878
 1081SOL    HW2 3248   1.012   3.884   1.036
 1082SOL     OW 3249   1.709   4.109   1.381
 1082SOL    HW1 3250   1.782   4.178   1.385
 1082SOL    HW2 3251   1.737   4.034   1.322
 1083SOL     OW 3252   0.672   3.927   1.489
 1083SOL    HW1 3253   0.762   3.911   1.449
 1083SOL    HW2 3254   0.680   3.932   1.588
 1084SOL     OW 3255   0.075   4.069   0.033
 1084SOL    HW1 3256  -0.017   4.041   0.004
 1084SOL    HW2 3257   0.106   4.146  -0.023
 1085SOL     OW 3258   0.072   3.890   0.318
 1085SOL    HW1 3259   0.055   3.973   0.264
 1085SOL    HW2 3260   0.162   3.853   0.296
 1086SOL     OW 3261   0.716   4.289   1.708
 1086SOL    HW1 3262   0.735   4.354   1.782
 1086SOL    HW2 3263   0.776   4.209   1.717
 1087SOL     OW 3264   1.225   4.049   0.449
 1087SOL    HW1 3265   1.290   3.975   0.438
 1087SOL    HW2 3266   1.245   4.099   0.533
 1088SOL     OW 3267   1.777   4.066   1.642
 1088SOL    HW1 3268   1.760   4.097   1.548
 1088SOL    HW2 3269   1.693   4.029   1.680
 1089SOL     OW 3270   1.083   4.708   0.087
 1089SOL    HW1 3271   1.060   4.761   0.005
 1089SOL    HW2 3272   1.164   4.652   0.068
 1090SOL     OW 3273   1.824   3.916   1.227
 1090SOL    HW1 3274   1.820   3.826   1.271
 1090SOL    HW2 3275   1.827   3.905   1.128
 1091SOL     OW 3276   0.428   4.148   0.520
 1091SOL    HW1 3277   0.458   4.076   0.458
 1091SOL    HW2 3278   0.389   4.108   0.603
 1092SOL     OW 3279   0.317   4.271   1.280
 1092SOL    HW1 3280   0.355   4.212   1.352
 1092SOL    HW2 3281   0.357   4.245   1.192
 1093SOL     OW 3282   1.424   3.938   1.112
 1093SOL    HW1 3283   1.476   3.873   1.167
 1093SOL    HW2 3284   1.375   4.001   1.173
 1094SOL     OW 3285   1.001   3.758   1.154
 1094SOL    HW1 3286   0.938   3.686   1.123
 1094SOL    HW2 3287   1.094   3.722   1.154
 1095SOL     OW 3288   1.352   3.776   0.168
 1095SOL    HW1 3289   1.387   3.735   0.084
 1095SOL    HW2 3290   1.262   3.738   0.188
 1096SOL     OW 3291   1.300   4.177   0.691
 1096SOL    HW1 3292   1.241   4.257   0.695
 1096SOL    HW2 3293   1.315   4.142   0.784
 1097SOL     OW 3294   1.593   3.945   0.882
 1097SOL    HW1 3295   1.509   3.944   0.936
 1097SOL    HW2 3296   1.595   4.028   0.826
 1098SOL     OW 3297   0.225   3.999   2.858
 1098SOL    HW1 3298   0.260   3.982   2.950
 1098SOL    HW2 3299   0.137   3.954   2.846
 1099SOL     OW 3300   0.019   4.092   2.509
 1099SOL    HW1 3301  -0.063   4.135   2.548
 1099SOL    HW2 3302  -0.009   4.019   2.446
 1100SOL     OW 3303   1.755   4.331   2.093
 1100SOL    HW1 3304   1.743   4.318   1.994
 1100SOL    HW2 3305   1.725   4.250   2.142
 1101SOL     OW 3306   0.685   4.736   2.527
 1101SOL    HW1 3307   0.754   4.720   2.597
 1101SOL    HW2 3308   0.612   4.793   2.565
 1102SOL     OW 3309   0.438   4.116   3.361
 1102SOL    HW1 3310   0.520   4.060   3.370
 1102SOL    HW2 3311   0.357   4.058   3.365
 1103SOL     OW 3312   1.603   4.171   2.599
 1103SOL    HW1 3313   1.529   4.217   2.549
 1103SOL    HW2 3314   1.654   4.239   2.652
 1104SOL     OW 3315   1.594   3.838   3.342
 1104SOL    HW1 3316   1.576   3.905   3.270
 1104SOL    HW2 3317   1.591   3.884   3.431
 1105SOL     OW 3318   0.122   4.367   2.425
 1105SOL    HW1 3319   0.077   4.279   2.442
 1105SOL    HW2 3320   0.121   4.421   2.509
 1106SOL     OW 3321   0.113   4.461   3.459
 1106SOL    HW1 3322   0.201   4.448   3.504
 1106SOL    HW2 3323   0.100   4.558   3.437
 1107SOL     OW 3324   0.809   3.728   2.364
 1107SOL    HW1 3325   0.849   3.819   2.355
 1107SOL    HW2 3326   0.709   3.736   2.370
 1108SOL     OW 3327   0.317   3.975   3.663
 1108SOL    HW1 3328   0.388   4.046   3.669
 1108SOL    HW2 3329   0.229   4.014   3.691
 1109SOL     OW 3330   1.281   4.069   2.806
 1109SOL    HW1 3331   1.195   4.019   2.793
 1109SOL    HW2 3332   1.343   4.015   2.862
 1110SOL     OW 3333   0.807   4.329   3.327
 1110SOL    HW1 3334   0.760   4.326   3.416
 1110SOL    HW2 3335   0.756   4.274   3.261
 1111SOL     OW 3336   1.394   4.193   3.536
 1111SOL    HW1 3337   1.374   4.236   3.624
 1111SOL    HW2 3338   1.472   4.131   3.545
 1112SOL     OW 3339   0.991   4.134   3.104
 1112SOL    HW1 3340   0.914   4.168   3.158
 1112SOL    HW2 3341   0.957   4.083   3.025
 1113SOL     OW 3342   1.041   4.425   2.291
 1113SOL    HW1 3343   1.067   4.421   2.387
 1113SOL    HW2 3344   0.956   4.374   2.277
 1114SOL     OW 3345   0.076   4.535   2.651
 1114SOL    HW1 3346   0.175   4.523   2.660
 1114SOL    HW2 3347   0.052   4.630   2.672
 1115SOL     OW 3348   0.865   4.072   2.057
 1115SOL    HW1 3349   0.924   4.135   2.008
 1115SOL    HW2 3350   0.884   3.978   2.028
 1116SOL     OW 3351   1.719   4.309   3.693
 1116SOL    HW1 3352   1.693   4.398   3.657
 1116SOL    HW2 3353   1.717   4.241   3.620
 1117SOL     OW 3354   0.550   3.920   2.747
 1117SOL    HW1 3355   0.545   3.915   2.847
 1117SOL    HW2 3356   0.552   4.016   2.718
 1118SOL     OW 3357   1.458   4.459   2.590
 1118SOL    HW1 3358   1.453   4.394   2.665
 1118SOL    HW2 3359   1.538   4.518   2.603
 1119SOL     OW 3360   0.202   4.009   3.360
 1119SOL    HW1 3361   0.122   4.069   3.347
 1119SOL    HW2 3362   0.192   3.960   3.446
 1120SOL     OW 3363   1.400   3.831   2.288
 1120SOL    HW1 3364   1.376   3.794   2.198
 1120SOL    HW2 3365   1.499   3.847   2.292
 1121SOL     OW 3366   1.547   3.946   3.591
 1121SOL    HW1 3367   1.542   3.983   3.683
 1121SOL    HW2 3368   1.475   3.877   3.579
 1122SOL     OW 3369   0.614   3.846   1.979
 1122SOL    HW1 3370   0.712   3.824   1.986
 1122SOL    HW2 3371   0.583   3.829   1.886
 1123SOL     OW 3372   0.781   3.988   3.611
 1123SOL    HW1 3373   0.848   3.927   3.654
 1123SOL    HW2 3374   0.708   4.007   3.676
 1124SOL     OW 3375   1.351   4.314   3.295
 1124SOL    HW1 3376   1.379   4.271   3.380
 1124SOL    HW2 3377   1.376   4.410   3.296
 1125SOL     OW 3378   0.922   4.227   2.761
 1125SOL    HW1 3379   0.897   4.218   2.665
 1125SOL    HW2 3380   0.970   4.145   2.792
 1126SOL     OW 3381   0.539   3.788   2.374
 1126SOL    HW1 3382   0.458   3.789   2.432
 1126SOL    HW2 3383   0.542   3.871   2.319
 1127SOL     OW 3384   0.297   3.759   2.033
 1127SOL    HW1 3385   0.346   3.843   2.012
 1127SOL    HW2 3386   0.359   3.694   2.078
 1128SOL     OW 3387   0.935   3.960   2.342
 1128SOL    HW1 3388   0.887   4.001   2.264
 1128SOL    HW2 3389   1.034   3.958   2.323
 1129SOL     OW 3390   1.076   4.407   3.326
 1129SOL    HW1 3391   0.996   4.346   3.329
 1129SOL    HW2 3392   1.157   4.354   3.302
 1130SOL     OW 3393   1.032   4.273   1.878
 1130SOL    HW1 3394   0.991   4.355   1.839
 1130SOL    HW2 3395   1.096   4.299   1.951
 1131SOL     OW 3396   0.078   4.280   3.248
 1131SOL    HW1 3397   0.170   4.279   3.207
 1131SOL    HW2 3398   0.072   4.354   3.315
 1132SOL     OW 3399   0.561   3.946   3.009
 1132SOL    HW1 3400   0.599   3.862   3.046
 1132SOL    HW2 3401   0.473   3.965   3.053
 1133SOL     OW 3402   0.866   4.178   2.504
 1133SOL    HW1 3403   0.834   4.250   2.442
 1133SOL    HW2 3404   0.890   4.097   2.451
 1134SOL     OW 3405   1.017   3.763   2.615
 1134SOL    HW1 3406   0.945   3.768   2.546
 1134SOL    HW2 3407   0.993   3.694   2.684
 1135SOL     OW 3408   1.466   4.314   2.854
 1135SOL    HW1 3409   1.436   4.219   2.861
 1135SOL    HW2 3410   1.539   4.330   2.920
 1136SOL     OW 3411   1.390   4.299   1.940
 1136SOL    HW1 3412   1.336   4.278   2.021
 1136SOL    HW2 3413   1.481   4.258   1.949
 1137SOL     OW 3414   0.527   3.980   2.190
 1137SOL    HW1 3415   0.554   3.921   2.115
 1137SOL    HW2 3416   0.527   4.075   2.159
 1138SOL     OW 3417   0.915   3.813   3.264
 1138SOL    HW1 3418   0.940   3.793   3.169
 1138SOL    HW2 3419   0.987   3.869   3.306
 1139SOL     OW 3420   1.274   4.110   3.124
 1139SOL    HW1 3421   1.295   4.184   3.188
 1139SOL    HW2 3422   1.185   4.127   3.081
 1140SOL     OW 3423   0.566   4.261   2.727
 1140SOL    HW1 3424   0.578   4.327   2.653
 1140SOL    HW2 3425   0.612   4.295   2.810
 1141SOL     OW 3426   1.582   4.363   2.334
 1141SOL    HW1 3427   1.551   4.424   2.407
 1141SOL    HW2 3428   1.632   4.415   2.265
 1142SOL     OW 3429   1.013   3.829   3.632
 1142SOL    HW1 3430   1.019   3.914   3.580
 1142SOL    HW2 3431   1.045   3.753   3.575
 1143SOL     OW 3432   0.504   3.774   3.602
 1143SOL    HW1 3433   0.462   3.717   3.532
 1143SOL    HW2 3434   0.438   3.843   3.634
 1144SOL     OW 3435   1.209   4.249   2.137
 1144SOL    HW1 3436   1.222   4.165   2.191
 1144SOL    HW2 3437   1.180   4.323   2.197
 1145SOL     OW 3438   0.307   3.937   3.093
 1145SOL    HW1 3439   0.284   3.974   3.183
 1145SOL    HW2 3440   0.277   3.842   3.087
 1146SOL     OW 3441   0.732   4.358   2.926
 1146SOL    HW1 3442   0.791   4.332   2.850
 1146SOL    HW2 3443   0.704   4.454   2.915
 1147SOL     OW 3444   0.307   3.787   2.480
 1147SOL    HW1 3445   0.296   3.881   2.513
 1147SOL    HW2 3446   0.302   3.724   2.557
 1148SOL     OW 3447   1.622   4.091   2.236
 1148SOL    HW1 3448   1.624   4.015   2.300
 1148SOL    HW2 3449   1.574   4.168   2.276
 1149SOL     OW 3450   1.540   3.998   1.987
 1149SOL    HW1 3451   1.479   3.923   2.010
 1149SOL    HW2 3452   1.562   4.050   2.070
 1150SOL     OW 3453   0.319   4.534   2.811
 1150SOL    HW1 3454   0.412   4.570   2.816
 1150SOL    HW2 3455   0.313   4.449   2.863
 1151SOL     OW 3456   0.339   4.233   2.868
 1151SOL    HW1 3457   0.287   4.150   2.851
 1151SOL    HW2 3458   0.416   4.238   2.804
 1152SOL     OW 3459   1.138   4.104   3.540
 1152SOL    HW1 3460   1.093   4.167   3.604
 1152SOL    HW2 3461   1.231   4.135   3.523
 1153SOL     OW 3462   1.160   3.931   3.339
 1153SOL    HW1 3463   1.160   3.995   3.416
 1153SOL    HW2 3464   1.188   3.979   3.256
 1154SOL     OW 3465   0.040   4.268   2.976
 1154SOL    HW1 3466   0.125   4.235   2.935
 1154SOL    HW2 3467   0.053   4.283   3.074
 1155SOL     OW 3468   0.189   4.244   3.584
 1155SOL    HW1 3469   0.248   4.204   3.514
 1155SOL    HW2 3470   0.131   4.315   3.543
 1156SOL     OW 3471   0.815   4.296   2.187
 1156SOL    HW1 3472   0.822   4.207   2.141
 1156SOL    HW2 3473   0.721   4.330   2.179
 1157SOL     OW 3474   1.657   4.328   3.068
 1157SOL    HW1 3475   1.619   4.259   3.130
 1157SOL    HW2 3476   1.739   4.292   3.024
 1158SOL     OW 3477   0.671   4.188   3.131
 1158SOL    HW1 3478   0.637   4.099   3.101
 1158SOL    HW2 3479   0.697   4.242   3.051
 1159SOL     OW 3480   0.473   4.224   2.053
 1159SOL    HW1 3481   0.534   4.304   2.057
 1159SOL    HW2 3482   0.378   4.255   2.060
 1160SOL     OW 3483   1.726   3.859   2.385
 1160SOL    HW1 3484   1.799   3.842   2.318
 1160SOL    HW2 3485   1.695   3.772   2.423
 1161SOL     OW 3486   1.280   4.651   2.534
 1161SOL    HW1 3487   1.340   4.570   2.536
 1161SOL    HW2 3488   1.320   4.720   2.474
 1162SOL     OW 3489   1.841   3.899   2.825
 1162SOL    HW1 3490   1.880   3.814   2.789
 1162SOL    HW2 3491   1.743   3.901   2.806
 1163SOL     OW 3492   0.263   4.050   2.582
 1163SOL    HW1 3493   0.184   4.101   2.548
 1163SOL    HW2 3494   0.254   4.035   2.680
 1164SOL     OW 3495   1.014   3.960   2.833
 1164SOL    HW1 3496   1.006   3.924   2.740
 1164SOL    HW2 3497   1.012   3.884   2.898
 1165SOL     OW 3498   1.709   4.109   3.243
 1165SOL    HW1 3499   1.782   4.178   3.247
 1165SOL    HW2 3500   1.737   4.034   3.184
 1166SOL     OW 3501   0.672   3.927   3.351
 1166SOL    HW1 3502   0.762   3.911   3.311
 1166SOL    HW2 3503   0.680   3.932   3.450
 1167SOL     OW 3504   0.075   4.069   1.895
 1167SOL    HW1 3505  -0.017   4.041   1.866
 1167SOL    HW2 3506   0.106   4.146   1.839
 1168SOL     OW 3507   0.072   3.890   2.180
 1168SOL    HW1 3508   0.055   3.973   2.126
 1168SOL    HW2 3509   0.162   3.853   2.158
 1169SOL     OW 3510   0.716   4.289   3.570
 1169SOL    HW1 3511   0.735   4.354   3.644
 1169SOL    HW2 3512   0.776   4.209   3.579
 1170SOL     OW 3513   1.225   4.049   2.311
 1170SOL    HW1 3514   1.290   3.975   2.300
 1170SOL    HW2 3515   1.245   4.099   2.395
 1171SOL     OW 3516   1.777   4.066   3.504
 1171SOL    HW1 3517   1.760   4.097   3.410
 1171SOL    HW2 3518   1.693   4.029   3.542
 1172SOL     OW 3519   1.083   4.708   1.949
 1172SOL    HW1 3520   1.060   4.761   1.867
 1172SOL    HW2 3521   1.164   4.652   1.930
 1173SOL     OW 3522   1.824   3.916   3.089
 1173SOL    HW1 3523   1.820   3.826   3.133
 1173SOL    HW2 3524   1.827   3.905   2.990
 1174SOL     OW 3525   0.428   4.148   2.382
 1174SOL    HW1 3526   0.458   4.076   2.320
 1174SOL    HW2 3527   0.389   4.108   2.465
 1175SOL     OW 3528   0.317   4.271   3.142
 1175SOL    HW1 3529   0.355   4.212   3.214
 1175SOL    HW2 3530   0.357   4.245   3.054
 1176SOL     OW 3531   1.424   3.938   2.974
 1176SOL    HW1 3532   1.476   3.873   3.029
 1176SOL    HW2 3533   1.375   4.001   3.035
 1177SOL     OW 3534   1.001   3.758   3.016
 1177SOL    HW1 3535   0.938   3.686   2.985
 1177SOL    HW2 3536   1.094   3.722   3.016
 1178SOL     OW 3537   1.352   3.776   2.030
 1178SOL    HW1 3538   1.387   3.735   1.946
 1178SOL    HW2 3539   1.262   3.738   2.050
 1179SOL     OW 3540   1.300   4.177   2.553
 1179SOL    HW1 3541   1.241   4.257   2.557
 1179SOL    HW2 3542   1.315   4.142   2.646
 1180SOL     OW 3543   1.593   3.945   2.744
 1180SOL    HW1 3544   1.509   3.944   2.798
 1180SOL    HW2 3545   1.595   4.028   2.688
 1181SOL     OW 3546   1.135   4.427   4.441
 1181SOL    HW1 3547   1.192   4.505   4.416
 1181SOL    HW2 3548   1.075   4.453   4.517
 1182SOL     OW 3549   1.755   4.331   3.955
 1182SOL    HW1 3550   1.743   4.318   3.856
 1182SOL    HW2 3551   1.725   4.250   4.004
 1183SOL     OW 3552   0.685   4.736   4.389
 1183SOL    HW1 3553   0.754   4.720   4.459
 1183SOL    HW2 3554   0.612   4.793   4.427
 1184SOL     OW 3555   1.603   4.171   4.461
 1184SOL    HW1 3556   1.529   4.217   4.411
 1184SOL    HW2 3557   1.654   4.239   4.514
 1185SOL     OW 3558   0.122   4.367   4.287
 1185SOL    HW1 3559   0.077   4.279   4.304
 1185SOL    HW2 3560   0.121   4.421   4.371
 1186SOL     OW 3561   0.809   3.728   4.226
 1186SOL    HW1 3562   0.849   3.819   4.217
 1186SOL    HW2 3563   0.709   3.736   4.232
 1187SOL     OW 3564   1.281   4.069   4.668
 1187SOL    HW1 3565   1.195   4.019   4.655
 1187SOL    HW2 3566   1.343   4.015   4.724
 1188SOL     OW 3567   1.041   4.425   4.153
 1188SOL    HW1 3568   1.067   4.421   4.249
 1188SOL    HW2 3569   0.956   4.374   4.139
 1189SOL     OW 3570   0.076   4.535   4.513
 1189SOL    HW1 3571   0.175   4.523   4.522
 1189SOL    HW2 3572   0.052   4.630   4.534
 1190SOL     OW 3573   0.865   4.072   3.919
 1190SOL    HW1 3574   0.924   4.135   3.870
 1190SOL    HW2 3575   0.884   3.978   3.890
 1191SOL     OW 3576   1.400   3.831   4.150
 1191SOL    HW1 3577   1.376   3.794   4.060
 1191SOL    HW2 3578   1.499   3.847   4.154
 1192SOL     OW 3579   0.614   3.846   3.841
 1192SOL    HW1 3580   0.712   3.824   3.848
 1192SOL    HW2 3581   0.583   3.829   3.748
 1193SOL     OW 3582   0.539   3.788   4.236
 1193SOL    HW1 3583   0.458   3.789   4.294
 1193SOL    HW2 3584   0.542   3.871   4.181
 1194SOL     OW 3585   0.297   3.759   3.895
 1194SOL    HW1 3586   0.346   3.843   3.874
 1194SOL    HW2 3587   0.359   3.694   3.940
 1195SOL     OW 3588   0.935   3.960   4.204
 1195SOL    HW1 3589   0.887   4.001   4.126
 1195SOL    HW2 3590   1.034   3.958   4.185
 1196SOL     OW 3591   1.032   4.273   3.740
 1196SOL    HW1 3592   0.991   4.355   3.701
 1196SOL    HW2 3593   1.096   4.299   3.813
 1197SOL     OW 3594   0.866   4.178   4.366
 1197SOL    HW1 3595   0.834   4.250   4.304
 1197SOL    HW2 3596   0.890   4.097   4.313
 1198SOL     OW 3597   1.466   4.314   4.716
 1198SOL    HW1 3598   1.436   4.219   4.723
 1198SOL    HW2 3599   1.539   4.330   4.782
 1199SOL     OW 3600   1.390   4.299   3.802
 1199SOL    HW1 3601   1.336   4.278   3.883
 1199SOL    HW2 3602   1.481   4.258   3.811
 1200SOL     OW 3603   0.527   3.980   4.052
 1200SOL    HW1 3604   0.554   3.921   3.977
 1200SOL    HW2 3605   0.527   4.075   4.021
 1201SOL     OW 3606   1.582   4.363   4.196
 1201SOL    HW1 3607   1.551   4.424   4.269
 1201SOL    HW2 3608   1.632   4.415   4.127
 1202SOL     OW 3609   1.209   4.249   3.999
 1202SOL    HW1 3610   1.222   4.165   4.053
 1202SOL    HW2 3611   1.180   4.323   4.059
 1203SOL     OW 3612   0.307   3.787   4.342
 1203SOL    HW1 3613   0.296   3.881   4.375
 1203SOL    HW2 3614   0.302   3.724   4.419
 1204SOL     OW 3615   1.622   4.091   4.098
 1204SOL    HW1 3616   1.624   4.015   4.162
 1204SOL    HW2 3617   1.574   4.168   4.138
 1205SOL     OW 3618   1.540   3.998   3.849
 1205SOL    HW1 3619   1.479   3.923   3.872
 1205SOL    HW2 3620   1.562   4.050   3.932
 1206SOL     OW 3621   0.815   4.296   4.049
 1206SOL    HW1 3622   0.822   4.207   4.003
 1206SOL    HW2 3623   0.721   4.330   4.041
 1207SOL     OW 3624   0.473   4.224   3.915
 1207SOL    HW1 3625   0.534   4.304   3.919
 1207SOL    HW2 3626   0.378   4.255   3.922
 1208SOL     OW 3627   1.726   3.859   4.247
 1208SOL    HW1 3628   1.799   3.842   4.180
 1208SOL    HW2 3629   1.695   3.772   4.285
 1209SOL     OW 3630   1.280   4.651   4.396
 1209SOL    HW1 3631   1.340   4.570   4.398
 1209SOL    HW2 3632   1.320   4.720   4.336
 1210SOL     OW 3633   1.841   3.899   4.687
 1210SOL    HW1 3634   1.880   3.814   4.651
 1210SOL    HW2 3635   1.743   3.901   4.668
 1211SOL     OW 3636   0.075   4.069   3.757
 1211SOL    HW1 3637  -0.017   4.041   3.728
 1211SOL    HW2 3638   0.106   4.146   3.701
 1212SOL     OW 3639   0.072   3.890   4.042
 1212SOL    HW1 3640   0.055   3.973   3.988
 1212SOL    HW2 3641   0.162   3.853   4.020
 1213SOL     OW 3642   1.225   4.049   4.173
 1213SOL    HW1 3643   1.290   3.975   4.162
 1213SOL    HW2 3644   1.245   4.099   4.257
 1214SOL     OW 3645   1.083   4.708   3.811
 1214SOL    HW1 3646   1.060   4.761   3.729
 1214SOL    HW2 3647   1.164   4.652   3.792
 1215SOL     OW 3648   0.428   4.148   4.244
 1215SOL    HW1 3649   0.458   4.076   4.182
 1215SOL    HW2 3650   0.389   4.108   4.327
 1216SOL     OW 3651   1.352   3.776   3.892
 1216SOL    HW1 3652   1.387   3.735   3.808
 1216SOL    HW2 3653   1.262   3.738   3.912
 1217SOL     OW 3654   1.300   4.177   4.415
 1217SOL    HW1 3655   1.241   4.257   4.419
 1217SOL    HW2 3656   1.315   4.142   4.508
 1218SOL     OW 3657   2.092   0.628   0.113
 1218SOL    HW1 3658   1.999   0.626   0.150
 1218SOL    HW2 3659   2.093   0.589   0.021
 1219SOL     OW 3660   2.087   0.275   0.996
 1219SOL    HW1 3661   2.122   0.258   1.088
 1219SOL    HW2 3662   1.999   0.230   0.984
 1220SOL     OW 3663   1.881   0.368   0.647
 1220SOL    HW1 3664   1.799   0.411   0.686
 1220SOL    HW2 3665   1.853   0.295   0.584
 1221SOL     OW 3666   2.431   1.275   1.165
 1221SOL    HW1 3667   2.338   1.268   1.128
 1221SOL    HW2 3668   2.442   1.364   1.209
 1222SOL     OW 3669   3.417   1.511   0.703
 1222SOL    HW1 3670   3.360   1.495   0.784
 1222SOL    HW2 3671   3.358   1.521   0.623
 1223SOL     OW 3672   2.997   0.703   0.717
 1223SOL    HW1 3673   3.054   0.781   0.692
 1223SOL    HW2 3674   2.937   0.729   0.793
 1224SOL     OW 3675   3.617   0.607   0.231
 1224SOL    HW1 3676   3.605   0.594   0.132
 1224SOL    HW2 3677   3.587   0.526   0.280
 1225SOL     OW 3678   2.630   1.144   1.023
 1225SOL    HW1 3679   2.552   1.161   1.083
 1225SOL    HW2 3680   2.664   1.231   0.987
 1226SOL     OW 3681   2.712   0.798   1.823
 1226SOL    HW1 3682   2.708   0.874   1.888
 1226SOL    HW2 3683   2.734   0.834   1.732
 1227SOL     OW 3684   2.547   1.012   0.665
 1227SOL    HW1 3685   2.616   0.996   0.735
 1227SOL    HW2 3686   2.474   1.069   0.703
 1228SOL     OW 3687   2.548   1.161   1.803
 1228SOL    HW1 3688   2.608   1.240   1.817
 1228SOL    HW2 3689   2.462   1.192   1.762
 1229SOL     OW 3690   2.197   1.435   1.061
 1229SOL    HW1 3691   2.119   1.404   1.008
 1229SOL    HW2 3692   2.255   1.493   1.004
 1230SOL     OW 3693   3.322   1.505   1.339
 1230SOL    HW1 3694   3.346   1.599   1.365
 1230SOL    HW2 3695   3.306   1.451   1.421
 1231SOL     OW 3696   2.300   0.392   1.499
 1231SOL    HW1 3697   2.382   0.336   1.508
 1231SOL    HW2 3698   2.219   0.334   1.503
 1232SOL     OW 3699   3.465   0.447   0.737
 1232SOL    HW1 3700   3.391   0.493   0.687
 1232SOL    HW2 3701   3.516   0.515   0.790
 1233SOL     OW 3702   2.093   1.713   0.483
 1233SOL    HW1 3703   2.127   1.790   0.537
 1233SOL    HW2 3704   2.137   1.713   0.393
 1234SOL     OW 3705   2.989   1.341   1.690
 1234SOL    HW1 3706   3.036   1.341   1.778
 1234SOL    HW2 3707   2.941   1.254   1.679
 1235SOL     OW 3708   2.092   1.434   0.538
 1235SOL    HW1 3709   2.066   1.530   0.538
 1235SOL    HW2 3710   2.021   1.380   0.583
 1236SOL     OW 3711   2.102   1.091   0.886
 1236SOL    HW1 3712   2.116   1.007   0.938
 1236SOL    HW2 3713   2.047   1.155   0.941
 1237SOL     OW 3714   2.482   1.786   1.439
 1237SOL    HW1 3715   2.390   1.769   1.474
 1237SOL    HW2 3716   2.510   1.878   1.465
 1238SOL     OW 3717   2.468   0.964   0.123
 1238SOL    HW1 3718   2.475   1.048   0.069
 1238SOL    HW2 3719   2.514   0.977   0.211
 1239SOL     OW 3720   3.456   0.114   1.480
 1239SOL    HW1 3721   3.438   0.181   1.408
 1239SOL    HW2 3722   3.453   0.160   1.569
 1240SOL     OW 3723   1.984   0.643   0.563
 1240SOL    HW1 3724   1.939   0.555   0.580
 1240SOL    HW2 3725   1.983   0.697   0.647
 1241SOL     OW 3726   3.704   1.767   0.359
 1241SOL    HW1 3727   3.758   1.738   0.439
 1241SOL    HW2 3728   3.734   1.857   0.330
 1242SOL     OW 3729   1.889   1.596   0.117
 1242SOL    HW1 3730   1.870   1.500   0.138
 1242SOL    HW2 3731   1.856   1.654   0.192
 1243SOL     OW 3732   3.551   0.922   0.612
 1243SOL    HW1 3733   3.646   0.893   0.620
 1243SOL    HW2 3734   3.543   0.987   0.537
 1244SOL     OW 3735   3.503   1.108   0.432
 1244SOL    HW1 3736   3.589   1.110   0.380
 1244SOL    HW2 3737   3.517   1.155   0.520
 1245SOL     OW 3738   1.975   0.737   1.597
 1245SOL    HW1 3739   2.063   0.724   1.642
 1245SOL    HW2 3740   1.962   0.834   1.575
 1246SOL     OW 3741   2.475   1.365   0.726
 1246SOL    HW1 3742   2.426   1.278   0.735
 1246SOL    HW2 3743   2.452   1.408   0.639
 1247SOL     OW 3744   3.155   1.228   1.423
 1247SOL    HW1 3745   3.192   1.155   1.365
 1247SOL    HW2 3746   3.207   1.233   1.508
 1248SOL     OW 3747   2.671   0.004   0.502
 1248SOL    HW1 3748   2.711   0.095   0.493
 1248SOL    HW2 3749   2.571   0.012   0.508
 1249SOL     OW 3750   2.059   0.976   1.264
 1249SOL    HW1 3751   2.148   0.931   1.250
 1249SOL    HW2 3752   1.986   0.911   1.245
 1250SOL     OW 3753   3.387   0.999   0.190
 1250SOL    HW1 3754   3.324   0.923   0.203
 1250SOL    HW2 3755   3.435   1.017   0.276
 1251SOL     OW 3756   3.049   1.792   1.616
 1251SOL    HW1 3757   3.073   1.852   1.540
 1251SOL    HW2 3758   3.056   1.697   1.586
 1252SOL     OW 3759   2.179   0.251   1.801
 1252SOL    HW1 3760   2.250   0.322   1.807
 1252SOL    HW2 3761   2.091   0.290   1.829
 1253SOL     OW 3762   3.328   1.417   0.953
 1253SOL    HW1 3763   3.269   1.423   1.033
 1253SOL    HW2 3764   3.313   1.329   0.907
 1254SOL     OW 3765   3.529   1.714   0.572
 1254SOL    HW1 3766   3.488   1.691   0.484
 1254SOL    HW2 3767   3.511   1.640   0.637
 1255SOL     OW 3768   2.460   0.729   0.270
 1255SOL    HW1 3769   2.484   0.798   0.202
 1255SOL    HW2 3770   2.382   0.762   0.324
 1256SOL     OW 3771   3.143   0.345   0.944
 1256SOL    HW1 3772   3.057   0.295   0.931
 1256SOL    HW2 3773   3.205   0.291   1.000
 1257SOL     OW 3774   3.438   1.662   0.307
 1257SOL    HW1 3775   3.527   1.708   0.310
 1257SOL    HW2 3776   3.417   1.638   0.212
 1258SOL     OW 3777   2.669   0.605   1.465
 1258SOL    HW1 3778   2.622   0.602   1.554
 1258SOL    HW2 3779   2.618   0.550   1.399
 1259SOL     OW 3780   3.256   0.469   1.674
 1259SOL    HW1 3781   3.236   0.512   1.762
 1259SOL    HW2 3782   3.334   0.407   1.683
 1260SOL     OW 3783   2.835   0.890   1.572
 1260SOL    HW1 3784   2.881   0.806   1.543
 1260SOL    HW2 3785   2.779   0.924   1.497
 1261SOL     OW 3786   2.853   0.410   1.242
 1261SOL    HW1 3787   2.776   0.444   1.296
 1261SOL    HW2 3788   2.819   0.359   1.163
 1262SOL     OW 3789   2.903   0.701   0.429
 1262SOL    HW1 3790   2.929   0.697   0.525
 1262SOL    HW2 3791   2.818   0.650   0.415
 1263SOL     OW 3792   1.938   0.811   0.789
 1263SOL    HW1 3793   2.037   0.799   0.798
 1263SOL    HW2 3794   1.914   0.906   0.810
 1264SOL     OW 3795   1.992   1.821   1.571
 1264SOL    HW1 3796   1.982   1.806   1.670
 1264SOL    HW2 3797   1.906   1.857   1.535
 1265SOL     OW 3798   2.727   0.348   0.195
 1265SOL    HW1 3799   2.786   0.411   0.146
 1265SOL    HW2 3800   2.746   0.254   0.166
 1266SOL     OW 3801   3.581   0.585   1.831
 1266SOL    HW1 3802   3.555   0.674   1.795
 1266SOL    HW2 3803   3.579   0.517   1.758
 1267SOL     OW 3804   3.224   1.144   0.545
 1267SOL    HW1 3805   3.307   1.115   0.497
 1267SOL    HW2 3806   3.175   1.211   0.489
 1268SOL     OW 3807   2.412   0.196   0.885
 1268SOL    HW1 3808   2.407   0.191   0.985
 1268SOL    HW2 3809   2.414   0.292   0.856
 1269SOL     OW 3810   2.870   1.456   0.477
 1269SOL    HW1 3811   2.824   1.528   0.425
 1269SOL    HW2 3812   2.866   1.476   0.575
 1270SOL     OW 3813   2.213   1.801   0.853
 1270SOL    HW1 3814   2.263   1.715   0.859
 1270SOL    HW2 3815   2.278   1.878   0.850
 1271SOL     OW 3816   3.657   1.066   0.873
 1271SOL    HW1 3817   3.595   1.051   0.797
 1271SOL    HW2 3818   3.605   1.077   0.958
 1272SOL     OW 3819   3.089   1.550   1.506
 1272SOL    HW1 3820   3.095   1.473   1.570
 1272SOL    HW2 3821   3.037   1.524   1.426
 1273SOL     OW 3822   2.183   0.943   0.242
 1273SOL    HW1 3823   2.265   0.982   0.200
 1273SOL    HW2 3824   2.156   0.861   0.193
 1274SOL     OW 3825   3.320   0.735   0.728
 1274SOL    HW1 3826   3.315   0.670   0.803
 1274SOL    HW2 3827   3.400   0.794   0.741
 1275SOL     OW 3828   2.323   1.266   1.727
 1275SOL    HW1 3829   2.273   1.267   1.641
 1275SOL    HW2 3830   2.260   1.248   1.803
 1276SOL     OW 3831   2.973   1.776   0.237
 1276SOL    HW1 3832   2.913   1.714   0.287
 1276SOL    HW2 3833   3.004   1.732   0.152
 1277SOL     OW 3834   2.064   0.285   1.498
 1277SOL    HW1 3835   1.984   0.345   1.485
 1277SOL    HW2 3836   2.054   0.236   1.584
 1278SOL     OW 3837   3.494   1.377   0.081
 1278SOL    HW1 3838   3.462   1.471   0.071
 1278SOL    HW2 3839   3.418   1.314   0.069
 1279SOL     OW 3840   2.326   1.743   0.323
 1279SOL    HW1 3841   2.359   1.782   0.409
 1279SOL    HW2 3842   2.402   1.736   0.258
 1280SOL     OW 3843   3.262   0.107   0.426
 1280SOL    HW1 3844   3.238   0.070   0.336
 1280SOL    HW2 3845   3.361   0.123   0.430
 1281SOL     OW 3846   2.111   1.785   1.241
 1281SOL    HW1 3847   2.168   1.720   1.291
 1281SOL    HW2 3848   2.095   1.752   1.148
 1282SOL     OW 3849   2.802   1.698   0.904
 1282SOL    HW1 3850   2.882   1.641   0.925
 1282SOL    HW2 3851   2.753   1.658   0.827
 1283SOL     OW 3852   2.244   0.700   0.480
 1283SOL    HW1 3853   2.289   0.610   0.477
 1283SOL    HW2 3854   2.150   0.689   0.513
 1284SOL     OW 3855   3.409   0.222   1.729
 1284SOL    HW1 3856   3.404   0.259   1.821
 1284SOL    HW2 3857   3.337   0.153   1.717
 1285SOL     OW 3858   2.476   0.122   0.117
 1285SOL    HW1 3859   2.574   0.100   0.124
 1285SOL    HW2 3860   2.445   0.105   0.024
 1286SOL     OW 3861   2.643   0.264   1.749
 1286SOL    HW1 3862   2.710   0.203   1.792
 1286SOL    HW2 3863   2.570   0.283   1.814
 1287SOL     OW 3864   2.750   1.514   1.195
 1287SOL    HW1 3865   2.727   1.489   1.101
 1287SOL    HW2 3866   2.811   1.445   1.234
 1288SOL     OW 3867   3.213   0.590   1.433
 1288SOL    HW1 3868   3.241   0.547   1.518
 1288SOL    HW2 3869   3.238   0.686   1.434
 1289SOL     OW 3870   2.665   1.402   0.924
 1289SOL    HW1 3871   2.755   1.416   0.882
 1289SOL    HW2 3872   2.594   1.404   0.853
 1290SOL     OW 3873   2.784   0.503   0.899
 1290SOL    HW1 3874   2.759   0.494   0.803
 1290SOL    HW2 3875   2.832   0.421   0.930
 1291SOL     OW 3876   2.401   0.064   0.512
 1291SOL    HW1 3877   2.320   0.065   0.570
 1291SOL    HW2 3878   2.404   0.147   0.457
 1292SOL     OW 3879   3.296   1.188   0.041
 1292SOL    HW1 3880   3.328   1.112   0.098
 1292SOL    HW2 3881   3.204   1.215   0.071
 1293SOL     OW 3882   2.159   0.035   0.171
 1293SOL    HW1 3883   2.208   0.119   0.150
 1293SOL    HW2 3884   2.221  -0.030   0.216
 1294SOL     OW 3885   2.797   0.236   0.480
 1294SOL    HW1 3886   2.749   0.277   0.402
 1294SOL    HW2 3887   2.896   0.234   0.461
 1295SOL     OW 3888   2.938   0.683   1.464
 1295SOL    HW1 3889   2.858   0.622   1.467
 1295SOL    HW2 3890   3.019   0.630   1.440
 1296SOL     OW 3891   3.089   1.570   0.793
 1296SOL    HW1 3892   3.110   1.644   0.728
 1296SOL    HW2 3893   3.157   1.570   0.866
 1297SOL     OW 3894   2.321   1.152   0.741
 1297SOL    HW1 3895   2.250   1.125   0.806
 1297SOL    HW2 3896   2.295   1.124   0.648
 1298SOL     OW 3897   3.133   1.797   0.591
 1298SOL    HW1 3898   3.177   1.861   0.527
 1298SOL    HW2 3899   3.083   1.849   0.661
 1299SOL     OW 3900   2.894   0.549   0.016
 1299SOL    HW1 3901   2.853   0.631  -0.023
 1299SOL    HW2 3902   2.958   0.575   0.089
 1300SOL     OW 3903   1.940   0.556   1.386
 1300SOL    HW1 3904   2.032   0.555   1.345
 1300SOL    HW2 3905   1.934   0.630   1.453
 1301SOL     OW 3906   2.423   0.222   1.147
 1301SOL    HW1 3907   2.461   0.138   1.184
 1301SOL    HW2 3908   2.335   0.241   1.191
 1302SOL     OW 3909   2.728   0.454   0.642
 1302SOL    HW1 3910   2.696   0.526   0.580
 1302SOL    HW2 3911   2.752   0.373   0.589
 1303SOL     OW 3912   2.879   0.039   0.753
 1303SOL    HW1 3913   2.807   0.044   0.684
 1303SOL    HW2 3914   2.855  -0.030   0.822
 1304SOL     OW 3915   3.291   1.173   0.867
 1304SOL    HW1 3916   3.236   1.089   0.860
 1304SOL    HW2 3917   3.317   1.202   0.775
 1305SOL     OW 3918   3.328   0.590   0.992
 1305SOL    HW1 3919   3.298   0.495   0.999
 1305SOL    HW2 3920   3.401   0.606   1.058
 1306SOL     OW 3921   3.719   0.833   0.377
 1306SOL    HW1 3922   3.761   0.769   0.441
 1306SOL    HW2 3923   3.681   0.782   0.299
 1307SOL     OW 3924   2.350   1.385   0.174
 1307SOL    HW1 3925   2.263   1.370   0.221
 1307SOL    HW2 3926   2.333   1.411   0.079
 1308SOL     OW 3927   3.526   1.280   0.657
 1308SOL    HW1 3928   3.625   1.288   0.671
 1308SOL    HW2 3929   3.481   1.364   0.688
 1309SOL     OW 3930   3.252   0.575   0.078
 1309SOL    HW1 3931   3.198   0.554   0.159
 1309SOL    HW2 3932   3.343   0.534   0.087
 1310SOL     OW 3933   2.389   0.256   0.328
 1310SOL    HW1 3934   2.416   0.197   0.253
 1310SOL    HW2 3935   2.389   0.351   0.297
 1311SOL     OW 3936   3.616   1.223   1.588
 1311SOL    HW1 3937   3.707   1.184   1.575
 1311SOL    HW2 3938   3.624   1.319   1.612
 1312SOL     OW 3939   2.926   1.347   1.340
 1312SOL    HW1 3940   2.846   1.324   1.395
 1312SOL    HW2 3941   3.009   1.321   1.389
 1313SOL     OW 3942   3.454   1.629   1.625
 1313SOL    HW1 3943   3.481   1.663   1.535
 1313SOL    HW2 3944   3.533   1.591   1.671
 1314SOL     OW 3945   2.973   1.195   1.100
 1314SOL    HW1 3946   2.933   1.239   1.181
 1314SOL    HW2 3947   2.932   1.232   1.017
 1315SOL     OW 3948   3.500   1.099   1.079
 1315SOL    HW1 3949   3.505   1.180   1.138
 1315SOL    HW2 3950   3.414   1.101   1.028
 1316SOL     OW 3951   2.777   0.089   1.402
 1316SOL    HW1 3952   2.802   0.069   1.307
 1316SOL    HW2 3953   2.849   0.145   1.444
 1317SOL     OW 3954   2.842   1.116   1.719
 1317SOL    HW1 3955   2.743   1.122   1.729
 1317SOL    HW2 3956   2.865   1.036   1.663
 1318SOL     OW 3957   2.567   1.050   0.368
 1318SOL    HW1 3958   2.553   1.057   0.467
 1318SOL    HW2 3959   2.651   0.999   0.350
 1319SOL     OW 3960   2.272   0.813   1.251
 1319SOL    HW1 3961   2.358   0.825   1.301
 1319SOL    HW2 3962   2.230   0.726   1.278
 1320SOL     OW 3963   3.136   0.386   1.262
 1320SOL    HW1 3964   3.157   0.460   1.326
 1320SOL    HW2 3965   3.047   0.403   1.219
 1321SOL     OW 3966   1.926   1.564   1.331
 1321SOL    HW1 3967   1.880   1.646   1.297
 1321SOL    HW2 3968   2.024   1.583   1.340
 1322SOL     OW 3969   2.229   1.100   0.501
 1322SOL    HW1 3970   2.222   1.183   0.445
 1322SOL    HW2 3971   2.233   1.020   0.441
 1323SOL     OW 3972   2.428   0.537   0.865
 1323SOL    HW1 3973   2.440   0.603   0.791
 1323SOL    HW2 3974   2.474   0.571   0.948
 1324SOL     OW 3975   3.114   1.348   0.388
 1324SOL    HW1 3976   3.164   1.425   0.428
 1324SOL    HW2 3977   3.019   1.350   0.420
 1325SOL     OW 3978   3.134   1.445   1.142
 1325SOL    HW1 3979   3.181   1.458   1.229
 1325SOL    HW2 3980   3.068   1.371   1.151
 1326SOL     OW 3981   3.444   0.639   0.472
 1326SOL    HW1 3982   3.413   0.700   0.545
 1326SOL    HW2 3983   3.494   0.691   0.403
 1327SOL     OW 3984   2.216   1.510   1.329
 1327SOL    HW1 3985   2.195   1.466   1.242
 1327SOL    HW2 3986   2.313   1.536   1.332
 1328SOL     OW 3987   2.264   0.751   1.598
 1328SOL    HW1 3988   2.332   0.806   1.551
 1328SOL    HW2 3989   2.304   0.663   1.625
 1329SOL     OW 3990   3.449   0.779   1.670
 1329SOL    HW1 3991   3.357   0.817   1.665
 1329SOL    HW2 3992   3.509   0.826   1.605
 1330SOL     OW 3993   2.875   0.105   1.770
 1330SOL    HW1 3994   2.881   0.190   1.718
 1330SOL    HW2 3995   2.907   0.029   1.713
 1331SOL     OW 3996   2.366   0.050   1.740
 1331SOL    HW1 3997   2.324  -0.007   1.670
 1331SOL    HW2 3998   2.300   0.119   1.772
 1332SOL     OW 3999   2.435   0.870   1.029
 1332SOL    HW1 4000   2.479   0.959   1.020
 1332SOL    HW2 4001   2.372   0.870   1.106
 1333SOL     OW 4002   3.222   0.862   1.045
 1333SOL    HW1 4003   3.147   0.862   0.979
 1333SOL    HW2 4004   3.259   0.770   1.054
 1334SOL     OW 4005   3.071   0.525   0.275
 1334SOL    HW1 4006   3.084   0.441   0.329
 1334SOL    HW2 4007   3.042   0.599   0.335
 1335SOL     OW 4008   2.169   0.213   1.231
 1335SOL    HW1 4009   2.146   0.250   1.321
 1335SOL    HW2 4010   2.139   0.118   1.225
 1336SOL     OW 4011   1.899   1.310   1.282
 1336SOL    HW1 4012   1.952   1.261   1.350
 1336SOL    HW2 4013   1.921   1.408   1.287
 1337SOL     OW 4014   2.594   0.634   1.064
 1337SOL    HW1 4015   2.653   0.608   0.988
 1337SOL    HW2 4016   2.566   0.730   1.053
 1338SOL     OW 4017   3.590   0.935   1.854
 1338SOL    HW1 4018   3.544   0.928   1.765
 1338SOL    HW2 4019   3.528   0.979   1.920
 1339SOL     OW 4020   2.169   0.063   0.618
 1339SOL    HW1 4021   2.158   0.157   0.651
 1339SOL    HW2 4022   2.164   0.000   0.695
 1340SOL     OW 4023   3.484   0.367   0.374
 1340SOL    HW1 4024   3.486   0.291   0.438
 1340SOL    HW2 4025   3.436   0.444   0.414
 1341SOL     OW 4026   2.885   0.766   0.966
 1341SOL    HW1 4027   2.900   0.787   1.062
 1341SOL    HW2 4028   2.855   0.671   0.957
 1342SOL     OW 4029   2.842   1.573   1.700
 1342SOL    HW1 4030   2.822   1.617   1.612
 1342SOL    HW2 4031   2.881   1.482   1.684
 1343SOL     OW 4032   3.721   1.518   1.605
 1343SOL    HW1 4033   3.735   1.545   1.510
 1343SOL    HW2 4034   3.804   1.540   1.658
 1344SOL     OW 4035   2.212   0.898   1.804
 1344SOL    HW1 4036   2.288   0.942   1.852
 1344SOL    HW2 4037   2.247   0.851   1.722
 1345SOL     OW 4038   3.402   0.274   0.125
 1345SOL    HW1 4039   3.341   0.199   0.148
 1345SOL    HW2 4040   3.424   0.326   0.208
 1346SOL     OW 4041   3.165   0.838   0.042
 1346SOL    HW1 4042   3.199   0.745   0.057
 1346SOL    HW2 4043   3.183   0.865  -0.053
 1347SOL     OW 4044   2.930   1.333   0.849
 1347SOL    HW1 4045   2.937   1.249   0.794
 1347SOL    HW2 4046   2.992   1.402   0.813
 1348SOL     OW 4047   2.181   0.810   0.949
 1348SOL    HW1 4048   2.274   0.846   0.954
 1348SOL    HW2 4049   2.175   0.725   1.001
 1349SOL     OW 4050   2.201   0.509   1.006
 1349SOL    HW1 4051   2.149   0.426   0.989
 1349SOL    HW2 4052   2.278   0.514   0.942
 1350SOL     OW 4053   3.000   0.380   1.678
 1350SOL    HW1 4054   2.955   0.443   1.742
 1350SOL    HW2 4055   3.093   0.411   1.661
 1351SOL     OW 4056   3.022   0.207   1.477
 1351SOL    HW1 4057   3.022   0.271   1.554
 1351SOL    HW2 4058   3.050   0.255   1.394
 1352SOL     OW 4059   1.870   1.326   0.200
 1352SOL    HW1 4060   1.777   1.347   0.169
 1352SOL    HW2 4061   1.880   1.227   0.213
 1353SOL     OW 4062   1.950   1.801   0.927
 1353SOL    HW1 4063   1.908   1.715   0.900
 1353SOL    HW2 4064   2.044   1.804   0.893
 1354SOL     OW 4065   2.366   1.568   0.910
 1354SOL    HW1 4066   2.432   1.642   0.919
 1354SOL    HW2 4067   2.410   1.489   0.868
 1355SOL     OW 4068   2.864   0.796   1.238
 1355SOL    HW1 4069   2.905   0.764   1.324
 1355SOL    HW2 4070   2.768   0.769   1.235
 1356SOL     OW 4071   1.902   0.544   1.114
 1356SOL    HW1 4072   1.987   0.511   1.073
 1356SOL    HW2 4073   1.915   0.559   1.212
 1357SOL     OW 4074   2.051   0.520   1.722
 1357SOL    HW1 4075   2.110   0.480   1.652
 1357SOL    HW2 4076   1.993   0.591   1.681
 1358SOL     OW 4077   3.231   0.950   1.660
 1358SOL    HW1 4078   3.270   1.039   1.680
 1358SOL    HW2 4079   3.241   0.930   1.563
 1359SOL     OW 4080   2.677   0.572   0.325
 1359SOL    HW1 4081   2.684   0.483   0.279
 1359SOL    HW2 4082   2.583   0.606   0.317
 1360SOL     OW 4083   3.519   0.604   1.206
 1360SOL    HW1 4084   3.481   0.535   1.268
 1360SOL    HW2 4085   3.601   0.568   1.162
 1361SOL     OW 4086   2.114   1.564   1.744
 1361SOL    HW1 4087   2.084   1.621   1.820
 1361SOL    HW2 4088   2.107   1.467   1.770
 1362SOL     OW 4089   2.533   0.464   1.269
 1362SOL    HW1 4090   2.499   0.375   1.239
 1362SOL    HW2 4091   2.559   0.518   1.189
 1363SOL     OW 4092   2.792   1.678   1.465
 1363SOL    HW1 4093   2.768   1.660   1.370
 1363SOL    HW2 4094   2.822   1.772   1.475
 1364SOL     OW 4095   2.335   0.500   0.191
 1364SOL    HW1 4096   2.396   0.580   0.195
 1364SOL    HW2 4097   2.240   0.531   0.198
 1365SOL     OW 4098   2.021   1.137   1.466
 1365SOL    HW1 4099   2.043   1.076   1.542
 1365SOL    HW2 4100   2.031   1.088   1.380
 1366SOL     OW 4101   3.209   1.059   1.234
 1366SOL    HW1 4102   3.233   0.996   1.160
 1366SOL    HW2 4103   3.119   1.099   1.216
 1367SOL     OW 4104   3.164   0.855   0.309
 1367SOL    HW1 4105   3.078   0.824   0.351
 1367SOL    HW2 4106   3.160   0.841   0.210
 1368SOL     OW 4107   3.621   1.747   1.154
 1368SOL    HW1 4108   3.682   1.777   1.081
 1368SOL    HW2 4109   3.583   1.658   1.132
 1369SOL     OW 4110   3.114   1.731   1.128
 1369SOL    HW1 4111   3.198   1.736   1.074
 1369SOL    HW2 4112   3.091   1.635   1.146
 1370SOL     OW 4113   1.945   1.258   1.022
 1370SOL    HW1 4114   1.940   1.257   1.122
 1370SOL    HW2 4115   1.862   1.217   0.984
 1371SOL     OW 4116   2.550   1.662   1.716
 1371SOL    HW1 4117   2.494   1.743   1.725
 1371SOL    HW2 4118   2.602   1.666   1.630
 1372SOL     OW 4119   2.765   0.086   0.133
 1372SOL    HW1 4120   2.816   0.087   0.047
 1372SOL    HW2 4121   2.821   0.044   0.204
 1373SOL     OW 4122   3.588   0.135   0.523
 1373SOL    HW1 4123   3.661   0.118   0.456
 1373SOL    HW2 4124   3.557   0.048   0.561
 1374SOL     OW 4125   3.250   1.573   0.477
 1374SOL    HW1 4126   3.317   1.585   0.403
 1374SOL    HW2 4127   3.210   1.662   0.500
 1375SOL     OW 4128   1.992   1.794   1.851
 1375SOL    HW1 4129   1.951   1.720   1.904
 1375SOL    HW2 4130   2.056   1.845   1.909
 1376SOL     OW 4131   3.142   0.927   0.672
 1376SOL    HW1 4132   3.202   0.846   0.674
 1376SOL    HW2 4133   3.182   0.996   0.612
 1377SOL     OW 4134   2.692   1.273   1.422
 1377SOL    HW1 4135   2.687   1.306   1.517
 1377SOL    HW2 4136   2.606   1.292   1.376
 1378SOL     OW 4137   2.534   1.616   0.154
 1378SOL    HW1 4138   2.543   1.626   0.055
 1378SOL    HW2 4139   2.494   1.527   0.175
 1379SOL     OW 4140   3.512   1.720   1.394
 1379SOL    HW1 4141   3.565   1.730   1.310
 1379SOL    HW2 4142   3.485   1.810   1.428
 1380SOL     OW 4143   3.703   0.175   0.963
 1380SOL    HW1 4144   3.742   0.090   0.927
 1380SOL    HW2 4145   3.605   0.177   0.944
 1381SOL     OW 4146   2.125   0.326   0.720
 1381SOL    HW1 4147   2.046   0.377   0.686
 1381SOL    HW2 4148   2.116   0.311   0.818
 1382SOL     OW 4149   3.056   1.612   0.031
 1382SOL    HW1 4150   3.062   1.519   0.068
 1382SOL    HW2 4151   2.997   1.612  -0.049
 1383SOL     OW 4152   2.684   1.002   1.372
 1383SOL    HW1 4153   2.724   1.001   1.280
 1383SOL    HW2 4154   2.694   1.094   1.412
 1384SOL     OW 4155   2.778   0.910   0.291
 1384SOL    HW1 4156   2.841   0.948   0.223
 1384SOL    HW2 4157   2.818   0.827   0.330
 1385SOL     OW 4158   3.366   1.607   0.044
 1385SOL    HW1 4159   3.274   1.644   0.051
 1385SOL    HW2 4160   3.404   1.627  -0.046
 1386SOL     OW 4161   2.234   1.288   1.490
 1386SOL    HW1 4162   2.221   1.381   1.456
 1386SOL    HW2 4163   2.150   1.236   1.477
 1387SOL     OW 4164   3.476   1.292   1.289
 1387SOL    HW1 4165   3.536   1.295   1.369
 1387SOL    HW2 4166   3.401   1.356   1.302
 1388SOL     OW 4167   2.901   1.098   0.696
 1388SOL    HW1 4168   2.831   1.051   0.750
 1388SOL    HW2 4169   2.960   1.030   0.653
 1389SOL     OW 4170   2.876   0.236   0.971
 1389SOL    HW1 4171   2.868   0.200   0.878
 1389SOL    HW2 4172   2.874   0.160   1.036
 1390SOL     OW 4173   2.452   1.487   0.491
 1390SOL    HW1 4174   2.494   1.429   0.421
 1390SOL    HW2 4175   2.408   1.566   0.447
 1391SOL     OW 4176   3.571   0.385   1.381
 1391SOL    HW1 4177   3.644   0.454   1.385
 1391SOL    HW2 4178   3.599   0.310   1.322
 1392SOL     OW 4179   2.117   1.348   0.290
 1392SOL    HW1 4180   2.021   1.349   0.263
 1392SOL    HW2 4181   2.129   1.401   0.374
 1393SOL     OW 4182   1.967   1.013   1.726
 1393SOL    HW1 4183   1.890   0.980   1.780
 1393SOL    HW2 4184   2.052   0.983   1.768
 1394SOL     OW 4185   2.534   0.203   1.489
 1394SOL    HW1 4186   2.624   0.187   1.449
 1394SOL    HW2 4187   2.542   0.208   1.588
 1395SOL     OW 4188   1.937   0.345   0.033
 1395SOL    HW1 4189   1.845   0.317   0.004
 1395SOL    HW2 4190   1.968   0.422  -0.023
 1396SOL     OW 4191   3.302   0.856   1.398
 1396SOL    HW1 4192   3.245   0.908   1.335
 1396SOL    HW2 4193   3.398   0.868   1.374
 1397SOL     OW 4194   3.045   1.335   0.119
 1397SOL    HW1 4195   2.946   1.324   0.121
 1397SOL    HW2 4196   3.079   1.350   0.212
 1398SOL     OW 4197   2.475   0.842   1.431
 1398SOL    HW1 4198   2.531   0.923   1.414
 1398SOL    HW2 4199   2.534   0.762   1.434
 1399SOL     OW 4200   3.355   1.767   0.959
 1399SOL    HW1 4201   3.388   1.831   0.890
 1399SOL    HW2 4202   3.421   1.761   1.034
 1400SOL     OW 4203   2.578   0.565   1.708
 1400SOL    HW1 4204   2.597   0.630   1.782
 1400SOL    HW2 4205   2.638   0.485   1.717
 1401SOL     OW 4206   3.312   1.220   1.633
 1401SOL    HW1 4207   3.303   1.210   1.732
 1401SOL    HW2 4208   3.408   1.213   1.607
 1402SOL     OW 4209   2.252   1.741   1.560
 1402SOL    HW1 4210   2.161   1.782   1.558
 1402SOL    HW2 4211   2.245   1.647   1.592
 1403SOL     OW 4212   3.536   0.883   1.254
 1403SOL    HW1 4213   3.509   0.794   1.217
 1403SOL    HW2 4214   3.537   0.951   1.181
 1404SOL     OW 4215   3.087   0.325   0.449
 1404SOL    HW1 4216   3.152   0.251   0.438
 1404SOL    HW2 4217   3.107   0.375   0.533
 1405SOL     OW 4218   2.456   0.745   0.652
 1405SOL    HW1 4219   2.506   0.830   0.633
 1405SOL    HW2 4220   2.368   0.747   0.604
 1406SOL     OW 4221   3.639   0.342   1.642
 1406SOL    HW1 4222   3.622   0.373   1.548
 1406SOL    HW2 4223   3.555   0.305   1.680
 1407SOL     OW 4224   3.592   0.934   1.517
 1407SOL    HW1 4225   3.630   1.025   1.532
 1407SOL    HW2 4226   3.584   0.917   1.418
 1408SOL     OW 4227   2.721   1.374   0.016
 1408SOL    HW1 4228   2.675   1.389   0.104
 1408SOL    HW2 4229   2.765   1.459  -0.014
 1409SOL     OW 4230   2.523   1.790   0.953
 1409SOL    HW1 4231   2.477   1.878   0.940
 1409SOL    HW2 4232   2.622   1.802   0.946
 1410SOL     OW 4233   2.721   0.956   0.861
 1410SOL    HW1 4234   2.775   0.887   0.909
 1410SOL    HW2 4235   2.689   1.025   0.927
 1411SOL     OW 4236   2.945   0.984   0.087
 1411SOL    HW1 4237   2.922   1.037   0.005
 1411SOL    HW2 4238   3.026   0.928   0.068
 1412SOL     OW 4239   3.723   1.569   0.851
 1412SOL    HW1 4240   3.652   1.557   0.781
 1412SOL    HW2 4241   3.724   1.490   0.911
 1413SOL     OW 4242   2.083   1.314   1.844
 1413SOL    HW1 4243   2.018   1.241   1.823
 1413SOL    HW2 4244   2.087   1.328   1.942
 1414SOL     OW 4245   1.941   1.240   0.653
 1414SOL    HW1 4246   1.940   1.193   0.741
 1414SOL    HW2 4247   2.023   1.212   0.602
 1415SOL     OW 4248   2.534   1.391   1.624
 1415SOL    HW1 4249   2.456   1.341   1.662
 1415SOL    HW2 4250   2.531   1.486   1.655
 1416SOL     OW 4251   3.686   0.192   1.227
 1416SOL    HW1 4252   3.682   0.102   1.271
 1416SOL    HW2 4253   3.689   0.181   1.128
 1417SOL     OW 4254   2.290   0.424   0.520
 1417SOL    HW1 4255   2.320   0.352   0.458
 1417SOL    HW2 4256   2.251   0.384   0.603
 1418SOL     OW 4257   3.567   1.487   1.104
 1418SOL    HW1 4258   3.474   1.462   1.077
 1418SOL    HW2 4259   3.593   1.437   1.186
 1419SOL     OW 4260   2.179   0.547   1.280
 1419SOL    HW1 4261   2.217   0.488   1.352
 1419SOL    HW2 4262   2.219   0.521   1.192
 1420SOL     OW 4263   2.674   1.586   0.687
 1420SOL    HW1 4264   2.706   1.596   0.593
 1420SOL    HW2 4265   2.595   1.524   0.689
 1421SOL     OW 4266   3.286   0.214   1.112
 1421SOL    HW1 4267   3.338   0.149   1.167
 1421SOL    HW2 4268   3.237   0.277   1.173
 1422SOL     OW 4269   2.863   0.034   1.154
 1422SOL    HW1 4270   2.800  -0.038   1.123
 1422SOL    HW2 4271   2.956  -0.002   1.154
 1423SOL     OW 4272   2.632   1.330   0.301
 1423SOL    HW1 4273   2.586   1.243   0.318
 1423SOL    HW2 4274   2.723   1.327   0.342
 1424SOL     OW 4275   2.480   1.567   1.284
 1424SOL    HW1 4276   2.475   1.649   1.341
 1424SOL    HW2 4277   2.569   1.564   1.239
 1425SOL     OW 4278   3.214   0.052   0.168
 1425SOL    HW1 4279   3.249   0.011   0.084
 1425SOL    HW2 4280   3.124   0.014   0.188
 1426SOL     OW 4281   3.162   0.453   0.691
 1426SOL    HW1 4282   3.103   0.533   0.695
 1426SOL    HW2 4283   3.177   0.418   0.784
 1427SOL     OW 4284   3.455   0.221   0.882
 1427SOL    HW1 4285   3.371   0.220   0.936
 1427SOL    HW2 4286   3.457   0.304   0.826
 1428SOL     OW 4287   1.901   1.077   0.300
 1428SOL    HW1 4288   2.000   1.066   0.291
 1428SOL    HW2 4289   1.861   0.991   0.332
 1429SOL     OW 4290   2.737   1.646   0.337
 1429SOL    HW1 4291   2.660   1.611   0.283
 1429SOL    HW2 4292   2.705   1.717   0.399
 1430SOL     OW 4293   2.092   0.628   1.975
 1430SOL    HW1 4294   1.999   0.626   2.012
 1430SOL    HW2 4295   2.093   0.589   1.883
 1431SOL     OW 4296   2.087   0.275   2.858
 1431SOL    HW1 4297   2.122   0.258   2.950
 1431SOL    HW2 4298   1.999   0.230   2.846
 1432SOL     OW 4299   1.881   0.368   2.509
 1432SOL    HW1 4300   1.799   0.411   2.548
 1432SOL    HW2 4301   1.853   0.295   2.446
 1433SOL     OW 4302   2.431   1.275   3.027
 1433SOL    HW1 4303   2.338   1.268   2.990
 1433SOL    HW2 4304   2.442   1.364   3.071
 1434SOL     OW 4305   3.417   1.511   2.565
 1434SOL    HW1 4306   3.360   1.495   2.646
 1434SOL    HW2 4307   3.358   1.521   2.485
 1435SOL     OW 4308   2.997   0.703   2.579
 1435SOL    HW1 4309   3.054   0.781   2.554
 1435SOL    HW2 4310   2.937   0.729   2.655
 1436SOL     OW 4311   3.617   0.607   2.093
 1436SOL    HW1 4312   3.605   0.594   1.994
 1436SOL    HW2 4313   3.587   0.526   2.142
 1437SOL     OW 4314   2.630   1.144   2.885
 1437SOL    HW1 4315   2.552   1.161   2.945
 1437SOL    HW2 4316   2.664   1.231   2.849
 1438SOL     OW 4317   2.712   0.798   3.685
 1438SOL    HW1 4318   2.708   0.874   3.750
 1438SOL    HW2 4319   2.734   0.834   3.594
 1439SOL     OW 4320   2.547   1.012   2.527
 1439SOL    HW1 4321   2.616   0.996   2.597
 1439SOL    HW2 4322   2.474   1.069   2.565
 1440SOL     OW 4323   2.548   1.161   3.665
 1440SOL    HW1 4324   2.608   1.240   3.679
 1440SOL    HW2 4325   2.462   1.192   3.624
 1441SOL     OW 4326   2.197   1.435   2.923
 1441SOL    HW1 4327   2.119   1.404   2.870
 1441SOL    HW2 4328   2.255   1.493   2.866
 1442SOL     OW 4329   3.322   1.505   3.201
 1442SOL    HW1 4330   3.346   1.599   3.227
 1442SOL    HW2 4331   3.306   1.451   3.283
 1443SOL     OW 4332   2.300   0.392   3.361
 1443SOL    HW1 4333   2.382   0.336   3.370
 1443SOL    HW2 4334   2.219   0.334   3.365
 1444SOL     OW 4335   3.465   0.447   2.599
 1444SOL    HW1 4336   3.391   0.493   2.549
 1444SOL    HW2 4337   3.516   0.515   2.652
 1445SOL     OW 4338   2.093   1.713   2.345
 1445SOL    HW1 4339   2.127   1.790   2.399
 1445SOL    HW2 4340   2.137   1.713   2.255
 1446SOL     OW 4341   2.989   1.341   3.552
 1446SOL    HW1 4342   3.036   1.341   3.640
 1446SOL    HW2 4343   2.941   1.254   3.541
 1447SOL     OW 4344   2.092   1.434   2.400
 1447SOL    HW1 4345   2.066   1.530   2.400
 1447SOL    HW2 4346   2.021   1.380   2.445
 1448SOL     OW 4347   2.102   1.091   2.748
 1448SOL    HW1 4348   2.116   1.007   2.800
 1448SOL    HW2 4349   2.047   1.155   2.803
 1449SOL     OW 4350   2.482   1.786   3.301
 1449SOL    HW1 4351   2.390   1.769   3.336
 1449SOL    HW2 4352   2.510   1.878   3.327
 1450SOL     OW 4353   2.468   0.964   1.985
 1450SOL    HW1 4354   2.475   1.048   1.931
 1450SOL    HW2 4355   2.514   0.977   2.073
 1451SOL     OW 4356   3.456   0.114   3.342
 1451SOL    HW1 4357   3.438   0.181   3.270
 1451SOL    HW2 4358   3.453   0.160   3.431
 1452SOL     OW 4359   1.984   0.643   2.425
 1452SOL    HW1 4360   1.939   0.555   2.442
 1452SOL    HW2 4361   1.983   0.697   2.509
 1453SOL     OW 4362   3.704   1.767   2.221
 1453SOL    HW1 4363   3.758   1.738   2.301
 1453SOL    HW2 4364   3.734   1.857   2.192
 1454SOL     OW 4365   1.889   1.596   1.979
 1454SOL    HW1 4366   1.870   1.500   2.000
 1454SOL    HW2 4367   1.856   1.654   2.054
 1455SOL     OW 4368   3.551   0.922   2.474
 1455SOL    HW1 4369   3.646   0.893   2.482
 1455SOL    HW2 4370   3.543   0.987   2.399
 1456SOL     OW 4371   3.503   1.108   2.294
 1456SOL    HW1 4372   3.589   1.110   2.242
 1456SOL    HW2 4373   3.517   1.155   2.382
 1457SOL     OW 4374   1.975   0.737   3.459
 1457SOL    HW1 4375   2.063   0.724   3.504
 1457SOL    HW2 4376   1.962   0.834   3.437
 1458SOL     OW 4377   2.475   1.365   2.588
 1458SOL    HW1 4378   2.426   1.278   2.597
 1458SOL    HW2 4379   2.452   1.408   2.501
 1459SOL     OW 4380   3.155   1.228   3.285
 1459SOL    HW1 4381   3.192   1.155   3.227
 1459SOL    HW2 4382   3.207   1.233   3.370
 1460SOL     OW 4383   2.671   0.004   2.364
 1460SOL    HW1 4384   2.711   0.095   2.355
 1460SOL    HW2 4385   2.571   0.012   2.370
 1461SOL     OW 4386   2.059   0.976   3.126
 1461SOL    HW1 4387   2.148   0.931   3.112
 1461SOL    HW2 4388   1.986   0.911   3.107
 1462SOL     OW 4389   3.387   0.999   2.052
 1462SOL    HW1 4390   3.324   0.923   2.065
 1462SOL    HW2 4391   3.435   1.017   2.138
 1463SOL     OW 4392   3.049   1.792   3.478
 1463SOL    HW1 4393   3.073   1.852   3.402
 1463SOL    HW2 4394   3.056   1.697   3.448
 1464SOL     OW 4395   2.179   0.251   3.663
 1464SOL    HW1 4396   2.250   0.322   3.669
 1464SOL    HW2 4397   2.091   0.290   3.691
 1465SOL     OW 4398   3.328   1.417   2.815
 1465SOL    HW1 4399   3.269   1.423   2.895
 1465SOL    HW2 4400   3.313   1.329   2.769
 1466SOL     OW 4401   3.529   1.714   2.434
 1466SOL    HW1 4402   3.488   1.691   2.346
 1466SOL    HW2 4403   3.511   1.640   2.499
 1467SOL     OW 4404   2.460   0.729   2.132
 1467SOL    HW1 4405   2.484   0.798   2.064
 1467SOL    HW2 4406   2.382   0.762   2.186
 1468SOL     OW 4407   3.143   0.345   2.806
 1468SOL    HW1 4408   3.057   0.295   2.793
 1468SOL    HW2 4409   3.205   0.291   2.862
 1469SOL     OW 4410   3.438   1.662   2.169
 1469SOL    HW1 4411   3.527   1.708   2.172
 1469SOL    HW2 4412   3.417   1.638   2.074
 1470SOL     OW 4413   2.669   0.605   3.327
 1470SOL    HW1 4414   2.622   0.602   3.416
 1470SOL    HW2 4415   2.618   0.550   3.261
 1471SOL     OW 4416   3.256   0.469   3.536
 1471SOL    HW1 4417   3.236   0.512   3.624
 1471SOL    HW2 4418   3.334   0.407   3.545
 1472SOL     OW 4419   2.835   0.890   3.434
 1472SOL    HW1 4420   2.881   0.806   3.405
 1472SOL    HW2 4421   2.779   0.924   3.359
 1473SOL     OW 4422   2.853   0.410   3.104
 1473SOL    HW1 4423   2.776   0.444   3.158
 1473SOL    HW2 4424   2.819   0.359   3.025
 1474SOL     OW 4425   2.903   0.701   2.291
 1474SOL    HW1 4426   2.929   0.697   2.387
 1474SOL    HW2 4427   2.818   0.650   2.277
 1475SOL     OW 4428   1.938   0.811   2.651
 1475SOL    HW1 4429   2.037   0.799   2.660
 1475SOL    HW2 4430   1.914   0.906   2.672
 1476SOL     OW 4431   1.992   1.821   3.433
 1476SOL    HW1 4432   1.982   1.806   3.532
 1476SOL    HW2 4433   1.906   1.857   3.397
 1477SOL     OW 4434   2.727   0.348   2.057
 1477SOL    HW1 4435   2.786   0.411   2.008
 1477SOL    HW2 4436   2.746   0.254   2.028
 1478SOL     OW 4437   3.581   0.585   3.693
 1478SOL    HW1 4438   3.555   0.674   3.657
 1478SOL    HW2 4439   3.579   0.517   3.620
 1479SOL     OW 4440   3.224   1.144   2.407
 1479SOL    HW1 4441   3.307   1.115   2.359
 1479SOL    HW2 4442   3.175   1.211   2.351
 1480SOL     OW 4443   2.412   0.196   2.747
 1480SOL    HW1 4444   2.407   0.191   2.847
 1480SOL    HW2 4445   2.414   0.292   2.718
 1481SOL     OW 4446   2.870   1.456   2.339
 1481SOL    HW1 4447   2.824   1.528   2.287
 1481SOL    HW2 4448   2.866   1.476   2.437
 1482SOL     OW 4449   2.213   1.801   2.715
 1482SOL    HW1 4450   2.263   1.715   2.721
 1482SOL    HW2 4451   2.278   1.878   2.712
 1483SOL     OW 4452   3.657   1.066   2.735
 1483SOL    HW1 4453   3.595   1.051   2.659
 1483SOL    HW2 4454   3.605   1.077   2.820
 1484SOL     OW 4455   3.089   1.550   3.368
 1484SOL    HW1 4456   3.095   1.473   3.432
 1484SOL    HW2 4457   3.037   1.524   3.288
 1485SOL     OW 4458   2.183   0.943   2.104
 1485SOL    HW1 4459   2.265   0.982   2.062
 1485SOL    HW2 4460   2.156   0.861   2.055
 1486SOL     OW 4461   3.320   0.735   2.590
 1486SOL    HW1 4462   3.315   0.670   2.665
 1486SOL    HW2 4463   3.400   0.794   2.603
 1487SOL     OW 4464   2.323   1.266   3.589
 1487SOL    HW1 4465   2.273   1.267   3.503
 1487SOL    HW2 4466   2.260   1.248   3.665
 1488SOL     OW 4467   2.973   1.776   2.099
 1488SOL    HW1 4468   2.913   1.714   2.149
 1488SOL    HW2 4469   3.004   1.732   2.014
 1489SOL     OW 4470   2.064   0.285   3.360
 1489SOL    HW1 4471   1.984   0.345   3.347
 1489SOL    HW2 4472   2.054   0.236   3.446
 1490SOL     OW 4473   3.494   1.377   1.943
 1490SOL    HW1 4474   3.462   1.471   1.933
 1490SOL    HW2 4475   3.418   1.314   1.931
 1491SOL     OW 4476   2.326   1.743   2.185
 1491SOL    HW1 4477   2.359   1.782   2.271
 1491SOL    HW2 4478   2.402   1.736   2.120
 1492SOL     OW 4479   3.262   0.107   2.288
 1492SOL    HW1 4480   3.238   0.070   2.198
 1492SOL    HW2 4481   3.361   0.123   2.292
 1493SOL     OW 4482   2.111   1.785   3.103
 1493SOL    HW1 4483   2.168   1.720   3.153
 1493SOL    HW2 4484   2.095   1.752   3.010
 1494SOL     OW 4485   2.802   1.698   2.766
 1494SOL    HW1 4486   2.882   1.641   2.787
 1494SOL    HW2 4487   2.753   1.658   2.689
 1495SOL     OW 4488   2.244   0.700   2.342
 1495SOL    HW1 4489   2.289   0.610   2.339
 1495SOL    HW2 4490   2.150   0.689   2.375
 1496SOL     OW 4491   3.409   0.222   3.591
 1496SOL    HW1 4492   3.404   0.259   3.683
 1496SOL    HW2 4493   3.337   0.153   3.579
 1497SOL     OW 4494   2.476   0.122   1.979
 1497SOL    HW1 4495   2.574   0.100   1.986
 1497SOL    HW2 4496   2.445   0.105   1.886
 1498SOL     OW 4497   2.643   0.264   3.611
 1498SOL    HW1 4498   2.710   0.203   3.654
 1498SOL    HW2 4499   2.570   0.283   3.676
 1499SOL     OW 4500   2.750   1.514   3.057
 1499SOL    HW1 4501   2.727   1.489   2.963
 1499SOL    HW2 4502   2.811   1.445   3.096
 1500SOL     OW 4503   3.213   0.590   3.295
 1500SOL    HW1 4504   3.241   0.547   3.380
 1500SOL    HW2 4505   3.238   0.686   3.296
 1501SOL     OW 4506   2.665   1.402   2.786
 1501SOL    HW1 4507   2.755   1.416   2.744
 1501SOL    HW2 4508   2.594   1.404   2.715
 1502SOL     OW 4509   2.784   0.503   2.761
 1502SOL    HW1 4510   2.759   0.494   2.665
 1502SOL    HW2 4511   2.832   0.421   2.792
 1503SOL     OW 4512   2.401   0.064   2.374
 1503SOL    HW1 4513   2.320   0.065   2.432
 1503SOL    HW2 4514   2.404   0.147   2.319
 1504SOL     OW 4515   3.296   1.188   1.903
 1504SOL    HW1 4516   3.328   1.112   1.960
 1504SOL    HW2 4517   3.204   1.215   1.933
 1505SOL     OW 4518   2.159   0.035   2.033
 1505SOL    HW1 4519   2.208   0.119   2.012
 1505SOL    HW2 4520   2.221  -0.030   2.078
 1506SOL     OW 4521   2.797   0.236   2.342
 1506SOL    HW1 4522   2.749   0.277   2.264
 1506SOL    HW2 4523   2.896   0.234   2.323
 1507SOL     OW 4524   2.938   0.683   3.326
 1507SOL    HW1 4525   2.858   0.622   3.329
 1507SOL    HW2 4526   3.019   0.630   3.302
 1508SOL     OW 4527   3.089   1.570   2.655
 1508SOL    HW1 4528   3.110   1.644   2.590
 1508SOL    HW2 4529   3.157   1.570   2.728
 1509SOL     OW 4530   2.321   1.152   2.603
 1509SOL    HW1 4531   2.250   1.125   2.668
 1509SOL    HW2 4532   2.295   1.124   2.510
 1510SOL     OW 4533   3.133   1.797   2.453
 1510SOL    HW1 4534   3.177   1.861   2.389
 1510SOL    HW2 4535   3.083   1.849   2.523
 1511SOL     OW 4536   2.894   0.549   1.878
 1511SOL    HW1 4537   2.853   0.631   1.839
 1511SOL    HW2 4538   2.958   0.575   1.951
 1512SOL     OW 4539   1.940   0.556   3.248
 1512SOL    HW1 4540   2.032   0.555   3.207
 1512SOL    HW2 4541   1.934   0.630   3.315
 1513SOL     OW 4542   2.423   0.222   3.009
 1513SOL    HW1 4543   2.461   0.138   3.046
 1513SOL    HW2 4544   2.335   0.241   3.053
 1514SOL     OW 4545   2.728   0.454   2.504
 1514SOL    HW1 4546   2.696   0.526   2.442
 1514SOL    HW2 4547   2.752   0.373   2.451
 1515SOL     OW 4548   2.879   0.039   2.615
 1515SOL    HW1 4549   2.807   0.044   2.546
 1515SOL    HW2 4550   2.855  -0.030   2.684
 1516SOL     OW 4551   3.291   1.173   2.729
 1516SOL    HW1 4552   3.236   1.089   2.722
 1516SOL    HW2 4553   3.317   1.202   2.637
 1517SOL     OW 4554   3.328   0.590   2.854
 1517SOL    HW1 4555   3.298   0.495   2.861
 1517SOL    HW2 4556   3.401   0.606   2.920
 1518SOL     OW 4557   3.719   0.833   2.239
 1518SOL    HW1 4558   3.761   0.769   2.303
 1518SOL    HW2 4559   3.681   0.782   2.161
 1519SOL     OW 4560   2.350   1.385   2.036
 1519SOL    HW1 4561   2.263   1.370   2.083
 1519SOL    HW2 4562   2.333   1.411   1.941
 1520SOL     OW 4563   3.526   1.280   2.519
 1520SOL    HW1 4564   3.625   1.288   2.533
 1520SOL    HW2 4565   3.481   1.364   2.550
 1521SOL     OW 4566   3.252   0.575   1.940
 1521SOL    HW1 4567   3.198   0.554   2.021
 1521SOL    HW2 4568   3.343   0.534   1.949
 1522SOL     OW 4569   2.389   0.256   2.190
 1522SOL    HW1 4570   2.416   0.197   2.115
 1522SOL    HW2 4571   2.389   0.351   2.159
 1523SOL     OW 4572   3.616   1.223   3.450
 1523SOL    HW1 4573   3.707   1.184   3.437
 1523SOL    HW2 4574   3.624   1.319   3.474
 1524SOL     OW 4575   2.926   1.347   3.202
 1524SOL    HW1 4576   2.846   1.324   3.257
 1524SOL    HW2 4577   3.009   1.321   3.251
 1525SOL     OW 4578   3.454   1.629   3.487
 1525SOL    HW1 4579   3.481   1.663   3.397
 1525SOL    HW2 4580   3.533   1.591   3.533
 1526SOL     OW 4581   2.973   1.195   2.962
 1526SOL    HW1 4582   2.933   1.239   3.043
 1526SOL    HW2 4583   2.932   1.232   2.879
 1527SOL     OW 4584   3.500   1.099   2.941
 1527SOL    HW1 4585   3.505   1.180   3.000
 1527SOL    HW2 4586   3.414   1.101   2.890
 1528SOL     OW 4587   2.777   0.089   3.264
 1528SOL    HW1 4588   2.802   0.069   3.169
 1528SOL    HW2 4589   2.849   0.145   3.306
 1529SOL     OW 4590   2.842   1.116   3.581
 1529SOL    HW1 4591   2.743   1.122   3.591
 1529SOL    HW2 4592   2.865   1.036   3.525
 1530SOL     OW 4593   2.567   1.050   2.230
 1530SOL    HW1 4594   2.553   1.057   2.329
 1530SOL    HW2 4595   2.651   0.999   2.212
 1531SOL     OW 4596   2.272   0.813   3.113
 1531SOL    HW1 4597   2.358   0.825   3.163
 1531SOL    HW2 4598   2.230   0.726   3.140
 1532SOL     OW 4599   3.136   0.386   3.124
 1532SOL    HW1 4600   3.157   0.460   3.188
 1532SOL    HW2 4601   3.047   0.403   3.081
 1533SOL     OW 4602   1.926   1.564   3.193
 1533SOL    HW1 4603   1.880   1.646   3.159
 1533SOL    HW2 4604   2.024   1.583   3.202
 1534SOL     OW 4605   2.229   1.100   2.363
 1534SOL    HW1 4606   2.222   1.183   2.307
 1534SOL    HW2 4607   2.233   1.020   2.303
 1535SOL     OW 4608   2.428   0.537   2.727
 1535SOL    HW1 4609   2.440   0.603   2.653
 1535SOL    HW2 4610   2.474   0.571   2.810
 1536SOL     OW 4611   3.114   1.348   2.250
 1536SOL    HW1 4612   3.164   1.425   2.290
 1536SOL    HW2 4613   3.019   1.350   2.282
 1537SOL     OW 4614   3.134   1.445   3.004
 1537SOL    HW1 4615   3.181   1.458   3.091
 1537SOL    HW2 4616   3.068   1.371   3.013
 1538SOL     OW 4617   3.444   0.639   2.334
 1538SOL    HW1 4618   3.413   0.700   2.407
 1538SOL    HW2 4619   3.494   0.691   2.265
 1539SOL     OW 4620   2.216   1.510   3.191
 1539SOL    HW1 4621   2.195   1.466   3.104
 1539SOL    HW2 4622   2.313   1.536   3.194
 1540SOL     OW 4623   2.264   0.751   3.460
 1540SOL    HW1 4624   2.332   0.806   3.413
 1540SOL    HW2 4625   2.304   0.663   3.487
 1541SOL     OW 4626   3.449   0.779   3.532
 1541SOL    HW1 4627   3.357   0.817   3.527
 1541SOL    HW2 4628   3.509   0.826   3.467
 1542SOL     OW 4629   2.875   0.105   3.632
 1542SOL    HW1 4630   2.881   0.190   3.580
 1542SOL    HW2 4631   2.907   0.029   3.575
 1543SOL     OW 4632   2.366   0.050   3.602
 1543SOL    HW1 4633   2.324  -0.007   3.532
 1543SOL    HW2 4634   2.300   0.119   3.634
 1544SOL     OW 4635   2.435   0.870   2.891
 1544SOL    HW1 4636   2.479   0.959   2.882
 1544SOL    HW2 4637   2.372   0.870   2.968
 1545SOL     OW 4638   3.222   0.862   2.907
 1545SOL    HW1 4639   3.147   0.862   2.841
 1545SOL    HW2 4640   3.259   0.770   2.916
 1546SOL     OW 4641   3.071   0.525   2.137
 1546SOL    HW1 4642   3.084   0.441   2.191
 1546SOL    HW2 4643   3.042   0.599   2.197
 1547SOL     OW 4644   2.169   0.213   3.093
 1547SOL    HW1 4645   2.146   0.250   3.183
 1547SOL    HW2 4646   2.139   0.118   3.087
 1548SOL     OW 4647   1.899   1.310   3.144
 1548SOL    HW1 4648   1.952   1.261   3.212
 1548SOL    HW2 4649   1.921   1.408   3.149
 1549SOL     OW 4650   2.594   0.634   2.926
 1549SOL    HW1 4651   2.653   0.608   2.850
 1549SOL    HW2 4652   2.566   0.730   2.915
 1550SOL     OW 4653   3.590   0.935   3.716
 1550SOL    HW1 4654   3.544   0.928   3.627
 1550SOL    HW2 4655   3.528   0.979   3.782
 1551SOL     OW 4656   2.169   0.063   2.480
 1551SOL    HW1 4657   2.158   0.157   2.513
 1551SOL    HW2 4658   2.164   0.000   2.557
 1552SOL     OW 4659   3.484   0.367   2.236
 1552SOL    HW1 4660   3.486   0.291   2.300
 1552SOL    HW2 4661   3.436   0.444   2.276
 1553SOL     OW 4662   2.885   0.766   2.828
 1553SOL    HW1 4663   2.900   0.787   2.924
 1553SOL    HW2 4664   2.855   0.671   2.819
 1554SOL     OW 4665   2.842   1.573   3.562
 1554SOL    HW1 4666   2.822   1.617   3.474
 1554SOL    HW2 4667   2.881   1.482   3.546
 1555SOL     OW 4668   3.721   1.518   3.467
 1555SOL    HW1 4669   3.735   1.545   3.372
 1555SOL    HW2 4670   3.804   1.540   3.520
 1556SOL     OW 4671   2.212   0.898   3.666
 1556SOL    HW1 4672   2.288   0.942   3.714
 1556SOL    HW2 4673   2.247   0.851   3.584
 1557SOL     OW 4674   3.402   0.274   1.987
 1557SOL    HW1 4675   3.341   0.199   2.010
 1557SOL    HW2 4676   3.424   0.326   2.070
 1558SOL     OW 4677   3.165   0.838   1.904
 1558SOL    HW1 4678   3.199   0.745   1.919
 1558SOL    HW2 4679   3.183   0.865   1.809
 1559SOL     OW 4680   2.930   1.333   2.711
 1559SOL    HW1 4681   2.937   1.249   2.656
 1559SOL    HW2 4682   2.992   1.402   2.675
 1560SOL     OW 4683   2.181   0.810   2.811
 1560SOL    HW1 4684   2.274   0.846   2.816
 1560SOL    HW2 4685   2.175   0.725   2.863
 1561SOL     OW 4686   2.201   0.509   2.868
 1561SOL    HW1 4687   2.149   0.426   2.851
 1561SOL    HW2 4688   2.278   0.514   2.804
 1562SOL     OW 4689   3.000   0.380   3.540
 1562SOL    HW1 4690   2.955   0.443   3.604
 1562SOL    HW2 4691   3.093   0.411   3.523
 1563SOL     OW 4692   3.022   0.207   3.339
 1563SOL    HW1 4693   3.022   0.271   3.416
 1563SOL    HW2 4694   3.050   0.255   3.256
 1564SOL     OW 4695   1.870   1.326   2.062
 1564SOL    HW1 4696   1.777   1.347   2.031
 1564SOL    HW2 4697   1.880   1.227   2.075
 1565SOL     OW 4698   1.950   1.801   2.789
 1565SOL    HW1 4699   1.908   1.715   2.762
 1565SOL    HW2 4700   2.044   1.804   2.755
 1566SOL     OW 4701   2.366   1.568   2.772
 1566SOL    HW1 4702   2.432   1.642   2.781
 1566SOL    HW2 4703   2.410   1.489   2.730
 1567SOL     OW 4704   2.864   0.796   3.100
 1567SOL    HW1 4705   2.905   0.764   3.186
 1567SOL    HW2 4706   2.768   0.769   3.097
 1568SOL     OW 4707   1.902   0.544   2.976
 1568SOL    HW1 4708   1.987   0.511   2.935
 1568SOL    HW2 4709   1.915   0.559   3.074
 1569SOL     OW 4710   2.051   0.520   3.584
 1569SOL    HW1 4711   2.110   0.480   3.514
 1569SOL    HW2 4712   1.993   0.591   3.543
 1570SOL     OW 4713   3.231   0.950   3.522
 1570SOL    HW1 4714   3.270   1.039   3.542
 1570SOL    HW2 4715   3.241   0.930   3.425
 1571SOL     OW 4716   2.677   0.572   2.187
 1571SOL    HW1 4717   2.684   0.483   2.141
 1571SOL    HW2 4718   2.583   0.606   2.179
 1572SOL     OW 4719   3.519   0.604   3.068
 1572SOL    HW1 4720   3.481   0.535   3.130
 1572SOL    HW2 4721   3.601   0.568   3.024
 1573SOL     OW 4722   2.114   1.564   3.606
 1573SOL    HW1 4723   2.084   1.621   3.682
 1573SOL    HW2 4724   2.107   1.467   3.632
 1574SOL     OW 4725   2.533   0.464   3.131
 1574SOL    HW1 4726   2.499   0.375   3.101
 1574SOL    HW2 4727   2.559   0.518   3.051
 1575SOL     OW 4728   2.792   1.678   3.327
 1575SOL    HW1 4729   2.768   1.660   3.232
 1575SOL    HW2 4730   2.822   1.772   3.337
 1576SOL     OW 4731   2.335   0.500   2.053
 1576SOL    HW1 4732   2.396   0.580   2.057
 1576SOL    HW2 4733   2.240   0.531   2.060
 1577SOL     OW 4734   2.021   1.137   3.328
 1577SOL    HW1 4735   2.043   1.076   3.404
 1577SOL    HW2 4736   2.031   1.088   3.242
 1578SOL     OW 4737   3.209   1.059   3.096
 1578SOL    HW1 4738   3.233   0.996   3.022
 1578SOL    HW2 4739   3.119   1.099   3.078
 1579SOL     OW 4740   3.164   0.855   2.171
 1579SOL    HW1 4741   3.078   0.824   2.213
 1579SOL    HW2 4742   3.160   0.841   2.072
 1580SOL     OW 4743   3.621   1.747   3.016
 1580SOL    HW1 4744   3.682   1.777   2.943
 1580SOL    HW2 4745   3.583   1.658   2.994
 1581SOL     OW 4746   3.114   1.731   2.990
 1581SOL    HW1 4747   3.198   1.736   2.936
 1581SOL    HW2 4748   3.091   1.635   3.008
 1582SOL     OW 4749   1.945   1.258   2.884
 1582SOL    HW1 4750   1.940   1.257   2.984
 1582SOL    HW2 4751   1.862   1.217   2.846
 1583SOL     OW 4752   2.550   1.662   3.578
 1583SOL    HW1 4753   2.494   1.743   3.587
 1583SOL    HW2 4754   2.602   1.666   3.492
 1584SOL     OW 4755   3.588   0.135   2.385
 1584SOL    HW1 4756   3.661   0.118   2.318
 1584SOL    HW2 4757   3.557   0.048   2.423
 1585SOL     OW 4758   3.250   1.573   2.339
 1585SOL    HW1 4759   3.317   1.585   2.265
 1585SOL    HW2 4760   3.210   1.662   2.362
 1586SOL     OW 4761   1.992   1.794   3.713
 1586SOL    HW1 4762   1.951   1.720   3.766
 1586SOL    HW2 4763   2.056   1.845   3.771
 1587SOL     OW 4764   3.142   0.927   2.534
 1587SOL    HW1 4765   3.202   0.846   2.536
 1587SOL    HW2 4766   3.182   0.996   2.474
 1588SOL     OW 4767   2.692   1.273   3.284
 1588SOL    HW1 4768   2.687   1.306   3.379
 1588SOL    HW2 4769   2.606   1.292   3.238
 1589SOL     OW 4770   2.534   1.616   2.016
 1589SOL    HW1 4771   2.543   1.626   1.917
 1589SOL    HW2 4772   2.494   1.527   2.037
 1590SOL     OW 4773   3.512   1.720   3.256
 1590SOL    HW1 4774   3.565   1.730   3.172
 1590SOL    HW2 4775   3.485   1.810   3.290
 1591SOL     OW 4776   3.703   0.175   2.825
 1591SOL    HW1 4777   3.742   0.090   2.789
 1591SOL    HW2 4778   3.605   0.177   2.806
 1592SOL     OW 4779   2.125   0.326   2.582
 1592SOL    HW1 4780   2.046   0.377   2.548
 1592SOL    HW2 4781   2.116   0.311   2.680
 1593SOL     OW 4782   3.056   1.612   1.893
 1593SOL    HW1 4783   3.062   1.519   1.930
 1593SOL    HW2 4784   2.997   1.612   1.813
 1594SOL     OW 4785   2.684   1.002   3.234
 1594SOL    HW1 4786   2.724   1.001   3.142
 1594SOL    HW2 4787   2.694   1.094   3.274
 1595SOL     OW 4788   2.778   0.910   2.153
 1595SOL    HW1 4789   2.841   0.948   2.085
 1595SOL    HW2 4790   2.818   0.827   2.192
 1596SOL     OW 4791   3.366   1.607   1.906
 1596SOL    HW1 4792   3.274   1.644   1.913
 1596SOL    HW2 4793   3.404   1.627   1.816
 1597SOL     OW 4794   2.234   1.288   3.352
 1597SOL    HW1 4795   2.221   1.381   3.318
 1597SOL    HW2 4796   2.150   1.236   3.339
 1598SOL     OW 4797   3.476   1.292   3.151
 1598SOL    HW1 4798   3.536   1.295   3.231
 1598SOL    HW2 4799   3.401   1.356   3.164
 1599SOL     OW 4800   2.901   1.098   2.558
 1599SOL    HW1 4801   2.831   1.051   2.612
 1599SOL    HW2 4802   2.960   1.030   2.515
 1600SOL     OW 4803   2.876   0.236   2.833
 1600SOL    HW1 4804   2.868   0.200   2.740
 1600SOL    HW2 4805   2.874   0.160   2.898
 1601SOL     OW 4806   2.452   1.487   2.353
 1601SOL    HW1 4807   2.494   1.429   2.283
 1601SOL    HW2 4808   2.408   1.566   2.309
 1602SOL     OW 4809   3.571   0.385   3.243
 1602SOL    HW1 4810   3.644   0.454   3.247
 1602SOL    HW2 4811   3.599   0.310   3.184
 1603SOL     OW 4812   2.117   1.348   2.152
 1603SOL    HW1 4813   2.021   1.349   2.125
 1603SOL    HW2 4814   2.129   1.401   2.236
 1604SOL     OW 4815   1.967   1.013   3.588
 1604SOL    HW1 4816   1.890   0.980   3.642
 1604SOL    HW2 4817   2.052   0.983   3.630
 1605SOL     OW 4818   2.534   0.203   3.351
 1605SOL    HW1 4819   2.624   0.187   3.311
 1605SOL    HW2 4820   2.542   0.208   3.450
 1606SOL     OW 4821   1.937   0.345   1.895
 1606SOL    HW1 4822   1.845   0.317   1.866
 1606SOL    HW2 4823   1.968   0.422   1.839
 1607SOL     OW 4824   3.302   0.856   3.260
 1607SOL    HW1 4825   3.245   0.908   3.197
 1607SOL    HW2 4826   3.398   0.868   3.236
 1608SOL     OW 4827   1.934   0.166   2.180
 1608SOL    HW1 4828   1.917   0.249   2.126
 1608SOL    HW2 4829   2.024   0.129   2.158
 1609SOL     OW 4830   3.045   1.335   1.981
 1609SOL    HW1 4831   2.946   1.324   1.983
 1609SOL    HW2 4832   3.079   1.350   2.074
 1610SOL     OW 4833   2.475   0.842   3.293
 1610SOL    HW1 4834   2.531   0.923   3.276
 1610SOL    HW2 4835   2.534   0.762   3.296
 1611SOL     OW 4836   3.355   1.767   2.821
 1611SOL    HW1 4837   3.388   1.831   2.752
 1611SOL    HW2 4838   3.421   1.761   2.896
 1612SOL     OW 4839   2.578   0.565   3.570
 1612SOL    HW1 4840   2.597   0.630   3.644
 1612SOL    HW2 4841   2.638   0.485   3.579
 1613SOL     OW 4842   3.312   1.220   3.495
 1613SOL    HW1 4843   3.303   1.210   3.594
 1613SOL    HW2 4844   3.408   1.213   3.469
 1614SOL     OW 4845   2.252   1.741   3.422
 1614SOL    HW1 4846   2.161   1.782   3.420
 1614SOL    HW2 4847   2.245   1.647   3.454
 1615SOL     OW 4848   3.536   0.883   3.116
 1615SOL    HW1 4849   3.509   0.794   3.079
 1615SOL    HW2 4850   3.537   0.951   3.043
 1616SOL     OW 4851   3.087   0.325   2.311
 1616SOL    HW1 4852   3.152   0.251   2.300
 1616SOL    HW2 4853   3.107   0.375   2.395
 1617SOL     OW 4854   2.456   0.745   2.514
 1617SOL    HW1 4855   2.506   0.830   2.495
 1617SOL    HW2 4856   2.368   0.747   2.466
 1618SOL     OW 4857   3.639   0.342   3.504
 1618SOL    HW1 4858   3.622   0.373   3.410
 1618SOL    HW2 4859   3.555   0.305   3.542
 1619SOL     OW 4860   3.592   0.934   3.379
 1619SOL    HW1 4861   3.630   1.025   3.394
 1619SOL    HW2 4862   3.584   0.917   3.280
 1620SOL     OW 4863   2.721   1.374   1.878
 1620SOL    HW1 4864   2.675   1.389   1.966
 1620SOL    HW2 4865   2.765   1.459   1.848
 1621SOL     OW 4866   2.523   1.790   2.815
 1621SOL    HW1 4867   2.477   1.878   2.802
 1621SOL    HW2 4868   2.622   1.802   2.808
 1622SOL     OW 4869   2.721   0.956   2.723
 1622SOL    HW1 4870   2.775   0.887   2.771
 1622SOL    HW2 4871   2.689   1.025   2.789
 1623SOL     OW 4872   2.945   0.984   1.949
 1623SOL    HW1 4873   2.922   1.037   1.867
 1623SOL    HW2 4874   3.026   0.928   1.930
 1624SOL     OW 4875   3.723   1.569   2.713
 1624SOL    HW1 4876   3.652   1.557   2.643
 1624SOL    HW2 4877   3.724   1.490   2.773
 1625SOL     OW 4878   2.083   1.314   3.706
 1625SOL    HW1 4879   2.018   1.241   3.685
 1625SOL    HW2 4880   2.087   1.328   3.804
 1626SOL     OW 4881   1.941   1.240   2.515
 1626SOL    HW1 4882   1.940   1.193   2.603
 1626SOL    HW2 4883   2.023   1.212   2.464
 1627SOL     OW 4884   2.534   1.391   3.486
 1627SOL    HW1 4885   2.456   1.341   3.524
 1627SOL    HW2 4886   2.531   1.486   3.517
 1628SOL     OW 4887   3.686   0.192   3.089
 1628SOL    HW1 4888   3.682   0.102   3.133
 1628SOL    HW2 4889   3.689   0.181   2.990
 1629SOL     OW 4890   2.290   0.424   2.382
 1629SOL    HW1 4891   2.320   0.352   2.320
 1629SOL    HW2 4892   2.251   0.384   2.465
 1630SOL     OW 4893   3.567   1.487   2.966
 1630SOL    HW1 4894   3.474   1.462   2.939
 1630SOL    HW2 4895   3.593   1.437   3.048
 1631SOL     OW 4896   2.179   0.547   3.142
 1631SOL    HW1 4897   2.217   0.488   3.214
 1631SOL    HW2 4898   2.219   0.521   3.054
 1632SOL     OW 4899   2.674   1.586   2.549
 1632SOL    HW1 4900   2.706   1.596   2.455
 1632SOL    HW2 4901   2.595   1.524   2.551
 1633SOL     OW 4902   3.286   0.214   2.974
 1633SOL    HW1 4903   3.338   0.149   3.029
 1633SOL    HW2 4904   3.237   0.277   3.035
 1634SOL     OW 4905   2.863   0.034   3.016
 1634SOL    HW1 4906   2.800  -0.038   2.985
 1634SOL    HW2 4907   2.956  -0.002   3.016
 1635SOL     OW 4908   2.632   1.330   2.163
 1635SOL    HW1 4909   2.586   1.243   2.180
 1635SOL    HW2 4910   2.723   1.327   2.204
 1636SOL     OW 4911   2.480   1.567   3.146
 1636SOL    HW1 4912   2.475   1.649   3.203
 1636SOL    HW2 4913   2.569   1.564   3.101
 1637SOL     OW 4914   3.214   0.052   2.030
 1637SOL    HW1 4915   3.249   0.011   1.946
 1637SOL    HW2 4916   3.124   0.014   2.050
 1638SOL     OW 4917   3.162   0.453   2.553
 1638SOL    HW1 4918   3.103   0.533   2.557
 1638SOL    HW2 4919   3.177   0.418   2.646
 1639SOL     OW 4920   3.455   0.221   2.744
 1639SOL    HW1 4921   3.371   0.220   2.798
 1639SOL    HW2 4922   3.457   0.304   2.688
 1640SOL     OW 4923   1.901   1.077   2.162
 1640SOL    HW1 4924   2.000   1.066   2.153
 1640SOL    HW2 4925   1.861   0.991   2.194
 1641SOL     OW 4926   2.737   1.646   2.199
 1641SOL    HW1 4927   2.660   1.611   2.145
 1641SOL    HW2 4928   2.705   1.717   2.261
 1642SOL     OW 4929   2.092   0.628   3.837
 1642SOL    HW1 4930   1.999   0.626   3.874
 1642SOL    HW2 4931   2.093   0.589   3.745
 1643SOL     OW 4932   2.087   0.275   4.720
 1643SOL    HW1 4933   2.122   0.258   4.812
 1643SOL    HW2 4934   1.999   0.230   4.708
 1644SOL     OW 4935   3.617   0.607   3.955
 1644SOL    HW1 4936   3.605   0.594   3.856
 1644SOL    HW2 4937   3.587   0.526   4.004
 1645SOL     OW 4938   3.465   0.447   4.461
 1645SOL    HW1 4939   3.391   0.493   4.411
 1645SOL    HW2 4940   3.516   0.515   4.514
 1646SOL     OW 4941   2.093   1.713   4.207
 1646SOL    HW1 4942   2.127   1.790   4.261
 1646SOL    HW2 4943   2.137   1.713   4.117
 1647SOL     OW 4944   2.092   1.434   4.262
 1647SOL    HW1 4945   2.066   1.530   4.262
 1647SOL    HW2 4946   2.021   1.380   4.307
 1648SOL     OW 4947   2.468   0.964   3.847
 1648SOL    HW1 4948   2.475   1.048   3.793
 1648SOL    HW2 4949   2.514   0.977   3.935
 1649SOL     OW 4950   1.984   0.643   4.287
 1649SOL    HW1 4951   1.939   0.555   4.304
 1649SOL    HW2 4952   1.983   0.697   4.371
 1650SOL     OW 4953   3.704   1.767   4.083
 1650SOL    HW1 4954   3.758   1.738   4.163
 1650SOL    HW2 4955   3.734   1.857   4.054
 1651SOL     OW 4956   1.889   1.596   3.841
 1651SOL    HW1 4957   1.870   1.500   3.862
 1651SOL    HW2 4958   1.856   1.654   3.916
 1652SOL     OW 4959   3.551   0.922   4.336
 1652SOL    HW1 4960   3.646   0.893   4.344
 1652SOL    HW2 4961   3.543   0.987   4.261
 1653SOL     OW 4962   3.503   1.108   4.156
 1653SOL    HW1 4963   3.589   1.110   4.104
 1653SOL    HW2 4964   3.517   1.155   4.244
 1654SOL     OW 4965   2.475   1.365   4.450
 1654SOL    HW1 4966   2.426   1.278   4.459
 1654SOL    HW2 4967   2.452   1.408   4.363
 1655SOL     OW 4968   2.671   0.004   4.226
 1655SOL    HW1 4969   2.711   0.095   4.217
 1655SOL    HW2 4970   2.571   0.012   4.232
 1656SOL     OW 4971   3.387   0.999   3.914
 1656SOL    HW1 4972   3.324   0.923   3.927
 1656SOL    HW2 4973   3.435   1.017   4.000
 1657SOL     OW 4974   3.328   1.417   4.677
 1657SOL    HW1 4975   3.269   1.423   4.757
 1657SOL    HW2 4976   3.313   1.329   4.631
 1658SOL     OW 4977   2.460   0.729   3.994
 1658SOL    HW1 4978   2.484   0.798   3.926
 1658SOL    HW2 4979   2.382   0.762   4.048
 1659SOL     OW 4980   3.143   0.345   4.668
 1659SOL    HW1 4981   3.057   0.295   4.655
 1659SOL    HW2 4982   3.205   0.291   4.724
 1660SOL     OW 4983   3.438   1.662   4.031
 1660SOL    HW1 4984   3.527   1.708   4.034
 1660SOL    HW2 4985   3.417   1.638   3.936
 1661SOL     OW 4986   2.903   0.701   4.153
 1661SOL    HW1 4987   2.929   0.697   4.249
 1661SOL    HW2 4988   2.818   0.650   4.139
 1662SOL     OW 4989   1.938   0.811   4.513
 1662SOL    HW1 4990   2.037   0.799   4.522
 1662SOL    HW2 4991   1.914   0.906   4.534
 1663SOL     OW 4992   2.727   0.348   3.919
 1663SOL    HW1 4993   2.786   0.411   3.870
 1663SOL    HW2 4994   2.746   0.254   3.890
 1664SOL     OW 4995   3.224   1.144   4.269
 1664SOL    HW1 4996   3.307   1.115   4.221
 1664SOL    HW2 4997   3.175   1.211   4.213
 1665SOL     OW 4998   2.870   1.456   4.201
 1665SOL    HW1 4999   2.824   1.528   4.149
 1665SOL    HW2 5000   2.866   1.476   4.299
 1666SOL     OW 5001   2.213   1.801   4.577
 1666SOL    HW1 5002   2.263   1.715   4.583
 1666SOL    HW2 5003   2.278   1.878   4.574
 1667SOL     OW 5004   3.657   1.066   4.597
 1667SOL    HW1 5005   3.595   1.051   4.521
 1667SOL    HW2 5006   3.605   1.077   4.682
 1668SOL     OW 5007   2.183   0.943   3.966
 1668SOL    HW1 5008   2.265   0.982   3.924
 1668SOL    HW2 5009   2.156   0.861   3.917
 1669SOL     OW 5010   2.973   1.776   3.961
 1669SOL    HW1 5011   2.913   1.714   4.011
 1669SOL    HW2 5012   3.004   1.732   3.876
 1670SOL     OW 5013   3.494   1.377   3.805
 1670SOL    HW1 5014   3.462   1.471   3.795
 1670SOL    HW2 5015   3.418   1.314   3.793
 1671SOL     OW 5016   2.326   1.743   4.047
 1671SOL    HW1 5017   2.359   1.782   4.133
 1671SOL    HW2 5018   2.402   1.736   3.982
 1672SOL     OW 5019   3.262   0.107   4.150
 1672SOL    HW1 5020   3.238   0.070   4.060
 1672SOL    HW2 5021   3.361   0.123   4.154
 1673SOL     OW 5022   2.244   0.700   4.204
 1673SOL    HW1 5023   2.289   0.610   4.201
 1673SOL    HW2 5024   2.150   0.689   4.237
 1674SOL     OW 5025   2.476   0.122   3.841
 1674SOL    HW1 5026   2.574   0.100   3.848
 1674SOL    HW2 5027   2.445   0.105   3.748
 1675SOL     OW 5028   2.401   0.064   4.236
 1675SOL    HW1 5029   2.320   0.065   4.294
 1675SOL    HW2 5030   2.404   0.147   4.181
 1676SOL     OW 5031   3.296   1.188   3.765
 1676SOL    HW1 5032   3.328   1.112   3.822
 1676SOL    HW2 5033   3.204   1.215   3.795
 1677SOL     OW 5034   2.159   0.035   3.895
 1677SOL    HW1 5035   2.208   0.119   3.874
 1677SOL    HW2 5036   2.221  -0.030   3.940
 1678SOL     OW 5037   2.797   0.236   4.204
 1678SOL    HW1 5038   2.749   0.277   4.126
 1678SOL    HW2 5039   2.896   0.234   4.185
 1679SOL     OW 5040   2.321   1.152   4.465
 1679SOL    HW1 5041   2.250   1.125   4.530
 1679SOL    HW2 5042   2.295   1.124   4.372
 1680SOL     OW 5043   3.133   1.797   4.315
 1680SOL    HW1 5044   3.177   1.861   4.251
 1680SOL    HW2 5045   3.083   1.849   4.385
 1681SOL     OW 5046   2.894   0.549   3.740
 1681SOL    HW1 5047   2.853   0.631   3.701
 1681SOL    HW2 5048   2.958   0.575   3.813
 1682SOL     OW 5049   2.728   0.454   4.366
 1682SOL    HW1 5050   2.696   0.526   4.304
 1682SOL    HW2 5051   2.752   0.373   4.313
 1683SOL     OW 5052   3.328   0.590   4.716
 1683SOL    HW1 5053   3.298   0.495   4.723
 1683SOL    HW2 5054   3.401   0.606   4.782
 1684SOL     OW 5055   3.719   0.833   4.101
 1684SOL    HW1 5056   3.761   0.769   4.165
 1684SOL    HW2 5057   3.681   0.782   4.023
 1685SOL     OW 5058   2.350   1.385   3.898
 1685SOL    HW1 5059   2.263   1.370   3.945
 1685SOL    HW2 5060   2.333   1.411   3.803
 1686SOL     OW 5061   3.252   0.575   3.802
 1686SOL    HW1 5062   3.198   0.554   3.883
 1686SOL    HW2 5063   3.343   0.534   3.811
 1687SOL     OW 5064   2.389   0.256   4.052
 1687SOL    HW1 5065   2.416   0.197   3.977
 1687SOL    HW2 5066   2.389   0.351   4.021
 1688SOL     OW 5067   2.567   1.050   4.092
 1688SOL    HW1 5068   2.553   1.057   4.191
 1688SOL    HW2 5069   2.651   0.999   4.074
 1689SOL     OW 5070   2.229   1.100   4.225
 1689SOL    HW1 5071   2.222   1.183   4.169
 1689SOL    HW2 5072   2.233   1.020   4.165
 1690SOL     OW 5073   3.114   1.348   4.112
 1690SOL    HW1 5074   3.164   1.425   4.152
 1690SOL    HW2 5075   3.019   1.350   4.144
 1691SOL     OW 5076   3.444   0.639   4.196
 1691SOL    HW1 5077   3.413   0.700   4.269
 1691SOL    HW2 5078   3.494   0.691   4.127
 1692SOL     OW 5079   3.071   0.525   3.999
 1692SOL    HW1 5080   3.084   0.441   4.053
 1692SOL    HW2 5081   3.042   0.599   4.059
 1693SOL     OW 5082   2.169   0.063   4.342
 1693SOL    HW1 5083   2.158   0.157   4.375
 1693SOL    HW2 5084   2.164   0.000   4.419
 1694SOL     OW 5085   3.484   0.367   4.098
 1694SOL    HW1 5086   3.486   0.291   4.162
 1694SOL    HW2 5087   3.436   0.444   4.138
 1695SOL     OW 5088   3.402   0.274   3.849
 1695SOL    HW1 5089   3.341   0.199   3.872
 1695SOL    HW2 5090   3.424   0.326   3.932
 1696SOL     OW 5091   3.165   0.838   3.766
 1696SOL    HW1 5092   3.199   0.745   3.781
 1696SOL    HW2 5093   3.183   0.865   3.671
 1697SOL     OW 5094   1.870   1.326   3.924
 1697SOL    HW1 5095   1.777   1.347   3.893
 1697SOL    HW2 5096   1.880   1.227   3.937
 1698SOL     OW 5097   2.677   0.572   4.049
 1698SOL    HW1 5098   2.684   0.483   4.003
 1698SOL    HW2 5099   2.583   0.606   4.041
 1699SOL     OW 5100   2.335   0.500   3.915
 1699SOL    HW1 5101   2.396   0.580   3.919
 1699SOL    HW2 5102   2.240   0.531   3.922
 1700SOL     OW 5103   3.164   0.855   4.033
 1700SOL    HW1 5104   3.078   0.824   4.075
 1700SOL    HW2 5105   3.160   0.841   3.934
 1701SOL     OW 5106   3.588   0.135   4.247
 1701SOL    HW1 5107   3.661   0.118   4.180
 1701SOL    HW2 5108   3.557   0.048   4.285
 1702SOL     OW 5109   3.250   1.573   4.201
 1702SOL    HW1 5110   3.317   1.585   4.127
 1702SOL    HW2 5111   3.210   1.662   4.224
 1703SOL     OW 5112   2.534   1.616   3.878
 1703SOL    HW1 5113   2.543   1.626   3.779
 1703SOL    HW2 5114   2.494   1.527   3.899
 1704SOL     OW 5115   3.703   0.175   4.687
 1704SOL    HW1 5116   3.742   0.090   4.651
 1704SOL    HW2 5117   3.605   0.177   4.668
 1705SOL     OW 5118   3.056   1.612   3.755
 1705SOL    HW1 5119   3.062   1.519   3.792
 1705SOL    HW2 5120   2.997   1.612   3.675
 1706SOL     OW 5121   2.778   0.910   4.015
 1706SOL    HW1 5122   2.841   0.948   3.947
 1706SOL    HW2 5123   2.818   0.827   4.054
 1707SOL     OW 5124   3.366   1.607   3.768
 1707SOL    HW1 5125   3.274   1.644   3.775
 1707SOL    HW2 5126   3.404   1.627   3.678
 1708SOL     OW 5127   2.452   1.487   4.215
 1708SOL    HW1 5128   2.494   1.429   4.145
 1708SOL    HW2 5129   2.408   1.566   4.171
 1709SOL     OW 5130   2.117   1.348   4.014
 1709SOL    HW1 5131   2.021   1.349   3.987
 1709SOL    HW2 5132   2.129   1.401   4.098
 1710SOL     OW 5133   1.937   0.345   3.757
 1710SOL    HW1 5134   1.845   0.317   3.728
 1710SOL    HW2 5135   1.968   0.422   3.701
 1711SOL     OW 5136   1.934   0.166   4.042
 1711SOL    HW1 5137   1.917   0.249   3.988
 1711SOL    HW2 5138   2.024   0.129   4.020
 1712SOL     OW 5139   3.045   1.335   3.843
 1712SOL    HW1 5140   2.946   1.324   3.845
 1712SOL    HW2 5141   3.079   1.350   3.936
 1713SOL     OW 5142   3.087   0.325   4.173
 1713SOL    HW1 5143   3.152   0.251   4.162
 1713SOL    HW2 5144   3.107   0.375   4.257
 1714SOL     OW 5145   2.456   0.745   4.376
 1714SOL    HW1 5146   2.506   0.830   4.357
 1714SOL    HW2 5147   2.368   0.747   4.328
 1715SOL     OW 5148   2.721   1.374   3.740
 1715SOL    HW1 5149   2.675   1.389   3.828
 1715SOL    HW2 5150   2.765   1.459   3.710
 1716SOL     OW 5151   2.945   0.984   3.811
 1716SOL    HW1 5152   2.922   1.037   3.729
 1716SOL    HW2 5153   3.026   0.928   3.792
 1717SOL     OW 5154   1.941   1.240   4.377
 1717SOL    HW1 5155   1.940   1.193   4.465
 1717SOL    HW2 5156   2.023   1.212   4.326
 1718SOL     OW 5157   2.290   0.424   4.244
 1718SOL    HW1 5158   2.320   0.352   4.182
 1718SOL    HW2 5159   2.251   0.384   4.327
 1719SOL     OW 5160   2.674   1.586   4.411
 1719SOL    HW1 5161   2.706   1.596   4.317
 1719SOL    HW2 5162   2.595   1.524   4.413
 1720SOL     OW 5163   2.632   1.330   4.025
 1720SOL    HW1 5164   2.586   1.243   4.042
 1720SOL    HW2 5165   2.723   1.327   4.066
 1721SOL     OW 5166   3.214   0.052   3.892
 1721SOL    HW1 5167   3.249   0.011   3.808
 1721SOL    HW2 5168   3.124   0.014   3.912
 1722SOL     OW 5169   3.162   0.453   4.415
 1722SOL    HW1 5170   3.103   0.533   4.419
 1722SOL    HW2 5171   3.177   0.418   4.508
 1723SOL     OW 5172   1.901   1.077   4.024
 1723SOL    HW1 5173   2.000   1.066   4.015
 1723SOL    HW2 5174   1.861   0.991   4.056
 1724SOL     OW 5175   2.737   1.646   4.061
 1724SOL    HW1 5176   2.660   1.611   4.007
 1724SOL    HW2 5177   2.705   1.717   4.123
 1725SOL     OW 5178   2.092   2.490   0.113
 1725SOL    HW1 5179   1.999   2.488   0.150
 1725SOL    HW2 5180   2.093   2.451   0.021
 1726SOL     OW 5181   2.087   2.137   0.996
 1726SOL    HW1 5182   2.122   2.120   1.088
 1726SOL    HW2 5183   1.999   2.092   0.984
 1727SOL     OW 5184   1.881   2.230   0.647
 1727SOL    HW1 5185   1.799   2.273   0.686
 1727SOL    HW2 5186   1.853   2.157   0.584
 1728SOL     OW 5187   2.431   3.137   1.165
 1728SOL    HW1 5188   2.338   3.130   1.128
 1728SOL    HW2 5189   2.442   3.226   1.209
 1729SOL     OW 5190   3.417   3.373   0.703
 1729SOL    HW1 5191   3.360   3.357   0.784
 1729SOL    HW2 5192   3.358   3.383   0.623
 1730SOL     OW 5193   2.997   2.565   0.717
 1730SOL    HW1 5194   3.054   2.643   0.692
 1730SOL    HW2 5195   2.937   2.591   0.793
 1731SOL     OW 5196   3.617   2.469   0.231
 1731SOL    HW1 5197   3.605   2.456   0.132
 1731SOL    HW2 5198   3.587   2.388   0.280
 1732SOL     OW 5199   2.630   3.006   1.023
 1732SOL    HW1 5200   2.552   3.023   1.083
 1732SOL    HW2 5201   2.664   3.093   0.987
 1733SOL     OW 5202   2.712   2.660   1.823
 1733SOL    HW1 5203   2.708   2.736   1.888
 1733SOL    HW2 5204   2.734   2.696   1.732
 1734SOL     OW 5205   2.547   2.874   0.665
 1734SOL    HW1 5206   2.616   2.858   0.735
 1734SOL    HW2 5207   2.474   2.931   0.703
 1735SOL     OW 5208   2.548   3.023   1.803
 1735SOL    HW1 5209   2.608   3.102   1.817
 1735SOL    HW2 5210   2.462   3.054   1.762
 1736SOL     OW 5211   2.197   3.297   1.061
 1736SOL    HW1 5212   2.119   3.266   1.008
 1736SOL    HW2 5213   2.255   3.355   1.004
 1737SOL     OW 5214   3.322   3.367   1.339
 1737SOL    HW1 5215   3.346   3.461   1.365
 1737SOL    HW2 5216   3.306   3.313   1.421
 1738SOL     OW 5217   2.300   2.254   1.499
 1738SOL    HW1 5218   2.382   2.198   1.508
 1738SOL    HW2 5219   2.219   2.196   1.503
 1739SOL     OW 5220   3.465   2.309   0.737
 1739SOL    HW1 5221   3.391   2.355   0.687
 1739SOL    HW2 5222   3.516   2.377   0.790
 1740SOL     OW 5223   2.093   3.575   0.483
 1740SOL    HW1 5224   2.127   3.652   0.537
 1740SOL    HW2 5225   2.137   3.575   0.393
 1741SOL     OW 5226   2.989   3.203   1.690
 1741SOL    HW1 5227   3.036   3.203   1.778
 1741SOL    HW2 5228   2.941   3.116   1.679
 1742SOL     OW 5229   2.092   3.296   0.538
 1742SOL    HW1 5230   2.066   3.392   0.538
 1742SOL    HW2 5231   2.021   3.242   0.583
 1743SOL     OW 5232   2.102   2.953   0.886
 1743SOL    HW1 5233   2.116   2.869   0.938
 1743SOL    HW2 5234   2.047   3.017   0.941
 1744SOL     OW 5235   2.482   3.648   1.439
 1744SOL    HW1 5236   2.390   3.631   1.474
 1744SOL    HW2 5237   2.510   3.740   1.465
 1745SOL     OW 5238   2.468   2.826   0.123
 1745SOL    HW1 5239   2.475   2.910   0.069
 1745SOL    HW2 5240   2.514   2.839   0.211
 1746SOL     OW 5241   3.456   1.976   1.480
 1746SOL    HW1 5242   3.438   2.043   1.408
 1746SOL    HW2 5243   3.453   2.022   1.569
 1747SOL     OW 5244   1.984   2.505   0.563
 1747SOL    HW1 5245   1.939   2.417   0.580
 1747SOL    HW2 5246   1.983   2.559   0.647
 1748SOL     OW 5247   3.704   3.629   0.359
 1748SOL    HW1 5248   3.758   3.600   0.439
 1748SOL    HW2 5249   3.734   3.719   0.330
 1749SOL     OW 5250   1.889   3.458   0.117
 1749SOL    HW1 5251   1.870   3.362   0.138
 1749SOL    HW2 5252   1.856   3.516   0.192
 1750SOL     OW 5253   3.551   2.784   0.612
 1750SOL    HW1 5254   3.646   2.755   0.620
 1750SOL    HW2 5255   3.543   2.849   0.537
 1751SOL     OW 5256   3.503   2.970   0.432
 1751SOL    HW1 5257   3.589   2.972   0.380
 1751SOL    HW2 5258   3.517   3.017   0.520
 1752SOL     OW 5259   1.975   2.599   1.597
 1752SOL    HW1 5260   2.063   2.586   1.642
 1752SOL    HW2 5261   1.962   2.696   1.575
 1753SOL     OW 5262   2.475   3.227   0.726
 1753SOL    HW1 5263   2.426   3.140   0.735
 1753SOL    HW2 5264   2.452   3.270   0.639
 1754SOL     OW 5265   3.155   3.090   1.423
 1754SOL    HW1 5266   3.192   3.017   1.365
 1754SOL    HW2 5267   3.207   3.095   1.508
 1755SOL     OW 5268   2.671   1.866   0.502
 1755SOL    HW1 5269   2.711   1.957   0.493
 1755SOL    HW2 5270   2.571   1.874   0.508
 1756SOL     OW 5271   2.059   2.838   1.264
 1756SOL    HW1 5272   2.148   2.793   1.250
 1756SOL    HW2 5273   1.986   2.773   1.245
 1757SOL     OW 5274   3.387   2.861   0.190
 1757SOL    HW1 5275   3.324   2.785   0.203
 1757SOL    HW2 5276   3.435   2.879   0.276
 1758SOL     OW 5277   3.049   3.654   1.616
 1758SOL    HW1 5278   3.073   3.714   1.540
 1758SOL    HW2 5279   3.056   3.559   1.586
 1759SOL     OW 5280   2.179   2.113   1.801
 1759SOL    HW1 5281   2.250   2.184   1.807
 1759SOL    HW2 5282   2.091   2.152   1.829
 1760SOL     OW 5283   3.328   3.279   0.953
 1760SOL    HW1 5284   3.269   3.285   1.033
 1760SOL    HW2 5285   3.313   3.191   0.907
 1761SOL     OW 5286   3.529   3.576   0.572
 1761SOL    HW1 5287   3.488   3.553   0.484
 1761SOL    HW2 5288   3.511   3.502   0.637
 1762SOL     OW 5289   2.460   2.591   0.270
 1762SOL    HW1 5290   2.484   2.660   0.202
 1762SOL    HW2 5291   2.382   2.624   0.324
 1763SOL     OW 5292   3.143   2.207   0.944
 1763SOL    HW1 5293   3.057   2.157   0.931
 1763SOL    HW2 5294   3.205   2.153   1.000
 1764SOL     OW 5295   3.438   3.524   0.307
 1764SOL    HW1 5296   3.527   3.570   0.310
 1764SOL    HW2 5297   3.417   3.500   0.212
 1765SOL     OW 5298   2.669   2.467   1.465
 1765SOL    HW1 5299   2.622   2.464   1.554
 1765SOL    HW2 5300   2.618   2.412   1.399
 1766SOL     OW 5301   3.256   2.331   1.674
 1766SOL    HW1 5302   3.236   2.374   1.762
 1766SOL    HW2 5303   3.334   2.269   1.683
 1767SOL     OW 5304   2.835   2.752   1.572
 1767SOL    HW1 5305   2.881   2.668   1.543
 1767SOL    HW2 5306   2.779   2.786   1.497
 1768SOL     OW 5307   2.853   2.272   1.242
 1768SOL    HW1 5308   2.776   2.306   1.296
 1768SOL    HW2 5309   2.819   2.221   1.163
 1769SOL     OW 5310   2.903   2.563   0.429
 1769SOL    HW1 5311   2.929   2.559   0.525
 1769SOL    HW2 5312   2.818   2.512   0.415
 1770SOL     OW 5313   1.938   2.673   0.789
 1770SOL    HW1 5314   2.037   2.661   0.798
 1770SOL    HW2 5315   1.914   2.768   0.810
 1771SOL     OW 5316   1.992   3.683   1.571
 1771SOL    HW1 5317   1.982   3.668   1.670
 1771SOL    HW2 5318   1.906   3.719   1.535
 1772SOL     OW 5319   2.727   2.210   0.195
 1772SOL    HW1 5320   2.786   2.273   0.146
 1772SOL    HW2 5321   2.746   2.116   0.166
 1773SOL     OW 5322   3.581   2.447   1.831
 1773SOL    HW1 5323   3.555   2.536   1.795
 1773SOL    HW2 5324   3.579   2.379   1.758
 1774SOL     OW 5325   3.224   3.006   0.545
 1774SOL    HW1 5326   3.307   2.977   0.497
 1774SOL    HW2 5327   3.175   3.073   0.489
 1775SOL     OW 5328   2.412   2.058   0.885
 1775SOL    HW1 5329   2.407   2.053   0.985
 1775SOL    HW2 5330   2.414   2.154   0.856
 1776SOL     OW 5331   2.870   3.318   0.477
 1776SOL    HW1 5332   2.824   3.390   0.425
 1776SOL    HW2 5333   2.866   3.338   0.575
 1777SOL     OW 5334   2.213   3.663   0.853
 1777SOL    HW1 5335   2.263   3.577   0.859
 1777SOL    HW2 5336   2.278   3.740   0.850
 1778SOL     OW 5337   3.657   2.928   0.873
 1778SOL    HW1 5338   3.595   2.913   0.797
 1778SOL    HW2 5339   3.605   2.939   0.958
 1779SOL     OW 5340   3.089   3.412   1.506
 1779SOL    HW1 5341   3.095   3.335   1.570
 1779SOL    HW2 5342   3.037   3.386   1.426
 1780SOL     OW 5343   2.183   2.805   0.242
 1780SOL    HW1 5344   2.265   2.844   0.200
 1780SOL    HW2 5345   2.156   2.723   0.193
 1781SOL     OW 5346   3.320   2.597   0.728
 1781SOL    HW1 5347   3.315   2.532   0.803
 1781SOL    HW2 5348   3.400   2.656   0.741
 1782SOL     OW 5349   2.323   3.128   1.727
 1782SOL    HW1 5350   2.273   3.129   1.641
 1782SOL    HW2 5351   2.260   3.110   1.803
 1783SOL     OW 5352   2.973   3.638   0.237
 1783SOL    HW1 5353   2.913   3.576   0.287
 1783SOL    HW2 5354   3.004   3.594   0.152
 1784SOL     OW 5355   2.064   2.147   1.498
 1784SOL    HW1 5356   1.984   2.207   1.485
 1784SOL    HW2 5357   2.054   2.098   1.584
 1785SOL     OW 5358   3.494   3.239   0.081
 1785SOL    HW1 5359   3.462   3.333   0.071
 1785SOL    HW2 5360   3.418   3.176   0.069
 1786SOL     OW 5361   2.326   3.605   0.323
 1786SOL    HW1 5362   2.359   3.644   0.409
 1786SOL    HW2 5363   2.402   3.598   0.258
 1787SOL     OW 5364   3.262   1.969   0.426
 1787SOL    HW1 5365   3.238   1.932   0.336
 1787SOL    HW2 5366   3.361   1.985   0.430
 1788SOL     OW 5367   2.111   3.647   1.241
 1788SOL    HW1 5368   2.168   3.582   1.291
 1788SOL    HW2 5369   2.095   3.614   1.148
 1789SOL     OW 5370   2.802   3.560   0.904
 1789SOL    HW1 5371   2.882   3.503   0.925
 1789SOL    HW2 5372   2.753   3.520   0.827
 1790SOL     OW 5373   2.244   2.562   0.480
 1790SOL    HW1 5374   2.289   2.472   0.477
 1790SOL    HW2 5375   2.150   2.551   0.513
 1791SOL     OW 5376   3.409   2.084   1.729
 1791SOL    HW1 5377   3.404   2.121   1.821
 1791SOL    HW2 5378   3.337   2.015   1.717
 1792SOL     OW 5379   2.476   1.984   0.117
 1792SOL    HW1 5380   2.574   1.962   0.124
 1792SOL    HW2 5381   2.445   1.967   0.024
 1793SOL     OW 5382   2.643   2.126   1.749
 1793SOL    HW1 5383   2.710   2.065   1.792
 1793SOL    HW2 5384   2.570   2.145   1.814
 1794SOL     OW 5385   2.750   3.376   1.195
 1794SOL    HW1 5386   2.727   3.351   1.101
 1794SOL    HW2 5387   2.811   3.307   1.234
 1795SOL     OW 5388   3.213   2.452   1.433
 1795SOL    HW1 5389   3.241   2.409   1.518
 1795SOL    HW2 5390   3.238   2.548   1.434
 1796SOL     OW 5391   2.665   3.264   0.924
 1796SOL    HW1 5392   2.755   3.278   0.882
 1796SOL    HW2 5393   2.594   3.266   0.853
 1797SOL     OW 5394   2.784   2.365   0.899
 1797SOL    HW1 5395   2.759   2.356   0.803
 1797SOL    HW2 5396   2.832   2.283   0.930
 1798SOL     OW 5397   2.401   1.926   0.512
 1798SOL    HW1 5398   2.320   1.927   0.570
 1798SOL    HW2 5399   2.404   2.009   0.457
 1799SOL     OW 5400   3.296   3.050   0.041
 1799SOL    HW1 5401   3.328   2.974   0.098
 1799SOL    HW2 5402   3.204   3.077   0.071
 1800SOL     OW 5403   2.797   2.098   0.480
 1800SOL    HW1 5404   2.749   2.139   0.402
 1800SOL    HW2 5405   2.896   2.096   0.461
 1801SOL     OW 5406   2.938   2.545   1.464
 1801SOL    HW1 5407   2.858   2.484   1.467
 1801SOL    HW2 5408   3.019   2.492   1.440
 1802SOL     OW 5409   3.089   3.432   0.793
 1802SOL    HW1 5410   3.110   3.506   0.728
 1802SOL    HW2 5411   3.157   3.432   0.866
 1803SOL     OW 5412   2.321   3.014   0.741
 1803SOL    HW1 5413   2.250   2.987   0.806
 1803SOL    HW2 5414   2.295   2.986   0.648
 1804SOL     OW 5415   3.133   3.659   0.591
 1804SOL    HW1 5416   3.177   3.723   0.527
 1804SOL    HW2 5417   3.083   3.711   0.661
 1805SOL     OW 5418   2.894   2.411   0.016
 1805SOL    HW1 5419   2.853   2.493  -0.023
 1805SOL    HW2 5420   2.958   2.437   0.089
 1806SOL     OW 5421   1.940   2.418   1.386
 1806SOL    HW1 5422   2.032   2.417   1.345
 1806SOL    HW2 5423   1.934   2.492   1.453
 1807SOL     OW 5424   2.423   2.084   1.147
 1807SOL    HW1 5425   2.461   2.000   1.184
 1807SOL    HW2 5426   2.335   2.103   1.191
 1808SOL     OW 5427   2.728   2.316   0.642
 1808SOL    HW1 5428   2.696   2.388   0.580
 1808SOL    HW2 5429   2.752   2.235   0.589
 1809SOL     OW 5430   2.879   1.901   0.753
 1809SOL    HW1 5431   2.807   1.906   0.684
 1809SOL    HW2 5432   2.855   1.832   0.822
 1810SOL     OW 5433   3.291   3.035   0.867
 1810SOL    HW1 5434   3.236   2.951   0.860
 1810SOL    HW2 5435   3.317   3.064   0.775
 1811SOL     OW 5436   3.328   2.452   0.992
 1811SOL    HW1 5437   3.298   2.357   0.999
 1811SOL    HW2 5438   3.401   2.468   1.058
 1812SOL     OW 5439   3.719   2.695   0.377
 1812SOL    HW1 5440   3.761   2.631   0.441
 1812SOL    HW2 5441   3.681   2.644   0.299
 1813SOL     OW 5442   2.350   3.247   0.174
 1813SOL    HW1 5443   2.263   3.232   0.221
 1813SOL    HW2 5444   2.333   3.273   0.079
 1814SOL     OW 5445   3.526   3.142   0.657
 1814SOL    HW1 5446   3.625   3.150   0.671
 1814SOL    HW2 5447   3.481   3.226   0.688
 1815SOL     OW 5448   3.252   2.437   0.078
 1815SOL    HW1 5449   3.198   2.416   0.159
 1815SOL    HW2 5450   3.343   2.396   0.087
 1816SOL     OW 5451   2.389   2.118   0.328
 1816SOL    HW1 5452   2.416   2.059   0.253
 1816SOL    HW2 5453   2.389   2.213   0.297
 1817SOL     OW 5454   3.616   3.085   1.588
 1817SOL    HW1 5455   3.707   3.046   1.575
 1817SOL    HW2 5456   3.624   3.181   1.612
 1818SOL     OW 5457   2.926   3.209   1.340
 1818SOL    HW1 5458   2.846   3.186   1.395
 1818SOL    HW2 5459   3.009   3.183   1.389
 1819SOL     OW 5460   3.454   3.491   1.625
 1819SOL    HW1 5461   3.481   3.525   1.535
 1819SOL    HW2 5462   3.533   3.453   1.671
 1820SOL     OW 5463   2.973   3.057   1.100
 1820SOL    HW1 5464   2.933   3.101   1.181
 1820SOL    HW2 5465   2.932   3.094   1.017
 1821SOL     OW 5466   3.500   2.961   1.079
 1821SOL    HW1 5467   3.505   3.042   1.138
 1821SOL    HW2 5468   3.414   2.963   1.028
 1822SOL     OW 5469   2.777   1.951   1.402
 1822SOL    HW1 5470   2.802   1.931   1.307
 1822SOL    HW2 5471   2.849   2.007   1.444
 1823SOL     OW 5472   2.842   2.978   1.719
 1823SOL    HW1 5473   2.743   2.984   1.729
 1823SOL    HW2 5474   2.865   2.898   1.663
 1824SOL     OW 5475   2.567   2.912   0.368
 1824SOL    HW1 5476   2.553   2.919   0.467
 1824SOL    HW2 5477   2.651   2.861   0.350
 1825SOL     OW 5478   2.272   2.675   1.251
 1825SOL    HW1 5479   2.358   2.687   1.301
 1825SOL    HW2 5480   2.230   2.588   1.278
 1826SOL     OW 5481   3.136   2.248   1.262
 1826SOL    HW1 5482   3.157   2.322   1.326
 1826SOL    HW2 5483   3.047   2.265   1.219
 1827SOL     OW 5484   1.926   3.426   1.331
 1827SOL    HW1 5485   1.880   3.508   1.297
 1827SOL    HW2 5486   2.024   3.445   1.340
 1828SOL     OW 5487   2.229   2.962   0.501
 1828SOL    HW1 5488   2.222   3.045   0.445
 1828SOL    HW2 5489   2.233   2.882   0.441
 1829SOL     OW 5490   2.428   2.399   0.865
 1829SOL    HW1 5491   2.440   2.465   0.791
 1829SOL    HW2 5492   2.474   2.433   0.948
 1830SOL     OW 5493   3.114   3.210   0.388
 1830SOL    HW1 5494   3.164   3.287   0.428
 1830SOL    HW2 5495   3.019   3.212   0.420
 1831SOL     OW 5496   3.134   3.307   1.142
 1831SOL    HW1 5497   3.181   3.320   1.229
 1831SOL    HW2 5498   3.068   3.233   1.151
 1832SOL     OW 5499   3.444   2.501   0.472
 1832SOL    HW1 5500   3.413   2.562   0.545
 1832SOL    HW2 5501   3.494   2.553   0.403
 1833SOL     OW 5502   2.216   3.372   1.329
 1833SOL    HW1 5503   2.195   3.328   1.242
 1833SOL    HW2 5504   2.313   3.398   1.332
 1834SOL     OW 5505   2.264   2.613   1.598
 1834SOL    HW1 5506   2.332   2.668   1.551
 1834SOL    HW2 5507   2.304   2.525   1.625
 1835SOL     OW 5508   3.449   2.641   1.670
 1835SOL    HW1 5509   3.357   2.679   1.665
 1835SOL    HW2 5510   3.509   2.688   1.605
 1836SOL     OW 5511   2.875   1.967   1.770
 1836SOL    HW1 5512   2.881   2.052   1.718
 1836SOL    HW2 5513   2.907   1.891   1.713
 1837SOL     OW 5514   2.366   1.912   1.740
 1837SOL    HW1 5515   2.324   1.855   1.670
 1837SOL    HW2 5516   2.300   1.981   1.772
 1838SOL     OW 5517   2.435   2.732   1.029
 1838SOL    HW1 5518   2.479   2.821   1.020
 1838SOL    HW2 5519   2.372   2.732   1.106
 1839SOL     OW 5520   3.222   2.724   1.045
 1839SOL    HW1 5521   3.147   2.724   0.979
 1839SOL    HW2 5522   3.259   2.632   1.054
 1840SOL     OW 5523   3.071   2.387   0.275
 1840SOL    HW1 5524   3.084   2.303   0.329
 1840SOL    HW2 5525   3.042   2.461   0.335
 1841SOL     OW 5526   2.169   2.075   1.231
 1841SOL    HW1 5527   2.146   2.112   1.321
 1841SOL    HW2 5528   2.139   1.980   1.225
 1842SOL     OW 5529   1.899   3.172   1.282
 1842SOL    HW1 5530   1.952   3.123   1.350
 1842SOL    HW2 5531   1.921   3.270   1.287
 1843SOL     OW 5532   2.594   2.496   1.064
 1843SOL    HW1 5533   2.653   2.470   0.988
 1843SOL    HW2 5534   2.566   2.592   1.053
 1844SOL     OW 5535   3.590   2.797   1.854
 1844SOL    HW1 5536   3.544   2.790   1.765
 1844SOL    HW2 5537   3.528   2.841   1.920
 1845SOL     OW 5538   2.169   1.925   0.618
 1845SOL    HW1 5539   2.158   2.019   0.651
 1845SOL    HW2 5540   2.164   1.862   0.695
 1846SOL     OW 5541   3.484   2.229   0.374
 1846SOL    HW1 5542   3.486   2.153   0.438
 1846SOL    HW2 5543   3.436   2.306   0.414
 1847SOL     OW 5544   2.885   2.628   0.966
 1847SOL    HW1 5545   2.900   2.649   1.062
 1847SOL    HW2 5546   2.855   2.533   0.957
 1848SOL     OW 5547   2.842   3.435   1.700
 1848SOL    HW1 5548   2.822   3.479   1.612
 1848SOL    HW2 5549   2.881   3.344   1.684
 1849SOL     OW 5550   3.721   3.380   1.605
 1849SOL    HW1 5551   3.735   3.407   1.510
 1849SOL    HW2 5552   3.804   3.402   1.658
 1850SOL     OW 5553   2.212   2.760   1.804
 1850SOL    HW1 5554   2.288   2.804   1.852
 1850SOL    HW2 5555   2.247   2.713   1.722
 1851SOL     OW 5556   3.402   2.136   0.125
 1851SOL    HW1 5557   3.341   2.061   0.148
 1851SOL    HW2 5558   3.424   2.188   0.208
 1852SOL     OW 5559   3.165   2.700   0.042
 1852SOL    HW1 5560   3.199   2.607   0.057
 1852SOL    HW2 5561   3.183   2.727  -0.053
 1853SOL     OW 5562   2.930   3.195   0.849
 1853SOL    HW1 5563   2.937   3.111   0.794
 1853SOL    HW2 5564   2.992   3.264   0.813
 1854SOL     OW 5565   2.181   2.672   0.949
 1854SOL    HW1 5566   2.274   2.708   0.954
 1854SOL    HW2 5567   2.175   2.587   1.001
 1855SOL     OW 5568   2.201   2.371   1.006
 1855SOL    HW1 5569   2.149   2.288   0.989
 1855SOL    HW2 5570   2.278   2.376   0.942
 1856SOL     OW 5571   3.000   2.242   1.678
 1856SOL    HW1 5572   2.955   2.305   1.742
 1856SOL    HW2 5573   3.093   2.273   1.661
 1857SOL     OW 5574   3.022   2.069   1.477
 1857SOL    HW1 5575   3.022   2.133   1.554
 1857SOL    HW2 5576   3.050   2.117   1.394
 1858SOL     OW 5577   1.870   3.188   0.200
 1858SOL    HW1 5578   1.777   3.209   0.169
 1858SOL    HW2 5579   1.880   3.089   0.213
 1859SOL     OW 5580   1.950   3.663   0.927
 1859SOL    HW1 5581   1.908   3.577   0.900
 1859SOL    HW2 5582   2.044   3.666   0.893
 1860SOL     OW 5583   2.366   3.430   0.910
 1860SOL    HW1 5584   2.432   3.504   0.919
 1860SOL    HW2 5585   2.410   3.351   0.868
 1861SOL     OW 5586   2.864   2.658   1.238
 1861SOL    HW1 5587   2.905   2.626   1.324
 1861SOL    HW2 5588   2.768   2.631   1.235
 1862SOL     OW 5589   1.902   2.406   1.114
 1862SOL    HW1 5590   1.987   2.373   1.073
 1862SOL    HW2 5591   1.915   2.421   1.212
 1863SOL     OW 5592   2.051   2.382   1.722
 1863SOL    HW1 5593   2.110   2.342   1.652
 1863SOL    HW2 5594   1.993   2.453   1.681
 1864SOL     OW 5595   3.231   2.812   1.660
 1864SOL    HW1 5596   3.270   2.901   1.680
 1864SOL    HW2 5597   3.241   2.792   1.563
 1865SOL     OW 5598   2.677   2.434   0.325
 1865SOL    HW1 5599   2.684   2.345   0.279
 1865SOL    HW2 5600   2.583   2.468   0.317
 1866SOL     OW 5601   3.519   2.466   1.206
 1866SOL    HW1 5602   3.481   2.397   1.268
 1866SOL    HW2 5603   3.601   2.430   1.162
 1867SOL     OW 5604   2.114   3.426   1.744
 1867SOL    HW1 5605   2.084   3.483   1.820
 1867SOL    HW2 5606   2.107   3.329   1.770
 1868SOL     OW 5607   2.533   2.326   1.269
 1868SOL    HW1 5608   2.499   2.237   1.239
 1868SOL    HW2 5609   2.559   2.380   1.189
 1869SOL     OW 5610   2.792   3.540   1.465
 1869SOL    HW1 5611   2.768   3.522   1.370
 1869SOL    HW2 5612   2.822   3.634   1.475
 1870SOL     OW 5613   2.335   2.362   0.191
 1870SOL    HW1 5614   2.396   2.442   0.195
 1870SOL    HW2 5615   2.240   2.393   0.198
 1871SOL     OW 5616   2.021   2.999   1.466
 1871SOL    HW1 5617   2.043   2.938   1.542
 1871SOL    HW2 5618   2.031   2.950   1.380
 1872SOL     OW 5619   3.209   2.921   1.234
 1872SOL    HW1 5620   3.233   2.858   1.160
 1872SOL    HW2 5621   3.119   2.961   1.216
 1873SOL     OW 5622   3.164   2.717   0.309
 1873SOL    HW1 5623   3.078   2.686   0.351
 1873SOL    HW2 5624   3.160   2.703   0.210
 1874SOL     OW 5625   3.621   3.609   1.154
 1874SOL    HW1 5626   3.682   3.639   1.081
 1874SOL    HW2 5627   3.583   3.520   1.132
 1875SOL     OW 5628   3.114   3.593   1.128
 1875SOL    HW1 5629   3.198   3.598   1.074
 1875SOL    HW2 5630   3.091   3.497   1.146
 1876SOL     OW 5631   1.945   3.120   1.022
 1876SOL    HW1 5632   1.940   3.119   1.122
 1876SOL    HW2 5633   1.862   3.079   0.984
 1877SOL     OW 5634   2.550   3.524   1.716
 1877SOL    HW1 5635   2.494   3.605   1.725
 1877SOL    HW2 5636   2.602   3.528   1.630
 1878SOL     OW 5637   2.765   1.948   0.133
 1878SOL    HW1 5638   2.816   1.949   0.047
 1878SOL    HW2 5639   2.821   1.906   0.204
 1879SOL     OW 5640   3.588   1.997   0.523
 1879SOL    HW1 5641   3.661   1.980   0.456
 1879SOL    HW2 5642   3.557   1.910   0.561
 1880SOL     OW 5643   3.250   3.435   0.477
 1880SOL    HW1 5644   3.317   3.447   0.403
 1880SOL    HW2 5645   3.210   3.524   0.500
 1881SOL     OW 5646   1.992   3.656   1.851
 1881SOL    HW1 5647   1.951   3.582   1.904
 1881SOL    HW2 5648   2.056   3.707   1.909
 1882SOL     OW 5649   3.142   2.789   0.672
 1882SOL    HW1 5650   3.202   2.708   0.674
 1882SOL    HW2 5651   3.182   2.858   0.612
 1883SOL     OW 5652   2.692   3.135   1.422
 1883SOL    HW1 5653   2.687   3.168   1.517
 1883SOL    HW2 5654   2.606   3.154   1.376
 1884SOL     OW 5655   2.534   3.478   0.154
 1884SOL    HW1 5656   2.543   3.488   0.055
 1884SOL    HW2 5657   2.494   3.389   0.175
 1885SOL     OW 5658   3.512   3.582   1.394
 1885SOL    HW1 5659   3.565   3.592   1.310
 1885SOL    HW2 5660   3.485   3.672   1.428
 1886SOL     OW 5661   3.703   2.037   0.963
 1886SOL    HW1 5662   3.742   1.952   0.927
 1886SOL    HW2 5663   3.605   2.039   0.944
 1887SOL     OW 5664   2.125   2.188   0.720
 1887SOL    HW1 5665   2.046   2.239   0.686
 1887SOL    HW2 5666   2.116   2.173   0.818
 1888SOL     OW 5667   3.056   3.474   0.031
 1888SOL    HW1 5668   3.062   3.381   0.068
 1888SOL    HW2 5669   2.997   3.474  -0.049
 1889SOL     OW 5670   2.684   2.864   1.372
 1889SOL    HW1 5671   2.724   2.863   1.280
 1889SOL    HW2 5672   2.694   2.956   1.412
 1890SOL     OW 5673   2.778   2.772   0.291
 1890SOL    HW1 5674   2.841   2.810   0.223
 1890SOL    HW2 5675   2.818   2.689   0.330
 1891SOL     OW 5676   3.366   3.469   0.044
 1891SOL    HW1 5677   3.274   3.506   0.051
 1891SOL    HW2 5678   3.404   3.489  -0.046
 1892SOL     OW 5679   2.234   3.150   1.490
 1892SOL    HW1 5680   2.221   3.243   1.456
 1892SOL    HW2 5681   2.150   3.098   1.477
 1893SOL     OW 5682   3.476   3.154   1.289
 1893SOL    HW1 5683   3.536   3.157   1.369
 1893SOL    HW2 5684   3.401   3.218   1.302
 1894SOL     OW 5685   2.901   2.960   0.696
 1894SOL    HW1 5686   2.831   2.913   0.750
 1894SOL    HW2 5687   2.960   2.892   0.653
 1895SOL     OW 5688   2.876   2.098   0.971
 1895SOL    HW1 5689   2.868   2.062   0.878
 1895SOL    HW2 5690   2.874   2.022   1.036
 1896SOL     OW 5691   2.452   3.349   0.491
 1896SOL    HW1 5692   2.494   3.291   0.421
 1896SOL    HW2 5693   2.408   3.428   0.447
 1897SOL     OW 5694   3.571   2.247   1.381
 1897SOL    HW1 5695   3.644   2.316   1.385
 1897SOL    HW2 5696   3.599   2.172   1.322
 1898SOL     OW 5697   2.117   3.210   0.290
 1898SOL    HW1 5698   2.021   3.211   0.263
 1898SOL    HW2 5699   2.129   3.263   0.374
 1899SOL     OW 5700   1.967   2.875   1.726
 1899SOL    HW1 5701   1.890   2.842   1.780
 1899SOL    HW2 5702   2.052   2.845   1.768
 1900SOL     OW 5703   2.534   2.065   1.489
 1900SOL    HW1 5704   2.624   2.049   1.449
 1900SOL    HW2 5705   2.542   2.070   1.588
 1901SOL     OW 5706   1.937   2.207   0.033
 1901SOL    HW1 5707   1.845   2.179   0.004
 1901SOL    HW2 5708   1.968   2.284  -0.023
 1902SOL     OW 5709   3.302   2.718   1.398
 1902SOL    HW1 5710   3.245   2.770   1.335
 1902SOL    HW2 5711   3.398   2.730   1.374
 1903SOL     OW 5712   3.045   3.197   0.119
 1903SOL    HW1 5713   2.946   3.186   0.121
 1903SOL    HW2 5714   3.079   3.212   0.212
 1904SOL     OW 5715   2.475   2.704   1.431
 1904SOL    HW1 5716   2.531   2.785   1.414
 1904SOL    HW2 5717   2.534   2.624   1.434
 1905SOL     OW 5718   3.355   3.629   0.959
 1905SOL    HW1 5719   3.388   3.693   0.890
 1905SOL    HW2 5720   3.421   3.623   1.034
 1906SOL     OW 5721   2.578   2.427   1.708
 1906SOL    HW1 5722   2.597   2.492   1.782
 1906SOL    HW2 5723   2.638   2.347   1.717
 1907SOL     OW 5724   3.312   3.082   1.633
 1907SOL    HW1 5725   3.303   3.072   1.732
 1907SOL    HW2 5726   3.408   3.075   1.607
 1908SOL     OW 5727   2.252   3.603   1.560
 1908SOL    HW1 5728   2.161   3.644   1.558
 1908SOL    HW2 5729   2.245   3.509   1.592
 1909SOL     OW 5730   3.536   2.745   1.254
 1909SOL    HW1 5731   3.509   2.656   1.217
 1909SOL    HW2 5732   3.537   2.813   1.181
 1910SOL     OW 5733   3.087   2.187   0.449
 1910SOL    HW1 5734   3.152   2.113   0.438
 1910SOL    HW2 5735   3.107   2.237   0.533
 1911SOL     OW 5736   2.456   2.607   0.652
 1911SOL    HW1 5737   2.506   2.692   0.633
 1911SOL    HW2 5738   2.368   2.609   0.604
 1912SOL     OW 5739   3.639   2.204   1.642
 1912SOL    HW1 5740   3.622   2.235   1.548
 1912SOL    HW2 5741   3.555   2.167   1.680
 1913SOL     OW 5742   3.592   2.796   1.517
 1913SOL    HW1 5743   3.630   2.887   1.532
 1913SOL    HW2 5744   3.584   2.779   1.418
 1914SOL     OW 5745   2.721   3.236   0.016
 1914SOL    HW1 5746   2.675   3.251   0.104
 1914SOL    HW2 5747   2.765   3.321  -0.014
 1915SOL     OW 5748   2.523   3.652   0.953
 1915SOL    HW1 5749   2.477   3.740   0.940
 1915SOL    HW2 5750   2.622   3.664   0.946
 1916SOL     OW 5751   2.721   2.818   0.861
 1916SOL    HW1 5752   2.775   2.749   0.909
 1916SOL    HW2 5753   2.689   2.887   0.927
 1917SOL     OW 5754   2.945   2.846   0.087
 1917SOL    HW1 5755   2.922   2.899   0.005
 1917SOL    HW2 5756   3.026   2.790   0.068
 1918SOL     OW 5757   3.723   3.431   0.851
 1918SOL    HW1 5758   3.652   3.419   0.781
 1918SOL    HW2 5759   3.724   3.352   0.911
 1919SOL     OW 5760   2.083   3.176   1.844
 1919SOL    HW1 5761   2.018   3.103   1.823
 1919SOL    HW2 5762   2.087   3.190   1.942
 1920SOL     OW 5763   1.941   3.102   0.653
 1920SOL    HW1 5764   1.940   3.055   0.741
 1920SOL    HW2 5765   2.023   3.074   0.602
 1921SOL     OW 5766   2.534   3.253   1.624
 1921SOL    HW1 5767   2.456   3.203   1.662
 1921SOL    HW2 5768   2.531   3.348   1.655
 1922SOL     OW 5769   3.686   2.054   1.227
 1922SOL    HW1 5770   3.682   1.964   1.271
 1922SOL    HW2 5771   3.689   2.043   1.128
 1923SOL     OW 5772   2.290   2.286   0.520
 1923SOL    HW1 5773   2.320   2.214   0.458
 1923SOL    HW2 5774   2.251   2.246   0.603
 1924SOL     OW 5775   3.567   3.349   1.104
 1924SOL    HW1 5776   3.474   3.324   1.077
 1924SOL    HW2 5777   3.593   3.299   1.186
 1925SOL     OW 5778   2.179   2.409   1.280
 1925SOL    HW1 5779   2.217   2.350   1.352
 1925SOL    HW2 5780   2.219   2.383   1.192
 1926SOL     OW 5781   2.674   3.448   0.687
 1926SOL    HW1 5782   2.706   3.458   0.593
 1926SOL    HW2 5783   2.595   3.386   0.689
 1927SOL     OW 5784   3.286   2.076   1.112
 1927SOL    HW1 5785   3.338   2.011   1.167
 1927SOL    HW2 5786   3.237   2.139   1.173
 1928SOL     OW 5787   2.863   1.896   1.154
 1928SOL    HW1 5788   2.800   1.824   1.123
 1928SOL    HW2 5789   2.956   1.860   1.154
 1929SOL     OW 5790   2.632   3.192   0.301
 1929SOL    HW1 5791   2.586   3.105   0.318
 1929SOL    HW2 5792   2.723   3.189   0.342
 1930SOL     OW 5793   2.480   3.429   1.284
 1930SOL    HW1 5794   2.475   3.511   1.341
 1930SOL    HW2 5795   2.569   3.426   1.239
 1931SOL     OW 5796   3.214   1.914   0.168
 1931SOL    HW1 5797   3.249   1.873   0.084
 1931SOL    HW2 5798   3.124   1.876   0.188
 1932SOL     OW 5799   3.162   2.315   0.691
 1932SOL    HW1 5800   3.103   2.395   0.695
 1932SOL    HW2 5801   3.177   2.280   0.784
 1933SOL     OW 5802   3.455   2.083   0.882
 1933SOL    HW1 5803   3.371   2.082   0.936
 1933SOL    HW2 5804   3.457   2.166   0.826
 1934SOL     OW 5805   1.901   2.939   0.300
 1934SOL    HW1 5806   2.000   2.928   0.291
 1934SOL    HW2 5807   1.861   2.853   0.332
 1935SOL     OW 5808   2.737   3.508   0.337
 1935SOL    HW1 5809   2.660   3.473   0.283
 1935SOL    HW2 5810   2.705   3.579   0.399
 1936SOL     OW 5811   2.092   2.490   1.975
 1936SOL    HW1 5812   1.999   2.488   2.012
 1936SOL    HW2 5813   2.093   2.451   1.883
 1937SOL     OW 5814   2.087   2.137   2.858
 1937SOL    HW1 5815   2.122   2.120   2.950
 1937SOL    HW2 5816   1.999   2.092   2.846
 1938SOL     OW 5817   1.881   2.230   2.509
 1938SOL    HW1 5818   1.799   2.273   2.548
 1938SOL    HW2 5819   1.853   2.157   2.446
 1939SOL     OW 5820   2.431   3.137   3.027
 1939SOL    HW1 5821   2.338   3.130   2.990
 1939SOL    HW2 5822   2.442   3.226   3.071
 1940SOL     OW 5823   3.417   3.373   2.565
 1940SOL    HW1 5824   3.360   3.357   2.646
 1940SOL    HW2 5825   3.358   3.383   2.485
 1941SOL     OW 5826   2.997   2.565   2.579
 1941SOL    HW1 5827   3.054   2.643   2.554
 1941SOL    HW2 5828   2.937   2.591   2.655
 1942SOL     OW 5829   3.617   2.469   2.093
 1942SOL    HW1 5830   3.605   2.456   1.994
 1942SOL    HW2 5831   3.587   2.388   2.142
 1943SOL     OW 5832   2.630   3.006   2.885
 1943SOL    HW1 5833   2.552   3.023   2.945
 1943SOL    HW2 5834   2.664   3.093   2.849
 1944SOL     OW 5835   2.712   2.660   3.685
 1944SOL    HW1 5836   2.708   2.736   3.750
 1944SOL    HW2 5837   2.734   2.696   3.594
 1945SOL     OW 5838   2.547   2.874   2.527
 1945SOL    HW1 5839   2.616   2.858   2.597
 1945SOL    HW2 5840   2.474   2.931   2.565
 1946SOL     OW 5841   2.548   3.023   3.665
 1946SOL    HW1 5842   2.608   3.102   3.679
 1946SOL    HW2 5843   2.462   3.054   3.624
 1947SOL     OW 5844   2.197   3.297   2.923
 1947SOL    HW1 5845   2.119   3.266   2.870
 1947SOL    HW2 5846   2.255   3.355   2.866
 1948SOL     OW 5847   3.322   3.367   3.201
 1948SOL    HW1 5848   3.346   3.461   3.227
 1948SOL    HW2 5849   3.306   3.313   3.283
 1949SOL     OW 5850   2.300   2.254   3.361
 1949SOL    HW1 5851   2.382   2.198   3.370
 1949SOL    HW2 5852   2.219   2.196   3.365
 1950SOL     OW 5853   3.465   2.309   2.599
 1950SOL    HW1 5854   3.391   2.355   2.549
 1950SOL    HW2 5855   3.516   2.377   2.652
 1951SOL     OW 5856   2.093   3.575   2.345
 1951SOL    HW1 5857   2.127   3.652   2.399
 1951SOL    HW2 5858   2.137   3.575   2.255
 1952SOL     OW 5859   2.989   3.203   3.552
 1952SOL    HW1 5860   3.036   3.203   3.640
 1952SOL    HW2 5861   2.941   3.116   3.541
 1953SOL     OW 5862   2.092   3.296   2.400
 1953SOL    HW1 5863   2.066   3.392   2.400
 1953SOL    HW2 5864   2.021   3.242   2.445
 1954SOL     OW 5865   2.102   2.953   2.748
 1954SOL    HW1 5866   2.116   2.869   2.800
 1954SOL    HW2 5867   2.047   3.017   2.803
 1955SOL     OW 5868   2.482   3.648   3.301
 1955SOL    HW1 5869   2.390   3.631   3.336
 1955SOL    HW2 5870   2.510   3.740   3.327
 1956SOL     OW 5871   2.468   2.826   1.985
 1956SOL    HW1 5872   2.475   2.910   1.931
 1956SOL    HW2 5873   2.514   2.839   2.073
 1957SOL     OW 5874   3.456   1.976   3.342
 1957SOL    HW1 5875   3.438   2.043   3.270
 1957SOL    HW2 5876   3.453   2.022   3.431
 1958SOL     OW 5877   1.984   2.505   2.425
 1958SOL    HW1 5878   1.939   2.417   2.442
 1958SOL    HW2 5879   1.983   2.559   2.509
 1959SOL     OW 5880   3.704   3.629   2.221
 1959SOL    HW1 5881   3.758   3.600   2.301
 1959SOL    HW2 5882   3.734   3.719   2.192
 1960SOL     OW 5883   1.889   3.458   1.979
 1960SOL    HW1 5884   1.870   3.362   2.000
 1960SOL    HW2 5885   1.856   3.516   2.054
 1961SOL     OW 5886   3.551   2.784   2.474
 1961SOL    HW1 5887   3.646   2.755   2.482
 1961SOL    HW2 5888   3.543   2.849   2.399
 1962SOL     OW 5889   3.503   2.970   2.294
 1962SOL    HW1 5890   3.589   2.972   2.242
 1962SOL    HW2 5891   3.517   3.017   2.382
 1963SOL     OW 5892   1.975   2.599   3.459
 1963SOL    HW1 5893   2.063   2.586   3.504
 1963SOL    HW2 5894   1.962   2.696   3.437
 1964SOL     OW 5895   2.475   3.227   2.588
 1964SOL    HW1 5896   2.426   3.140   2.597
 1964SOL    HW2 5897   2.452   3.270   2.501
 1965SOL     OW 5898   3.155   3.090   3.285
 1965SOL    HW1 5899   3.192   3.017   3.227
 1965SOL    HW2 5900   3.207   3.095   3.370
 1966SOL     OW 5901   2.671   1.866   2.364
 1966SOL    HW1 5902   2.711   1.957   2.355
 1966SOL    HW2 5903   2.571   1.874   2.370
 1967SOL     OW 5904   2.059   2.838   3.126
 1967SOL    HW1 5905   2.148   2.793   3.112
 1967SOL    HW2 5906   1.986   2.773   3.107
 1968SOL     OW 5907   3.387   2.861   2.052
 1968SOL    HW1 5908   3.324   2.785   2.065
 1968SOL    HW2 5909   3.435   2.879   2.138
 1969SOL     OW 5910   3.049   3.654   3.478
 1969SOL    HW1 5911   3.073   3.714   3.402
 1969SOL    HW2 5912   3.056   3.559   3.448
 1970SOL     OW 5913   2.179   2.113   3.663
 1970SOL    HW1 5914   2.250   2.184   3.669
 1970SOL    HW2 5915   2.091   2.152   3.691
 1971SOL     OW 5916   3.328   3.279   2.815
 1971SOL    HW1 5917   3.269   3.285   2.895
 1971SOL    HW2 5918   3.313   3.191   2.769
 1972SOL     OW 5919   3.529   3.576   2.434
 1972SOL    HW1 5920   3.488   3.553   2.346
 1972SOL    HW2 5921   3.511   3.502   2.499
 1973SOL     OW 5922   2.460   2.591   2.132
 1973SOL    HW1 5923   2.484   2.660   2.064
 1973SOL    HW2 5924   2.382   2.624   2.186
 1974SOL     OW 5925   3.143   2.207   2.806
 1974SOL    HW1 5926   3.057   2.157   2.793
 1974SOL    HW2 5927   3.205   2.153   2.862
 1975SOL     OW 5928   3.438   3.524   2.169
 1975SOL    HW1 5929   3.527   3.570   2.172
 1975SOL    HW2 5930   3.417   3.500   2.074
 1976SOL     OW 5931   2.669   2.467   3.327
 1976SOL    HW1 5932   2.622   2.464   3.416
 1976SOL    HW2 5933   2.618   2.412   3.261
 1977SOL     OW 5934   3.256   2.331   3.536
 1977SOL    HW1 5935   3.236   2.374   3.624
 1977SOL    HW2 5936   3.334   2.269   3.545
 1978SOL     OW 5937   2.835   2.752   3.434
 1978SOL    HW1 5938   2.881   2.668   3.405
 1978SOL    HW2 5939   2.779   2.786   3.359
 1979SOL     OW 5940   2.853   2.272   3.104
 1979SOL    HW1 5941   2.776   2.306   3.158
 1979SOL    HW2 5942   2.819   2.221   3.025
 1980SOL     OW 5943   2.903   2.563   2.291
 1980SOL    HW1 5944   2.929   2.559   2.387
 1980SOL    HW2 5945   2.818   2.512   2.277
 1981SOL     OW 5946   1.938   2.673   2.651
 1981SOL    HW1 5947   2.037   2.661   2.660
 1981SOL    HW2 5948   1.914   2.768   2.672
 1982SOL     OW 5949   1.992   3.683   3.433
 1982SOL    HW1 5950   1.982   3.668   3.532
 1982SOL    HW2 5951   1.906   3.719   3.397
 1983SOL     OW 5952   2.727   2.210   2.057
 1983SOL    HW1 5953   2.786   2.273   2.008
 1983SOL    HW2 5954   2.746   2.116   2.028
 1984SOL     OW 5955   3.581   2.447   3.693
 1984SOL    HW1 5956   3.555   2.536   3.657
 1984SOL    HW2 5957   3.579   2.379   3.620
 1985SOL     OW 5958   3.224   3.006   2.407
 1985SOL    HW1 5959   3.307   2.977   2.359
 1985SOL    HW2 5960   3.175   3.073   2.351
 1986SOL     OW 5961   2.412   2.058   2.747
 1986SOL    HW1 5962   2.407   2.053   2.847
 1986SOL    HW2 5963   2.414   2.154   2.718
 1987SOL     OW 5964   2.870   3.318   2.339
 1987SOL    HW1 5965   2.824   3.390   2.287
 1987SOL    HW2 5966   2.866   3.338   2.437
 1988SOL     OW 5967   2.213   3.663   2.715
 1988SOL    HW1 5968   2.263   3.577   2.721
 1988SOL    HW2 5969   2.278   3.740   2.712
 1989SOL     OW 5970   3.657   2.928   2.735
 1989SOL    HW1 5971   3.595   2.913   2.659
 1989SOL    HW2 5972   3.605   2.939   2.820
 1990SOL     OW 5973   3.089   3.412   3.368
 1990SOL    HW1 5974   3.095   3.335   3.432
 1990SOL    HW2 5975   3.037   3.386   3.288
 1991SOL     OW 5976   2.183   2.805   2.104
 1991SOL    HW1 5977   2.265   2.844   2.062
 1991SOL    HW2 5978   2.156   2.723   2.055
 1992SOL     OW 5979   3.320   2.597   2.590
 1992SOL    HW1 5980   3.315   2.532   2.665
 1992SOL    HW2 5981   3.400   2.656   2.603
 1993SOL     OW 5982   2.323   3.128   3.589
 1993SOL    HW1 5983   2.273   3.129   3.503
 1993SOL    HW2 5984   2.260   3.110   3.665
 1994SOL     OW 5985   2.973   3.638   2.099
 1994SOL    HW1 5986   2.913   3.576   2.149
 1994SOL    HW2 5987   3.004   3.594   2.014
 1995SOL     OW 5988   2.064   2.147   3.360
 1995SOL    HW1 5989   1.984   2.207   3.347
 1995SOL    HW2 5990   2.054   2.098   3.446
 1996SOL     OW 5991   3.494   3.239   1.943
 1996SOL    HW1 5992   3.462   3.333   1.933
 1996SOL    HW2 5993   3.418   3.176   1.931
 1997SOL     OW 5994   2.326   3.605   2.185
 1997SOL    HW1 5995   2.359   3.644   2.271
 1997SOL    HW2 5996   2.402   3.598   2.120
 1998SOL     OW 5997   3.262   1.969   2.288
 1998SOL    HW1 5998   3.238   1.932   2.198
 1998SOL    HW2 5999   3.361   1.985   2.292
 1999SOL     OW 6000   2.111   3.647   3.103
 1999SOL    HW1 6001   2.168   3.582   3.153
 1999SOL    HW2 6002   2.095   3.614   3.010
 2000SOL     OW 6003   2.802   3.560   2.766
 2000SOL    HW1 6004   2.882   3.503   2.787
 2000SOL    HW2 6005   2.753   3.520   2.689
 2001SOL     OW 6006   3.409   2.084   3.591
 2001SOL    HW1 6007   3.404   2.121   3.683
 2001SOL    HW2 6008   3.337   2.015   3.579
 2002SOL     OW 6009   2.476   1.984   1.979
 2002SOL    HW1 6010   2.574   1.962   1.986
 2002SOL    HW2 6011   2.445   1.967   1.886
 2003SOL     OW 6012   2.643   2.126   3.611
 2003SOL    HW1 6013   2.710   2.065   3.654
 2003SOL    HW2 6014   2.570   2.145   3.676
 2004SOL     OW 6015   2.750   3.376   3.057
 2004SOL    HW1 6016   2.727   3.351   2.963
 2004SOL    HW2 6017   2.811   3.307   3.096
 2005SOL     OW 6018   3.213   2.452   3.295
 2005SOL    HW1 6019   3.241   2.409   3.380
 2005SOL    HW2 6020   3.238   2.548   3.296
 2006SOL     OW 6021   2.665   3.264   2.786
 2006SOL    HW1 6022   2.755   3.278   2.744
 2006SOL    HW2 6023   2.594   3.266   2.715
 2007SOL     OW 6024   2.784   2.365   2.761
 2007SOL    HW1 6025   2.759   2.356   2.665
 2007SOL    HW2 6026   2.832   2.283   2.792
 2008SOL     OW 6027   2.401   1.926   2.374
 2008SOL    HW1 6028   2.320   1.927   2.432
 2008SOL    HW2 6029   2.404   2.009   2.319
 2009SOL     OW 6030   3.296   3.050   1.903
 2009SOL    HW1 6031   3.328   2.974   1.960
 2009SOL    HW2 6032   3.204   3.077   1.933
 2010SOL     OW 6033   2.159   1.897   2.033
 2010SOL    HW1 6034   2.208   1.981   2.012
 2010SOL    HW2 6035   2.221   1.832   2.078
 2011SOL     OW 6036   2.797   2.098   2.342
 2011SOL    HW1 6037   2.749   2.139   2.264
 2011SOL    HW2 6038   2.896   2.096   2.323
 2012SOL     OW 6039   2.938   2.545   3.326
 2012SOL    HW1 6040   2.858   2.484   3.329
 2012SOL    HW2 6041   3.019   2.492   3.302
 2013SOL     OW 6042   3.089   3.432   2.655
 2013SOL    HW1 6043   3.110   3.506   2.590
 2013SOL    HW2 6044   3.157   3.432   2.728
 2014SOL     OW 6045   2.321   3.014   2.603
 2014SOL    HW1 6046   2.250   2.987   2.668
 2014SOL    HW2 6047   2.295   2.986   2.510
 2015SOL     OW 6048   3.133   3.659   2.453
 2015SOL    HW1 6049   3.177   3.723   2.389
 2015SOL    HW2 6050   3.083   3.711   2.523
 2016SOL     OW 6051   2.894   2.411   1.878
 2016SOL    HW1 6052   2.853   2.493   1.839
 2016SOL    HW2 6053   2.958   2.437   1.951
 2017SOL     OW 6054   1.940   2.418   3.248
 2017SOL    HW1 6055   2.032   2.417   3.207
 2017SOL    HW2 6056   1.934   2.492   3.315
 2018SOL     OW 6057   2.423   2.084   3.009
 2018SOL    HW1 6058   2.461   2.000   3.046
 2018SOL    HW2 6059   2.335   2.103   3.053
 2019SOL     OW 6060   2.728   2.316   2.504
 2019SOL    HW1 6061   2.696   2.388   2.442
 2019SOL    HW2 6062   2.752   2.235   2.451
 2020SOL     OW 6063   2.879   1.901   2.615
 2020SOL    HW1 6064   2.807   1.906   2.546
 2020SOL    HW2 6065   2.855   1.832   2.684
 2021SOL     OW 6066   3.291   3.035   2.729
 2021SOL    HW1 6067   3.236   2.951   2.722
 2021SOL    HW2 6068   3.317   3.064   2.637
 2022SOL     OW 6069   3.328   2.452   2.854
 2022SOL    HW1 6070   3.298   2.357   2.861
 2022SOL    HW2 6071   3.401   2.468   2.920
 2023SOL     OW 6072   3.719   2.695   2.239
 2023SOL    HW1 6073   3.761   2.631   2.303
 2023SOL    HW2 6074   3.681   2.644   2.161
 2024SOL     OW 6075   2.350   3.247   2.036
 2024SOL    HW1 6076   2.263   3.232   2.083
 2024SOL    HW2 6077   2.333   3.273   1.941
 2025SOL     OW 6078   3.526   3.142   2.519
 2025SOL    HW1 6079   3.625   3.150   2.533
 2025SOL    HW2 6080   3.481   3.226   2.550
 2026SOL     OW 6081   3.252   2.437   1.940
 2026SOL    HW1 6082   3.198   2.416   2.021
 2026SOL    HW2 6083   3.343   2.396   1.949
 2027SOL     OW 6084   3.616   3.085   3.450
 2027SOL    HW1 6085   3.707   3.046   3.437
 2027SOL    HW2 6086   3.624   3.181   3.474
 2028SOL     OW 6087   2.926   3.209   3.202
 2028SOL    HW1 6088   2.846   3.186   3.257
 2028SOL    HW2 6089   3.009   3.183   3.251
 2029SOL     OW 6090   3.454   3.491   3.487
 2029SOL    HW1 6091   3.481   3.525   3.397
 2029SOL    HW2 6092   3.533   3.453   3.533
 2030SOL     OW 6093   2.973   3.057   2.962
 2030SOL    HW1 6094   2.933   3.101   3.043
 2030SOL    HW2 6095   2.932   3.094   2.879
 2031SOL     OW 6096   3.500   2.961   2.941
 2031SOL    HW1 6097   3.505   3.042   3.000
 2031SOL    HW2 6098   3.414   2.963   2.890
 2032SOL     OW 6099   2.777   1.951   3.264
 2032SOL    HW1 6100   2.802   1.931   3.169
 2032SOL    HW2 6101   2.849   2.007   3.306
 2033SOL     OW 6102   2.842   2.978   3.581
 2033SOL    HW1 6103   2.743   2.984   3.591
 2033SOL    HW2 6104   2.865   2.898   3.525
 2034SOL     OW 6105   2.567   2.912   2.230
 2034SOL    HW1 6106   2.553   2.919   2.329
 2034SOL    HW2 6107   2.651   2.861   2.212
 2035SOL     OW 6108   2.272   2.675   3.113
 2035SOL    HW1 6109   2.358   2.687   3.163
 2035SOL    HW2 6110   2.230   2.588   3.140
 2036SOL     OW 6111   3.136   2.248   3.124
 2036SOL    HW1 6112   3.157   2.322   3.188
 2036SOL    HW2 6113   3.047   2.265   3.081
 2037SOL     OW 6114   1.926   3.426   3.193
 2037SOL    HW1 6115   1.880   3.508   3.159
 2037SOL    HW2 6116   2.024   3.445   3.202
 2038SOL     OW 6117   2.229   2.962   2.363
 2038SOL    HW1 6118   2.222   3.045   2.307
 2038SOL    HW2 6119   2.233   2.882   2.303
 2039SOL     OW 6120   2.428   2.399   2.727
 2039SOL    HW1 6121   2.440   2.465   2.653
 2039SOL    HW2 6122   2.474   2.433   2.810
 2040SOL     OW 6123   3.114   3.210   2.250
 2040SOL    HW1 6124   3.164   3.287   2.290
 2040SOL    HW2 6125   3.019   3.212   2.282
 2041SOL     OW 6126   3.134   3.307   3.004
 2041SOL    HW1 6127   3.181   3.320   3.091
 2041SOL    HW2 6128   3.068   3.233   3.013
 2042SOL     OW 6129   3.444   2.501   2.334
 2042SOL    HW1 6130   3.413   2.562   2.407
 2042SOL    HW2 6131   3.494   2.553   2.265
 2043SOL     OW 6132   2.216   3.372   3.191
 2043SOL    HW1 6133   2.195   3.328   3.104
 2043SOL    HW2 6134   2.313   3.398   3.194
 2044SOL     OW 6135   2.264   2.613   3.460
 2044SOL    HW1 6136   2.332   2.668   3.413
 2044SOL    HW2 6137   2.304   2.525   3.487
 2045SOL     OW 6138   3.449   2.641   3.532
 2045SOL    HW1 6139   3.357   2.679   3.527
 2045SOL    HW2 6140   3.509   2.688   3.467
 2046SOL     OW 6141   2.875   1.967   3.632
 2046SOL    HW1 6142   2.881   2.052   3.580
 2046SOL    HW2 6143   2.907   1.891   3.575
 2047SOL     OW 6144   2.366   1.912   3.602
 2047SOL    HW1 6145   2.324   1.855   3.532
 2047SOL    HW2 6146   2.300   1.981   3.634
 2048SOL     OW 6147   2.435   2.732   2.891
 2048SOL    HW1 6148   2.479   2.821   2.882
 2048SOL    HW2 6149   2.372   2.732   2.968
 2049SOL     OW 6150   3.222   2.724   2.907
 2049SOL    HW1 6151   3.147   2.724   2.841
 2049SOL    HW2 6152   3.259   2.632   2.916
 2050SOL     OW 6153   3.071   2.387   2.137
 2050SOL    HW1 6154   3.084   2.303   2.191
 2050SOL    HW2 6155   3.042   2.461   2.197
 2051SOL     OW 6156   2.169   2.075   3.093
 2051SOL    HW1 6157   2.146   2.112   3.183
 2051SOL    HW2 6158   2.139   1.980   3.087
 2052SOL     OW 6159   1.899   3.172   3.144
 2052SOL    HW1 6160   1.952   3.123   3.212
 2052SOL    HW2 6161   1.921   3.270   3.149
 2053SOL     OW 6162   2.594   2.496   2.926
 2053SOL    HW1 6163   2.653   2.470   2.850
 2053SOL    HW2 6164   2.566   2.592   2.915
 2054SOL     OW 6165   3.590   2.797   3.716
 2054SOL    HW1 6166   3.544   2.790   3.627
 2054SOL    HW2 6167   3.528   2.841   3.782
 2055SOL     OW 6168   2.169   1.925   2.480
 2055SOL    HW1 6169   2.158   2.019   2.513
 2055SOL    HW2 6170   2.164   1.862   2.557
 2056SOL     OW 6171   3.484   2.229   2.236
 2056SOL    HW1 6172   3.486   2.153   2.300
 2056SOL    HW2 6173   3.436   2.306   2.276
 2057SOL     OW 6174   2.885   2.628   2.828
 2057SOL    HW1 6175   2.900   2.649   2.924
 2057SOL    HW2 6176   2.855   2.533   2.819
 2058SOL     OW 6177   2.842   3.435   3.562
 2058SOL    HW1 6178   2.822   3.479   3.474
 2058SOL    HW2 6179   2.881   3.344   3.546
 2059SOL     OW 6180   3.721   3.380   3.467
 2059SOL    HW1 6181   3.735   3.407   3.372
 2059SOL    HW2 6182   3.804   3.402   3.520
 2060SOL     OW 6183   2.212   2.760   3.666
 2060SOL    HW1 6184   2.288   2.804   3.714
 2060SOL    HW2 6185   2.247   2.713   3.584
 2061SOL     OW 6186   3.402   2.136   1.987
 2061SOL    HW1 6187   3.341   2.061   2.010
 2061SOL    HW2 6188   3.424   2.188   2.070
 2062SOL     OW 6189   3.165   2.700   1.904
 2062SOL    HW1 6190   3.199   2.607   1.919
 2062SOL    HW2 6191   3.183   2.727   1.809
 2063SOL     OW 6192   2.930   3.195   2.711
 2063SOL    HW1 6193   2.937   3.111   2.656
 2063SOL    HW2 6194   2.992   3.264   2.675
 2064SOL     OW 6195   2.181   2.672   2.811
 2064SOL    HW1 6196   2.274   2.708   2.816
 2064SOL    HW2 6197   2.175   2.587   2.863
 2065SOL     OW 6198   2.201   2.371   2.868
 2065SOL    HW1 6199   2.149   2.288   2.851
 2065SOL    HW2 6200   2.278   2.376   2.804
 2066SOL     OW 6201   3.000   2.242   3.540
 2066SOL    HW1 6202   2.955   2.305   3.604
 2066SOL    HW2 6203   3.093   2.273   3.523
 2067SOL     OW 6204   3.022   2.069   3.339
 2067SOL    HW1 6205   3.022   2.133   3.416
 2067SOL    HW2 6206   3.050   2.117   3.256
 2068SOL     OW 6207   1.870   3.188   2.062
 2068SOL    HW1 6208   1.777   3.209   2.031
 2068SOL    HW2 6209   1.880   3.089   2.075
 2069SOL     OW 6210   1.950   3.663   2.789
 2069SOL    HW1 6211   1.908   3.577   2.762
 2069SOL    HW2 6212   2.044   3.666   2.755
 2070SOL     OW 6213   2.366   3.430   2.772
 2070SOL    HW1 6214   2.432   3.504   2.781
 2070SOL    HW2 6215   2.410   3.351   2.730
 2071SOL     OW 6216   2.864   2.658   3.100
 2071SOL    HW1 6217   2.905   2.626   3.186
 2071SOL    HW2 6218   2.768   2.631   3.097
 2072SOL     OW 6219   1.902   2.406   2.976
 2072SOL    HW1 6220   1.987   2.373   2.935
 2072SOL    HW2 6221   1.915   2.421   3.074
 2073SOL     OW 6222   2.051   2.382   3.584
 2073SOL    HW1 6223   2.110   2.342   3.514
 2073SOL    HW2 6224   1.993   2.453   3.543
 2074SOL     OW 6225   3.231   2.812   3.522
 2074SOL    HW1 6226   3.270   2.901   3.542
 2074SOL    HW2 6227   3.241   2.792   3.425
 2075SOL     OW 6228   2.677   2.434   2.187
 2075SOL    HW1 6229   2.684   2.345   2.141
 2075SOL    HW2 6230   2.583   2.468   2.179
 2076SOL     OW 6231   3.519   2.466   3.068
 2076SOL    HW1 6232   3.481   2.397   3.130
 2076SOL    HW2 6233   3.601   2.430   3.024
 2077SOL     OW 6234   2.114   3.426   3.606
 2077SOL    HW1 6235   2.084   3.483   3.682
 2077SOL    HW2 6236   2.107   3.329   3.632
 2078SOL     OW 6237   2.533   2.326   3.131
 2078SOL    HW1 6238   2.499   2.237   3.101
 2078SOL    HW2 6239   2.559   2.380   3.051
 2079SOL     OW 6240   2.792   3.540   3.327
 2079SOL    HW1 6241   2.768   3.522   3.232
 2079SOL    HW2 6242   2.822   3.634   3.337
 2080SOL     OW 6243   2.021   2.999   3.328
 2080SOL    HW1 6244   2.043   2.938   3.404
 2080SOL    HW2 6245   2.031   2.950   3.242
 2081SOL     OW 6246   3.209   2.921   3.096
 2081SOL    HW1 6247   3.233   2.858   3.022
 2081SOL    HW2 6248   3.119   2.961   3.078
 2082SOL     OW 6249   3.164   2.717   2.171
 2082SOL    HW1 6250   3.078   2.686   2.213
 2082SOL    HW2 6251   3.160   2.703   2.072
 2083SOL     OW 6252   3.621   3.609   3.016
 2083SOL    HW1 6253   3.682   3.639   2.943
 2083SOL    HW2 6254   3.583   3.520   2.994
 2084SOL     OW 6255   3.114   3.593   2.990
 2084SOL    HW1 6256   3.198   3.598   2.936
 2084SOL    HW2 6257   3.091   3.497   3.008
 2085SOL     OW 6258   1.945   3.120   2.884
 2085SOL    HW1 6259   1.940   3.119   2.984
 2085SOL    HW2 6260   1.862   3.079   2.846
 2086SOL     OW 6261   2.550   3.524   3.578
 2086SOL    HW1 6262   2.494   3.605   3.587
 2086SOL    HW2 6263   2.602   3.528   3.492
 2087SOL     OW 6264   3.588   1.997   2.385
 2087SOL    HW1 6265   3.661   1.980   2.318
 2087SOL    HW2 6266   3.557   1.910   2.423
 2088SOL     OW 6267   3.250   3.435   2.339
 2088SOL    HW1 6268   3.317   3.447   2.265
 2088SOL    HW2 6269   3.210   3.524   2.362
 2089SOL     OW 6270   1.992   3.656   3.713
 2089SOL    HW1 6271   1.951   3.582   3.766
 2089SOL    HW2 6272   2.056   3.707   3.771
 2090SOL     OW 6273   3.142   2.789   2.534
 2090SOL    HW1 6274   3.202   2.708   2.536
 2090SOL    HW2 6275   3.182   2.858   2.474
 2091SOL     OW 6276   2.692   3.135   3.284
 2091SOL    HW1 6277   2.687   3.168   3.379
 2091SOL    HW2 6278   2.606   3.154   3.238
 2092SOL     OW 6279   2.534   3.478   2.016
 2092SOL    HW1 6280   2.543   3.488   1.917
 2092SOL    HW2 6281   2.494   3.389   2.037
 2093SOL     OW 6282   3.512   3.582   3.256
 2093SOL    HW1 6283   3.565   3.592   3.172
 2093SOL    HW2 6284   3.485   3.672   3.290
 2094SOL     OW 6285   3.703   2.037   2.825
 2094SOL    HW1 6286   3.742   1.952   2.789
 2094SOL    HW2 6287   3.605   2.039   2.806
 2095SOL     OW 6288   3.056   3.474   1.893
 2095SOL    HW1 6289   3.062   3.381   1.930
 2095SOL    HW2 6290   2.997   3.474   1.813
 2096SOL     OW 6291   2.684   2.864   3.234
 2096SOL    HW1 6292   2.724   2.863   3.142
 2096SOL    HW2 6293   2.694   2.956   3.274
 2097SOL     OW 6294   2.778   2.772   2.153
 2097SOL    HW1 6295   2.841   2.810   2.085
 2097SOL    HW2 6296   2.818   2.689   2.192
 2098SOL     OW 6297   3.366   3.469   1.906
 2098SOL    HW1 6298   3.274   3.506   1.913
 2098SOL    HW2 6299   3.404   3.489   1.816
 2099SOL     OW 6300   2.234   3.150   3.352
 2099SOL    HW1 6301   2.221   3.243   3.318
 2099SOL    HW2 6302   2.150   3.098   3.339
 2100SOL     OW 6303   3.476   3.154   3.151
 2100SOL    HW1 6304   3.536   3.157   3.231
 2100SOL    HW2 6305   3.401   3.218   3.164
 2101SOL     OW 6306   2.901   2.960   2.558
 2101SOL    HW1 6307   2.831   2.913   2.612
 2101SOL    HW2 6308   2.960   2.892   2.515
 2102SOL     OW 6309   2.876   2.098   2.833
 2102SOL    HW1 6310   2.868   2.062   2.740
 2102SOL    HW2 6311   2.874   2.022   2.898
 2103SOL     OW 6312   2.452   3.349   2.353
 2103SOL    HW1 6313   2.494   3.291   2.283
 2103SOL    HW2 6314   2.408   3.428   2.309
 2104SOL     OW 6315   3.571   2.247   3.243
 2104SOL    HW1 6316   3.644   2.316   3.247
 2104SOL    HW2 6317   3.599   2.172   3.184
 2105SOL     OW 6318   2.117   3.210   2.152
 2105SOL    HW1 6319   2.021   3.211   2.125
 2105SOL    HW2 6320   2.129   3.263   2.236
 2106SOL     OW 6321   1.967   2.875   3.588
 2106SOL    HW1 6322   1.890   2.842   3.642
 2106SOL    HW2 6323   2.052   2.845   3.630
 2107SOL     OW 6324   2.534   2.065   3.351
 2107SOL    HW1 6325   2.624   2.049   3.311
 2107SOL    HW2 6326   2.542   2.070   3.450
 2108SOL     OW 6327   1.937   2.207   1.895
 2108SOL    HW1 6328   1.845   2.179   1.866
 2108SOL    HW2 6329   1.968   2.284   1.839
 2109SOL     OW 6330   3.302   2.718   3.260
 2109SOL    HW1 6331   3.245   2.770   3.197
 2109SOL    HW2 6332   3.398   2.730   3.236
 2110SOL     OW 6333   1.934   2.028   2.180
 2110SOL    HW1 6334   1.917   2.111   2.126
 2110SOL    HW2 6335   2.024   1.991   2.158
 2111SOL     OW 6336   3.045   3.197   1.981
 2111SOL    HW1 6337   2.946   3.186   1.983
 2111SOL    HW2 6338   3.079   3.212   2.074
 2112SOL     OW 6339   2.475   2.704   3.293
 2112SOL    HW1 6340   2.531   2.785   3.276
 2112SOL    HW2 6341   2.534   2.624   3.296
 2113SOL     OW 6342   3.355   3.629   2.821
 2113SOL    HW1 6343   3.388   3.693   2.752
 2113SOL    HW2 6344   3.421   3.623   2.896
 2114SOL     OW 6345   2.578   2.427   3.570
 2114SOL    HW1 6346   2.597   2.492   3.644
 2114SOL    HW2 6347   2.638   2.347   3.579
 2115SOL     OW 6348   3.312   3.082   3.495
 2115SOL    HW1 6349   3.303   3.072   3.594
 2115SOL    HW2 6350   3.408   3.075   3.469
 2116SOL     OW 6351   2.252   3.603   3.422
 2116SOL    HW1 6352   2.161   3.644   3.420
 2116SOL    HW2 6353   2.245   3.509   3.454
 2117SOL     OW 6354   3.536   2.745   3.116
 2117SOL    HW1 6355   3.509   2.656   3.079
 2117SOL    HW2 6356   3.537   2.813   3.043
 2118SOL     OW 6357   3.087   2.187   2.311
 2118SOL    HW1 6358   3.152   2.113   2.300
 2118SOL    HW2 6359   3.107   2.237   2.395
 2119SOL     OW 6360   2.456   2.607   2.514
 2119SOL    HW1 6361   2.506   2.692   2.495
 2119SOL    HW2 6362   2.368   2.609   2.466
 2120SOL     OW 6363   3.639   2.204   3.504
 2120SOL    HW1 6364   3.622   2.235   3.410
 2120SOL    HW2 6365   3.555   2.167   3.542
 2121SOL     OW 6366   3.592   2.796   3.379
 2121SOL    HW1 6367   3.630   2.887   3.394
 2121SOL    HW2 6368   3.584   2.779   3.280
 2122SOL     OW 6369   2.721   3.236   1.878
 2122SOL    HW1 6370   2.675   3.251   1.966
 2122SOL    HW2 6371   2.765   3.321   1.848
 2123SOL     OW 6372   2.523   3.652   2.815
 2123SOL    HW1 6373   2.477   3.740   2.802
 2123SOL    HW2 6374   2.622   3.664   2.808
 2124SOL     OW 6375   2.721   2.818   2.723
 2124SOL    HW1 6376   2.775   2.749   2.771
 2124SOL    HW2 6377   2.689   2.887   2.789
 2125SOL     OW 6378   2.945   2.846   1.949
 2125SOL    HW1 6379   2.922   2.899   1.867
 2125SOL    HW2 6380   3.026   2.790   1.930
 2126SOL     OW 6381   3.723   3.431   2.713
 2126SOL    HW1 6382   3.652   3.419   2.643
 2126SOL    HW2 6383   3.724   3.352   2.773
 2127SOL     OW 6384   2.083   3.176   3.706
 2127SOL    HW1 6385   2.018   3.103   3.685
 2127SOL    HW2 6386   2.087   3.190   3.804
 2128SOL     OW 6387   1.941   3.102   2.515
 2128SOL    HW1 6388   1.940   3.055   2.603
 2128SOL    HW2 6389   2.023   3.074   2.464
 2129SOL     OW 6390   2.534   3.253   3.486
 2129SOL    HW1 6391   2.456   3.203   3.524
 2129SOL    HW2 6392   2.531   3.348   3.517
 2130SOL     OW 6393   3.686   2.054   3.089
 2130SOL    HW1 6394   3.682   1.964   3.133
 2130SOL    HW2 6395   3.689   2.043   2.990
 2131SOL     OW 6396   3.567   3.349   2.966
 2131SOL    HW1 6397   3.474   3.324   2.939
 2131SOL    HW2 6398   3.593   3.299   3.048
 2132SOL     OW 6399   2.179   2.409   3.142
 2132SOL    HW1 6400   2.217   2.350   3.214
 2132SOL    HW2 6401   2.219   2.383   3.054
 2133SOL     OW 6402   2.674   3.448   2.549
 2133SOL    HW1 6403   2.706   3.458   2.455
 2133SOL    HW2 6404   2.595   3.386   2.551
 2134SOL     OW 6405   3.286   2.076   2.974
 2134SOL    HW1 6406   3.338   2.011   3.029
 2134SOL    HW2 6407   3.237   2.139   3.035
 2135SOL     OW 6408   2.863   1.896   3.016
 2135SOL    HW1 6409   2.800   1.824   2.985
 2135SOL    HW2 6410   2.956   1.860   3.016
 2136SOL     OW 6411   2.632   3.192   2.163
 2136SOL    HW1 6412   2.586   3.105   2.180
 2136SOL    HW2 6413   2.723   3.189   2.204
 2137SOL     OW 6414   2.480   3.429   3.146
 2137SOL    HW1 6415   2.475   3.511   3.203
 2137SOL    HW2 6416   2.569   3.426   3.101
 2138SOL     OW 6417   3.214   1.914   2.030
 2138SOL    HW1 6418   3.249   1.873   1.946
 2138SOL    HW2 6419   3.124   1.876   2.050
 2139SOL     OW 6420   3.162   2.315   2.553
 2139SOL    HW1 6421   3.103   2.395   2.557
 2139SOL    HW2 6422   3.177   2.280   2.646
 2140SOL     OW 6423   3.455   2.083   2.744
 2140SOL    HW1 6424   3.371   2.082   2.798
 2140SOL    HW2 6425   3.457   2.166   2.688
 2141SOL     OW 6426   1.901   2.939   2.162
 2141SOL    HW1 6427   2.000   2.928   2.153
 2141SOL    HW2 6428   1.861   2.853   2.194
 2142SOL     OW 6429   2.737   3.508   2.199
 2142SOL    HW1 6430   2.660   3.473   2.145
 2142SOL    HW2 6431   2.705   3.579   2.261
 2143SOL     OW 6432   2.092   2.490   3.837
 2143SOL    HW1 6433   1.999   2.488   3.874
 2143SOL    HW2 6434   2.093   2.451   3.745
 2144SOL     OW 6435   2.087   2.137   4.720
 2144SOL    HW1 6436   2.122   2.120   4.812
 2144SOL    HW2 6437   1.999   2.092   4.708
 2145SOL     OW 6438   3.617   2.469   3.955
 2145SOL    HW1 6439   3.605   2.456   3.856
 2145SOL    HW2 6440   3.587   2.388   4.004
 2146SOL     OW 6441   3.465   2.309   4.461
 2146SOL    HW1 6442   3.391   2.355   4.411
 2146SOL    HW2 6443   3.516   2.377   4.514
 2147SOL     OW 6444   2.093   3.575   4.207
 2147SOL    HW1 6445   2.127   3.652   4.261
 2147SOL    HW2 6446   2.137   3.575   4.117
 2148SOL     OW 6447   2.092   3.296   4.262
 2148SOL    HW1 6448   2.066   3.392   4.262
 2148SOL    HW2 6449   2.021   3.242   4.307
 2149SOL     OW 6450   2.468   2.826   3.847
 2149SOL    HW1 6451   2.475   2.910   3.793
 2149SOL    HW2 6452   2.514   2.839   3.935
 2150SOL     OW 6453   1.984   2.505   4.287
 2150SOL    HW1 6454   1.939   2.417   4.304
 2150SOL    HW2 6455   1.983   2.559   4.371
 2151SOL     OW 6456   3.704   3.629   4.083
 2151SOL    HW1 6457   3.758   3.600   4.163
 2151SOL    HW2 6458   3.734   3.719   4.054
 2152SOL     OW 6459   1.889   3.458   3.841
 2152SOL    HW1 6460   1.870   3.362   3.862
 2152SOL    HW2 6461   1.856   3.516   3.916
 2153SOL     OW 6462   3.551   2.784   4.336
 2153SOL    HW1 6463   3.646   2.755   4.344
 2153SOL    HW2 6464   3.543   2.849   4.261
 2154SOL     OW 6465   3.503   2.970   4.156
 2154SOL    HW1 6466   3.589   2.972   4.104
 2154SOL    HW2 6467   3.517   3.017   4.244
 2155SOL     OW 6468   2.475   3.227   4.450
 2155SOL    HW1 6469   2.426   3.140   4.459
 2155SOL    HW2 6470   2.452   3.270   4.363
 2156SOL     OW 6471   2.671   1.866   4.226
 2156SOL    HW1 6472   2.711   1.957   4.217
 2156SOL    HW2 6473   2.571   1.874   4.232
 2157SOL     OW 6474   3.387   2.861   3.914
 2157SOL    HW1 6475   3.324   2.785   3.927
 2157SOL    HW2 6476   3.435   2.879   4.000
 2158SOL     OW 6477   3.328   3.279   4.677
 2158SOL    HW1 6478   3.269   3.285   4.757
 2158SOL    HW2 6479   3.313   3.191   4.631
 2159SOL     OW 6480   2.460   2.591   3.994
 2159SOL    HW1 6481   2.484   2.660   3.926
 2159SOL    HW2 6482   2.382   2.624   4.048
 2160SOL     OW 6483   3.143   2.207   4.668
 2160SOL    HW1 6484   3.057   2.157   4.655
 2160SOL    HW2 6485   3.205   2.153   4.724
 2161SOL     OW 6486   3.438   3.524   4.031
 2161SOL    HW1 6487   3.527   3.570   4.034
 2161SOL    HW2 6488   3.417   3.500   3.936
 2162SOL     OW 6489   2.903   2.563   4.153
 2162SOL    HW1 6490   2.929   2.559   4.249
 2162SOL    HW2 6491   2.818   2.512   4.139
 2163SOL     OW 6492   1.938   2.673   4.513
 2163SOL    HW1 6493   2.037   2.661   4.522
 2163SOL    HW2 6494   1.914   2.768   4.534
 2164SOL     OW 6495   2.727   2.210   3.919
 2164SOL    HW1 6496   2.786   2.273   3.870
 2164SOL    HW2 6497   2.746   2.116   3.890
 2165SOL     OW 6498   3.224   3.006   4.269
 2165SOL    HW1 6499   3.307   2.977   4.221
 2165SOL    HW2 6500   3.175   3.073   4.213
 2166SOL     OW 6501   2.870   3.318   4.201
 2166SOL    HW1 6502   2.824   3.390   4.149
 2166SOL    HW2 6503   2.866   3.338   4.299
 2167SOL     OW 6504   2.213   3.663   4.577
 2167SOL    HW1 6505   2.263   3.577   4.583
 2167SOL    HW2 6506   2.278   3.740   4.574
 2168SOL     OW 6507   3.657   2.928   4.597
 2168SOL    HW1 6508   3.595   2.913   4.521
 2168SOL    HW2 6509   3.605   2.939   4.682
 2169SOL     OW 6510   2.183   2.805   3.966
 2169SOL    HW1 6511   2.265   2.844   3.924
 2169SOL    HW2 6512   2.156   2.723   3.917
 2170SOL     OW 6513   2.973   3.638   3.961
 2170SOL    HW1 6514   2.913   3.576   4.011
 2170SOL    HW2 6515   3.004   3.594   3.876
 2171SOL     OW 6516   3.494   3.239   3.805
 2171SOL    HW1 6517   3.462   3.333   3.795
 2171SOL    HW2 6518   3.418   3.176   3.793
 2172SOL     OW 6519   2.326   3.605   4.047
 2172SOL    HW1 6520   2.359   3.644   4.133
 2172SOL    HW2 6521   2.402   3.598   3.982
 2173SOL     OW 6522   3.262   1.969   4.150
 2173SOL    HW1 6523   3.238   1.932   4.060
 2173SOL    HW2 6524   3.361   1.985   4.154
 2174SOL     OW 6525   2.244   2.562   4.204
 2174SOL    HW1 6526   2.289   2.472   4.201
 2174SOL    HW2 6527   2.150   2.551   4.237
 2175SOL     OW 6528   2.476   1.984   3.841
 2175SOL    HW1 6529   2.574   1.962   3.848
 2175SOL    HW2 6530   2.445   1.967   3.748
 2176SOL     OW 6531   2.401   1.926   4.236
 2176SOL    HW1 6532   2.320   1.927   4.294
 2176SOL    HW2 6533   2.404   2.009   4.181
 2177SOL     OW 6534   3.296   3.050   3.765
 2177SOL    HW1 6535   3.328   2.974   3.822
 2177SOL    HW2 6536   3.204   3.077   3.795
 2178SOL     OW 6537   2.159   1.897   3.895
 2178SOL    HW1 6538   2.208   1.981   3.874
 2178SOL    HW2 6539   2.221   1.832   3.940
 2179SOL     OW 6540   2.797   2.098   4.204
 2179SOL    HW1 6541   2.749   2.139   4.126
 2179SOL    HW2 6542   2.896   2.096   4.185
 2180SOL     OW 6543   2.321   3.014   4.465
 2180SOL    HW1 6544   2.250   2.987   4.530
 2180SOL    HW2 6545   2.295   2.986   4.372
 2181SOL     OW 6546   3.133   3.659   4.315
 2181SOL    HW1 6547   3.177   3.723   4.251
 2181SOL    HW2 6548   3.083   3.711   4.385
 2182SOL     OW 6549   2.894   2.411   3.740
 2182SOL    HW1 6550   2.853   2.493   3.701
 2182SOL    HW2 6551   2.958   2.437   3.813
 2183SOL     OW 6552   2.728   2.316   4.366
 2183SOL    HW1 6553   2.696   2.388   4.304
 2183SOL    HW2 6554   2.752   2.235   4.313
 2184SOL     OW 6555   3.328   2.452   4.716
 2184SOL    HW1 6556   3.298   2.357   4.723
 2184SOL    HW2 6557   3.401   2.468   4.782
 2185SOL     OW 6558   3.719   2.695   4.101
 2185SOL    HW1 6559   3.761   2.631   4.165
 2185SOL    HW2 6560   3.681   2.644   4.023
 2186SOL     OW 6561   2.350   3.247   3.898
 2186SOL    HW1 6562   2.263   3.232   3.945
 2186SOL    HW2 6563   2.333   3.273   3.803
 2187SOL     OW 6564   3.252   2.437   3.802
 2187SOL    HW1 6565   3.198   2.416   3.883
 2187SOL    HW2 6566   3.343   2.396   3.811
 2188SOL     OW 6567   2.389   2.118   4.052
 2188SOL    HW1 6568   2.416   2.059   3.977
 2188SOL    HW2 6569   2.389   2.213   4.021
 2189SOL     OW 6570   2.567   2.912   4.092
 2189SOL    HW1 6571   2.553   2.919   4.191
 2189SOL    HW2 6572   2.651   2.861   4.074
 2190SOL     OW 6573   2.229   2.962   4.225
 2190SOL    HW1 6574   2.222   3.045   4.169
 2190SOL    HW2 6575   2.233   2.882   4.165
 2191SOL     OW 6576   3.114   3.210   4.112
 2191SOL    HW1 6577   3.164   3.287   4.152
 2191SOL    HW2 6578   3.019   3.212   4.144
 2192SOL     OW 6579   3.444   2.501   4.196
 2192SOL    HW1 6580   3.413   2.562   4.269
 2192SOL    HW2 6581   3.494   2.553   4.127
 2193SOL     OW 6582   3.071   2.387   3.999
 2193SOL    HW1 6583   3.084   2.303   4.053
 2193SOL    HW2 6584   3.042   2.461   4.059
 2194SOL     OW 6585   2.169   1.925   4.342
 2194SOL    HW1 6586   2.158   2.019   4.375
 2194SOL    HW2 6587   2.164   1.862   4.419
 2195SOL     OW 6588   3.484   2.229   4.098
 2195SOL    HW1 6589   3.486   2.153   4.162
 2195SOL    HW2 6590   3.436   2.306   4.138
 2196SOL     OW 6591   3.402   2.136   3.849
 2196SOL    HW1 6592   3.341   2.061   3.872
 2196SOL    HW2 6593   3.424   2.188   3.932
 2197SOL     OW 6594   3.165   2.700   3.766
 2197SOL    HW1 6595   3.199   2.607   3.781
 2197SOL    HW2 6596   3.183   2.727   3.671
 2198SOL     OW 6597   1.870   3.188   3.924
 2198SOL    HW1 6598   1.777   3.209   3.893
 2198SOL    HW2 6599   1.880   3.089   3.937
 2199SOL     OW 6600   2.677   2.434   4.049
 2199SOL    HW1 6601   2.684   2.345   4.003
 2199SOL    HW2 6602   2.583   2.468   4.041
 2200SOL     OW 6603   2.335   2.362   3.915
 2200SOL    HW1 6604   2.396   2.442   3.919
 2200SOL    HW2 6605   2.240   2.393   3.922
 2201SOL     OW 6606   3.164   2.717   4.033
 2201SOL    HW1 6607   3.078   2.686   4.075
 2201SOL    HW2 6608   3.160   2.703   3.934
 2202SOL     OW 6609   3.588   1.997   4.247
 2202SOL    HW1 6610   3.661   1.980   4.180
 2202SOL    HW2 6611   3.557   1.910   4.285
 2203SOL     OW 6612   3.250   3.435   4.201
 2203SOL    HW1 6613   3.317   3.447   4.127
 2203SOL    HW2 6614   3.210   3.524   4.224
 2204SOL     OW 6615   2.534   3.478   3.878
 2204SOL    HW1 6616   2.543   3.488   3.779
 2204SOL    HW2 6617   2.494   3.389   3.899
 2205SOL     OW 6618   3.703   2.037   4.687
 2205SOL    HW1 6619   3.742   1.952   4.651
 2205SOL    HW2 6620   3.605   2.039   4.668
 2206SOL     OW 6621   3.056   3.474   3.755
 2206SOL    HW1 6622   3.062   3.381   3.792
 2206SOL    HW2 6623   2.997   3.474   3.675
 2207SOL     OW 6624   2.778   2.772   4.015
 2207SOL    HW1 6625   2.841   2.810   3.947
 2207SOL    HW2 6626   2.818   2.689   4.054
 2208SOL     OW 6627   3.366   3.469   3.768
 2208SOL    HW1 6628   3.274   3.506   3.775
 2208SOL    HW2 6629   3.404   3.489   3.678
 2209SOL     OW 6630   2.452   3.349   4.215
 2209SOL    HW1 6631   2.494   3.291   4.145
 2209SOL    HW2 6632   2.408   3.428   4.171
 2210SOL     OW 6633   2.117   3.210   4.014
 2210SOL    HW1 6634   2.021   3.211   3.987
 2210SOL    HW2 6635   2.129   3.263   4.098
 2211SOL     OW 6636   1.937   2.207   3.757
 2211SOL    HW1 6637   1.845   2.179   3.728
 2211SOL    HW2 6638   1.968   2.284   3.701
 2212SOL     OW 6639   1.934   2.028   4.042
 2212SOL    HW1 6640   1.917   2.111   3.988
 2212SOL    HW2 6641   2.024   1.991   4.020
 2213SOL     OW 6642   3.045   3.197   3.843
 2213SOL    HW1 6643   2.946   3.186   3.845
 2213SOL    HW2 6644   3.079   3.212   3.936
 2214SOL     OW 6645   3.087   2.187   4.173
 2214SOL    HW1 6646   3.152   2.113   4.162
 2214SOL    HW2 6647   3.107   2.237   4.257
 2215SOL     OW 6648   2.456   2.607   4.376
 2215SOL    HW1 6649   2.506   2.692   4.357
 2215SOL    HW2 6650   2.368   2.609   4.328
 2216SOL     OW 6651   2.721   3.236   3.740
 2216SOL    HW1 6652   2.675   3.251   3.828
 2216SOL    HW2 6653   2.765   3.321   3.710
 2217SOL     OW 6654   2.945   2.846   3.811
 2217SOL    HW1 6655   2.922   2.899   3.729
 2217SOL    HW2 6656   3.026   2.790   3.792
 2218SOL     OW 6657   1.941   3.102   4.377
 2218SOL    HW1 6658   1.940   3.055   4.465
 2218SOL    HW2 6659   2.023   3.074   4.326
 2219SOL     OW 6660   2.290   2.286   4.244
 2219SOL    HW1 6661   2.320   2.214   4.182
 2219SOL    HW2 6662   2.251   2.246   4.327
 2220SOL     OW 6663   2.674   3.448   4.411
 2220SOL    HW1 6664   2.706   3.458   4.317
 2220SOL    HW2 6665   2.595   3.386   4.413
 2221SOL     OW 6666   2.632   3.192   4.025
 2221SOL    HW1 6667   2.586   3.105   4.042
 2221SOL    HW2 6668   2.723   3.189   4.066
 2222SOL     OW 6669   3.214   1.914   3.892
 2222SOL    HW1 6670   3.249   1.873   3.808
 2222SOL    HW2 6671   3.124   1.876   3.912
 2223SOL     OW 6672   3.162   2.315   4.415
 2223SOL    HW1 6673   3.103   2.395   4.419
 2223SOL    HW2 6674   3.177   2.280   4.508
 2224SOL     OW 6675   1.901   2.939   4.024
 2224SOL    HW1 6676   2.000   2.928   4.015
 2224SOL    HW2 6677   1.861   2.853   4.056
 2225SOL     OW 6678   2.737   3.508   4.061
 2225SOL    HW1 6679   2.660   3.473   4.007
 2225SOL    HW2 6680   2.705   3.579   4.123
 2226SOL     OW 6681   2.087   3.999   0.996
 2226SOL    HW1 6682   2.122   3.982   1.088
 2226SOL    HW2 6683   1.999   3.954   0.984
 2227SOL     OW 6684   1.881   4.092   0.647
 2227SOL    HW1 6685   1.799   4.135   0.686
 2227SOL    HW2 6686   1.853   4.019   0.584
 2228SOL     OW 6687   3.617   4.331   0.231
 2228SOL    HW1 6688   3.605   4.318   0.132
 2228SOL    HW2 6689   3.587   4.250   0.280
 2229SOL     OW 6690   2.547   4.736   0.665
 2229SOL    HW1 6691   2.616   4.720   0.735
 2229SOL    HW2 6692   2.474   4.793   0.703
 2230SOL     OW 6693   2.300   4.116   1.499
 2230SOL    HW1 6694   2.382   4.060   1.508
 2230SOL    HW2 6695   2.219   4.058   1.503
 2231SOL     OW 6696   3.465   4.171   0.737
 2231SOL    HW1 6697   3.391   4.217   0.687
 2231SOL    HW2 6698   3.516   4.239   0.790
 2232SOL     OW 6699   3.456   3.838   1.480
 2232SOL    HW1 6700   3.438   3.905   1.408
 2232SOL    HW2 6701   3.453   3.884   1.569
 2233SOL     OW 6702   1.984   4.367   0.563
 2233SOL    HW1 6703   1.939   4.279   0.580
 2233SOL    HW2 6704   1.983   4.421   0.647
 2234SOL     OW 6705   1.975   4.461   1.597
 2234SOL    HW1 6706   2.063   4.448   1.642
 2234SOL    HW2 6707   1.962   4.558   1.575
 2235SOL     OW 6708   2.671   3.728   0.502
 2235SOL    HW1 6709   2.711   3.819   0.493
 2235SOL    HW2 6710   2.571   3.736   0.508
 2236SOL     OW 6711   2.179   3.975   1.801
 2236SOL    HW1 6712   2.250   4.046   1.807
 2236SOL    HW2 6713   2.091   4.014   1.829
 2237SOL     OW 6714   3.143   4.069   0.944
 2237SOL    HW1 6715   3.057   4.019   0.931
 2237SOL    HW2 6716   3.205   4.015   1.000
 2238SOL     OW 6717   2.669   4.329   1.465
 2238SOL    HW1 6718   2.622   4.326   1.554
 2238SOL    HW2 6719   2.618   4.274   1.399
 2239SOL     OW 6720   3.256   4.193   1.674
 2239SOL    HW1 6721   3.236   4.236   1.762
 2239SOL    HW2 6722   3.334   4.131   1.683
 2240SOL     OW 6723   2.853   4.134   1.242
 2240SOL    HW1 6724   2.776   4.168   1.296
 2240SOL    HW2 6725   2.819   4.083   1.163
 2241SOL     OW 6726   2.903   4.425   0.429
 2241SOL    HW1 6727   2.929   4.421   0.525
 2241SOL    HW2 6728   2.818   4.374   0.415
 2242SOL     OW 6729   2.727   4.072   0.195
 2242SOL    HW1 6730   2.786   4.135   0.146
 2242SOL    HW2 6731   2.746   3.978   0.166
 2243SOL     OW 6732   3.581   4.309   1.831
 2243SOL    HW1 6733   3.555   4.398   1.795
 2243SOL    HW2 6734   3.579   4.241   1.758
 2244SOL     OW 6735   2.412   3.920   0.885
 2244SOL    HW1 6736   2.407   3.915   0.985
 2244SOL    HW2 6737   2.414   4.016   0.856
 2245SOL     OW 6738   3.320   4.459   0.728
 2245SOL    HW1 6739   3.315   4.394   0.803
 2245SOL    HW2 6740   3.400   4.518   0.741
 2246SOL     OW 6741   2.064   4.009   1.498
 2246SOL    HW1 6742   1.984   4.069   1.485
 2246SOL    HW2 6743   2.054   3.960   1.584
 2247SOL     OW 6744   3.262   3.831   0.426
 2247SOL    HW1 6745   3.238   3.794   0.336
 2247SOL    HW2 6746   3.361   3.847   0.430
 2248SOL     OW 6747   3.409   3.946   1.729
 2248SOL    HW1 6748   3.404   3.983   1.821
 2248SOL    HW2 6749   3.337   3.877   1.717
 2249SOL     OW 6750   2.476   3.846   0.117
 2249SOL    HW1 6751   2.574   3.824   0.124
 2249SOL    HW2 6752   2.445   3.829   0.024
 2250SOL     OW 6753   2.643   3.988   1.749
 2250SOL    HW1 6754   2.710   3.927   1.792
 2250SOL    HW2 6755   2.570   4.007   1.814
 2251SOL     OW 6756   3.213   4.314   1.433
 2251SOL    HW1 6757   3.241   4.271   1.518
 2251SOL    HW2 6758   3.238   4.410   1.434
 2252SOL     OW 6759   2.784   4.227   0.899
 2252SOL    HW1 6760   2.759   4.218   0.803
 2252SOL    HW2 6761   2.832   4.145   0.930
 2253SOL     OW 6762   2.401   3.788   0.512
 2253SOL    HW1 6763   2.320   3.789   0.570
 2253SOL    HW2 6764   2.404   3.871   0.457
 2254SOL     OW 6765   2.797   3.960   0.480
 2254SOL    HW1 6766   2.749   4.001   0.402
 2254SOL    HW2 6767   2.896   3.958   0.461
 2255SOL     OW 6768   2.938   4.407   1.464
 2255SOL    HW1 6769   2.858   4.346   1.467
 2255SOL    HW2 6770   3.019   4.354   1.440
 2256SOL     OW 6771   2.894   4.273   0.016
 2256SOL    HW1 6772   2.853   4.355  -0.023
 2256SOL    HW2 6773   2.958   4.299   0.089
 2257SOL     OW 6774   1.940   4.280   1.386
 2257SOL    HW1 6775   2.032   4.279   1.345
 2257SOL    HW2 6776   1.934   4.354   1.453
 2258SOL     OW 6777   2.423   3.946   1.147
 2258SOL    HW1 6778   2.461   3.862   1.184
 2258SOL    HW2 6779   2.335   3.965   1.191
 2259SOL     OW 6780   2.728   4.178   0.642
 2259SOL    HW1 6781   2.696   4.250   0.580
 2259SOL    HW2 6782   2.752   4.097   0.589
 2260SOL     OW 6783   2.879   3.763   0.753
 2260SOL    HW1 6784   2.807   3.768   0.684
 2260SOL    HW2 6785   2.855   3.694   0.822
 2261SOL     OW 6786   3.328   4.314   0.992
 2261SOL    HW1 6787   3.298   4.219   0.999
 2261SOL    HW2 6788   3.401   4.330   1.058
 2262SOL     OW 6789   3.252   4.299   0.078
 2262SOL    HW1 6790   3.198   4.278   0.159
 2262SOL    HW2 6791   3.343   4.258   0.087
 2263SOL     OW 6792   2.389   3.980   0.328
 2263SOL    HW1 6793   2.416   3.921   0.253
 2263SOL    HW2 6794   2.389   4.075   0.297
 2264SOL     OW 6795   2.777   3.813   1.402
 2264SOL    HW1 6796   2.802   3.793   1.307
 2264SOL    HW2 6797   2.849   3.869   1.444
 2265SOL     OW 6798   3.136   4.110   1.262
 2265SOL    HW1 6799   3.157   4.184   1.326
 2265SOL    HW2 6800   3.047   4.127   1.219
 2266SOL     OW 6801   2.428   4.261   0.865
 2266SOL    HW1 6802   2.440   4.327   0.791
 2266SOL    HW2 6803   2.474   4.295   0.948
 2267SOL     OW 6804   3.444   4.363   0.472
 2267SOL    HW1 6805   3.413   4.424   0.545
 2267SOL    HW2 6806   3.494   4.415   0.403
 2268SOL     OW 6807   2.875   3.829   1.770
 2268SOL    HW1 6808   2.881   3.914   1.718
 2268SOL    HW2 6809   2.907   3.753   1.713
 2269SOL     OW 6810   2.366   3.774   1.740
 2269SOL    HW1 6811   2.324   3.717   1.670
 2269SOL    HW2 6812   2.300   3.843   1.772
 2270SOL     OW 6813   3.071   4.249   0.275
 2270SOL    HW1 6814   3.084   4.165   0.329
 2270SOL    HW2 6815   3.042   4.323   0.335
 2271SOL     OW 6816   2.169   3.937   1.231
 2271SOL    HW1 6817   2.146   3.974   1.321
 2271SOL    HW2 6818   2.139   3.842   1.225
 2272SOL     OW 6819   2.594   4.358   1.064
 2272SOL    HW1 6820   2.653   4.332   0.988
 2272SOL    HW2 6821   2.566   4.454   1.053
 2273SOL     OW 6822   2.169   3.787   0.618
 2273SOL    HW1 6823   2.158   3.881   0.651
 2273SOL    HW2 6824   2.164   3.724   0.695
 2274SOL     OW 6825   3.484   4.091   0.374
 2274SOL    HW1 6826   3.486   4.015   0.438
 2274SOL    HW2 6827   3.436   4.168   0.414
 2275SOL     OW 6828   3.402   3.998   0.125
 2275SOL    HW1 6829   3.341   3.923   0.148
 2275SOL    HW2 6830   3.424   4.050   0.208
 2276SOL     OW 6831   2.181   4.534   0.949
 2276SOL    HW1 6832   2.274   4.570   0.954
 2276SOL    HW2 6833   2.175   4.449   1.001
 2277SOL     OW 6834   2.201   4.233   1.006
 2277SOL    HW1 6835   2.149   4.150   0.989
 2277SOL    HW2 6836   2.278   4.238   0.942
 2278SOL     OW 6837   3.000   4.104   1.678
 2278SOL    HW1 6838   2.955   4.167   1.742
 2278SOL    HW2 6839   3.093   4.135   1.661
 2279SOL     OW 6840   3.022   3.931   1.477
 2279SOL    HW1 6841   3.022   3.995   1.554
 2279SOL    HW2 6842   3.050   3.979   1.394
 2280SOL     OW 6843   1.902   4.268   1.114
 2280SOL    HW1 6844   1.987   4.235   1.073
 2280SOL    HW2 6845   1.915   4.283   1.212
 2281SOL     OW 6846   2.051   4.244   1.722
 2281SOL    HW1 6847   2.110   4.204   1.652
 2281SOL    HW2 6848   1.993   4.315   1.681
 2282SOL     OW 6849   2.677   4.296   0.325
 2282SOL    HW1 6850   2.684   4.207   0.279
 2282SOL    HW2 6851   2.583   4.330   0.317
 2283SOL     OW 6852   3.519   4.328   1.206
 2283SOL    HW1 6853   3.481   4.259   1.268
 2283SOL    HW2 6854   3.601   4.292   1.162
 2284SOL     OW 6855   2.533   4.188   1.269
 2284SOL    HW1 6856   2.499   4.099   1.239
 2284SOL    HW2 6857   2.559   4.242   1.189
 2285SOL     OW 6858   2.335   4.224   0.191
 2285SOL    HW1 6859   2.396   4.304   0.195
 2285SOL    HW2 6860   2.240   4.255   0.198
 2286SOL     OW 6861   2.765   3.810   0.133
 2286SOL    HW1 6862   2.816   3.811   0.047
 2286SOL    HW2 6863   2.821   3.768   0.204
 2287SOL     OW 6864   3.588   3.859   0.523
 2287SOL    HW1 6865   3.661   3.842   0.456
 2287SOL    HW2 6866   3.557   3.772   0.561
 2288SOL     OW 6867   3.142   4.651   0.672
 2288SOL    HW1 6868   3.202   4.570   0.674
 2288SOL    HW2 6869   3.182   4.720   0.612
 2289SOL     OW 6870   3.703   3.899   0.963
 2289SOL    HW1 6871   3.742   3.814   0.927
 2289SOL    HW2 6872   3.605   3.901   0.944
 2290SOL     OW 6873   2.125   4.050   0.720
 2290SOL    HW1 6874   2.046   4.101   0.686
 2290SOL    HW2 6875   2.116   4.035   0.818
 2291SOL     OW 6876   2.876   3.960   0.971
 2291SOL    HW1 6877   2.868   3.924   0.878
 2291SOL    HW2 6878   2.874   3.884   1.036
 2292SOL     OW 6879   3.571   4.109   1.381
 2292SOL    HW1 6880   3.644   4.178   1.385
 2292SOL    HW2 6881   3.599   4.034   1.322
 2293SOL     OW 6882   2.534   3.927   1.489
 2293SOL    HW1 6883   2.624   3.911   1.449
 2293SOL    HW2 6884   2.542   3.932   1.588
 2294SOL     OW 6885   1.937   4.069   0.033
 2294SOL    HW1 6886   1.845   4.041   0.004
 2294SOL    HW2 6887   1.968   4.146  -0.023
 2295SOL     OW 6888   2.578   4.289   1.708
 2295SOL    HW1 6889   2.597   4.354   1.782
 2295SOL    HW2 6890   2.638   4.209   1.717
 2296SOL     OW 6891   3.087   4.049   0.449
 2296SOL    HW1 6892   3.152   3.975   0.438
 2296SOL    HW2 6893   3.107   4.099   0.533
 2297SOL     OW 6894   3.639   4.066   1.642
 2297SOL    HW1 6895   3.622   4.097   1.548
 2297SOL    HW2 6896   3.555   4.029   1.680
 2298SOL     OW 6897   2.945   4.708   0.087
 2298SOL    HW1 6898   2.922   4.761   0.005
 2298SOL    HW2 6899   3.026   4.652   0.068
 2299SOL     OW 6900   3.686   3.916   1.227
 2299SOL    HW1 6901   3.682   3.826   1.271
 2299SOL    HW2 6902   3.689   3.905   1.128
 2300SOL     OW 6903   2.290   4.148   0.520
 2300SOL    HW1 6904   2.320   4.076   0.458
 2300SOL    HW2 6905   2.251   4.108   0.603
 2301SOL     OW 6906   2.179   4.271   1.280
 2301SOL    HW1 6907   2.217   4.212   1.352
 2301SOL    HW2 6908   2.219   4.245   1.192
 2302SOL     OW 6909   3.286   3.938   1.112
 2302SOL    HW1 6910   3.338   3.873   1.167
 2302SOL    HW2 6911   3.237   4.001   1.173
 2303SOL     OW 6912   2.863   3.758   1.154
 2303SOL    HW1 6913   2.800   3.686   1.123
 2303SOL    HW2 6914   2.956   3.722   1.154
 2304SOL     OW 6915   3.214   3.776   0.168
 2304SOL    HW1 6916   3.249   3.735   0.084
 2304SOL    HW2 6917   3.124   3.738   0.188
 2305SOL     OW 6918   3.162   4.177   0.691
 2305SOL    HW1 6919   3.103   4.257   0.695
 2305SOL    HW2 6920   3.177   4.142   0.784
 2306SOL     OW 6921   3.455   3.945   0.882
 2306SOL    HW1 6922   3.371   3.944   0.936
 2306SOL    HW2 6923   3.457   4.028   0.826
 2307SOL     OW 6924   2.087   3.999   2.858
 2307SOL    HW1 6925   2.122   3.982   2.950
 2307SOL    HW2 6926   1.999   3.954   2.846
 2308SOL     OW 6927   1.881   4.092   2.509
 2308SOL    HW1 6928   1.799   4.135   2.548
 2308SOL    HW2 6929   1.853   4.019   2.446
 2309SOL     OW 6930   3.617   4.331   2.093
 2309SOL    HW1 6931   3.605   4.318   1.994
 2309SOL    HW2 6932   3.587   4.250   2.142
 2310SOL     OW 6933   2.547   4.736   2.527
 2310SOL    HW1 6934   2.616   4.720   2.597
 2310SOL    HW2 6935   2.474   4.793   2.565
 2311SOL     OW 6936   2.300   4.116   3.361
 2311SOL    HW1 6937   2.382   4.060   3.370
 2311SOL    HW2 6938   2.219   4.058   3.365
 2312SOL     OW 6939   3.465   4.171   2.599
 2312SOL    HW1 6940   3.391   4.217   2.549
 2312SOL    HW2 6941   3.516   4.239   2.652
 2313SOL     OW 6942   3.456   3.838   3.342
 2313SOL    HW1 6943   3.438   3.905   3.270
 2313SOL    HW2 6944   3.453   3.884   3.431
 2314SOL     OW 6945   1.984   4.367   2.425
 2314SOL    HW1 6946   1.939   4.279   2.442
 2314SOL    HW2 6947   1.983   4.421   2.509
 2315SOL     OW 6948   1.975   4.461   3.459
 2315SOL    HW1 6949   2.063   4.448   3.504
 2315SOL    HW2 6950   1.962   4.558   3.437
 2316SOL     OW 6951   2.671   3.728   2.364
 2316SOL    HW1 6952   2.711   3.819   2.355
 2316SOL    HW2 6953   2.571   3.736   2.370
 2317SOL     OW 6954   2.179   3.975   3.663
 2317SOL    HW1 6955   2.250   4.046   3.669
 2317SOL    HW2 6956   2.091   4.014   3.691
 2318SOL     OW 6957   3.143   4.069   2.806
 2318SOL    HW1 6958   3.057   4.019   2.793
 2318SOL    HW2 6959   3.205   4.015   2.862
 2319SOL     OW 6960   2.669   4.329   3.327
 2319SOL    HW1 6961   2.622   4.326   3.416
 2319SOL    HW2 6962   2.618   4.274   3.261
 2320SOL     OW 6963   3.256   4.193   3.536
 2320SOL    HW1 6964   3.236   4.236   3.624
 2320SOL    HW2 6965   3.334   4.131   3.545
 2321SOL     OW 6966   2.853   4.134   3.104
 2321SOL    HW1 6967   2.776   4.168   3.158
 2321SOL    HW2 6968   2.819   4.083   3.025
 2322SOL     OW 6969   2.903   4.425   2.291
 2322SOL    HW1 6970   2.929   4.421   2.387
 2322SOL    HW2 6971   2.818   4.374   2.277
 2323SOL     OW 6972   2.727   4.072   2.057
 2323SOL    HW1 6973   2.786   4.135   2.008
 2323SOL    HW2 6974   2.746   3.978   2.028
 2324SOL     OW 6975   3.581   4.309   3.693
 2324SOL    HW1 6976   3.555   4.398   3.657
 2324SOL    HW2 6977   3.579   4.241   3.620
 2325SOL     OW 6978   2.412   3.920   2.747
 2325SOL    HW1 6979   2.407   3.915   2.847
 2325SOL    HW2 6980   2.414   4.016   2.718
 2326SOL     OW 6981   3.320   4.459   2.590
 2326SOL    HW1 6982   3.315   4.394   2.665
 2326SOL    HW2 6983   3.400   4.518   2.603
 2327SOL     OW 6984   2.064   4.009   3.360
 2327SOL    HW1 6985   1.984   4.069   3.347
 2327SOL    HW2 6986   2.054   3.960   3.446
 2328SOL     OW 6987   3.262   3.831   2.288
 2328SOL    HW1 6988   3.238   3.794   2.198
 2328SOL    HW2 6989   3.361   3.847   2.292
 2329SOL     OW 6990   3.409   3.946   3.591
 2329SOL    HW1 6991   3.404   3.983   3.683
 2329SOL    HW2 6992   3.337   3.877   3.579
 2330SOL     OW 6993   2.476   3.846   1.979
 2330SOL    HW1 6994   2.574   3.824   1.986
 2330SOL    HW2 6995   2.445   3.829   1.886
 2331SOL     OW 6996   2.643   3.988   3.611
 2331SOL    HW1 6997   2.710   3.927   3.654
 2331SOL    HW2 6998   2.570   4.007   3.676
 2332SOL     OW 6999   3.213   4.314   3.295
 2332SOL    HW1 7000   3.241   4.271   3.380
 2332SOL    HW2 7001   3.238   4.410   3.296
 2333SOL     OW 7002   2.784   4.227   2.761
 2333SOL    HW1 7003   2.759   4.218   2.665
 2333SOL    HW2 7004   2.832   4.145   2.792
 2334SOL     OW 7005   2.401   3.788   2.374
 2334SOL    HW1 7006   2.320   3.789   2.432
 2334SOL    HW2 7007   2.404   3.871   2.319
 2335SOL     OW 7008   2.159   3.759   2.033
 2335SOL    HW1 7009   2.208   3.843   2.012
 2335SOL    HW2 7010   2.221   3.694   2.078
 2336SOL     OW 7011   2.797   3.960   2.342
 2336SOL    HW1 7012   2.749   4.001   2.264
 2336SOL    HW2 7013   2.896   3.958   2.323
 2337SOL     OW 7014   2.938   4.407   3.326
 2337SOL    HW1 7015   2.858   4.346   3.329
 2337SOL    HW2 7016   3.019   4.354   3.302
 2338SOL     OW 7017   2.894   4.273   1.878
 2338SOL    HW1 7018   2.853   4.355   1.839
 2338SOL    HW2 7019   2.958   4.299   1.951
 2339SOL     OW 7020   1.940   4.280   3.248
 2339SOL    HW1 7021   2.032   4.279   3.207
 2339SOL    HW2 7022   1.934   4.354   3.315
 2340SOL     OW 7023   2.423   3.946   3.009
 2340SOL    HW1 7024   2.461   3.862   3.046
 2340SOL    HW2 7025   2.335   3.965   3.053
 2341SOL     OW 7026   2.728   4.178   2.504
 2341SOL    HW1 7027   2.696   4.250   2.442
 2341SOL    HW2 7028   2.752   4.097   2.451
 2342SOL     OW 7029   2.879   3.763   2.615
 2342SOL    HW1 7030   2.807   3.768   2.546
 2342SOL    HW2 7031   2.855   3.694   2.684
 2343SOL     OW 7032   3.328   4.314   2.854
 2343SOL    HW1 7033   3.298   4.219   2.861
 2343SOL    HW2 7034   3.401   4.330   2.920
 2344SOL     OW 7035   3.252   4.299   1.940
 2344SOL    HW1 7036   3.198   4.278   2.021
 2344SOL    HW2 7037   3.343   4.258   1.949
 2345SOL     OW 7038   2.389   3.980   2.190
 2345SOL    HW1 7039   2.416   3.921   2.115
 2345SOL    HW2 7040   2.389   4.075   2.159
 2346SOL     OW 7041   2.777   3.813   3.264
 2346SOL    HW1 7042   2.802   3.793   3.169
 2346SOL    HW2 7043   2.849   3.869   3.306
 2347SOL     OW 7044   3.136   4.110   3.124
 2347SOL    HW1 7045   3.157   4.184   3.188
 2347SOL    HW2 7046   3.047   4.127   3.081
 2348SOL     OW 7047   2.428   4.261   2.727
 2348SOL    HW1 7048   2.440   4.327   2.653
 2348SOL    HW2 7049   2.474   4.295   2.810
 2349SOL     OW 7050   3.444   4.363   2.334
 2349SOL    HW1 7051   3.413   4.424   2.407
 2349SOL    HW2 7052   3.494   4.415   2.265
 2350SOL     OW 7053   2.875   3.829   3.632
 2350SOL    HW1 7054   2.881   3.914   3.580
 2350SOL    HW2 7055   2.907   3.753   3.575
 2351SOL     OW 7056   2.366   3.774   3.602
 2351SOL    HW1 7057   2.324   3.717   3.532
 2351SOL    HW2 7058   2.300   3.843   3.634
 2352SOL     OW 7059   3.071   4.249   2.137
 2352SOL    HW1 7060   3.084   4.165   2.191
 2352SOL    HW2 7061   3.042   4.323   2.197
 2353SOL     OW 7062   2.169   3.937   3.093
 2353SOL    HW1 7063   2.146   3.974   3.183
 2353SOL    HW2 7064   2.139   3.842   3.087
 2354SOL     OW 7065   2.594   4.358   2.926
 2354SOL    HW1 7066   2.653   4.332   2.850
 2354SOL    HW2 7067   2.566   4.454   2.915
 2355SOL     OW 7068   2.169   3.787   2.480
 2355SOL    HW1 7069   2.158   3.881   2.513
 2355SOL    HW2 7070   2.164   3.724   2.557
 2356SOL     OW 7071   3.484   4.091   2.236
 2356SOL    HW1 7072   3.486   4.015   2.300
 2356SOL    HW2 7073   3.436   4.168   2.276
 2357SOL     OW 7074   3.402   3.998   1.987
 2357SOL    HW1 7075   3.341   3.923   2.010
 2357SOL    HW2 7076   3.424   4.050   2.070
 2358SOL     OW 7077   2.181   4.534   2.811
 2358SOL    HW1 7078   2.274   4.570   2.816
 2358SOL    HW2 7079   2.175   4.449   2.863
 2359SOL     OW 7080   2.201   4.233   2.868
 2359SOL    HW1 7081   2.149   4.150   2.851
 2359SOL    HW2 7082   2.278   4.238   2.804
 2360SOL     OW 7083   3.000   4.104   3.540
 2360SOL    HW1 7084   2.955   4.167   3.604
 2360SOL    HW2 7085   3.093   4.135   3.523
 2361SOL     OW 7086   3.022   3.931   3.339
 2361SOL    HW1 7087   3.022   3.995   3.416
 2361SOL    HW2 7088   3.050   3.979   3.256
 2362SOL     OW 7089   1.902   4.268   2.976
 2362SOL    HW1 7090   1.987   4.235   2.935
 2362SOL    HW2 7091   1.915   4.283   3.074
 2363SOL     OW 7092   2.051   4.244   3.584
 2363SOL    HW1 7093   2.110   4.204   3.514
 2363SOL    HW2 7094   1.993   4.315   3.543
 2364SOL     OW 7095   2.677   4.296   2.187
 2364SOL    HW1 7096   2.684   4.207   2.141
 2364SOL    HW2 7097   2.583   4.330   2.179
 2365SOL     OW 7098   3.519   4.328   3.068
 2365SOL    HW1 7099   3.481   4.259   3.130
 2365SOL    HW2 7100   3.601   4.292   3.024
 2366SOL     OW 7101   2.533   4.188   3.131
 2366SOL    HW1 7102   2.499   4.099   3.101
 2366SOL    HW2 7103   2.559   4.242   3.051
 2367SOL     OW 7104   2.335   4.224   2.053
 2367SOL    HW1 7105   2.396   4.304   2.057
 2367SOL    HW2 7106   2.240   4.255   2.060
 2368SOL     OW 7107   3.588   3.859   2.385
 2368SOL    HW1 7108   3.661   3.842   2.318
 2368SOL    HW2 7109   3.557   3.772   2.423
 2369SOL     OW 7110   3.142   4.651   2.534
 2369SOL    HW1 7111   3.202   4.570   2.536
 2369SOL    HW2 7112   3.182   4.720   2.474
 2370SOL     OW 7113   3.703   3.899   2.825
 2370SOL    HW1 7114   3.742   3.814   2.789
 2370SOL    HW2 7115   3.605   3.901   2.806
 2371SOL     OW 7116   2.125   4.050   2.582
 2371SOL    HW1 7117   2.046   4.101   2.548
 2371SOL    HW2 7118   2.116   4.035   2.680
 2372SOL     OW 7119   2.876   3.960   2.833
 2372SOL    HW1 7120   2.868   3.924   2.740
 2372SOL    HW2 7121   2.874   3.884   2.898
 2373SOL     OW 7122   3.571   4.109   3.243
 2373SOL    HW1 7123   3.644   4.178   3.247
 2373SOL    HW2 7124   3.599   4.034   3.184
 2374SOL     OW 7125   2.534   3.927   3.351
 2374SOL    HW1 7126   2.624   3.911   3.311
 2374SOL    HW2 7127   2.542   3.932   3.450
 2375SOL     OW 7128   1.937   4.069   1.895
 2375SOL    HW1 7129   1.845   4.041   1.866
 2375SOL    HW2 7130   1.968   4.146   1.839
 2376SOL     OW 7131   1.934   3.890   2.180
 2376SOL    HW1 7132   1.917   3.973   2.126
 2376SOL    HW2 7133   2.024   3.853   2.158
 2377SOL     OW 7134   2.578   4.289   3.570
 2377SOL    HW1 7135   2.597   4.354   3.644
 2377SOL    HW2 7136   2.638   4.209   3.579
 2378SOL     OW 7137   3.087   4.049   2.311
 2378SOL    HW1 7138   3.152   3.975   2.300
 2378SOL    HW2 7139   3.107   4.099   2.395
 2379SOL     OW 7140   3.639   4.066   3.504
 2379SOL    HW1 7141   3.622   4.097   3.410
 2379SOL    HW2 7142   3.555   4.029   3.542
 2380SOL     OW 7143   2.945   4.708   1.949
 2380SOL    HW1 7144   2.922   4.761   1.867
 2380SOL    HW2 7145   3.026   4.652   1.930
 2381SOL     OW 7146   3.686   3.916   3.089
 2381SOL    HW1 7147   3.682   3.826   3.133
 2381SOL    HW2 7148   3.689   3.905   2.990
 2382SOL     OW 7149   2.290   4.148   2.382
 2382SOL    HW1 7150   2.320   4.076   2.320
 2382SOL    HW2 7151   2.251   4.108   2.465
 2383SOL     OW 7152   2.179   4.271   3.142
 2383SOL    HW1 7153   2.217   4.212   3.214
 2383SOL    HW2 7154   2.219   4.245   3.054
 2384SOL     OW 7155   3.286   3.938   2.974
 2384SOL    HW1 7156   3.338   3.873   3.029
 2384SOL    HW2 7157   3.237   4.001   3.035
 2385SOL     OW 7158   2.863   3.758   3.016
 2385SOL    HW1 7159   2.800   3.686   2.985
 2385SOL    HW2 7160   2.956   3.722   3.016
 2386SOL     OW 7161   3.214   3.776   2.030
 2386SOL    HW1 7162   3.249   3.735   1.946
 2386SOL    HW2 7163   3.124   3.738   2.050
 2387SOL     OW 7164   3.162   4.177   2.553
 2387SOL    HW1 7165   3.103   4.257   2.557
 2387SOL    HW2 7166   3.177   4.142   2.646
 2388SOL     OW 7167   3.455   3.945   2.744
 2388SOL    HW1 7168   3.371   3.944   2.798
 2388SOL    HW2 7169   3.457   4.028   2.688
 2389SOL     OW 7170   2.087   3.999   4.720
 2389SOL    HW1 7171   2.122   3.982   4.812
 2389SOL    HW2 7172   1.999   3.954   4.708
 2390SOL     OW 7173   2.997   4.427   4.441
 2390SOL    HW1 7174   3.054   4.505   4.416
 2390SOL    HW2 7175   2.937   4.453   4.517
 2391SOL     OW 7176   3.617   4.331   3.955
 2391SOL    HW1 7177   3.605   4.318   3.856
 2391SOL    HW2 7178   3.587   4.250   4.004
 2392SOL     OW 7179   2.547   4.736   4.389
 2392SOL    HW1 7180   2.616   4.720   4.459
 2392SOL    HW2 7181   2.474   4.793   4.427
 2393SOL     OW 7182   3.465   4.171   4.461
 2393SOL    HW1 7183   3.391   4.217   4.411
 2393SOL    HW2 7184   3.516   4.239   4.514
 2394SOL     OW 7185   1.984   4.367   4.287
 2394SOL    HW1 7186   1.939   4.279   4.304
 2394SOL    HW2 7187   1.983   4.421   4.371
 2395SOL     OW 7188   2.671   3.728   4.226
 2395SOL    HW1 7189   2.711   3.819   4.217
 2395SOL    HW2 7190   2.571   3.736   4.232
 2396SOL     OW 7191   3.143   4.069   4.668
 2396SOL    HW1 7192   3.057   4.019   4.655
 2396SOL    HW2 7193   3.205   4.015   4.724
 2397SOL     OW 7194   2.903   4.425   4.153
 2397SOL    HW1 7195   2.929   4.421   4.249
 2397SOL    HW2 7196   2.818   4.374   4.139
 2398SOL     OW 7197   2.727   4.072   3.919
 2398SOL    HW1 7198   2.786   4.135   3.870
 2398SOL    HW2 7199   2.746   3.978   3.890
 2399SOL     OW 7200   3.262   3.831   4.150
 2399SOL    HW1 7201   3.238   3.794   4.060
 2399SOL    HW2 7202   3.361   3.847   4.154
 2400SOL     OW 7203   2.476   3.846   3.841
 2400SOL    HW1 7204   2.574   3.824   3.848
 2400SOL    HW2 7205   2.445   3.829   3.748
 2401SOL     OW 7206   2.401   3.788   4.236
 2401SOL    HW1 7207   2.320   3.789   4.294
 2401SOL    HW2 7208   2.404   3.871   4.181
 2402SOL     OW 7209   2.159   3.759   3.895
 2402SOL    HW1 7210   2.208   3.843   3.874
 2402SOL    HW2 7211   2.221   3.694   3.940
 2403SOL     OW 7212   2.797   3.960   4.204
 2403SOL    HW1 7213   2.749   4.001   4.126
 2403SOL    HW2 7214   2.896   3.958   4.185
 2404SOL     OW 7215   2.894   4.273   3.740
 2404SOL    HW1 7216   2.853   4.355   3.701
 2404SOL    HW2 7217   2.958   4.299   3.813
 2405SOL     OW 7218   2.728   4.178   4.366
 2405SOL    HW1 7219   2.696   4.250   4.304
 2405SOL    HW2 7220   2.752   4.097   4.313
 2406SOL     OW 7221   3.328   4.314   4.716
 2406SOL    HW1 7222   3.298   4.219   4.723
 2406SOL    HW2 7223   3.401   4.330   4.782
 2407SOL     OW 7224   3.252   4.299   3.802
 2407SOL    HW1 7225   3.198   4.278   3.883
 2407SOL    HW2 7226   3.343   4.258   3.811
 2408SOL     OW 7227   2.389   3.980   4.052
 2408SOL    HW1 7228   2.416   3.921   3.977
 2408SOL    HW2 7229   2.389   4.075   4.021
 2409SOL     OW 7230   3.444   4.363   4.196
 2409SOL    HW1 7231   3.413   4.424   4.269
 2409SOL    HW2 7232   3.494   4.415   4.127
 2410SOL     OW 7233   3.071   4.249   3.999
 2410SOL    HW1 7234   3.084   4.165   4.053
 2410SOL    HW2 7235   3.042   4.323   4.059
 2411SOL     OW 7236   2.169   3.787   4.342
 2411SOL    HW1 7237   2.158   3.881   4.375
 2411SOL    HW2 7238   2.164   3.724   4.419
 2412SOL     OW 7239   3.484   4.091   4.098
 2412SOL    HW1 7240   3.486   4.015   4.162
 2412SOL    HW2 7241   3.436   4.168   4.138
 2413SOL     OW 7242   3.402   3.998   3.849
 2413SOL    HW1 7243   3.341   3.923   3.872
 2413SOL    HW2 7244   3.424   4.050   3.932
 2414SOL     OW 7245   2.677   4.296   4.049
 2414SOL    HW1 7246   2.684   4.207   4.003
 2414SOL    HW2 7247   2.583   4.330   4.041
 2415SOL     OW 7248   2.335   4.224   3.915
 2415SOL    HW1 7249   2.396   4.304   3.919
 2415SOL    HW2 7250   2.240   4.255   3.922
 2416SOL     OW 7251   3.588   3.859   4.247
 2416SOL    HW1 7252   3.661   3.842   4.180
 2416SOL    HW2 7253   3.557   3.772   4.285
 2417SOL     OW 7254   3.142   4.651   4.396
 2417SOL    HW1 7255   3.202   4.570   4.398
 2417SOL    HW2 7256   3.182   4.720   4.336
 2418SOL     OW 7257   3.703   3.899   4.687
 2418SOL    HW1 7258   3.742   3.814   4.651
 2418SOL    HW2 7259   3.605   3.901   4.668
 2419SOL     OW 7260   1.937   4.069   3.757
 2419SOL    HW1 7261   1.845   4.041   3.728
 2419SOL    HW2 7262   1.968   4.146   3.701
 2420SOL     OW 7263   1.934   3.890   4.042
 2420SOL    HW1 7264   1.917   3.973   3.988
 2420SOL    HW2 7265   2.024   3.853   4.020
 2421SOL     OW 7266   3.087   4.049   4.173
 2421SOL    HW1 7267   3.152   3.975   4.162
 2421SOL    HW2 7268   3.107   4.099   4.257
 2422SOL     OW 7269   2.945   4.708   3.811
 2422SOL    HW1 7270   2.922   4.761   3.729
 2422SOL    HW2 7271   3.026   4.652   3.792
 2423SOL     OW 7272   2.290   4.148   4.244
 2423SOL    HW1 7273   2.320   4.076   4.182
 2423SOL    HW2 7274   2.251   4.108   4.327
 2424SOL     OW 7275   3.214   3.776   3.892
 2424SOL    HW1 7276   3.249   3.735   3.808
 2424SOL    HW2 7277   3.124   3.738   3.912
 2425SOL     OW 7278   3.162   4.177   4.415
 2425SOL    HW1 7279   3.103   4.257   4.419
 2425SOL    HW2 7280   3.177   4.142   4.508
 2426SOL     OW 7281   3.954   0.628   0.113
 2426SOL    HW1 7282   3.861   0.626   0.150
 2426SOL    HW2 7283   3.955   0.589   0.021
 2427SOL     OW 7284   3.949   0.275   0.996
 2427SOL    HW1 7285   3.984   0.258   1.088
 2427SOL    HW2 7286   3.861   0.230   0.984
 2428SOL     OW 7287   3.743   0.368   0.647
 2428SOL    HW1 7288   3.661   0.411   0.686
 2428SOL    HW2 7289   3.715   0.295   0.584
 2429SOL     OW 7290   4.293   1.275   1.165
 2429SOL    HW1 7291   4.200   1.268   1.128
 2429SOL    HW2 7292   4.304   1.364   1.209
 2430SOL     OW 7293   4.574   0.798   1.823
 2430SOL    HW1 7294   4.570   0.874   1.888
 2430SOL    HW2 7295   4.596   0.834   1.732
 2431SOL     OW 7296   4.410   1.161   1.803
 2431SOL    HW1 7297   4.470   1.240   1.817
 2431SOL    HW2 7298   4.324   1.192   1.762
 2432SOL     OW 7299   4.059   1.435   1.061
 2432SOL    HW1 7300   3.981   1.404   1.008
 2432SOL    HW2 7301   4.117   1.493   1.004
 2433SOL     OW 7302   4.162   0.392   1.499
 2433SOL    HW1 7303   4.244   0.336   1.508
 2433SOL    HW2 7304   4.081   0.334   1.503
 2434SOL     OW 7305   3.955   1.713   0.483
 2434SOL    HW1 7306   3.989   1.790   0.537
 2434SOL    HW2 7307   3.999   1.713   0.393
 2435SOL     OW 7308   3.954   1.434   0.538
 2435SOL    HW1 7309   3.928   1.530   0.538
 2435SOL    HW2 7310   3.883   1.380   0.583
 2436SOL     OW 7311   3.964   1.091   0.886
 2436SOL    HW1 7312   3.978   1.007   0.938
 2436SOL    HW2 7313   3.909   1.155   0.941
 2437SOL     OW 7314   4.344   1.786   1.439
 2437SOL    HW1 7315   4.252   1.769   1.474
 2437SOL    HW2 7316   4.372   1.878   1.465
 2438SOL     OW 7317   4.330   0.964   0.123
 2438SOL    HW1 7318   4.337   1.048   0.069
 2438SOL    HW2 7319   4.376   0.977   0.211
 2439SOL     OW 7320   3.846   0.643   0.563
 2439SOL    HW1 7321   3.801   0.555   0.580
 2439SOL    HW2 7322   3.845   0.697   0.647
 2440SOL     OW 7323   3.751   1.596   0.117
 2440SOL    HW1 7324   3.732   1.500   0.138
 2440SOL    HW2 7325   3.718   1.654   0.192
 2441SOL     OW 7326   3.837   0.737   1.597
 2441SOL    HW1 7327   3.925   0.724   1.642
 2441SOL    HW2 7328   3.824   0.834   1.575
 2442SOL     OW 7329   4.337   1.365   0.726
 2442SOL    HW1 7330   4.288   1.278   0.735
 2442SOL    HW2 7331   4.314   1.408   0.639
 2443SOL     OW 7332   3.921   0.976   1.264
 2443SOL    HW1 7333   4.010   0.931   1.250
 2443SOL    HW2 7334   3.848   0.911   1.245
 2444SOL     OW 7335   4.041   0.251   1.801
 2444SOL    HW1 7336   4.112   0.322   1.807
 2444SOL    HW2 7337   3.953   0.290   1.829
 2445SOL     OW 7338   4.322   0.729   0.270
 2445SOL    HW1 7339   4.346   0.798   0.202
 2445SOL    HW2 7340   4.244   0.762   0.324
 2446SOL     OW 7341   3.800   0.811   0.789
 2446SOL    HW1 7342   3.899   0.799   0.798
 2446SOL    HW2 7343   3.776   0.906   0.810
 2447SOL     OW 7344   3.854   1.821   1.571
 2447SOL    HW1 7345   3.844   1.806   1.670
 2447SOL    HW2 7346   3.768   1.857   1.535
 2448SOL     OW 7347   4.274   0.196   0.885
 2448SOL    HW1 7348   4.269   0.191   0.985
 2448SOL    HW2 7349   4.276   0.292   0.856
 2449SOL     OW 7350   4.075   1.801   0.853
 2449SOL    HW1 7351   4.125   1.715   0.859
 2449SOL    HW2 7352   4.140   1.878   0.850
 2450SOL     OW 7353   4.045   0.943   0.242
 2450SOL    HW1 7354   4.127   0.982   0.200
 2450SOL    HW2 7355   4.018   0.861   0.193
 2451SOL     OW 7356   4.185   1.266   1.727
 2451SOL    HW1 7357   4.135   1.267   1.641
 2451SOL    HW2 7358   4.122   1.248   1.803
 2452SOL     OW 7359   3.926   0.285   1.498
 2452SOL    HW1 7360   3.846   0.345   1.485
 2452SOL    HW2 7361   3.916   0.236   1.584
 2453SOL     OW 7362   4.188   1.743   0.323
 2453SOL    HW1 7363   4.221   1.782   0.409
 2453SOL    HW2 7364   4.264   1.736   0.258
 2454SOL     OW 7365   3.973   1.785   1.241
 2454SOL    HW1 7366   4.030   1.720   1.291
 2454SOL    HW2 7367   3.957   1.752   1.148
 2455SOL     OW 7368   4.106   0.700   0.480
 2455SOL    HW1 7369   4.151   0.610   0.477
 2455SOL    HW2 7370   4.012   0.689   0.513
 2456SOL     OW 7371   4.527   1.402   0.924
 2456SOL    HW1 7372   4.617   1.416   0.882
 2456SOL    HW2 7373   4.456   1.404   0.853
 2457SOL     OW 7374   4.263   0.064   0.512
 2457SOL    HW1 7375   4.182   0.065   0.570
 2457SOL    HW2 7376   4.266   0.147   0.457
 2458SOL     OW 7377   4.021   0.035   0.171
 2458SOL    HW1 7378   4.070   0.119   0.150
 2458SOL    HW2 7379   4.083  -0.030   0.216
 2459SOL     OW 7380   4.659   0.236   0.480
 2459SOL    HW1 7381   4.611   0.277   0.402
 2459SOL    HW2 7382   4.758   0.234   0.461
 2460SOL     OW 7383   4.183   1.152   0.741
 2460SOL    HW1 7384   4.112   1.125   0.806
 2460SOL    HW2 7385   4.157   1.124   0.648
 2461SOL     OW 7386   3.802   0.556   1.386
 2461SOL    HW1 7387   3.894   0.555   1.345
 2461SOL    HW2 7388   3.796   0.630   1.453
 2462SOL     OW 7389   4.285   0.222   1.147
 2462SOL    HW1 7390   4.323   0.138   1.184
 2462SOL    HW2 7391   4.197   0.241   1.191
 2463SOL     OW 7392   4.212   1.385   0.174
 2463SOL    HW1 7393   4.125   1.370   0.221
 2463SOL    HW2 7394   4.195   1.411   0.079
 2464SOL     OW 7395   4.251   0.256   0.328
 2464SOL    HW1 7396   4.278   0.197   0.253
 2464SOL    HW2 7397   4.251   0.351   0.297
 2465SOL     OW 7398   4.134   0.813   1.251
 2465SOL    HW1 7399   4.220   0.825   1.301
 2465SOL    HW2 7400   4.092   0.726   1.278
 2466SOL     OW 7401   3.788   1.564   1.331
 2466SOL    HW1 7402   3.742   1.646   1.297
 2466SOL    HW2 7403   3.886   1.583   1.340
 2467SOL     OW 7404   4.091   1.100   0.501
 2467SOL    HW1 7405   4.084   1.183   0.445
 2467SOL    HW2 7406   4.095   1.020   0.441
 2468SOL     OW 7407   4.290   0.537   0.865
 2468SOL    HW1 7408   4.302   0.603   0.791
 2468SOL    HW2 7409   4.336   0.571   0.948
 2469SOL     OW 7410   4.078   1.510   1.329
 2469SOL    HW1 7411   4.057   1.466   1.242
 2469SOL    HW2 7412   4.175   1.536   1.332
 2470SOL     OW 7413   4.126   0.751   1.598
 2470SOL    HW1 7414   4.194   0.806   1.551
 2470SOL    HW2 7415   4.166   0.663   1.625
 2471SOL     OW 7416   4.228   0.050   1.740
 2471SOL    HW1 7417   4.186  -0.007   1.670
 2471SOL    HW2 7418   4.162   0.119   1.772
 2472SOL     OW 7419   4.297   0.870   1.029
 2472SOL    HW1 7420   4.341   0.959   1.020
 2472SOL    HW2 7421   4.234   0.870   1.106
 2473SOL     OW 7422   4.031   0.213   1.231
 2473SOL    HW1 7423   4.008   0.250   1.321
 2473SOL    HW2 7424   4.001   0.118   1.225
 2474SOL     OW 7425   3.761   1.310   1.282
 2474SOL    HW1 7426   3.814   1.261   1.350
 2474SOL    HW2 7427   3.783   1.408   1.287
 2475SOL     OW 7428   4.031   0.063   0.618
 2475SOL    HW1 7429   4.020   0.157   0.651
 2475SOL    HW2 7430   4.026   0.000   0.695
 2476SOL     OW 7431   4.074   0.898   1.804
 2476SOL    HW1 7432   4.150   0.942   1.852
 2476SOL    HW2 7433   4.109   0.851   1.722
 2477SOL     OW 7434   4.043   0.810   0.949
 2477SOL    HW1 7435   4.136   0.846   0.954
 2477SOL    HW2 7436   4.037   0.725   1.001
 2478SOL     OW 7437   4.063   0.509   1.006
 2478SOL    HW1 7438   4.011   0.426   0.989
 2478SOL    HW2 7439   4.140   0.514   0.942
 2479SOL     OW 7440   3.732   1.326   0.200
 2479SOL    HW1 7441   3.639   1.347   0.169
 2479SOL    HW2 7442   3.742   1.227   0.213
 2480SOL     OW 7443   3.812   1.801   0.927
 2480SOL    HW1 7444   3.770   1.715   0.900
 2480SOL    HW2 7445   3.906   1.804   0.893
 2481SOL     OW 7446   4.228   1.568   0.910
 2481SOL    HW1 7447   4.294   1.642   0.919
 2481SOL    HW2 7448   4.272   1.489   0.868
 2482SOL     OW 7449   3.764   0.544   1.114
 2482SOL    HW1 7450   3.849   0.511   1.073
 2482SOL    HW2 7451   3.777   0.559   1.212
 2483SOL     OW 7452   3.913   0.520   1.722
 2483SOL    HW1 7453   3.972   0.480   1.652
 2483SOL    HW2 7454   3.855   0.591   1.681
 2484SOL     OW 7455   4.539   0.572   0.325
 2484SOL    HW1 7456   4.546   0.483   0.279
 2484SOL    HW2 7457   4.445   0.606   0.317
 2485SOL     OW 7458   3.976   1.564   1.744
 2485SOL    HW1 7459   3.946   1.621   1.820
 2485SOL    HW2 7460   3.969   1.467   1.770
 2486SOL     OW 7461   4.197   0.500   0.191
 2486SOL    HW1 7462   4.258   0.580   0.195
 2486SOL    HW2 7463   4.102   0.531   0.198
 2487SOL     OW 7464   3.883   1.137   1.466
 2487SOL    HW1 7465   3.905   1.076   1.542
 2487SOL    HW2 7466   3.893   1.088   1.380
 2488SOL     OW 7467   3.807   1.258   1.022
 2488SOL    HW1 7468   3.802   1.257   1.122
 2488SOL    HW2 7469   3.724   1.217   0.984
 2489SOL     OW 7470   4.412   1.662   1.716
 2489SOL    HW1 7471   4.356   1.743   1.725
 2489SOL    HW2 7472   4.464   1.666   1.630
 2490SOL     OW 7473   3.854   1.794   1.851
 2490SOL    HW1 7474   3.813   1.720   1.904
 2490SOL    HW2 7475   3.918   1.845   1.909
 2491SOL     OW 7476   3.987   0.326   0.720
 2491SOL    HW1 7477   3.908   0.377   0.686
 2491SOL    HW2 7478   3.978   0.311   0.818
 2492SOL     OW 7479   4.096   1.288   1.490
 2492SOL    HW1 7480   4.083   1.381   1.456
 2492SOL    HW2 7481   4.012   1.236   1.477
 2493SOL     OW 7482   4.314   1.487   0.491
 2493SOL    HW1 7483   4.356   1.429   0.421
 2493SOL    HW2 7484   4.270   1.566   0.447
 2494SOL     OW 7485   3.979   1.348   0.290
 2494SOL    HW1 7486   3.883   1.349   0.263
 2494SOL    HW2 7487   3.991   1.401   0.374
 2495SOL     OW 7488   3.829   1.013   1.726
 2495SOL    HW1 7489   3.752   0.980   1.780
 2495SOL    HW2 7490   3.914   0.983   1.768
 2496SOL     OW 7491   4.396   0.203   1.489
 2496SOL    HW1 7492   4.486   0.187   1.449
 2496SOL    HW2 7493   4.404   0.208   1.588
 2497SOL     OW 7494   3.799   0.345   0.033
 2497SOL    HW1 7495   3.707   0.317   0.004
 2497SOL    HW2 7496   3.830   0.422  -0.023
 2498SOL     OW 7497   4.337   0.842   1.431
 2498SOL    HW1 7498   4.393   0.923   1.414
 2498SOL    HW2 7499   4.396   0.762   1.434
 2499SOL     OW 7500   4.440   0.565   1.708
 2499SOL    HW1 7501   4.459   0.630   1.782
 2499SOL    HW2 7502   4.500   0.485   1.717
 2500SOL     OW 7503   4.114   1.741   1.560
 2500SOL    HW1 7504   4.023   1.782   1.558
 2500SOL    HW2 7505   4.107   1.647   1.592
 2501SOL     OW 7506   4.318   0.745   0.652
 2501SOL    HW1 7507   4.368   0.830   0.633
 2501SOL    HW2 7508   4.230   0.747   0.604
 2502SOL     OW 7509   3.945   1.314   1.844
 2502SOL    HW1 7510   3.880   1.241   1.823
 2502SOL    HW2 7511   3.949   1.328   1.942
 2503SOL     OW 7512   3.803   1.240   0.653
 2503SOL    HW1 7513   3.802   1.193   0.741
 2503SOL    HW2 7514   3.885   1.212   0.602
 2504SOL     OW 7515   4.396   1.391   1.624
 2504SOL    HW1 7516   4.318   1.341   1.662
 2504SOL    HW2 7517   4.393   1.486   1.655
 2505SOL     OW 7518   4.152   0.424   0.520
 2505SOL    HW1 7519   4.182   0.352   0.458
 2505SOL    HW2 7520   4.113   0.384   0.603
 2506SOL     OW 7521   4.041   0.547   1.280
 2506SOL    HW1 7522   4.079   0.488   1.352
 2506SOL    HW2 7523   4.081   0.521   1.192
 2507SOL     OW 7524   3.763   1.077   0.300
 2507SOL    HW1 7525   3.862   1.066   0.291
 2507SOL    HW2 7526   3.723   0.991   0.332
 2508SOL     OW 7527   3.954   0.628   1.975
 2508SOL    HW1 7528   3.861   0.626   2.012
 2508SOL    HW2 7529   3.955   0.589   1.883
 2509SOL     OW 7530   3.949   0.275   2.858
 2509SOL    HW1 7531   3.984   0.258   2.950
 2509SOL    HW2 7532   3.861   0.230   2.846
 2510SOL     OW 7533   3.743   0.368   2.509
 2510SOL    HW1 7534   3.661   0.411   2.548
 2510SOL    HW2 7535   3.715   0.295   2.446
 2511SOL     OW 7536   4.293   1.275   3.027
 2511SOL    HW1 7537   4.200   1.268   2.990
 2511SOL    HW2 7538   4.304   1.364   3.071
 2512SOL     OW 7539   4.574   0.798   3.685
 2512SOL    HW1 7540   4.570   0.874   3.750
 2512SOL    HW2 7541   4.596   0.834   3.594
 2513SOL     OW 7542   4.410   1.161   3.665
 2513SOL    HW1 7543   4.470   1.240   3.679
 2513SOL    HW2 7544   4.324   1.192   3.624
 2514SOL     OW 7545   4.059   1.435   2.923
 2514SOL    HW1 7546   3.981   1.404   2.870
 2514SOL    HW2 7547   4.117   1.493   2.866
 2515SOL     OW 7548   4.162   0.392   3.361
 2515SOL    HW1 7549   4.244   0.336   3.370
 2515SOL    HW2 7550   4.081   0.334   3.365
 2516SOL     OW 7551   3.955   1.713   2.345
 2516SOL    HW1 7552   3.989   1.790   2.399
 2516SOL    HW2 7553   3.999   1.713   2.255
 2517SOL     OW 7554   3.954   1.434   2.400
 2517SOL    HW1 7555   3.928   1.530   2.400
 2517SOL    HW2 7556   3.883   1.380   2.445
 2518SOL     OW 7557   3.964   1.091   2.748
 2518SOL    HW1 7558   3.978   1.007   2.800
 2518SOL    HW2 7559   3.909   1.155   2.803
 2519SOL     OW 7560   4.344   1.786   3.301
 2519SOL    HW1 7561   4.252   1.769   3.336
 2519SOL    HW2 7562   4.372   1.878   3.327
 2520SOL     OW 7563   4.330   0.964   1.985
 2520SOL    HW1 7564   4.337   1.048   1.931
 2520SOL    HW2 7565   4.376   0.977   2.073
 2521SOL     OW 7566   3.846   0.643   2.425
 2521SOL    HW1 7567   3.801   0.555   2.442
 2521SOL    HW2 7568   3.845   0.697   2.509
 2522SOL     OW 7569   3.751   1.596   1.979
 2522SOL    HW1 7570   3.732   1.500   2.000
 2522SOL    HW2 7571   3.718   1.654   2.054
 2523SOL     OW 7572   3.837   0.737   3.459
 2523SOL    HW1 7573   3.925   0.724   3.504
 2523SOL    HW2 7574   3.824   0.834   3.437
 2524SOL     OW 7575   4.337   1.365   2.588
 2524SOL    HW1 7576   4.288   1.278   2.597
 2524SOL    HW2 7577   4.314   1.408   2.501
 2525SOL     OW 7578   3.921   0.976   3.126
 2525SOL    HW1 7579   4.010   0.931   3.112
 2525SOL    HW2 7580   3.848   0.911   3.107
 2526SOL     OW 7581   4.041   0.251   3.663
 2526SOL    HW1 7582   4.112   0.322   3.669
 2526SOL    HW2 7583   3.953   0.290   3.691
 2527SOL     OW 7584   4.322   0.729   2.132
 2527SOL    HW1 7585   4.346   0.798   2.064
 2527SOL    HW2 7586   4.244   0.762   2.186
 2528SOL     OW 7587   3.800   0.811   2.651
 2528SOL    HW1 7588   3.899   0.799   2.660
 2528SOL    HW2 7589   3.776   0.906   2.672
 2529SOL     OW 7590   3.854   1.821   3.433
 2529SOL    HW1 7591   3.844   1.806   3.532
 2529SOL    HW2 7592   3.768   1.857   3.397
 2530SOL     OW 7593   4.274   0.196   2.747
 2530SOL    HW1 7594   4.269   0.191   2.847
 2530SOL    HW2 7595   4.276   0.292   2.718
 2531SOL     OW 7596   4.075   1.801   2.715
 2531SOL    HW1 7597   4.125   1.715   2.721
 2531SOL    HW2 7598   4.140   1.878   2.712
 2532SOL     OW 7599   4.045   0.943   2.104
 2532SOL    HW1 7600   4.127   0.982   2.062
 2532SOL    HW2 7601   4.018   0.861   2.055
 2533SOL     OW 7602   4.185   1.266   3.589
 2533SOL    HW1 7603   4.135   1.267   3.503
 2533SOL    HW2 7604   4.122   1.248   3.665
 2534SOL     OW 7605   3.926   0.285   3.360
 2534SOL    HW1 7606   3.846   0.345   3.347
 2534SOL    HW2 7607   3.916   0.236   3.446
 2535SOL     OW 7608   4.188   1.743   2.185
 2535SOL    HW1 7609   4.221   1.782   2.271
 2535SOL    HW2 7610   4.264   1.736   2.120
 2536SOL     OW 7611   3.973   1.785   3.103
 2536SOL    HW1 7612   4.030   1.720   3.153
 2536SOL    HW2 7613   3.957   1.752   3.010
 2537SOL     OW 7614   4.106   0.700   2.342
 2537SOL    HW1 7615   4.151   0.610   2.339
 2537SOL    HW2 7616   4.012   0.689   2.375
 2538SOL     OW 7617   4.338   0.122   1.979
 2538SOL    HW1 7618   4.436   0.100   1.986
 2538SOL    HW2 7619   4.307   0.105   1.886
 2539SOL     OW 7620   4.527   1.402   2.786
 2539SOL    HW1 7621   4.617   1.416   2.744
 2539SOL    HW2 7622   4.456   1.404   2.715
 2540SOL     OW 7623   4.263   0.064   2.374
 2540SOL    HW1 7624   4.182   0.065   2.432
 2540SOL    HW2 7625   4.266   0.147   2.319
 2541SOL     OW 7626   4.021   0.035   2.033
 2541SOL    HW1 7627   4.070   0.119   2.012
 2541SOL    HW2 7628   4.083  -0.030   2.078
 2542SOL     OW 7629   4.659   0.236   2.342
 2542SOL    HW1 7630   4.611   0.277   2.264
 2542SOL    HW2 7631   4.758   0.234   2.323
 2543SOL     OW 7632   4.183   1.152   2.603
 2543SOL    HW1 7633   4.112   1.125   2.668
 2543SOL    HW2 7634   4.157   1.124   2.510
 2544SOL     OW 7635   3.802   0.556   3.248
 2544SOL    HW1 7636   3.894   0.555   3.207
 2544SOL    HW2 7637   3.796   0.630   3.315
 2545SOL     OW 7638   4.285   0.222   3.009
 2545SOL    HW1 7639   4.323   0.138   3.046
 2545SOL    HW2 7640   4.197   0.241   3.053
 2546SOL     OW 7641   4.212   1.385   2.036
 2546SOL    HW1 7642   4.125   1.370   2.083
 2546SOL    HW2 7643   4.195   1.411   1.941
 2547SOL     OW 7644   4.251   0.256   2.190
 2547SOL    HW1 7645   4.278   0.197   2.115
 2547SOL    HW2 7646   4.251   0.351   2.159
 2548SOL     OW 7647   4.134   0.813   3.113
 2548SOL    HW1 7648   4.220   0.825   3.163
 2548SOL    HW2 7649   4.092   0.726   3.140
 2549SOL     OW 7650   3.788   1.564   3.193
 2549SOL    HW1 7651   3.742   1.646   3.159
 2549SOL    HW2 7652   3.886   1.583   3.202
 2550SOL     OW 7653   4.091   1.100   2.363
 2550SOL    HW1 7654   4.084   1.183   2.307
 2550SOL    HW2 7655   4.095   1.020   2.303
 2551SOL     OW 7656   4.290   0.537   2.727
 2551SOL    HW1 7657   4.302   0.603   2.653
 2551SOL    HW2 7658   4.336   0.571   2.810
 2552SOL     OW 7659   4.078   1.510   3.191
 2552SOL    HW1 7660   4.057   1.466   3.104
 2552SOL    HW2 7661   4.175   1.536   3.194
 2553SOL     OW 7662   4.126   0.751   3.460
 2553SOL    HW1 7663   4.194   0.806   3.413
 2553SOL    HW2 7664   4.166   0.663   3.487
 2554SOL     OW 7665   4.228   0.050   3.602
 2554SOL    HW1 7666   4.186  -0.007   3.532
 2554SOL    HW2 7667   4.162   0.119   3.634
 2555SOL     OW 7668   4.297   0.870   2.891
 2555SOL    HW1 7669   4.341   0.959   2.882
 2555SOL    HW2 7670   4.234   0.870   2.968
 2556SOL     OW 7671   4.031   0.213   3.093
 2556SOL    HW1 7672   4.008   0.250   3.183
 2556SOL    HW2 7673   4.001   0.118   3.087
 2557SOL     OW 7674   3.761   1.310   3.144
 2557SOL    HW1 7675   3.814   1.261   3.212
 2557SOL    HW2 7676   3.783   1.408   3.149
 2558SOL     OW 7677   4.031   0.063   2.480
 2558SOL    HW1 7678   4.020   0.157   2.513
 2558SOL    HW2 7679   4.026   0.000   2.557
 2559SOL     OW 7680   4.074   0.898   3.666
 2559SOL    HW1 7681   4.150   0.942   3.714
 2559SOL    HW2 7682   4.109   0.851   3.584
 2560SOL     OW 7683   4.043   0.810   2.811
 2560SOL    HW1 7684   4.136   0.846   2.816
 2560SOL    HW2 7685   4.037   0.725   2.863
 2561SOL     OW 7686   4.063   0.509   2.868
 2561SOL    HW1 7687   4.011   0.426   2.851
 2561SOL    HW2 7688   4.140   0.514   2.804
 2562SOL     OW 7689   3.732   1.326   2.062
 2562SOL    HW1 7690   3.639   1.347   2.031
 2562SOL    HW2 7691   3.742   1.227   2.075
 2563SOL     OW 7692   3.812   1.801   2.789
 2563SOL    HW1 7693   3.770   1.715   2.762
 2563SOL    HW2 7694   3.906   1.804   2.755
 2564SOL     OW 7695   4.228   1.568   2.772
 2564SOL    HW1 7696   4.294   1.642   2.781
 2564SOL    HW2 7697   4.272   1.489   2.730
 2565SOL     OW 7698   3.764   0.544   2.976
 2565SOL    HW1 7699   3.849   0.511   2.935
 2565SOL    HW2 7700   3.777   0.559   3.074
 2566SOL     OW 7701   3.913   0.520   3.584
 2566SOL    HW1 7702   3.972   0.480   3.514
 2566SOL    HW2 7703   3.855   0.591   3.543
 2567SOL     OW 7704   4.539   0.572   2.187
 2567SOL    HW1 7705   4.546   0.483   2.141
 2567SOL    HW2 7706   4.445   0.606   2.179
 2568SOL     OW 7707   3.976   1.564   3.606
 2568SOL    HW1 7708   3.946   1.621   3.682
 2568SOL    HW2 7709   3.969   1.467   3.632
 2569SOL     OW 7710   4.197   0.500   2.053
 2569SOL    HW1 7711   4.258   0.580   2.057
 2569SOL    HW2 7712   4.102   0.531   2.060
 2570SOL     OW 7713   3.883   1.137   3.328
 2570SOL    HW1 7714   3.905   1.076   3.404
 2570SOL    HW2 7715   3.893   1.088   3.242
 2571SOL     OW 7716   3.807   1.258   2.884
 2571SOL    HW1 7717   3.802   1.257   2.984
 2571SOL    HW2 7718   3.724   1.217   2.846
 2572SOL     OW 7719   4.412   1.662   3.578
 2572SOL    HW1 7720   4.356   1.743   3.587
 2572SOL    HW2 7721   4.464   1.666   3.492
 2573SOL     OW 7722   3.854   1.794   3.713
 2573SOL    HW1 7723   3.813   1.720   3.766
 2573SOL    HW2 7724   3.918   1.845   3.771
 2574SOL     OW 7725   3.987   0.326   2.582
 2574SOL    HW1 7726   3.908   0.377   2.548
 2574SOL    HW2 7727   3.978   0.311   2.680
 2575SOL     OW 7728   4.096   1.288   3.352
 2575SOL    HW1 7729   4.083   1.381   3.318
 2575SOL    HW2 7730   4.012   1.236   3.339
 2576SOL     OW 7731   4.314   1.487   2.353
 2576SOL    HW1 7732   4.356   1.429   2.283
 2576SOL    HW2 7733   4.270   1.566   2.309
 2577SOL     OW 7734   3.979   1.348   2.152
 2577SOL    HW1 7735   3.883   1.349   2.125
 2577SOL    HW2 7736   3.991   1.401   2.236
 2578SOL     OW 7737   3.829   1.013   3.588
 2578SOL    HW1 7738   3.752   0.980   3.642
 2578SOL    HW2 7739   3.914   0.983   3.630
 2579SOL     OW 7740   4.396   0.203   3.351
 2579SOL    HW1 7741   4.486   0.187   3.311
 2579SOL    HW2 7742   4.404   0.208   3.450
 2580SOL     OW 7743   3.799   0.345   1.895
 2580SOL    HW1 7744   3.707   0.317   1.866
 2580SOL    HW2 7745   3.830   0.422   1.839
 2581SOL     OW 7746   3.796   0.166   2.180
 2581SOL    HW1 7747   3.779   0.249   2.126
 2581SOL    HW2 7748   3.886   0.129   2.158
 2582SOL     OW 7749   4.337   0.842   3.293
 2582SOL    HW1 7750   4.393   0.923   3.276
 2582SOL    HW2 7751   4.396   0.762   3.296
 2583SOL     OW 7752   4.440   0.565   3.570
 2583SOL    HW1 7753   4.459   0.630   3.644
 2583SOL    HW2 7754   4.500   0.485   3.579
 2584SOL     OW 7755   4.114   1.741   3.422
 2584SOL    HW1 7756   4.023   1.782   3.420
 2584SOL    HW2 7757   4.107   1.647   3.454
 2585SOL     OW 7758   4.318   0.745   2.514
 2585SOL    HW1 7759   4.368   0.830   2.495
 2585SOL    HW2 7760   4.230   0.747   2.466
 2586SOL     OW 7761   3.945   1.314   3.706
 2586SOL    HW1 7762   3.880   1.241   3.685
 2586SOL    HW2 7763   3.949   1.328   3.804
 2587SOL     OW 7764   3.803   1.240   2.515
 2587SOL    HW1 7765   3.802   1.193   2.603
 2587SOL    HW2 7766   3.885   1.212   2.464
 2588SOL     OW 7767   4.396   1.391   3.486
 2588SOL    HW1 7768   4.318   1.341   3.524
 2588SOL    HW2 7769   4.393   1.486   3.517
 2589SOL     OW 7770   4.152   0.424   2.382
 2589SOL    HW1 7771   4.182   0.352   2.320
 2589SOL    HW2 7772   4.113   0.384   2.465
 2590SOL     OW 7773   4.041   0.547   3.142
 2590SOL    HW1 7774   4.079   0.488   3.214
 2590SOL    HW2 7775   4.081   0.521   3.054
 2591SOL     OW 7776   3.763   1.077   2.162
 2591SOL    HW1 7777   3.862   1.066   2.153
 2591SOL    HW2 7778   3.723   0.991   2.194
 2592SOL     OW 7779   3.954   0.628   3.837
 2592SOL    HW1 7780   3.861   0.626   3.874
 2592SOL    HW2 7781   3.955   0.589   3.745
 2593SOL     OW 7782   3.949   0.275   4.720
 2593SOL    HW1 7783   3.984   0.258   4.812
 2593SOL    HW2 7784   3.861   0.230   4.708
 2594SOL     OW 7785   3.955   1.713   4.207
 2594SOL    HW1 7786   3.989   1.790   4.261
 2594SOL    HW2 7787   3.999   1.713   4.117
 2595SOL     OW 7788   3.954   1.434   4.262
 2595SOL    HW1 7789   3.928   1.530   4.262
 2595SOL    HW2 7790   3.883   1.380   4.307
 2596SOL     OW 7791   4.330   0.964   3.847
 2596SOL    HW1 7792   4.337   1.048   3.793
 2596SOL    HW2 7793   4.376   0.977   3.935
 2597SOL     OW 7794   3.846   0.643   4.287
 2597SOL    HW1 7795   3.801   0.555   4.304
 2597SOL    HW2 7796   3.845   0.697   4.371
 2598SOL     OW 7797   3.751   1.596   3.841
 2598SOL    HW1 7798   3.732   1.500   3.862
 2598SOL    HW2 7799   3.718   1.654   3.916
 2599SOL     OW 7800   4.337   1.365   4.450
 2599SOL    HW1 7801   4.288   1.278   4.459
 2599SOL    HW2 7802   4.314   1.408   4.363
 2600SOL     OW 7803   4.322   0.729   3.994
 2600SOL    HW1 7804   4.346   0.798   3.926
 2600SOL    HW2 7805   4.244   0.762   4.048
 2601SOL     OW 7806   3.800   0.811   4.513
 2601SOL    HW1 7807   3.899   0.799   4.522
 2601SOL    HW2 7808   3.776   0.906   4.534
 2602SOL     OW 7809   4.075   1.801   4.577
 2602SOL    HW1 7810   4.125   1.715   4.583
 2602SOL    HW2 7811   4.140   1.878   4.574
 2603SOL     OW 7812   4.045   0.943   3.966
 2603SOL    HW1 7813   4.127   0.982   3.924
 2603SOL    HW2 7814   4.018   0.861   3.917
 2604SOL     OW 7815   4.188   1.743   4.047
 2604SOL    HW1 7816   4.221   1.782   4.133
 2604SOL    HW2 7817   4.264   1.736   3.982
 2605SOL     OW 7818   4.106   0.700   4.204
 2605SOL    HW1 7819   4.151   0.610   4.201
 2605SOL    HW2 7820   4.012   0.689   4.237
 2606SOL     OW 7821   4.338   0.122   3.841
 2606SOL    HW1 7822   4.436   0.100   3.848
 2606SOL    HW2 7823   4.307   0.105   3.748
 2607SOL     OW 7824   4.263   0.064   4.236
 2607SOL    HW1 7825   4.182   0.065   4.294
 2607SOL    HW2 7826   4.266   0.147   4.181
 2608SOL     OW 7827   4.021   0.035   3.895
 2608SOL    HW1 7828   4.070   0.119   3.874
 2608SOL    HW2 7829   4.083  -0.030   3.940
 2609SOL     OW 7830   4.659   0.236   4.204
 2609SOL    HW1 7831   4.611   0.277   4.126
 2609SOL    HW2 7832   4.758   0.234   4.185
 2610SOL     OW 7833   4.183   1.152   4.465
 2610SOL    HW1 7834   4.112   1.125   4.530
 2610SOL    HW2 7835   4.157   1.124   4.372
 2611SOL     OW 7836   4.212   1.385   3.898
 2611SOL    HW1 7837   4.125   1.370   3.945
 2611SOL    HW2 7838   4.195   1.411   3.803
 2612SOL     OW 7839   4.251   0.256   4.052
 2612SOL    HW1 7840   4.278   0.197   3.977
 2612SOL    HW2 7841   4.251   0.351   4.021
 2613SOL     OW 7842   4.091   1.100   4.225
 2613SOL    HW1 7843   4.084   1.183   4.169
 2613SOL    HW2 7844   4.095   1.020   4.165
 2614SOL     OW 7845   4.031   0.063   4.342
 2614SOL    HW1 7846   4.020   0.157   4.375
 2614SOL    HW2 7847   4.026   0.000   4.419
 2615SOL     OW 7848   3.732   1.326   3.924
 2615SOL    HW1 7849   3.639   1.347   3.893
 2615SOL    HW2 7850   3.742   1.227   3.937
 2616SOL     OW 7851   4.539   0.572   4.049
 2616SOL    HW1 7852   4.546   0.483   4.003
 2616SOL    HW2 7853   4.445   0.606   4.041
 2617SOL     OW 7854   4.197   0.500   3.915
 2617SOL    HW1 7855   4.258   0.580   3.919
 2617SOL    HW2 7856   4.102   0.531   3.922
 2618SOL     OW 7857   4.314   1.487   4.215
 2618SOL    HW1 7858   4.356   1.429   4.145
 2618SOL    HW2 7859   4.270   1.566   4.171
 2619SOL     OW 7860   3.979   1.348   4.014
 2619SOL    HW1 7861   3.883   1.349   3.987
 2619SOL    HW2 7862   3.991   1.401   4.098
 2620SOL     OW 7863   3.799   0.345   3.757
 2620SOL    HW1 7864   3.707   0.317   3.728
 2620SOL    HW2 7865   3.830   0.422   3.701
 2621SOL     OW 7866   3.796   0.166   4.042
 2621SOL    HW1 7867   3.779   0.249   3.988
 2621SOL    HW2 7868   3.886   0.129   4.020
 2622SOL     OW 7869   4.318   0.745   4.376
 2622SOL    HW1 7870   4.368   0.830   4.357
 2622SOL    HW2 7871   4.230   0.747   4.328
 2623SOL     OW 7872   3.803   1.240   4.377
 2623SOL    HW1 7873   3.802   1.193   4.465
 2623SOL    HW2 7874   3.885   1.212   4.326
 2624SOL     OW 7875   4.152   0.424   4.244
 2624SOL    HW1 7876   4.182   0.352   4.182
 2624SOL    HW2 7877   4.113   0.384   4.327
 2625SOL     OW 7878   3.763   1.077   4.024
 2625SOL    HW1 7879   3.862   1.066   4.015
 2625SOL    HW2 7880   3.723   0.991   4.056
 2626SOL     OW 7881   3.954   2.490   0.113
 2626SOL    HW1 7882   3.861   2.488   0.150
 2626SOL    HW2 7883   3.955   2.451   0.021
 2627SOL     OW 7884   3.949   2.137   0.996
 2627SOL    HW1 7885   3.984   2.120   1.088
 2627SOL    HW2 7886   3.861   2.092   0.984
 2628SOL     OW 7887   3.743   2.230   0.647
 2628SOL    HW1 7888   3.661   2.273   0.686
 2628SOL    HW2 7889   3.715   2.157   0.584
 2629SOL     OW 7890   4.293   3.137   1.165
 2629SOL    HW1 7891   4.200   3.130   1.128
 2629SOL    HW2 7892   4.304   3.226   1.209
 2630SOL     OW 7893   4.574   2.660   1.823
 2630SOL    HW1 7894   4.570   2.736   1.888
 2630SOL    HW2 7895   4.596   2.696   1.732
 2631SOL     OW 7896   4.410   3.023   1.803
 2631SOL    HW1 7897   4.470   3.102   1.817
 2631SOL    HW2 7898   4.324   3.054   1.762
 2632SOL     OW 7899   4.059   3.297   1.061
 2632SOL    HW1 7900   3.981   3.266   1.008
 2632SOL    HW2 7901   4.117   3.355   1.004
 2633SOL     OW 7902   4.162   2.254   1.499
 2633SOL    HW1 7903   4.244   2.198   1.508
 2633SOL    HW2 7904   4.081   2.196   1.503
 2634SOL     OW 7905   3.955   3.575   0.483
 2634SOL    HW1 7906   3.989   3.652   0.537
 2634SOL    HW2 7907   3.999   3.575   0.393
 2635SOL     OW 7908   3.954   3.296   0.538
 2635SOL    HW1 7909   3.928   3.392   0.538
 2635SOL    HW2 7910   3.883   3.242   0.583
 2636SOL     OW 7911   3.964   2.953   0.886
 2636SOL    HW1 7912   3.978   2.869   0.938
 2636SOL    HW2 7913   3.909   3.017   0.941
 2637SOL     OW 7914   4.344   3.648   1.439
 2637SOL    HW1 7915   4.252   3.631   1.474
 2637SOL    HW2 7916   4.372   3.740   1.465
 2638SOL     OW 7917   4.330   2.826   0.123
 2638SOL    HW1 7918   4.337   2.910   0.069
 2638SOL    HW2 7919   4.376   2.839   0.211
 2639SOL     OW 7920   3.846   2.505   0.563
 2639SOL    HW1 7921   3.801   2.417   0.580
 2639SOL    HW2 7922   3.845   2.559   0.647
 2640SOL     OW 7923   3.751   3.458   0.117
 2640SOL    HW1 7924   3.732   3.362   0.138
 2640SOL    HW2 7925   3.718   3.516   0.192
 2641SOL     OW 7926   3.837   2.599   1.597
 2641SOL    HW1 7927   3.925   2.586   1.642
 2641SOL    HW2 7928   3.824   2.696   1.575
 2642SOL     OW 7929   4.337   3.227   0.726
 2642SOL    HW1 7930   4.288   3.140   0.735
 2642SOL    HW2 7931   4.314   3.270   0.639
 2643SOL     OW 7932   4.533   1.866   0.502
 2643SOL    HW1 7933   4.573   1.957   0.493
 2643SOL    HW2 7934   4.433   1.874   0.508
 2644SOL     OW 7935   3.921   2.838   1.264
 2644SOL    HW1 7936   4.010   2.793   1.250
 2644SOL    HW2 7937   3.848   2.773   1.245
 2645SOL     OW 7938   4.041   2.113   1.801
 2645SOL    HW1 7939   4.112   2.184   1.807
 2645SOL    HW2 7940   3.953   2.152   1.829
 2646SOL     OW 7941   4.322   2.591   0.270
 2646SOL    HW1 7942   4.346   2.660   0.202
 2646SOL    HW2 7943   4.244   2.624   0.324
 2647SOL     OW 7944   3.800   2.673   0.789
 2647SOL    HW1 7945   3.899   2.661   0.798
 2647SOL    HW2 7946   3.776   2.768   0.810
 2648SOL     OW 7947   3.854   3.683   1.571
 2648SOL    HW1 7948   3.844   3.668   1.670
 2648SOL    HW2 7949   3.768   3.719   1.535
 2649SOL     OW 7950   4.274   2.058   0.885
 2649SOL    HW1 7951   4.269   2.053   0.985
 2649SOL    HW2 7952   4.276   2.154   0.856
 2650SOL     OW 7953   4.075   3.663   0.853
 2650SOL    HW1 7954   4.125   3.577   0.859
 2650SOL    HW2 7955   4.140   3.740   0.850
 2651SOL     OW 7956   4.045   2.805   0.242
 2651SOL    HW1 7957   4.127   2.844   0.200
 2651SOL    HW2 7958   4.018   2.723   0.193
 2652SOL     OW 7959   4.185   3.128   1.727
 2652SOL    HW1 7960   4.135   3.129   1.641
 2652SOL    HW2 7961   4.122   3.110   1.803
 2653SOL     OW 7962   3.926   2.147   1.498
 2653SOL    HW1 7963   3.846   2.207   1.485
 2653SOL    HW2 7964   3.916   2.098   1.584
 2654SOL     OW 7965   4.188   3.605   0.323
 2654SOL    HW1 7966   4.221   3.644   0.409
 2654SOL    HW2 7967   4.264   3.598   0.258
 2655SOL     OW 7968   3.973   3.647   1.241
 2655SOL    HW1 7969   4.030   3.582   1.291
 2655SOL    HW2 7970   3.957   3.614   1.148
 2656SOL     OW 7971   4.106   2.562   0.480
 2656SOL    HW1 7972   4.151   2.472   0.477
 2656SOL    HW2 7973   4.012   2.551   0.513
 2657SOL     OW 7974   4.338   1.984   0.117
 2657SOL    HW1 7975   4.436   1.962   0.124
 2657SOL    HW2 7976   4.307   1.967   0.024
 2658SOL     OW 7977   4.527   3.264   0.924
 2658SOL    HW1 7978   4.617   3.278   0.882
 2658SOL    HW2 7979   4.456   3.266   0.853
 2659SOL     OW 7980   4.263   1.926   0.512
 2659SOL    HW1 7981   4.182   1.927   0.570
 2659SOL    HW2 7982   4.266   2.009   0.457
 2660SOL     OW 7983   4.659   2.098   0.480
 2660SOL    HW1 7984   4.611   2.139   0.402
 2660SOL    HW2 7985   4.758   2.096   0.461
 2661SOL     OW 7986   4.183   3.014   0.741
 2661SOL    HW1 7987   4.112   2.987   0.806
 2661SOL    HW2 7988   4.157   2.986   0.648
 2662SOL     OW 7989   3.802   2.418   1.386
 2662SOL    HW1 7990   3.894   2.417   1.345
 2662SOL    HW2 7991   3.796   2.492   1.453
 2663SOL     OW 7992   4.285   2.084   1.147
 2663SOL    HW1 7993   4.323   2.000   1.184
 2663SOL    HW2 7994   4.197   2.103   1.191
 2664SOL     OW 7995   4.212   3.247   0.174
 2664SOL    HW1 7996   4.125   3.232   0.221
 2664SOL    HW2 7997   4.195   3.273   0.079
 2665SOL     OW 7998   4.251   2.118   0.328
 2665SOL    HW1 7999   4.278   2.059   0.253
 2665SOL    HW2 8000   4.251   2.213   0.297
 2666SOL     OW 8001   4.134   2.675   1.251
 2666SOL    HW1 8002   4.220   2.687   1.301
 2666SOL    HW2 8003   4.092   2.588   1.278
 2667SOL     OW 8004   3.788   3.426   1.331
 2667SOL    HW1 8005   3.742   3.508   1.297
 2667SOL    HW2 8006   3.886   3.445   1.340
 2668SOL     OW 8007   4.091   2.962   0.501
 2668SOL    HW1 8008   4.084   3.045   0.445
 2668SOL    HW2 8009   4.095   2.882   0.441
 2669SOL     OW 8010   4.290   2.399   0.865
 2669SOL    HW1 8011   4.302   2.465   0.791
 2669SOL    HW2 8012   4.336   2.433   0.948
 2670SOL     OW 8013   4.078   3.372   1.329
 2670SOL    HW1 8014   4.057   3.328   1.242
 2670SOL    HW2 8015   4.175   3.398   1.332
 2671SOL     OW 8016   4.126   2.613   1.598
 2671SOL    HW1 8017   4.194   2.668   1.551
 2671SOL    HW2 8018   4.166   2.525   1.625
 2672SOL     OW 8019   4.228   1.912   1.740
 2672SOL    HW1 8020   4.186   1.855   1.670
 2672SOL    HW2 8021   4.162   1.981   1.772
 2673SOL     OW 8022   4.297   2.732   1.029
 2673SOL    HW1 8023   4.341   2.821   1.020
 2673SOL    HW2 8024   4.234   2.732   1.106
 2674SOL     OW 8025   4.031   2.075   1.231
 2674SOL    HW1 8026   4.008   2.112   1.321
 2674SOL    HW2 8027   4.001   1.980   1.225
 2675SOL     OW 8028   3.761   3.172   1.282
 2675SOL    HW1 8029   3.814   3.123   1.350
 2675SOL    HW2 8030   3.783   3.270   1.287
 2676SOL     OW 8031   4.031   1.925   0.618
 2676SOL    HW1 8032   4.020   2.019   0.651
 2676SOL    HW2 8033   4.026   1.862   0.695
 2677SOL     OW 8034   4.074   2.760   1.804
 2677SOL    HW1 8035   4.150   2.804   1.852
 2677SOL    HW2 8036   4.109   2.713   1.722
 2678SOL     OW 8037   4.043   2.672   0.949
 2678SOL    HW1 8038   4.136   2.708   0.954
 2678SOL    HW2 8039   4.037   2.587   1.001
 2679SOL     OW 8040   4.063   2.371   1.006
 2679SOL    HW1 8041   4.011   2.288   0.989
 2679SOL    HW2 8042   4.140   2.376   0.942
 2680SOL     OW 8043   3.732   3.188   0.200
 2680SOL    HW1 8044   3.639   3.209   0.169
 2680SOL    HW2 8045   3.742   3.089   0.213
 2681SOL     OW 8046   3.812   3.663   0.927
 2681SOL    HW1 8047   3.770   3.577   0.900
 2681SOL    HW2 8048   3.906   3.666   0.893
 2682SOL     OW 8049   4.228   3.430   0.910
 2682SOL    HW1 8050   4.294   3.504   0.919
 2682SOL    HW2 8051   4.272   3.351   0.868
 2683SOL     OW 8052   3.764   2.406   1.114
 2683SOL    HW1 8053   3.849   2.373   1.073
 2683SOL    HW2 8054   3.777   2.421   1.212
 2684SOL     OW 8055   3.913   2.382   1.722
 2684SOL    HW1 8056   3.972   2.342   1.652
 2684SOL    HW2 8057   3.855   2.453   1.681
 2685SOL     OW 8058   4.539   2.434   0.325
 2685SOL    HW1 8059   4.546   2.345   0.279
 2685SOL    HW2 8060   4.445   2.468   0.317
 2686SOL     OW 8061   3.976   3.426   1.744
 2686SOL    HW1 8062   3.946   3.483   1.820
 2686SOL    HW2 8063   3.969   3.329   1.770
 2687SOL     OW 8064   4.197   2.362   0.191
 2687SOL    HW1 8065   4.258   2.442   0.195
 2687SOL    HW2 8066   4.102   2.393   0.198
 2688SOL     OW 8067   3.883   2.999   1.466
 2688SOL    HW1 8068   3.905   2.938   1.542
 2688SOL    HW2 8069   3.893   2.950   1.380
 2689SOL     OW 8070   3.807   3.120   1.022
 2689SOL    HW1 8071   3.802   3.119   1.122
 2689SOL    HW2 8072   3.724   3.079   0.984
 2690SOL     OW 8073   4.412   3.524   1.716
 2690SOL    HW1 8074   4.356   3.605   1.725
 2690SOL    HW2 8075   4.464   3.528   1.630
 2691SOL     OW 8076   4.627   1.948   0.133
 2691SOL    HW1 8077   4.678   1.949   0.047
 2691SOL    HW2 8078   4.683   1.906   0.204
 2692SOL     OW 8079   3.854   3.656   1.851
 2692SOL    HW1 8080   3.813   3.582   1.904
 2692SOL    HW2 8081   3.918   3.707   1.909
 2693SOL     OW 8082   3.987   2.188   0.720
 2693SOL    HW1 8083   3.908   2.239   0.686
 2693SOL    HW2 8084   3.978   2.173   0.818
 2694SOL     OW 8085   4.096   3.150   1.490
 2694SOL    HW1 8086   4.083   3.243   1.456
 2694SOL    HW2 8087   4.012   3.098   1.477
 2695SOL     OW 8088   4.314   3.349   0.491
 2695SOL    HW1 8089   4.356   3.291   0.421
 2695SOL    HW2 8090   4.270   3.428   0.447
 2696SOL     OW 8091   3.979   3.210   0.290
 2696SOL    HW1 8092   3.883   3.211   0.263
 2696SOL    HW2 8093   3.991   3.263   0.374
 2697SOL     OW 8094   3.829   2.875   1.726
 2697SOL    HW1 8095   3.752   2.842   1.780
 2697SOL    HW2 8096   3.914   2.845   1.768
 2698SOL     OW 8097   4.396   2.065   1.489
 2698SOL    HW1 8098   4.486   2.049   1.449
 2698SOL    HW2 8099   4.404   2.070   1.588
 2699SOL     OW 8100   3.799   2.207   0.033
 2699SOL    HW1 8101   3.707   2.179   0.004
 2699SOL    HW2 8102   3.830   2.284  -0.023
 2700SOL     OW 8103   4.337   2.704   1.431
 2700SOL    HW1 8104   4.393   2.785   1.414
 2700SOL    HW2 8105   4.396   2.624   1.434
 2701SOL     OW 8106   4.440   2.427   1.708
 2701SOL    HW1 8107   4.459   2.492   1.782
 2701SOL    HW2 8108   4.500   2.347   1.717
 2702SOL     OW 8109   4.114   3.603   1.560
 2702SOL    HW1 8110   4.023   3.644   1.558
 2702SOL    HW2 8111   4.107   3.509   1.592
 2703SOL     OW 8112   4.318   2.607   0.652
 2703SOL    HW1 8113   4.368   2.692   0.633
 2703SOL    HW2 8114   4.230   2.609   0.604
 2704SOL     OW 8115   3.945   3.176   1.844
 2704SOL    HW1 8116   3.880   3.103   1.823
 2704SOL    HW2 8117   3.949   3.190   1.942
 2705SOL     OW 8118   3.803   3.102   0.653
 2705SOL    HW1 8119   3.802   3.055   0.741
 2705SOL    HW2 8120   3.885   3.074   0.602
 2706SOL     OW 8121   4.396   3.253   1.624
 2706SOL    HW1 8122   4.318   3.203   1.662
 2706SOL    HW2 8123   4.393   3.348   1.655
 2707SOL     OW 8124   4.152   2.286   0.520
 2707SOL    HW1 8125   4.182   2.214   0.458
 2707SOL    HW2 8126   4.113   2.246   0.603
 2708SOL     OW 8127   4.041   2.409   1.280
 2708SOL    HW1 8128   4.079   2.350   1.352
 2708SOL    HW2 8129   4.081   2.383   1.192
 2709SOL     OW 8130   3.763   2.939   0.300
 2709SOL    HW1 8131   3.862   2.928   0.291
 2709SOL    HW2 8132   3.723   2.853   0.332
 2710SOL     OW 8133   3.954   2.490   1.975
 2710SOL    HW1 8134   3.861   2.488   2.012
 2710SOL    HW2 8135   3.955   2.451   1.883
 2711SOL     OW 8136   3.949   2.137   2.858
 2711SOL    HW1 8137   3.984   2.120   2.950
 2711SOL    HW2 8138   3.861   2.092   2.846
 2712SOL     OW 8139   3.743   2.230   2.509
 2712SOL    HW1 8140   3.661   2.273   2.548
 2712SOL    HW2 8141   3.715   2.157   2.446
 2713SOL     OW 8142   4.293   3.137   3.027
 2713SOL    HW1 8143   4.200   3.130   2.990
 2713SOL    HW2 8144   4.304   3.226   3.071
 2714SOL     OW 8145   4.574   2.660   3.685
 2714SOL    HW1 8146   4.570   2.736   3.750
 2714SOL    HW2 8147   4.596   2.696   3.594
 2715SOL     OW 8148   4.410   3.023   3.665
 2715SOL    HW1 8149   4.470   3.102   3.679
 2715SOL    HW2 8150   4.324   3.054   3.624
 2716SOL     OW 8151   4.059   3.297   2.923
 2716SOL    HW1 8152   3.981   3.266   2.870
 2716SOL    HW2 8153   4.117   3.355   2.866
 2717SOL     OW 8154   4.162   2.254   3.361
 2717SOL    HW1 8155   4.244   2.198   3.370
 2717SOL    HW2 8156   4.081   2.196   3.365
 2718SOL     OW 8157   3.955   3.575   2.345
 2718SOL    HW1 8158   3.989   3.652   2.399
 2718SOL    HW2 8159   3.999   3.575   2.255
 2719SOL     OW 8160   3.954   3.296   2.400
 2719SOL    HW1 8161   3.928   3.392   2.400
 2719SOL    HW2 8162   3.883   3.242   2.445
 2720SOL     OW 8163   3.964   2.953   2.748
 2720SOL    HW1 8164   3.978   2.869   2.800
 2720SOL    HW2 8165   3.909   3.017   2.803
 2721SOL     OW 8166   4.344   3.648   3.301
 2721SOL    HW1 8167   4.252   3.631   3.336
 2721SOL    HW2 8168   4.372   3.740   3.327
 2722SOL     OW 8169   4.330   2.826   1.985
 2722SOL    HW1 8170   4.337   2.910   1.931
 2722SOL    HW2 8171   4.376   2.839   2.073
 2723SOL     OW 8172   3.846   2.505   2.425
 2723SOL    HW1 8173   3.801   2.417   2.442
 2723SOL    HW2 8174   3.845   2.559   2.509
 2724SOL     OW 8175   3.751   3.458   1.979
 2724SOL    HW1 8176   3.732   3.362   2.000
 2724SOL    HW2 8177   3.718   3.516   2.054
 2725SOL     OW 8178   3.837   2.599   3.459
 2725SOL    HW1 8179   3.925   2.586   3.504
 2725SOL    HW2 8180   3.824   2.696   3.437
 2726SOL     OW 8181   4.337   3.227   2.588
 2726SOL    HW1 8182   4.288   3.140   2.597
 2726SOL    HW2 8183   4.314   3.270   2.501
 2727SOL     OW 8184   4.533   1.866   2.364
 2727SOL    HW1 8185   4.573   1.957   2.355
 2727SOL    HW2 8186   4.433   1.874   2.370
 2728SOL     OW 8187   3.921   2.838   3.126
 2728SOL    HW1 8188   4.010   2.793   3.112
 2728SOL    HW2 8189   3.848   2.773   3.107
 2729SOL     OW 8190   4.041   2.113   3.663
 2729SOL    HW1 8191   4.112   2.184   3.669
 2729SOL    HW2 8192   3.953   2.152   3.691
 2730SOL     OW 8193   4.322   2.591   2.132
 2730SOL    HW1 8194   4.346   2.660   2.064
 2730SOL    HW2 8195   4.244   2.624   2.186
 2731SOL     OW 8196   3.800   2.673   2.651
 2731SOL    HW1 8197   3.899   2.661   2.660
 2731SOL    HW2 8198   3.776   2.768   2.672
 2732SOL     OW 8199   3.854   3.683   3.433
 2732SOL    HW1 8200   3.844   3.668   3.532
 2732SOL    HW2 8201   3.768   3.719   3.397
 2733SOL     OW 8202   4.274   2.058   2.747
 2733SOL    HW1 8203   4.269   2.053   2.847
 2733SOL    HW2 8204   4.276   2.154   2.718
 2734SOL     OW 8205   4.075   3.663   2.715
 2734SOL    HW1 8206   4.125   3.577   2.721
 2734SOL    HW2 8207   4.140   3.740   2.712
 2735SOL     OW 8208   4.045   2.805   2.104
 2735SOL    HW1 8209   4.127   2.844   2.062
 2735SOL    HW2 8210   4.018   2.723   2.055
 2736SOL     OW 8211   4.185   3.128   3.589
 2736SOL    HW1 8212   4.135   3.129   3.503
 2736SOL    HW2 8213   4.122   3.110   3.665
 2737SOL     OW 8214   3.926   2.147   3.360
 2737SOL    HW1 8215   3.846   2.207   3.347
 2737SOL    HW2 8216   3.916   2.098   3.446
 2738SOL     OW 8217   4.188   3.605   2.185
 2738SOL    HW1 8218   4.221   3.644   2.271
 2738SOL    HW2 8219   4.264   3.598   2.120
 2739SOL     OW 8220   3.973   3.647   3.103
 2739SOL    HW1 8221   4.030   3.582   3.153
 2739SOL    HW2 8222   3.957   3.614   3.010
 2740SOL     OW 8223   4.106   2.562   2.342
 2740SOL    HW1 8224   4.151   2.472   2.339
 2740SOL    HW2 8225   4.012   2.551   2.375
 2741SOL     OW 8226   4.338   1.984   1.979
 2741SOL    HW1 8227   4.436   1.962   1.986
 2741SOL    HW2 8228   4.307   1.967   1.886
 2742SOL     OW 8229   4.527   3.264   2.786
 2742SOL    HW1 8230   4.617   3.278   2.744
 2742SOL    HW2 8231   4.456   3.266   2.715
 2743SOL     OW 8232   4.263   1.926   2.374
 2743SOL    HW1 8233   4.182   1.927   2.432
 2743SOL    HW2 8234   4.266   2.009   2.319
 2744SOL     OW 8235   4.021   1.897   2.033
 2744SOL    HW1 8236   4.070   1.981   2.012
 2744SOL    HW2 8237   4.083   1.832   2.078
 2745SOL     OW 8238   4.659   2.098   2.342
 2745SOL    HW1 8239   4.611   2.139   2.264
 2745SOL    HW2 8240   4.758   2.096   2.323
 2746SOL     OW 8241   4.183   3.014   2.603
 2746SOL    HW1 8242   4.112   2.987   2.668
 2746SOL    HW2 8243   4.157   2.986   2.510
 2747SOL     OW 8244   3.802   2.418   3.248
 2747SOL    HW1 8245   3.894   2.417   3.207
 2747SOL    HW2 8246   3.796   2.492   3.315
 2748SOL     OW 8247   4.285   2.084   3.009
 2748SOL    HW1 8248   4.323   2.000   3.046
 2748SOL    HW2 8249   4.197   2.103   3.053
 2749SOL     OW 8250   4.212   3.247   2.036
 2749SOL    HW1 8251   4.125   3.232   2.083
 2749SOL    HW2 8252   4.195   3.273   1.941
 2750SOL     OW 8253   4.251   2.118   2.190
 2750SOL    HW1 8254   4.278   2.059   2.115
 2750SOL    HW2 8255   4.251   2.213   2.159
 2751SOL     OW 8256   4.134   2.675   3.113
 2751SOL    HW1 8257   4.220   2.687   3.163
 2751SOL    HW2 8258   4.092   2.588   3.140
 2752SOL     OW 8259   3.788   3.426   3.193
 2752SOL    HW1 8260   3.742   3.508   3.159
 2752SOL    HW2 8261   3.886   3.445   3.202
 2753SOL     OW 8262   4.091   2.962   2.363
 2753SOL    HW1 8263   4.084   3.045   2.307
 2753SOL    HW2 8264   4.095   2.882   2.303
 2754SOL     OW 8265   4.290   2.399   2.727
 2754SOL    HW1 8266   4.302   2.465   2.653
 2754SOL    HW2 8267   4.336   2.433   2.810
 2755SOL     OW 8268   4.078   3.372   3.191
 2755SOL    HW1 8269   4.057   3.328   3.104
 2755SOL    HW2 8270   4.175   3.398   3.194
 2756SOL     OW 8271   4.126   2.613   3.460
 2756SOL    HW1 8272   4.194   2.668   3.413
 2756SOL    HW2 8273   4.166   2.525   3.487
 2757SOL     OW 8274   4.228   1.912   3.602
 2757SOL    HW1 8275   4.186   1.855   3.532
 2757SOL    HW2 8276   4.162   1.981   3.634
 2758SOL     OW 8277   4.297   2.732   2.891
 2758SOL    HW1 8278   4.341   2.821   2.882
 2758SOL    HW2 8279   4.234   2.732   2.968
 2759SOL     OW 8280   4.031   2.075   3.093
 2759SOL    HW1 8281   4.008   2.112   3.183
 2759SOL    HW2 8282   4.001   1.980   3.087
 2760SOL     OW 8283   3.761   3.172   3.144
 2760SOL    HW1 8284   3.814   3.123   3.212
 2760SOL    HW2 8285   3.783   3.270   3.149
 2761SOL     OW 8286   4.031   1.925   2.480
 2761SOL    HW1 8287   4.020   2.019   2.513
 2761SOL    HW2 8288   4.026   1.862   2.557
 2762SOL     OW 8289   4.074   2.760   3.666
 2762SOL    HW1 8290   4.150   2.804   3.714
 2762SOL    HW2 8291   4.109   2.713   3.584
 2763SOL     OW 8292   4.043   2.672   2.811
 2763SOL    HW1 8293   4.136   2.708   2.816
 2763SOL    HW2 8294   4.037   2.587   2.863
 2764SOL     OW 8295   4.063   2.371   2.868
 2764SOL    HW1 8296   4.011   2.288   2.851
 2764SOL    HW2 8297   4.140   2.376   2.804
 2765SOL     OW 8298   3.732   3.188   2.062
 2765SOL    HW1 8299   3.639   3.209   2.031
 2765SOL    HW2 8300   3.742   3.089   2.075
 2766SOL     OW 8301   3.812   3.663   2.789
 2766SOL    HW1 8302   3.770   3.577   2.762
 2766SOL    HW2 8303   3.906   3.666   2.755
 2767SOL     OW 8304   4.228   3.430   2.772
 2767SOL    HW1 8305   4.294   3.504   2.781
 2767SOL    HW2 8306   4.272   3.351   2.730
 2768SOL     OW 8307   3.764   2.406   2.976
 2768SOL    HW1 8308   3.849   2.373   2.935
 2768SOL    HW2 8309   3.777   2.421   3.074
 2769SOL     OW 8310   3.913   2.382   3.584
 2769SOL    HW1 8311   3.972   2.342   3.514
 2769SOL    HW2 8312   3.855   2.453   3.543
 2770SOL     OW 8313   4.539   2.434   2.187
 2770SOL    HW1 8314   4.546   2.345   2.141
 2770SOL    HW2 8315   4.445   2.468   2.179
 2771SOL     OW 8316   3.976   3.426   3.606
 2771SOL    HW1 8317   3.946   3.483   3.682
 2771SOL    HW2 8318   3.969   3.329   3.632
 2772SOL     OW 8319   4.197   2.362   2.053
 2772SOL    HW1 8320   4.258   2.442   2.057
 2772SOL    HW2 8321   4.102   2.393   2.060
 2773SOL     OW 8322   3.883   2.999   3.328
 2773SOL    HW1 8323   3.905   2.938   3.404
 2773SOL    HW2 8324   3.893   2.950   3.242
 2774SOL     OW 8325   3.807   3.120   2.884
 2774SOL    HW1 8326   3.802   3.119   2.984
 2774SOL    HW2 8327   3.724   3.079   2.846
 2775SOL     OW 8328   4.412   3.524   3.578
 2775SOL    HW1 8329   4.356   3.605   3.587
 2775SOL    HW2 8330   4.464   3.528   3.492
 2776SOL     OW 8331   3.854   3.656   3.713
 2776SOL    HW1 8332   3.813   3.582   3.766
 2776SOL    HW2 8333   3.918   3.707   3.771
 2777SOL     OW 8334   3.987   2.188   2.582
 2777SOL    HW1 8335   3.908   2.239   2.548
 2777SOL    HW2 8336   3.978   2.173   2.680
 2778SOL     OW 8337   4.096   3.150   3.352
 2778SOL    HW1 8338   4.083   3.243   3.318
 2778SOL    HW2 8339   4.012   3.098   3.339
 2779SOL     OW 8340   4.314   3.349   2.353
 2779SOL    HW1 8341   4.356   3.291   2.283
 2779SOL    HW2 8342   4.270   3.428   2.309
 2780SOL     OW 8343   3.979   3.210   2.152
 2780SOL    HW1 8344   3.883   3.211   2.125
 2780SOL    HW2 8345   3.991   3.263   2.236
 2781SOL     OW 8346   3.829   2.875   3.588
 2781SOL    HW1 8347   3.752   2.842   3.642
 2781SOL    HW2 8348   3.914   2.845   3.630
 2782SOL     OW 8349   4.396   2.065   3.351
 2782SOL    HW1 8350   4.486   2.049   3.311
 2782SOL    HW2 8351   4.404   2.070   3.450
 2783SOL     OW 8352   3.799   2.207   1.895
 2783SOL    HW1 8353   3.707   2.179   1.866
 2783SOL    HW2 8354   3.830   2.284   1.839
 2784SOL     OW 8355   3.796   2.028   2.180
 2784SOL    HW1 8356   3.779   2.111   2.126
 2784SOL    HW2 8357   3.886   1.991   2.158
 2785SOL     OW 8358   4.337   2.704   3.293
 2785SOL    HW1 8359   4.393   2.785   3.276
 2785SOL    HW2 8360   4.396   2.624   3.296
 2786SOL     OW 8361   4.440   2.427   3.570
 2786SOL    HW1 8362   4.459   2.492   3.644
 2786SOL    HW2 8363   4.500   2.347   3.579
 2787SOL     OW 8364   4.114   3.603   3.422
 2787SOL    HW1 8365   4.023   3.644   3.420
 2787SOL    HW2 8366   4.107   3.509   3.454
 2788SOL     OW 8367   4.318   2.607   2.514
 2788SOL    HW1 8368   4.368   2.692   2.495
 2788SOL    HW2 8369   4.230   2.609   2.466
 2789SOL     OW 8370   3.945   3.176   3.706
 2789SOL    HW1 8371   3.880   3.103   3.685
 2789SOL    HW2 8372   3.949   3.190   3.804
 2790SOL     OW 8373   3.803   3.102   2.515
 2790SOL    HW1 8374   3.802   3.055   2.603
 2790SOL    HW2 8375   3.885   3.074   2.464
 2791SOL     OW 8376   4.396   3.253   3.486
 2791SOL    HW1 8377   4.318   3.203   3.524
 2791SOL    HW2 8378   4.393   3.348   3.517
 2792SOL     OW 8379   4.152   2.286   2.382
 2792SOL    HW1 8380   4.182   2.214   2.320
 2792SOL    HW2 8381   4.113   2.246   2.465
 2793SOL     OW 8382   4.041   2.409   3.142
 2793SOL    HW1 8383   4.079   2.350   3.214
 2793SOL    HW2 8384   4.081   2.383   3.054
 2794SOL     OW 8385   3.763   2.939   2.162
 2794SOL    HW1 8386   3.862   2.928   2.153
 2794SOL    HW2 8387   3.723   2.853   2.194
 2795SOL     OW 8388   3.954   2.490   3.837
 2795SOL    HW1 8389   3.861   2.488   3.874
 2795SOL    HW2 8390   3.955   2.451   3.745
 2796SOL     OW 8391   3.949   2.137   4.720
 2796SOL    HW1 8392   3.984   2.120   4.812
 2796SOL    HW2 8393   3.861   2.092   4.708
 2797SOL     OW 8394   3.955   3.575   4.207
 2797SOL    HW1 8395   3.989   3.652   4.261
 2797SOL    HW2 8396   3.999   3.575   4.117
 2798SOL     OW 8397   3.954   3.296   4.262
 2798SOL    HW1 8398   3.928   3.392   4.262
 2798SOL    HW2 8399   3.883   3.242   4.307
 2799SOL     OW 8400   4.330   2.826   3.847
 2799SOL    HW1 8401   4.337   2.910   3.793
 2799SOL    HW2 8402   4.376   2.839   3.935
 2800SOL     OW 8403   3.846   2.505   4.287
 2800SOL    HW1 8404   3.801   2.417   4.304
 2800SOL    HW2 8405   3.845   2.559   4.371
 2801SOL     OW 8406   3.751   3.458   3.841
 2801SOL    HW1 8407   3.732   3.362   3.862
 2801SOL    HW2 8408   3.718   3.516   3.916
 2802SOL     OW 8409   4.337   3.227   4.450
 2802SOL    HW1 8410   4.288   3.140   4.459
 2802SOL    HW2 8411   4.314   3.270   4.363
 2803SOL     OW 8412   4.533   1.866   4.226
 2803SOL    HW1 8413   4.573   1.957   4.217
 2803SOL    HW2 8414   4.433   1.874   4.232
 2804SOL     OW 8415   4.322   2.591   3.994
 2804SOL    HW1 8416   4.346   2.660   3.926
 2804SOL    HW2 8417   4.244   2.624   4.048
 2805SOL     OW 8418   3.800   2.673   4.513
 2805SOL    HW1 8419   3.899   2.661   4.522
 2805SOL    HW2 8420   3.776   2.768   4.534
 2806SOL     OW 8421   4.075   3.663   4.577
 2806SOL    HW1 8422   4.125   3.577   4.583
 2806SOL    HW2 8423   4.140   3.740   4.574
 2807SOL     OW 8424   4.045   2.805   3.966
 2807SOL    HW1 8425   4.127   2.844   3.924
 2807SOL    HW2 8426   4.018   2.723   3.917
 2808SOL     OW 8427   4.188   3.605   4.047
 2808SOL    HW1 8428   4.221   3.644   4.133
 2808SOL    HW2 8429   4.264   3.598   3.982
 2809SOL     OW 8430   4.106   2.562   4.204
 2809SOL    HW1 8431   4.151   2.472   4.201
 2809SOL    HW2 8432   4.012   2.551   4.237
 2810SOL     OW 8433   4.338   1.984   3.841
 2810SOL    HW1 8434   4.436   1.962   3.848
 2810SOL    HW2 8435   4.307   1.967   3.748
 2811SOL     OW 8436   4.263   1.926   4.236
 2811SOL    HW1 8437   4.182   1.927   4.294
 2811SOL    HW2 8438   4.266   2.009   4.181
 2812SOL     OW 8439   4.021   1.897   3.895
 2812SOL    HW1 8440   4.070   1.981   3.874
 2812SOL    HW2 8441   4.083   1.832   3.940
 2813SOL     OW 8442   4.659   2.098   4.204
 2813SOL    HW1 8443   4.611   2.139   4.126
 2813SOL    HW2 8444   4.758   2.096   4.185
 2814SOL     OW 8445   4.183   3.014   4.465
 2814SOL    HW1 8446   4.112   2.987   4.530
 2814SOL    HW2 8447   4.157   2.986   4.372
 2815SOL     OW 8448   4.212   3.247   3.898
 2815SOL    HW1 8449   4.125   3.232   3.945
 2815SOL    HW2 8450   4.195   3.273   3.803
 2816SOL     OW 8451   4.251   2.118   4.052
 2816SOL    HW1 8452   4.278   2.059   3.977
 2816SOL    HW2 8453   4.251   2.213   4.021
 2817SOL     OW 8454   4.091   2.962   4.225
 2817SOL    HW1 8455   4.084   3.045   4.169
 2817SOL    HW2 8456   4.095   2.882   4.165
 2818SOL     OW 8457   4.031   1.925   4.342
 2818SOL    HW1 8458   4.020   2.019   4.375
 2818SOL    HW2 8459   4.026   1.862   4.419
 2819SOL     OW 8460   3.732   3.188   3.924
 2819SOL    HW1 8461   3.639   3.209   3.893
 2819SOL    HW2 8462   3.742   3.089   3.937
 2820SOL     OW 8463   4.539   2.434   4.049
 2820SOL    HW1 8464   4.546   2.345   4.003
 2820SOL    HW2 8465   4.445   2.468   4.041
 2821SOL     OW 8466   4.197   2.362   3.915
 2821SOL    HW1 8467   4.258   2.442   3.919
 2821SOL    HW2 8468   4.102   2.393   3.922
 2822SOL     OW 8469   4.314   3.349   4.215
 2822SOL    HW1 8470   4.356   3.291   4.145
 2822SOL    HW2 8471   4.270   3.428   4.171
 2823SOL     OW 8472   3.979   3.210   4.014
 2823SOL    HW1 8473   3.883   3.211   3.987
 2823SOL    HW2 8474   3.991   3.263   4.098
 2824SOL     OW 8475   3.799   2.207   3.757
 2824SOL    HW1 8476   3.707   2.179   3.728
 2824SOL    HW2 8477   3.830   2.284   3.701
 2825SOL     OW 8478   3.796   2.028   4.042
 2825SOL    HW1 8479   3.779   2.111   3.988
 2825SOL    HW2 8480   3.886   1.991   4.020
 2826SOL     OW 8481   4.318   2.607   4.376
 2826SOL    HW1 8482   4.368   2.692   4.357
 2826SOL    HW2 8483   4.230   2.609   4.328
 2827SOL     OW 8484   3.803   3.102   4.377
 2827SOL    HW1 8485   3.802   3.055   4.465
 2827SOL    HW2 8486   3.885   3.074   4.326
 2828SOL     OW 8487   4.152   2.286   4.244
 2828SOL    HW1 8488   4.182   2.214   4.182
 2828SOL    HW2 8489   4.113   2.246   4.327
 2829SOL     OW 8490   3.763   2.939   4.024
 2829SOL    HW1 8491   3.862   2.928   4.015
 2829SOL    HW2 8492   3.723   2.853   4.056
 2830SOL     OW 8493   3.949   3.999   0.996
 2830SOL    HW1 8494   3.984   3.982   1.088
 2830SOL    HW2 8495   3.861   3.954   0.984
 2831SOL     OW 8496   3.743   4.092   0.647
 2831SOL    HW1 8497   3.661   4.135   0.686
 2831SOL    HW2 8498   3.715   4.019   0.584
 2832SOL     OW 8499   4.574   4.522   1.823
 2832SOL    HW1 8500   4.570   4.598   1.888
 2832SOL    HW2 8501   4.596   4.558   1.732
 2833SOL     OW 8502   4.162   4.116   1.499
 2833SOL    HW1 8503   4.244   4.060   1.508
 2833SOL    HW2 8504   4.081   4.058   1.503
 2834SOL     OW 8505   3.846   4.367   0.563
 2834SOL    HW1 8506   3.801   4.279   0.580
 2834SOL    HW2 8507   3.845   4.421   0.647
 2835SOL     OW 8508   3.837   4.461   1.597
 2835SOL    HW1 8509   3.925   4.448   1.642
 2835SOL    HW2 8510   3.824   4.558   1.575
 2836SOL     OW 8511   4.533   3.728   0.502
 2836SOL    HW1 8512   4.573   3.819   0.493
 2836SOL    HW2 8513   4.433   3.736   0.508
 2837SOL     OW 8514   4.041   3.975   1.801
 2837SOL    HW1 8515   4.112   4.046   1.807
 2837SOL    HW2 8516   3.953   4.014   1.829
 2838SOL     OW 8517   4.322   4.453   0.270
 2838SOL    HW1 8518   4.346   4.522   0.202
 2838SOL    HW2 8519   4.244   4.486   0.324
 2839SOL     OW 8520   4.274   3.920   0.885
 2839SOL    HW1 8521   4.269   3.915   0.985
 2839SOL    HW2 8522   4.276   4.016   0.856
 2840SOL     OW 8523   3.926   4.009   1.498
 2840SOL    HW1 8524   3.846   4.069   1.485
 2840SOL    HW2 8525   3.916   3.960   1.584
 2841SOL     OW 8526   4.338   3.846   0.117
 2841SOL    HW1 8527   4.436   3.824   0.124
 2841SOL    HW2 8528   4.307   3.829   0.024
 2842SOL     OW 8529   4.263   3.788   0.512
 2842SOL    HW1 8530   4.182   3.789   0.570
 2842SOL    HW2 8531   4.266   3.871   0.457
 2843SOL     OW 8532   4.659   3.960   0.480
 2843SOL    HW1 8533   4.611   4.001   0.402
 2843SOL    HW2 8534   4.758   3.958   0.461
 2844SOL     OW 8535   4.800   4.407   1.464
 2844SOL    HW1 8536   4.720   4.346   1.467
 2844SOL    HW2 8537   4.881   4.354   1.440
 2845SOL     OW 8538   3.802   4.280   1.386
 2845SOL    HW1 8539   3.894   4.279   1.345
 2845SOL    HW2 8540   3.796   4.354   1.453
 2846SOL     OW 8541   4.285   3.946   1.147
 2846SOL    HW1 8542   4.323   3.862   1.184
 2846SOL    HW2 8543   4.197   3.965   1.191
 2847SOL     OW 8544   4.251   3.980   0.328
 2847SOL    HW1 8545   4.278   3.921   0.253
 2847SOL    HW2 8546   4.251   4.075   0.297
 2848SOL     OW 8547   4.290   4.261   0.865
 2848SOL    HW1 8548   4.302   4.327   0.791
 2848SOL    HW2 8549   4.336   4.295   0.948
 2849SOL     OW 8550   4.228   3.774   1.740
 2849SOL    HW1 8551   4.186   3.717   1.670
 2849SOL    HW2 8552   4.162   3.843   1.772
 2850SOL     OW 8553   4.031   3.937   1.231
 2850SOL    HW1 8554   4.008   3.974   1.321
 2850SOL    HW2 8555   4.001   3.842   1.225
 2851SOL     OW 8556   4.031   3.787   0.618
 2851SOL    HW1 8557   4.020   3.881   0.651
 2851SOL    HW2 8558   4.026   3.724   0.695
 2852SOL     OW 8559   4.043   4.534   0.949
 2852SOL    HW1 8560   4.136   4.570   0.954
 2852SOL    HW2 8561   4.037   4.449   1.001
 2853SOL     OW 8562   4.063   4.233   1.006
 2853SOL    HW1 8563   4.011   4.150   0.989
 2853SOL    HW2 8564   4.140   4.238   0.942
 2854SOL     OW 8565   3.764   4.268   1.114
 2854SOL    HW1 8566   3.849   4.235   1.073
 2854SOL    HW2 8567   3.777   4.283   1.212
 2855SOL     OW 8568   3.913   4.244   1.722
 2855SOL    HW1 8569   3.972   4.204   1.652
 2855SOL    HW2 8570   3.855   4.315   1.681
 2856SOL     OW 8571   4.539   4.296   0.325
 2856SOL    HW1 8572   4.546   4.207   0.279
 2856SOL    HW2 8573   4.445   4.330   0.317
 2857SOL     OW 8574   4.197   4.224   0.191
 2857SOL    HW1 8575   4.258   4.304   0.195
 2857SOL    HW2 8576   4.102   4.255   0.198
 2858SOL     OW 8577   4.627   3.810   0.133
 2858SOL    HW1 8578   4.678   3.811   0.047
 2858SOL    HW2 8579   4.683   3.768   0.204
 2859SOL     OW 8580   3.987   4.050   0.720
 2859SOL    HW1 8581   3.908   4.101   0.686
 2859SOL    HW2 8582   3.978   4.035   0.818
 2860SOL     OW 8583   4.396   3.927   1.489
 2860SOL    HW1 8584   4.486   3.911   1.449
 2860SOL    HW2 8585   4.404   3.932   1.588
 2861SOL     OW 8586   3.799   4.069   0.033
 2861SOL    HW1 8587   3.707   4.041   0.004
 2861SOL    HW2 8588   3.830   4.146  -0.023
 2862SOL     OW 8589   4.440   4.289   1.708
 2862SOL    HW1 8590   4.459   4.354   1.782
 2862SOL    HW2 8591   4.500   4.209   1.717
 2863SOL     OW 8592   4.152   4.148   0.520
 2863SOL    HW1 8593   4.182   4.076   0.458
 2863SOL    HW2 8594   4.113   4.108   0.603
 2864SOL     OW 8595   4.041   4.271   1.280
 2864SOL    HW1 8596   4.079   4.212   1.352
 2864SOL    HW2 8597   4.081   4.245   1.192
 2865SOL     OW 8598   3.949   3.999   2.858
 2865SOL    HW1 8599   3.984   3.982   2.950
 2865SOL    HW2 8600   3.861   3.954   2.846
 2866SOL     OW 8601   3.743   4.092   2.509
 2866SOL    HW1 8602   3.661   4.135   2.548
 2866SOL    HW2 8603   3.715   4.019   2.446
 2867SOL     OW 8604   4.574   4.522   3.685
 2867SOL    HW1 8605   4.570   4.598   3.750
 2867SOL    HW2 8606   4.596   4.558   3.594
 2868SOL     OW 8607   4.162   4.116   3.361
 2868SOL    HW1 8608   4.244   4.060   3.370
 2868SOL    HW2 8609   4.081   4.058   3.365
 2869SOL     OW 8610   3.846   4.367   2.425
 2869SOL    HW1 8611   3.801   4.279   2.442
 2869SOL    HW2 8612   3.845   4.421   2.509
 2870SOL     OW 8613   3.837   4.461   3.459
 2870SOL    HW1 8614   3.925   4.448   3.504
 2870SOL    HW2 8615   3.824   4.558   3.437
 2871SOL     OW 8616   4.533   3.728   2.364
 2871SOL    HW1 8617   4.573   3.819   2.355
 2871SOL    HW2 8618   4.433   3.736   2.370
 2872SOL     OW 8619   4.041   3.975   3.663
 2872SOL    HW1 8620   4.112   4.046   3.669
 2872SOL    HW2 8621   3.953   4.014   3.691
 2873SOL     OW 8622   4.274   3.920   2.747
 2873SOL    HW1 8623   4.269   3.915   2.847
 2873SOL    HW2 8624   4.276   4.016   2.718
 2874SOL     OW 8625   3.926   4.009   3.360
 2874SOL    HW1 8626   3.846   4.069   3.347
 2874SOL    HW2 8627   3.916   3.960   3.446
 2875SOL     OW 8628   4.338   3.846   1.979
 2875SOL    HW1 8629   4.436   3.824   1.986
 2875SOL    HW2 8630   4.307   3.829   1.886
 2876SOL     OW 8631   4.263   3.788   2.374
 2876SOL    HW1 8632   4.182   3.789   2.432
 2876SOL    HW2 8633   4.266   3.871   2.319
 2877SOL     OW 8634   4.021   3.759   2.033
 2877SOL    HW1 8635   4.070   3.843   2.012
 2877SOL    HW2 8636   4.083   3.694   2.078
 2878SOL     OW 8637   4.659   3.960   2.342
 2878SOL    HW1 8638   4.611   4.001   2.264
 2878SOL    HW2 8639   4.758   3.958   2.323
 2879SOL     OW 8640   4.800   4.407   3.326
 2879SOL    HW1 8641   4.720   4.346   3.329
 2879SOL    HW2 8642   4.881   4.354   3.302
 2880SOL     OW 8643   3.802   4.280   3.248
 2880SOL    HW1 8644   3.894   4.279   3.207
 2880SOL    HW2 8645   3.796   4.354   3.315
 2881SOL     OW 8646   4.285   3.946   3.009
 2881SOL    HW1 8647   4.323   3.862   3.046
 2881SOL    HW2 8648   4.197   3.965   3.053
 2882SOL     OW 8649   4.251   3.980   2.190
 2882SOL    HW1 8650   4.278   3.921   2.115
 2882SOL    HW2 8651   4.251   4.075   2.159
 2883SOL     OW 8652   4.290   4.261   2.727
 2883SOL    HW1 8653   4.302   4.327   2.653
 2883SOL    HW2 8654   4.336   4.295   2.810
 2884SOL     OW 8655   4.228   3.774   3.602
 2884SOL    HW1 8656   4.186   3.717   3.532
 2884SOL    HW2 8657   4.162   3.843   3.634
 2885SOL     OW 8658   4.031   3.937   3.093
 2885SOL    HW1 8659   4.008   3.974   3.183
 2885SOL    HW2 8660   4.001   3.842   3.087
 2886SOL     OW 8661   4.031   3.787   2.480
 2886SOL    HW1 8662   4.020   3.881   2.513
 2886SOL    HW2 8663   4.026   3.724   2.557
 2887SOL     OW 8664   4.043   4.534   2.811
 2887SOL    HW1 8665   4.136   4.570   2.816
 2887SOL    HW2 8666   4.037   4.449   2.863
 2888SOL     OW 8667   4.063   4.233   2.868
 2888SOL    HW1 8668   4.011   4.150   2.851
 2888SOL    HW2 8669   4.140   4.238   2.804
 2889SOL     OW 8670   3.764   4.268   2.976
 2889SOL    HW1 8671   3.849   4.235   2.935
 2889SOL    HW2 8672   3.777   4.283   3.074
 2890SOL     OW 8673   3.913   4.244   3.584
 2890SOL    HW1 8674   3.972   4.204   3.514
 2890SOL    HW2 8675   3.855   4.315   3.543
 2891SOL     OW 8676   4.539   4.296   2.187
 2891SOL    HW1 8677   4.546   4.207   2.141
 2891SOL    HW2 8678   4.445   4.330   2.179
 2892SOL     OW 8679   4.197   4.224   2.053
 2892SOL    HW1 8680   4.258   4.304   2.057
 2892SOL    HW2 8681   4.102   4.255   2.060
 2893SOL     OW 8682   3.987   4.050   2.582
 2893SOL    HW1 8683   3.908   4.101   2.548
 2893SOL    HW2 8684   3.978   4.035   2.680
 2894SOL     OW 8685   4.396   3.927   3.351
 2894SOL    HW1 8686   4.486   3.911   3.311
 2894SOL    HW2 8687   4.404   3.932   3.450
 2895SOL     OW 8688   3.799   4.069   1.895
 2895SOL    HW1 8689   3.707   4.041   1.866
 2895SOL    HW2 8690   3.830   4.146   1.839
 2896SOL     OW 8691   3.796   3.890   2.180
 2896SOL    HW1 8692   3.779   3.973   2.126
 2896SOL    HW2 8693   3.886   3.853   2.158
 2897SOL     OW 8694   4.440   4.289   3.570
 2897SOL    HW1 8695   4.459   4.354   3.644
 2897SOL    HW2 8696   4.500   4.209   3.579
 2898SOL     OW 8697   4.152   4.148   2.382
 2898SOL    HW1 8698   4.182   4.076   2.320
 2898SOL    HW2 8699   4.113   4.108   2.465
 2899SOL     OW 8700   4.041   4.271   3.142
 2899SOL    HW1 8701   4.079   4.212   3.214
 2899SOL    HW2 8702   4.081   4.245   3.054
 2900SOL     OW 8703   3.949   3.999   4.720
 2900SOL    HW1 8704   3.984   3.982   4.812
 2900SOL    HW2 8705   3.861   3.954   4.708
 2901SOL     OW 8706   3.846   4.367   4.287
 2901SOL    HW1 8707   3.801   4.279   4.304
 2901SOL    HW2 8708   3.845   4.421   4.371
 2902SOL     OW 8709   4.533   3.728   4.226
 2902SOL    HW1 8710   4.573   3.819   4.217
 2902SOL    HW2 8711   4.433   3.736   4.232
 2903SOL     OW 8712   4.338   3.846   3.841
 2903SOL    HW1 8713   4.436   3.824   3.848
 2903SOL    HW2 8714   4.307   3.829   3.748
 2904SOL     OW 8715   4.263   3.788   4.236
 2904SOL    HW1 8716   4.182   3.789   4.294
 2904SOL    HW2 8717   4.266   3.871   4.181
 2905SOL     OW 8718   4.021   3.759   3.895
 2905SOL    HW1 8719   4.070   3.843   3.874
 2905SOL    HW2 8720   4.083   3.694   3.940
 2906SOL     OW 8721   4.659   3.960   4.204
 2906SOL    HW1 8722   4.611   4.001   4.126
 2906SOL    HW2 8723   4.758   3.958   4.185
 2907SOL     OW 8724   4.251   3.980   4.052
 2907SOL    HW1 8725   4.278   3.921   3.977
 2907SOL    HW2 8726   4.251   4.075   4.021
 2908SOL     OW 8727   4.031   3.787   4.342
 2908SOL    HW1 8728   4.020   3.881   4.375
 2908SOL    HW2 8729   4.026   3.724   4.419
 2909SOL     OW 8730   4.539   4.296   4.049
 2909SOL    HW1 8731   4.546   4.207   4.003
 2909SOL    HW2 8732   4.445   4.330   4.041
 2910SOL     OW 8733   4.197   4.224   3.915
 2910SOL    HW1 8734   4.258   4.304   3.919
 2910SOL    HW2 8735   4.102   4.255   3.922
 2911SOL     OW 8736   3.799   4.069   3.757
 2911SOL    HW1 8737   3.707   4.041   3.728
 2911SOL    HW2 8738   3.830   4.146   3.701
 2912SOL     OW 8739   3.796   3.890   4.042
 2912SOL    HW1 8740   3.779   3.973   3.988
 2912SOL    HW2 8741   3.886   3.853   4.020
 2913SOL     OW 8742   4.152   4.148   4.244
 2913SOL    HW1 8743   4.182   4.076   4.182
 2913SOL    HW2 8744   4.113   4.108   4.327
   4.46208   4.46208   4.46208
