; mobley_7176248_GMX_OPLS.top created by acpype (v: 2023.10.27) on Wed May 20 23:57:05 2026

; Include forcefield parameters
#include "ffoplsaa.itp"

; Include mobley_7176248_GMX.itp topology
#include "mobley_7176248_GMX.itp"

; Ligand position restraints
#ifdef POSRES_LIG
#include "posre_mobley_7176248.itp"
#endif

[ system ]
 mobley_7176248

[ molecules ]
; Compound        nmols
 mobley_7176248   1     
