mobley_7176248_GMX.gro created by acpype (v: 2023.10.27) on Wed May 20 23:57:05 2026
 39
    1  MOL   C1    1   0.459  -0.215  -0.191
    1  MOL   C2    2   0.242  -0.271  -0.276
    1  MOL   C3    3   0.365  -0.313  -0.225
    1  MOL   C4    4   0.430  -0.078  -0.208
    1  MOL   C5    5   0.216  -0.133  -0.292
    1  MOL   C6    6   0.307  -0.031  -0.258
    1  MOL   C7    7   0.153   0.231   0.068
    1  MOL   C8    8   0.282   0.313  -0.594
    1  MOL   C9    9   0.163   0.138  -0.052
    1  MOL  C10   10   0.225   0.251  -0.468
    1  MOL  C11   11   0.265   0.189  -0.154
    1  MOL  C12   12   0.330   0.167  -0.395
    1  MOL  C13   13   0.394  -0.460  -0.204
    1  MOL   N1   14   0.270   0.103  -0.275
    1  MOL   N2   15   0.537   0.013  -0.174
    1  MOL   N3   16   0.086  -0.099  -0.347
    1  MOL   O1   17   0.599   0.065  -0.268
    1  MOL   O2   18   0.561   0.028  -0.054
    1  MOL   O3   19  -0.009  -0.095  -0.268
    1  MOL   O4   20   0.080  -0.084  -0.470
    1  MOL   F1   21   0.526  -0.490  -0.221
    1  MOL   F2   22   0.362  -0.501  -0.078
    1  MOL   F3   23   0.326  -0.540  -0.289
    1  MOL   H1   24   0.556  -0.246  -0.150
    1  MOL   H2   25   0.166  -0.344  -0.303
    1  MOL   H3   26   0.250   0.239   0.119
    1  MOL   H4   27   0.121   0.331   0.037
    1  MOL   H5   28   0.080   0.193   0.139
    1  MOL   H6   29   0.366   0.379  -0.571
    1  MOL   H7   30   0.317   0.236  -0.664
    1  MOL   H8   31   0.205   0.372  -0.645
    1  MOL   H9   32   0.065   0.129  -0.099
    1  MOL  H10   33   0.191   0.038  -0.017
    1  MOL  H11   34   0.139   0.188  -0.495
    1  MOL  H12   35   0.187   0.330  -0.403
    1  MOL  H13   36   0.235   0.290  -0.184
    1  MOL  H14   37   0.364   0.199  -0.109
    1  MOL  H15   38   0.368   0.091  -0.464
    1  MOL  H16   39   0.414   0.230  -0.365
   12.16400    18.38200    16.06200
