CUP08056_AM1BCC_v1_0
    39
   4.5900000  -2.1530000  -1.9050000   2.4150000  -2.7090000  -2.7590000
   3.6460000  -3.1310000  -2.2470000   4.2980000  -0.7830000  -2.0820000
   2.1560000  -1.3340000  -2.9200000   3.0680000  -0.3130000  -2.5800000
   1.5320000   2.3080000   0.6770000   2.8190000   3.1290000  -5.9430000
   1.6310000   1.3760000  -0.5210000   2.2470000   2.5050000  -4.6800000
   2.6490000   1.8890000  -1.5430000   3.2970000   1.6670000  -3.9460000
   3.9410000  -4.5990000  -2.0380000   2.6970000   1.0320000  -2.7500000
   5.3690000   0.1300000  -1.7420000   0.8620000  -0.9860000  -3.4700000
   5.9920000   0.6470000  -2.6780000   5.6080000   0.2820000  -0.5370000
  -0.0900000  -0.9450000  -2.6790000   0.7970000  -0.8430000  -4.6990000
   5.2560000  -4.8990000  -2.2100000   3.6170000  -5.0100000  -0.7840000
   3.2550000  -5.4030000  -2.8940000   5.5600000  -2.4550000  -1.5050000
   1.6550000  -3.4420000  -3.0340000   2.4960000   2.3940000   1.1880000
   1.2140000   3.3100000   0.3700000   0.7990000   1.9260000   1.3940000
   3.6610000   3.7880000  -5.7070000   3.1690000   2.3590000  -6.6370000
   2.0540000   3.7230000  -6.4520000   0.6450000   1.2880000  -0.9910000
   1.9090000   0.3770000  -0.1660000   1.3860000   1.8800000  -4.9450000
   1.8680000   3.3010000  -4.0300000   2.3470000   2.9000000  -1.8400000
   3.6370000   1.9940000  -1.0860000   3.6840000   0.9080000  -4.6400000
   4.1430000   2.3010000  -3.6540000
