mobley_2929847_GMX.gro created by acpype (v: 2023.10.27) on Thu May 21 00:03:56 2026
 9461
    1MOL     C1    1   2.111   2.266   2.356
    1MOL     C2    2   2.401   2.316   2.406
    1MOL     C3    3   2.438   2.342   2.160
    1MOL     C4    4   2.203   2.326   2.253
    1MOL     C5    5   2.348   2.280   2.267
    1MOL     O1    6   2.047   2.327   2.441
    1MOL     O2    7   2.105   2.131   2.341
    1MOL     H1    8   2.341   2.268   2.484
    1MOL     H2    9   2.399   2.424   2.423
    1MOL     H3   10   2.505   2.282   2.419
    1MOL     H4   11   2.438   2.452   2.167
    1MOL     H5   12   2.542   2.308   2.172
    1MOL     H6   13   2.405   2.315   2.060
    1MOL     H7   14   2.165   2.300   2.153
    1MOL     H8   15   2.197   2.435   2.264
    1MOL     H9   16   2.353   2.171   2.256
    1MOL    H10   17   2.043   2.090   2.405
    2SOL     OW   18   0.230   0.628   0.113
    2SOL    HW1   19   0.137   0.626   0.150
    2SOL    HW2   20   0.231   0.589   0.021
    3SOL     OW   21   0.225   0.275   0.996
    3SOL    HW1   22   0.260   0.258   1.088
    3SOL    HW2   23   0.137   0.230   0.984
    4SOL     OW   24   0.019   0.368   0.647
    4SOL    HW1   25  -0.063   0.411   0.686
    4SOL    HW2   26  -0.009   0.295   0.584
    5SOL     OW   27   0.569   1.275   1.165
    5SOL    HW1   28   0.476   1.268   1.128
    5SOL    HW2   29   0.580   1.364   1.209
    6SOL     OW   30   1.555   1.511   0.703
    6SOL    HW1   31   1.498   1.495   0.784
    6SOL    HW2   32   1.496   1.521   0.623
    7SOL     OW   33   1.135   0.703   0.717
    7SOL    HW1   34   1.192   0.781   0.692
    7SOL    HW2   35   1.075   0.729   0.793
    8SOL     OW   36   1.755   0.607   0.231
    8SOL    HW1   37   1.743   0.594   0.132
    8SOL    HW2   38   1.725   0.526   0.280
    9SOL     OW   39   0.768   1.144   1.023
    9SOL    HW1   40   0.690   1.161   1.083
    9SOL    HW2   41   0.802   1.231   0.987
   10SOL     OW   42   0.850   0.798   1.823
   10SOL    HW1   43   0.846   0.874   1.888
   10SOL    HW2   44   0.872   0.834   1.732
   11SOL     OW   45   0.685   1.012   0.665
   11SOL    HW1   46   0.754   0.996   0.735
   11SOL    HW2   47   0.612   1.069   0.703
   12SOL     OW   48   0.686   1.161   1.803
   12SOL    HW1   49   0.746   1.240   1.817
   12SOL    HW2   50   0.600   1.192   1.762
   13SOL     OW   51   0.335   1.435   1.061
   13SOL    HW1   52   0.257   1.404   1.008
   13SOL    HW2   53   0.393   1.493   1.004
   14SOL     OW   54   1.460   1.505   1.339
   14SOL    HW1   55   1.484   1.599   1.365
   14SOL    HW2   56   1.444   1.451   1.421
   15SOL     OW   57   0.438   0.392   1.499
   15SOL    HW1   58   0.520   0.336   1.508
   15SOL    HW2   59   0.357   0.334   1.503
   16SOL     OW   60   1.603   0.447   0.737
   16SOL    HW1   61   1.529   0.493   0.687
   16SOL    HW2   62   1.654   0.515   0.790
   17SOL     OW   63   0.231   1.713   0.483
   17SOL    HW1   64   0.265   1.790   0.537
   17SOL    HW2   65   0.275   1.713   0.393
   18SOL     OW   66   1.127   1.341   1.690
   18SOL    HW1   67   1.174   1.341   1.778
   18SOL    HW2   68   1.079   1.254   1.679
   19SOL     OW   69   0.230   1.434   0.538
   19SOL    HW1   70   0.204   1.530   0.538
   19SOL    HW2   71   0.159   1.380   0.583
   20SOL     OW   72   0.240   1.091   0.886
   20SOL    HW1   73   0.254   1.007   0.938
   20SOL    HW2   74   0.185   1.155   0.941
   21SOL     OW   75   0.620   1.786   1.439
   21SOL    HW1   76   0.528   1.769   1.474
   21SOL    HW2   77   0.648   1.878   1.465
   22SOL     OW   78   0.606   0.964   0.123
   22SOL    HW1   79   0.613   1.048   0.069
   22SOL    HW2   80   0.652   0.977   0.211
   23SOL     OW   81   1.594   0.114   1.480
   23SOL    HW1   82   1.576   0.181   1.408
   23SOL    HW2   83   1.591   0.160   1.569
   24SOL     OW   84   0.122   0.643   0.563
   24SOL    HW1   85   0.077   0.555   0.580
   24SOL    HW2   86   0.121   0.697   0.647
   25SOL     OW   87   1.842   1.767   0.359
   25SOL    HW1   88   1.896   1.738   0.439
   25SOL    HW2   89   1.872   1.857   0.330
   26SOL     OW   90   0.027   1.596   0.117
   26SOL    HW1   91   0.008   1.500   0.138
   26SOL    HW2   92  -0.006   1.654   0.192
   27SOL     OW   93   1.689   0.922   0.612
   27SOL    HW1   94   1.784   0.893   0.620
   27SOL    HW2   95   1.681   0.987   0.537
   28SOL     OW   96   1.641   1.108   0.432
   28SOL    HW1   97   1.727   1.110   0.380
   28SOL    HW2   98   1.655   1.155   0.520
   29SOL     OW   99   0.113   0.737   1.597
   29SOL    HW1  100   0.201   0.724   1.642
   29SOL    HW2  101   0.100   0.834   1.575
   30SOL     OW  102   0.613   1.365   0.726
   30SOL    HW1  103   0.564   1.278   0.735
   30SOL    HW2  104   0.590   1.408   0.639
   31SOL     OW  105   1.293   1.228   1.423
   31SOL    HW1  106   1.330   1.155   1.365
   31SOL    HW2  107   1.345   1.233   1.508
   32SOL     OW  108   0.809   0.004   0.502
   32SOL    HW1  109   0.849   0.095   0.493
   32SOL    HW2  110   0.709   0.012   0.508
   33SOL     OW  111   0.197   0.976   1.264
   33SOL    HW1  112   0.286   0.931   1.250
   33SOL    HW2  113   0.124   0.911   1.245
   34SOL     OW  114   1.525   0.999   0.190
   34SOL    HW1  115   1.462   0.923   0.203
   34SOL    HW2  116   1.573   1.017   0.276
   35SOL     OW  117   1.187   1.792   1.616
   35SOL    HW1  118   1.211   1.852   1.540
   35SOL    HW2  119   1.194   1.697   1.586
   36SOL     OW  120   0.317   0.251   1.801
   36SOL    HW1  121   0.388   0.322   1.807
   36SOL    HW2  122   0.229   0.290   1.829
   37SOL     OW  123   1.466   1.417   0.953
   37SOL    HW1  124   1.407   1.423   1.033
   37SOL    HW2  125   1.451   1.329   0.907
   38SOL     OW  126   1.667   1.714   0.572
   38SOL    HW1  127   1.626   1.691   0.484
   38SOL    HW2  128   1.649   1.640   0.637
   39SOL     OW  129   0.598   0.729   0.270
   39SOL    HW1  130   0.622   0.798   0.202
   39SOL    HW2  131   0.520   0.762   0.324
   40SOL     OW  132   1.281   0.345   0.944
   40SOL    HW1  133   1.195   0.295   0.931
   40SOL    HW2  134   1.343   0.291   1.000
   41SOL     OW  135   1.576   1.662   0.307
   41SOL    HW1  136   1.665   1.708   0.310
   41SOL    HW2  137   1.555   1.638   0.212
   42SOL     OW  138   0.807   0.605   1.465
   42SOL    HW1  139   0.760   0.602   1.554
   42SOL    HW2  140   0.756   0.550   1.399
   43SOL     OW  141   1.394   0.469   1.674
   43SOL    HW1  142   1.374   0.512   1.762
   43SOL    HW2  143   1.472   0.407   1.683
   44SOL     OW  144   0.973   0.890   1.572
   44SOL    HW1  145   1.019   0.806   1.543
   44SOL    HW2  146   0.917   0.924   1.497
   45SOL     OW  147   0.991   0.410   1.242
   45SOL    HW1  148   0.914   0.444   1.296
   45SOL    HW2  149   0.957   0.359   1.163
   46SOL     OW  150   1.041   0.701   0.429
   46SOL    HW1  151   1.067   0.697   0.525
   46SOL    HW2  152   0.956   0.650   0.415
   47SOL     OW  153   0.076   0.811   0.789
   47SOL    HW1  154   0.175   0.799   0.798
   47SOL    HW2  155   0.052   0.906   0.810
   48SOL     OW  156   0.130   1.821   1.571
   48SOL    HW1  157   0.120   1.806   1.670
   48SOL    HW2  158   0.044   1.857   1.535
   49SOL     OW  159   0.865   0.348   0.195
   49SOL    HW1  160   0.924   0.411   0.146
   49SOL    HW2  161   0.884   0.254   0.166
   50SOL     OW  162   1.719   0.585   1.831
   50SOL    HW1  163   1.693   0.674   1.795
   50SOL    HW2  164   1.717   0.517   1.758
   51SOL     OW  165   1.362   1.144   0.545
   51SOL    HW1  166   1.445   1.115   0.497
   51SOL    HW2  167   1.313   1.211   0.489
   52SOL     OW  168   0.550   0.196   0.885
   52SOL    HW1  169   0.545   0.191   0.985
   52SOL    HW2  170   0.552   0.292   0.856
   53SOL     OW  171   1.008   1.456   0.477
   53SOL    HW1  172   0.962   1.528   0.425
   53SOL    HW2  173   1.004   1.476   0.575
   54SOL     OW  174   0.351   1.801   0.853
   54SOL    HW1  175   0.401   1.715   0.859
   54SOL    HW2  176   0.416   1.878   0.850
   55SOL     OW  177   1.795   1.066   0.873
   55SOL    HW1  178   1.733   1.051   0.797
   55SOL    HW2  179   1.743   1.077   0.958
   56SOL     OW  180   1.227   1.550   1.506
   56SOL    HW1  181   1.233   1.473   1.570
   56SOL    HW2  182   1.175   1.524   1.426
   57SOL     OW  183   0.321   0.943   0.242
   57SOL    HW1  184   0.403   0.982   0.200
   57SOL    HW2  185   0.294   0.861   0.193
   58SOL     OW  186   1.458   0.735   0.728
   58SOL    HW1  187   1.453   0.670   0.803
   58SOL    HW2  188   1.538   0.794   0.741
   59SOL     OW  189   0.461   1.266   1.727
   59SOL    HW1  190   0.411   1.267   1.641
   59SOL    HW2  191   0.398   1.248   1.803
   60SOL     OW  192   1.111   1.776   0.237
   60SOL    HW1  193   1.051   1.714   0.287
   60SOL    HW2  194   1.142   1.732   0.152
   61SOL     OW  195   0.202   0.285   1.498
   61SOL    HW1  196   0.122   0.345   1.485
   61SOL    HW2  197   0.192   0.236   1.584
   62SOL     OW  198   1.632   1.377   0.081
   62SOL    HW1  199   1.600   1.471   0.071
   62SOL    HW2  200   1.556   1.314   0.069
   63SOL     OW  201   0.464   1.743   0.323
   63SOL    HW1  202   0.497   1.782   0.409
   63SOL    HW2  203   0.540   1.736   0.258
   64SOL     OW  204   1.400   0.107   0.426
   64SOL    HW1  205   1.376   0.070   0.336
   64SOL    HW2  206   1.499   0.123   0.430
   65SOL     OW  207   0.249   1.785   1.241
   65SOL    HW1  208   0.306   1.720   1.291
   65SOL    HW2  209   0.233   1.752   1.148
   66SOL     OW  210   0.940   1.698   0.904
   66SOL    HW1  211   1.020   1.641   0.925
   66SOL    HW2  212   0.891   1.658   0.827
   67SOL     OW  213   0.382   0.700   0.480
   67SOL    HW1  214   0.427   0.610   0.477
   67SOL    HW2  215   0.288   0.689   0.513
   68SOL     OW  216   1.547   0.222   1.729
   68SOL    HW1  217   1.542   0.259   1.821
   68SOL    HW2  218   1.475   0.153   1.717
   69SOL     OW  219   0.614   0.122   0.117
   69SOL    HW1  220   0.712   0.100   0.124
   69SOL    HW2  221   0.583   0.105   0.024
   70SOL     OW  222   0.781   0.264   1.749
   70SOL    HW1  223   0.848   0.203   1.792
   70SOL    HW2  224   0.708   0.283   1.814
   71SOL     OW  225   0.888   1.514   1.195
   71SOL    HW1  226   0.865   1.489   1.101
   71SOL    HW2  227   0.949   1.445   1.234
   72SOL     OW  228   1.351   0.590   1.433
   72SOL    HW1  229   1.379   0.547   1.518
   72SOL    HW2  230   1.376   0.686   1.434
   73SOL     OW  231   0.803   1.402   0.924
   73SOL    HW1  232   0.893   1.416   0.882
   73SOL    HW2  233   0.732   1.404   0.853
   74SOL     OW  234   0.922   0.503   0.899
   74SOL    HW1  235   0.897   0.494   0.803
   74SOL    HW2  236   0.970   0.421   0.930
   75SOL     OW  237   0.539   0.064   0.512
   75SOL    HW1  238   0.458   0.065   0.570
   75SOL    HW2  239   0.542   0.147   0.457
   76SOL     OW  240   1.434   1.188   0.041
   76SOL    HW1  241   1.466   1.112   0.098
   76SOL    HW2  242   1.342   1.215   0.071
   77SOL     OW  243   0.297   0.035   0.171
   77SOL    HW1  244   0.346   0.119   0.150
   77SOL    HW2  245   0.359  -0.030   0.216
   78SOL     OW  246   0.935   0.236   0.480
   78SOL    HW1  247   0.887   0.277   0.402
   78SOL    HW2  248   1.034   0.234   0.461
   79SOL     OW  249   1.076   0.683   1.464
   79SOL    HW1  250   0.996   0.622   1.467
   79SOL    HW2  251   1.157   0.630   1.440
   80SOL     OW  252   1.227   1.570   0.793
   80SOL    HW1  253   1.248   1.644   0.728
   80SOL    HW2  254   1.295   1.570   0.866
   81SOL     OW  255   0.459   1.152   0.741
   81SOL    HW1  256   0.388   1.125   0.806
   81SOL    HW2  257   0.433   1.124   0.648
   82SOL     OW  258   1.271   1.797   0.591
   82SOL    HW1  259   1.315   1.861   0.527
   82SOL    HW2  260   1.221   1.849   0.661
   83SOL     OW  261   1.032   0.549   0.016
   83SOL    HW1  262   0.991   0.631  -0.023
   83SOL    HW2  263   1.096   0.575   0.089
   84SOL     OW  264   0.078   0.556   1.386
   84SOL    HW1  265   0.170   0.555   1.345
   84SOL    HW2  266   0.072   0.630   1.453
   85SOL     OW  267   0.561   0.222   1.147
   85SOL    HW1  268   0.599   0.138   1.184
   85SOL    HW2  269   0.473   0.241   1.191
   86SOL     OW  270   0.866   0.454   0.642
   86SOL    HW1  271   0.834   0.526   0.580
   86SOL    HW2  272   0.890   0.373   0.589
   87SOL     OW  273   1.017   0.039   0.753
   87SOL    HW1  274   0.945   0.044   0.684
   87SOL    HW2  275   0.993  -0.030   0.822
   88SOL     OW  276   1.429   1.173   0.867
   88SOL    HW1  277   1.374   1.089   0.860
   88SOL    HW2  278   1.455   1.202   0.775
   89SOL     OW  279   1.466   0.590   0.992
   89SOL    HW1  280   1.436   0.495   0.999
   89SOL    HW2  281   1.539   0.606   1.058
   90SOL     OW  282   1.857   0.833   0.377
   90SOL    HW1  283   1.899   0.769   0.441
   90SOL    HW2  284   1.819   0.782   0.299
   91SOL     OW  285   0.488   1.385   0.174
   91SOL    HW1  286   0.401   1.370   0.221
   91SOL    HW2  287   0.471   1.411   0.079
   92SOL     OW  288   1.664   1.280   0.657
   92SOL    HW1  289   1.763   1.288   0.671
   92SOL    HW2  290   1.619   1.364   0.688
   93SOL     OW  291   1.390   0.575   0.078
   93SOL    HW1  292   1.336   0.554   0.159
   93SOL    HW2  293   1.481   0.534   0.087
   94SOL     OW  294   0.527   0.256   0.328
   94SOL    HW1  295   0.554   0.197   0.253
   94SOL    HW2  296   0.527   0.351   0.297
   95SOL     OW  297   1.754   1.223   1.588
   95SOL    HW1  298   1.845   1.184   1.575
   95SOL    HW2  299   1.762   1.319   1.612
   96SOL     OW  300   1.064   1.347   1.340
   96SOL    HW1  301   0.984   1.324   1.395
   96SOL    HW2  302   1.147   1.321   1.389
   97SOL     OW  303   1.592   1.629   1.625
   97SOL    HW1  304   1.619   1.663   1.535
   97SOL    HW2  305   1.671   1.591   1.671
   98SOL     OW  306   1.111   1.195   1.100
   98SOL    HW1  307   1.071   1.239   1.181
   98SOL    HW2  308   1.070   1.232   1.017
   99SOL     OW  309   1.638   1.099   1.079
   99SOL    HW1  310   1.643   1.180   1.138
   99SOL    HW2  311   1.552   1.101   1.028
  100SOL     OW  312   0.915   0.089   1.402
  100SOL    HW1  313   0.940   0.069   1.307
  100SOL    HW2  314   0.987   0.145   1.444
  101SOL     OW  315   0.980   1.116   1.719
  101SOL    HW1  316   0.881   1.122   1.729
  101SOL    HW2  317   1.003   1.036   1.663
  102SOL     OW  318   0.705   1.050   0.368
  102SOL    HW1  319   0.691   1.057   0.467
  102SOL    HW2  320   0.789   0.999   0.350
  103SOL     OW  321   0.410   0.813   1.251
  103SOL    HW1  322   0.496   0.825   1.301
  103SOL    HW2  323   0.368   0.726   1.278
  104SOL     OW  324   1.274   0.386   1.262
  104SOL    HW1  325   1.295   0.460   1.326
  104SOL    HW2  326   1.185   0.403   1.219
  105SOL     OW  327   0.064   1.564   1.331
  105SOL    HW1  328   0.018   1.646   1.297
  105SOL    HW2  329   0.162   1.583   1.340
  106SOL     OW  330   0.367   1.100   0.501
  106SOL    HW1  331   0.360   1.183   0.445
  106SOL    HW2  332   0.371   1.020   0.441
  107SOL     OW  333   0.566   0.537   0.865
  107SOL    HW1  334   0.578   0.603   0.791
  107SOL    HW2  335   0.612   0.571   0.948
  108SOL     OW  336   1.252   1.348   0.388
  108SOL    HW1  337   1.302   1.425   0.428
  108SOL    HW2  338   1.157   1.350   0.420
  109SOL     OW  339   1.272   1.445   1.142
  109SOL    HW1  340   1.319   1.458   1.229
  109SOL    HW2  341   1.206   1.371   1.151
  110SOL     OW  342   1.582   0.639   0.472
  110SOL    HW1  343   1.551   0.700   0.545
  110SOL    HW2  344   1.632   0.691   0.403
  111SOL     OW  345   0.354   1.510   1.329
  111SOL    HW1  346   0.333   1.466   1.242
  111SOL    HW2  347   0.451   1.536   1.332
  112SOL     OW  348   0.402   0.751   1.598
  112SOL    HW1  349   0.470   0.806   1.551
  112SOL    HW2  350   0.442   0.663   1.625
  113SOL     OW  351   1.587   0.779   1.670
  113SOL    HW1  352   1.495   0.817   1.665
  113SOL    HW2  353   1.647   0.826   1.605
  114SOL     OW  354   1.013   0.105   1.770
  114SOL    HW1  355   1.019   0.190   1.718
  114SOL    HW2  356   1.045   0.029   1.713
  115SOL     OW  357   0.504   0.050   1.740
  115SOL    HW1  358   0.462  -0.007   1.670
  115SOL    HW2  359   0.438   0.119   1.772
  116SOL     OW  360   0.573   0.870   1.029
  116SOL    HW1  361   0.617   0.959   1.020
  116SOL    HW2  362   0.510   0.870   1.106
  117SOL     OW  363   1.360   0.862   1.045
  117SOL    HW1  364   1.285   0.862   0.979
  117SOL    HW2  365   1.397   0.770   1.054
  118SOL     OW  366   1.209   0.525   0.275
  118SOL    HW1  367   1.222   0.441   0.329
  118SOL    HW2  368   1.180   0.599   0.335
  119SOL     OW  369   0.307   0.213   1.231
  119SOL    HW1  370   0.284   0.250   1.321
  119SOL    HW2  371   0.277   0.118   1.225
  120SOL     OW  372   0.037   1.310   1.282
  120SOL    HW1  373   0.090   1.261   1.350
  120SOL    HW2  374   0.059   1.408   1.287
  121SOL     OW  375   0.732   0.634   1.064
  121SOL    HW1  376   0.791   0.608   0.988
  121SOL    HW2  377   0.704   0.730   1.053
  122SOL     OW  378   1.728   0.935   1.854
  122SOL    HW1  379   1.682   0.928   1.765
  122SOL    HW2  380   1.666   0.979   1.920
  123SOL     OW  381   0.307   0.063   0.618
  123SOL    HW1  382   0.296   0.157   0.651
  123SOL    HW2  383   0.302   0.000   0.695
  124SOL     OW  384   1.622   0.367   0.374
  124SOL    HW1  385   1.624   0.291   0.438
  124SOL    HW2  386   1.574   0.444   0.414
  125SOL     OW  387   1.023   0.766   0.966
  125SOL    HW1  388   1.038   0.787   1.062
  125SOL    HW2  389   0.993   0.671   0.957
  126SOL     OW  390   0.980   1.573   1.700
  126SOL    HW1  391   0.960   1.617   1.612
  126SOL    HW2  392   1.019   1.482   1.684
  127SOL     OW  393   1.859   1.518   1.605
  127SOL    HW1  394   1.873   1.545   1.510
  127SOL    HW2  395   1.942   1.540   1.658
  128SOL     OW  396   0.350   0.898   1.804
  128SOL    HW1  397   0.426   0.942   1.852
  128SOL    HW2  398   0.385   0.851   1.722
  129SOL     OW  399   1.540   0.274   0.125
  129SOL    HW1  400   1.479   0.199   0.148
  129SOL    HW2  401   1.562   0.326   0.208
  130SOL     OW  402   1.303   0.838   0.042
  130SOL    HW1  403   1.337   0.745   0.057
  130SOL    HW2  404   1.321   0.865  -0.053
  131SOL     OW  405   1.068   1.333   0.849
  131SOL    HW1  406   1.075   1.249   0.794
  131SOL    HW2  407   1.130   1.402   0.813
  132SOL     OW  408   0.319   0.810   0.949
  132SOL    HW1  409   0.412   0.846   0.954
  132SOL    HW2  410   0.313   0.725   1.001
  133SOL     OW  411   0.339   0.509   1.006
  133SOL    HW1  412   0.287   0.426   0.989
  133SOL    HW2  413   0.416   0.514   0.942
  134SOL     OW  414   1.138   0.380   1.678
  134SOL    HW1  415   1.093   0.443   1.742
  134SOL    HW2  416   1.231   0.411   1.661
  135SOL     OW  417   1.160   0.207   1.477
  135SOL    HW1  418   1.160   0.271   1.554
  135SOL    HW2  419   1.188   0.255   1.394
  136SOL     OW  420   0.008   1.326   0.200
  136SOL    HW1  421  -0.085   1.347   0.169
  136SOL    HW2  422   0.018   1.227   0.213
  137SOL     OW  423   0.088   1.801   0.927
  137SOL    HW1  424   0.046   1.715   0.900
  137SOL    HW2  425   0.182   1.804   0.893
  138SOL     OW  426   0.504   1.568   0.910
  138SOL    HW1  427   0.570   1.642   0.919
  138SOL    HW2  428   0.548   1.489   0.868
  139SOL     OW  429   1.002   0.796   1.238
  139SOL    HW1  430   1.043   0.764   1.324
  139SOL    HW2  431   0.906   0.769   1.235
  140SOL     OW  432   0.040   0.544   1.114
  140SOL    HW1  433   0.125   0.511   1.073
  140SOL    HW2  434   0.053   0.559   1.212
  141SOL     OW  435   0.189   0.520   1.722
  141SOL    HW1  436   0.248   0.480   1.652
  141SOL    HW2  437   0.131   0.591   1.681
  142SOL     OW  438   1.369   0.950   1.660
  142SOL    HW1  439   1.408   1.039   1.680
  142SOL    HW2  440   1.379   0.930   1.563
  143SOL     OW  441   0.815   0.572   0.325
  143SOL    HW1  442   0.822   0.483   0.279
  143SOL    HW2  443   0.721   0.606   0.317
  144SOL     OW  444   1.657   0.604   1.206
  144SOL    HW1  445   1.619   0.535   1.268
  144SOL    HW2  446   1.739   0.568   1.162
  145SOL     OW  447   0.252   1.564   1.744
  145SOL    HW1  448   0.222   1.621   1.820
  145SOL    HW2  449   0.245   1.467   1.770
  146SOL     OW  450   0.671   0.464   1.269
  146SOL    HW1  451   0.637   0.375   1.239
  146SOL    HW2  452   0.697   0.518   1.189
  147SOL     OW  453   0.930   1.678   1.465
  147SOL    HW1  454   0.906   1.660   1.370
  147SOL    HW2  455   0.960   1.772   1.475
  148SOL     OW  456   0.473   0.500   0.191
  148SOL    HW1  457   0.534   0.580   0.195
  148SOL    HW2  458   0.378   0.531   0.198
  149SOL     OW  459   0.159   1.137   1.466
  149SOL    HW1  460   0.181   1.076   1.542
  149SOL    HW2  461   0.169   1.088   1.380
  150SOL     OW  462   1.347   1.059   1.234
  150SOL    HW1  463   1.371   0.996   1.160
  150SOL    HW2  464   1.257   1.099   1.216
  151SOL     OW  465   1.302   0.855   0.309
  151SOL    HW1  466   1.216   0.824   0.351
  151SOL    HW2  467   1.298   0.841   0.210
  152SOL     OW  468   1.759   1.747   1.154
  152SOL    HW1  469   1.820   1.777   1.081
  152SOL    HW2  470   1.721   1.658   1.132
  153SOL     OW  471   1.252   1.731   1.128
  153SOL    HW1  472   1.336   1.736   1.074
  153SOL    HW2  473   1.229   1.635   1.146
  154SOL     OW  474   0.083   1.258   1.022
  154SOL    HW1  475   0.078   1.257   1.122
  154SOL    HW2  476   0.000   1.217   0.984
  155SOL     OW  477   0.688   1.662   1.716
  155SOL    HW1  478   0.632   1.743   1.725
  155SOL    HW2  479   0.740   1.666   1.630
  156SOL     OW  480   0.903   0.086   0.133
  156SOL    HW1  481   0.954   0.087   0.047
  156SOL    HW2  482   0.959   0.044   0.204
  157SOL     OW  483   1.726   0.135   0.523
  157SOL    HW1  484   1.799   0.118   0.456
  157SOL    HW2  485   1.695   0.048   0.561
  158SOL     OW  486   1.388   1.573   0.477
  158SOL    HW1  487   1.455   1.585   0.403
  158SOL    HW2  488   1.348   1.662   0.500
  159SOL     OW  489   0.130   1.794   1.851
  159SOL    HW1  490   0.089   1.720   1.904
  159SOL    HW2  491   0.194   1.845   1.909
  160SOL     OW  492   1.280   0.927   0.672
  160SOL    HW1  493   1.340   0.846   0.674
  160SOL    HW2  494   1.320   0.996   0.612
  161SOL     OW  495   0.830   1.273   1.422
  161SOL    HW1  496   0.825   1.306   1.517
  161SOL    HW2  497   0.744   1.292   1.376
  162SOL     OW  498   0.672   1.616   0.154
  162SOL    HW1  499   0.681   1.626   0.055
  162SOL    HW2  500   0.632   1.527   0.175
  163SOL     OW  501   1.650   1.720   1.394
  163SOL    HW1  502   1.703   1.730   1.310
  163SOL    HW2  503   1.623   1.810   1.428
  164SOL     OW  504   1.841   0.175   0.963
  164SOL    HW1  505   1.880   0.090   0.927
  164SOL    HW2  506   1.743   0.177   0.944
  165SOL     OW  507   0.263   0.326   0.720
  165SOL    HW1  508   0.184   0.377   0.686
  165SOL    HW2  509   0.254   0.311   0.818
  166SOL     OW  510   1.194   1.612   0.031
  166SOL    HW1  511   1.200   1.519   0.068
  166SOL    HW2  512   1.135   1.612  -0.049
  167SOL     OW  513   0.822   1.002   1.372
  167SOL    HW1  514   0.862   1.001   1.280
  167SOL    HW2  515   0.832   1.094   1.412
  168SOL     OW  516   0.916   0.910   0.291
  168SOL    HW1  517   0.979   0.948   0.223
  168SOL    HW2  518   0.956   0.827   0.330
  169SOL     OW  519   1.504   1.607   0.044
  169SOL    HW1  520   1.412   1.644   0.051
  169SOL    HW2  521   1.542   1.627  -0.046
  170SOL     OW  522   0.372   1.288   1.490
  170SOL    HW1  523   0.359   1.381   1.456
  170SOL    HW2  524   0.288   1.236   1.477
  171SOL     OW  525   1.614   1.292   1.289
  171SOL    HW1  526   1.674   1.295   1.369
  171SOL    HW2  527   1.539   1.356   1.302
  172SOL     OW  528   1.039   1.098   0.696
  172SOL    HW1  529   0.969   1.051   0.750
  172SOL    HW2  530   1.098   1.030   0.653
  173SOL     OW  531   1.014   0.236   0.971
  173SOL    HW1  532   1.006   0.200   0.878
  173SOL    HW2  533   1.012   0.160   1.036
  174SOL     OW  534   0.590   1.487   0.491
  174SOL    HW1  535   0.632   1.429   0.421
  174SOL    HW2  536   0.546   1.566   0.447
  175SOL     OW  537   1.709   0.385   1.381
  175SOL    HW1  538   1.782   0.454   1.385
  175SOL    HW2  539   1.737   0.310   1.322
  176SOL     OW  540   0.255   1.348   0.290
  176SOL    HW1  541   0.159   1.349   0.263
  176SOL    HW2  542   0.267   1.401   0.374
  177SOL     OW  543   0.105   1.013   1.726
  177SOL    HW1  544   0.028   0.980   1.780
  177SOL    HW2  545   0.190   0.983   1.768
  178SOL     OW  546   0.672   0.203   1.489
  178SOL    HW1  547   0.762   0.187   1.449
  178SOL    HW2  548   0.680   0.208   1.588
  179SOL     OW  549   0.075   0.345   0.033
  179SOL    HW1  550  -0.017   0.317   0.004
  179SOL    HW2  551   0.106   0.422  -0.023
  180SOL     OW  552   1.440   0.856   1.398
  180SOL    HW1  553   1.383   0.908   1.335
  180SOL    HW2  554   1.536   0.868   1.374
  181SOL     OW  555   0.072   0.166   0.318
  181SOL    HW1  556   0.055   0.249   0.264
  181SOL    HW2  557   0.162   0.129   0.296
  182SOL     OW  558   1.183   1.335   0.119
  182SOL    HW1  559   1.084   1.324   0.121
  182SOL    HW2  560   1.217   1.350   0.212
  183SOL     OW  561   0.613   0.842   1.431
  183SOL    HW1  562   0.669   0.923   1.414
  183SOL    HW2  563   0.672   0.762   1.434
  184SOL     OW  564   1.493   1.767   0.959
  184SOL    HW1  565   1.526   1.831   0.890
  184SOL    HW2  566   1.559   1.761   1.034
  185SOL     OW  567   0.716   0.565   1.708
  185SOL    HW1  568   0.735   0.630   1.782
  185SOL    HW2  569   0.776   0.485   1.717
  186SOL     OW  570   1.450   1.220   1.633
  186SOL    HW1  571   1.441   1.210   1.732
  186SOL    HW2  572   1.546   1.213   1.607
  187SOL     OW  573   0.390   1.741   1.560
  187SOL    HW1  574   0.299   1.782   1.558
  187SOL    HW2  575   0.383   1.647   1.592
  188SOL     OW  576   1.674   0.883   1.254
  188SOL    HW1  577   1.647   0.794   1.217
  188SOL    HW2  578   1.675   0.951   1.181
  189SOL     OW  579   1.225   0.325   0.449
  189SOL    HW1  580   1.290   0.251   0.438
  189SOL    HW2  581   1.245   0.375   0.533
  190SOL     OW  582   0.594   0.745   0.652
  190SOL    HW1  583   0.644   0.830   0.633
  190SOL    HW2  584   0.506   0.747   0.604
  191SOL     OW  585   1.777   0.342   1.642
  191SOL    HW1  586   1.760   0.373   1.548
  191SOL    HW2  587   1.693   0.305   1.680
  192SOL     OW  588   1.730   0.934   1.517
  192SOL    HW1  589   1.768   1.025   1.532
  192SOL    HW2  590   1.722   0.917   1.418
  193SOL     OW  591   0.859   1.374   0.016
  193SOL    HW1  592   0.813   1.389   0.104
  193SOL    HW2  593   0.903   1.459  -0.014
  194SOL     OW  594   0.661   1.790   0.953
  194SOL    HW1  595   0.615   1.878   0.940
  194SOL    HW2  596   0.760   1.802   0.946
  195SOL     OW  597   0.859   0.956   0.861
  195SOL    HW1  598   0.913   0.887   0.909
  195SOL    HW2  599   0.827   1.025   0.927
  196SOL     OW  600   1.083   0.984   0.087
  196SOL    HW1  601   1.060   1.037   0.005
  196SOL    HW2  602   1.164   0.928   0.068
  197SOL     OW  603   1.861   1.569   0.851
  197SOL    HW1  604   1.790   1.557   0.781
  197SOL    HW2  605   1.862   1.490   0.911
  198SOL     OW  606   0.221   1.314   1.844
  198SOL    HW1  607   0.156   1.241   1.823
  198SOL    HW2  608   0.225   1.328   1.942
  199SOL     OW  609   0.079   1.240   0.653
  199SOL    HW1  610   0.078   1.193   0.741
  199SOL    HW2  611   0.161   1.212   0.602
  200SOL     OW  612   0.672   1.391   1.624
  200SOL    HW1  613   0.594   1.341   1.662
  200SOL    HW2  614   0.669   1.486   1.655
  201SOL     OW  615   1.824   0.192   1.227
  201SOL    HW1  616   1.820   0.102   1.271
  201SOL    HW2  617   1.827   0.181   1.128
  202SOL     OW  618   0.428   0.424   0.520
  202SOL    HW1  619   0.458   0.352   0.458
  202SOL    HW2  620   0.389   0.384   0.603
  203SOL     OW  621   1.705   1.487   1.104
  203SOL    HW1  622   1.612   1.462   1.077
  203SOL    HW2  623   1.731   1.437   1.186
  204SOL     OW  624   0.317   0.547   1.280
  204SOL    HW1  625   0.355   0.488   1.352
  204SOL    HW2  626   0.357   0.521   1.192
  205SOL     OW  627   0.812   1.586   0.687
  205SOL    HW1  628   0.844   1.596   0.593
  205SOL    HW2  629   0.733   1.524   0.689
  206SOL     OW  630   1.424   0.214   1.112
  206SOL    HW1  631   1.476   0.149   1.167
  206SOL    HW2  632   1.375   0.277   1.173
  207SOL     OW  633   1.001   0.034   1.154
  207SOL    HW1  634   0.938  -0.038   1.123
  207SOL    HW2  635   1.094  -0.002   1.154
  208SOL     OW  636   0.770   1.330   0.301
  208SOL    HW1  637   0.724   1.243   0.318
  208SOL    HW2  638   0.861   1.327   0.342
  209SOL     OW  639   0.618   1.567   1.284
  209SOL    HW1  640   0.613   1.649   1.341
  209SOL    HW2  641   0.707   1.564   1.239
  210SOL     OW  642   1.352   0.052   0.168
  210SOL    HW1  643   1.387   0.011   0.084
  210SOL    HW2  644   1.262   0.014   0.188
  211SOL     OW  645   1.300   0.453   0.691
  211SOL    HW1  646   1.241   0.533   0.695
  211SOL    HW2  647   1.315   0.418   0.784
  212SOL     OW  648   1.593   0.221   0.882
  212SOL    HW1  649   1.509   0.220   0.936
  212SOL    HW2  650   1.595   0.304   0.826
  213SOL     OW  651   0.039   1.077   0.300
  213SOL    HW1  652   0.138   1.066   0.291
  213SOL    HW2  653  -0.001   0.991   0.332
  214SOL     OW  654   0.875   1.646   0.337
  214SOL    HW1  655   0.798   1.611   0.283
  214SOL    HW2  656   0.843   1.717   0.399
  215SOL     OW  657   0.230   0.628   1.975
  215SOL    HW1  658   0.137   0.626   2.012
  215SOL    HW2  659   0.231   0.589   1.883
  216SOL     OW  660   0.225   0.275   2.858
  216SOL    HW1  661   0.260   0.258   2.950
  216SOL    HW2  662   0.137   0.230   2.846
  217SOL     OW  663   0.019   0.368   2.509
  217SOL    HW1  664  -0.063   0.411   2.548
  217SOL    HW2  665  -0.009   0.295   2.446
  218SOL     OW  666   0.569   1.275   3.027
  218SOL    HW1  667   0.476   1.268   2.990
  218SOL    HW2  668   0.580   1.364   3.071
  219SOL     OW  669   1.555   1.511   2.565
  219SOL    HW1  670   1.498   1.495   2.646
  219SOL    HW2  671   1.496   1.521   2.485
  220SOL     OW  672   1.135   0.703   2.579
  220SOL    HW1  673   1.192   0.781   2.554
  220SOL    HW2  674   1.075   0.729   2.655
  221SOL     OW  675   1.755   0.607   2.093
  221SOL    HW1  676   1.743   0.594   1.994
  221SOL    HW2  677   1.725   0.526   2.142
  222SOL     OW  678   0.768   1.144   2.885
  222SOL    HW1  679   0.690   1.161   2.945
  222SOL    HW2  680   0.802   1.231   2.849
  223SOL     OW  681   0.850   0.798   3.685
  223SOL    HW1  682   0.846   0.874   3.750
  223SOL    HW2  683   0.872   0.834   3.594
  224SOL     OW  684   0.685   1.012   2.527
  224SOL    HW1  685   0.754   0.996   2.597
  224SOL    HW2  686   0.612   1.069   2.565
  225SOL     OW  687   0.686   1.161   3.665
  225SOL    HW1  688   0.746   1.240   3.679
  225SOL    HW2  689   0.600   1.192   3.624
  226SOL     OW  690   0.335   1.435   2.923
  226SOL    HW1  691   0.257   1.404   2.870
  226SOL    HW2  692   0.393   1.493   2.866
  227SOL     OW  693   1.460   1.505   3.201
  227SOL    HW1  694   1.484   1.599   3.227
  227SOL    HW2  695   1.444   1.451   3.283
  228SOL     OW  696   0.438   0.392   3.361
  228SOL    HW1  697   0.520   0.336   3.370
  228SOL    HW2  698   0.357   0.334   3.365
  229SOL     OW  699   1.603   0.447   2.599
  229SOL    HW1  700   1.529   0.493   2.549
  229SOL    HW2  701   1.654   0.515   2.652
  230SOL     OW  702   0.231   1.713   2.345
  230SOL    HW1  703   0.265   1.790   2.399
  230SOL    HW2  704   0.275   1.713   2.255
  231SOL     OW  705   1.127   1.341   3.552
  231SOL    HW1  706   1.174   1.341   3.640
  231SOL    HW2  707   1.079   1.254   3.541
  232SOL     OW  708   0.230   1.434   2.400
  232SOL    HW1  709   0.204   1.530   2.400
  232SOL    HW2  710   0.159   1.380   2.445
  233SOL     OW  711   0.240   1.091   2.748
  233SOL    HW1  712   0.254   1.007   2.800
  233SOL    HW2  713   0.185   1.155   2.803
  234SOL     OW  714   0.620   1.786   3.301
  234SOL    HW1  715   0.528   1.769   3.336
  234SOL    HW2  716   0.648   1.878   3.327
  235SOL     OW  717   0.606   0.964   1.985
  235SOL    HW1  718   0.613   1.048   1.931
  235SOL    HW2  719   0.652   0.977   2.073
  236SOL     OW  720   1.594   0.114   3.342
  236SOL    HW1  721   1.576   0.181   3.270
  236SOL    HW2  722   1.591   0.160   3.431
  237SOL     OW  723   0.122   0.643   2.425
  237SOL    HW1  724   0.077   0.555   2.442
  237SOL    HW2  725   0.121   0.697   2.509
  238SOL     OW  726   1.842   1.767   2.221
  238SOL    HW1  727   1.896   1.738   2.301
  238SOL    HW2  728   1.872   1.857   2.192
  239SOL     OW  729   0.027   1.596   1.979
  239SOL    HW1  730   0.008   1.500   2.000
  239SOL    HW2  731  -0.006   1.654   2.054
  240SOL     OW  732   1.689   0.922   2.474
  240SOL    HW1  733   1.784   0.893   2.482
  240SOL    HW2  734   1.681   0.987   2.399
  241SOL     OW  735   1.641   1.108   2.294
  241SOL    HW1  736   1.727   1.110   2.242
  241SOL    HW2  737   1.655   1.155   2.382
  242SOL     OW  738   0.113   0.737   3.459
  242SOL    HW1  739   0.201   0.724   3.504
  242SOL    HW2  740   0.100   0.834   3.437
  243SOL     OW  741   0.613   1.365   2.588
  243SOL    HW1  742   0.564   1.278   2.597
  243SOL    HW2  743   0.590   1.408   2.501
  244SOL     OW  744   1.293   1.228   3.285
  244SOL    HW1  745   1.330   1.155   3.227
  244SOL    HW2  746   1.345   1.233   3.370
  245SOL     OW  747   0.809   0.004   2.364
  245SOL    HW1  748   0.849   0.095   2.355
  245SOL    HW2  749   0.709   0.012   2.370
  246SOL     OW  750   0.197   0.976   3.126
  246SOL    HW1  751   0.286   0.931   3.112
  246SOL    HW2  752   0.124   0.911   3.107
  247SOL     OW  753   1.525   0.999   2.052
  247SOL    HW1  754   1.462   0.923   2.065
  247SOL    HW2  755   1.573   1.017   2.138
  248SOL     OW  756   1.187   1.792   3.478
  248SOL    HW1  757   1.211   1.852   3.402
  248SOL    HW2  758   1.194   1.697   3.448
  249SOL     OW  759   0.317   0.251   3.663
  249SOL    HW1  760   0.388   0.322   3.669
  249SOL    HW2  761   0.229   0.290   3.691
  250SOL     OW  762   1.466   1.417   2.815
  250SOL    HW1  763   1.407   1.423   2.895
  250SOL    HW2  764   1.451   1.329   2.769
  251SOL     OW  765   1.667   1.714   2.434
  251SOL    HW1  766   1.626   1.691   2.346
  251SOL    HW2  767   1.649   1.640   2.499
  252SOL     OW  768   0.598   0.729   2.132
  252SOL    HW1  769   0.622   0.798   2.064
  252SOL    HW2  770   0.520   0.762   2.186
  253SOL     OW  771   1.281   0.345   2.806
  253SOL    HW1  772   1.195   0.295   2.793
  253SOL    HW2  773   1.343   0.291   2.862
  254SOL     OW  774   1.576   1.662   2.169
  254SOL    HW1  775   1.665   1.708   2.172
  254SOL    HW2  776   1.555   1.638   2.074
  255SOL     OW  777   0.807   0.605   3.327
  255SOL    HW1  778   0.760   0.602   3.416
  255SOL    HW2  779   0.756   0.550   3.261
  256SOL     OW  780   1.394   0.469   3.536
  256SOL    HW1  781   1.374   0.512   3.624
  256SOL    HW2  782   1.472   0.407   3.545
  257SOL     OW  783   0.973   0.890   3.434
  257SOL    HW1  784   1.019   0.806   3.405
  257SOL    HW2  785   0.917   0.924   3.359
  258SOL     OW  786   0.991   0.410   3.104
  258SOL    HW1  787   0.914   0.444   3.158
  258SOL    HW2  788   0.957   0.359   3.025
  259SOL     OW  789   1.041   0.701   2.291
  259SOL    HW1  790   1.067   0.697   2.387
  259SOL    HW2  791   0.956   0.650   2.277
  260SOL     OW  792   0.076   0.811   2.651
  260SOL    HW1  793   0.175   0.799   2.660
  260SOL    HW2  794   0.052   0.906   2.672
  261SOL     OW  795   0.130   1.821   3.433
  261SOL    HW1  796   0.120   1.806   3.532
  261SOL    HW2  797   0.044   1.857   3.397
  262SOL     OW  798   0.865   0.348   2.057
  262SOL    HW1  799   0.924   0.411   2.008
  262SOL    HW2  800   0.884   0.254   2.028
  263SOL     OW  801   1.719   0.585   3.693
  263SOL    HW1  802   1.693   0.674   3.657
  263SOL    HW2  803   1.717   0.517   3.620
  264SOL     OW  804   1.362   1.144   2.407
  264SOL    HW1  805   1.445   1.115   2.359
  264SOL    HW2  806   1.313   1.211   2.351
  265SOL     OW  807   0.550   0.196   2.747
  265SOL    HW1  808   0.545   0.191   2.847
  265SOL    HW2  809   0.552   0.292   2.718
  266SOL     OW  810   1.008   1.456   2.339
  266SOL    HW1  811   0.962   1.528   2.287
  266SOL    HW2  812   1.004   1.476   2.437
  267SOL     OW  813   0.351   1.801   2.715
  267SOL    HW1  814   0.401   1.715   2.721
  267SOL    HW2  815   0.416   1.878   2.712
  268SOL     OW  816   1.795   1.066   2.735
  268SOL    HW1  817   1.733   1.051   2.659
  268SOL    HW2  818   1.743   1.077   2.820
  269SOL     OW  819   1.227   1.550   3.368
  269SOL    HW1  820   1.233   1.473   3.432
  269SOL    HW2  821   1.175   1.524   3.288
  270SOL     OW  822   0.321   0.943   2.104
  270SOL    HW1  823   0.403   0.982   2.062
  270SOL    HW2  824   0.294   0.861   2.055
  271SOL     OW  825   1.458   0.735   2.590
  271SOL    HW1  826   1.453   0.670   2.665
  271SOL    HW2  827   1.538   0.794   2.603
  272SOL     OW  828   0.461   1.266   3.589
  272SOL    HW1  829   0.411   1.267   3.503
  272SOL    HW2  830   0.398   1.248   3.665
  273SOL     OW  831   1.111   1.776   2.099
  273SOL    HW1  832   1.051   1.714   2.149
  273SOL    HW2  833   1.142   1.732   2.014
  274SOL     OW  834   0.202   0.285   3.360
  274SOL    HW1  835   0.122   0.345   3.347
  274SOL    HW2  836   0.192   0.236   3.446
  275SOL     OW  837   1.632   1.377   1.943
  275SOL    HW1  838   1.600   1.471   1.933
  275SOL    HW2  839   1.556   1.314   1.931
  276SOL     OW  840   0.464   1.743   2.185
  276SOL    HW1  841   0.497   1.782   2.271
  276SOL    HW2  842   0.540   1.736   2.120
  277SOL     OW  843   1.400   0.107   2.288
  277SOL    HW1  844   1.376   0.070   2.198
  277SOL    HW2  845   1.499   0.123   2.292
  278SOL     OW  846   0.249   1.785   3.103
  278SOL    HW1  847   0.306   1.720   3.153
  278SOL    HW2  848   0.233   1.752   3.010
  279SOL     OW  849   0.940   1.698   2.766
  279SOL    HW1  850   1.020   1.641   2.787
  279SOL    HW2  851   0.891   1.658   2.689
  280SOL     OW  852   0.382   0.700   2.342
  280SOL    HW1  853   0.427   0.610   2.339
  280SOL    HW2  854   0.288   0.689   2.375
  281SOL     OW  855   1.547   0.222   3.591
  281SOL    HW1  856   1.542   0.259   3.683
  281SOL    HW2  857   1.475   0.153   3.579
  282SOL     OW  858   0.614   0.122   1.979
  282SOL    HW1  859   0.712   0.100   1.986
  282SOL    HW2  860   0.583   0.105   1.886
  283SOL     OW  861   0.781   0.264   3.611
  283SOL    HW1  862   0.848   0.203   3.654
  283SOL    HW2  863   0.708   0.283   3.676
  284SOL     OW  864   0.888   1.514   3.057
  284SOL    HW1  865   0.865   1.489   2.963
  284SOL    HW2  866   0.949   1.445   3.096
  285SOL     OW  867   1.351   0.590   3.295
  285SOL    HW1  868   1.379   0.547   3.380
  285SOL    HW2  869   1.376   0.686   3.296
  286SOL     OW  870   0.803   1.402   2.786
  286SOL    HW1  871   0.893   1.416   2.744
  286SOL    HW2  872   0.732   1.404   2.715
  287SOL     OW  873   0.922   0.503   2.761
  287SOL    HW1  874   0.897   0.494   2.665
  287SOL    HW2  875   0.970   0.421   2.792
  288SOL     OW  876   0.539   0.064   2.374
  288SOL    HW1  877   0.458   0.065   2.432
  288SOL    HW2  878   0.542   0.147   2.319
  289SOL     OW  879   1.434   1.188   1.903
  289SOL    HW1  880   1.466   1.112   1.960
  289SOL    HW2  881   1.342   1.215   1.933
  290SOL     OW  882   0.297   0.035   2.033
  290SOL    HW1  883   0.346   0.119   2.012
  290SOL    HW2  884   0.359  -0.030   2.078
  291SOL     OW  885   0.935   0.236   2.342
  291SOL    HW1  886   0.887   0.277   2.264
  291SOL    HW2  887   1.034   0.234   2.323
  292SOL     OW  888   1.076   0.683   3.326
  292SOL    HW1  889   0.996   0.622   3.329
  292SOL    HW2  890   1.157   0.630   3.302
  293SOL     OW  891   1.227   1.570   2.655
  293SOL    HW1  892   1.248   1.644   2.590
  293SOL    HW2  893   1.295   1.570   2.728
  294SOL     OW  894   0.459   1.152   2.603
  294SOL    HW1  895   0.388   1.125   2.668
  294SOL    HW2  896   0.433   1.124   2.510
  295SOL     OW  897   1.271   1.797   2.453
  295SOL    HW1  898   1.315   1.861   2.389
  295SOL    HW2  899   1.221   1.849   2.523
  296SOL     OW  900   1.032   0.549   1.878
  296SOL    HW1  901   0.991   0.631   1.839
  296SOL    HW2  902   1.096   0.575   1.951
  297SOL     OW  903   0.078   0.556   3.248
  297SOL    HW1  904   0.170   0.555   3.207
  297SOL    HW2  905   0.072   0.630   3.315
  298SOL     OW  906   0.561   0.222   3.009
  298SOL    HW1  907   0.599   0.138   3.046
  298SOL    HW2  908   0.473   0.241   3.053
  299SOL     OW  909   0.866   0.454   2.504
  299SOL    HW1  910   0.834   0.526   2.442
  299SOL    HW2  911   0.890   0.373   2.451
  300SOL     OW  912   1.017   0.039   2.615
  300SOL    HW1  913   0.945   0.044   2.546
  300SOL    HW2  914   0.993  -0.030   2.684
  301SOL     OW  915   1.429   1.173   2.729
  301SOL    HW1  916   1.374   1.089   2.722
  301SOL    HW2  917   1.455   1.202   2.637
  302SOL     OW  918   1.466   0.590   2.854
  302SOL    HW1  919   1.436   0.495   2.861
  302SOL    HW2  920   1.539   0.606   2.920
  303SOL     OW  921   1.857   0.833   2.239
  303SOL    HW1  922   1.899   0.769   2.303
  303SOL    HW2  923   1.819   0.782   2.161
  304SOL     OW  924   0.488   1.385   2.036
  304SOL    HW1  925   0.401   1.370   2.083
  304SOL    HW2  926   0.471   1.411   1.941
  305SOL     OW  927   1.664   1.280   2.519
  305SOL    HW1  928   1.763   1.288   2.533
  305SOL    HW2  929   1.619   1.364   2.550
  306SOL     OW  930   1.390   0.575   1.940
  306SOL    HW1  931   1.336   0.554   2.021
  306SOL    HW2  932   1.481   0.534   1.949
  307SOL     OW  933   0.527   0.256   2.190
  307SOL    HW1  934   0.554   0.197   2.115
  307SOL    HW2  935   0.527   0.351   2.159
  308SOL     OW  936   1.754   1.223   3.450
  308SOL    HW1  937   1.845   1.184   3.437
  308SOL    HW2  938   1.762   1.319   3.474
  309SOL     OW  939   1.064   1.347   3.202
  309SOL    HW1  940   0.984   1.324   3.257
  309SOL    HW2  941   1.147   1.321   3.251
  310SOL     OW  942   1.592   1.629   3.487
  310SOL    HW1  943   1.619   1.663   3.397
  310SOL    HW2  944   1.671   1.591   3.533
  311SOL     OW  945   1.111   1.195   2.962
  311SOL    HW1  946   1.071   1.239   3.043
  311SOL    HW2  947   1.070   1.232   2.879
  312SOL     OW  948   1.638   1.099   2.941
  312SOL    HW1  949   1.643   1.180   3.000
  312SOL    HW2  950   1.552   1.101   2.890
  313SOL     OW  951   0.915   0.089   3.264
  313SOL    HW1  952   0.940   0.069   3.169
  313SOL    HW2  953   0.987   0.145   3.306
  314SOL     OW  954   0.980   1.116   3.581
  314SOL    HW1  955   0.881   1.122   3.591
  314SOL    HW2  956   1.003   1.036   3.525
  315SOL     OW  957   0.705   1.050   2.230
  315SOL    HW1  958   0.691   1.057   2.329
  315SOL    HW2  959   0.789   0.999   2.212
  316SOL     OW  960   0.410   0.813   3.113
  316SOL    HW1  961   0.496   0.825   3.163
  316SOL    HW2  962   0.368   0.726   3.140
  317SOL     OW  963   1.274   0.386   3.124
  317SOL    HW1  964   1.295   0.460   3.188
  317SOL    HW2  965   1.185   0.403   3.081
  318SOL     OW  966   0.064   1.564   3.193
  318SOL    HW1  967   0.018   1.646   3.159
  318SOL    HW2  968   0.162   1.583   3.202
  319SOL     OW  969   0.367   1.100   2.363
  319SOL    HW1  970   0.360   1.183   2.307
  319SOL    HW2  971   0.371   1.020   2.303
  320SOL     OW  972   0.566   0.537   2.727
  320SOL    HW1  973   0.578   0.603   2.653
  320SOL    HW2  974   0.612   0.571   2.810
  321SOL     OW  975   1.252   1.348   2.250
  321SOL    HW1  976   1.302   1.425   2.290
  321SOL    HW2  977   1.157   1.350   2.282
  322SOL     OW  978   1.272   1.445   3.004
  322SOL    HW1  979   1.319   1.458   3.091
  322SOL    HW2  980   1.206   1.371   3.013
  323SOL     OW  981   1.582   0.639   2.334
  323SOL    HW1  982   1.551   0.700   2.407
  323SOL    HW2  983   1.632   0.691   2.265
  324SOL     OW  984   0.354   1.510   3.191
  324SOL    HW1  985   0.333   1.466   3.104
  324SOL    HW2  986   0.451   1.536   3.194
  325SOL     OW  987   0.402   0.751   3.460
  325SOL    HW1  988   0.470   0.806   3.413
  325SOL    HW2  989   0.442   0.663   3.487
  326SOL     OW  990   1.587   0.779   3.532
  326SOL    HW1  991   1.495   0.817   3.527
  326SOL    HW2  992   1.647   0.826   3.467
  327SOL     OW  993   1.013   0.105   3.632
  327SOL    HW1  994   1.019   0.190   3.580
  327SOL    HW2  995   1.045   0.029   3.575
  328SOL     OW  996   0.504   0.050   3.602
  328SOL    HW1  997   0.462  -0.007   3.532
  328SOL    HW2  998   0.438   0.119   3.634
  329SOL     OW  999   0.573   0.870   2.891
  329SOL    HW1 1000   0.617   0.959   2.882
  329SOL    HW2 1001   0.510   0.870   2.968
  330SOL     OW 1002   1.360   0.862   2.907
  330SOL    HW1 1003   1.285   0.862   2.841
  330SOL    HW2 1004   1.397   0.770   2.916
  331SOL     OW 1005   1.209   0.525   2.137
  331SOL    HW1 1006   1.222   0.441   2.191
  331SOL    HW2 1007   1.180   0.599   2.197
  332SOL     OW 1008   0.307   0.213   3.093
  332SOL    HW1 1009   0.284   0.250   3.183
  332SOL    HW2 1010   0.277   0.118   3.087
  333SOL     OW 1011   0.037   1.310   3.144
  333SOL    HW1 1012   0.090   1.261   3.212
  333SOL    HW2 1013   0.059   1.408   3.149
  334SOL     OW 1014   0.732   0.634   2.926
  334SOL    HW1 1015   0.791   0.608   2.850
  334SOL    HW2 1016   0.704   0.730   2.915
  335SOL     OW 1017   1.728   0.935   3.716
  335SOL    HW1 1018   1.682   0.928   3.627
  335SOL    HW2 1019   1.666   0.979   3.782
  336SOL     OW 1020   0.307   0.063   2.480
  336SOL    HW1 1021   0.296   0.157   2.513
  336SOL    HW2 1022   0.302   0.000   2.557
  337SOL     OW 1023   1.622   0.367   2.236
  337SOL    HW1 1024   1.624   0.291   2.300
  337SOL    HW2 1025   1.574   0.444   2.276
  338SOL     OW 1026   1.023   0.766   2.828
  338SOL    HW1 1027   1.038   0.787   2.924
  338SOL    HW2 1028   0.993   0.671   2.819
  339SOL     OW 1029   0.980   1.573   3.562
  339SOL    HW1 1030   0.960   1.617   3.474
  339SOL    HW2 1031   1.019   1.482   3.546
  340SOL     OW 1032   1.859   1.518   3.467
  340SOL    HW1 1033   1.873   1.545   3.372
  340SOL    HW2 1034   1.942   1.540   3.520
  341SOL     OW 1035   0.350   0.898   3.666
  341SOL    HW1 1036   0.426   0.942   3.714
  341SOL    HW2 1037   0.385   0.851   3.584
  342SOL     OW 1038   1.540   0.274   1.987
  342SOL    HW1 1039   1.479   0.199   2.010
  342SOL    HW2 1040   1.562   0.326   2.070
  343SOL     OW 1041   1.303   0.838   1.904
  343SOL    HW1 1042   1.337   0.745   1.919
  343SOL    HW2 1043   1.321   0.865   1.809
  344SOL     OW 1044   1.068   1.333   2.711
  344SOL    HW1 1045   1.075   1.249   2.656
  344SOL    HW2 1046   1.130   1.402   2.675
  345SOL     OW 1047   0.319   0.810   2.811
  345SOL    HW1 1048   0.412   0.846   2.816
  345SOL    HW2 1049   0.313   0.725   2.863
  346SOL     OW 1050   0.339   0.509   2.868
  346SOL    HW1 1051   0.287   0.426   2.851
  346SOL    HW2 1052   0.416   0.514   2.804
  347SOL     OW 1053   1.138   0.380   3.540
  347SOL    HW1 1054   1.093   0.443   3.604
  347SOL    HW2 1055   1.231   0.411   3.523
  348SOL     OW 1056   1.160   0.207   3.339
  348SOL    HW1 1057   1.160   0.271   3.416
  348SOL    HW2 1058   1.188   0.255   3.256
  349SOL     OW 1059   0.008   1.326   2.062
  349SOL    HW1 1060  -0.085   1.347   2.031
  349SOL    HW2 1061   0.018   1.227   2.075
  350SOL     OW 1062   0.088   1.801   2.789
  350SOL    HW1 1063   0.046   1.715   2.762
  350SOL    HW2 1064   0.182   1.804   2.755
  351SOL     OW 1065   0.504   1.568   2.772
  351SOL    HW1 1066   0.570   1.642   2.781
  351SOL    HW2 1067   0.548   1.489   2.730
  352SOL     OW 1068   1.002   0.796   3.100
  352SOL    HW1 1069   1.043   0.764   3.186
  352SOL    HW2 1070   0.906   0.769   3.097
  353SOL     OW 1071   0.040   0.544   2.976
  353SOL    HW1 1072   0.125   0.511   2.935
  353SOL    HW2 1073   0.053   0.559   3.074
  354SOL     OW 1074   0.189   0.520   3.584
  354SOL    HW1 1075   0.248   0.480   3.514
  354SOL    HW2 1076   0.131   0.591   3.543
  355SOL     OW 1077   1.369   0.950   3.522
  355SOL    HW1 1078   1.408   1.039   3.542
  355SOL    HW2 1079   1.379   0.930   3.425
  356SOL     OW 1080   0.815   0.572   2.187
  356SOL    HW1 1081   0.822   0.483   2.141
  356SOL    HW2 1082   0.721   0.606   2.179
  357SOL     OW 1083   1.657   0.604   3.068
  357SOL    HW1 1084   1.619   0.535   3.130
  357SOL    HW2 1085   1.739   0.568   3.024
  358SOL     OW 1086   0.252   1.564   3.606
  358SOL    HW1 1087   0.222   1.621   3.682
  358SOL    HW2 1088   0.245   1.467   3.632
  359SOL     OW 1089   0.671   0.464   3.131
  359SOL    HW1 1090   0.637   0.375   3.101
  359SOL    HW2 1091   0.697   0.518   3.051
  360SOL     OW 1092   0.930   1.678   3.327
  360SOL    HW1 1093   0.906   1.660   3.232
  360SOL    HW2 1094   0.960   1.772   3.337
  361SOL     OW 1095   0.473   0.500   2.053
  361SOL    HW1 1096   0.534   0.580   2.057
  361SOL    HW2 1097   0.378   0.531   2.060
  362SOL     OW 1098   0.159   1.137   3.328
  362SOL    HW1 1099   0.181   1.076   3.404
  362SOL    HW2 1100   0.169   1.088   3.242
  363SOL     OW 1101   1.347   1.059   3.096
  363SOL    HW1 1102   1.371   0.996   3.022
  363SOL    HW2 1103   1.257   1.099   3.078
  364SOL     OW 1104   1.302   0.855   2.171
  364SOL    HW1 1105   1.216   0.824   2.213
  364SOL    HW2 1106   1.298   0.841   2.072
  365SOL     OW 1107   1.759   1.747   3.016
  365SOL    HW1 1108   1.820   1.777   2.943
  365SOL    HW2 1109   1.721   1.658   2.994
  366SOL     OW 1110   1.252   1.731   2.990
  366SOL    HW1 1111   1.336   1.736   2.936
  366SOL    HW2 1112   1.229   1.635   3.008
  367SOL     OW 1113   0.083   1.258   2.884
  367SOL    HW1 1114   0.078   1.257   2.984
  367SOL    HW2 1115   0.000   1.217   2.846
  368SOL     OW 1116   0.688   1.662   3.578
  368SOL    HW1 1117   0.632   1.743   3.587
  368SOL    HW2 1118   0.740   1.666   3.492
  369SOL     OW 1119   1.726   0.135   2.385
  369SOL    HW1 1120   1.799   0.118   2.318
  369SOL    HW2 1121   1.695   0.048   2.423
  370SOL     OW 1122   1.388   1.573   2.339
  370SOL    HW1 1123   1.455   1.585   2.265
  370SOL    HW2 1124   1.348   1.662   2.362
  371SOL     OW 1125   0.130   1.794   3.713
  371SOL    HW1 1126   0.089   1.720   3.766
  371SOL    HW2 1127   0.194   1.845   3.771
  372SOL     OW 1128   1.280   0.927   2.534
  372SOL    HW1 1129   1.340   0.846   2.536
  372SOL    HW2 1130   1.320   0.996   2.474
  373SOL     OW 1131   0.830   1.273   3.284
  373SOL    HW1 1132   0.825   1.306   3.379
  373SOL    HW2 1133   0.744   1.292   3.238
  374SOL     OW 1134   0.672   1.616   2.016
  374SOL    HW1 1135   0.681   1.626   1.917
  374SOL    HW2 1136   0.632   1.527   2.037
  375SOL     OW 1137   1.650   1.720   3.256
  375SOL    HW1 1138   1.703   1.730   3.172
  375SOL    HW2 1139   1.623   1.810   3.290
  376SOL     OW 1140   1.841   0.175   2.825
  376SOL    HW1 1141   1.880   0.090   2.789
  376SOL    HW2 1142   1.743   0.177   2.806
  377SOL     OW 1143   0.263   0.326   2.582
  377SOL    HW1 1144   0.184   0.377   2.548
  377SOL    HW2 1145   0.254   0.311   2.680
  378SOL     OW 1146   1.194   1.612   1.893
  378SOL    HW1 1147   1.200   1.519   1.930
  378SOL    HW2 1148   1.135   1.612   1.813
  379SOL     OW 1149   0.822   1.002   3.234
  379SOL    HW1 1150   0.862   1.001   3.142
  379SOL    HW2 1151   0.832   1.094   3.274
  380SOL     OW 1152   0.916   0.910   2.153
  380SOL    HW1 1153   0.979   0.948   2.085
  380SOL    HW2 1154   0.956   0.827   2.192
  381SOL     OW 1155   1.504   1.607   1.906
  381SOL    HW1 1156   1.412   1.644   1.913
  381SOL    HW2 1157   1.542   1.627   1.816
  382SOL     OW 1158   0.372   1.288   3.352
  382SOL    HW1 1159   0.359   1.381   3.318
  382SOL    HW2 1160   0.288   1.236   3.339
  383SOL     OW 1161   1.614   1.292   3.151
  383SOL    HW1 1162   1.674   1.295   3.231
  383SOL    HW2 1163   1.539   1.356   3.164
  384SOL     OW 1164   1.039   1.098   2.558
  384SOL    HW1 1165   0.969   1.051   2.612
  384SOL    HW2 1166   1.098   1.030   2.515
  385SOL     OW 1167   1.014   0.236   2.833
  385SOL    HW1 1168   1.006   0.200   2.740
  385SOL    HW2 1169   1.012   0.160   2.898
  386SOL     OW 1170   0.590   1.487   2.353
  386SOL    HW1 1171   0.632   1.429   2.283
  386SOL    HW2 1172   0.546   1.566   2.309
  387SOL     OW 1173   1.709   0.385   3.243
  387SOL    HW1 1174   1.782   0.454   3.247
  387SOL    HW2 1175   1.737   0.310   3.184
  388SOL     OW 1176   0.255   1.348   2.152
  388SOL    HW1 1177   0.159   1.349   2.125
  388SOL    HW2 1178   0.267   1.401   2.236
  389SOL     OW 1179   0.105   1.013   3.588
  389SOL    HW1 1180   0.028   0.980   3.642
  389SOL    HW2 1181   0.190   0.983   3.630
  390SOL     OW 1182   0.672   0.203   3.351
  390SOL    HW1 1183   0.762   0.187   3.311
  390SOL    HW2 1184   0.680   0.208   3.450
  391SOL     OW 1185   0.075   0.345   1.895
  391SOL    HW1 1186  -0.017   0.317   1.866
  391SOL    HW2 1187   0.106   0.422   1.839
  392SOL     OW 1188   1.440   0.856   3.260
  392SOL    HW1 1189   1.383   0.908   3.197
  392SOL    HW2 1190   1.536   0.868   3.236
  393SOL     OW 1191   0.072   0.166   2.180
  393SOL    HW1 1192   0.055   0.249   2.126
  393SOL    HW2 1193   0.162   0.129   2.158
  394SOL     OW 1194   1.183   1.335   1.981
  394SOL    HW1 1195   1.084   1.324   1.983
  394SOL    HW2 1196   1.217   1.350   2.074
  395SOL     OW 1197   0.613   0.842   3.293
  395SOL    HW1 1198   0.669   0.923   3.276
  395SOL    HW2 1199   0.672   0.762   3.296
  396SOL     OW 1200   1.493   1.767   2.821
  396SOL    HW1 1201   1.526   1.831   2.752
  396SOL    HW2 1202   1.559   1.761   2.896
  397SOL     OW 1203   0.716   0.565   3.570
  397SOL    HW1 1204   0.735   0.630   3.644
  397SOL    HW2 1205   0.776   0.485   3.579
  398SOL     OW 1206   1.450   1.220   3.495
  398SOL    HW1 1207   1.441   1.210   3.594
  398SOL    HW2 1208   1.546   1.213   3.469
  399SOL     OW 1209   0.390   1.741   3.422
  399SOL    HW1 1210   0.299   1.782   3.420
  399SOL    HW2 1211   0.383   1.647   3.454
  400SOL     OW 1212   1.674   0.883   3.116
  400SOL    HW1 1213   1.647   0.794   3.079
  400SOL    HW2 1214   1.675   0.951   3.043
  401SOL     OW 1215   1.225   0.325   2.311
  401SOL    HW1 1216   1.290   0.251   2.300
  401SOL    HW2 1217   1.245   0.375   2.395
  402SOL     OW 1218   0.594   0.745   2.514
  402SOL    HW1 1219   0.644   0.830   2.495
  402SOL    HW2 1220   0.506   0.747   2.466
  403SOL     OW 1221   1.777   0.342   3.504
  403SOL    HW1 1222   1.760   0.373   3.410
  403SOL    HW2 1223   1.693   0.305   3.542
  404SOL     OW 1224   1.730   0.934   3.379
  404SOL    HW1 1225   1.768   1.025   3.394
  404SOL    HW2 1226   1.722   0.917   3.280
  405SOL     OW 1227   0.859   1.374   1.878
  405SOL    HW1 1228   0.813   1.389   1.966
  405SOL    HW2 1229   0.903   1.459   1.848
  406SOL     OW 1230   0.661   1.790   2.815
  406SOL    HW1 1231   0.615   1.878   2.802
  406SOL    HW2 1232   0.760   1.802   2.808
  407SOL     OW 1233   0.859   0.956   2.723
  407SOL    HW1 1234   0.913   0.887   2.771
  407SOL    HW2 1235   0.827   1.025   2.789
  408SOL     OW 1236   1.083   0.984   1.949
  408SOL    HW1 1237   1.060   1.037   1.867
  408SOL    HW2 1238   1.164   0.928   1.930
  409SOL     OW 1239   1.861   1.569   2.713
  409SOL    HW1 1240   1.790   1.557   2.643
  409SOL    HW2 1241   1.862   1.490   2.773
  410SOL     OW 1242   0.221   1.314   3.706
  410SOL    HW1 1243   0.156   1.241   3.685
  410SOL    HW2 1244   0.225   1.328   3.804
  411SOL     OW 1245   0.079   1.240   2.515
  411SOL    HW1 1246   0.078   1.193   2.603
  411SOL    HW2 1247   0.161   1.212   2.464
  412SOL     OW 1248   0.672   1.391   3.486
  412SOL    HW1 1249   0.594   1.341   3.524
  412SOL    HW2 1250   0.669   1.486   3.517
  413SOL     OW 1251   1.824   0.192   3.089
  413SOL    HW1 1252   1.820   0.102   3.133
  413SOL    HW2 1253   1.827   0.181   2.990
  414SOL     OW 1254   0.428   0.424   2.382
  414SOL    HW1 1255   0.458   0.352   2.320
  414SOL    HW2 1256   0.389   0.384   2.465
  415SOL     OW 1257   1.705   1.487   2.966
  415SOL    HW1 1258   1.612   1.462   2.939
  415SOL    HW2 1259   1.731   1.437   3.048
  416SOL     OW 1260   0.317   0.547   3.142
  416SOL    HW1 1261   0.355   0.488   3.214
  416SOL    HW2 1262   0.357   0.521   3.054
  417SOL     OW 1263   0.812   1.586   2.549
  417SOL    HW1 1264   0.844   1.596   2.455
  417SOL    HW2 1265   0.733   1.524   2.551
  418SOL     OW 1266   1.424   0.214   2.974
  418SOL    HW1 1267   1.476   0.149   3.029
  418SOL    HW2 1268   1.375   0.277   3.035
  419SOL     OW 1269   1.001   0.034   3.016
  419SOL    HW1 1270   0.938  -0.038   2.985
  419SOL    HW2 1271   1.094  -0.002   3.016
  420SOL     OW 1272   0.770   1.330   2.163
  420SOL    HW1 1273   0.724   1.243   2.180
  420SOL    HW2 1274   0.861   1.327   2.204
  421SOL     OW 1275   0.618   1.567   3.146
  421SOL    HW1 1276   0.613   1.649   3.203
  421SOL    HW2 1277   0.707   1.564   3.101
  422SOL     OW 1278   1.352   0.052   2.030
  422SOL    HW1 1279   1.387   0.011   1.946
  422SOL    HW2 1280   1.262   0.014   2.050
  423SOL     OW 1281   1.300   0.453   2.553
  423SOL    HW1 1282   1.241   0.533   2.557
  423SOL    HW2 1283   1.315   0.418   2.646
  424SOL     OW 1284   1.593   0.221   2.744
  424SOL    HW1 1285   1.509   0.220   2.798
  424SOL    HW2 1286   1.595   0.304   2.688
  425SOL     OW 1287   0.039   1.077   2.162
  425SOL    HW1 1288   0.138   1.066   2.153
  425SOL    HW2 1289  -0.001   0.991   2.194
  426SOL     OW 1290   0.875   1.646   2.199
  426SOL    HW1 1291   0.798   1.611   2.145
  426SOL    HW2 1292   0.843   1.717   2.261
  427SOL     OW 1293   0.230   0.628   3.837
  427SOL    HW1 1294   0.137   0.626   3.874
  427SOL    HW2 1295   0.231   0.589   3.745
  428SOL     OW 1296   0.019   0.368   4.371
  428SOL    HW1 1297  -0.063   0.411   4.410
  428SOL    HW2 1298  -0.009   0.295   4.308
  429SOL     OW 1299   1.555   1.511   4.427
  429SOL    HW1 1300   1.498   1.495   4.508
  429SOL    HW2 1301   1.496   1.521   4.347
  430SOL     OW 1302   1.135   0.703   4.441
  430SOL    HW1 1303   1.192   0.781   4.416
  430SOL    HW2 1304   1.075   0.729   4.517
  431SOL     OW 1305   1.755   0.607   3.955
  431SOL    HW1 1306   1.743   0.594   3.856
  431SOL    HW2 1307   1.725   0.526   4.004
  432SOL     OW 1308   0.685   1.012   4.389
  432SOL    HW1 1309   0.754   0.996   4.459
  432SOL    HW2 1310   0.612   1.069   4.427
  433SOL     OW 1311   1.603   0.447   4.461
  433SOL    HW1 1312   1.529   0.493   4.411
  433SOL    HW2 1313   1.654   0.515   4.514
  434SOL     OW 1314   0.231   1.713   4.207
  434SOL    HW1 1315   0.265   1.790   4.261
  434SOL    HW2 1316   0.275   1.713   4.117
  435SOL     OW 1317   0.230   1.434   4.262
  435SOL    HW1 1318   0.204   1.530   4.262
  435SOL    HW2 1319   0.159   1.380   4.307
  436SOL     OW 1320   0.240   1.091   4.610
  436SOL    HW1 1321   0.254   1.007   4.662
  436SOL    HW2 1322   0.185   1.155   4.665
  437SOL     OW 1323   0.606   0.964   3.847
  437SOL    HW1 1324   0.613   1.048   3.793
  437SOL    HW2 1325   0.652   0.977   3.935
  438SOL     OW 1326   0.122   0.643   4.287
  438SOL    HW1 1327   0.077   0.555   4.304
  438SOL    HW2 1328   0.121   0.697   4.371
  439SOL     OW 1329   1.842   1.767   4.083
  439SOL    HW1 1330   1.896   1.738   4.163
  439SOL    HW2 1331   1.872   1.857   4.054
  440SOL     OW 1332   0.027   1.596   3.841
  440SOL    HW1 1333   0.008   1.500   3.862
  440SOL    HW2 1334  -0.006   1.654   3.916
  441SOL     OW 1335   1.689   0.922   4.336
  441SOL    HW1 1336   1.784   0.893   4.344
  441SOL    HW2 1337   1.681   0.987   4.261
  442SOL     OW 1338   1.641   1.108   4.156
  442SOL    HW1 1339   1.727   1.110   4.104
  442SOL    HW2 1340   1.655   1.155   4.244
  443SOL     OW 1341   0.613   1.365   4.450
  443SOL    HW1 1342   0.564   1.278   4.459
  443SOL    HW2 1343   0.590   1.408   4.363
  444SOL     OW 1344   0.809   0.004   4.226
  444SOL    HW1 1345   0.849   0.095   4.217
  444SOL    HW2 1346   0.709   0.012   4.232
  445SOL     OW 1347   1.525   0.999   3.914
  445SOL    HW1 1348   1.462   0.923   3.927
  445SOL    HW2 1349   1.573   1.017   4.000
  446SOL     OW 1350   1.667   1.714   4.296
  446SOL    HW1 1351   1.626   1.691   4.208
  446SOL    HW2 1352   1.649   1.640   4.361
  447SOL     OW 1353   0.598   0.729   3.994
  447SOL    HW1 1354   0.622   0.798   3.926
  447SOL    HW2 1355   0.520   0.762   4.048
  448SOL     OW 1356   1.281   0.345   4.668
  448SOL    HW1 1357   1.195   0.295   4.655
  448SOL    HW2 1358   1.343   0.291   4.724
  449SOL     OW 1359   1.576   1.662   4.031
  449SOL    HW1 1360   1.665   1.708   4.034
  449SOL    HW2 1361   1.555   1.638   3.936
  450SOL     OW 1362   1.041   0.701   4.153
  450SOL    HW1 1363   1.067   0.697   4.249
  450SOL    HW2 1364   0.956   0.650   4.139
  451SOL     OW 1365   0.076   0.811   4.513
  451SOL    HW1 1366   0.175   0.799   4.522
  451SOL    HW2 1367   0.052   0.906   4.534
  452SOL     OW 1368   0.865   0.348   3.919
  452SOL    HW1 1369   0.924   0.411   3.870
  452SOL    HW2 1370   0.884   0.254   3.890
  453SOL     OW 1371   1.362   1.144   4.269
  453SOL    HW1 1372   1.445   1.115   4.221
  453SOL    HW2 1373   1.313   1.211   4.213
  454SOL     OW 1374   1.008   1.456   4.201
  454SOL    HW1 1375   0.962   1.528   4.149
  454SOL    HW2 1376   1.004   1.476   4.299
  455SOL     OW 1377   0.351   1.801   4.577
  455SOL    HW1 1378   0.401   1.715   4.583
  455SOL    HW2 1379   0.416   1.878   4.574
  456SOL     OW 1380   1.795   1.066   4.597
  456SOL    HW1 1381   1.733   1.051   4.521
  456SOL    HW2 1382   1.743   1.077   4.682
  457SOL     OW 1383   0.321   0.943   3.966
  457SOL    HW1 1384   0.403   0.982   3.924
  457SOL    HW2 1385   0.294   0.861   3.917
  458SOL     OW 1386   1.458   0.735   4.452
  458SOL    HW1 1387   1.453   0.670   4.527
  458SOL    HW2 1388   1.538   0.794   4.465
  459SOL     OW 1389   1.111   1.776   3.961
  459SOL    HW1 1390   1.051   1.714   4.011
  459SOL    HW2 1391   1.142   1.732   3.876
  460SOL     OW 1392   1.632   1.377   3.805
  460SOL    HW1 1393   1.600   1.471   3.795
  460SOL    HW2 1394   1.556   1.314   3.793
  461SOL     OW 1395   0.464   1.743   4.047
  461SOL    HW1 1396   0.497   1.782   4.133
  461SOL    HW2 1397   0.540   1.736   3.982
  462SOL     OW 1398   1.400   0.107   4.150
  462SOL    HW1 1399   1.376   0.070   4.060
  462SOL    HW2 1400   1.499   0.123   4.154
  463SOL     OW 1401   0.940   1.698   4.628
  463SOL    HW1 1402   1.020   1.641   4.649
  463SOL    HW2 1403   0.891   1.658   4.551
  464SOL     OW 1404   0.382   0.700   4.204
  464SOL    HW1 1405   0.427   0.610   4.201
  464SOL    HW2 1406   0.288   0.689   4.237
  465SOL     OW 1407   0.614   0.122   3.841
  465SOL    HW1 1408   0.712   0.100   3.848
  465SOL    HW2 1409   0.583   0.105   3.748
  466SOL     OW 1410   0.539   0.064   4.236
  466SOL    HW1 1411   0.458   0.065   4.294
  466SOL    HW2 1412   0.542   0.147   4.181
  467SOL     OW 1413   1.434   1.188   3.765
  467SOL    HW1 1414   1.466   1.112   3.822
  467SOL    HW2 1415   1.342   1.215   3.795
  468SOL     OW 1416   0.297   0.035   3.895
  468SOL    HW1 1417   0.346   0.119   3.874
  468SOL    HW2 1418   0.359  -0.030   3.940
  469SOL     OW 1419   0.935   0.236   4.204
  469SOL    HW1 1420   0.887   0.277   4.126
  469SOL    HW2 1421   1.034   0.234   4.185
  470SOL     OW 1422   0.459   1.152   4.465
  470SOL    HW1 1423   0.388   1.125   4.530
  470SOL    HW2 1424   0.433   1.124   4.372
  471SOL     OW 1425   1.271   1.797   4.315
  471SOL    HW1 1426   1.315   1.861   4.251
  471SOL    HW2 1427   1.221   1.849   4.385
  472SOL     OW 1428   1.032   0.549   3.740
  472SOL    HW1 1429   0.991   0.631   3.701
  472SOL    HW2 1430   1.096   0.575   3.813
  473SOL     OW 1431   0.866   0.454   4.366
  473SOL    HW1 1432   0.834   0.526   4.304
  473SOL    HW2 1433   0.890   0.373   4.313
  474SOL     OW 1434   1.017   0.039   4.477
  474SOL    HW1 1435   0.945   0.044   4.408
  474SOL    HW2 1436   0.993  -0.030   4.546
  475SOL     OW 1437   1.857   0.833   4.101
  475SOL    HW1 1438   1.899   0.769   4.165
  475SOL    HW2 1439   1.819   0.782   4.023
  476SOL     OW 1440   0.488   1.385   3.898
  476SOL    HW1 1441   0.401   1.370   3.945
  476SOL    HW2 1442   0.471   1.411   3.803
  477SOL     OW 1443   1.664   1.280   4.381
  477SOL    HW1 1444   1.763   1.288   4.395
  477SOL    HW2 1445   1.619   1.364   4.412
  478SOL     OW 1446   1.390   0.575   3.802
  478SOL    HW1 1447   1.336   0.554   3.883
  478SOL    HW2 1448   1.481   0.534   3.811
  479SOL     OW 1449   0.527   0.256   4.052
  479SOL    HW1 1450   0.554   0.197   3.977
  479SOL    HW2 1451   0.527   0.351   4.021
  480SOL     OW 1452   0.705   1.050   4.092
  480SOL    HW1 1453   0.691   1.057   4.191
  480SOL    HW2 1454   0.789   0.999   4.074
  481SOL     OW 1455   0.367   1.100   4.225
  481SOL    HW1 1456   0.360   1.183   4.169
  481SOL    HW2 1457   0.371   1.020   4.165
  482SOL     OW 1458   0.566   0.537   4.589
  482SOL    HW1 1459   0.578   0.603   4.515
  482SOL    HW2 1460   0.612   0.571   4.672
  483SOL     OW 1461   1.252   1.348   4.112
  483SOL    HW1 1462   1.302   1.425   4.152
  483SOL    HW2 1463   1.157   1.350   4.144
  484SOL     OW 1464   1.582   0.639   4.196
  484SOL    HW1 1465   1.551   0.700   4.269
  484SOL    HW2 1466   1.632   0.691   4.127
  485SOL     OW 1467   1.209   0.525   3.999
  485SOL    HW1 1468   1.222   0.441   4.053
  485SOL    HW2 1469   1.180   0.599   4.059
  486SOL     OW 1470   0.307   0.063   4.342
  486SOL    HW1 1471   0.296   0.157   4.375
  486SOL    HW2 1472   0.302   0.000   4.419
  487SOL     OW 1473   1.622   0.367   4.098
  487SOL    HW1 1474   1.624   0.291   4.162
  487SOL    HW2 1475   1.574   0.444   4.138
  488SOL     OW 1476   1.540   0.274   3.849
  488SOL    HW1 1477   1.479   0.199   3.872
  488SOL    HW2 1478   1.562   0.326   3.932
  489SOL     OW 1479   1.303   0.838   3.766
  489SOL    HW1 1480   1.337   0.745   3.781
  489SOL    HW2 1481   1.321   0.865   3.671
  490SOL     OW 1482   0.008   1.326   3.924
  490SOL    HW1 1483  -0.085   1.347   3.893
  490SOL    HW2 1484   0.018   1.227   3.937
  491SOL     OW 1485   0.815   0.572   4.049
  491SOL    HW1 1486   0.822   0.483   4.003
  491SOL    HW2 1487   0.721   0.606   4.041
  492SOL     OW 1488   0.473   0.500   3.915
  492SOL    HW1 1489   0.534   0.580   3.919
  492SOL    HW2 1490   0.378   0.531   3.922
  493SOL     OW 1491   1.302   0.855   4.033
  493SOL    HW1 1492   1.216   0.824   4.075
  493SOL    HW2 1493   1.298   0.841   3.934
  494SOL     OW 1494   1.726   0.135   4.247
  494SOL    HW1 1495   1.799   0.118   4.180
  494SOL    HW2 1496   1.695   0.048   4.285
  495SOL     OW 1497   1.388   1.573   4.201
  495SOL    HW1 1498   1.455   1.585   4.127
  495SOL    HW2 1499   1.348   1.662   4.224
  496SOL     OW 1500   1.280   0.927   4.396
  496SOL    HW1 1501   1.340   0.846   4.398
  496SOL    HW2 1502   1.320   0.996   4.336
  497SOL     OW 1503   0.672   1.616   3.878
  497SOL    HW1 1504   0.681   1.626   3.779
  497SOL    HW2 1505   0.632   1.527   3.899
  498SOL     OW 1506   1.841   0.175   4.687
  498SOL    HW1 1507   1.880   0.090   4.651
  498SOL    HW2 1508   1.743   0.177   4.668
  499SOL     OW 1509   0.263   0.326   4.444
  499SOL    HW1 1510   0.184   0.377   4.410
  499SOL    HW2 1511   0.254   0.311   4.542
  500SOL     OW 1512   1.194   1.612   3.755
  500SOL    HW1 1513   1.200   1.519   3.792
  500SOL    HW2 1514   1.135   1.612   3.675
  501SOL     OW 1515   0.916   0.910   4.015
  501SOL    HW1 1516   0.979   0.948   3.947
  501SOL    HW2 1517   0.956   0.827   4.054
  502SOL     OW 1518   1.504   1.607   3.768
  502SOL    HW1 1519   1.412   1.644   3.775
  502SOL    HW2 1520   1.542   1.627   3.678
  503SOL     OW 1521   1.039   1.098   4.420
  503SOL    HW1 1522   0.969   1.051   4.474
  503SOL    HW2 1523   1.098   1.030   4.377
  504SOL     OW 1524   0.590   1.487   4.215
  504SOL    HW1 1525   0.632   1.429   4.145
  504SOL    HW2 1526   0.546   1.566   4.171
  505SOL     OW 1527   0.255   1.348   4.014
  505SOL    HW1 1528   0.159   1.349   3.987
  505SOL    HW2 1529   0.267   1.401   4.098
  506SOL     OW 1530   0.075   0.345   3.757
  506SOL    HW1 1531  -0.017   0.317   3.728
  506SOL    HW2 1532   0.106   0.422   3.701
  507SOL     OW 1533   0.072   0.166   4.042
  507SOL    HW1 1534   0.055   0.249   3.988
  507SOL    HW2 1535   0.162   0.129   4.020
  508SOL     OW 1536   1.183   1.335   3.843
  508SOL    HW1 1537   1.084   1.324   3.845
  508SOL    HW2 1538   1.217   1.350   3.936
  509SOL     OW 1539   1.225   0.325   4.173
  509SOL    HW1 1540   1.290   0.251   4.162
  509SOL    HW2 1541   1.245   0.375   4.257
  510SOL     OW 1542   0.594   0.745   4.376
  510SOL    HW1 1543   0.644   0.830   4.357
  510SOL    HW2 1544   0.506   0.747   4.328
  511SOL     OW 1545   0.859   1.374   3.740
  511SOL    HW1 1546   0.813   1.389   3.828
  511SOL    HW2 1547   0.903   1.459   3.710
  512SOL     OW 1548   0.661   1.790   4.677
  512SOL    HW1 1549   0.615   1.878   4.664
  512SOL    HW2 1550   0.760   1.802   4.670
  513SOL     OW 1551   0.859   0.956   4.585
  513SOL    HW1 1552   0.913   0.887   4.633
  513SOL    HW2 1553   0.827   1.025   4.651
  514SOL     OW 1554   1.083   0.984   3.811
  514SOL    HW1 1555   1.060   1.037   3.729
  514SOL    HW2 1556   1.164   0.928   3.792
  515SOL     OW 1557   0.079   1.240   4.377
  515SOL    HW1 1558   0.078   1.193   4.465
  515SOL    HW2 1559   0.161   1.212   4.326
  516SOL     OW 1560   0.428   0.424   4.244
  516SOL    HW1 1561   0.458   0.352   4.182
  516SOL    HW2 1562   0.389   0.384   4.327
  517SOL     OW 1563   0.812   1.586   4.411
  517SOL    HW1 1564   0.844   1.596   4.317
  517SOL    HW2 1565   0.733   1.524   4.413
  518SOL     OW 1566   0.770   1.330   4.025
  518SOL    HW1 1567   0.724   1.243   4.042
  518SOL    HW2 1568   0.861   1.327   4.066
  519SOL     OW 1569   1.352   0.052   3.892
  519SOL    HW1 1570   1.387   0.011   3.808
  519SOL    HW2 1571   1.262   0.014   3.912
  520SOL     OW 1572   1.300   0.453   4.415
  520SOL    HW1 1573   1.241   0.533   4.419
  520SOL    HW2 1574   1.315   0.418   4.508
  521SOL     OW 1575   0.039   1.077   4.024
  521SOL    HW1 1576   0.138   1.066   4.015
  521SOL    HW2 1577  -0.001   0.991   4.056
  522SOL     OW 1578   0.875   1.646   4.061
  522SOL    HW1 1579   0.798   1.611   4.007
  522SOL    HW2 1580   0.843   1.717   4.123
  523SOL     OW 1581   0.230   2.490   0.113
  523SOL    HW1 1582   0.137   2.488   0.150
  523SOL    HW2 1583   0.231   2.451   0.021
  524SOL     OW 1584   0.225   2.137   0.996
  524SOL    HW1 1585   0.260   2.120   1.088
  524SOL    HW2 1586   0.137   2.092   0.984
  525SOL     OW 1587   0.019   2.230   0.647
  525SOL    HW1 1588  -0.063   2.273   0.686
  525SOL    HW2 1589  -0.009   2.157   0.584
  526SOL     OW 1590   0.569   3.137   1.165
  526SOL    HW1 1591   0.476   3.130   1.128
  526SOL    HW2 1592   0.580   3.226   1.209
  527SOL     OW 1593   1.555   3.373   0.703
  527SOL    HW1 1594   1.498   3.357   0.784
  527SOL    HW2 1595   1.496   3.383   0.623
  528SOL     OW 1596   1.135   2.565   0.717
  528SOL    HW1 1597   1.192   2.643   0.692
  528SOL    HW2 1598   1.075   2.591   0.793
  529SOL     OW 1599   1.755   2.469   0.231
  529SOL    HW1 1600   1.743   2.456   0.132
  529SOL    HW2 1601   1.725   2.388   0.280
  530SOL     OW 1602   0.768   3.006   1.023
  530SOL    HW1 1603   0.690   3.023   1.083
  530SOL    HW2 1604   0.802   3.093   0.987
  531SOL     OW 1605   0.850   2.660   1.823
  531SOL    HW1 1606   0.846   2.736   1.888
  531SOL    HW2 1607   0.872   2.696   1.732
  532SOL     OW 1608   0.685   2.874   0.665
  532SOL    HW1 1609   0.754   2.858   0.735
  532SOL    HW2 1610   0.612   2.931   0.703
  533SOL     OW 1611   0.686   3.023   1.803
  533SOL    HW1 1612   0.746   3.102   1.817
  533SOL    HW2 1613   0.600   3.054   1.762
  534SOL     OW 1614   0.335   3.297   1.061
  534SOL    HW1 1615   0.257   3.266   1.008
  534SOL    HW2 1616   0.393   3.355   1.004
  535SOL     OW 1617   1.460   3.367   1.339
  535SOL    HW1 1618   1.484   3.461   1.365
  535SOL    HW2 1619   1.444   3.313   1.421
  536SOL     OW 1620   0.438   2.254   1.499
  536SOL    HW1 1621   0.520   2.198   1.508
  536SOL    HW2 1622   0.357   2.196   1.503
  537SOL     OW 1623   1.603   2.309   0.737
  537SOL    HW1 1624   1.529   2.355   0.687
  537SOL    HW2 1625   1.654   2.377   0.790
  538SOL     OW 1626   0.231   3.575   0.483
  538SOL    HW1 1627   0.265   3.652   0.537
  538SOL    HW2 1628   0.275   3.575   0.393
  539SOL     OW 1629   1.127   3.203   1.690
  539SOL    HW1 1630   1.174   3.203   1.778
  539SOL    HW2 1631   1.079   3.116   1.679
  540SOL     OW 1632   0.230   3.296   0.538
  540SOL    HW1 1633   0.204   3.392   0.538
  540SOL    HW2 1634   0.159   3.242   0.583
  541SOL     OW 1635   0.240   2.953   0.886
  541SOL    HW1 1636   0.254   2.869   0.938
  541SOL    HW2 1637   0.185   3.017   0.941
  542SOL     OW 1638   0.620   3.648   1.439
  542SOL    HW1 1639   0.528   3.631   1.474
  542SOL    HW2 1640   0.648   3.740   1.465
  543SOL     OW 1641   0.606   2.826   0.123
  543SOL    HW1 1642   0.613   2.910   0.069
  543SOL    HW2 1643   0.652   2.839   0.211
  544SOL     OW 1644   1.594   1.976   1.480
  544SOL    HW1 1645   1.576   2.043   1.408
  544SOL    HW2 1646   1.591   2.022   1.569
  545SOL     OW 1647   0.122   2.505   0.563
  545SOL    HW1 1648   0.077   2.417   0.580
  545SOL    HW2 1649   0.121   2.559   0.647
  546SOL     OW 1650   1.842   3.629   0.359
  546SOL    HW1 1651   1.896   3.600   0.439
  546SOL    HW2 1652   1.872   3.719   0.330
  547SOL     OW 1653   0.027   3.458   0.117
  547SOL    HW1 1654   0.008   3.362   0.138
  547SOL    HW2 1655  -0.006   3.516   0.192
  548SOL     OW 1656   1.689   2.784   0.612
  548SOL    HW1 1657   1.784   2.755   0.620
  548SOL    HW2 1658   1.681   2.849   0.537
  549SOL     OW 1659   1.641   2.970   0.432
  549SOL    HW1 1660   1.727   2.972   0.380
  549SOL    HW2 1661   1.655   3.017   0.520
  550SOL     OW 1662   0.113   2.599   1.597
  550SOL    HW1 1663   0.201   2.586   1.642
  550SOL    HW2 1664   0.100   2.696   1.575
  551SOL     OW 1665   0.613   3.227   0.726
  551SOL    HW1 1666   0.564   3.140   0.735
  551SOL    HW2 1667   0.590   3.270   0.639
  552SOL     OW 1668   1.293   3.090   1.423
  552SOL    HW1 1669   1.330   3.017   1.365
  552SOL    HW2 1670   1.345   3.095   1.508
  553SOL     OW 1671   0.809   1.866   0.502
  553SOL    HW1 1672   0.849   1.957   0.493
  553SOL    HW2 1673   0.709   1.874   0.508
  554SOL     OW 1674   0.197   2.838   1.264
  554SOL    HW1 1675   0.286   2.793   1.250
  554SOL    HW2 1676   0.124   2.773   1.245
  555SOL     OW 1677   1.525   2.861   0.190
  555SOL    HW1 1678   1.462   2.785   0.203
  555SOL    HW2 1679   1.573   2.879   0.276
  556SOL     OW 1680   1.187   3.654   1.616
  556SOL    HW1 1681   1.211   3.714   1.540
  556SOL    HW2 1682   1.194   3.559   1.586
  557SOL     OW 1683   0.317   2.113   1.801
  557SOL    HW1 1684   0.388   2.184   1.807
  557SOL    HW2 1685   0.229   2.152   1.829
  558SOL     OW 1686   1.466   3.279   0.953
  558SOL    HW1 1687   1.407   3.285   1.033
  558SOL    HW2 1688   1.451   3.191   0.907
  559SOL     OW 1689   1.667   3.576   0.572
  559SOL    HW1 1690   1.626   3.553   0.484
  559SOL    HW2 1691   1.649   3.502   0.637
  560SOL     OW 1692   0.598   2.591   0.270
  560SOL    HW1 1693   0.622   2.660   0.202
  560SOL    HW2 1694   0.520   2.624   0.324
  561SOL     OW 1695   1.281   2.207   0.944
  561SOL    HW1 1696   1.195   2.157   0.931
  561SOL    HW2 1697   1.343   2.153   1.000
  562SOL     OW 1698   1.576   3.524   0.307
  562SOL    HW1 1699   1.665   3.570   0.310
  562SOL    HW2 1700   1.555   3.500   0.212
  563SOL     OW 1701   0.807   2.467   1.465
  563SOL    HW1 1702   0.760   2.464   1.554
  563SOL    HW2 1703   0.756   2.412   1.399
  564SOL     OW 1704   1.394   2.331   1.674
  564SOL    HW1 1705   1.374   2.374   1.762
  564SOL    HW2 1706   1.472   2.269   1.683
  565SOL     OW 1707   0.973   2.752   1.572
  565SOL    HW1 1708   1.019   2.668   1.543
  565SOL    HW2 1709   0.917   2.786   1.497
  566SOL     OW 1710   0.991   2.272   1.242
  566SOL    HW1 1711   0.914   2.306   1.296
  566SOL    HW2 1712   0.957   2.221   1.163
  567SOL     OW 1713   1.041   2.563   0.429
  567SOL    HW1 1714   1.067   2.559   0.525
  567SOL    HW2 1715   0.956   2.512   0.415
  568SOL     OW 1716   0.076   2.673   0.789
  568SOL    HW1 1717   0.175   2.661   0.798
  568SOL    HW2 1718   0.052   2.768   0.810
  569SOL     OW 1719   0.130   3.683   1.571
  569SOL    HW1 1720   0.120   3.668   1.670
  569SOL    HW2 1721   0.044   3.719   1.535
  570SOL     OW 1722   0.865   2.210   0.195
  570SOL    HW1 1723   0.924   2.273   0.146
  570SOL    HW2 1724   0.884   2.116   0.166
  571SOL     OW 1725   1.719   2.447   1.831
  571SOL    HW1 1726   1.693   2.536   1.795
  571SOL    HW2 1727   1.717   2.379   1.758
  572SOL     OW 1728   1.362   3.006   0.545
  572SOL    HW1 1729   1.445   2.977   0.497
  572SOL    HW2 1730   1.313   3.073   0.489
  573SOL     OW 1731   0.550   2.058   0.885
  573SOL    HW1 1732   0.545   2.053   0.985
  573SOL    HW2 1733   0.552   2.154   0.856
  574SOL     OW 1734   1.008   3.318   0.477
  574SOL    HW1 1735   0.962   3.390   0.425
  574SOL    HW2 1736   1.004   3.338   0.575
  575SOL     OW 1737   0.351   3.663   0.853
  575SOL    HW1 1738   0.401   3.577   0.859
  575SOL    HW2 1739   0.416   3.740   0.850
  576SOL     OW 1740   1.795   2.928   0.873
  576SOL    HW1 1741   1.733   2.913   0.797
  576SOL    HW2 1742   1.743   2.939   0.958
  577SOL     OW 1743   1.227   3.412   1.506
  577SOL    HW1 1744   1.233   3.335   1.570
  577SOL    HW2 1745   1.175   3.386   1.426
  578SOL     OW 1746   0.321   2.805   0.242
  578SOL    HW1 1747   0.403   2.844   0.200
  578SOL    HW2 1748   0.294   2.723   0.193
  579SOL     OW 1749   1.458   2.597   0.728
  579SOL    HW1 1750   1.453   2.532   0.803
  579SOL    HW2 1751   1.538   2.656   0.741
  580SOL     OW 1752   0.461   3.128   1.727
  580SOL    HW1 1753   0.411   3.129   1.641
  580SOL    HW2 1754   0.398   3.110   1.803
  581SOL     OW 1755   1.111   3.638   0.237
  581SOL    HW1 1756   1.051   3.576   0.287
  581SOL    HW2 1757   1.142   3.594   0.152
  582SOL     OW 1758   0.202   2.147   1.498
  582SOL    HW1 1759   0.122   2.207   1.485
  582SOL    HW2 1760   0.192   2.098   1.584
  583SOL     OW 1761   1.632   3.239   0.081
  583SOL    HW1 1762   1.600   3.333   0.071
  583SOL    HW2 1763   1.556   3.176   0.069
  584SOL     OW 1764   0.464   3.605   0.323
  584SOL    HW1 1765   0.497   3.644   0.409
  584SOL    HW2 1766   0.540   3.598   0.258
  585SOL     OW 1767   1.400   1.969   0.426
  585SOL    HW1 1768   1.376   1.932   0.336
  585SOL    HW2 1769   1.499   1.985   0.430
  586SOL     OW 1770   0.249   3.647   1.241
  586SOL    HW1 1771   0.306   3.582   1.291
  586SOL    HW2 1772   0.233   3.614   1.148
  587SOL     OW 1773   0.940   3.560   0.904
  587SOL    HW1 1774   1.020   3.503   0.925
  587SOL    HW2 1775   0.891   3.520   0.827
  588SOL     OW 1776   0.382   2.562   0.480
  588SOL    HW1 1777   0.427   2.472   0.477
  588SOL    HW2 1778   0.288   2.551   0.513
  589SOL     OW 1779   1.547   2.084   1.729
  589SOL    HW1 1780   1.542   2.121   1.821
  589SOL    HW2 1781   1.475   2.015   1.717
  590SOL     OW 1782   0.781   2.126   1.749
  590SOL    HW1 1783   0.848   2.065   1.792
  590SOL    HW2 1784   0.708   2.145   1.814
  591SOL     OW 1785   0.888   3.376   1.195
  591SOL    HW1 1786   0.865   3.351   1.101
  591SOL    HW2 1787   0.949   3.307   1.234
  592SOL     OW 1788   1.351   2.452   1.433
  592SOL    HW1 1789   1.379   2.409   1.518
  592SOL    HW2 1790   1.376   2.548   1.434
  593SOL     OW 1791   0.803   3.264   0.924
  593SOL    HW1 1792   0.893   3.278   0.882
  593SOL    HW2 1793   0.732   3.266   0.853
  594SOL     OW 1794   0.922   2.365   0.899
  594SOL    HW1 1795   0.897   2.356   0.803
  594SOL    HW2 1796   0.970   2.283   0.930
  595SOL     OW 1797   0.539   1.926   0.512
  595SOL    HW1 1798   0.458   1.927   0.570
  595SOL    HW2 1799   0.542   2.009   0.457
  596SOL     OW 1800   1.434   3.050   0.041
  596SOL    HW1 1801   1.466   2.974   0.098
  596SOL    HW2 1802   1.342   3.077   0.071
  597SOL     OW 1803   0.297   1.897   0.171
  597SOL    HW1 1804   0.346   1.981   0.150
  597SOL    HW2 1805   0.359   1.832   0.216
  598SOL     OW 1806   0.935   2.098   0.480
  598SOL    HW1 1807   0.887   2.139   0.402
  598SOL    HW2 1808   1.034   2.096   0.461
  599SOL     OW 1809   1.076   2.545   1.464
  599SOL    HW1 1810   0.996   2.484   1.467
  599SOL    HW2 1811   1.157   2.492   1.440
  600SOL     OW 1812   1.227   3.432   0.793
  600SOL    HW1 1813   1.248   3.506   0.728
  600SOL    HW2 1814   1.295   3.432   0.866
  601SOL     OW 1815   0.459   3.014   0.741
  601SOL    HW1 1816   0.388   2.987   0.806
  601SOL    HW2 1817   0.433   2.986   0.648
  602SOL     OW 1818   1.271   3.659   0.591
  602SOL    HW1 1819   1.315   3.723   0.527
  602SOL    HW2 1820   1.221   3.711   0.661
  603SOL     OW 1821   1.032   2.411   0.016
  603SOL    HW1 1822   0.991   2.493  -0.023
  603SOL    HW2 1823   1.096   2.437   0.089
  604SOL     OW 1824   0.078   2.418   1.386
  604SOL    HW1 1825   0.170   2.417   1.345
  604SOL    HW2 1826   0.072   2.492   1.453
  605SOL     OW 1827   0.561   2.084   1.147
  605SOL    HW1 1828   0.599   2.000   1.184
  605SOL    HW2 1829   0.473   2.103   1.191
  606SOL     OW 1830   0.866   2.316   0.642
  606SOL    HW1 1831   0.834   2.388   0.580
  606SOL    HW2 1832   0.890   2.235   0.589
  607SOL     OW 1833   1.017   1.901   0.753
  607SOL    HW1 1834   0.945   1.906   0.684
  607SOL    HW2 1835   0.993   1.832   0.822
  608SOL     OW 1836   1.429   3.035   0.867
  608SOL    HW1 1837   1.374   2.951   0.860
  608SOL    HW2 1838   1.455   3.064   0.775
  609SOL     OW 1839   1.466   2.452   0.992
  609SOL    HW1 1840   1.436   2.357   0.999
  609SOL    HW2 1841   1.539   2.468   1.058
  610SOL     OW 1842   1.857   2.695   0.377
  610SOL    HW1 1843   1.899   2.631   0.441
  610SOL    HW2 1844   1.819   2.644   0.299
  611SOL     OW 1845   0.488   3.247   0.174
  611SOL    HW1 1846   0.401   3.232   0.221
  611SOL    HW2 1847   0.471   3.273   0.079
  612SOL     OW 1848   1.664   3.142   0.657
  612SOL    HW1 1849   1.763   3.150   0.671
  612SOL    HW2 1850   1.619   3.226   0.688
  613SOL     OW 1851   1.390   2.437   0.078
  613SOL    HW1 1852   1.336   2.416   0.159
  613SOL    HW2 1853   1.481   2.396   0.087
  614SOL     OW 1854   0.527   2.118   0.328
  614SOL    HW1 1855   0.554   2.059   0.253
  614SOL    HW2 1856   0.527   2.213   0.297
  615SOL     OW 1857   1.754   3.085   1.588
  615SOL    HW1 1858   1.845   3.046   1.575
  615SOL    HW2 1859   1.762   3.181   1.612
  616SOL     OW 1860   1.064   3.209   1.340
  616SOL    HW1 1861   0.984   3.186   1.395
  616SOL    HW2 1862   1.147   3.183   1.389
  617SOL     OW 1863   1.592   3.491   1.625
  617SOL    HW1 1864   1.619   3.525   1.535
  617SOL    HW2 1865   1.671   3.453   1.671
  618SOL     OW 1866   1.111   3.057   1.100
  618SOL    HW1 1867   1.071   3.101   1.181
  618SOL    HW2 1868   1.070   3.094   1.017
  619SOL     OW 1869   1.638   2.961   1.079
  619SOL    HW1 1870   1.643   3.042   1.138
  619SOL    HW2 1871   1.552   2.963   1.028
  620SOL     OW 1872   0.915   1.951   1.402
  620SOL    HW1 1873   0.940   1.931   1.307
  620SOL    HW2 1874   0.987   2.007   1.444
  621SOL     OW 1875   0.980   2.978   1.719
  621SOL    HW1 1876   0.881   2.984   1.729
  621SOL    HW2 1877   1.003   2.898   1.663
  622SOL     OW 1878   0.705   2.912   0.368
  622SOL    HW1 1879   0.691   2.919   0.467
  622SOL    HW2 1880   0.789   2.861   0.350
  623SOL     OW 1881   0.410   2.675   1.251
  623SOL    HW1 1882   0.496   2.687   1.301
  623SOL    HW2 1883   0.368   2.588   1.278
  624SOL     OW 1884   1.274   2.248   1.262
  624SOL    HW1 1885   1.295   2.322   1.326
  624SOL    HW2 1886   1.185   2.265   1.219
  625SOL     OW 1887   0.064   3.426   1.331
  625SOL    HW1 1888   0.018   3.508   1.297
  625SOL    HW2 1889   0.162   3.445   1.340
  626SOL     OW 1890   0.367   2.962   0.501
  626SOL    HW1 1891   0.360   3.045   0.445
  626SOL    HW2 1892   0.371   2.882   0.441
  627SOL     OW 1893   0.566   2.399   0.865
  627SOL    HW1 1894   0.578   2.465   0.791
  627SOL    HW2 1895   0.612   2.433   0.948
  628SOL     OW 1896   1.252   3.210   0.388
  628SOL    HW1 1897   1.302   3.287   0.428
  628SOL    HW2 1898   1.157   3.212   0.420
  629SOL     OW 1899   1.272   3.307   1.142
  629SOL    HW1 1900   1.319   3.320   1.229
  629SOL    HW2 1901   1.206   3.233   1.151
  630SOL     OW 1902   1.582   2.501   0.472
  630SOL    HW1 1903   1.551   2.562   0.545
  630SOL    HW2 1904   1.632   2.553   0.403
  631SOL     OW 1905   0.354   3.372   1.329
  631SOL    HW1 1906   0.333   3.328   1.242
  631SOL    HW2 1907   0.451   3.398   1.332
  632SOL     OW 1908   0.402   2.613   1.598
  632SOL    HW1 1909   0.470   2.668   1.551
  632SOL    HW2 1910   0.442   2.525   1.625
  633SOL     OW 1911   1.587   2.641   1.670
  633SOL    HW1 1912   1.495   2.679   1.665
  633SOL    HW2 1913   1.647   2.688   1.605
  634SOL     OW 1914   1.013   1.967   1.770
  634SOL    HW1 1915   1.019   2.052   1.718
  634SOL    HW2 1916   1.045   1.891   1.713
  635SOL     OW 1917   0.504   1.912   1.740
  635SOL    HW1 1918   0.462   1.855   1.670
  635SOL    HW2 1919   0.438   1.981   1.772
  636SOL     OW 1920   0.573   2.732   1.029
  636SOL    HW1 1921   0.617   2.821   1.020
  636SOL    HW2 1922   0.510   2.732   1.106
  637SOL     OW 1923   1.360   2.724   1.045
  637SOL    HW1 1924   1.285   2.724   0.979
  637SOL    HW2 1925   1.397   2.632   1.054
  638SOL     OW 1926   1.209   2.387   0.275
  638SOL    HW1 1927   1.222   2.303   0.329
  638SOL    HW2 1928   1.180   2.461   0.335
  639SOL     OW 1929   0.307   2.075   1.231
  639SOL    HW1 1930   0.284   2.112   1.321
  639SOL    HW2 1931   0.277   1.980   1.225
  640SOL     OW 1932   0.037   3.172   1.282
  640SOL    HW1 1933   0.090   3.123   1.350
  640SOL    HW2 1934   0.059   3.270   1.287
  641SOL     OW 1935   0.732   2.496   1.064
  641SOL    HW1 1936   0.791   2.470   0.988
  641SOL    HW2 1937   0.704   2.592   1.053
  642SOL     OW 1938   1.728   2.797   1.854
  642SOL    HW1 1939   1.682   2.790   1.765
  642SOL    HW2 1940   1.666   2.841   1.920
  643SOL     OW 1941   0.307   1.925   0.618
  643SOL    HW1 1942   0.296   2.019   0.651
  643SOL    HW2 1943   0.302   1.862   0.695
  644SOL     OW 1944   1.622   2.229   0.374
  644SOL    HW1 1945   1.624   2.153   0.438
  644SOL    HW2 1946   1.574   2.306   0.414
  645SOL     OW 1947   1.023   2.628   0.966
  645SOL    HW1 1948   1.038   2.649   1.062
  645SOL    HW2 1949   0.993   2.533   0.957
  646SOL     OW 1950   0.980   3.435   1.700
  646SOL    HW1 1951   0.960   3.479   1.612
  646SOL    HW2 1952   1.019   3.344   1.684
  647SOL     OW 1953   1.859   3.380   1.605
  647SOL    HW1 1954   1.873   3.407   1.510
  647SOL    HW2 1955   1.942   3.402   1.658
  648SOL     OW 1956   0.350   2.760   1.804
  648SOL    HW1 1957   0.426   2.804   1.852
  648SOL    HW2 1958   0.385   2.713   1.722
  649SOL     OW 1959   1.540   2.136   0.125
  649SOL    HW1 1960   1.479   2.061   0.148
  649SOL    HW2 1961   1.562   2.188   0.208
  650SOL     OW 1962   1.303   2.700   0.042
  650SOL    HW1 1963   1.337   2.607   0.057
  650SOL    HW2 1964   1.321   2.727  -0.053
  651SOL     OW 1965   1.068   3.195   0.849
  651SOL    HW1 1966   1.075   3.111   0.794
  651SOL    HW2 1967   1.130   3.264   0.813
  652SOL     OW 1968   0.319   2.672   0.949
  652SOL    HW1 1969   0.412   2.708   0.954
  652SOL    HW2 1970   0.313   2.587   1.001
  653SOL     OW 1971   0.339   2.371   1.006
  653SOL    HW1 1972   0.287   2.288   0.989
  653SOL    HW2 1973   0.416   2.376   0.942
  654SOL     OW 1974   1.138   2.242   1.678
  654SOL    HW1 1975   1.093   2.305   1.742
  654SOL    HW2 1976   1.231   2.273   1.661
  655SOL     OW 1977   1.160   2.069   1.477
  655SOL    HW1 1978   1.160   2.133   1.554
  655SOL    HW2 1979   1.188   2.117   1.394
  656SOL     OW 1980   0.008   3.188   0.200
  656SOL    HW1 1981  -0.085   3.209   0.169
  656SOL    HW2 1982   0.018   3.089   0.213
  657SOL     OW 1983   0.088   3.663   0.927
  657SOL    HW1 1984   0.046   3.577   0.900
  657SOL    HW2 1985   0.182   3.666   0.893
  658SOL     OW 1986   0.504   3.430   0.910
  658SOL    HW1 1987   0.570   3.504   0.919
  658SOL    HW2 1988   0.548   3.351   0.868
  659SOL     OW 1989   1.002   2.658   1.238
  659SOL    HW1 1990   1.043   2.626   1.324
  659SOL    HW2 1991   0.906   2.631   1.235
  660SOL     OW 1992   0.040   2.406   1.114
  660SOL    HW1 1993   0.125   2.373   1.073
  660SOL    HW2 1994   0.053   2.421   1.212
  661SOL     OW 1995   0.189   2.382   1.722
  661SOL    HW1 1996   0.248   2.342   1.652
  661SOL    HW2 1997   0.131   2.453   1.681
  662SOL     OW 1998   1.369   2.812   1.660
  662SOL    HW1 1999   1.408   2.901   1.680
  662SOL    HW2 2000   1.379   2.792   1.563
  663SOL     OW 2001   0.815   2.434   0.325
  663SOL    HW1 2002   0.822   2.345   0.279
  663SOL    HW2 2003   0.721   2.468   0.317
  664SOL     OW 2004   1.657   2.466   1.206
  664SOL    HW1 2005   1.619   2.397   1.268
  664SOL    HW2 2006   1.739   2.430   1.162
  665SOL     OW 2007   0.252   3.426   1.744
  665SOL    HW1 2008   0.222   3.483   1.820
  665SOL    HW2 2009   0.245   3.329   1.770
  666SOL     OW 2010   0.671   2.326   1.269
  666SOL    HW1 2011   0.637   2.237   1.239
  666SOL    HW2 2012   0.697   2.380   1.189
  667SOL     OW 2013   0.930   3.540   1.465
  667SOL    HW1 2014   0.906   3.522   1.370
  667SOL    HW2 2015   0.960   3.634   1.475
  668SOL     OW 2016   0.473   2.362   0.191
  668SOL    HW1 2017   0.534   2.442   0.195
  668SOL    HW2 2018   0.378   2.393   0.198
  669SOL     OW 2019   0.159   2.999   1.466
  669SOL    HW1 2020   0.181   2.938   1.542
  669SOL    HW2 2021   0.169   2.950   1.380
  670SOL     OW 2022   1.347   2.921   1.234
  670SOL    HW1 2023   1.371   2.858   1.160
  670SOL    HW2 2024   1.257   2.961   1.216
  671SOL     OW 2025   1.302   2.717   0.309
  671SOL    HW1 2026   1.216   2.686   0.351
  671SOL    HW2 2027   1.298   2.703   0.210
  672SOL     OW 2028   1.759   3.609   1.154
  672SOL    HW1 2029   1.820   3.639   1.081
  672SOL    HW2 2030   1.721   3.520   1.132
  673SOL     OW 2031   1.252   3.593   1.128
  673SOL    HW1 2032   1.336   3.598   1.074
  673SOL    HW2 2033   1.229   3.497   1.146
  674SOL     OW 2034   0.083   3.120   1.022
  674SOL    HW1 2035   0.078   3.119   1.122
  674SOL    HW2 2036   0.000   3.079   0.984
  675SOL     OW 2037   0.688   3.524   1.716
  675SOL    HW1 2038   0.632   3.605   1.725
  675SOL    HW2 2039   0.740   3.528   1.630
  676SOL     OW 2040   0.903   1.948   0.133
  676SOL    HW1 2041   0.954   1.949   0.047
  676SOL    HW2 2042   0.959   1.906   0.204
  677SOL     OW 2043   1.726   1.997   0.523
  677SOL    HW1 2044   1.799   1.980   0.456
  677SOL    HW2 2045   1.695   1.910   0.561
  678SOL     OW 2046   1.388   3.435   0.477
  678SOL    HW1 2047   1.455   3.447   0.403
  678SOL    HW2 2048   1.348   3.524   0.500
  679SOL     OW 2049   0.130   3.656   1.851
  679SOL    HW1 2050   0.089   3.582   1.904
  679SOL    HW2 2051   0.194   3.707   1.909
  680SOL     OW 2052   1.280   2.789   0.672
  680SOL    HW1 2053   1.340   2.708   0.674
  680SOL    HW2 2054   1.320   2.858   0.612
  681SOL     OW 2055   0.830   3.135   1.422
  681SOL    HW1 2056   0.825   3.168   1.517
  681SOL    HW2 2057   0.744   3.154   1.376
  682SOL     OW 2058   0.672   3.478   0.154
  682SOL    HW1 2059   0.681   3.488   0.055
  682SOL    HW2 2060   0.632   3.389   0.175
  683SOL     OW 2061   1.650   3.582   1.394
  683SOL    HW1 2062   1.703   3.592   1.310
  683SOL    HW2 2063   1.623   3.672   1.428
  684SOL     OW 2064   1.841   2.037   0.963
  684SOL    HW1 2065   1.880   1.952   0.927
  684SOL    HW2 2066   1.743   2.039   0.944
  685SOL     OW 2067   0.263   2.188   0.720
  685SOL    HW1 2068   0.184   2.239   0.686
  685SOL    HW2 2069   0.254   2.173   0.818
  686SOL     OW 2070   1.194   3.474   0.031
  686SOL    HW1 2071   1.200   3.381   0.068
  686SOL    HW2 2072   1.135   3.474  -0.049
  687SOL     OW 2073   0.822   2.864   1.372
  687SOL    HW1 2074   0.862   2.863   1.280
  687SOL    HW2 2075   0.832   2.956   1.412
  688SOL     OW 2076   0.916   2.772   0.291
  688SOL    HW1 2077   0.979   2.810   0.223
  688SOL    HW2 2078   0.956   2.689   0.330
  689SOL     OW 2079   1.504   3.469   0.044
  689SOL    HW1 2080   1.412   3.506   0.051
  689SOL    HW2 2081   1.542   3.489  -0.046
  690SOL     OW 2082   0.372   3.150   1.490
  690SOL    HW1 2083   0.359   3.243   1.456
  690SOL    HW2 2084   0.288   3.098   1.477
  691SOL     OW 2085   1.614   3.154   1.289
  691SOL    HW1 2086   1.674   3.157   1.369
  691SOL    HW2 2087   1.539   3.218   1.302
  692SOL     OW 2088   1.039   2.960   0.696
  692SOL    HW1 2089   0.969   2.913   0.750
  692SOL    HW2 2090   1.098   2.892   0.653
  693SOL     OW 2091   1.014   2.098   0.971
  693SOL    HW1 2092   1.006   2.062   0.878
  693SOL    HW2 2093   1.012   2.022   1.036
  694SOL     OW 2094   0.590   3.349   0.491
  694SOL    HW1 2095   0.632   3.291   0.421
  694SOL    HW2 2096   0.546   3.428   0.447
  695SOL     OW 2097   1.709   2.247   1.381
  695SOL    HW1 2098   1.782   2.316   1.385
  695SOL    HW2 2099   1.737   2.172   1.322
  696SOL     OW 2100   0.255   3.210   0.290
  696SOL    HW1 2101   0.159   3.211   0.263
  696SOL    HW2 2102   0.267   3.263   0.374
  697SOL     OW 2103   0.105   2.875   1.726
  697SOL    HW1 2104   0.028   2.842   1.780
  697SOL    HW2 2105   0.190   2.845   1.768
  698SOL     OW 2106   0.672   2.065   1.489
  698SOL    HW1 2107   0.762   2.049   1.449
  698SOL    HW2 2108   0.680   2.070   1.588
  699SOL     OW 2109   0.075   2.207   0.033
  699SOL    HW1 2110  -0.017   2.179   0.004
  699SOL    HW2 2111   0.106   2.284  -0.023
  700SOL     OW 2112   1.440   2.718   1.398
  700SOL    HW1 2113   1.383   2.770   1.335
  700SOL    HW2 2114   1.536   2.730   1.374
  701SOL     OW 2115   0.072   2.028   0.318
  701SOL    HW1 2116   0.055   2.111   0.264
  701SOL    HW2 2117   0.162   1.991   0.296
  702SOL     OW 2118   1.183   3.197   0.119
  702SOL    HW1 2119   1.084   3.186   0.121
  702SOL    HW2 2120   1.217   3.212   0.212
  703SOL     OW 2121   0.613   2.704   1.431
  703SOL    HW1 2122   0.669   2.785   1.414
  703SOL    HW2 2123   0.672   2.624   1.434
  704SOL     OW 2124   1.493   3.629   0.959
  704SOL    HW1 2125   1.526   3.693   0.890
  704SOL    HW2 2126   1.559   3.623   1.034
  705SOL     OW 2127   0.716   2.427   1.708
  705SOL    HW1 2128   0.735   2.492   1.782
  705SOL    HW2 2129   0.776   2.347   1.717
  706SOL     OW 2130   1.450   3.082   1.633
  706SOL    HW1 2131   1.441   3.072   1.732
  706SOL    HW2 2132   1.546   3.075   1.607
  707SOL     OW 2133   0.390   3.603   1.560
  707SOL    HW1 2134   0.299   3.644   1.558
  707SOL    HW2 2135   0.383   3.509   1.592
  708SOL     OW 2136   1.674   2.745   1.254
  708SOL    HW1 2137   1.647   2.656   1.217
  708SOL    HW2 2138   1.675   2.813   1.181
  709SOL     OW 2139   1.225   2.187   0.449
  709SOL    HW1 2140   1.290   2.113   0.438
  709SOL    HW2 2141   1.245   2.237   0.533
  710SOL     OW 2142   0.594   2.607   0.652
  710SOL    HW1 2143   0.644   2.692   0.633
  710SOL    HW2 2144   0.506   2.609   0.604
  711SOL     OW 2145   1.777   2.204   1.642
  711SOL    HW1 2146   1.760   2.235   1.548
  711SOL    HW2 2147   1.693   2.167   1.680
  712SOL     OW 2148   1.730   2.796   1.517
  712SOL    HW1 2149   1.768   2.887   1.532
  712SOL    HW2 2150   1.722   2.779   1.418
  713SOL     OW 2151   0.859   3.236   0.016
  713SOL    HW1 2152   0.813   3.251   0.104
  713SOL    HW2 2153   0.903   3.321  -0.014
  714SOL     OW 2154   0.661   3.652   0.953
  714SOL    HW1 2155   0.615   3.740   0.940
  714SOL    HW2 2156   0.760   3.664   0.946
  715SOL     OW 2157   0.859   2.818   0.861
  715SOL    HW1 2158   0.913   2.749   0.909
  715SOL    HW2 2159   0.827   2.887   0.927
  716SOL     OW 2160   1.083   2.846   0.087
  716SOL    HW1 2161   1.060   2.899   0.005
  716SOL    HW2 2162   1.164   2.790   0.068
  717SOL     OW 2163   1.861   3.431   0.851
  717SOL    HW1 2164   1.790   3.419   0.781
  717SOL    HW2 2165   1.862   3.352   0.911
  718SOL     OW 2166   0.221   3.176   1.844
  718SOL    HW1 2167   0.156   3.103   1.823
  718SOL    HW2 2168   0.225   3.190   1.942
  719SOL     OW 2169   0.079   3.102   0.653
  719SOL    HW1 2170   0.078   3.055   0.741
  719SOL    HW2 2171   0.161   3.074   0.602
  720SOL     OW 2172   0.672   3.253   1.624
  720SOL    HW1 2173   0.594   3.203   1.662
  720SOL    HW2 2174   0.669   3.348   1.655
  721SOL     OW 2175   1.824   2.054   1.227
  721SOL    HW1 2176   1.820   1.964   1.271
  721SOL    HW2 2177   1.827   2.043   1.128
  722SOL     OW 2178   0.428   2.286   0.520
  722SOL    HW1 2179   0.458   2.214   0.458
  722SOL    HW2 2180   0.389   2.246   0.603
  723SOL     OW 2181   1.705   3.349   1.104
  723SOL    HW1 2182   1.612   3.324   1.077
  723SOL    HW2 2183   1.731   3.299   1.186
  724SOL     OW 2184   0.317   2.409   1.280
  724SOL    HW1 2185   0.355   2.350   1.352
  724SOL    HW2 2186   0.357   2.383   1.192
  725SOL     OW 2187   0.812   3.448   0.687
  725SOL    HW1 2188   0.844   3.458   0.593
  725SOL    HW2 2189   0.733   3.386   0.689
  726SOL     OW 2190   1.424   2.076   1.112
  726SOL    HW1 2191   1.476   2.011   1.167
  726SOL    HW2 2192   1.375   2.139   1.173
  727SOL     OW 2193   1.001   1.896   1.154
  727SOL    HW1 2194   0.938   1.824   1.123
  727SOL    HW2 2195   1.094   1.860   1.154
  728SOL     OW 2196   0.770   3.192   0.301
  728SOL    HW1 2197   0.724   3.105   0.318
  728SOL    HW2 2198   0.861   3.189   0.342
  729SOL     OW 2199   0.618   3.429   1.284
  729SOL    HW1 2200   0.613   3.511   1.341
  729SOL    HW2 2201   0.707   3.426   1.239
  730SOL     OW 2202   1.352   1.914   0.168
  730SOL    HW1 2203   1.387   1.873   0.084
  730SOL    HW2 2204   1.262   1.876   0.188
  731SOL     OW 2205   1.300   2.315   0.691
  731SOL    HW1 2206   1.241   2.395   0.695
  731SOL    HW2 2207   1.315   2.280   0.784
  732SOL     OW 2208   1.593   2.083   0.882
  732SOL    HW1 2209   1.509   2.082   0.936
  732SOL    HW2 2210   1.595   2.166   0.826
  733SOL     OW 2211   0.039   2.939   0.300
  733SOL    HW1 2212   0.138   2.928   0.291
  733SOL    HW2 2213  -0.001   2.853   0.332
  734SOL     OW 2214   0.875   3.508   0.337
  734SOL    HW1 2215   0.798   3.473   0.283
  734SOL    HW2 2216   0.843   3.579   0.399
  735SOL     OW 2217   0.230   2.490   1.975
  735SOL    HW1 2218   0.137   2.488   2.012
  735SOL    HW2 2219   0.231   2.451   1.883
  736SOL     OW 2220   0.225   2.137   2.858
  736SOL    HW1 2221   0.260   2.120   2.950
  736SOL    HW2 2222   0.137   2.092   2.846
  737SOL     OW 2223   0.019   2.230   2.509
  737SOL    HW1 2224  -0.063   2.273   2.548
  737SOL    HW2 2225  -0.009   2.157   2.446
  738SOL     OW 2226   0.569   3.137   3.027
  738SOL    HW1 2227   0.476   3.130   2.990
  738SOL    HW2 2228   0.580   3.226   3.071
  739SOL     OW 2229   1.555   3.373   2.565
  739SOL    HW1 2230   1.498   3.357   2.646
  739SOL    HW2 2231   1.496   3.383   2.485
  740SOL     OW 2232   1.135   2.565   2.579
  740SOL    HW1 2233   1.192   2.643   2.554
  740SOL    HW2 2234   1.075   2.591   2.655
  741SOL     OW 2235   1.755   2.469   2.093
  741SOL    HW1 2236   1.743   2.456   1.994
  741SOL    HW2 2237   1.725   2.388   2.142
  742SOL     OW 2238   0.768   3.006   2.885
  742SOL    HW1 2239   0.690   3.023   2.945
  742SOL    HW2 2240   0.802   3.093   2.849
  743SOL     OW 2241   0.850   2.660   3.685
  743SOL    HW1 2242   0.846   2.736   3.750
  743SOL    HW2 2243   0.872   2.696   3.594
  744SOL     OW 2244   0.685   2.874   2.527
  744SOL    HW1 2245   0.754   2.858   2.597
  744SOL    HW2 2246   0.612   2.931   2.565
  745SOL     OW 2247   0.686   3.023   3.665
  745SOL    HW1 2248   0.746   3.102   3.679
  745SOL    HW2 2249   0.600   3.054   3.624
  746SOL     OW 2250   0.335   3.297   2.923
  746SOL    HW1 2251   0.257   3.266   2.870
  746SOL    HW2 2252   0.393   3.355   2.866
  747SOL     OW 2253   1.460   3.367   3.201
  747SOL    HW1 2254   1.484   3.461   3.227
  747SOL    HW2 2255   1.444   3.313   3.283
  748SOL     OW 2256   0.438   2.254   3.361
  748SOL    HW1 2257   0.520   2.198   3.370
  748SOL    HW2 2258   0.357   2.196   3.365
  749SOL     OW 2259   1.603   2.309   2.599
  749SOL    HW1 2260   1.529   2.355   2.549
  749SOL    HW2 2261   1.654   2.377   2.652
  750SOL     OW 2262   0.231   3.575   2.345
  750SOL    HW1 2263   0.265   3.652   2.399
  750SOL    HW2 2264   0.275   3.575   2.255
  751SOL     OW 2265   1.127   3.203   3.552
  751SOL    HW1 2266   1.174   3.203   3.640
  751SOL    HW2 2267   1.079   3.116   3.541
  752SOL     OW 2268   0.230   3.296   2.400
  752SOL    HW1 2269   0.204   3.392   2.400
  752SOL    HW2 2270   0.159   3.242   2.445
  753SOL     OW 2271   0.240   2.953   2.748
  753SOL    HW1 2272   0.254   2.869   2.800
  753SOL    HW2 2273   0.185   3.017   2.803
  754SOL     OW 2274   0.620   3.648   3.301
  754SOL    HW1 2275   0.528   3.631   3.336
  754SOL    HW2 2276   0.648   3.740   3.327
  755SOL     OW 2277   0.606   2.826   1.985
  755SOL    HW1 2278   0.613   2.910   1.931
  755SOL    HW2 2279   0.652   2.839   2.073
  756SOL     OW 2280   1.594   1.976   3.342
  756SOL    HW1 2281   1.576   2.043   3.270
  756SOL    HW2 2282   1.591   2.022   3.431
  757SOL     OW 2283   0.122   2.505   2.425
  757SOL    HW1 2284   0.077   2.417   2.442
  757SOL    HW2 2285   0.121   2.559   2.509
  758SOL     OW 2286   1.842   3.629   2.221
  758SOL    HW1 2287   1.896   3.600   2.301
  758SOL    HW2 2288   1.872   3.719   2.192
  759SOL     OW 2289   0.027   3.458   1.979
  759SOL    HW1 2290   0.008   3.362   2.000
  759SOL    HW2 2291  -0.006   3.516   2.054
  760SOL     OW 2292   1.689   2.784   2.474
  760SOL    HW1 2293   1.784   2.755   2.482
  760SOL    HW2 2294   1.681   2.849   2.399
  761SOL     OW 2295   1.641   2.970   2.294
  761SOL    HW1 2296   1.727   2.972   2.242
  761SOL    HW2 2297   1.655   3.017   2.382
  762SOL     OW 2298   0.113   2.599   3.459
  762SOL    HW1 2299   0.201   2.586   3.504
  762SOL    HW2 2300   0.100   2.696   3.437
  763SOL     OW 2301   0.613   3.227   2.588
  763SOL    HW1 2302   0.564   3.140   2.597
  763SOL    HW2 2303   0.590   3.270   2.501
  764SOL     OW 2304   1.293   3.090   3.285
  764SOL    HW1 2305   1.330   3.017   3.227
  764SOL    HW2 2306   1.345   3.095   3.370
  765SOL     OW 2307   0.809   1.866   2.364
  765SOL    HW1 2308   0.849   1.957   2.355
  765SOL    HW2 2309   0.709   1.874   2.370
  766SOL     OW 2310   0.197   2.838   3.126
  766SOL    HW1 2311   0.286   2.793   3.112
  766SOL    HW2 2312   0.124   2.773   3.107
  767SOL     OW 2313   1.525   2.861   2.052
  767SOL    HW1 2314   1.462   2.785   2.065
  767SOL    HW2 2315   1.573   2.879   2.138
  768SOL     OW 2316   1.187   3.654   3.478
  768SOL    HW1 2317   1.211   3.714   3.402
  768SOL    HW2 2318   1.194   3.559   3.448
  769SOL     OW 2319   0.317   2.113   3.663
  769SOL    HW1 2320   0.388   2.184   3.669
  769SOL    HW2 2321   0.229   2.152   3.691
  770SOL     OW 2322   1.466   3.279   2.815
  770SOL    HW1 2323   1.407   3.285   2.895
  770SOL    HW2 2324   1.451   3.191   2.769
  771SOL     OW 2325   1.667   3.576   2.434
  771SOL    HW1 2326   1.626   3.553   2.346
  771SOL    HW2 2327   1.649   3.502   2.499
  772SOL     OW 2328   0.598   2.591   2.132
  772SOL    HW1 2329   0.622   2.660   2.064
  772SOL    HW2 2330   0.520   2.624   2.186
  773SOL     OW 2331   1.281   2.207   2.806
  773SOL    HW1 2332   1.195   2.157   2.793
  773SOL    HW2 2333   1.343   2.153   2.862
  774SOL     OW 2334   1.576   3.524   2.169
  774SOL    HW1 2335   1.665   3.570   2.172
  774SOL    HW2 2336   1.555   3.500   2.074
  775SOL     OW 2337   0.807   2.467   3.327
  775SOL    HW1 2338   0.760   2.464   3.416
  775SOL    HW2 2339   0.756   2.412   3.261
  776SOL     OW 2340   1.394   2.331   3.536
  776SOL    HW1 2341   1.374   2.374   3.624
  776SOL    HW2 2342   1.472   2.269   3.545
  777SOL     OW 2343   0.973   2.752   3.434
  777SOL    HW1 2344   1.019   2.668   3.405
  777SOL    HW2 2345   0.917   2.786   3.359
  778SOL     OW 2346   0.991   2.272   3.104
  778SOL    HW1 2347   0.914   2.306   3.158
  778SOL    HW2 2348   0.957   2.221   3.025
  779SOL     OW 2349   1.041   2.563   2.291
  779SOL    HW1 2350   1.067   2.559   2.387
  779SOL    HW2 2351   0.956   2.512   2.277
  780SOL     OW 2352   0.076   2.673   2.651
  780SOL    HW1 2353   0.175   2.661   2.660
  780SOL    HW2 2354   0.052   2.768   2.672
  781SOL     OW 2355   0.130   3.683   3.433
  781SOL    HW1 2356   0.120   3.668   3.532
  781SOL    HW2 2357   0.044   3.719   3.397
  782SOL     OW 2358   0.865   2.210   2.057
  782SOL    HW1 2359   0.924   2.273   2.008
  782SOL    HW2 2360   0.884   2.116   2.028
  783SOL     OW 2361   1.719   2.447   3.693
  783SOL    HW1 2362   1.693   2.536   3.657
  783SOL    HW2 2363   1.717   2.379   3.620
  784SOL     OW 2364   1.362   3.006   2.407
  784SOL    HW1 2365   1.445   2.977   2.359
  784SOL    HW2 2366   1.313   3.073   2.351
  785SOL     OW 2367   0.550   2.058   2.747
  785SOL    HW1 2368   0.545   2.053   2.847
  785SOL    HW2 2369   0.552   2.154   2.718
  786SOL     OW 2370   1.008   3.318   2.339
  786SOL    HW1 2371   0.962   3.390   2.287
  786SOL    HW2 2372   1.004   3.338   2.437
  787SOL     OW 2373   0.351   3.663   2.715
  787SOL    HW1 2374   0.401   3.577   2.721
  787SOL    HW2 2375   0.416   3.740   2.712
  788SOL     OW 2376   1.795   2.928   2.735
  788SOL    HW1 2377   1.733   2.913   2.659
  788SOL    HW2 2378   1.743   2.939   2.820
  789SOL     OW 2379   1.227   3.412   3.368
  789SOL    HW1 2380   1.233   3.335   3.432
  789SOL    HW2 2381   1.175   3.386   3.288
  790SOL     OW 2382   0.321   2.805   2.104
  790SOL    HW1 2383   0.403   2.844   2.062
  790SOL    HW2 2384   0.294   2.723   2.055
  791SOL     OW 2385   1.458   2.597   2.590
  791SOL    HW1 2386   1.453   2.532   2.665
  791SOL    HW2 2387   1.538   2.656   2.603
  792SOL     OW 2388   0.461   3.128   3.589
  792SOL    HW1 2389   0.411   3.129   3.503
  792SOL    HW2 2390   0.398   3.110   3.665
  793SOL     OW 2391   1.111   3.638   2.099
  793SOL    HW1 2392   1.051   3.576   2.149
  793SOL    HW2 2393   1.142   3.594   2.014
  794SOL     OW 2394   0.202   2.147   3.360
  794SOL    HW1 2395   0.122   2.207   3.347
  794SOL    HW2 2396   0.192   2.098   3.446
  795SOL     OW 2397   1.632   3.239   1.943
  795SOL    HW1 2398   1.600   3.333   1.933
  795SOL    HW2 2399   1.556   3.176   1.931
  796SOL     OW 2400   0.464   3.605   2.185
  796SOL    HW1 2401   0.497   3.644   2.271
  796SOL    HW2 2402   0.540   3.598   2.120
  797SOL     OW 2403   1.400   1.969   2.288
  797SOL    HW1 2404   1.376   1.932   2.198
  797SOL    HW2 2405   1.499   1.985   2.292
  798SOL     OW 2406   0.249   3.647   3.103
  798SOL    HW1 2407   0.306   3.582   3.153
  798SOL    HW2 2408   0.233   3.614   3.010
  799SOL     OW 2409   0.940   3.560   2.766
  799SOL    HW1 2410   1.020   3.503   2.787
  799SOL    HW2 2411   0.891   3.520   2.689
  800SOL     OW 2412   0.382   2.562   2.342
  800SOL    HW1 2413   0.427   2.472   2.339
  800SOL    HW2 2414   0.288   2.551   2.375
  801SOL     OW 2415   1.547   2.084   3.591
  801SOL    HW1 2416   1.542   2.121   3.683
  801SOL    HW2 2417   1.475   2.015   3.579
  802SOL     OW 2418   0.614   1.984   1.979
  802SOL    HW1 2419   0.712   1.962   1.986
  802SOL    HW2 2420   0.583   1.967   1.886
  803SOL     OW 2421   0.781   2.126   3.611
  803SOL    HW1 2422   0.848   2.065   3.654
  803SOL    HW2 2423   0.708   2.145   3.676
  804SOL     OW 2424   0.888   3.376   3.057
  804SOL    HW1 2425   0.865   3.351   2.963
  804SOL    HW2 2426   0.949   3.307   3.096
  805SOL     OW 2427   1.351   2.452   3.295
  805SOL    HW1 2428   1.379   2.409   3.380
  805SOL    HW2 2429   1.376   2.548   3.296
  806SOL     OW 2430   0.803   3.264   2.786
  806SOL    HW1 2431   0.893   3.278   2.744
  806SOL    HW2 2432   0.732   3.266   2.715
  807SOL     OW 2433   0.922   2.365   2.761
  807SOL    HW1 2434   0.897   2.356   2.665
  807SOL    HW2 2435   0.970   2.283   2.792
  808SOL     OW 2436   0.539   1.926   2.374
  808SOL    HW1 2437   0.458   1.927   2.432
  808SOL    HW2 2438   0.542   2.009   2.319
  809SOL     OW 2439   1.434   3.050   1.903
  809SOL    HW1 2440   1.466   2.974   1.960
  809SOL    HW2 2441   1.342   3.077   1.933
  810SOL     OW 2442   0.297   1.897   2.033
  810SOL    HW1 2443   0.346   1.981   2.012
  810SOL    HW2 2444   0.359   1.832   2.078
  811SOL     OW 2445   0.935   2.098   2.342
  811SOL    HW1 2446   0.887   2.139   2.264
  811SOL    HW2 2447   1.034   2.096   2.323
  812SOL     OW 2448   1.076   2.545   3.326
  812SOL    HW1 2449   0.996   2.484   3.329
  812SOL    HW2 2450   1.157   2.492   3.302
  813SOL     OW 2451   1.227   3.432   2.655
  813SOL    HW1 2452   1.248   3.506   2.590
  813SOL    HW2 2453   1.295   3.432   2.728
  814SOL     OW 2454   0.459   3.014   2.603
  814SOL    HW1 2455   0.388   2.987   2.668
  814SOL    HW2 2456   0.433   2.986   2.510
  815SOL     OW 2457   1.271   3.659   2.453
  815SOL    HW1 2458   1.315   3.723   2.389
  815SOL    HW2 2459   1.221   3.711   2.523
  816SOL     OW 2460   1.032   2.411   1.878
  816SOL    HW1 2461   0.991   2.493   1.839
  816SOL    HW2 2462   1.096   2.437   1.951
  817SOL     OW 2463   0.078   2.418   3.248
  817SOL    HW1 2464   0.170   2.417   3.207
  817SOL    HW2 2465   0.072   2.492   3.315
  818SOL     OW 2466   0.561   2.084   3.009
  818SOL    HW1 2467   0.599   2.000   3.046
  818SOL    HW2 2468   0.473   2.103   3.053
  819SOL     OW 2469   0.866   2.316   2.504
  819SOL    HW1 2470   0.834   2.388   2.442
  819SOL    HW2 2471   0.890   2.235   2.451
  820SOL     OW 2472   1.017   1.901   2.615
  820SOL    HW1 2473   0.945   1.906   2.546
  820SOL    HW2 2474   0.993   1.832   2.684
  821SOL     OW 2475   1.429   3.035   2.729
  821SOL    HW1 2476   1.374   2.951   2.722
  821SOL    HW2 2477   1.455   3.064   2.637
  822SOL     OW 2478   1.466   2.452   2.854
  822SOL    HW1 2479   1.436   2.357   2.861
  822SOL    HW2 2480   1.539   2.468   2.920
  823SOL     OW 2481   1.857   2.695   2.239
  823SOL    HW1 2482   1.899   2.631   2.303
  823SOL    HW2 2483   1.819   2.644   2.161
  824SOL     OW 2484   0.488   3.247   2.036
  824SOL    HW1 2485   0.401   3.232   2.083
  824SOL    HW2 2486   0.471   3.273   1.941
  825SOL     OW 2487   1.664   3.142   2.519
  825SOL    HW1 2488   1.763   3.150   2.533
  825SOL    HW2 2489   1.619   3.226   2.550
  826SOL     OW 2490   1.390   2.437   1.940
  826SOL    HW1 2491   1.336   2.416   2.021
  826SOL    HW2 2492   1.481   2.396   1.949
  827SOL     OW 2493   0.527   2.118   2.190
  827SOL    HW1 2494   0.554   2.059   2.115
  827SOL    HW2 2495   0.527   2.213   2.159
  828SOL     OW 2496   1.754   3.085   3.450
  828SOL    HW1 2497   1.845   3.046   3.437
  828SOL    HW2 2498   1.762   3.181   3.474
  829SOL     OW 2499   1.064   3.209   3.202
  829SOL    HW1 2500   0.984   3.186   3.257
  829SOL    HW2 2501   1.147   3.183   3.251
  830SOL     OW 2502   1.592   3.491   3.487
  830SOL    HW1 2503   1.619   3.525   3.397
  830SOL    HW2 2504   1.671   3.453   3.533
  831SOL     OW 2505   1.111   3.057   2.962
  831SOL    HW1 2506   1.071   3.101   3.043
  831SOL    HW2 2507   1.070   3.094   2.879
  832SOL     OW 2508   1.638   2.961   2.941
  832SOL    HW1 2509   1.643   3.042   3.000
  832SOL    HW2 2510   1.552   2.963   2.890
  833SOL     OW 2511   0.915   1.951   3.264
  833SOL    HW1 2512   0.940   1.931   3.169
  833SOL    HW2 2513   0.987   2.007   3.306
  834SOL     OW 2514   0.980   2.978   3.581
  834SOL    HW1 2515   0.881   2.984   3.591
  834SOL    HW2 2516   1.003   2.898   3.525
  835SOL     OW 2517   0.705   2.912   2.230
  835SOL    HW1 2518   0.691   2.919   2.329
  835SOL    HW2 2519   0.789   2.861   2.212
  836SOL     OW 2520   0.410   2.675   3.113
  836SOL    HW1 2521   0.496   2.687   3.163
  836SOL    HW2 2522   0.368   2.588   3.140
  837SOL     OW 2523   1.274   2.248   3.124
  837SOL    HW1 2524   1.295   2.322   3.188
  837SOL    HW2 2525   1.185   2.265   3.081
  838SOL     OW 2526   0.064   3.426   3.193
  838SOL    HW1 2527   0.018   3.508   3.159
  838SOL    HW2 2528   0.162   3.445   3.202
  839SOL     OW 2529   0.367   2.962   2.363
  839SOL    HW1 2530   0.360   3.045   2.307
  839SOL    HW2 2531   0.371   2.882   2.303
  840SOL     OW 2532   0.566   2.399   2.727
  840SOL    HW1 2533   0.578   2.465   2.653
  840SOL    HW2 2534   0.612   2.433   2.810
  841SOL     OW 2535   1.252   3.210   2.250
  841SOL    HW1 2536   1.302   3.287   2.290
  841SOL    HW2 2537   1.157   3.212   2.282
  842SOL     OW 2538   1.272   3.307   3.004
  842SOL    HW1 2539   1.319   3.320   3.091
  842SOL    HW2 2540   1.206   3.233   3.013
  843SOL     OW 2541   1.582   2.501   2.334
  843SOL    HW1 2542   1.551   2.562   2.407
  843SOL    HW2 2543   1.632   2.553   2.265
  844SOL     OW 2544   0.354   3.372   3.191
  844SOL    HW1 2545   0.333   3.328   3.104
  844SOL    HW2 2546   0.451   3.398   3.194
  845SOL     OW 2547   0.402   2.613   3.460
  845SOL    HW1 2548   0.470   2.668   3.413
  845SOL    HW2 2549   0.442   2.525   3.487
  846SOL     OW 2550   1.587   2.641   3.532
  846SOL    HW1 2551   1.495   2.679   3.527
  846SOL    HW2 2552   1.647   2.688   3.467
  847SOL     OW 2553   1.013   1.967   3.632
  847SOL    HW1 2554   1.019   2.052   3.580
  847SOL    HW2 2555   1.045   1.891   3.575
  848SOL     OW 2556   0.504   1.912   3.602
  848SOL    HW1 2557   0.462   1.855   3.532
  848SOL    HW2 2558   0.438   1.981   3.634
  849SOL     OW 2559   0.573   2.732   2.891
  849SOL    HW1 2560   0.617   2.821   2.882
  849SOL    HW2 2561   0.510   2.732   2.968
  850SOL     OW 2562   1.360   2.724   2.907
  850SOL    HW1 2563   1.285   2.724   2.841
  850SOL    HW2 2564   1.397   2.632   2.916
  851SOL     OW 2565   1.209   2.387   2.137
  851SOL    HW1 2566   1.222   2.303   2.191
  851SOL    HW2 2567   1.180   2.461   2.197
  852SOL     OW 2568   0.307   2.075   3.093
  852SOL    HW1 2569   0.284   2.112   3.183
  852SOL    HW2 2570   0.277   1.980   3.087
  853SOL     OW 2571   0.037   3.172   3.144
  853SOL    HW1 2572   0.090   3.123   3.212
  853SOL    HW2 2573   0.059   3.270   3.149
  854SOL     OW 2574   0.732   2.496   2.926
  854SOL    HW1 2575   0.791   2.470   2.850
  854SOL    HW2 2576   0.704   2.592   2.915
  855SOL     OW 2577   1.728   2.797   3.716
  855SOL    HW1 2578   1.682   2.790   3.627
  855SOL    HW2 2579   1.666   2.841   3.782
  856SOL     OW 2580   0.307   1.925   2.480
  856SOL    HW1 2581   0.296   2.019   2.513
  856SOL    HW2 2582   0.302   1.862   2.557
  857SOL     OW 2583   1.622   2.229   2.236
  857SOL    HW1 2584   1.624   2.153   2.300
  857SOL    HW2 2585   1.574   2.306   2.276
  858SOL     OW 2586   1.023   2.628   2.828
  858SOL    HW1 2587   1.038   2.649   2.924
  858SOL    HW2 2588   0.993   2.533   2.819
  859SOL     OW 2589   0.980   3.435   3.562
  859SOL    HW1 2590   0.960   3.479   3.474
  859SOL    HW2 2591   1.019   3.344   3.546
  860SOL     OW 2592   1.859   3.380   3.467
  860SOL    HW1 2593   1.873   3.407   3.372
  860SOL    HW2 2594   1.942   3.402   3.520
  861SOL     OW 2595   0.350   2.760   3.666
  861SOL    HW1 2596   0.426   2.804   3.714
  861SOL    HW2 2597   0.385   2.713   3.584
  862SOL     OW 2598   1.540   2.136   1.987
  862SOL    HW1 2599   1.479   2.061   2.010
  862SOL    HW2 2600   1.562   2.188   2.070
  863SOL     OW 2601   1.303   2.700   1.904
  863SOL    HW1 2602   1.337   2.607   1.919
  863SOL    HW2 2603   1.321   2.727   1.809
  864SOL     OW 2604   1.068   3.195   2.711
  864SOL    HW1 2605   1.075   3.111   2.656
  864SOL    HW2 2606   1.130   3.264   2.675
  865SOL     OW 2607   0.319   2.672   2.811
  865SOL    HW1 2608   0.412   2.708   2.816
  865SOL    HW2 2609   0.313   2.587   2.863
  866SOL     OW 2610   0.339   2.371   2.868
  866SOL    HW1 2611   0.287   2.288   2.851
  866SOL    HW2 2612   0.416   2.376   2.804
  867SOL     OW 2613   1.138   2.242   3.540
  867SOL    HW1 2614   1.093   2.305   3.604
  867SOL    HW2 2615   1.231   2.273   3.523
  868SOL     OW 2616   1.160   2.069   3.339
  868SOL    HW1 2617   1.160   2.133   3.416
  868SOL    HW2 2618   1.188   2.117   3.256
  869SOL     OW 2619   0.008   3.188   2.062
  869SOL    HW1 2620  -0.085   3.209   2.031
  869SOL    HW2 2621   0.018   3.089   2.075
  870SOL     OW 2622   0.088   3.663   2.789
  870SOL    HW1 2623   0.046   3.577   2.762
  870SOL    HW2 2624   0.182   3.666   2.755
  871SOL     OW 2625   0.504   3.430   2.772
  871SOL    HW1 2626   0.570   3.504   2.781
  871SOL    HW2 2627   0.548   3.351   2.730
  872SOL     OW 2628   1.002   2.658   3.100
  872SOL    HW1 2629   1.043   2.626   3.186
  872SOL    HW2 2630   0.906   2.631   3.097
  873SOL     OW 2631   0.040   2.406   2.976
  873SOL    HW1 2632   0.125   2.373   2.935
  873SOL    HW2 2633   0.053   2.421   3.074
  874SOL     OW 2634   0.189   2.382   3.584
  874SOL    HW1 2635   0.248   2.342   3.514
  874SOL    HW2 2636   0.131   2.453   3.543
  875SOL     OW 2637   1.369   2.812   3.522
  875SOL    HW1 2638   1.408   2.901   3.542
  875SOL    HW2 2639   1.379   2.792   3.425
  876SOL     OW 2640   0.815   2.434   2.187
  876SOL    HW1 2641   0.822   2.345   2.141
  876SOL    HW2 2642   0.721   2.468   2.179
  877SOL     OW 2643   1.657   2.466   3.068
  877SOL    HW1 2644   1.619   2.397   3.130
  877SOL    HW2 2645   1.739   2.430   3.024
  878SOL     OW 2646   0.252   3.426   3.606
  878SOL    HW1 2647   0.222   3.483   3.682
  878SOL    HW2 2648   0.245   3.329   3.632
  879SOL     OW 2649   0.671   2.326   3.131
  879SOL    HW1 2650   0.637   2.237   3.101
  879SOL    HW2 2651   0.697   2.380   3.051
  880SOL     OW 2652   0.930   3.540   3.327
  880SOL    HW1 2653   0.906   3.522   3.232
  880SOL    HW2 2654   0.960   3.634   3.337
  881SOL     OW 2655   0.473   2.362   2.053
  881SOL    HW1 2656   0.534   2.442   2.057
  881SOL    HW2 2657   0.378   2.393   2.060
  882SOL     OW 2658   0.159   2.999   3.328
  882SOL    HW1 2659   0.181   2.938   3.404
  882SOL    HW2 2660   0.169   2.950   3.242
  883SOL     OW 2661   1.347   2.921   3.096
  883SOL    HW1 2662   1.371   2.858   3.022
  883SOL    HW2 2663   1.257   2.961   3.078
  884SOL     OW 2664   1.302   2.717   2.171
  884SOL    HW1 2665   1.216   2.686   2.213
  884SOL    HW2 2666   1.298   2.703   2.072
  885SOL     OW 2667   1.759   3.609   3.016
  885SOL    HW1 2668   1.820   3.639   2.943
  885SOL    HW2 2669   1.721   3.520   2.994
  886SOL     OW 2670   1.252   3.593   2.990
  886SOL    HW1 2671   1.336   3.598   2.936
  886SOL    HW2 2672   1.229   3.497   3.008
  887SOL     OW 2673   0.083   3.120   2.884
  887SOL    HW1 2674   0.078   3.119   2.984
  887SOL    HW2 2675   0.000   3.079   2.846
  888SOL     OW 2676   0.688   3.524   3.578
  888SOL    HW1 2677   0.632   3.605   3.587
  888SOL    HW2 2678   0.740   3.528   3.492
  889SOL     OW 2679   1.726   1.997   2.385
  889SOL    HW1 2680   1.799   1.980   2.318
  889SOL    HW2 2681   1.695   1.910   2.423
  890SOL     OW 2682   1.388   3.435   2.339
  890SOL    HW1 2683   1.455   3.447   2.265
  890SOL    HW2 2684   1.348   3.524   2.362
  891SOL     OW 2685   0.130   3.656   3.713
  891SOL    HW1 2686   0.089   3.582   3.766
  891SOL    HW2 2687   0.194   3.707   3.771
  892SOL     OW 2688   1.280   2.789   2.534
  892SOL    HW1 2689   1.340   2.708   2.536
  892SOL    HW2 2690   1.320   2.858   2.474
  893SOL     OW 2691   0.830   3.135   3.284
  893SOL    HW1 2692   0.825   3.168   3.379
  893SOL    HW2 2693   0.744   3.154   3.238
  894SOL     OW 2694   0.672   3.478   2.016
  894SOL    HW1 2695   0.681   3.488   1.917
  894SOL    HW2 2696   0.632   3.389   2.037
  895SOL     OW 2697   1.650   3.582   3.256
  895SOL    HW1 2698   1.703   3.592   3.172
  895SOL    HW2 2699   1.623   3.672   3.290
  896SOL     OW 2700   1.841   2.037   2.825
  896SOL    HW1 2701   1.880   1.952   2.789
  896SOL    HW2 2702   1.743   2.039   2.806
  897SOL     OW 2703   0.263   2.188   2.582
  897SOL    HW1 2704   0.184   2.239   2.548
  897SOL    HW2 2705   0.254   2.173   2.680
  898SOL     OW 2706   1.194   3.474   1.893
  898SOL    HW1 2707   1.200   3.381   1.930
  898SOL    HW2 2708   1.135   3.474   1.813
  899SOL     OW 2709   0.822   2.864   3.234
  899SOL    HW1 2710   0.862   2.863   3.142
  899SOL    HW2 2711   0.832   2.956   3.274
  900SOL     OW 2712   0.916   2.772   2.153
  900SOL    HW1 2713   0.979   2.810   2.085
  900SOL    HW2 2714   0.956   2.689   2.192
  901SOL     OW 2715   1.504   3.469   1.906
  901SOL    HW1 2716   1.412   3.506   1.913
  901SOL    HW2 2717   1.542   3.489   1.816
  902SOL     OW 2718   0.372   3.150   3.352
  902SOL    HW1 2719   0.359   3.243   3.318
  902SOL    HW2 2720   0.288   3.098   3.339
  903SOL     OW 2721   1.614   3.154   3.151
  903SOL    HW1 2722   1.674   3.157   3.231
  903SOL    HW2 2723   1.539   3.218   3.164
  904SOL     OW 2724   1.039   2.960   2.558
  904SOL    HW1 2725   0.969   2.913   2.612
  904SOL    HW2 2726   1.098   2.892   2.515
  905SOL     OW 2727   1.014   2.098   2.833
  905SOL    HW1 2728   1.006   2.062   2.740
  905SOL    HW2 2729   1.012   2.022   2.898
  906SOL     OW 2730   0.590   3.349   2.353
  906SOL    HW1 2731   0.632   3.291   2.283
  906SOL    HW2 2732   0.546   3.428   2.309
  907SOL     OW 2733   1.709   2.247   3.243
  907SOL    HW1 2734   1.782   2.316   3.247
  907SOL    HW2 2735   1.737   2.172   3.184
  908SOL     OW 2736   0.255   3.210   2.152
  908SOL    HW1 2737   0.159   3.211   2.125
  908SOL    HW2 2738   0.267   3.263   2.236
  909SOL     OW 2739   0.105   2.875   3.588
  909SOL    HW1 2740   0.028   2.842   3.642
  909SOL    HW2 2741   0.190   2.845   3.630
  910SOL     OW 2742   0.672   2.065   3.351
  910SOL    HW1 2743   0.762   2.049   3.311
  910SOL    HW2 2744   0.680   2.070   3.450
  911SOL     OW 2745   0.075   2.207   1.895
  911SOL    HW1 2746  -0.017   2.179   1.866
  911SOL    HW2 2747   0.106   2.284   1.839
  912SOL     OW 2748   1.440   2.718   3.260
  912SOL    HW1 2749   1.383   2.770   3.197
  912SOL    HW2 2750   1.536   2.730   3.236
  913SOL     OW 2751   0.072   2.028   2.180
  913SOL    HW1 2752   0.055   2.111   2.126
  913SOL    HW2 2753   0.162   1.991   2.158
  914SOL     OW 2754   1.183   3.197   1.981
  914SOL    HW1 2755   1.084   3.186   1.983
  914SOL    HW2 2756   1.217   3.212   2.074
  915SOL     OW 2757   0.613   2.704   3.293
  915SOL    HW1 2758   0.669   2.785   3.276
  915SOL    HW2 2759   0.672   2.624   3.296
  916SOL     OW 2760   1.493   3.629   2.821
  916SOL    HW1 2761   1.526   3.693   2.752
  916SOL    HW2 2762   1.559   3.623   2.896
  917SOL     OW 2763   0.716   2.427   3.570
  917SOL    HW1 2764   0.735   2.492   3.644
  917SOL    HW2 2765   0.776   2.347   3.579
  918SOL     OW 2766   1.450   3.082   3.495
  918SOL    HW1 2767   1.441   3.072   3.594
  918SOL    HW2 2768   1.546   3.075   3.469
  919SOL     OW 2769   0.390   3.603   3.422
  919SOL    HW1 2770   0.299   3.644   3.420
  919SOL    HW2 2771   0.383   3.509   3.454
  920SOL     OW 2772   1.674   2.745   3.116
  920SOL    HW1 2773   1.647   2.656   3.079
  920SOL    HW2 2774   1.675   2.813   3.043
  921SOL     OW 2775   1.225   2.187   2.311
  921SOL    HW1 2776   1.290   2.113   2.300
  921SOL    HW2 2777   1.245   2.237   2.395
  922SOL     OW 2778   0.594   2.607   2.514
  922SOL    HW1 2779   0.644   2.692   2.495
  922SOL    HW2 2780   0.506   2.609   2.466
  923SOL     OW 2781   1.777   2.204   3.504
  923SOL    HW1 2782   1.760   2.235   3.410
  923SOL    HW2 2783   1.693   2.167   3.542
  924SOL     OW 2784   1.730   2.796   3.379
  924SOL    HW1 2785   1.768   2.887   3.394
  924SOL    HW2 2786   1.722   2.779   3.280
  925SOL     OW 2787   0.859   3.236   1.878
  925SOL    HW1 2788   0.813   3.251   1.966
  925SOL    HW2 2789   0.903   3.321   1.848
  926SOL     OW 2790   0.661   3.652   2.815
  926SOL    HW1 2791   0.615   3.740   2.802
  926SOL    HW2 2792   0.760   3.664   2.808
  927SOL     OW 2793   0.859   2.818   2.723
  927SOL    HW1 2794   0.913   2.749   2.771
  927SOL    HW2 2795   0.827   2.887   2.789
  928SOL     OW 2796   1.083   2.846   1.949
  928SOL    HW1 2797   1.060   2.899   1.867
  928SOL    HW2 2798   1.164   2.790   1.930
  929SOL     OW 2799   1.861   3.431   2.713
  929SOL    HW1 2800   1.790   3.419   2.643
  929SOL    HW2 2801   1.862   3.352   2.773
  930SOL     OW 2802   0.221   3.176   3.706
  930SOL    HW1 2803   0.156   3.103   3.685
  930SOL    HW2 2804   0.225   3.190   3.804
  931SOL     OW 2805   0.079   3.102   2.515
  931SOL    HW1 2806   0.078   3.055   2.603
  931SOL    HW2 2807   0.161   3.074   2.464
  932SOL     OW 2808   0.672   3.253   3.486
  932SOL    HW1 2809   0.594   3.203   3.524
  932SOL    HW2 2810   0.669   3.348   3.517
  933SOL     OW 2811   1.824   2.054   3.089
  933SOL    HW1 2812   1.820   1.964   3.133
  933SOL    HW2 2813   1.827   2.043   2.990
  934SOL     OW 2814   0.428   2.286   2.382
  934SOL    HW1 2815   0.458   2.214   2.320
  934SOL    HW2 2816   0.389   2.246   2.465
  935SOL     OW 2817   1.705   3.349   2.966
  935SOL    HW1 2818   1.612   3.324   2.939
  935SOL    HW2 2819   1.731   3.299   3.048
  936SOL     OW 2820   0.317   2.409   3.142
  936SOL    HW1 2821   0.355   2.350   3.214
  936SOL    HW2 2822   0.357   2.383   3.054
  937SOL     OW 2823   0.812   3.448   2.549
  937SOL    HW1 2824   0.844   3.458   2.455
  937SOL    HW2 2825   0.733   3.386   2.551
  938SOL     OW 2826   1.424   2.076   2.974
  938SOL    HW1 2827   1.476   2.011   3.029
  938SOL    HW2 2828   1.375   2.139   3.035
  939SOL     OW 2829   1.001   1.896   3.016
  939SOL    HW1 2830   0.938   1.824   2.985
  939SOL    HW2 2831   1.094   1.860   3.016
  940SOL     OW 2832   0.770   3.192   2.163
  940SOL    HW1 2833   0.724   3.105   2.180
  940SOL    HW2 2834   0.861   3.189   2.204
  941SOL     OW 2835   0.618   3.429   3.146
  941SOL    HW1 2836   0.613   3.511   3.203
  941SOL    HW2 2837   0.707   3.426   3.101
  942SOL     OW 2838   1.352   1.914   2.030
  942SOL    HW1 2839   1.387   1.873   1.946
  942SOL    HW2 2840   1.262   1.876   2.050
  943SOL     OW 2841   1.300   2.315   2.553
  943SOL    HW1 2842   1.241   2.395   2.557
  943SOL    HW2 2843   1.315   2.280   2.646
  944SOL     OW 2844   1.593   2.083   2.744
  944SOL    HW1 2845   1.509   2.082   2.798
  944SOL    HW2 2846   1.595   2.166   2.688
  945SOL     OW 2847   0.039   2.939   2.162
  945SOL    HW1 2848   0.138   2.928   2.153
  945SOL    HW2 2849  -0.001   2.853   2.194
  946SOL     OW 2850   0.875   3.508   2.199
  946SOL    HW1 2851   0.798   3.473   2.145
  946SOL    HW2 2852   0.843   3.579   2.261
  947SOL     OW 2853   0.230   2.490   3.837
  947SOL    HW1 2854   0.137   2.488   3.874
  947SOL    HW2 2855   0.231   2.451   3.745
  948SOL     OW 2856   0.019   2.230   4.371
  948SOL    HW1 2857  -0.063   2.273   4.410
  948SOL    HW2 2858  -0.009   2.157   4.308
  949SOL     OW 2859   1.555   3.373   4.427
  949SOL    HW1 2860   1.498   3.357   4.508
  949SOL    HW2 2861   1.496   3.383   4.347
  950SOL     OW 2862   1.135   2.565   4.441
  950SOL    HW1 2863   1.192   2.643   4.416
  950SOL    HW2 2864   1.075   2.591   4.517
  951SOL     OW 2865   1.755   2.469   3.955
  951SOL    HW1 2866   1.743   2.456   3.856
  951SOL    HW2 2867   1.725   2.388   4.004
  952SOL     OW 2868   0.685   2.874   4.389
  952SOL    HW1 2869   0.754   2.858   4.459
  952SOL    HW2 2870   0.612   2.931   4.427
  953SOL     OW 2871   1.603   2.309   4.461
  953SOL    HW1 2872   1.529   2.355   4.411
  953SOL    HW2 2873   1.654   2.377   4.514
  954SOL     OW 2874   0.231   3.575   4.207
  954SOL    HW1 2875   0.265   3.652   4.261
  954SOL    HW2 2876   0.275   3.575   4.117
  955SOL     OW 2877   0.230   3.296   4.262
  955SOL    HW1 2878   0.204   3.392   4.262
  955SOL    HW2 2879   0.159   3.242   4.307
  956SOL     OW 2880   0.240   2.953   4.610
  956SOL    HW1 2881   0.254   2.869   4.662
  956SOL    HW2 2882   0.185   3.017   4.665
  957SOL     OW 2883   0.606   2.826   3.847
  957SOL    HW1 2884   0.613   2.910   3.793
  957SOL    HW2 2885   0.652   2.839   3.935
  958SOL     OW 2886   0.122   2.505   4.287
  958SOL    HW1 2887   0.077   2.417   4.304
  958SOL    HW2 2888   0.121   2.559   4.371
  959SOL     OW 2889   1.842   3.629   4.083
  959SOL    HW1 2890   1.896   3.600   4.163
  959SOL    HW2 2891   1.872   3.719   4.054
  960SOL     OW 2892   0.027   3.458   3.841
  960SOL    HW1 2893   0.008   3.362   3.862
  960SOL    HW2 2894  -0.006   3.516   3.916
  961SOL     OW 2895   1.689   2.784   4.336
  961SOL    HW1 2896   1.784   2.755   4.344
  961SOL    HW2 2897   1.681   2.849   4.261
  962SOL     OW 2898   1.641   2.970   4.156
  962SOL    HW1 2899   1.727   2.972   4.104
  962SOL    HW2 2900   1.655   3.017   4.244
  963SOL     OW 2901   0.613   3.227   4.450
  963SOL    HW1 2902   0.564   3.140   4.459
  963SOL    HW2 2903   0.590   3.270   4.363
  964SOL     OW 2904   0.809   1.866   4.226
  964SOL    HW1 2905   0.849   1.957   4.217
  964SOL    HW2 2906   0.709   1.874   4.232
  965SOL     OW 2907   1.525   2.861   3.914
  965SOL    HW1 2908   1.462   2.785   3.927
  965SOL    HW2 2909   1.573   2.879   4.000
  966SOL     OW 2910   1.667   3.576   4.296
  966SOL    HW1 2911   1.626   3.553   4.208
  966SOL    HW2 2912   1.649   3.502   4.361
  967SOL     OW 2913   0.598   2.591   3.994
  967SOL    HW1 2914   0.622   2.660   3.926
  967SOL    HW2 2915   0.520   2.624   4.048
  968SOL     OW 2916   1.281   2.207   4.668
  968SOL    HW1 2917   1.195   2.157   4.655
  968SOL    HW2 2918   1.343   2.153   4.724
  969SOL     OW 2919   1.576   3.524   4.031
  969SOL    HW1 2920   1.665   3.570   4.034
  969SOL    HW2 2921   1.555   3.500   3.936
  970SOL     OW 2922   1.041   2.563   4.153
  970SOL    HW1 2923   1.067   2.559   4.249
  970SOL    HW2 2924   0.956   2.512   4.139
  971SOL     OW 2925   0.076   2.673   4.513
  971SOL    HW1 2926   0.175   2.661   4.522
  971SOL    HW2 2927   0.052   2.768   4.534
  972SOL     OW 2928   0.865   2.210   3.919
  972SOL    HW1 2929   0.924   2.273   3.870
  972SOL    HW2 2930   0.884   2.116   3.890
  973SOL     OW 2931   1.362   3.006   4.269
  973SOL    HW1 2932   1.445   2.977   4.221
  973SOL    HW2 2933   1.313   3.073   4.213
  974SOL     OW 2934   1.008   3.318   4.201
  974SOL    HW1 2935   0.962   3.390   4.149
  974SOL    HW2 2936   1.004   3.338   4.299
  975SOL     OW 2937   0.351   3.663   4.577
  975SOL    HW1 2938   0.401   3.577   4.583
  975SOL    HW2 2939   0.416   3.740   4.574
  976SOL     OW 2940   1.795   2.928   4.597
  976SOL    HW1 2941   1.733   2.913   4.521
  976SOL    HW2 2942   1.743   2.939   4.682
  977SOL     OW 2943   0.321   2.805   3.966
  977SOL    HW1 2944   0.403   2.844   3.924
  977SOL    HW2 2945   0.294   2.723   3.917
  978SOL     OW 2946   1.458   2.597   4.452
  978SOL    HW1 2947   1.453   2.532   4.527
  978SOL    HW2 2948   1.538   2.656   4.465
  979SOL     OW 2949   1.111   3.638   3.961
  979SOL    HW1 2950   1.051   3.576   4.011
  979SOL    HW2 2951   1.142   3.594   3.876
  980SOL     OW 2952   1.632   3.239   3.805
  980SOL    HW1 2953   1.600   3.333   3.795
  980SOL    HW2 2954   1.556   3.176   3.793
  981SOL     OW 2955   0.464   3.605   4.047
  981SOL    HW1 2956   0.497   3.644   4.133
  981SOL    HW2 2957   0.540   3.598   3.982
  982SOL     OW 2958   1.400   1.969   4.150
  982SOL    HW1 2959   1.376   1.932   4.060
  982SOL    HW2 2960   1.499   1.985   4.154
  983SOL     OW 2961   0.940   3.560   4.628
  983SOL    HW1 2962   1.020   3.503   4.649
  983SOL    HW2 2963   0.891   3.520   4.551
  984SOL     OW 2964   0.382   2.562   4.204
  984SOL    HW1 2965   0.427   2.472   4.201
  984SOL    HW2 2966   0.288   2.551   4.237
  985SOL     OW 2967   0.614   1.984   3.841
  985SOL    HW1 2968   0.712   1.962   3.848
  985SOL    HW2 2969   0.583   1.967   3.748
  986SOL     OW 2970   0.539   1.926   4.236
  986SOL    HW1 2971   0.458   1.927   4.294
  986SOL    HW2 2972   0.542   2.009   4.181
  987SOL     OW 2973   1.434   3.050   3.765
  987SOL    HW1 2974   1.466   2.974   3.822
  987SOL    HW2 2975   1.342   3.077   3.795
  988SOL     OW 2976   0.297   1.897   3.895
  988SOL    HW1 2977   0.346   1.981   3.874
  988SOL    HW2 2978   0.359   1.832   3.940
  989SOL     OW 2979   0.935   2.098   4.204
  989SOL    HW1 2980   0.887   2.139   4.126
  989SOL    HW2 2981   1.034   2.096   4.185
  990SOL     OW 2982   0.459   3.014   4.465
  990SOL    HW1 2983   0.388   2.987   4.530
  990SOL    HW2 2984   0.433   2.986   4.372
  991SOL     OW 2985   1.271   3.659   4.315
  991SOL    HW1 2986   1.315   3.723   4.251
  991SOL    HW2 2987   1.221   3.711   4.385
  992SOL     OW 2988   1.032   2.411   3.740
  992SOL    HW1 2989   0.991   2.493   3.701
  992SOL    HW2 2990   1.096   2.437   3.813
  993SOL     OW 2991   0.866   2.316   4.366
  993SOL    HW1 2992   0.834   2.388   4.304
  993SOL    HW2 2993   0.890   2.235   4.313
  994SOL     OW 2994   1.017   1.901   4.477
  994SOL    HW1 2995   0.945   1.906   4.408
  994SOL    HW2 2996   0.993   1.832   4.546
  995SOL     OW 2997   1.857   2.695   4.101
  995SOL    HW1 2998   1.899   2.631   4.165
  995SOL    HW2 2999   1.819   2.644   4.023
  996SOL     OW 3000   0.488   3.247   3.898
  996SOL    HW1 3001   0.401   3.232   3.945
  996SOL    HW2 3002   0.471   3.273   3.803
  997SOL     OW 3003   1.664   3.142   4.381
  997SOL    HW1 3004   1.763   3.150   4.395
  997SOL    HW2 3005   1.619   3.226   4.412
  998SOL     OW 3006   1.390   2.437   3.802
  998SOL    HW1 3007   1.336   2.416   3.883
  998SOL    HW2 3008   1.481   2.396   3.811
  999SOL     OW 3009   0.527   2.118   4.052
  999SOL    HW1 3010   0.554   2.059   3.977
  999SOL    HW2 3011   0.527   2.213   4.021
 1000SOL     OW 3012   0.705   2.912   4.092
 1000SOL    HW1 3013   0.691   2.919   4.191
 1000SOL    HW2 3014   0.789   2.861   4.074
 1001SOL     OW 3015   0.367   2.962   4.225
 1001SOL    HW1 3016   0.360   3.045   4.169
 1001SOL    HW2 3017   0.371   2.882   4.165
 1002SOL     OW 3018   0.566   2.399   4.589
 1002SOL    HW1 3019   0.578   2.465   4.515
 1002SOL    HW2 3020   0.612   2.433   4.672
 1003SOL     OW 3021   1.252   3.210   4.112
 1003SOL    HW1 3022   1.302   3.287   4.152
 1003SOL    HW2 3023   1.157   3.212   4.144
 1004SOL     OW 3024   1.582   2.501   4.196
 1004SOL    HW1 3025   1.551   2.562   4.269
 1004SOL    HW2 3026   1.632   2.553   4.127
 1005SOL     OW 3027   1.209   2.387   3.999
 1005SOL    HW1 3028   1.222   2.303   4.053
 1005SOL    HW2 3029   1.180   2.461   4.059
 1006SOL     OW 3030   0.307   1.925   4.342
 1006SOL    HW1 3031   0.296   2.019   4.375
 1006SOL    HW2 3032   0.302   1.862   4.419
 1007SOL     OW 3033   1.622   2.229   4.098
 1007SOL    HW1 3034   1.624   2.153   4.162
 1007SOL    HW2 3035   1.574   2.306   4.138
 1008SOL     OW 3036   1.540   2.136   3.849
 1008SOL    HW1 3037   1.479   2.061   3.872
 1008SOL    HW2 3038   1.562   2.188   3.932
 1009SOL     OW 3039   1.303   2.700   3.766
 1009SOL    HW1 3040   1.337   2.607   3.781
 1009SOL    HW2 3041   1.321   2.727   3.671
 1010SOL     OW 3042   0.008   3.188   3.924
 1010SOL    HW1 3043  -0.085   3.209   3.893
 1010SOL    HW2 3044   0.018   3.089   3.937
 1011SOL     OW 3045   0.815   2.434   4.049
 1011SOL    HW1 3046   0.822   2.345   4.003
 1011SOL    HW2 3047   0.721   2.468   4.041
 1012SOL     OW 3048   0.473   2.362   3.915
 1012SOL    HW1 3049   0.534   2.442   3.919
 1012SOL    HW2 3050   0.378   2.393   3.922
 1013SOL     OW 3051   1.302   2.717   4.033
 1013SOL    HW1 3052   1.216   2.686   4.075
 1013SOL    HW2 3053   1.298   2.703   3.934
 1014SOL     OW 3054   1.726   1.997   4.247
 1014SOL    HW1 3055   1.799   1.980   4.180
 1014SOL    HW2 3056   1.695   1.910   4.285
 1015SOL     OW 3057   1.388   3.435   4.201
 1015SOL    HW1 3058   1.455   3.447   4.127
 1015SOL    HW2 3059   1.348   3.524   4.224
 1016SOL     OW 3060   1.280   2.789   4.396
 1016SOL    HW1 3061   1.340   2.708   4.398
 1016SOL    HW2 3062   1.320   2.858   4.336
 1017SOL     OW 3063   0.672   3.478   3.878
 1017SOL    HW1 3064   0.681   3.488   3.779
 1017SOL    HW2 3065   0.632   3.389   3.899
 1018SOL     OW 3066   1.841   2.037   4.687
 1018SOL    HW1 3067   1.880   1.952   4.651
 1018SOL    HW2 3068   1.743   2.039   4.668
 1019SOL     OW 3069   0.263   2.188   4.444
 1019SOL    HW1 3070   0.184   2.239   4.410
 1019SOL    HW2 3071   0.254   2.173   4.542
 1020SOL     OW 3072   1.194   3.474   3.755
 1020SOL    HW1 3073   1.200   3.381   3.792
 1020SOL    HW2 3074   1.135   3.474   3.675
 1021SOL     OW 3075   0.916   2.772   4.015
 1021SOL    HW1 3076   0.979   2.810   3.947
 1021SOL    HW2 3077   0.956   2.689   4.054
 1022SOL     OW 3078   1.504   3.469   3.768
 1022SOL    HW1 3079   1.412   3.506   3.775
 1022SOL    HW2 3080   1.542   3.489   3.678
 1023SOL     OW 3081   1.039   2.960   4.420
 1023SOL    HW1 3082   0.969   2.913   4.474
 1023SOL    HW2 3083   1.098   2.892   4.377
 1024SOL     OW 3084   0.590   3.349   4.215
 1024SOL    HW1 3085   0.632   3.291   4.145
 1024SOL    HW2 3086   0.546   3.428   4.171
 1025SOL     OW 3087   0.255   3.210   4.014
 1025SOL    HW1 3088   0.159   3.211   3.987
 1025SOL    HW2 3089   0.267   3.263   4.098
 1026SOL     OW 3090   0.075   2.207   3.757
 1026SOL    HW1 3091  -0.017   2.179   3.728
 1026SOL    HW2 3092   0.106   2.284   3.701
 1027SOL     OW 3093   0.072   2.028   4.042
 1027SOL    HW1 3094   0.055   2.111   3.988
 1027SOL    HW2 3095   0.162   1.991   4.020
 1028SOL     OW 3096   1.183   3.197   3.843
 1028SOL    HW1 3097   1.084   3.186   3.845
 1028SOL    HW2 3098   1.217   3.212   3.936
 1029SOL     OW 3099   1.225   2.187   4.173
 1029SOL    HW1 3100   1.290   2.113   4.162
 1029SOL    HW2 3101   1.245   2.237   4.257
 1030SOL     OW 3102   0.594   2.607   4.376
 1030SOL    HW1 3103   0.644   2.692   4.357
 1030SOL    HW2 3104   0.506   2.609   4.328
 1031SOL     OW 3105   0.859   3.236   3.740
 1031SOL    HW1 3106   0.813   3.251   3.828
 1031SOL    HW2 3107   0.903   3.321   3.710
 1032SOL     OW 3108   0.661   3.652   4.677
 1032SOL    HW1 3109   0.615   3.740   4.664
 1032SOL    HW2 3110   0.760   3.664   4.670
 1033SOL     OW 3111   0.859   2.818   4.585
 1033SOL    HW1 3112   0.913   2.749   4.633
 1033SOL    HW2 3113   0.827   2.887   4.651
 1034SOL     OW 3114   1.083   2.846   3.811
 1034SOL    HW1 3115   1.060   2.899   3.729
 1034SOL    HW2 3116   1.164   2.790   3.792
 1035SOL     OW 3117   0.079   3.102   4.377
 1035SOL    HW1 3118   0.078   3.055   4.465
 1035SOL    HW2 3119   0.161   3.074   4.326
 1036SOL     OW 3120   0.428   2.286   4.244
 1036SOL    HW1 3121   0.458   2.214   4.182
 1036SOL    HW2 3122   0.389   2.246   4.327
 1037SOL     OW 3123   0.812   3.448   4.411
 1037SOL    HW1 3124   0.844   3.458   4.317
 1037SOL    HW2 3125   0.733   3.386   4.413
 1038SOL     OW 3126   0.770   3.192   4.025
 1038SOL    HW1 3127   0.724   3.105   4.042
 1038SOL    HW2 3128   0.861   3.189   4.066
 1039SOL     OW 3129   1.352   1.914   3.892
 1039SOL    HW1 3130   1.387   1.873   3.808
 1039SOL    HW2 3131   1.262   1.876   3.912
 1040SOL     OW 3132   1.300   2.315   4.415
 1040SOL    HW1 3133   1.241   2.395   4.419
 1040SOL    HW2 3134   1.315   2.280   4.508
 1041SOL     OW 3135   0.039   2.939   4.024
 1041SOL    HW1 3136   0.138   2.928   4.015
 1041SOL    HW2 3137  -0.001   2.853   4.056
 1042SOL     OW 3138   0.875   3.508   4.061
 1042SOL    HW1 3139   0.798   3.473   4.007
 1042SOL    HW2 3140   0.843   3.579   4.123
 1043SOL     OW 3141   0.230   4.352   0.113
 1043SOL    HW1 3142   0.137   4.350   0.150
 1043SOL    HW2 3143   0.231   4.313   0.021
 1044SOL     OW 3144   0.225   3.999   0.996
 1044SOL    HW1 3145   0.260   3.982   1.088
 1044SOL    HW2 3146   0.137   3.954   0.984
 1045SOL     OW 3147   0.019   4.092   0.647
 1045SOL    HW1 3148  -0.063   4.135   0.686
 1045SOL    HW2 3149  -0.009   4.019   0.584
 1046SOL     OW 3150   1.135   4.427   0.717
 1046SOL    HW1 3151   1.192   4.505   0.692
 1046SOL    HW2 3152   1.075   4.453   0.793
 1047SOL     OW 3153   1.755   4.331   0.231
 1047SOL    HW1 3154   1.743   4.318   0.132
 1047SOL    HW2 3155   1.725   4.250   0.280
 1048SOL     OW 3156   0.850   4.522   1.823
 1048SOL    HW1 3157   0.846   4.598   1.888
 1048SOL    HW2 3158   0.872   4.558   1.732
 1049SOL     OW 3159   0.685   4.736   0.665
 1049SOL    HW1 3160   0.754   4.720   0.735
 1049SOL    HW2 3161   0.612   4.793   0.703
 1050SOL     OW 3162   0.438   4.116   1.499
 1050SOL    HW1 3163   0.520   4.060   1.508
 1050SOL    HW2 3164   0.357   4.058   1.503
 1051SOL     OW 3165   1.603   4.171   0.737
 1051SOL    HW1 3166   1.529   4.217   0.687
 1051SOL    HW2 3167   1.654   4.239   0.790
 1052SOL     OW 3168   1.594   3.838   1.480
 1052SOL    HW1 3169   1.576   3.905   1.408
 1052SOL    HW2 3170   1.591   3.884   1.569
 1053SOL     OW 3171   0.122   4.367   0.563
 1053SOL    HW1 3172   0.077   4.279   0.580
 1053SOL    HW2 3173   0.121   4.421   0.647
 1054SOL     OW 3174   0.113   4.461   1.597
 1054SOL    HW1 3175   0.201   4.448   1.642
 1054SOL    HW2 3176   0.100   4.558   1.575
 1055SOL     OW 3177   0.809   3.728   0.502
 1055SOL    HW1 3178   0.849   3.819   0.493
 1055SOL    HW2 3179   0.709   3.736   0.508
 1056SOL     OW 3180   0.317   3.975   1.801
 1056SOL    HW1 3181   0.388   4.046   1.807
 1056SOL    HW2 3182   0.229   4.014   1.829
 1057SOL     OW 3183   0.598   4.453   0.270
 1057SOL    HW1 3184   0.622   4.522   0.202
 1057SOL    HW2 3185   0.520   4.486   0.324
 1058SOL     OW 3186   1.281   4.069   0.944
 1058SOL    HW1 3187   1.195   4.019   0.931
 1058SOL    HW2 3188   1.343   4.015   1.000
 1059SOL     OW 3189   0.807   4.329   1.465
 1059SOL    HW1 3190   0.760   4.326   1.554
 1059SOL    HW2 3191   0.756   4.274   1.399
 1060SOL     OW 3192   1.394   4.193   1.674
 1060SOL    HW1 3193   1.374   4.236   1.762
 1060SOL    HW2 3194   1.472   4.131   1.683
 1061SOL     OW 3195   0.991   4.134   1.242
 1061SOL    HW1 3196   0.914   4.168   1.296
 1061SOL    HW2 3197   0.957   4.083   1.163
 1062SOL     OW 3198   1.041   4.425   0.429
 1062SOL    HW1 3199   1.067   4.421   0.525
 1062SOL    HW2 3200   0.956   4.374   0.415
 1063SOL     OW 3201   0.076   4.535   0.789
 1063SOL    HW1 3202   0.175   4.523   0.798
 1063SOL    HW2 3203   0.052   4.630   0.810
 1064SOL     OW 3204   0.865   4.072   0.195
 1064SOL    HW1 3205   0.924   4.135   0.146
 1064SOL    HW2 3206   0.884   3.978   0.166
 1065SOL     OW 3207   1.719   4.309   1.831
 1065SOL    HW1 3208   1.693   4.398   1.795
 1065SOL    HW2 3209   1.717   4.241   1.758
 1066SOL     OW 3210   0.550   3.920   0.885
 1066SOL    HW1 3211   0.545   3.915   0.985
 1066SOL    HW2 3212   0.552   4.016   0.856
 1067SOL     OW 3213   1.458   4.459   0.728
 1067SOL    HW1 3214   1.453   4.394   0.803
 1067SOL    HW2 3215   1.538   4.518   0.741
 1068SOL     OW 3216   0.202   4.009   1.498
 1068SOL    HW1 3217   0.122   4.069   1.485
 1068SOL    HW2 3218   0.192   3.960   1.584
 1069SOL     OW 3219   1.400   3.831   0.426
 1069SOL    HW1 3220   1.376   3.794   0.336
 1069SOL    HW2 3221   1.499   3.847   0.430
 1070SOL     OW 3222   0.382   4.424   0.480
 1070SOL    HW1 3223   0.427   4.334   0.477
 1070SOL    HW2 3224   0.288   4.413   0.513
 1071SOL     OW 3225   1.547   3.946   1.729
 1071SOL    HW1 3226   1.542   3.983   1.821
 1071SOL    HW2 3227   1.475   3.877   1.717
 1072SOL     OW 3228   0.781   3.988   1.749
 1072SOL    HW1 3229   0.848   3.927   1.792
 1072SOL    HW2 3230   0.708   4.007   1.814
 1073SOL     OW 3231   1.351   4.314   1.433
 1073SOL    HW1 3232   1.379   4.271   1.518
 1073SOL    HW2 3233   1.376   4.410   1.434
 1074SOL     OW 3234   0.922   4.227   0.899
 1074SOL    HW1 3235   0.897   4.218   0.803
 1074SOL    HW2 3236   0.970   4.145   0.930
 1075SOL     OW 3237   0.539   3.788   0.512
 1075SOL    HW1 3238   0.458   3.789   0.570
 1075SOL    HW2 3239   0.542   3.871   0.457
 1076SOL     OW 3240   0.297   3.759   0.171
 1076SOL    HW1 3241   0.346   3.843   0.150
 1076SOL    HW2 3242   0.359   3.694   0.216
 1077SOL     OW 3243   0.935   3.960   0.480
 1077SOL    HW1 3244   0.887   4.001   0.402
 1077SOL    HW2 3245   1.034   3.958   0.461
 1078SOL     OW 3246   1.076   4.407   1.464
 1078SOL    HW1 3247   0.996   4.346   1.467
 1078SOL    HW2 3248   1.157   4.354   1.440
 1079SOL     OW 3249   1.032   4.273   0.016
 1079SOL    HW1 3250   0.991   4.355  -0.023
 1079SOL    HW2 3251   1.096   4.299   0.089
 1080SOL     OW 3252   0.078   4.280   1.386
 1080SOL    HW1 3253   0.170   4.279   1.345
 1080SOL    HW2 3254   0.072   4.354   1.453
 1081SOL     OW 3255   0.561   3.946   1.147
 1081SOL    HW1 3256   0.599   3.862   1.184
 1081SOL    HW2 3257   0.473   3.965   1.191
 1082SOL     OW 3258   0.866   4.178   0.642
 1082SOL    HW1 3259   0.834   4.250   0.580
 1082SOL    HW2 3260   0.890   4.097   0.589
 1083SOL     OW 3261   1.017   3.763   0.753
 1083SOL    HW1 3262   0.945   3.768   0.684
 1083SOL    HW2 3263   0.993   3.694   0.822
 1084SOL     OW 3264   1.466   4.314   0.992
 1084SOL    HW1 3265   1.436   4.219   0.999
 1084SOL    HW2 3266   1.539   4.330   1.058
 1085SOL     OW 3267   1.857   4.557   0.377
 1085SOL    HW1 3268   1.899   4.493   0.441
 1085SOL    HW2 3269   1.819   4.506   0.299
 1086SOL     OW 3270   1.390   4.299   0.078
 1086SOL    HW1 3271   1.336   4.278   0.159
 1086SOL    HW2 3272   1.481   4.258   0.087
 1087SOL     OW 3273   0.527   3.980   0.328
 1087SOL    HW1 3274   0.554   3.921   0.253
 1087SOL    HW2 3275   0.527   4.075   0.297
 1088SOL     OW 3276   0.915   3.813   1.402
 1088SOL    HW1 3277   0.940   3.793   1.307
 1088SOL    HW2 3278   0.987   3.869   1.444
 1089SOL     OW 3279   0.705   4.774   0.368
 1089SOL    HW1 3280   0.691   4.781   0.467
 1089SOL    HW2 3281   0.789   4.723   0.350
 1090SOL     OW 3282   0.410   4.537   1.251
 1090SOL    HW1 3283   0.496   4.549   1.301
 1090SOL    HW2 3284   0.368   4.450   1.278
 1091SOL     OW 3285   1.274   4.110   1.262
 1091SOL    HW1 3286   1.295   4.184   1.326
 1091SOL    HW2 3287   1.185   4.127   1.219
 1092SOL     OW 3288   0.566   4.261   0.865
 1092SOL    HW1 3289   0.578   4.327   0.791
 1092SOL    HW2 3290   0.612   4.295   0.948
 1093SOL     OW 3291   1.582   4.363   0.472
 1093SOL    HW1 3292   1.551   4.424   0.545
 1093SOL    HW2 3293   1.632   4.415   0.403
 1094SOL     OW 3294   1.587   4.503   1.670
 1094SOL    HW1 3295   1.495   4.541   1.665
 1094SOL    HW2 3296   1.647   4.550   1.605
 1095SOL     OW 3297   1.013   3.829   1.770
 1095SOL    HW1 3298   1.019   3.914   1.718
 1095SOL    HW2 3299   1.045   3.753   1.713
 1096SOL     OW 3300   0.504   3.774   1.740
 1096SOL    HW1 3301   0.462   3.717   1.670
 1096SOL    HW2 3302   0.438   3.843   1.772
 1097SOL     OW 3303   1.360   4.586   1.045
 1097SOL    HW1 3304   1.285   4.586   0.979
 1097SOL    HW2 3305   1.397   4.494   1.054
 1098SOL     OW 3306   1.209   4.249   0.275
 1098SOL    HW1 3307   1.222   4.165   0.329
 1098SOL    HW2 3308   1.180   4.323   0.335
 1099SOL     OW 3309   0.307   3.937   1.231
 1099SOL    HW1 3310   0.284   3.974   1.321
 1099SOL    HW2 3311   0.277   3.842   1.225
 1100SOL     OW 3312   0.732   4.358   1.064
 1100SOL    HW1 3313   0.791   4.332   0.988
 1100SOL    HW2 3314   0.704   4.454   1.053
 1101SOL     OW 3315   1.728   4.659   1.854
 1101SOL    HW1 3316   1.682   4.652   1.765
 1101SOL    HW2 3317   1.666   4.703   1.920
 1102SOL     OW 3318   0.307   3.787   0.618
 1102SOL    HW1 3319   0.296   3.881   0.651
 1102SOL    HW2 3320   0.302   3.724   0.695
 1103SOL     OW 3321   1.622   4.091   0.374
 1103SOL    HW1 3322   1.624   4.015   0.438
 1103SOL    HW2 3323   1.574   4.168   0.414
 1104SOL     OW 3324   1.540   3.998   0.125
 1104SOL    HW1 3325   1.479   3.923   0.148
 1104SOL    HW2 3326   1.562   4.050   0.208
 1105SOL     OW 3327   0.319   4.534   0.949
 1105SOL    HW1 3328   0.412   4.570   0.954
 1105SOL    HW2 3329   0.313   4.449   1.001
 1106SOL     OW 3330   0.339   4.233   1.006
 1106SOL    HW1 3331   0.287   4.150   0.989
 1106SOL    HW2 3332   0.416   4.238   0.942
 1107SOL     OW 3333   1.138   4.104   1.678
 1107SOL    HW1 3334   1.093   4.167   1.742
 1107SOL    HW2 3335   1.231   4.135   1.661
 1108SOL     OW 3336   1.160   3.931   1.477
 1108SOL    HW1 3337   1.160   3.995   1.554
 1108SOL    HW2 3338   1.188   3.979   1.394
 1109SOL     OW 3339   0.040   4.268   1.114
 1109SOL    HW1 3340   0.125   4.235   1.073
 1109SOL    HW2 3341   0.053   4.283   1.212
 1110SOL     OW 3342   0.189   4.244   1.722
 1110SOL    HW1 3343   0.248   4.204   1.652
 1110SOL    HW2 3344   0.131   4.315   1.681
 1111SOL     OW 3345   0.815   4.296   0.325
 1111SOL    HW1 3346   0.822   4.207   0.279
 1111SOL    HW2 3347   0.721   4.330   0.317
 1112SOL     OW 3348   1.657   4.328   1.206
 1112SOL    HW1 3349   1.619   4.259   1.268
 1112SOL    HW2 3350   1.739   4.292   1.162
 1113SOL     OW 3351   0.671   4.188   1.269
 1113SOL    HW1 3352   0.637   4.099   1.239
 1113SOL    HW2 3353   0.697   4.242   1.189
 1114SOL     OW 3354   0.473   4.224   0.191
 1114SOL    HW1 3355   0.534   4.304   0.195
 1114SOL    HW2 3356   0.378   4.255   0.198
 1115SOL     OW 3357   0.903   3.810   0.133
 1115SOL    HW1 3358   0.954   3.811   0.047
 1115SOL    HW2 3359   0.959   3.768   0.204
 1116SOL     OW 3360   1.726   3.859   0.523
 1116SOL    HW1 3361   1.799   3.842   0.456
 1116SOL    HW2 3362   1.695   3.772   0.561
 1117SOL     OW 3363   1.280   4.651   0.672
 1117SOL    HW1 3364   1.340   4.570   0.674
 1117SOL    HW2 3365   1.320   4.720   0.612
 1118SOL     OW 3366   1.841   3.899   0.963
 1118SOL    HW1 3367   1.880   3.814   0.927
 1118SOL    HW2 3368   1.743   3.901   0.944
 1119SOL     OW 3369   0.263   4.050   0.720
 1119SOL    HW1 3370   0.184   4.101   0.686
 1119SOL    HW2 3371   0.254   4.035   0.818
 1120SOL     OW 3372   1.014   3.960   0.971
 1120SOL    HW1 3373   1.006   3.924   0.878
 1120SOL    HW2 3374   1.012   3.884   1.036
 1121SOL     OW 3375   1.709   4.109   1.381
 1121SOL    HW1 3376   1.782   4.178   1.385
 1121SOL    HW2 3377   1.737   4.034   1.322
 1122SOL     OW 3378   0.105   4.737   1.726
 1122SOL    HW1 3379   0.028   4.704   1.780
 1122SOL    HW2 3380   0.190   4.707   1.768
 1123SOL     OW 3381   0.672   3.927   1.489
 1123SOL    HW1 3382   0.762   3.911   1.449
 1123SOL    HW2 3383   0.680   3.932   1.588
 1124SOL     OW 3384   0.075   4.069   0.033
 1124SOL    HW1 3385  -0.017   4.041   0.004
 1124SOL    HW2 3386   0.106   4.146  -0.023
 1125SOL     OW 3387   1.440   4.580   1.398
 1125SOL    HW1 3388   1.383   4.632   1.335
 1125SOL    HW2 3389   1.536   4.592   1.374
 1126SOL     OW 3390   0.072   3.890   0.318
 1126SOL    HW1 3391   0.055   3.973   0.264
 1126SOL    HW2 3392   0.162   3.853   0.296
 1127SOL     OW 3393   0.613   4.566   1.431
 1127SOL    HW1 3394   0.669   4.647   1.414
 1127SOL    HW2 3395   0.672   4.486   1.434
 1128SOL     OW 3396   0.716   4.289   1.708
 1128SOL    HW1 3397   0.735   4.354   1.782
 1128SOL    HW2 3398   0.776   4.209   1.717
 1129SOL     OW 3399   1.674   4.607   1.254
 1129SOL    HW1 3400   1.647   4.518   1.217
 1129SOL    HW2 3401   1.675   4.675   1.181
 1130SOL     OW 3402   1.225   4.049   0.449
 1130SOL    HW1 3403   1.290   3.975   0.438
 1130SOL    HW2 3404   1.245   4.099   0.533
 1131SOL     OW 3405   0.594   4.469   0.652
 1131SOL    HW1 3406   0.644   4.554   0.633
 1131SOL    HW2 3407   0.506   4.471   0.604
 1132SOL     OW 3408   1.777   4.066   1.642
 1132SOL    HW1 3409   1.760   4.097   1.548
 1132SOL    HW2 3410   1.693   4.029   1.680
 1133SOL     OW 3411   1.824   3.916   1.227
 1133SOL    HW1 3412   1.820   3.826   1.271
 1133SOL    HW2 3413   1.827   3.905   1.128
 1134SOL     OW 3414   0.428   4.148   0.520
 1134SOL    HW1 3415   0.458   4.076   0.458
 1134SOL    HW2 3416   0.389   4.108   0.603
 1135SOL     OW 3417   0.317   4.271   1.280
 1135SOL    HW1 3418   0.355   4.212   1.352
 1135SOL    HW2 3419   0.357   4.245   1.192
 1136SOL     OW 3420   1.424   3.938   1.112
 1136SOL    HW1 3421   1.476   3.873   1.167
 1136SOL    HW2 3422   1.375   4.001   1.173
 1137SOL     OW 3423   1.001   3.758   1.154
 1137SOL    HW1 3424   0.938   3.686   1.123
 1137SOL    HW2 3425   1.094   3.722   1.154
 1138SOL     OW 3426   1.352   3.776   0.168
 1138SOL    HW1 3427   1.387   3.735   0.084
 1138SOL    HW2 3428   1.262   3.738   0.188
 1139SOL     OW 3429   1.300   4.177   0.691
 1139SOL    HW1 3430   1.241   4.257   0.695
 1139SOL    HW2 3431   1.315   4.142   0.784
 1140SOL     OW 3432   1.593   3.945   0.882
 1140SOL    HW1 3433   1.509   3.944   0.936
 1140SOL    HW2 3434   1.595   4.028   0.826
 1141SOL     OW 3435   0.230   4.352   1.975
 1141SOL    HW1 3436   0.137   4.350   2.012
 1141SOL    HW2 3437   0.231   4.313   1.883
 1142SOL     OW 3438   0.225   3.999   2.858
 1142SOL    HW1 3439   0.260   3.982   2.950
 1142SOL    HW2 3440   0.137   3.954   2.846
 1143SOL     OW 3441   0.019   4.092   2.509
 1143SOL    HW1 3442  -0.063   4.135   2.548
 1143SOL    HW2 3443  -0.009   4.019   2.446
 1144SOL     OW 3444   1.135   4.427   2.579
 1144SOL    HW1 3445   1.192   4.505   2.554
 1144SOL    HW2 3446   1.075   4.453   2.655
 1145SOL     OW 3447   1.755   4.331   2.093
 1145SOL    HW1 3448   1.743   4.318   1.994
 1145SOL    HW2 3449   1.725   4.250   2.142
 1146SOL     OW 3450   0.850   4.522   3.685
 1146SOL    HW1 3451   0.846   4.598   3.750
 1146SOL    HW2 3452   0.872   4.558   3.594
 1147SOL     OW 3453   0.685   4.736   2.527
 1147SOL    HW1 3454   0.754   4.720   2.597
 1147SOL    HW2 3455   0.612   4.793   2.565
 1148SOL     OW 3456   0.438   4.116   3.361
 1148SOL    HW1 3457   0.520   4.060   3.370
 1148SOL    HW2 3458   0.357   4.058   3.365
 1149SOL     OW 3459   1.603   4.171   2.599
 1149SOL    HW1 3460   1.529   4.217   2.549
 1149SOL    HW2 3461   1.654   4.239   2.652
 1150SOL     OW 3462   1.594   3.838   3.342
 1150SOL    HW1 3463   1.576   3.905   3.270
 1150SOL    HW2 3464   1.591   3.884   3.431
 1151SOL     OW 3465   0.122   4.367   2.425
 1151SOL    HW1 3466   0.077   4.279   2.442
 1151SOL    HW2 3467   0.121   4.421   2.509
 1152SOL     OW 3468   0.113   4.461   3.459
 1152SOL    HW1 3469   0.201   4.448   3.504
 1152SOL    HW2 3470   0.100   4.558   3.437
 1153SOL     OW 3471   0.809   3.728   2.364
 1153SOL    HW1 3472   0.849   3.819   2.355
 1153SOL    HW2 3473   0.709   3.736   2.370
 1154SOL     OW 3474   0.317   3.975   3.663
 1154SOL    HW1 3475   0.388   4.046   3.669
 1154SOL    HW2 3476   0.229   4.014   3.691
 1155SOL     OW 3477   0.598   4.453   2.132
 1155SOL    HW1 3478   0.622   4.522   2.064
 1155SOL    HW2 3479   0.520   4.486   2.186
 1156SOL     OW 3480   1.281   4.069   2.806
 1156SOL    HW1 3481   1.195   4.019   2.793
 1156SOL    HW2 3482   1.343   4.015   2.862
 1157SOL     OW 3483   0.807   4.329   3.327
 1157SOL    HW1 3484   0.760   4.326   3.416
 1157SOL    HW2 3485   0.756   4.274   3.261
 1158SOL     OW 3486   1.394   4.193   3.536
 1158SOL    HW1 3487   1.374   4.236   3.624
 1158SOL    HW2 3488   1.472   4.131   3.545
 1159SOL     OW 3489   0.991   4.134   3.104
 1159SOL    HW1 3490   0.914   4.168   3.158
 1159SOL    HW2 3491   0.957   4.083   3.025
 1160SOL     OW 3492   1.041   4.425   2.291
 1160SOL    HW1 3493   1.067   4.421   2.387
 1160SOL    HW2 3494   0.956   4.374   2.277
 1161SOL     OW 3495   0.076   4.535   2.651
 1161SOL    HW1 3496   0.175   4.523   2.660
 1161SOL    HW2 3497   0.052   4.630   2.672
 1162SOL     OW 3498   0.865   4.072   2.057
 1162SOL    HW1 3499   0.924   4.135   2.008
 1162SOL    HW2 3500   0.884   3.978   2.028
 1163SOL     OW 3501   1.719   4.309   3.693
 1163SOL    HW1 3502   1.693   4.398   3.657
 1163SOL    HW2 3503   1.717   4.241   3.620
 1164SOL     OW 3504   0.550   3.920   2.747
 1164SOL    HW1 3505   0.545   3.915   2.847
 1164SOL    HW2 3506   0.552   4.016   2.718
 1165SOL     OW 3507   1.458   4.459   2.590
 1165SOL    HW1 3508   1.453   4.394   2.665
 1165SOL    HW2 3509   1.538   4.518   2.603
 1166SOL     OW 3510   0.202   4.009   3.360
 1166SOL    HW1 3511   0.122   4.069   3.347
 1166SOL    HW2 3512   0.192   3.960   3.446
 1167SOL     OW 3513   1.400   3.831   2.288
 1167SOL    HW1 3514   1.376   3.794   2.198
 1167SOL    HW2 3515   1.499   3.847   2.292
 1168SOL     OW 3516   0.382   4.424   2.342
 1168SOL    HW1 3517   0.427   4.334   2.339
 1168SOL    HW2 3518   0.288   4.413   2.375
 1169SOL     OW 3519   1.547   3.946   3.591
 1169SOL    HW1 3520   1.542   3.983   3.683
 1169SOL    HW2 3521   1.475   3.877   3.579
 1170SOL     OW 3522   0.614   3.846   1.979
 1170SOL    HW1 3523   0.712   3.824   1.986
 1170SOL    HW2 3524   0.583   3.829   1.886
 1171SOL     OW 3525   0.781   3.988   3.611
 1171SOL    HW1 3526   0.848   3.927   3.654
 1171SOL    HW2 3527   0.708   4.007   3.676
 1172SOL     OW 3528   1.351   4.314   3.295
 1172SOL    HW1 3529   1.379   4.271   3.380
 1172SOL    HW2 3530   1.376   4.410   3.296
 1173SOL     OW 3531   0.922   4.227   2.761
 1173SOL    HW1 3532   0.897   4.218   2.665
 1173SOL    HW2 3533   0.970   4.145   2.792
 1174SOL     OW 3534   0.539   3.788   2.374
 1174SOL    HW1 3535   0.458   3.789   2.432
 1174SOL    HW2 3536   0.542   3.871   2.319
 1175SOL     OW 3537   0.297   3.759   2.033
 1175SOL    HW1 3538   0.346   3.843   2.012
 1175SOL    HW2 3539   0.359   3.694   2.078
 1176SOL     OW 3540   0.935   3.960   2.342
 1176SOL    HW1 3541   0.887   4.001   2.264
 1176SOL    HW2 3542   1.034   3.958   2.323
 1177SOL     OW 3543   1.076   4.407   3.326
 1177SOL    HW1 3544   0.996   4.346   3.329
 1177SOL    HW2 3545   1.157   4.354   3.302
 1178SOL     OW 3546   1.032   4.273   1.878
 1178SOL    HW1 3547   0.991   4.355   1.839
 1178SOL    HW2 3548   1.096   4.299   1.951
 1179SOL     OW 3549   0.078   4.280   3.248
 1179SOL    HW1 3550   0.170   4.279   3.207
 1179SOL    HW2 3551   0.072   4.354   3.315
 1180SOL     OW 3552   0.561   3.946   3.009
 1180SOL    HW1 3553   0.599   3.862   3.046
 1180SOL    HW2 3554   0.473   3.965   3.053
 1181SOL     OW 3555   0.866   4.178   2.504
 1181SOL    HW1 3556   0.834   4.250   2.442
 1181SOL    HW2 3557   0.890   4.097   2.451
 1182SOL     OW 3558   1.017   3.763   2.615
 1182SOL    HW1 3559   0.945   3.768   2.546
 1182SOL    HW2 3560   0.993   3.694   2.684
 1183SOL     OW 3561   1.466   4.314   2.854
 1183SOL    HW1 3562   1.436   4.219   2.861
 1183SOL    HW2 3563   1.539   4.330   2.920
 1184SOL     OW 3564   1.857   4.557   2.239
 1184SOL    HW1 3565   1.899   4.493   2.303
 1184SOL    HW2 3566   1.819   4.506   2.161
 1185SOL     OW 3567   1.390   4.299   1.940
 1185SOL    HW1 3568   1.336   4.278   2.021
 1185SOL    HW2 3569   1.481   4.258   1.949
 1186SOL     OW 3570   0.527   3.980   2.190
 1186SOL    HW1 3571   0.554   3.921   2.115
 1186SOL    HW2 3572   0.527   4.075   2.159
 1187SOL     OW 3573   0.915   3.813   3.264
 1187SOL    HW1 3574   0.940   3.793   3.169
 1187SOL    HW2 3575   0.987   3.869   3.306
 1188SOL     OW 3576   0.705   4.774   2.230
 1188SOL    HW1 3577   0.691   4.781   2.329
 1188SOL    HW2 3578   0.789   4.723   2.212
 1189SOL     OW 3579   0.410   4.537   3.113
 1189SOL    HW1 3580   0.496   4.549   3.163
 1189SOL    HW2 3581   0.368   4.450   3.140
 1190SOL     OW 3582   1.274   4.110   3.124
 1190SOL    HW1 3583   1.295   4.184   3.188
 1190SOL    HW2 3584   1.185   4.127   3.081
 1191SOL     OW 3585   0.566   4.261   2.727
 1191SOL    HW1 3586   0.578   4.327   2.653
 1191SOL    HW2 3587   0.612   4.295   2.810
 1192SOL     OW 3588   1.582   4.363   2.334
 1192SOL    HW1 3589   1.551   4.424   2.407
 1192SOL    HW2 3590   1.632   4.415   2.265
 1193SOL     OW 3591   1.587   4.503   3.532
 1193SOL    HW1 3592   1.495   4.541   3.527
 1193SOL    HW2 3593   1.647   4.550   3.467
 1194SOL     OW 3594   1.013   3.829   3.632
 1194SOL    HW1 3595   1.019   3.914   3.580
 1194SOL    HW2 3596   1.045   3.753   3.575
 1195SOL     OW 3597   0.504   3.774   3.602
 1195SOL    HW1 3598   0.462   3.717   3.532
 1195SOL    HW2 3599   0.438   3.843   3.634
 1196SOL     OW 3600   1.360   4.586   2.907
 1196SOL    HW1 3601   1.285   4.586   2.841
 1196SOL    HW2 3602   1.397   4.494   2.916
 1197SOL     OW 3603   1.209   4.249   2.137
 1197SOL    HW1 3604   1.222   4.165   2.191
 1197SOL    HW2 3605   1.180   4.323   2.197
 1198SOL     OW 3606   0.307   3.937   3.093
 1198SOL    HW1 3607   0.284   3.974   3.183
 1198SOL    HW2 3608   0.277   3.842   3.087
 1199SOL     OW 3609   0.732   4.358   2.926
 1199SOL    HW1 3610   0.791   4.332   2.850
 1199SOL    HW2 3611   0.704   4.454   2.915
 1200SOL     OW 3612   1.728   4.659   3.716
 1200SOL    HW1 3613   1.682   4.652   3.627
 1200SOL    HW2 3614   1.666   4.703   3.782
 1201SOL     OW 3615   0.307   3.787   2.480
 1201SOL    HW1 3616   0.296   3.881   2.513
 1201SOL    HW2 3617   0.302   3.724   2.557
 1202SOL     OW 3618   1.622   4.091   2.236
 1202SOL    HW1 3619   1.624   4.015   2.300
 1202SOL    HW2 3620   1.574   4.168   2.276
 1203SOL     OW 3621   1.540   3.998   1.987
 1203SOL    HW1 3622   1.479   3.923   2.010
 1203SOL    HW2 3623   1.562   4.050   2.070
 1204SOL     OW 3624   0.319   4.534   2.811
 1204SOL    HW1 3625   0.412   4.570   2.816
 1204SOL    HW2 3626   0.313   4.449   2.863
 1205SOL     OW 3627   0.339   4.233   2.868
 1205SOL    HW1 3628   0.287   4.150   2.851
 1205SOL    HW2 3629   0.416   4.238   2.804
 1206SOL     OW 3630   1.138   4.104   3.540
 1206SOL    HW1 3631   1.093   4.167   3.604
 1206SOL    HW2 3632   1.231   4.135   3.523
 1207SOL     OW 3633   1.160   3.931   3.339
 1207SOL    HW1 3634   1.160   3.995   3.416
 1207SOL    HW2 3635   1.188   3.979   3.256
 1208SOL     OW 3636   0.040   4.268   2.976
 1208SOL    HW1 3637   0.125   4.235   2.935
 1208SOL    HW2 3638   0.053   4.283   3.074
 1209SOL     OW 3639   0.189   4.244   3.584
 1209SOL    HW1 3640   0.248   4.204   3.514
 1209SOL    HW2 3641   0.131   4.315   3.543
 1210SOL     OW 3642   0.815   4.296   2.187
 1210SOL    HW1 3643   0.822   4.207   2.141
 1210SOL    HW2 3644   0.721   4.330   2.179
 1211SOL     OW 3645   1.657   4.328   3.068
 1211SOL    HW1 3646   1.619   4.259   3.130
 1211SOL    HW2 3647   1.739   4.292   3.024
 1212SOL     OW 3648   0.671   4.188   3.131
 1212SOL    HW1 3649   0.637   4.099   3.101
 1212SOL    HW2 3650   0.697   4.242   3.051
 1213SOL     OW 3651   0.473   4.224   2.053
 1213SOL    HW1 3652   0.534   4.304   2.057
 1213SOL    HW2 3653   0.378   4.255   2.060
 1214SOL     OW 3654   1.726   3.859   2.385
 1214SOL    HW1 3655   1.799   3.842   2.318
 1214SOL    HW2 3656   1.695   3.772   2.423
 1215SOL     OW 3657   1.280   4.651   2.534
 1215SOL    HW1 3658   1.340   4.570   2.536
 1215SOL    HW2 3659   1.320   4.720   2.474
 1216SOL     OW 3660   1.841   3.899   2.825
 1216SOL    HW1 3661   1.880   3.814   2.789
 1216SOL    HW2 3662   1.743   3.901   2.806
 1217SOL     OW 3663   0.263   4.050   2.582
 1217SOL    HW1 3664   0.184   4.101   2.548
 1217SOL    HW2 3665   0.254   4.035   2.680
 1218SOL     OW 3666   0.916   4.634   2.153
 1218SOL    HW1 3667   0.979   4.672   2.085
 1218SOL    HW2 3668   0.956   4.551   2.192
 1219SOL     OW 3669   1.014   3.960   2.833
 1219SOL    HW1 3670   1.006   3.924   2.740
 1219SOL    HW2 3671   1.012   3.884   2.898
 1220SOL     OW 3672   1.709   4.109   3.243
 1220SOL    HW1 3673   1.782   4.178   3.247
 1220SOL    HW2 3674   1.737   4.034   3.184
 1221SOL     OW 3675   0.105   4.737   3.588
 1221SOL    HW1 3676   0.028   4.704   3.642
 1221SOL    HW2 3677   0.190   4.707   3.630
 1222SOL     OW 3678   0.672   3.927   3.351
 1222SOL    HW1 3679   0.762   3.911   3.311
 1222SOL    HW2 3680   0.680   3.932   3.450
 1223SOL     OW 3681   0.075   4.069   1.895
 1223SOL    HW1 3682  -0.017   4.041   1.866
 1223SOL    HW2 3683   0.106   4.146   1.839
 1224SOL     OW 3684   1.440   4.580   3.260
 1224SOL    HW1 3685   1.383   4.632   3.197
 1224SOL    HW2 3686   1.536   4.592   3.236
 1225SOL     OW 3687   0.072   3.890   2.180
 1225SOL    HW1 3688   0.055   3.973   2.126
 1225SOL    HW2 3689   0.162   3.853   2.158
 1226SOL     OW 3690   0.613   4.566   3.293
 1226SOL    HW1 3691   0.669   4.647   3.276
 1226SOL    HW2 3692   0.672   4.486   3.296
 1227SOL     OW 3693   0.716   4.289   3.570
 1227SOL    HW1 3694   0.735   4.354   3.644
 1227SOL    HW2 3695   0.776   4.209   3.579
 1228SOL     OW 3696   1.674   4.607   3.116
 1228SOL    HW1 3697   1.647   4.518   3.079
 1228SOL    HW2 3698   1.675   4.675   3.043
 1229SOL     OW 3699   1.225   4.049   2.311
 1229SOL    HW1 3700   1.290   3.975   2.300
 1229SOL    HW2 3701   1.245   4.099   2.395
 1230SOL     OW 3702   0.594   4.469   2.514
 1230SOL    HW1 3703   0.644   4.554   2.495
 1230SOL    HW2 3704   0.506   4.471   2.466
 1231SOL     OW 3705   1.777   4.066   3.504
 1231SOL    HW1 3706   1.760   4.097   3.410
 1231SOL    HW2 3707   1.693   4.029   3.542
 1232SOL     OW 3708   1.824   3.916   3.089
 1232SOL    HW1 3709   1.820   3.826   3.133
 1232SOL    HW2 3710   1.827   3.905   2.990
 1233SOL     OW 3711   0.428   4.148   2.382
 1233SOL    HW1 3712   0.458   4.076   2.320
 1233SOL    HW2 3713   0.389   4.108   2.465
 1234SOL     OW 3714   0.317   4.271   3.142
 1234SOL    HW1 3715   0.355   4.212   3.214
 1234SOL    HW2 3716   0.357   4.245   3.054
 1235SOL     OW 3717   1.424   3.938   2.974
 1235SOL    HW1 3718   1.476   3.873   3.029
 1235SOL    HW2 3719   1.375   4.001   3.035
 1236SOL     OW 3720   1.001   3.758   3.016
 1236SOL    HW1 3721   0.938   3.686   2.985
 1236SOL    HW2 3722   1.094   3.722   3.016
 1237SOL     OW 3723   1.352   3.776   2.030
 1237SOL    HW1 3724   1.387   3.735   1.946
 1237SOL    HW2 3725   1.262   3.738   2.050
 1238SOL     OW 3726   1.300   4.177   2.553
 1238SOL    HW1 3727   1.241   4.257   2.557
 1238SOL    HW2 3728   1.315   4.142   2.646
 1239SOL     OW 3729   1.593   3.945   2.744
 1239SOL    HW1 3730   1.509   3.944   2.798
 1239SOL    HW2 3731   1.595   4.028   2.688
 1240SOL     OW 3732   0.230   4.352   3.837
 1240SOL    HW1 3733   0.137   4.350   3.874
 1240SOL    HW2 3734   0.231   4.313   3.745
 1241SOL     OW 3735   0.019   4.092   4.371
 1241SOL    HW1 3736  -0.063   4.135   4.410
 1241SOL    HW2 3737  -0.009   4.019   4.308
 1242SOL     OW 3738   1.135   4.427   4.441
 1242SOL    HW1 3739   1.192   4.505   4.416
 1242SOL    HW2 3740   1.075   4.453   4.517
 1243SOL     OW 3741   1.755   4.331   3.955
 1243SOL    HW1 3742   1.743   4.318   3.856
 1243SOL    HW2 3743   1.725   4.250   4.004
 1244SOL     OW 3744   0.685   4.736   4.389
 1244SOL    HW1 3745   0.754   4.720   4.459
 1244SOL    HW2 3746   0.612   4.793   4.427
 1245SOL     OW 3747   1.603   4.171   4.461
 1245SOL    HW1 3748   1.529   4.217   4.411
 1245SOL    HW2 3749   1.654   4.239   4.514
 1246SOL     OW 3750   0.122   4.367   4.287
 1246SOL    HW1 3751   0.077   4.279   4.304
 1246SOL    HW2 3752   0.121   4.421   4.371
 1247SOL     OW 3753   0.809   3.728   4.226
 1247SOL    HW1 3754   0.849   3.819   4.217
 1247SOL    HW2 3755   0.709   3.736   4.232
 1248SOL     OW 3756   0.598   4.453   3.994
 1248SOL    HW1 3757   0.622   4.522   3.926
 1248SOL    HW2 3758   0.520   4.486   4.048
 1249SOL     OW 3759   1.281   4.069   4.668
 1249SOL    HW1 3760   1.195   4.019   4.655
 1249SOL    HW2 3761   1.343   4.015   4.724
 1250SOL     OW 3762   1.041   4.425   4.153
 1250SOL    HW1 3763   1.067   4.421   4.249
 1250SOL    HW2 3764   0.956   4.374   4.139
 1251SOL     OW 3765   0.076   4.535   4.513
 1251SOL    HW1 3766   0.175   4.523   4.522
 1251SOL    HW2 3767   0.052   4.630   4.534
 1252SOL     OW 3768   0.865   4.072   3.919
 1252SOL    HW1 3769   0.924   4.135   3.870
 1252SOL    HW2 3770   0.884   3.978   3.890
 1253SOL     OW 3771   1.458   4.459   4.452
 1253SOL    HW1 3772   1.453   4.394   4.527
 1253SOL    HW2 3773   1.538   4.518   4.465
 1254SOL     OW 3774   1.400   3.831   4.150
 1254SOL    HW1 3775   1.376   3.794   4.060
 1254SOL    HW2 3776   1.499   3.847   4.154
 1255SOL     OW 3777   0.382   4.424   4.204
 1255SOL    HW1 3778   0.427   4.334   4.201
 1255SOL    HW2 3779   0.288   4.413   4.237
 1256SOL     OW 3780   0.614   3.846   3.841
 1256SOL    HW1 3781   0.712   3.824   3.848
 1256SOL    HW2 3782   0.583   3.829   3.748
 1257SOL     OW 3783   0.539   3.788   4.236
 1257SOL    HW1 3784   0.458   3.789   4.294
 1257SOL    HW2 3785   0.542   3.871   4.181
 1258SOL     OW 3786   0.297   3.759   3.895
 1258SOL    HW1 3787   0.346   3.843   3.874
 1258SOL    HW2 3788   0.359   3.694   3.940
 1259SOL     OW 3789   0.935   3.960   4.204
 1259SOL    HW1 3790   0.887   4.001   4.126
 1259SOL    HW2 3791   1.034   3.958   4.185
 1260SOL     OW 3792   0.459   4.876   4.465
 1260SOL    HW1 3793   0.388   4.849   4.530
 1260SOL    HW2 3794   0.433   4.848   4.372
 1261SOL     OW 3795   1.032   4.273   3.740
 1261SOL    HW1 3796   0.991   4.355   3.701
 1261SOL    HW2 3797   1.096   4.299   3.813
 1262SOL     OW 3798   0.866   4.178   4.366
 1262SOL    HW1 3799   0.834   4.250   4.304
 1262SOL    HW2 3800   0.890   4.097   4.313
 1263SOL     OW 3801   1.017   3.763   4.477
 1263SOL    HW1 3802   0.945   3.768   4.408
 1263SOL    HW2 3803   0.993   3.694   4.546
 1264SOL     OW 3804   1.857   4.557   4.101
 1264SOL    HW1 3805   1.899   4.493   4.165
 1264SOL    HW2 3806   1.819   4.506   4.023
 1265SOL     OW 3807   1.390   4.299   3.802
 1265SOL    HW1 3808   1.336   4.278   3.883
 1265SOL    HW2 3809   1.481   4.258   3.811
 1266SOL     OW 3810   0.527   3.980   4.052
 1266SOL    HW1 3811   0.554   3.921   3.977
 1266SOL    HW2 3812   0.527   4.075   4.021
 1267SOL     OW 3813   0.705   4.774   4.092
 1267SOL    HW1 3814   0.691   4.781   4.191
 1267SOL    HW2 3815   0.789   4.723   4.074
 1268SOL     OW 3816   0.566   4.261   4.589
 1268SOL    HW1 3817   0.578   4.327   4.515
 1268SOL    HW2 3818   0.612   4.295   4.672
 1269SOL     OW 3819   1.582   4.363   4.196
 1269SOL    HW1 3820   1.551   4.424   4.269
 1269SOL    HW2 3821   1.632   4.415   4.127
 1270SOL     OW 3822   1.209   4.249   3.999
 1270SOL    HW1 3823   1.222   4.165   4.053
 1270SOL    HW2 3824   1.180   4.323   4.059
 1271SOL     OW 3825   0.307   3.787   4.342
 1271SOL    HW1 3826   0.296   3.881   4.375
 1271SOL    HW2 3827   0.302   3.724   4.419
 1272SOL     OW 3828   1.622   4.091   4.098
 1272SOL    HW1 3829   1.624   4.015   4.162
 1272SOL    HW2 3830   1.574   4.168   4.138
 1273SOL     OW 3831   1.540   3.998   3.849
 1273SOL    HW1 3832   1.479   3.923   3.872
 1273SOL    HW2 3833   1.562   4.050   3.932
 1274SOL     OW 3834   0.815   4.296   4.049
 1274SOL    HW1 3835   0.822   4.207   4.003
 1274SOL    HW2 3836   0.721   4.330   4.041
 1275SOL     OW 3837   0.473   4.224   3.915
 1275SOL    HW1 3838   0.534   4.304   3.919
 1275SOL    HW2 3839   0.378   4.255   3.922
 1276SOL     OW 3840   1.726   3.859   4.247
 1276SOL    HW1 3841   1.799   3.842   4.180
 1276SOL    HW2 3842   1.695   3.772   4.285
 1277SOL     OW 3843   1.280   4.651   4.396
 1277SOL    HW1 3844   1.340   4.570   4.398
 1277SOL    HW2 3845   1.320   4.720   4.336
 1278SOL     OW 3846   1.841   3.899   4.687
 1278SOL    HW1 3847   1.880   3.814   4.651
 1278SOL    HW2 3848   1.743   3.901   4.668
 1279SOL     OW 3849   0.263   4.050   4.444
 1279SOL    HW1 3850   0.184   4.101   4.410
 1279SOL    HW2 3851   0.254   4.035   4.542
 1280SOL     OW 3852   0.916   4.634   4.015
 1280SOL    HW1 3853   0.979   4.672   3.947
 1280SOL    HW2 3854   0.956   4.551   4.054
 1281SOL     OW 3855   0.075   4.069   3.757
 1281SOL    HW1 3856  -0.017   4.041   3.728
 1281SOL    HW2 3857   0.106   4.146   3.701
 1282SOL     OW 3858   0.072   3.890   4.042
 1282SOL    HW1 3859   0.055   3.973   3.988
 1282SOL    HW2 3860   0.162   3.853   4.020
 1283SOL     OW 3861   1.225   4.049   4.173
 1283SOL    HW1 3862   1.290   3.975   4.162
 1283SOL    HW2 3863   1.245   4.099   4.257
 1284SOL     OW 3864   0.594   4.469   4.376
 1284SOL    HW1 3865   0.644   4.554   4.357
 1284SOL    HW2 3866   0.506   4.471   4.328
 1285SOL     OW 3867   0.428   4.148   4.244
 1285SOL    HW1 3868   0.458   4.076   4.182
 1285SOL    HW2 3869   0.389   4.108   4.327
 1286SOL     OW 3870   1.352   3.776   3.892
 1286SOL    HW1 3871   1.387   3.735   3.808
 1286SOL    HW2 3872   1.262   3.738   3.912
 1287SOL     OW 3873   1.300   4.177   4.415
 1287SOL    HW1 3874   1.241   4.257   4.419
 1287SOL    HW2 3875   1.315   4.142   4.508
 1288SOL     OW 3876   2.092   0.628   0.113
 1288SOL    HW1 3877   1.999   0.626   0.150
 1288SOL    HW2 3878   2.093   0.589   0.021
 1289SOL     OW 3879   2.087   0.275   0.996
 1289SOL    HW1 3880   2.122   0.258   1.088
 1289SOL    HW2 3881   1.999   0.230   0.984
 1290SOL     OW 3882   1.881   0.368   0.647
 1290SOL    HW1 3883   1.799   0.411   0.686
 1290SOL    HW2 3884   1.853   0.295   0.584
 1291SOL     OW 3885   2.431   1.275   1.165
 1291SOL    HW1 3886   2.338   1.268   1.128
 1291SOL    HW2 3887   2.442   1.364   1.209
 1292SOL     OW 3888   3.417   1.511   0.703
 1292SOL    HW1 3889   3.360   1.495   0.784
 1292SOL    HW2 3890   3.358   1.521   0.623
 1293SOL     OW 3891   2.997   0.703   0.717
 1293SOL    HW1 3892   3.054   0.781   0.692
 1293SOL    HW2 3893   2.937   0.729   0.793
 1294SOL     OW 3894   3.617   0.607   0.231
 1294SOL    HW1 3895   3.605   0.594   0.132
 1294SOL    HW2 3896   3.587   0.526   0.280
 1295SOL     OW 3897   2.630   1.144   1.023
 1295SOL    HW1 3898   2.552   1.161   1.083
 1295SOL    HW2 3899   2.664   1.231   0.987
 1296SOL     OW 3900   2.712   0.798   1.823
 1296SOL    HW1 3901   2.708   0.874   1.888
 1296SOL    HW2 3902   2.734   0.834   1.732
 1297SOL     OW 3903   2.547   1.012   0.665
 1297SOL    HW1 3904   2.616   0.996   0.735
 1297SOL    HW2 3905   2.474   1.069   0.703
 1298SOL     OW 3906   2.548   1.161   1.803
 1298SOL    HW1 3907   2.608   1.240   1.817
 1298SOL    HW2 3908   2.462   1.192   1.762
 1299SOL     OW 3909   2.197   1.435   1.061
 1299SOL    HW1 3910   2.119   1.404   1.008
 1299SOL    HW2 3911   2.255   1.493   1.004
 1300SOL     OW 3912   3.322   1.505   1.339
 1300SOL    HW1 3913   3.346   1.599   1.365
 1300SOL    HW2 3914   3.306   1.451   1.421
 1301SOL     OW 3915   2.300   0.392   1.499
 1301SOL    HW1 3916   2.382   0.336   1.508
 1301SOL    HW2 3917   2.219   0.334   1.503
 1302SOL     OW 3918   3.465   0.447   0.737
 1302SOL    HW1 3919   3.391   0.493   0.687
 1302SOL    HW2 3920   3.516   0.515   0.790
 1303SOL     OW 3921   2.093   1.713   0.483
 1303SOL    HW1 3922   2.127   1.790   0.537
 1303SOL    HW2 3923   2.137   1.713   0.393
 1304SOL     OW 3924   2.989   1.341   1.690
 1304SOL    HW1 3925   3.036   1.341   1.778
 1304SOL    HW2 3926   2.941   1.254   1.679
 1305SOL     OW 3927   2.092   1.434   0.538
 1305SOL    HW1 3928   2.066   1.530   0.538
 1305SOL    HW2 3929   2.021   1.380   0.583
 1306SOL     OW 3930   2.102   1.091   0.886
 1306SOL    HW1 3931   2.116   1.007   0.938
 1306SOL    HW2 3932   2.047   1.155   0.941
 1307SOL     OW 3933   2.482   1.786   1.439
 1307SOL    HW1 3934   2.390   1.769   1.474
 1307SOL    HW2 3935   2.510   1.878   1.465
 1308SOL     OW 3936   2.468   0.964   0.123
 1308SOL    HW1 3937   2.475   1.048   0.069
 1308SOL    HW2 3938   2.514   0.977   0.211
 1309SOL     OW 3939   3.456   0.114   1.480
 1309SOL    HW1 3940   3.438   0.181   1.408
 1309SOL    HW2 3941   3.453   0.160   1.569
 1310SOL     OW 3942   1.984   0.643   0.563
 1310SOL    HW1 3943   1.939   0.555   0.580
 1310SOL    HW2 3944   1.983   0.697   0.647
 1311SOL     OW 3945   3.704   1.767   0.359
 1311SOL    HW1 3946   3.758   1.738   0.439
 1311SOL    HW2 3947   3.734   1.857   0.330
 1312SOL     OW 3948   1.889   1.596   0.117
 1312SOL    HW1 3949   1.870   1.500   0.138
 1312SOL    HW2 3950   1.856   1.654   0.192
 1313SOL     OW 3951   3.551   0.922   0.612
 1313SOL    HW1 3952   3.646   0.893   0.620
 1313SOL    HW2 3953   3.543   0.987   0.537
 1314SOL     OW 3954   3.503   1.108   0.432
 1314SOL    HW1 3955   3.589   1.110   0.380
 1314SOL    HW2 3956   3.517   1.155   0.520
 1315SOL     OW 3957   1.975   0.737   1.597
 1315SOL    HW1 3958   2.063   0.724   1.642
 1315SOL    HW2 3959   1.962   0.834   1.575
 1316SOL     OW 3960   2.475   1.365   0.726
 1316SOL    HW1 3961   2.426   1.278   0.735
 1316SOL    HW2 3962   2.452   1.408   0.639
 1317SOL     OW 3963   3.155   1.228   1.423
 1317SOL    HW1 3964   3.192   1.155   1.365
 1317SOL    HW2 3965   3.207   1.233   1.508
 1318SOL     OW 3966   2.671   0.004   0.502
 1318SOL    HW1 3967   2.711   0.095   0.493
 1318SOL    HW2 3968   2.571   0.012   0.508
 1319SOL     OW 3969   2.059   0.976   1.264
 1319SOL    HW1 3970   2.148   0.931   1.250
 1319SOL    HW2 3971   1.986   0.911   1.245
 1320SOL     OW 3972   3.387   0.999   0.190
 1320SOL    HW1 3973   3.324   0.923   0.203
 1320SOL    HW2 3974   3.435   1.017   0.276
 1321SOL     OW 3975   3.049   1.792   1.616
 1321SOL    HW1 3976   3.073   1.852   1.540
 1321SOL    HW2 3977   3.056   1.697   1.586
 1322SOL     OW 3978   2.179   0.251   1.801
 1322SOL    HW1 3979   2.250   0.322   1.807
 1322SOL    HW2 3980   2.091   0.290   1.829
 1323SOL     OW 3981   3.328   1.417   0.953
 1323SOL    HW1 3982   3.269   1.423   1.033
 1323SOL    HW2 3983   3.313   1.329   0.907
 1324SOL     OW 3984   3.529   1.714   0.572
 1324SOL    HW1 3985   3.488   1.691   0.484
 1324SOL    HW2 3986   3.511   1.640   0.637
 1325SOL     OW 3987   2.460   0.729   0.270
 1325SOL    HW1 3988   2.484   0.798   0.202
 1325SOL    HW2 3989   2.382   0.762   0.324
 1326SOL     OW 3990   3.143   0.345   0.944
 1326SOL    HW1 3991   3.057   0.295   0.931
 1326SOL    HW2 3992   3.205   0.291   1.000
 1327SOL     OW 3993   3.438   1.662   0.307
 1327SOL    HW1 3994   3.527   1.708   0.310
 1327SOL    HW2 3995   3.417   1.638   0.212
 1328SOL     OW 3996   2.669   0.605   1.465
 1328SOL    HW1 3997   2.622   0.602   1.554
 1328SOL    HW2 3998   2.618   0.550   1.399
 1329SOL     OW 3999   3.256   0.469   1.674
 1329SOL    HW1 4000   3.236   0.512   1.762
 1329SOL    HW2 4001   3.334   0.407   1.683
 1330SOL     OW 4002   2.835   0.890   1.572
 1330SOL    HW1 4003   2.881   0.806   1.543
 1330SOL    HW2 4004   2.779   0.924   1.497
 1331SOL     OW 4005   2.853   0.410   1.242
 1331SOL    HW1 4006   2.776   0.444   1.296
 1331SOL    HW2 4007   2.819   0.359   1.163
 1332SOL     OW 4008   2.903   0.701   0.429
 1332SOL    HW1 4009   2.929   0.697   0.525
 1332SOL    HW2 4010   2.818   0.650   0.415
 1333SOL     OW 4011   1.938   0.811   0.789
 1333SOL    HW1 4012   2.037   0.799   0.798
 1333SOL    HW2 4013   1.914   0.906   0.810
 1334SOL     OW 4014   1.992   1.821   1.571
 1334SOL    HW1 4015   1.982   1.806   1.670
 1334SOL    HW2 4016   1.906   1.857   1.535
 1335SOL     OW 4017   2.727   0.348   0.195
 1335SOL    HW1 4018   2.786   0.411   0.146
 1335SOL    HW2 4019   2.746   0.254   0.166
 1336SOL     OW 4020   3.581   0.585   1.831
 1336SOL    HW1 4021   3.555   0.674   1.795
 1336SOL    HW2 4022   3.579   0.517   1.758
 1337SOL     OW 4023   3.224   1.144   0.545
 1337SOL    HW1 4024   3.307   1.115   0.497
 1337SOL    HW2 4025   3.175   1.211   0.489
 1338SOL     OW 4026   2.412   0.196   0.885
 1338SOL    HW1 4027   2.407   0.191   0.985
 1338SOL    HW2 4028   2.414   0.292   0.856
 1339SOL     OW 4029   2.870   1.456   0.477
 1339SOL    HW1 4030   2.824   1.528   0.425
 1339SOL    HW2 4031   2.866   1.476   0.575
 1340SOL     OW 4032   2.213   1.801   0.853
 1340SOL    HW1 4033   2.263   1.715   0.859
 1340SOL    HW2 4034   2.278   1.878   0.850
 1341SOL     OW 4035   3.657   1.066   0.873
 1341SOL    HW1 4036   3.595   1.051   0.797
 1341SOL    HW2 4037   3.605   1.077   0.958
 1342SOL     OW 4038   3.089   1.550   1.506
 1342SOL    HW1 4039   3.095   1.473   1.570
 1342SOL    HW2 4040   3.037   1.524   1.426
 1343SOL     OW 4041   2.183   0.943   0.242
 1343SOL    HW1 4042   2.265   0.982   0.200
 1343SOL    HW2 4043   2.156   0.861   0.193
 1344SOL     OW 4044   3.320   0.735   0.728
 1344SOL    HW1 4045   3.315   0.670   0.803
 1344SOL    HW2 4046   3.400   0.794   0.741
 1345SOL     OW 4047   2.323   1.266   1.727
 1345SOL    HW1 4048   2.273   1.267   1.641
 1345SOL    HW2 4049   2.260   1.248   1.803
 1346SOL     OW 4050   2.973   1.776   0.237
 1346SOL    HW1 4051   2.913   1.714   0.287
 1346SOL    HW2 4052   3.004   1.732   0.152
 1347SOL     OW 4053   2.064   0.285   1.498
 1347SOL    HW1 4054   1.984   0.345   1.485
 1347SOL    HW2 4055   2.054   0.236   1.584
 1348SOL     OW 4056   3.494   1.377   0.081
 1348SOL    HW1 4057   3.462   1.471   0.071
 1348SOL    HW2 4058   3.418   1.314   0.069
 1349SOL     OW 4059   2.326   1.743   0.323
 1349SOL    HW1 4060   2.359   1.782   0.409
 1349SOL    HW2 4061   2.402   1.736   0.258
 1350SOL     OW 4062   3.262   0.107   0.426
 1350SOL    HW1 4063   3.238   0.070   0.336
 1350SOL    HW2 4064   3.361   0.123   0.430
 1351SOL     OW 4065   2.111   1.785   1.241
 1351SOL    HW1 4066   2.168   1.720   1.291
 1351SOL    HW2 4067   2.095   1.752   1.148
 1352SOL     OW 4068   2.802   1.698   0.904
 1352SOL    HW1 4069   2.882   1.641   0.925
 1352SOL    HW2 4070   2.753   1.658   0.827
 1353SOL     OW 4071   2.244   0.700   0.480
 1353SOL    HW1 4072   2.289   0.610   0.477
 1353SOL    HW2 4073   2.150   0.689   0.513
 1354SOL     OW 4074   3.409   0.222   1.729
 1354SOL    HW1 4075   3.404   0.259   1.821
 1354SOL    HW2 4076   3.337   0.153   1.717
 1355SOL     OW 4077   2.476   0.122   0.117
 1355SOL    HW1 4078   2.574   0.100   0.124
 1355SOL    HW2 4079   2.445   0.105   0.024
 1356SOL     OW 4080   2.643   0.264   1.749
 1356SOL    HW1 4081   2.710   0.203   1.792
 1356SOL    HW2 4082   2.570   0.283   1.814
 1357SOL     OW 4083   2.750   1.514   1.195
 1357SOL    HW1 4084   2.727   1.489   1.101
 1357SOL    HW2 4085   2.811   1.445   1.234
 1358SOL     OW 4086   3.213   0.590   1.433
 1358SOL    HW1 4087   3.241   0.547   1.518
 1358SOL    HW2 4088   3.238   0.686   1.434
 1359SOL     OW 4089   2.665   1.402   0.924
 1359SOL    HW1 4090   2.755   1.416   0.882
 1359SOL    HW2 4091   2.594   1.404   0.853
 1360SOL     OW 4092   2.784   0.503   0.899
 1360SOL    HW1 4093   2.759   0.494   0.803
 1360SOL    HW2 4094   2.832   0.421   0.930
 1361SOL     OW 4095   2.401   0.064   0.512
 1361SOL    HW1 4096   2.320   0.065   0.570
 1361SOL    HW2 4097   2.404   0.147   0.457
 1362SOL     OW 4098   3.296   1.188   0.041
 1362SOL    HW1 4099   3.328   1.112   0.098
 1362SOL    HW2 4100   3.204   1.215   0.071
 1363SOL     OW 4101   2.159   0.035   0.171
 1363SOL    HW1 4102   2.208   0.119   0.150
 1363SOL    HW2 4103   2.221  -0.030   0.216
 1364SOL     OW 4104   2.797   0.236   0.480
 1364SOL    HW1 4105   2.749   0.277   0.402
 1364SOL    HW2 4106   2.896   0.234   0.461
 1365SOL     OW 4107   2.938   0.683   1.464
 1365SOL    HW1 4108   2.858   0.622   1.467
 1365SOL    HW2 4109   3.019   0.630   1.440
 1366SOL     OW 4110   3.089   1.570   0.793
 1366SOL    HW1 4111   3.110   1.644   0.728
 1366SOL    HW2 4112   3.157   1.570   0.866
 1367SOL     OW 4113   2.321   1.152   0.741
 1367SOL    HW1 4114   2.250   1.125   0.806
 1367SOL    HW2 4115   2.295   1.124   0.648
 1368SOL     OW 4116   3.133   1.797   0.591
 1368SOL    HW1 4117   3.177   1.861   0.527
 1368SOL    HW2 4118   3.083   1.849   0.661
 1369SOL     OW 4119   2.894   0.549   0.016
 1369SOL    HW1 4120   2.853   0.631  -0.023
 1369SOL    HW2 4121   2.958   0.575   0.089
 1370SOL     OW 4122   1.940   0.556   1.386
 1370SOL    HW1 4123   2.032   0.555   1.345
 1370SOL    HW2 4124   1.934   0.630   1.453
 1371SOL     OW 4125   2.423   0.222   1.147
 1371SOL    HW1 4126   2.461   0.138   1.184
 1371SOL    HW2 4127   2.335   0.241   1.191
 1372SOL     OW 4128   2.728   0.454   0.642
 1372SOL    HW1 4129   2.696   0.526   0.580
 1372SOL    HW2 4130   2.752   0.373   0.589
 1373SOL     OW 4131   2.879   0.039   0.753
 1373SOL    HW1 4132   2.807   0.044   0.684
 1373SOL    HW2 4133   2.855  -0.030   0.822
 1374SOL     OW 4134   3.291   1.173   0.867
 1374SOL    HW1 4135   3.236   1.089   0.860
 1374SOL    HW2 4136   3.317   1.202   0.775
 1375SOL     OW 4137   3.328   0.590   0.992
 1375SOL    HW1 4138   3.298   0.495   0.999
 1375SOL    HW2 4139   3.401   0.606   1.058
 1376SOL     OW 4140   3.719   0.833   0.377
 1376SOL    HW1 4141   3.761   0.769   0.441
 1376SOL    HW2 4142   3.681   0.782   0.299
 1377SOL     OW 4143   2.350   1.385   0.174
 1377SOL    HW1 4144   2.263   1.370   0.221
 1377SOL    HW2 4145   2.333   1.411   0.079
 1378SOL     OW 4146   3.526   1.280   0.657
 1378SOL    HW1 4147   3.625   1.288   0.671
 1378SOL    HW2 4148   3.481   1.364   0.688
 1379SOL     OW 4149   3.252   0.575   0.078
 1379SOL    HW1 4150   3.198   0.554   0.159
 1379SOL    HW2 4151   3.343   0.534   0.087
 1380SOL     OW 4152   2.389   0.256   0.328
 1380SOL    HW1 4153   2.416   0.197   0.253
 1380SOL    HW2 4154   2.389   0.351   0.297
 1381SOL     OW 4155   3.616   1.223   1.588
 1381SOL    HW1 4156   3.707   1.184   1.575
 1381SOL    HW2 4157   3.624   1.319   1.612
 1382SOL     OW 4158   2.926   1.347   1.340
 1382SOL    HW1 4159   2.846   1.324   1.395
 1382SOL    HW2 4160   3.009   1.321   1.389
 1383SOL     OW 4161   3.454   1.629   1.625
 1383SOL    HW1 4162   3.481   1.663   1.535
 1383SOL    HW2 4163   3.533   1.591   1.671
 1384SOL     OW 4164   2.973   1.195   1.100
 1384SOL    HW1 4165   2.933   1.239   1.181
 1384SOL    HW2 4166   2.932   1.232   1.017
 1385SOL     OW 4167   3.500   1.099   1.079
 1385SOL    HW1 4168   3.505   1.180   1.138
 1385SOL    HW2 4169   3.414   1.101   1.028
 1386SOL     OW 4170   2.777   0.089   1.402
 1386SOL    HW1 4171   2.802   0.069   1.307
 1386SOL    HW2 4172   2.849   0.145   1.444
 1387SOL     OW 4173   2.842   1.116   1.719
 1387SOL    HW1 4174   2.743   1.122   1.729
 1387SOL    HW2 4175   2.865   1.036   1.663
 1388SOL     OW 4176   2.567   1.050   0.368
 1388SOL    HW1 4177   2.553   1.057   0.467
 1388SOL    HW2 4178   2.651   0.999   0.350
 1389SOL     OW 4179   2.272   0.813   1.251
 1389SOL    HW1 4180   2.358   0.825   1.301
 1389SOL    HW2 4181   2.230   0.726   1.278
 1390SOL     OW 4182   3.136   0.386   1.262
 1390SOL    HW1 4183   3.157   0.460   1.326
 1390SOL    HW2 4184   3.047   0.403   1.219
 1391SOL     OW 4185   1.926   1.564   1.331
 1391SOL    HW1 4186   1.880   1.646   1.297
 1391SOL    HW2 4187   2.024   1.583   1.340
 1392SOL     OW 4188   2.229   1.100   0.501
 1392SOL    HW1 4189   2.222   1.183   0.445
 1392SOL    HW2 4190   2.233   1.020   0.441
 1393SOL     OW 4191   2.428   0.537   0.865
 1393SOL    HW1 4192   2.440   0.603   0.791
 1393SOL    HW2 4193   2.474   0.571   0.948
 1394SOL     OW 4194   3.114   1.348   0.388
 1394SOL    HW1 4195   3.164   1.425   0.428
 1394SOL    HW2 4196   3.019   1.350   0.420
 1395SOL     OW 4197   3.134   1.445   1.142
 1395SOL    HW1 4198   3.181   1.458   1.229
 1395SOL    HW2 4199   3.068   1.371   1.151
 1396SOL     OW 4200   3.444   0.639   0.472
 1396SOL    HW1 4201   3.413   0.700   0.545
 1396SOL    HW2 4202   3.494   0.691   0.403
 1397SOL     OW 4203   2.216   1.510   1.329
 1397SOL    HW1 4204   2.195   1.466   1.242
 1397SOL    HW2 4205   2.313   1.536   1.332
 1398SOL     OW 4206   2.264   0.751   1.598
 1398SOL    HW1 4207   2.332   0.806   1.551
 1398SOL    HW2 4208   2.304   0.663   1.625
 1399SOL     OW 4209   3.449   0.779   1.670
 1399SOL    HW1 4210   3.357   0.817   1.665
 1399SOL    HW2 4211   3.509   0.826   1.605
 1400SOL     OW 4212   2.875   0.105   1.770
 1400SOL    HW1 4213   2.881   0.190   1.718
 1400SOL    HW2 4214   2.907   0.029   1.713
 1401SOL     OW 4215   2.366   0.050   1.740
 1401SOL    HW1 4216   2.324  -0.007   1.670
 1401SOL    HW2 4217   2.300   0.119   1.772
 1402SOL     OW 4218   2.435   0.870   1.029
 1402SOL    HW1 4219   2.479   0.959   1.020
 1402SOL    HW2 4220   2.372   0.870   1.106
 1403SOL     OW 4221   3.222   0.862   1.045
 1403SOL    HW1 4222   3.147   0.862   0.979
 1403SOL    HW2 4223   3.259   0.770   1.054
 1404SOL     OW 4224   3.071   0.525   0.275
 1404SOL    HW1 4225   3.084   0.441   0.329
 1404SOL    HW2 4226   3.042   0.599   0.335
 1405SOL     OW 4227   2.169   0.213   1.231
 1405SOL    HW1 4228   2.146   0.250   1.321
 1405SOL    HW2 4229   2.139   0.118   1.225
 1406SOL     OW 4230   1.899   1.310   1.282
 1406SOL    HW1 4231   1.952   1.261   1.350
 1406SOL    HW2 4232   1.921   1.408   1.287
 1407SOL     OW 4233   2.594   0.634   1.064
 1407SOL    HW1 4234   2.653   0.608   0.988
 1407SOL    HW2 4235   2.566   0.730   1.053
 1408SOL     OW 4236   3.590   0.935   1.854
 1408SOL    HW1 4237   3.544   0.928   1.765
 1408SOL    HW2 4238   3.528   0.979   1.920
 1409SOL     OW 4239   2.169   0.063   0.618
 1409SOL    HW1 4240   2.158   0.157   0.651
 1409SOL    HW2 4241   2.164   0.000   0.695
 1410SOL     OW 4242   3.484   0.367   0.374
 1410SOL    HW1 4243   3.486   0.291   0.438
 1410SOL    HW2 4244   3.436   0.444   0.414
 1411SOL     OW 4245   2.885   0.766   0.966
 1411SOL    HW1 4246   2.900   0.787   1.062
 1411SOL    HW2 4247   2.855   0.671   0.957
 1412SOL     OW 4248   2.842   1.573   1.700
 1412SOL    HW1 4249   2.822   1.617   1.612
 1412SOL    HW2 4250   2.881   1.482   1.684
 1413SOL     OW 4251   3.721   1.518   1.605
 1413SOL    HW1 4252   3.735   1.545   1.510
 1413SOL    HW2 4253   3.804   1.540   1.658
 1414SOL     OW 4254   2.212   0.898   1.804
 1414SOL    HW1 4255   2.288   0.942   1.852
 1414SOL    HW2 4256   2.247   0.851   1.722
 1415SOL     OW 4257   3.402   0.274   0.125
 1415SOL    HW1 4258   3.341   0.199   0.148
 1415SOL    HW2 4259   3.424   0.326   0.208
 1416SOL     OW 4260   3.165   0.838   0.042
 1416SOL    HW1 4261   3.199   0.745   0.057
 1416SOL    HW2 4262   3.183   0.865  -0.053
 1417SOL     OW 4263   2.930   1.333   0.849
 1417SOL    HW1 4264   2.937   1.249   0.794
 1417SOL    HW2 4265   2.992   1.402   0.813
 1418SOL     OW 4266   2.181   0.810   0.949
 1418SOL    HW1 4267   2.274   0.846   0.954
 1418SOL    HW2 4268   2.175   0.725   1.001
 1419SOL     OW 4269   2.201   0.509   1.006
 1419SOL    HW1 4270   2.149   0.426   0.989
 1419SOL    HW2 4271   2.278   0.514   0.942
 1420SOL     OW 4272   3.000   0.380   1.678
 1420SOL    HW1 4273   2.955   0.443   1.742
 1420SOL    HW2 4274   3.093   0.411   1.661
 1421SOL     OW 4275   3.022   0.207   1.477
 1421SOL    HW1 4276   3.022   0.271   1.554
 1421SOL    HW2 4277   3.050   0.255   1.394
 1422SOL     OW 4278   1.870   1.326   0.200
 1422SOL    HW1 4279   1.777   1.347   0.169
 1422SOL    HW2 4280   1.880   1.227   0.213
 1423SOL     OW 4281   1.950   1.801   0.927
 1423SOL    HW1 4282   1.908   1.715   0.900
 1423SOL    HW2 4283   2.044   1.804   0.893
 1424SOL     OW 4284   2.366   1.568   0.910
 1424SOL    HW1 4285   2.432   1.642   0.919
 1424SOL    HW2 4286   2.410   1.489   0.868
 1425SOL     OW 4287   2.864   0.796   1.238
 1425SOL    HW1 4288   2.905   0.764   1.324
 1425SOL    HW2 4289   2.768   0.769   1.235
 1426SOL     OW 4290   1.902   0.544   1.114
 1426SOL    HW1 4291   1.987   0.511   1.073
 1426SOL    HW2 4292   1.915   0.559   1.212
 1427SOL     OW 4293   2.051   0.520   1.722
 1427SOL    HW1 4294   2.110   0.480   1.652
 1427SOL    HW2 4295   1.993   0.591   1.681
 1428SOL     OW 4296   3.231   0.950   1.660
 1428SOL    HW1 4297   3.270   1.039   1.680
 1428SOL    HW2 4298   3.241   0.930   1.563
 1429SOL     OW 4299   2.677   0.572   0.325
 1429SOL    HW1 4300   2.684   0.483   0.279
 1429SOL    HW2 4301   2.583   0.606   0.317
 1430SOL     OW 4302   3.519   0.604   1.206
 1430SOL    HW1 4303   3.481   0.535   1.268
 1430SOL    HW2 4304   3.601   0.568   1.162
 1431SOL     OW 4305   2.114   1.564   1.744
 1431SOL    HW1 4306   2.084   1.621   1.820
 1431SOL    HW2 4307   2.107   1.467   1.770
 1432SOL     OW 4308   2.533   0.464   1.269
 1432SOL    HW1 4309   2.499   0.375   1.239
 1432SOL    HW2 4310   2.559   0.518   1.189
 1433SOL     OW 4311   2.792   1.678   1.465
 1433SOL    HW1 4312   2.768   1.660   1.370
 1433SOL    HW2 4313   2.822   1.772   1.475
 1434SOL     OW 4314   2.335   0.500   0.191
 1434SOL    HW1 4315   2.396   0.580   0.195
 1434SOL    HW2 4316   2.240   0.531   0.198
 1435SOL     OW 4317   2.021   1.137   1.466
 1435SOL    HW1 4318   2.043   1.076   1.542
 1435SOL    HW2 4319   2.031   1.088   1.380
 1436SOL     OW 4320   3.209   1.059   1.234
 1436SOL    HW1 4321   3.233   0.996   1.160
 1436SOL    HW2 4322   3.119   1.099   1.216
 1437SOL     OW 4323   3.164   0.855   0.309
 1437SOL    HW1 4324   3.078   0.824   0.351
 1437SOL    HW2 4325   3.160   0.841   0.210
 1438SOL     OW 4326   3.621   1.747   1.154
 1438SOL    HW1 4327   3.682   1.777   1.081
 1438SOL    HW2 4328   3.583   1.658   1.132
 1439SOL     OW 4329   3.114   1.731   1.128
 1439SOL    HW1 4330   3.198   1.736   1.074
 1439SOL    HW2 4331   3.091   1.635   1.146
 1440SOL     OW 4332   1.945   1.258   1.022
 1440SOL    HW1 4333   1.940   1.257   1.122
 1440SOL    HW2 4334   1.862   1.217   0.984
 1441SOL     OW 4335   2.550   1.662   1.716
 1441SOL    HW1 4336   2.494   1.743   1.725
 1441SOL    HW2 4337   2.602   1.666   1.630
 1442SOL     OW 4338   2.765   0.086   0.133
 1442SOL    HW1 4339   2.816   0.087   0.047
 1442SOL    HW2 4340   2.821   0.044   0.204
 1443SOL     OW 4341   3.588   0.135   0.523
 1443SOL    HW1 4342   3.661   0.118   0.456
 1443SOL    HW2 4343   3.557   0.048   0.561
 1444SOL     OW 4344   3.250   1.573   0.477
 1444SOL    HW1 4345   3.317   1.585   0.403
 1444SOL    HW2 4346   3.210   1.662   0.500
 1445SOL     OW 4347   1.992   1.794   1.851
 1445SOL    HW1 4348   1.951   1.720   1.904
 1445SOL    HW2 4349   2.056   1.845   1.909
 1446SOL     OW 4350   3.142   0.927   0.672
 1446SOL    HW1 4351   3.202   0.846   0.674
 1446SOL    HW2 4352   3.182   0.996   0.612
 1447SOL     OW 4353   2.692   1.273   1.422
 1447SOL    HW1 4354   2.687   1.306   1.517
 1447SOL    HW2 4355   2.606   1.292   1.376
 1448SOL     OW 4356   2.534   1.616   0.154
 1448SOL    HW1 4357   2.543   1.626   0.055
 1448SOL    HW2 4358   2.494   1.527   0.175
 1449SOL     OW 4359   3.512   1.720   1.394
 1449SOL    HW1 4360   3.565   1.730   1.310
 1449SOL    HW2 4361   3.485   1.810   1.428
 1450SOL     OW 4362   3.703   0.175   0.963
 1450SOL    HW1 4363   3.742   0.090   0.927
 1450SOL    HW2 4364   3.605   0.177   0.944
 1451SOL     OW 4365   2.125   0.326   0.720
 1451SOL    HW1 4366   2.046   0.377   0.686
 1451SOL    HW2 4367   2.116   0.311   0.818
 1452SOL     OW 4368   3.056   1.612   0.031
 1452SOL    HW1 4369   3.062   1.519   0.068
 1452SOL    HW2 4370   2.997   1.612  -0.049
 1453SOL     OW 4371   2.684   1.002   1.372
 1453SOL    HW1 4372   2.724   1.001   1.280
 1453SOL    HW2 4373   2.694   1.094   1.412
 1454SOL     OW 4374   2.778   0.910   0.291
 1454SOL    HW1 4375   2.841   0.948   0.223
 1454SOL    HW2 4376   2.818   0.827   0.330
 1455SOL     OW 4377   3.366   1.607   0.044
 1455SOL    HW1 4378   3.274   1.644   0.051
 1455SOL    HW2 4379   3.404   1.627  -0.046
 1456SOL     OW 4380   2.234   1.288   1.490
 1456SOL    HW1 4381   2.221   1.381   1.456
 1456SOL    HW2 4382   2.150   1.236   1.477
 1457SOL     OW 4383   3.476   1.292   1.289
 1457SOL    HW1 4384   3.536   1.295   1.369
 1457SOL    HW2 4385   3.401   1.356   1.302
 1458SOL     OW 4386   2.901   1.098   0.696
 1458SOL    HW1 4387   2.831   1.051   0.750
 1458SOL    HW2 4388   2.960   1.030   0.653
 1459SOL     OW 4389   2.876   0.236   0.971
 1459SOL    HW1 4390   2.868   0.200   0.878
 1459SOL    HW2 4391   2.874   0.160   1.036
 1460SOL     OW 4392   2.452   1.487   0.491
 1460SOL    HW1 4393   2.494   1.429   0.421
 1460SOL    HW2 4394   2.408   1.566   0.447
 1461SOL     OW 4395   3.571   0.385   1.381
 1461SOL    HW1 4396   3.644   0.454   1.385
 1461SOL    HW2 4397   3.599   0.310   1.322
 1462SOL     OW 4398   2.117   1.348   0.290
 1462SOL    HW1 4399   2.021   1.349   0.263
 1462SOL    HW2 4400   2.129   1.401   0.374
 1463SOL     OW 4401   1.967   1.013   1.726
 1463SOL    HW1 4402   1.890   0.980   1.780
 1463SOL    HW2 4403   2.052   0.983   1.768
 1464SOL     OW 4404   2.534   0.203   1.489
 1464SOL    HW1 4405   2.624   0.187   1.449
 1464SOL    HW2 4406   2.542   0.208   1.588
 1465SOL     OW 4407   1.937   0.345   0.033
 1465SOL    HW1 4408   1.845   0.317   0.004
 1465SOL    HW2 4409   1.968   0.422  -0.023
 1466SOL     OW 4410   3.302   0.856   1.398
 1466SOL    HW1 4411   3.245   0.908   1.335
 1466SOL    HW2 4412   3.398   0.868   1.374
 1467SOL     OW 4413   1.934   0.166   0.318
 1467SOL    HW1 4414   1.917   0.249   0.264
 1467SOL    HW2 4415   2.024   0.129   0.296
 1468SOL     OW 4416   3.045   1.335   0.119
 1468SOL    HW1 4417   2.946   1.324   0.121
 1468SOL    HW2 4418   3.079   1.350   0.212
 1469SOL     OW 4419   2.475   0.842   1.431
 1469SOL    HW1 4420   2.531   0.923   1.414
 1469SOL    HW2 4421   2.534   0.762   1.434
 1470SOL     OW 4422   3.355   1.767   0.959
 1470SOL    HW1 4423   3.388   1.831   0.890
 1470SOL    HW2 4424   3.421   1.761   1.034
 1471SOL     OW 4425   2.578   0.565   1.708
 1471SOL    HW1 4426   2.597   0.630   1.782
 1471SOL    HW2 4427   2.638   0.485   1.717
 1472SOL     OW 4428   3.312   1.220   1.633
 1472SOL    HW1 4429   3.303   1.210   1.732
 1472SOL    HW2 4430   3.408   1.213   1.607
 1473SOL     OW 4431   2.252   1.741   1.560
 1473SOL    HW1 4432   2.161   1.782   1.558
 1473SOL    HW2 4433   2.245   1.647   1.592
 1474SOL     OW 4434   3.536   0.883   1.254
 1474SOL    HW1 4435   3.509   0.794   1.217
 1474SOL    HW2 4436   3.537   0.951   1.181
 1475SOL     OW 4437   3.087   0.325   0.449
 1475SOL    HW1 4438   3.152   0.251   0.438
 1475SOL    HW2 4439   3.107   0.375   0.533
 1476SOL     OW 4440   2.456   0.745   0.652
 1476SOL    HW1 4441   2.506   0.830   0.633
 1476SOL    HW2 4442   2.368   0.747   0.604
 1477SOL     OW 4443   3.639   0.342   1.642
 1477SOL    HW1 4444   3.622   0.373   1.548
 1477SOL    HW2 4445   3.555   0.305   1.680
 1478SOL     OW 4446   3.592   0.934   1.517
 1478SOL    HW1 4447   3.630   1.025   1.532
 1478SOL    HW2 4448   3.584   0.917   1.418
 1479SOL     OW 4449   2.721   1.374   0.016
 1479SOL    HW1 4450   2.675   1.389   0.104
 1479SOL    HW2 4451   2.765   1.459  -0.014
 1480SOL     OW 4452   2.523   1.790   0.953
 1480SOL    HW1 4453   2.477   1.878   0.940
 1480SOL    HW2 4454   2.622   1.802   0.946
 1481SOL     OW 4455   2.721   0.956   0.861
 1481SOL    HW1 4456   2.775   0.887   0.909
 1481SOL    HW2 4457   2.689   1.025   0.927
 1482SOL     OW 4458   2.945   0.984   0.087
 1482SOL    HW1 4459   2.922   1.037   0.005
 1482SOL    HW2 4460   3.026   0.928   0.068
 1483SOL     OW 4461   3.723   1.569   0.851
 1483SOL    HW1 4462   3.652   1.557   0.781
 1483SOL    HW2 4463   3.724   1.490   0.911
 1484SOL     OW 4464   2.083   1.314   1.844
 1484SOL    HW1 4465   2.018   1.241   1.823
 1484SOL    HW2 4466   2.087   1.328   1.942
 1485SOL     OW 4467   1.941   1.240   0.653
 1485SOL    HW1 4468   1.940   1.193   0.741
 1485SOL    HW2 4469   2.023   1.212   0.602
 1486SOL     OW 4470   2.534   1.391   1.624
 1486SOL    HW1 4471   2.456   1.341   1.662
 1486SOL    HW2 4472   2.531   1.486   1.655
 1487SOL     OW 4473   3.686   0.192   1.227
 1487SOL    HW1 4474   3.682   0.102   1.271
 1487SOL    HW2 4475   3.689   0.181   1.128
 1488SOL     OW 4476   2.290   0.424   0.520
 1488SOL    HW1 4477   2.320   0.352   0.458
 1488SOL    HW2 4478   2.251   0.384   0.603
 1489SOL     OW 4479   3.567   1.487   1.104
 1489SOL    HW1 4480   3.474   1.462   1.077
 1489SOL    HW2 4481   3.593   1.437   1.186
 1490SOL     OW 4482   2.179   0.547   1.280
 1490SOL    HW1 4483   2.217   0.488   1.352
 1490SOL    HW2 4484   2.219   0.521   1.192
 1491SOL     OW 4485   2.674   1.586   0.687
 1491SOL    HW1 4486   2.706   1.596   0.593
 1491SOL    HW2 4487   2.595   1.524   0.689
 1492SOL     OW 4488   3.286   0.214   1.112
 1492SOL    HW1 4489   3.338   0.149   1.167
 1492SOL    HW2 4490   3.237   0.277   1.173
 1493SOL     OW 4491   2.863   0.034   1.154
 1493SOL    HW1 4492   2.800  -0.038   1.123
 1493SOL    HW2 4493   2.956  -0.002   1.154
 1494SOL     OW 4494   2.632   1.330   0.301
 1494SOL    HW1 4495   2.586   1.243   0.318
 1494SOL    HW2 4496   2.723   1.327   0.342
 1495SOL     OW 4497   2.480   1.567   1.284
 1495SOL    HW1 4498   2.475   1.649   1.341
 1495SOL    HW2 4499   2.569   1.564   1.239
 1496SOL     OW 4500   3.214   0.052   0.168
 1496SOL    HW1 4501   3.249   0.011   0.084
 1496SOL    HW2 4502   3.124   0.014   0.188
 1497SOL     OW 4503   3.162   0.453   0.691
 1497SOL    HW1 4504   3.103   0.533   0.695
 1497SOL    HW2 4505   3.177   0.418   0.784
 1498SOL     OW 4506   3.455   0.221   0.882
 1498SOL    HW1 4507   3.371   0.220   0.936
 1498SOL    HW2 4508   3.457   0.304   0.826
 1499SOL     OW 4509   1.901   1.077   0.300
 1499SOL    HW1 4510   2.000   1.066   0.291
 1499SOL    HW2 4511   1.861   0.991   0.332
 1500SOL     OW 4512   2.737   1.646   0.337
 1500SOL    HW1 4513   2.660   1.611   0.283
 1500SOL    HW2 4514   2.705   1.717   0.399
 1501SOL     OW 4515   2.092   0.628   1.975
 1501SOL    HW1 4516   1.999   0.626   2.012
 1501SOL    HW2 4517   2.093   0.589   1.883
 1502SOL     OW 4518   2.087   0.275   2.858
 1502SOL    HW1 4519   2.122   0.258   2.950
 1502SOL    HW2 4520   1.999   0.230   2.846
 1503SOL     OW 4521   1.881   0.368   2.509
 1503SOL    HW1 4522   1.799   0.411   2.548
 1503SOL    HW2 4523   1.853   0.295   2.446
 1504SOL     OW 4524   2.431   1.275   3.027
 1504SOL    HW1 4525   2.338   1.268   2.990
 1504SOL    HW2 4526   2.442   1.364   3.071
 1505SOL     OW 4527   3.417   1.511   2.565
 1505SOL    HW1 4528   3.360   1.495   2.646
 1505SOL    HW2 4529   3.358   1.521   2.485
 1506SOL     OW 4530   2.997   0.703   2.579
 1506SOL    HW1 4531   3.054   0.781   2.554
 1506SOL    HW2 4532   2.937   0.729   2.655
 1507SOL     OW 4533   3.617   0.607   2.093
 1507SOL    HW1 4534   3.605   0.594   1.994
 1507SOL    HW2 4535   3.587   0.526   2.142
 1508SOL     OW 4536   2.630   1.144   2.885
 1508SOL    HW1 4537   2.552   1.161   2.945
 1508SOL    HW2 4538   2.664   1.231   2.849
 1509SOL     OW 4539   2.712   0.798   3.685
 1509SOL    HW1 4540   2.708   0.874   3.750
 1509SOL    HW2 4541   2.734   0.834   3.594
 1510SOL     OW 4542   2.547   1.012   2.527
 1510SOL    HW1 4543   2.616   0.996   2.597
 1510SOL    HW2 4544   2.474   1.069   2.565
 1511SOL     OW 4545   2.548   1.161   3.665
 1511SOL    HW1 4546   2.608   1.240   3.679
 1511SOL    HW2 4547   2.462   1.192   3.624
 1512SOL     OW 4548   2.197   1.435   2.923
 1512SOL    HW1 4549   2.119   1.404   2.870
 1512SOL    HW2 4550   2.255   1.493   2.866
 1513SOL     OW 4551   3.322   1.505   3.201
 1513SOL    HW1 4552   3.346   1.599   3.227
 1513SOL    HW2 4553   3.306   1.451   3.283
 1514SOL     OW 4554   2.300   0.392   3.361
 1514SOL    HW1 4555   2.382   0.336   3.370
 1514SOL    HW2 4556   2.219   0.334   3.365
 1515SOL     OW 4557   3.465   0.447   2.599
 1515SOL    HW1 4558   3.391   0.493   2.549
 1515SOL    HW2 4559   3.516   0.515   2.652
 1516SOL     OW 4560   2.093   1.713   2.345
 1516SOL    HW1 4561   2.127   1.790   2.399
 1516SOL    HW2 4562   2.137   1.713   2.255
 1517SOL     OW 4563   2.989   1.341   3.552
 1517SOL    HW1 4564   3.036   1.341   3.640
 1517SOL    HW2 4565   2.941   1.254   3.541
 1518SOL     OW 4566   2.092   1.434   2.400
 1518SOL    HW1 4567   2.066   1.530   2.400
 1518SOL    HW2 4568   2.021   1.380   2.445
 1519SOL     OW 4569   2.102   1.091   2.748
 1519SOL    HW1 4570   2.116   1.007   2.800
 1519SOL    HW2 4571   2.047   1.155   2.803
 1520SOL     OW 4572   2.482   1.786   3.301
 1520SOL    HW1 4573   2.390   1.769   3.336
 1520SOL    HW2 4574   2.510   1.878   3.327
 1521SOL     OW 4575   2.468   0.964   1.985
 1521SOL    HW1 4576   2.475   1.048   1.931
 1521SOL    HW2 4577   2.514   0.977   2.073
 1522SOL     OW 4578   3.456   0.114   3.342
 1522SOL    HW1 4579   3.438   0.181   3.270
 1522SOL    HW2 4580   3.453   0.160   3.431
 1523SOL     OW 4581   1.984   0.643   2.425
 1523SOL    HW1 4582   1.939   0.555   2.442
 1523SOL    HW2 4583   1.983   0.697   2.509
 1524SOL     OW 4584   3.704   1.767   2.221
 1524SOL    HW1 4585   3.758   1.738   2.301
 1524SOL    HW2 4586   3.734   1.857   2.192
 1525SOL     OW 4587   1.889   1.596   1.979
 1525SOL    HW1 4588   1.870   1.500   2.000
 1525SOL    HW2 4589   1.856   1.654   2.054
 1526SOL     OW 4590   3.551   0.922   2.474
 1526SOL    HW1 4591   3.646   0.893   2.482
 1526SOL    HW2 4592   3.543   0.987   2.399
 1527SOL     OW 4593   3.503   1.108   2.294
 1527SOL    HW1 4594   3.589   1.110   2.242
 1527SOL    HW2 4595   3.517   1.155   2.382
 1528SOL     OW 4596   1.975   0.737   3.459
 1528SOL    HW1 4597   2.063   0.724   3.504
 1528SOL    HW2 4598   1.962   0.834   3.437
 1529SOL     OW 4599   2.475   1.365   2.588
 1529SOL    HW1 4600   2.426   1.278   2.597
 1529SOL    HW2 4601   2.452   1.408   2.501
 1530SOL     OW 4602   3.155   1.228   3.285
 1530SOL    HW1 4603   3.192   1.155   3.227
 1530SOL    HW2 4604   3.207   1.233   3.370
 1531SOL     OW 4605   2.671   0.004   2.364
 1531SOL    HW1 4606   2.711   0.095   2.355
 1531SOL    HW2 4607   2.571   0.012   2.370
 1532SOL     OW 4608   2.059   0.976   3.126
 1532SOL    HW1 4609   2.148   0.931   3.112
 1532SOL    HW2 4610   1.986   0.911   3.107
 1533SOL     OW 4611   3.387   0.999   2.052
 1533SOL    HW1 4612   3.324   0.923   2.065
 1533SOL    HW2 4613   3.435   1.017   2.138
 1534SOL     OW 4614   3.049   1.792   3.478
 1534SOL    HW1 4615   3.073   1.852   3.402
 1534SOL    HW2 4616   3.056   1.697   3.448
 1535SOL     OW 4617   2.179   0.251   3.663
 1535SOL    HW1 4618   2.250   0.322   3.669
 1535SOL    HW2 4619   2.091   0.290   3.691
 1536SOL     OW 4620   3.328   1.417   2.815
 1536SOL    HW1 4621   3.269   1.423   2.895
 1536SOL    HW2 4622   3.313   1.329   2.769
 1537SOL     OW 4623   3.529   1.714   2.434
 1537SOL    HW1 4624   3.488   1.691   2.346
 1537SOL    HW2 4625   3.511   1.640   2.499
 1538SOL     OW 4626   2.460   0.729   2.132
 1538SOL    HW1 4627   2.484   0.798   2.064
 1538SOL    HW2 4628   2.382   0.762   2.186
 1539SOL     OW 4629   3.143   0.345   2.806
 1539SOL    HW1 4630   3.057   0.295   2.793
 1539SOL    HW2 4631   3.205   0.291   2.862
 1540SOL     OW 4632   3.438   1.662   2.169
 1540SOL    HW1 4633   3.527   1.708   2.172
 1540SOL    HW2 4634   3.417   1.638   2.074
 1541SOL     OW 4635   2.669   0.605   3.327
 1541SOL    HW1 4636   2.622   0.602   3.416
 1541SOL    HW2 4637   2.618   0.550   3.261
 1542SOL     OW 4638   3.256   0.469   3.536
 1542SOL    HW1 4639   3.236   0.512   3.624
 1542SOL    HW2 4640   3.334   0.407   3.545
 1543SOL     OW 4641   2.835   0.890   3.434
 1543SOL    HW1 4642   2.881   0.806   3.405
 1543SOL    HW2 4643   2.779   0.924   3.359
 1544SOL     OW 4644   2.853   0.410   3.104
 1544SOL    HW1 4645   2.776   0.444   3.158
 1544SOL    HW2 4646   2.819   0.359   3.025
 1545SOL     OW 4647   2.903   0.701   2.291
 1545SOL    HW1 4648   2.929   0.697   2.387
 1545SOL    HW2 4649   2.818   0.650   2.277
 1546SOL     OW 4650   1.938   0.811   2.651
 1546SOL    HW1 4651   2.037   0.799   2.660
 1546SOL    HW2 4652   1.914   0.906   2.672
 1547SOL     OW 4653   1.992   1.821   3.433
 1547SOL    HW1 4654   1.982   1.806   3.532
 1547SOL    HW2 4655   1.906   1.857   3.397
 1548SOL     OW 4656   2.727   0.348   2.057
 1548SOL    HW1 4657   2.786   0.411   2.008
 1548SOL    HW2 4658   2.746   0.254   2.028
 1549SOL     OW 4659   3.581   0.585   3.693
 1549SOL    HW1 4660   3.555   0.674   3.657
 1549SOL    HW2 4661   3.579   0.517   3.620
 1550SOL     OW 4662   3.224   1.144   2.407
 1550SOL    HW1 4663   3.307   1.115   2.359
 1550SOL    HW2 4664   3.175   1.211   2.351
 1551SOL     OW 4665   2.412   0.196   2.747
 1551SOL    HW1 4666   2.407   0.191   2.847
 1551SOL    HW2 4667   2.414   0.292   2.718
 1552SOL     OW 4668   2.870   1.456   2.339
 1552SOL    HW1 4669   2.824   1.528   2.287
 1552SOL    HW2 4670   2.866   1.476   2.437
 1553SOL     OW 4671   2.213   1.801   2.715
 1553SOL    HW1 4672   2.263   1.715   2.721
 1553SOL    HW2 4673   2.278   1.878   2.712
 1554SOL     OW 4674   3.657   1.066   2.735
 1554SOL    HW1 4675   3.595   1.051   2.659
 1554SOL    HW2 4676   3.605   1.077   2.820
 1555SOL     OW 4677   3.089   1.550   3.368
 1555SOL    HW1 4678   3.095   1.473   3.432
 1555SOL    HW2 4679   3.037   1.524   3.288
 1556SOL     OW 4680   2.183   0.943   2.104
 1556SOL    HW1 4681   2.265   0.982   2.062
 1556SOL    HW2 4682   2.156   0.861   2.055
 1557SOL     OW 4683   3.320   0.735   2.590
 1557SOL    HW1 4684   3.315   0.670   2.665
 1557SOL    HW2 4685   3.400   0.794   2.603
 1558SOL     OW 4686   2.323   1.266   3.589
 1558SOL    HW1 4687   2.273   1.267   3.503
 1558SOL    HW2 4688   2.260   1.248   3.665
 1559SOL     OW 4689   2.973   1.776   2.099
 1559SOL    HW1 4690   2.913   1.714   2.149
 1559SOL    HW2 4691   3.004   1.732   2.014
 1560SOL     OW 4692   2.064   0.285   3.360
 1560SOL    HW1 4693   1.984   0.345   3.347
 1560SOL    HW2 4694   2.054   0.236   3.446
 1561SOL     OW 4695   3.494   1.377   1.943
 1561SOL    HW1 4696   3.462   1.471   1.933
 1561SOL    HW2 4697   3.418   1.314   1.931
 1562SOL     OW 4698   2.326   1.743   2.185
 1562SOL    HW1 4699   2.359   1.782   2.271
 1562SOL    HW2 4700   2.402   1.736   2.120
 1563SOL     OW 4701   3.262   0.107   2.288
 1563SOL    HW1 4702   3.238   0.070   2.198
 1563SOL    HW2 4703   3.361   0.123   2.292
 1564SOL     OW 4704   2.111   1.785   3.103
 1564SOL    HW1 4705   2.168   1.720   3.153
 1564SOL    HW2 4706   2.095   1.752   3.010
 1565SOL     OW 4707   2.802   1.698   2.766
 1565SOL    HW1 4708   2.882   1.641   2.787
 1565SOL    HW2 4709   2.753   1.658   2.689
 1566SOL     OW 4710   2.244   0.700   2.342
 1566SOL    HW1 4711   2.289   0.610   2.339
 1566SOL    HW2 4712   2.150   0.689   2.375
 1567SOL     OW 4713   3.409   0.222   3.591
 1567SOL    HW1 4714   3.404   0.259   3.683
 1567SOL    HW2 4715   3.337   0.153   3.579
 1568SOL     OW 4716   2.476   0.122   1.979
 1568SOL    HW1 4717   2.574   0.100   1.986
 1568SOL    HW2 4718   2.445   0.105   1.886
 1569SOL     OW 4719   2.643   0.264   3.611
 1569SOL    HW1 4720   2.710   0.203   3.654
 1569SOL    HW2 4721   2.570   0.283   3.676
 1570SOL     OW 4722   2.750   1.514   3.057
 1570SOL    HW1 4723   2.727   1.489   2.963
 1570SOL    HW2 4724   2.811   1.445   3.096
 1571SOL     OW 4725   3.213   0.590   3.295
 1571SOL    HW1 4726   3.241   0.547   3.380
 1571SOL    HW2 4727   3.238   0.686   3.296
 1572SOL     OW 4728   2.665   1.402   2.786
 1572SOL    HW1 4729   2.755   1.416   2.744
 1572SOL    HW2 4730   2.594   1.404   2.715
 1573SOL     OW 4731   2.784   0.503   2.761
 1573SOL    HW1 4732   2.759   0.494   2.665
 1573SOL    HW2 4733   2.832   0.421   2.792
 1574SOL     OW 4734   2.401   0.064   2.374
 1574SOL    HW1 4735   2.320   0.065   2.432
 1574SOL    HW2 4736   2.404   0.147   2.319
 1575SOL     OW 4737   3.296   1.188   1.903
 1575SOL    HW1 4738   3.328   1.112   1.960
 1575SOL    HW2 4739   3.204   1.215   1.933
 1576SOL     OW 4740   2.159   0.035   2.033
 1576SOL    HW1 4741   2.208   0.119   2.012
 1576SOL    HW2 4742   2.221  -0.030   2.078
 1577SOL     OW 4743   2.797   0.236   2.342
 1577SOL    HW1 4744   2.749   0.277   2.264
 1577SOL    HW2 4745   2.896   0.234   2.323
 1578SOL     OW 4746   2.938   0.683   3.326
 1578SOL    HW1 4747   2.858   0.622   3.329
 1578SOL    HW2 4748   3.019   0.630   3.302
 1579SOL     OW 4749   3.089   1.570   2.655
 1579SOL    HW1 4750   3.110   1.644   2.590
 1579SOL    HW2 4751   3.157   1.570   2.728
 1580SOL     OW 4752   2.321   1.152   2.603
 1580SOL    HW1 4753   2.250   1.125   2.668
 1580SOL    HW2 4754   2.295   1.124   2.510
 1581SOL     OW 4755   3.133   1.797   2.453
 1581SOL    HW1 4756   3.177   1.861   2.389
 1581SOL    HW2 4757   3.083   1.849   2.523
 1582SOL     OW 4758   2.894   0.549   1.878
 1582SOL    HW1 4759   2.853   0.631   1.839
 1582SOL    HW2 4760   2.958   0.575   1.951
 1583SOL     OW 4761   1.940   0.556   3.248
 1583SOL    HW1 4762   2.032   0.555   3.207
 1583SOL    HW2 4763   1.934   0.630   3.315
 1584SOL     OW 4764   2.423   0.222   3.009
 1584SOL    HW1 4765   2.461   0.138   3.046
 1584SOL    HW2 4766   2.335   0.241   3.053
 1585SOL     OW 4767   2.728   0.454   2.504
 1585SOL    HW1 4768   2.696   0.526   2.442
 1585SOL    HW2 4769   2.752   0.373   2.451
 1586SOL     OW 4770   2.879   0.039   2.615
 1586SOL    HW1 4771   2.807   0.044   2.546
 1586SOL    HW2 4772   2.855  -0.030   2.684
 1587SOL     OW 4773   3.291   1.173   2.729
 1587SOL    HW1 4774   3.236   1.089   2.722
 1587SOL    HW2 4775   3.317   1.202   2.637
 1588SOL     OW 4776   3.328   0.590   2.854
 1588SOL    HW1 4777   3.298   0.495   2.861
 1588SOL    HW2 4778   3.401   0.606   2.920
 1589SOL     OW 4779   3.719   0.833   2.239
 1589SOL    HW1 4780   3.761   0.769   2.303
 1589SOL    HW2 4781   3.681   0.782   2.161
 1590SOL     OW 4782   2.350   1.385   2.036
 1590SOL    HW1 4783   2.263   1.370   2.083
 1590SOL    HW2 4784   2.333   1.411   1.941
 1591SOL     OW 4785   3.526   1.280   2.519
 1591SOL    HW1 4786   3.625   1.288   2.533
 1591SOL    HW2 4787   3.481   1.364   2.550
 1592SOL     OW 4788   3.252   0.575   1.940
 1592SOL    HW1 4789   3.198   0.554   2.021
 1592SOL    HW2 4790   3.343   0.534   1.949
 1593SOL     OW 4791   2.389   0.256   2.190
 1593SOL    HW1 4792   2.416   0.197   2.115
 1593SOL    HW2 4793   2.389   0.351   2.159
 1594SOL     OW 4794   3.616   1.223   3.450
 1594SOL    HW1 4795   3.707   1.184   3.437
 1594SOL    HW2 4796   3.624   1.319   3.474
 1595SOL     OW 4797   2.926   1.347   3.202
 1595SOL    HW1 4798   2.846   1.324   3.257
 1595SOL    HW2 4799   3.009   1.321   3.251
 1596SOL     OW 4800   3.454   1.629   3.487
 1596SOL    HW1 4801   3.481   1.663   3.397
 1596SOL    HW2 4802   3.533   1.591   3.533
 1597SOL     OW 4803   2.973   1.195   2.962
 1597SOL    HW1 4804   2.933   1.239   3.043
 1597SOL    HW2 4805   2.932   1.232   2.879
 1598SOL     OW 4806   3.500   1.099   2.941
 1598SOL    HW1 4807   3.505   1.180   3.000
 1598SOL    HW2 4808   3.414   1.101   2.890
 1599SOL     OW 4809   2.777   0.089   3.264
 1599SOL    HW1 4810   2.802   0.069   3.169
 1599SOL    HW2 4811   2.849   0.145   3.306
 1600SOL     OW 4812   2.842   1.116   3.581
 1600SOL    HW1 4813   2.743   1.122   3.591
 1600SOL    HW2 4814   2.865   1.036   3.525
 1601SOL     OW 4815   2.567   1.050   2.230
 1601SOL    HW1 4816   2.553   1.057   2.329
 1601SOL    HW2 4817   2.651   0.999   2.212
 1602SOL     OW 4818   2.272   0.813   3.113
 1602SOL    HW1 4819   2.358   0.825   3.163
 1602SOL    HW2 4820   2.230   0.726   3.140
 1603SOL     OW 4821   3.136   0.386   3.124
 1603SOL    HW1 4822   3.157   0.460   3.188
 1603SOL    HW2 4823   3.047   0.403   3.081
 1604SOL     OW 4824   1.926   1.564   3.193
 1604SOL    HW1 4825   1.880   1.646   3.159
 1604SOL    HW2 4826   2.024   1.583   3.202
 1605SOL     OW 4827   2.229   1.100   2.363
 1605SOL    HW1 4828   2.222   1.183   2.307
 1605SOL    HW2 4829   2.233   1.020   2.303
 1606SOL     OW 4830   2.428   0.537   2.727
 1606SOL    HW1 4831   2.440   0.603   2.653
 1606SOL    HW2 4832   2.474   0.571   2.810
 1607SOL     OW 4833   3.114   1.348   2.250
 1607SOL    HW1 4834   3.164   1.425   2.290
 1607SOL    HW2 4835   3.019   1.350   2.282
 1608SOL     OW 4836   3.134   1.445   3.004
 1608SOL    HW1 4837   3.181   1.458   3.091
 1608SOL    HW2 4838   3.068   1.371   3.013
 1609SOL     OW 4839   3.444   0.639   2.334
 1609SOL    HW1 4840   3.413   0.700   2.407
 1609SOL    HW2 4841   3.494   0.691   2.265
 1610SOL     OW 4842   2.216   1.510   3.191
 1610SOL    HW1 4843   2.195   1.466   3.104
 1610SOL    HW2 4844   2.313   1.536   3.194
 1611SOL     OW 4845   2.264   0.751   3.460
 1611SOL    HW1 4846   2.332   0.806   3.413
 1611SOL    HW2 4847   2.304   0.663   3.487
 1612SOL     OW 4848   3.449   0.779   3.532
 1612SOL    HW1 4849   3.357   0.817   3.527
 1612SOL    HW2 4850   3.509   0.826   3.467
 1613SOL     OW 4851   2.875   0.105   3.632
 1613SOL    HW1 4852   2.881   0.190   3.580
 1613SOL    HW2 4853   2.907   0.029   3.575
 1614SOL     OW 4854   2.366   0.050   3.602
 1614SOL    HW1 4855   2.324  -0.007   3.532
 1614SOL    HW2 4856   2.300   0.119   3.634
 1615SOL     OW 4857   2.435   0.870   2.891
 1615SOL    HW1 4858   2.479   0.959   2.882
 1615SOL    HW2 4859   2.372   0.870   2.968
 1616SOL     OW 4860   3.222   0.862   2.907
 1616SOL    HW1 4861   3.147   0.862   2.841
 1616SOL    HW2 4862   3.259   0.770   2.916
 1617SOL     OW 4863   3.071   0.525   2.137
 1617SOL    HW1 4864   3.084   0.441   2.191
 1617SOL    HW2 4865   3.042   0.599   2.197
 1618SOL     OW 4866   2.169   0.213   3.093
 1618SOL    HW1 4867   2.146   0.250   3.183
 1618SOL    HW2 4868   2.139   0.118   3.087
 1619SOL     OW 4869   1.899   1.310   3.144
 1619SOL    HW1 4870   1.952   1.261   3.212
 1619SOL    HW2 4871   1.921   1.408   3.149
 1620SOL     OW 4872   2.594   0.634   2.926
 1620SOL    HW1 4873   2.653   0.608   2.850
 1620SOL    HW2 4874   2.566   0.730   2.915
 1621SOL     OW 4875   3.590   0.935   3.716
 1621SOL    HW1 4876   3.544   0.928   3.627
 1621SOL    HW2 4877   3.528   0.979   3.782
 1622SOL     OW 4878   2.169   0.063   2.480
 1622SOL    HW1 4879   2.158   0.157   2.513
 1622SOL    HW2 4880   2.164   0.000   2.557
 1623SOL     OW 4881   3.484   0.367   2.236
 1623SOL    HW1 4882   3.486   0.291   2.300
 1623SOL    HW2 4883   3.436   0.444   2.276
 1624SOL     OW 4884   2.885   0.766   2.828
 1624SOL    HW1 4885   2.900   0.787   2.924
 1624SOL    HW2 4886   2.855   0.671   2.819
 1625SOL     OW 4887   2.842   1.573   3.562
 1625SOL    HW1 4888   2.822   1.617   3.474
 1625SOL    HW2 4889   2.881   1.482   3.546
 1626SOL     OW 4890   3.721   1.518   3.467
 1626SOL    HW1 4891   3.735   1.545   3.372
 1626SOL    HW2 4892   3.804   1.540   3.520
 1627SOL     OW 4893   2.212   0.898   3.666
 1627SOL    HW1 4894   2.288   0.942   3.714
 1627SOL    HW2 4895   2.247   0.851   3.584
 1628SOL     OW 4896   3.402   0.274   1.987
 1628SOL    HW1 4897   3.341   0.199   2.010
 1628SOL    HW2 4898   3.424   0.326   2.070
 1629SOL     OW 4899   3.165   0.838   1.904
 1629SOL    HW1 4900   3.199   0.745   1.919
 1629SOL    HW2 4901   3.183   0.865   1.809
 1630SOL     OW 4902   2.930   1.333   2.711
 1630SOL    HW1 4903   2.937   1.249   2.656
 1630SOL    HW2 4904   2.992   1.402   2.675
 1631SOL     OW 4905   2.181   0.810   2.811
 1631SOL    HW1 4906   2.274   0.846   2.816
 1631SOL    HW2 4907   2.175   0.725   2.863
 1632SOL     OW 4908   2.201   0.509   2.868
 1632SOL    HW1 4909   2.149   0.426   2.851
 1632SOL    HW2 4910   2.278   0.514   2.804
 1633SOL     OW 4911   3.000   0.380   3.540
 1633SOL    HW1 4912   2.955   0.443   3.604
 1633SOL    HW2 4913   3.093   0.411   3.523
 1634SOL     OW 4914   3.022   0.207   3.339
 1634SOL    HW1 4915   3.022   0.271   3.416
 1634SOL    HW2 4916   3.050   0.255   3.256
 1635SOL     OW 4917   1.870   1.326   2.062
 1635SOL    HW1 4918   1.777   1.347   2.031
 1635SOL    HW2 4919   1.880   1.227   2.075
 1636SOL     OW 4920   1.950   1.801   2.789
 1636SOL    HW1 4921   1.908   1.715   2.762
 1636SOL    HW2 4922   2.044   1.804   2.755
 1637SOL     OW 4923   2.366   1.568   2.772
 1637SOL    HW1 4924   2.432   1.642   2.781
 1637SOL    HW2 4925   2.410   1.489   2.730
 1638SOL     OW 4926   2.864   0.796   3.100
 1638SOL    HW1 4927   2.905   0.764   3.186
 1638SOL    HW2 4928   2.768   0.769   3.097
 1639SOL     OW 4929   1.902   0.544   2.976
 1639SOL    HW1 4930   1.987   0.511   2.935
 1639SOL    HW2 4931   1.915   0.559   3.074
 1640SOL     OW 4932   2.051   0.520   3.584
 1640SOL    HW1 4933   2.110   0.480   3.514
 1640SOL    HW2 4934   1.993   0.591   3.543
 1641SOL     OW 4935   3.231   0.950   3.522
 1641SOL    HW1 4936   3.270   1.039   3.542
 1641SOL    HW2 4937   3.241   0.930   3.425
 1642SOL     OW 4938   2.677   0.572   2.187
 1642SOL    HW1 4939   2.684   0.483   2.141
 1642SOL    HW2 4940   2.583   0.606   2.179
 1643SOL     OW 4941   3.519   0.604   3.068
 1643SOL    HW1 4942   3.481   0.535   3.130
 1643SOL    HW2 4943   3.601   0.568   3.024
 1644SOL     OW 4944   2.114   1.564   3.606
 1644SOL    HW1 4945   2.084   1.621   3.682
 1644SOL    HW2 4946   2.107   1.467   3.632
 1645SOL     OW 4947   2.533   0.464   3.131
 1645SOL    HW1 4948   2.499   0.375   3.101
 1645SOL    HW2 4949   2.559   0.518   3.051
 1646SOL     OW 4950   2.792   1.678   3.327
 1646SOL    HW1 4951   2.768   1.660   3.232
 1646SOL    HW2 4952   2.822   1.772   3.337
 1647SOL     OW 4953   2.335   0.500   2.053
 1647SOL    HW1 4954   2.396   0.580   2.057
 1647SOL    HW2 4955   2.240   0.531   2.060
 1648SOL     OW 4956   2.021   1.137   3.328
 1648SOL    HW1 4957   2.043   1.076   3.404
 1648SOL    HW2 4958   2.031   1.088   3.242
 1649SOL     OW 4959   3.209   1.059   3.096
 1649SOL    HW1 4960   3.233   0.996   3.022
 1649SOL    HW2 4961   3.119   1.099   3.078
 1650SOL     OW 4962   3.164   0.855   2.171
 1650SOL    HW1 4963   3.078   0.824   2.213
 1650SOL    HW2 4964   3.160   0.841   2.072
 1651SOL     OW 4965   3.621   1.747   3.016
 1651SOL    HW1 4966   3.682   1.777   2.943
 1651SOL    HW2 4967   3.583   1.658   2.994
 1652SOL     OW 4968   3.114   1.731   2.990
 1652SOL    HW1 4969   3.198   1.736   2.936
 1652SOL    HW2 4970   3.091   1.635   3.008
 1653SOL     OW 4971   1.945   1.258   2.884
 1653SOL    HW1 4972   1.940   1.257   2.984
 1653SOL    HW2 4973   1.862   1.217   2.846
 1654SOL     OW 4974   2.550   1.662   3.578
 1654SOL    HW1 4975   2.494   1.743   3.587
 1654SOL    HW2 4976   2.602   1.666   3.492
 1655SOL     OW 4977   3.588   0.135   2.385
 1655SOL    HW1 4978   3.661   0.118   2.318
 1655SOL    HW2 4979   3.557   0.048   2.423
 1656SOL     OW 4980   3.250   1.573   2.339
 1656SOL    HW1 4981   3.317   1.585   2.265
 1656SOL    HW2 4982   3.210   1.662   2.362
 1657SOL     OW 4983   1.992   1.794   3.713
 1657SOL    HW1 4984   1.951   1.720   3.766
 1657SOL    HW2 4985   2.056   1.845   3.771
 1658SOL     OW 4986   3.142   0.927   2.534
 1658SOL    HW1 4987   3.202   0.846   2.536
 1658SOL    HW2 4988   3.182   0.996   2.474
 1659SOL     OW 4989   2.692   1.273   3.284
 1659SOL    HW1 4990   2.687   1.306   3.379
 1659SOL    HW2 4991   2.606   1.292   3.238
 1660SOL     OW 4992   2.534   1.616   2.016
 1660SOL    HW1 4993   2.543   1.626   1.917
 1660SOL    HW2 4994   2.494   1.527   2.037
 1661SOL     OW 4995   3.512   1.720   3.256
 1661SOL    HW1 4996   3.565   1.730   3.172
 1661SOL    HW2 4997   3.485   1.810   3.290
 1662SOL     OW 4998   3.703   0.175   2.825
 1662SOL    HW1 4999   3.742   0.090   2.789
 1662SOL    HW2 5000   3.605   0.177   2.806
 1663SOL     OW 5001   2.125   0.326   2.582
 1663SOL    HW1 5002   2.046   0.377   2.548
 1663SOL    HW2 5003   2.116   0.311   2.680
 1664SOL     OW 5004   3.056   1.612   1.893
 1664SOL    HW1 5005   3.062   1.519   1.930
 1664SOL    HW2 5006   2.997   1.612   1.813
 1665SOL     OW 5007   2.684   1.002   3.234
 1665SOL    HW1 5008   2.724   1.001   3.142
 1665SOL    HW2 5009   2.694   1.094   3.274
 1666SOL     OW 5010   2.778   0.910   2.153
 1666SOL    HW1 5011   2.841   0.948   2.085
 1666SOL    HW2 5012   2.818   0.827   2.192
 1667SOL     OW 5013   3.366   1.607   1.906
 1667SOL    HW1 5014   3.274   1.644   1.913
 1667SOL    HW2 5015   3.404   1.627   1.816
 1668SOL     OW 5016   2.234   1.288   3.352
 1668SOL    HW1 5017   2.221   1.381   3.318
 1668SOL    HW2 5018   2.150   1.236   3.339
 1669SOL     OW 5019   3.476   1.292   3.151
 1669SOL    HW1 5020   3.536   1.295   3.231
 1669SOL    HW2 5021   3.401   1.356   3.164
 1670SOL     OW 5022   2.901   1.098   2.558
 1670SOL    HW1 5023   2.831   1.051   2.612
 1670SOL    HW2 5024   2.960   1.030   2.515
 1671SOL     OW 5025   2.876   0.236   2.833
 1671SOL    HW1 5026   2.868   0.200   2.740
 1671SOL    HW2 5027   2.874   0.160   2.898
 1672SOL     OW 5028   2.452   1.487   2.353
 1672SOL    HW1 5029   2.494   1.429   2.283
 1672SOL    HW2 5030   2.408   1.566   2.309
 1673SOL     OW 5031   3.571   0.385   3.243
 1673SOL    HW1 5032   3.644   0.454   3.247
 1673SOL    HW2 5033   3.599   0.310   3.184
 1674SOL     OW 5034   2.117   1.348   2.152
 1674SOL    HW1 5035   2.021   1.349   2.125
 1674SOL    HW2 5036   2.129   1.401   2.236
 1675SOL     OW 5037   1.967   1.013   3.588
 1675SOL    HW1 5038   1.890   0.980   3.642
 1675SOL    HW2 5039   2.052   0.983   3.630
 1676SOL     OW 5040   2.534   0.203   3.351
 1676SOL    HW1 5041   2.624   0.187   3.311
 1676SOL    HW2 5042   2.542   0.208   3.450
 1677SOL     OW 5043   1.937   0.345   1.895
 1677SOL    HW1 5044   1.845   0.317   1.866
 1677SOL    HW2 5045   1.968   0.422   1.839
 1678SOL     OW 5046   3.302   0.856   3.260
 1678SOL    HW1 5047   3.245   0.908   3.197
 1678SOL    HW2 5048   3.398   0.868   3.236
 1679SOL     OW 5049   1.934   0.166   2.180
 1679SOL    HW1 5050   1.917   0.249   2.126
 1679SOL    HW2 5051   2.024   0.129   2.158
 1680SOL     OW 5052   3.045   1.335   1.981
 1680SOL    HW1 5053   2.946   1.324   1.983
 1680SOL    HW2 5054   3.079   1.350   2.074
 1681SOL     OW 5055   2.475   0.842   3.293
 1681SOL    HW1 5056   2.531   0.923   3.276
 1681SOL    HW2 5057   2.534   0.762   3.296
 1682SOL     OW 5058   3.355   1.767   2.821
 1682SOL    HW1 5059   3.388   1.831   2.752
 1682SOL    HW2 5060   3.421   1.761   2.896
 1683SOL     OW 5061   2.578   0.565   3.570
 1683SOL    HW1 5062   2.597   0.630   3.644
 1683SOL    HW2 5063   2.638   0.485   3.579
 1684SOL     OW 5064   3.312   1.220   3.495
 1684SOL    HW1 5065   3.303   1.210   3.594
 1684SOL    HW2 5066   3.408   1.213   3.469
 1685SOL     OW 5067   2.252   1.741   3.422
 1685SOL    HW1 5068   2.161   1.782   3.420
 1685SOL    HW2 5069   2.245   1.647   3.454
 1686SOL     OW 5070   3.536   0.883   3.116
 1686SOL    HW1 5071   3.509   0.794   3.079
 1686SOL    HW2 5072   3.537   0.951   3.043
 1687SOL     OW 5073   3.087   0.325   2.311
 1687SOL    HW1 5074   3.152   0.251   2.300
 1687SOL    HW2 5075   3.107   0.375   2.395
 1688SOL     OW 5076   2.456   0.745   2.514
 1688SOL    HW1 5077   2.506   0.830   2.495
 1688SOL    HW2 5078   2.368   0.747   2.466
 1689SOL     OW 5079   3.639   0.342   3.504
 1689SOL    HW1 5080   3.622   0.373   3.410
 1689SOL    HW2 5081   3.555   0.305   3.542
 1690SOL     OW 5082   3.592   0.934   3.379
 1690SOL    HW1 5083   3.630   1.025   3.394
 1690SOL    HW2 5084   3.584   0.917   3.280
 1691SOL     OW 5085   2.721   1.374   1.878
 1691SOL    HW1 5086   2.675   1.389   1.966
 1691SOL    HW2 5087   2.765   1.459   1.848
 1692SOL     OW 5088   2.523   1.790   2.815
 1692SOL    HW1 5089   2.477   1.878   2.802
 1692SOL    HW2 5090   2.622   1.802   2.808
 1693SOL     OW 5091   2.721   0.956   2.723
 1693SOL    HW1 5092   2.775   0.887   2.771
 1693SOL    HW2 5093   2.689   1.025   2.789
 1694SOL     OW 5094   2.945   0.984   1.949
 1694SOL    HW1 5095   2.922   1.037   1.867
 1694SOL    HW2 5096   3.026   0.928   1.930
 1695SOL     OW 5097   3.723   1.569   2.713
 1695SOL    HW1 5098   3.652   1.557   2.643
 1695SOL    HW2 5099   3.724   1.490   2.773
 1696SOL     OW 5100   2.083   1.314   3.706
 1696SOL    HW1 5101   2.018   1.241   3.685
 1696SOL    HW2 5102   2.087   1.328   3.804
 1697SOL     OW 5103   1.941   1.240   2.515
 1697SOL    HW1 5104   1.940   1.193   2.603
 1697SOL    HW2 5105   2.023   1.212   2.464
 1698SOL     OW 5106   2.534   1.391   3.486
 1698SOL    HW1 5107   2.456   1.341   3.524
 1698SOL    HW2 5108   2.531   1.486   3.517
 1699SOL     OW 5109   3.686   0.192   3.089
 1699SOL    HW1 5110   3.682   0.102   3.133
 1699SOL    HW2 5111   3.689   0.181   2.990
 1700SOL     OW 5112   2.290   0.424   2.382
 1700SOL    HW1 5113   2.320   0.352   2.320
 1700SOL    HW2 5114   2.251   0.384   2.465
 1701SOL     OW 5115   3.567   1.487   2.966
 1701SOL    HW1 5116   3.474   1.462   2.939
 1701SOL    HW2 5117   3.593   1.437   3.048
 1702SOL     OW 5118   2.179   0.547   3.142
 1702SOL    HW1 5119   2.217   0.488   3.214
 1702SOL    HW2 5120   2.219   0.521   3.054
 1703SOL     OW 5121   2.674   1.586   2.549
 1703SOL    HW1 5122   2.706   1.596   2.455
 1703SOL    HW2 5123   2.595   1.524   2.551
 1704SOL     OW 5124   3.286   0.214   2.974
 1704SOL    HW1 5125   3.338   0.149   3.029
 1704SOL    HW2 5126   3.237   0.277   3.035
 1705SOL     OW 5127   2.863   0.034   3.016
 1705SOL    HW1 5128   2.800  -0.038   2.985
 1705SOL    HW2 5129   2.956  -0.002   3.016
 1706SOL     OW 5130   2.632   1.330   2.163
 1706SOL    HW1 5131   2.586   1.243   2.180
 1706SOL    HW2 5132   2.723   1.327   2.204
 1707SOL     OW 5133   2.480   1.567   3.146
 1707SOL    HW1 5134   2.475   1.649   3.203
 1707SOL    HW2 5135   2.569   1.564   3.101
 1708SOL     OW 5136   3.214   0.052   2.030
 1708SOL    HW1 5137   3.249   0.011   1.946
 1708SOL    HW2 5138   3.124   0.014   2.050
 1709SOL     OW 5139   3.162   0.453   2.553
 1709SOL    HW1 5140   3.103   0.533   2.557
 1709SOL    HW2 5141   3.177   0.418   2.646
 1710SOL     OW 5142   3.455   0.221   2.744
 1710SOL    HW1 5143   3.371   0.220   2.798
 1710SOL    HW2 5144   3.457   0.304   2.688
 1711SOL     OW 5145   1.901   1.077   2.162
 1711SOL    HW1 5146   2.000   1.066   2.153
 1711SOL    HW2 5147   1.861   0.991   2.194
 1712SOL     OW 5148   2.737   1.646   2.199
 1712SOL    HW1 5149   2.660   1.611   2.145
 1712SOL    HW2 5150   2.705   1.717   2.261
 1713SOL     OW 5151   2.092   0.628   3.837
 1713SOL    HW1 5152   1.999   0.626   3.874
 1713SOL    HW2 5153   2.093   0.589   3.745
 1714SOL     OW 5154   1.881   0.368   4.371
 1714SOL    HW1 5155   1.799   0.411   4.410
 1714SOL    HW2 5156   1.853   0.295   4.308
 1715SOL     OW 5157   3.417   1.511   4.427
 1715SOL    HW1 5158   3.360   1.495   4.508
 1715SOL    HW2 5159   3.358   1.521   4.347
 1716SOL     OW 5160   2.997   0.703   4.441
 1716SOL    HW1 5161   3.054   0.781   4.416
 1716SOL    HW2 5162   2.937   0.729   4.517
 1717SOL     OW 5163   3.617   0.607   3.955
 1717SOL    HW1 5164   3.605   0.594   3.856
 1717SOL    HW2 5165   3.587   0.526   4.004
 1718SOL     OW 5166   2.547   1.012   4.389
 1718SOL    HW1 5167   2.616   0.996   4.459
 1718SOL    HW2 5168   2.474   1.069   4.427
 1719SOL     OW 5169   3.465   0.447   4.461
 1719SOL    HW1 5170   3.391   0.493   4.411
 1719SOL    HW2 5171   3.516   0.515   4.514
 1720SOL     OW 5172   2.093   1.713   4.207
 1720SOL    HW1 5173   2.127   1.790   4.261
 1720SOL    HW2 5174   2.137   1.713   4.117
 1721SOL     OW 5175   2.092   1.434   4.262
 1721SOL    HW1 5176   2.066   1.530   4.262
 1721SOL    HW2 5177   2.021   1.380   4.307
 1722SOL     OW 5178   2.102   1.091   4.610
 1722SOL    HW1 5179   2.116   1.007   4.662
 1722SOL    HW2 5180   2.047   1.155   4.665
 1723SOL     OW 5181   2.468   0.964   3.847
 1723SOL    HW1 5182   2.475   1.048   3.793
 1723SOL    HW2 5183   2.514   0.977   3.935
 1724SOL     OW 5184   1.984   0.643   4.287
 1724SOL    HW1 5185   1.939   0.555   4.304
 1724SOL    HW2 5186   1.983   0.697   4.371
 1725SOL     OW 5187   3.704   1.767   4.083
 1725SOL    HW1 5188   3.758   1.738   4.163
 1725SOL    HW2 5189   3.734   1.857   4.054
 1726SOL     OW 5190   1.889   1.596   3.841
 1726SOL    HW1 5191   1.870   1.500   3.862
 1726SOL    HW2 5192   1.856   1.654   3.916
 1727SOL     OW 5193   3.551   0.922   4.336
 1727SOL    HW1 5194   3.646   0.893   4.344
 1727SOL    HW2 5195   3.543   0.987   4.261
 1728SOL     OW 5196   3.503   1.108   4.156
 1728SOL    HW1 5197   3.589   1.110   4.104
 1728SOL    HW2 5198   3.517   1.155   4.244
 1729SOL     OW 5199   2.475   1.365   4.450
 1729SOL    HW1 5200   2.426   1.278   4.459
 1729SOL    HW2 5201   2.452   1.408   4.363
 1730SOL     OW 5202   2.671   0.004   4.226
 1730SOL    HW1 5203   2.711   0.095   4.217
 1730SOL    HW2 5204   2.571   0.012   4.232
 1731SOL     OW 5205   3.387   0.999   3.914
 1731SOL    HW1 5206   3.324   0.923   3.927
 1731SOL    HW2 5207   3.435   1.017   4.000
 1732SOL     OW 5208   3.529   1.714   4.296
 1732SOL    HW1 5209   3.488   1.691   4.208
 1732SOL    HW2 5210   3.511   1.640   4.361
 1733SOL     OW 5211   2.460   0.729   3.994
 1733SOL    HW1 5212   2.484   0.798   3.926
 1733SOL    HW2 5213   2.382   0.762   4.048
 1734SOL     OW 5214   3.143   0.345   4.668
 1734SOL    HW1 5215   3.057   0.295   4.655
 1734SOL    HW2 5216   3.205   0.291   4.724
 1735SOL     OW 5217   3.438   1.662   4.031
 1735SOL    HW1 5218   3.527   1.708   4.034
 1735SOL    HW2 5219   3.417   1.638   3.936
 1736SOL     OW 5220   2.903   0.701   4.153
 1736SOL    HW1 5221   2.929   0.697   4.249
 1736SOL    HW2 5222   2.818   0.650   4.139
 1737SOL     OW 5223   1.938   0.811   4.513
 1737SOL    HW1 5224   2.037   0.799   4.522
 1737SOL    HW2 5225   1.914   0.906   4.534
 1738SOL     OW 5226   2.727   0.348   3.919
 1738SOL    HW1 5227   2.786   0.411   3.870
 1738SOL    HW2 5228   2.746   0.254   3.890
 1739SOL     OW 5229   3.224   1.144   4.269
 1739SOL    HW1 5230   3.307   1.115   4.221
 1739SOL    HW2 5231   3.175   1.211   4.213
 1740SOL     OW 5232   2.870   1.456   4.201
 1740SOL    HW1 5233   2.824   1.528   4.149
 1740SOL    HW2 5234   2.866   1.476   4.299
 1741SOL     OW 5235   2.213   1.801   4.577
 1741SOL    HW1 5236   2.263   1.715   4.583
 1741SOL    HW2 5237   2.278   1.878   4.574
 1742SOL     OW 5238   3.657   1.066   4.597
 1742SOL    HW1 5239   3.595   1.051   4.521
 1742SOL    HW2 5240   3.605   1.077   4.682
 1743SOL     OW 5241   2.183   0.943   3.966
 1743SOL    HW1 5242   2.265   0.982   3.924
 1743SOL    HW2 5243   2.156   0.861   3.917
 1744SOL     OW 5244   3.320   0.735   4.452
 1744SOL    HW1 5245   3.315   0.670   4.527
 1744SOL    HW2 5246   3.400   0.794   4.465
 1745SOL     OW 5247   2.973   1.776   3.961
 1745SOL    HW1 5248   2.913   1.714   4.011
 1745SOL    HW2 5249   3.004   1.732   3.876
 1746SOL     OW 5250   3.494   1.377   3.805
 1746SOL    HW1 5251   3.462   1.471   3.795
 1746SOL    HW2 5252   3.418   1.314   3.793
 1747SOL     OW 5253   2.326   1.743   4.047
 1747SOL    HW1 5254   2.359   1.782   4.133
 1747SOL    HW2 5255   2.402   1.736   3.982
 1748SOL     OW 5256   3.262   0.107   4.150
 1748SOL    HW1 5257   3.238   0.070   4.060
 1748SOL    HW2 5258   3.361   0.123   4.154
 1749SOL     OW 5259   2.802   1.698   4.628
 1749SOL    HW1 5260   2.882   1.641   4.649
 1749SOL    HW2 5261   2.753   1.658   4.551
 1750SOL     OW 5262   2.244   0.700   4.204
 1750SOL    HW1 5263   2.289   0.610   4.201
 1750SOL    HW2 5264   2.150   0.689   4.237
 1751SOL     OW 5265   2.476   0.122   3.841
 1751SOL    HW1 5266   2.574   0.100   3.848
 1751SOL    HW2 5267   2.445   0.105   3.748
 1752SOL     OW 5268   2.401   0.064   4.236
 1752SOL    HW1 5269   2.320   0.065   4.294
 1752SOL    HW2 5270   2.404   0.147   4.181
 1753SOL     OW 5271   3.296   1.188   3.765
 1753SOL    HW1 5272   3.328   1.112   3.822
 1753SOL    HW2 5273   3.204   1.215   3.795
 1754SOL     OW 5274   2.159   0.035   3.895
 1754SOL    HW1 5275   2.208   0.119   3.874
 1754SOL    HW2 5276   2.221  -0.030   3.940
 1755SOL     OW 5277   2.797   0.236   4.204
 1755SOL    HW1 5278   2.749   0.277   4.126
 1755SOL    HW2 5279   2.896   0.234   4.185
 1756SOL     OW 5280   2.321   1.152   4.465
 1756SOL    HW1 5281   2.250   1.125   4.530
 1756SOL    HW2 5282   2.295   1.124   4.372
 1757SOL     OW 5283   3.133   1.797   4.315
 1757SOL    HW1 5284   3.177   1.861   4.251
 1757SOL    HW2 5285   3.083   1.849   4.385
 1758SOL     OW 5286   2.894   0.549   3.740
 1758SOL    HW1 5287   2.853   0.631   3.701
 1758SOL    HW2 5288   2.958   0.575   3.813
 1759SOL     OW 5289   2.728   0.454   4.366
 1759SOL    HW1 5290   2.696   0.526   4.304
 1759SOL    HW2 5291   2.752   0.373   4.313
 1760SOL     OW 5292   2.879   0.039   4.477
 1760SOL    HW1 5293   2.807   0.044   4.408
 1760SOL    HW2 5294   2.855  -0.030   4.546
 1761SOL     OW 5295   3.719   0.833   4.101
 1761SOL    HW1 5296   3.761   0.769   4.165
 1761SOL    HW2 5297   3.681   0.782   4.023
 1762SOL     OW 5298   2.350   1.385   3.898
 1762SOL    HW1 5299   2.263   1.370   3.945
 1762SOL    HW2 5300   2.333   1.411   3.803
 1763SOL     OW 5301   3.526   1.280   4.381
 1763SOL    HW1 5302   3.625   1.288   4.395
 1763SOL    HW2 5303   3.481   1.364   4.412
 1764SOL     OW 5304   3.252   0.575   3.802
 1764SOL    HW1 5305   3.198   0.554   3.883
 1764SOL    HW2 5306   3.343   0.534   3.811
 1765SOL     OW 5307   2.389   0.256   4.052
 1765SOL    HW1 5308   2.416   0.197   3.977
 1765SOL    HW2 5309   2.389   0.351   4.021
 1766SOL     OW 5310   2.567   1.050   4.092
 1766SOL    HW1 5311   2.553   1.057   4.191
 1766SOL    HW2 5312   2.651   0.999   4.074
 1767SOL     OW 5313   2.229   1.100   4.225
 1767SOL    HW1 5314   2.222   1.183   4.169
 1767SOL    HW2 5315   2.233   1.020   4.165
 1768SOL     OW 5316   2.428   0.537   4.589
 1768SOL    HW1 5317   2.440   0.603   4.515
 1768SOL    HW2 5318   2.474   0.571   4.672
 1769SOL     OW 5319   3.114   1.348   4.112
 1769SOL    HW1 5320   3.164   1.425   4.152
 1769SOL    HW2 5321   3.019   1.350   4.144
 1770SOL     OW 5322   3.444   0.639   4.196
 1770SOL    HW1 5323   3.413   0.700   4.269
 1770SOL    HW2 5324   3.494   0.691   4.127
 1771SOL     OW 5325   3.071   0.525   3.999
 1771SOL    HW1 5326   3.084   0.441   4.053
 1771SOL    HW2 5327   3.042   0.599   4.059
 1772SOL     OW 5328   2.169   0.063   4.342
 1772SOL    HW1 5329   2.158   0.157   4.375
 1772SOL    HW2 5330   2.164   0.000   4.419
 1773SOL     OW 5331   3.484   0.367   4.098
 1773SOL    HW1 5332   3.486   0.291   4.162
 1773SOL    HW2 5333   3.436   0.444   4.138
 1774SOL     OW 5334   3.402   0.274   3.849
 1774SOL    HW1 5335   3.341   0.199   3.872
 1774SOL    HW2 5336   3.424   0.326   3.932
 1775SOL     OW 5337   3.165   0.838   3.766
 1775SOL    HW1 5338   3.199   0.745   3.781
 1775SOL    HW2 5339   3.183   0.865   3.671
 1776SOL     OW 5340   1.870   1.326   3.924
 1776SOL    HW1 5341   1.777   1.347   3.893
 1776SOL    HW2 5342   1.880   1.227   3.937
 1777SOL     OW 5343   2.677   0.572   4.049
 1777SOL    HW1 5344   2.684   0.483   4.003
 1777SOL    HW2 5345   2.583   0.606   4.041
 1778SOL     OW 5346   2.335   0.500   3.915
 1778SOL    HW1 5347   2.396   0.580   3.919
 1778SOL    HW2 5348   2.240   0.531   3.922
 1779SOL     OW 5349   3.164   0.855   4.033
 1779SOL    HW1 5350   3.078   0.824   4.075
 1779SOL    HW2 5351   3.160   0.841   3.934
 1780SOL     OW 5352   3.588   0.135   4.247
 1780SOL    HW1 5353   3.661   0.118   4.180
 1780SOL    HW2 5354   3.557   0.048   4.285
 1781SOL     OW 5355   3.250   1.573   4.201
 1781SOL    HW1 5356   3.317   1.585   4.127
 1781SOL    HW2 5357   3.210   1.662   4.224
 1782SOL     OW 5358   3.142   0.927   4.396
 1782SOL    HW1 5359   3.202   0.846   4.398
 1782SOL    HW2 5360   3.182   0.996   4.336
 1783SOL     OW 5361   2.534   1.616   3.878
 1783SOL    HW1 5362   2.543   1.626   3.779
 1783SOL    HW2 5363   2.494   1.527   3.899
 1784SOL     OW 5364   3.703   0.175   4.687
 1784SOL    HW1 5365   3.742   0.090   4.651
 1784SOL    HW2 5366   3.605   0.177   4.668
 1785SOL     OW 5367   2.125   0.326   4.444
 1785SOL    HW1 5368   2.046   0.377   4.410
 1785SOL    HW2 5369   2.116   0.311   4.542
 1786SOL     OW 5370   3.056   1.612   3.755
 1786SOL    HW1 5371   3.062   1.519   3.792
 1786SOL    HW2 5372   2.997   1.612   3.675
 1787SOL     OW 5373   2.778   0.910   4.015
 1787SOL    HW1 5374   2.841   0.948   3.947
 1787SOL    HW2 5375   2.818   0.827   4.054
 1788SOL     OW 5376   3.366   1.607   3.768
 1788SOL    HW1 5377   3.274   1.644   3.775
 1788SOL    HW2 5378   3.404   1.627   3.678
 1789SOL     OW 5379   2.901   1.098   4.420
 1789SOL    HW1 5380   2.831   1.051   4.474
 1789SOL    HW2 5381   2.960   1.030   4.377
 1790SOL     OW 5382   2.452   1.487   4.215
 1790SOL    HW1 5383   2.494   1.429   4.145
 1790SOL    HW2 5384   2.408   1.566   4.171
 1791SOL     OW 5385   2.117   1.348   4.014
 1791SOL    HW1 5386   2.021   1.349   3.987
 1791SOL    HW2 5387   2.129   1.401   4.098
 1792SOL     OW 5388   1.937   0.345   3.757
 1792SOL    HW1 5389   1.845   0.317   3.728
 1792SOL    HW2 5390   1.968   0.422   3.701
 1793SOL     OW 5391   1.934   0.166   4.042
 1793SOL    HW1 5392   1.917   0.249   3.988
 1793SOL    HW2 5393   2.024   0.129   4.020
 1794SOL     OW 5394   3.045   1.335   3.843
 1794SOL    HW1 5395   2.946   1.324   3.845
 1794SOL    HW2 5396   3.079   1.350   3.936
 1795SOL     OW 5397   3.087   0.325   4.173
 1795SOL    HW1 5398   3.152   0.251   4.162
 1795SOL    HW2 5399   3.107   0.375   4.257
 1796SOL     OW 5400   2.456   0.745   4.376
 1796SOL    HW1 5401   2.506   0.830   4.357
 1796SOL    HW2 5402   2.368   0.747   4.328
 1797SOL     OW 5403   2.721   1.374   3.740
 1797SOL    HW1 5404   2.675   1.389   3.828
 1797SOL    HW2 5405   2.765   1.459   3.710
 1798SOL     OW 5406   2.523   1.790   4.677
 1798SOL    HW1 5407   2.477   1.878   4.664
 1798SOL    HW2 5408   2.622   1.802   4.670
 1799SOL     OW 5409   2.721   0.956   4.585
 1799SOL    HW1 5410   2.775   0.887   4.633
 1799SOL    HW2 5411   2.689   1.025   4.651
 1800SOL     OW 5412   2.945   0.984   3.811
 1800SOL    HW1 5413   2.922   1.037   3.729
 1800SOL    HW2 5414   3.026   0.928   3.792
 1801SOL     OW 5415   1.941   1.240   4.377
 1801SOL    HW1 5416   1.940   1.193   4.465
 1801SOL    HW2 5417   2.023   1.212   4.326
 1802SOL     OW 5418   2.290   0.424   4.244
 1802SOL    HW1 5419   2.320   0.352   4.182
 1802SOL    HW2 5420   2.251   0.384   4.327
 1803SOL     OW 5421   2.674   1.586   4.411
 1803SOL    HW1 5422   2.706   1.596   4.317
 1803SOL    HW2 5423   2.595   1.524   4.413
 1804SOL     OW 5424   2.632   1.330   4.025
 1804SOL    HW1 5425   2.586   1.243   4.042
 1804SOL    HW2 5426   2.723   1.327   4.066
 1805SOL     OW 5427   3.214   0.052   3.892
 1805SOL    HW1 5428   3.249   0.011   3.808
 1805SOL    HW2 5429   3.124   0.014   3.912
 1806SOL     OW 5430   3.162   0.453   4.415
 1806SOL    HW1 5431   3.103   0.533   4.419
 1806SOL    HW2 5432   3.177   0.418   4.508
 1807SOL     OW 5433   1.901   1.077   4.024
 1807SOL    HW1 5434   2.000   1.066   4.015
 1807SOL    HW2 5435   1.861   0.991   4.056
 1808SOL     OW 5436   2.737   1.646   4.061
 1808SOL    HW1 5437   2.660   1.611   4.007
 1808SOL    HW2 5438   2.705   1.717   4.123
 1809SOL     OW 5439   2.092   2.490   0.113
 1809SOL    HW1 5440   1.999   2.488   0.150
 1809SOL    HW2 5441   2.093   2.451   0.021
 1810SOL     OW 5442   2.087   2.137   0.996
 1810SOL    HW1 5443   2.122   2.120   1.088
 1810SOL    HW2 5444   1.999   2.092   0.984
 1811SOL     OW 5445   1.881   2.230   0.647
 1811SOL    HW1 5446   1.799   2.273   0.686
 1811SOL    HW2 5447   1.853   2.157   0.584
 1812SOL     OW 5448   2.431   3.137   1.165
 1812SOL    HW1 5449   2.338   3.130   1.128
 1812SOL    HW2 5450   2.442   3.226   1.209
 1813SOL     OW 5451   3.417   3.373   0.703
 1813SOL    HW1 5452   3.360   3.357   0.784
 1813SOL    HW2 5453   3.358   3.383   0.623
 1814SOL     OW 5454   2.997   2.565   0.717
 1814SOL    HW1 5455   3.054   2.643   0.692
 1814SOL    HW2 5456   2.937   2.591   0.793
 1815SOL     OW 5457   3.617   2.469   0.231
 1815SOL    HW1 5458   3.605   2.456   0.132
 1815SOL    HW2 5459   3.587   2.388   0.280
 1816SOL     OW 5460   2.630   3.006   1.023
 1816SOL    HW1 5461   2.552   3.023   1.083
 1816SOL    HW2 5462   2.664   3.093   0.987
 1817SOL     OW 5463   2.712   2.660   1.823
 1817SOL    HW1 5464   2.708   2.736   1.888
 1817SOL    HW2 5465   2.734   2.696   1.732
 1818SOL     OW 5466   2.547   2.874   0.665
 1818SOL    HW1 5467   2.616   2.858   0.735
 1818SOL    HW2 5468   2.474   2.931   0.703
 1819SOL     OW 5469   2.548   3.023   1.803
 1819SOL    HW1 5470   2.608   3.102   1.817
 1819SOL    HW2 5471   2.462   3.054   1.762
 1820SOL     OW 5472   2.197   3.297   1.061
 1820SOL    HW1 5473   2.119   3.266   1.008
 1820SOL    HW2 5474   2.255   3.355   1.004
 1821SOL     OW 5475   3.322   3.367   1.339
 1821SOL    HW1 5476   3.346   3.461   1.365
 1821SOL    HW2 5477   3.306   3.313   1.421
 1822SOL     OW 5478   2.300   2.254   1.499
 1822SOL    HW1 5479   2.382   2.198   1.508
 1822SOL    HW2 5480   2.219   2.196   1.503
 1823SOL     OW 5481   3.465   2.309   0.737
 1823SOL    HW1 5482   3.391   2.355   0.687
 1823SOL    HW2 5483   3.516   2.377   0.790
 1824SOL     OW 5484   2.093   3.575   0.483
 1824SOL    HW1 5485   2.127   3.652   0.537
 1824SOL    HW2 5486   2.137   3.575   0.393
 1825SOL     OW 5487   2.989   3.203   1.690
 1825SOL    HW1 5488   3.036   3.203   1.778
 1825SOL    HW2 5489   2.941   3.116   1.679
 1826SOL     OW 5490   2.092   3.296   0.538
 1826SOL    HW1 5491   2.066   3.392   0.538
 1826SOL    HW2 5492   2.021   3.242   0.583
 1827SOL     OW 5493   2.102   2.953   0.886
 1827SOL    HW1 5494   2.116   2.869   0.938
 1827SOL    HW2 5495   2.047   3.017   0.941
 1828SOL     OW 5496   2.482   3.648   1.439
 1828SOL    HW1 5497   2.390   3.631   1.474
 1828SOL    HW2 5498   2.510   3.740   1.465
 1829SOL     OW 5499   2.468   2.826   0.123
 1829SOL    HW1 5500   2.475   2.910   0.069
 1829SOL    HW2 5501   2.514   2.839   0.211
 1830SOL     OW 5502   3.456   1.976   1.480
 1830SOL    HW1 5503   3.438   2.043   1.408
 1830SOL    HW2 5504   3.453   2.022   1.569
 1831SOL     OW 5505   1.984   2.505   0.563
 1831SOL    HW1 5506   1.939   2.417   0.580
 1831SOL    HW2 5507   1.983   2.559   0.647
 1832SOL     OW 5508   3.704   3.629   0.359
 1832SOL    HW1 5509   3.758   3.600   0.439
 1832SOL    HW2 5510   3.734   3.719   0.330
 1833SOL     OW 5511   1.889   3.458   0.117
 1833SOL    HW1 5512   1.870   3.362   0.138
 1833SOL    HW2 5513   1.856   3.516   0.192
 1834SOL     OW 5514   3.551   2.784   0.612
 1834SOL    HW1 5515   3.646   2.755   0.620
 1834SOL    HW2 5516   3.543   2.849   0.537
 1835SOL     OW 5517   3.503   2.970   0.432
 1835SOL    HW1 5518   3.589   2.972   0.380
 1835SOL    HW2 5519   3.517   3.017   0.520
 1836SOL     OW 5520   1.975   2.599   1.597
 1836SOL    HW1 5521   2.063   2.586   1.642
 1836SOL    HW2 5522   1.962   2.696   1.575
 1837SOL     OW 5523   2.475   3.227   0.726
 1837SOL    HW1 5524   2.426   3.140   0.735
 1837SOL    HW2 5525   2.452   3.270   0.639
 1838SOL     OW 5526   3.155   3.090   1.423
 1838SOL    HW1 5527   3.192   3.017   1.365
 1838SOL    HW2 5528   3.207   3.095   1.508
 1839SOL     OW 5529   2.671   1.866   0.502
 1839SOL    HW1 5530   2.711   1.957   0.493
 1839SOL    HW2 5531   2.571   1.874   0.508
 1840SOL     OW 5532   2.059   2.838   1.264
 1840SOL    HW1 5533   2.148   2.793   1.250
 1840SOL    HW2 5534   1.986   2.773   1.245
 1841SOL     OW 5535   3.387   2.861   0.190
 1841SOL    HW1 5536   3.324   2.785   0.203
 1841SOL    HW2 5537   3.435   2.879   0.276
 1842SOL     OW 5538   3.049   3.654   1.616
 1842SOL    HW1 5539   3.073   3.714   1.540
 1842SOL    HW2 5540   3.056   3.559   1.586
 1843SOL     OW 5541   2.179   2.113   1.801
 1843SOL    HW1 5542   2.250   2.184   1.807
 1843SOL    HW2 5543   2.091   2.152   1.829
 1844SOL     OW 5544   3.328   3.279   0.953
 1844SOL    HW1 5545   3.269   3.285   1.033
 1844SOL    HW2 5546   3.313   3.191   0.907
 1845SOL     OW 5547   3.529   3.576   0.572
 1845SOL    HW1 5548   3.488   3.553   0.484
 1845SOL    HW2 5549   3.511   3.502   0.637
 1846SOL     OW 5550   2.460   2.591   0.270
 1846SOL    HW1 5551   2.484   2.660   0.202
 1846SOL    HW2 5552   2.382   2.624   0.324
 1847SOL     OW 5553   3.143   2.207   0.944
 1847SOL    HW1 5554   3.057   2.157   0.931
 1847SOL    HW2 5555   3.205   2.153   1.000
 1848SOL     OW 5556   3.438   3.524   0.307
 1848SOL    HW1 5557   3.527   3.570   0.310
 1848SOL    HW2 5558   3.417   3.500   0.212
 1849SOL     OW 5559   2.669   2.467   1.465
 1849SOL    HW1 5560   2.622   2.464   1.554
 1849SOL    HW2 5561   2.618   2.412   1.399
 1850SOL     OW 5562   3.256   2.331   1.674
 1850SOL    HW1 5563   3.236   2.374   1.762
 1850SOL    HW2 5564   3.334   2.269   1.683
 1851SOL     OW 5565   2.835   2.752   1.572
 1851SOL    HW1 5566   2.881   2.668   1.543
 1851SOL    HW2 5567   2.779   2.786   1.497
 1852SOL     OW 5568   2.853   2.272   1.242
 1852SOL    HW1 5569   2.776   2.306   1.296
 1852SOL    HW2 5570   2.819   2.221   1.163
 1853SOL     OW 5571   2.903   2.563   0.429
 1853SOL    HW1 5572   2.929   2.559   0.525
 1853SOL    HW2 5573   2.818   2.512   0.415
 1854SOL     OW 5574   1.938   2.673   0.789
 1854SOL    HW1 5575   2.037   2.661   0.798
 1854SOL    HW2 5576   1.914   2.768   0.810
 1855SOL     OW 5577   1.992   3.683   1.571
 1855SOL    HW1 5578   1.982   3.668   1.670
 1855SOL    HW2 5579   1.906   3.719   1.535
 1856SOL     OW 5580   2.727   2.210   0.195
 1856SOL    HW1 5581   2.786   2.273   0.146
 1856SOL    HW2 5582   2.746   2.116   0.166
 1857SOL     OW 5583   3.581   2.447   1.831
 1857SOL    HW1 5584   3.555   2.536   1.795
 1857SOL    HW2 5585   3.579   2.379   1.758
 1858SOL     OW 5586   3.224   3.006   0.545
 1858SOL    HW1 5587   3.307   2.977   0.497
 1858SOL    HW2 5588   3.175   3.073   0.489
 1859SOL     OW 5589   2.412   2.058   0.885
 1859SOL    HW1 5590   2.407   2.053   0.985
 1859SOL    HW2 5591   2.414   2.154   0.856
 1860SOL     OW 5592   2.870   3.318   0.477
 1860SOL    HW1 5593   2.824   3.390   0.425
 1860SOL    HW2 5594   2.866   3.338   0.575
 1861SOL     OW 5595   2.213   3.663   0.853
 1861SOL    HW1 5596   2.263   3.577   0.859
 1861SOL    HW2 5597   2.278   3.740   0.850
 1862SOL     OW 5598   3.657   2.928   0.873
 1862SOL    HW1 5599   3.595   2.913   0.797
 1862SOL    HW2 5600   3.605   2.939   0.958
 1863SOL     OW 5601   3.089   3.412   1.506
 1863SOL    HW1 5602   3.095   3.335   1.570
 1863SOL    HW2 5603   3.037   3.386   1.426
 1864SOL     OW 5604   2.183   2.805   0.242
 1864SOL    HW1 5605   2.265   2.844   0.200
 1864SOL    HW2 5606   2.156   2.723   0.193
 1865SOL     OW 5607   3.320   2.597   0.728
 1865SOL    HW1 5608   3.315   2.532   0.803
 1865SOL    HW2 5609   3.400   2.656   0.741
 1866SOL     OW 5610   2.323   3.128   1.727
 1866SOL    HW1 5611   2.273   3.129   1.641
 1866SOL    HW2 5612   2.260   3.110   1.803
 1867SOL     OW 5613   2.973   3.638   0.237
 1867SOL    HW1 5614   2.913   3.576   0.287
 1867SOL    HW2 5615   3.004   3.594   0.152
 1868SOL     OW 5616   2.064   2.147   1.498
 1868SOL    HW1 5617   1.984   2.207   1.485
 1868SOL    HW2 5618   2.054   2.098   1.584
 1869SOL     OW 5619   3.494   3.239   0.081
 1869SOL    HW1 5620   3.462   3.333   0.071
 1869SOL    HW2 5621   3.418   3.176   0.069
 1870SOL     OW 5622   2.326   3.605   0.323
 1870SOL    HW1 5623   2.359   3.644   0.409
 1870SOL    HW2 5624   2.402   3.598   0.258
 1871SOL     OW 5625   3.262   1.969   0.426
 1871SOL    HW1 5626   3.238   1.932   0.336
 1871SOL    HW2 5627   3.361   1.985   0.430
 1872SOL     OW 5628   2.111   3.647   1.241
 1872SOL    HW1 5629   2.168   3.582   1.291
 1872SOL    HW2 5630   2.095   3.614   1.148
 1873SOL     OW 5631   2.802   3.560   0.904
 1873SOL    HW1 5632   2.882   3.503   0.925
 1873SOL    HW2 5633   2.753   3.520   0.827
 1874SOL     OW 5634   2.244   2.562   0.480
 1874SOL    HW1 5635   2.289   2.472   0.477
 1874SOL    HW2 5636   2.150   2.551   0.513
 1875SOL     OW 5637   3.409   2.084   1.729
 1875SOL    HW1 5638   3.404   2.121   1.821
 1875SOL    HW2 5639   3.337   2.015   1.717
 1876SOL     OW 5640   2.643   2.126   1.749
 1876SOL    HW1 5641   2.710   2.065   1.792
 1876SOL    HW2 5642   2.570   2.145   1.814
 1877SOL     OW 5643   2.750   3.376   1.195
 1877SOL    HW1 5644   2.727   3.351   1.101
 1877SOL    HW2 5645   2.811   3.307   1.234
 1878SOL     OW 5646   3.213   2.452   1.433
 1878SOL    HW1 5647   3.241   2.409   1.518
 1878SOL    HW2 5648   3.238   2.548   1.434
 1879SOL     OW 5649   2.665   3.264   0.924
 1879SOL    HW1 5650   2.755   3.278   0.882
 1879SOL    HW2 5651   2.594   3.266   0.853
 1880SOL     OW 5652   2.784   2.365   0.899
 1880SOL    HW1 5653   2.759   2.356   0.803
 1880SOL    HW2 5654   2.832   2.283   0.930
 1881SOL     OW 5655   2.401   1.926   0.512
 1881SOL    HW1 5656   2.320   1.927   0.570
 1881SOL    HW2 5657   2.404   2.009   0.457
 1882SOL     OW 5658   3.296   3.050   0.041
 1882SOL    HW1 5659   3.328   2.974   0.098
 1882SOL    HW2 5660   3.204   3.077   0.071
 1883SOL     OW 5661   2.159   1.897   0.171
 1883SOL    HW1 5662   2.208   1.981   0.150
 1883SOL    HW2 5663   2.221   1.832   0.216
 1884SOL     OW 5664   2.797   2.098   0.480
 1884SOL    HW1 5665   2.749   2.139   0.402
 1884SOL    HW2 5666   2.896   2.096   0.461
 1885SOL     OW 5667   2.938   2.545   1.464
 1885SOL    HW1 5668   2.858   2.484   1.467
 1885SOL    HW2 5669   3.019   2.492   1.440
 1886SOL     OW 5670   3.089   3.432   0.793
 1886SOL    HW1 5671   3.110   3.506   0.728
 1886SOL    HW2 5672   3.157   3.432   0.866
 1887SOL     OW 5673   2.321   3.014   0.741
 1887SOL    HW1 5674   2.250   2.987   0.806
 1887SOL    HW2 5675   2.295   2.986   0.648
 1888SOL     OW 5676   3.133   3.659   0.591
 1888SOL    HW1 5677   3.177   3.723   0.527
 1888SOL    HW2 5678   3.083   3.711   0.661
 1889SOL     OW 5679   2.894   2.411   0.016
 1889SOL    HW1 5680   2.853   2.493  -0.023
 1889SOL    HW2 5681   2.958   2.437   0.089
 1890SOL     OW 5682   1.940   2.418   1.386
 1890SOL    HW1 5683   2.032   2.417   1.345
 1890SOL    HW2 5684   1.934   2.492   1.453
 1891SOL     OW 5685   2.423   2.084   1.147
 1891SOL    HW1 5686   2.461   2.000   1.184
 1891SOL    HW2 5687   2.335   2.103   1.191
 1892SOL     OW 5688   2.728   2.316   0.642
 1892SOL    HW1 5689   2.696   2.388   0.580
 1892SOL    HW2 5690   2.752   2.235   0.589
 1893SOL     OW 5691   2.879   1.901   0.753
 1893SOL    HW1 5692   2.807   1.906   0.684
 1893SOL    HW2 5693   2.855   1.832   0.822
 1894SOL     OW 5694   3.291   3.035   0.867
 1894SOL    HW1 5695   3.236   2.951   0.860
 1894SOL    HW2 5696   3.317   3.064   0.775
 1895SOL     OW 5697   3.328   2.452   0.992
 1895SOL    HW1 5698   3.298   2.357   0.999
 1895SOL    HW2 5699   3.401   2.468   1.058
 1896SOL     OW 5700   3.719   2.695   0.377
 1896SOL    HW1 5701   3.761   2.631   0.441
 1896SOL    HW2 5702   3.681   2.644   0.299
 1897SOL     OW 5703   2.350   3.247   0.174
 1897SOL    HW1 5704   2.263   3.232   0.221
 1897SOL    HW2 5705   2.333   3.273   0.079
 1898SOL     OW 5706   3.526   3.142   0.657
 1898SOL    HW1 5707   3.625   3.150   0.671
 1898SOL    HW2 5708   3.481   3.226   0.688
 1899SOL     OW 5709   3.252   2.437   0.078
 1899SOL    HW1 5710   3.198   2.416   0.159
 1899SOL    HW2 5711   3.343   2.396   0.087
 1900SOL     OW 5712   2.389   2.118   0.328
 1900SOL    HW1 5713   2.416   2.059   0.253
 1900SOL    HW2 5714   2.389   2.213   0.297
 1901SOL     OW 5715   3.616   3.085   1.588
 1901SOL    HW1 5716   3.707   3.046   1.575
 1901SOL    HW2 5717   3.624   3.181   1.612
 1902SOL     OW 5718   2.926   3.209   1.340
 1902SOL    HW1 5719   2.846   3.186   1.395
 1902SOL    HW2 5720   3.009   3.183   1.389
 1903SOL     OW 5721   3.454   3.491   1.625
 1903SOL    HW1 5722   3.481   3.525   1.535
 1903SOL    HW2 5723   3.533   3.453   1.671
 1904SOL     OW 5724   2.973   3.057   1.100
 1904SOL    HW1 5725   2.933   3.101   1.181
 1904SOL    HW2 5726   2.932   3.094   1.017
 1905SOL     OW 5727   3.500   2.961   1.079
 1905SOL    HW1 5728   3.505   3.042   1.138
 1905SOL    HW2 5729   3.414   2.963   1.028
 1906SOL     OW 5730   2.777   1.951   1.402
 1906SOL    HW1 5731   2.802   1.931   1.307
 1906SOL    HW2 5732   2.849   2.007   1.444
 1907SOL     OW 5733   2.842   2.978   1.719
 1907SOL    HW1 5734   2.743   2.984   1.729
 1907SOL    HW2 5735   2.865   2.898   1.663
 1908SOL     OW 5736   2.567   2.912   0.368
 1908SOL    HW1 5737   2.553   2.919   0.467
 1908SOL    HW2 5738   2.651   2.861   0.350
 1909SOL     OW 5739   2.272   2.675   1.251
 1909SOL    HW1 5740   2.358   2.687   1.301
 1909SOL    HW2 5741   2.230   2.588   1.278
 1910SOL     OW 5742   3.136   2.248   1.262
 1910SOL    HW1 5743   3.157   2.322   1.326
 1910SOL    HW2 5744   3.047   2.265   1.219
 1911SOL     OW 5745   1.926   3.426   1.331
 1911SOL    HW1 5746   1.880   3.508   1.297
 1911SOL    HW2 5747   2.024   3.445   1.340
 1912SOL     OW 5748   2.229   2.962   0.501
 1912SOL    HW1 5749   2.222   3.045   0.445
 1912SOL    HW2 5750   2.233   2.882   0.441
 1913SOL     OW 5751   2.428   2.399   0.865
 1913SOL    HW1 5752   2.440   2.465   0.791
 1913SOL    HW2 5753   2.474   2.433   0.948
 1914SOL     OW 5754   3.114   3.210   0.388
 1914SOL    HW1 5755   3.164   3.287   0.428
 1914SOL    HW2 5756   3.019   3.212   0.420
 1915SOL     OW 5757   3.134   3.307   1.142
 1915SOL    HW1 5758   3.181   3.320   1.229
 1915SOL    HW2 5759   3.068   3.233   1.151
 1916SOL     OW 5760   3.444   2.501   0.472
 1916SOL    HW1 5761   3.413   2.562   0.545
 1916SOL    HW2 5762   3.494   2.553   0.403
 1917SOL     OW 5763   2.216   3.372   1.329
 1917SOL    HW1 5764   2.195   3.328   1.242
 1917SOL    HW2 5765   2.313   3.398   1.332
 1918SOL     OW 5766   2.264   2.613   1.598
 1918SOL    HW1 5767   2.332   2.668   1.551
 1918SOL    HW2 5768   2.304   2.525   1.625
 1919SOL     OW 5769   3.449   2.641   1.670
 1919SOL    HW1 5770   3.357   2.679   1.665
 1919SOL    HW2 5771   3.509   2.688   1.605
 1920SOL     OW 5772   2.875   1.967   1.770
 1920SOL    HW1 5773   2.881   2.052   1.718
 1920SOL    HW2 5774   2.907   1.891   1.713
 1921SOL     OW 5775   2.366   1.912   1.740
 1921SOL    HW1 5776   2.324   1.855   1.670
 1921SOL    HW2 5777   2.300   1.981   1.772
 1922SOL     OW 5778   2.435   2.732   1.029
 1922SOL    HW1 5779   2.479   2.821   1.020
 1922SOL    HW2 5780   2.372   2.732   1.106
 1923SOL     OW 5781   3.222   2.724   1.045
 1923SOL    HW1 5782   3.147   2.724   0.979
 1923SOL    HW2 5783   3.259   2.632   1.054
 1924SOL     OW 5784   3.071   2.387   0.275
 1924SOL    HW1 5785   3.084   2.303   0.329
 1924SOL    HW2 5786   3.042   2.461   0.335
 1925SOL     OW 5787   2.169   2.075   1.231
 1925SOL    HW1 5788   2.146   2.112   1.321
 1925SOL    HW2 5789   2.139   1.980   1.225
 1926SOL     OW 5790   1.899   3.172   1.282
 1926SOL    HW1 5791   1.952   3.123   1.350
 1926SOL    HW2 5792   1.921   3.270   1.287
 1927SOL     OW 5793   2.594   2.496   1.064
 1927SOL    HW1 5794   2.653   2.470   0.988
 1927SOL    HW2 5795   2.566   2.592   1.053
 1928SOL     OW 5796   3.590   2.797   1.854
 1928SOL    HW1 5797   3.544   2.790   1.765
 1928SOL    HW2 5798   3.528   2.841   1.920
 1929SOL     OW 5799   2.169   1.925   0.618
 1929SOL    HW1 5800   2.158   2.019   0.651
 1929SOL    HW2 5801   2.164   1.862   0.695
 1930SOL     OW 5802   3.484   2.229   0.374
 1930SOL    HW1 5803   3.486   2.153   0.438
 1930SOL    HW2 5804   3.436   2.306   0.414
 1931SOL     OW 5805   2.885   2.628   0.966
 1931SOL    HW1 5806   2.900   2.649   1.062
 1931SOL    HW2 5807   2.855   2.533   0.957
 1932SOL     OW 5808   2.842   3.435   1.700
 1932SOL    HW1 5809   2.822   3.479   1.612
 1932SOL    HW2 5810   2.881   3.344   1.684
 1933SOL     OW 5811   3.721   3.380   1.605
 1933SOL    HW1 5812   3.735   3.407   1.510
 1933SOL    HW2 5813   3.804   3.402   1.658
 1934SOL     OW 5814   2.212   2.760   1.804
 1934SOL    HW1 5815   2.288   2.804   1.852
 1934SOL    HW2 5816   2.247   2.713   1.722
 1935SOL     OW 5817   3.402   2.136   0.125
 1935SOL    HW1 5818   3.341   2.061   0.148
 1935SOL    HW2 5819   3.424   2.188   0.208
 1936SOL     OW 5820   3.165   2.700   0.042
 1936SOL    HW1 5821   3.199   2.607   0.057
 1936SOL    HW2 5822   3.183   2.727  -0.053
 1937SOL     OW 5823   2.930   3.195   0.849
 1937SOL    HW1 5824   2.937   3.111   0.794
 1937SOL    HW2 5825   2.992   3.264   0.813
 1938SOL     OW 5826   2.181   2.672   0.949
 1938SOL    HW1 5827   2.274   2.708   0.954
 1938SOL    HW2 5828   2.175   2.587   1.001
 1939SOL     OW 5829   2.201   2.371   1.006
 1939SOL    HW1 5830   2.149   2.288   0.989
 1939SOL    HW2 5831   2.278   2.376   0.942
 1940SOL     OW 5832   3.000   2.242   1.678
 1940SOL    HW1 5833   2.955   2.305   1.742
 1940SOL    HW2 5834   3.093   2.273   1.661
 1941SOL     OW 5835   3.022   2.069   1.477
 1941SOL    HW1 5836   3.022   2.133   1.554
 1941SOL    HW2 5837   3.050   2.117   1.394
 1942SOL     OW 5838   1.870   3.188   0.200
 1942SOL    HW1 5839   1.777   3.209   0.169
 1942SOL    HW2 5840   1.880   3.089   0.213
 1943SOL     OW 5841   1.950   3.663   0.927
 1943SOL    HW1 5842   1.908   3.577   0.900
 1943SOL    HW2 5843   2.044   3.666   0.893
 1944SOL     OW 5844   2.366   3.430   0.910
 1944SOL    HW1 5845   2.432   3.504   0.919
 1944SOL    HW2 5846   2.410   3.351   0.868
 1945SOL     OW 5847   2.864   2.658   1.238
 1945SOL    HW1 5848   2.905   2.626   1.324
 1945SOL    HW2 5849   2.768   2.631   1.235
 1946SOL     OW 5850   1.902   2.406   1.114
 1946SOL    HW1 5851   1.987   2.373   1.073
 1946SOL    HW2 5852   1.915   2.421   1.212
 1947SOL     OW 5853   2.051   2.382   1.722
 1947SOL    HW1 5854   2.110   2.342   1.652
 1947SOL    HW2 5855   1.993   2.453   1.681
 1948SOL     OW 5856   3.231   2.812   1.660
 1948SOL    HW1 5857   3.270   2.901   1.680
 1948SOL    HW2 5858   3.241   2.792   1.563
 1949SOL     OW 5859   2.677   2.434   0.325
 1949SOL    HW1 5860   2.684   2.345   0.279
 1949SOL    HW2 5861   2.583   2.468   0.317
 1950SOL     OW 5862   3.519   2.466   1.206
 1950SOL    HW1 5863   3.481   2.397   1.268
 1950SOL    HW2 5864   3.601   2.430   1.162
 1951SOL     OW 5865   2.114   3.426   1.744
 1951SOL    HW1 5866   2.084   3.483   1.820
 1951SOL    HW2 5867   2.107   3.329   1.770
 1952SOL     OW 5868   2.533   2.326   1.269
 1952SOL    HW1 5869   2.499   2.237   1.239
 1952SOL    HW2 5870   2.559   2.380   1.189
 1953SOL     OW 5871   2.792   3.540   1.465
 1953SOL    HW1 5872   2.768   3.522   1.370
 1953SOL    HW2 5873   2.822   3.634   1.475
 1954SOL     OW 5874   2.335   2.362   0.191
 1954SOL    HW1 5875   2.396   2.442   0.195
 1954SOL    HW2 5876   2.240   2.393   0.198
 1955SOL     OW 5877   2.021   2.999   1.466
 1955SOL    HW1 5878   2.043   2.938   1.542
 1955SOL    HW2 5879   2.031   2.950   1.380
 1956SOL     OW 5880   3.209   2.921   1.234
 1956SOL    HW1 5881   3.233   2.858   1.160
 1956SOL    HW2 5882   3.119   2.961   1.216
 1957SOL     OW 5883   3.164   2.717   0.309
 1957SOL    HW1 5884   3.078   2.686   0.351
 1957SOL    HW2 5885   3.160   2.703   0.210
 1958SOL     OW 5886   3.621   3.609   1.154
 1958SOL    HW1 5887   3.682   3.639   1.081
 1958SOL    HW2 5888   3.583   3.520   1.132
 1959SOL     OW 5889   3.114   3.593   1.128
 1959SOL    HW1 5890   3.198   3.598   1.074
 1959SOL    HW2 5891   3.091   3.497   1.146
 1960SOL     OW 5892   1.945   3.120   1.022
 1960SOL    HW1 5893   1.940   3.119   1.122
 1960SOL    HW2 5894   1.862   3.079   0.984
 1961SOL     OW 5895   2.550   3.524   1.716
 1961SOL    HW1 5896   2.494   3.605   1.725
 1961SOL    HW2 5897   2.602   3.528   1.630
 1962SOL     OW 5898   2.765   1.948   0.133
 1962SOL    HW1 5899   2.816   1.949   0.047
 1962SOL    HW2 5900   2.821   1.906   0.204
 1963SOL     OW 5901   3.588   1.997   0.523
 1963SOL    HW1 5902   3.661   1.980   0.456
 1963SOL    HW2 5903   3.557   1.910   0.561
 1964SOL     OW 5904   3.250   3.435   0.477
 1964SOL    HW1 5905   3.317   3.447   0.403
 1964SOL    HW2 5906   3.210   3.524   0.500
 1965SOL     OW 5907   1.992   3.656   1.851
 1965SOL    HW1 5908   1.951   3.582   1.904
 1965SOL    HW2 5909   2.056   3.707   1.909
 1966SOL     OW 5910   3.142   2.789   0.672
 1966SOL    HW1 5911   3.202   2.708   0.674
 1966SOL    HW2 5912   3.182   2.858   0.612
 1967SOL     OW 5913   2.692   3.135   1.422
 1967SOL    HW1 5914   2.687   3.168   1.517
 1967SOL    HW2 5915   2.606   3.154   1.376
 1968SOL     OW 5916   2.534   3.478   0.154
 1968SOL    HW1 5917   2.543   3.488   0.055
 1968SOL    HW2 5918   2.494   3.389   0.175
 1969SOL     OW 5919   3.512   3.582   1.394
 1969SOL    HW1 5920   3.565   3.592   1.310
 1969SOL    HW2 5921   3.485   3.672   1.428
 1970SOL     OW 5922   3.703   2.037   0.963
 1970SOL    HW1 5923   3.742   1.952   0.927
 1970SOL    HW2 5924   3.605   2.039   0.944
 1971SOL     OW 5925   2.125   2.188   0.720
 1971SOL    HW1 5926   2.046   2.239   0.686
 1971SOL    HW2 5927   2.116   2.173   0.818
 1972SOL     OW 5928   3.056   3.474   0.031
 1972SOL    HW1 5929   3.062   3.381   0.068
 1972SOL    HW2 5930   2.997   3.474  -0.049
 1973SOL     OW 5931   2.684   2.864   1.372
 1973SOL    HW1 5932   2.724   2.863   1.280
 1973SOL    HW2 5933   2.694   2.956   1.412
 1974SOL     OW 5934   2.778   2.772   0.291
 1974SOL    HW1 5935   2.841   2.810   0.223
 1974SOL    HW2 5936   2.818   2.689   0.330
 1975SOL     OW 5937   3.366   3.469   0.044
 1975SOL    HW1 5938   3.274   3.506   0.051
 1975SOL    HW2 5939   3.404   3.489  -0.046
 1976SOL     OW 5940   2.234   3.150   1.490
 1976SOL    HW1 5941   2.221   3.243   1.456
 1976SOL    HW2 5942   2.150   3.098   1.477
 1977SOL     OW 5943   3.476   3.154   1.289
 1977SOL    HW1 5944   3.536   3.157   1.369
 1977SOL    HW2 5945   3.401   3.218   1.302
 1978SOL     OW 5946   2.901   2.960   0.696
 1978SOL    HW1 5947   2.831   2.913   0.750
 1978SOL    HW2 5948   2.960   2.892   0.653
 1979SOL     OW 5949   2.876   2.098   0.971
 1979SOL    HW1 5950   2.868   2.062   0.878
 1979SOL    HW2 5951   2.874   2.022   1.036
 1980SOL     OW 5952   2.452   3.349   0.491
 1980SOL    HW1 5953   2.494   3.291   0.421
 1980SOL    HW2 5954   2.408   3.428   0.447
 1981SOL     OW 5955   3.571   2.247   1.381
 1981SOL    HW1 5956   3.644   2.316   1.385
 1981SOL    HW2 5957   3.599   2.172   1.322
 1982SOL     OW 5958   2.117   3.210   0.290
 1982SOL    HW1 5959   2.021   3.211   0.263
 1982SOL    HW2 5960   2.129   3.263   0.374
 1983SOL     OW 5961   1.967   2.875   1.726
 1983SOL    HW1 5962   1.890   2.842   1.780
 1983SOL    HW2 5963   2.052   2.845   1.768
 1984SOL     OW 5964   2.534   2.065   1.489
 1984SOL    HW1 5965   2.624   2.049   1.449
 1984SOL    HW2 5966   2.542   2.070   1.588
 1985SOL     OW 5967   1.937   2.207   0.033
 1985SOL    HW1 5968   1.845   2.179   0.004
 1985SOL    HW2 5969   1.968   2.284  -0.023
 1986SOL     OW 5970   3.302   2.718   1.398
 1986SOL    HW1 5971   3.245   2.770   1.335
 1986SOL    HW2 5972   3.398   2.730   1.374
 1987SOL     OW 5973   1.934   2.028   0.318
 1987SOL    HW1 5974   1.917   2.111   0.264
 1987SOL    HW2 5975   2.024   1.991   0.296
 1988SOL     OW 5976   3.045   3.197   0.119
 1988SOL    HW1 5977   2.946   3.186   0.121
 1988SOL    HW2 5978   3.079   3.212   0.212
 1989SOL     OW 5979   2.475   2.704   1.431
 1989SOL    HW1 5980   2.531   2.785   1.414
 1989SOL    HW2 5981   2.534   2.624   1.434
 1990SOL     OW 5982   3.355   3.629   0.959
 1990SOL    HW1 5983   3.388   3.693   0.890
 1990SOL    HW2 5984   3.421   3.623   1.034
 1991SOL     OW 5985   2.578   2.427   1.708
 1991SOL    HW1 5986   2.597   2.492   1.782
 1991SOL    HW2 5987   2.638   2.347   1.717
 1992SOL     OW 5988   3.312   3.082   1.633
 1992SOL    HW1 5989   3.303   3.072   1.732
 1992SOL    HW2 5990   3.408   3.075   1.607
 1993SOL     OW 5991   2.252   3.603   1.560
 1993SOL    HW1 5992   2.161   3.644   1.558
 1993SOL    HW2 5993   2.245   3.509   1.592
 1994SOL     OW 5994   3.536   2.745   1.254
 1994SOL    HW1 5995   3.509   2.656   1.217
 1994SOL    HW2 5996   3.537   2.813   1.181
 1995SOL     OW 5997   3.087   2.187   0.449
 1995SOL    HW1 5998   3.152   2.113   0.438
 1995SOL    HW2 5999   3.107   2.237   0.533
 1996SOL     OW 6000   2.456   2.607   0.652
 1996SOL    HW1 6001   2.506   2.692   0.633
 1996SOL    HW2 6002   2.368   2.609   0.604
 1997SOL     OW 6003   3.639   2.204   1.642
 1997SOL    HW1 6004   3.622   2.235   1.548
 1997SOL    HW2 6005   3.555   2.167   1.680
 1998SOL     OW 6006   3.592   2.796   1.517
 1998SOL    HW1 6007   3.630   2.887   1.532
 1998SOL    HW2 6008   3.584   2.779   1.418
 1999SOL     OW 6009   2.721   3.236   0.016
 1999SOL    HW1 6010   2.675   3.251   0.104
 1999SOL    HW2 6011   2.765   3.321  -0.014
 2000SOL     OW 6012   2.523   3.652   0.953
 2000SOL    HW1 6013   2.477   3.740   0.940
 2000SOL    HW2 6014   2.622   3.664   0.946
 2001SOL     OW 6015   2.721   2.818   0.861
 2001SOL    HW1 6016   2.775   2.749   0.909
 2001SOL    HW2 6017   2.689   2.887   0.927
 2002SOL     OW 6018   2.945   2.846   0.087
 2002SOL    HW1 6019   2.922   2.899   0.005
 2002SOL    HW2 6020   3.026   2.790   0.068
 2003SOL     OW 6021   3.723   3.431   0.851
 2003SOL    HW1 6022   3.652   3.419   0.781
 2003SOL    HW2 6023   3.724   3.352   0.911
 2004SOL     OW 6024   2.083   3.176   1.844
 2004SOL    HW1 6025   2.018   3.103   1.823
 2004SOL    HW2 6026   2.087   3.190   1.942
 2005SOL     OW 6027   1.941   3.102   0.653
 2005SOL    HW1 6028   1.940   3.055   0.741
 2005SOL    HW2 6029   2.023   3.074   0.602
 2006SOL     OW 6030   2.534   3.253   1.624
 2006SOL    HW1 6031   2.456   3.203   1.662
 2006SOL    HW2 6032   2.531   3.348   1.655
 2007SOL     OW 6033   3.686   2.054   1.227
 2007SOL    HW1 6034   3.682   1.964   1.271
 2007SOL    HW2 6035   3.689   2.043   1.128
 2008SOL     OW 6036   2.290   2.286   0.520
 2008SOL    HW1 6037   2.320   2.214   0.458
 2008SOL    HW2 6038   2.251   2.246   0.603
 2009SOL     OW 6039   3.567   3.349   1.104
 2009SOL    HW1 6040   3.474   3.324   1.077
 2009SOL    HW2 6041   3.593   3.299   1.186
 2010SOL     OW 6042   2.179   2.409   1.280
 2010SOL    HW1 6043   2.217   2.350   1.352
 2010SOL    HW2 6044   2.219   2.383   1.192
 2011SOL     OW 6045   2.674   3.448   0.687
 2011SOL    HW1 6046   2.706   3.458   0.593
 2011SOL    HW2 6047   2.595   3.386   0.689
 2012SOL     OW 6048   3.286   2.076   1.112
 2012SOL    HW1 6049   3.338   2.011   1.167
 2012SOL    HW2 6050   3.237   2.139   1.173
 2013SOL     OW 6051   2.863   1.896   1.154
 2013SOL    HW1 6052   2.800   1.824   1.123
 2013SOL    HW2 6053   2.956   1.860   1.154
 2014SOL     OW 6054   2.632   3.192   0.301
 2014SOL    HW1 6055   2.586   3.105   0.318
 2014SOL    HW2 6056   2.723   3.189   0.342
 2015SOL     OW 6057   2.480   3.429   1.284
 2015SOL    HW1 6058   2.475   3.511   1.341
 2015SOL    HW2 6059   2.569   3.426   1.239
 2016SOL     OW 6060   3.214   1.914   0.168
 2016SOL    HW1 6061   3.249   1.873   0.084
 2016SOL    HW2 6062   3.124   1.876   0.188
 2017SOL     OW 6063   3.162   2.315   0.691
 2017SOL    HW1 6064   3.103   2.395   0.695
 2017SOL    HW2 6065   3.177   2.280   0.784
 2018SOL     OW 6066   3.455   2.083   0.882
 2018SOL    HW1 6067   3.371   2.082   0.936
 2018SOL    HW2 6068   3.457   2.166   0.826
 2019SOL     OW 6069   1.901   2.939   0.300
 2019SOL    HW1 6070   2.000   2.928   0.291
 2019SOL    HW2 6071   1.861   2.853   0.332
 2020SOL     OW 6072   2.737   3.508   0.337
 2020SOL    HW1 6073   2.660   3.473   0.283
 2020SOL    HW2 6074   2.705   3.579   0.399
 2021SOL     OW 6075   2.092   2.490   1.975
 2021SOL    HW1 6076   1.999   2.488   2.012
 2021SOL    HW2 6077   2.093   2.451   1.883
 2022SOL     OW 6078   2.087   2.137   2.858
 2022SOL    HW1 6079   2.122   2.120   2.950
 2022SOL    HW2 6080   1.999   2.092   2.846
 2023SOL     OW 6081   1.881   2.230   2.509
 2023SOL    HW1 6082   1.799   2.273   2.548
 2023SOL    HW2 6083   1.853   2.157   2.446
 2024SOL     OW 6084   2.431   3.137   3.027
 2024SOL    HW1 6085   2.338   3.130   2.990
 2024SOL    HW2 6086   2.442   3.226   3.071
 2025SOL     OW 6087   3.417   3.373   2.565
 2025SOL    HW1 6088   3.360   3.357   2.646
 2025SOL    HW2 6089   3.358   3.383   2.485
 2026SOL     OW 6090   2.997   2.565   2.579
 2026SOL    HW1 6091   3.054   2.643   2.554
 2026SOL    HW2 6092   2.937   2.591   2.655
 2027SOL     OW 6093   3.617   2.469   2.093
 2027SOL    HW1 6094   3.605   2.456   1.994
 2027SOL    HW2 6095   3.587   2.388   2.142
 2028SOL     OW 6096   2.630   3.006   2.885
 2028SOL    HW1 6097   2.552   3.023   2.945
 2028SOL    HW2 6098   2.664   3.093   2.849
 2029SOL     OW 6099   2.712   2.660   3.685
 2029SOL    HW1 6100   2.708   2.736   3.750
 2029SOL    HW2 6101   2.734   2.696   3.594
 2030SOL     OW 6102   2.547   2.874   2.527
 2030SOL    HW1 6103   2.616   2.858   2.597
 2030SOL    HW2 6104   2.474   2.931   2.565
 2031SOL     OW 6105   2.548   3.023   3.665
 2031SOL    HW1 6106   2.608   3.102   3.679
 2031SOL    HW2 6107   2.462   3.054   3.624
 2032SOL     OW 6108   2.197   3.297   2.923
 2032SOL    HW1 6109   2.119   3.266   2.870
 2032SOL    HW2 6110   2.255   3.355   2.866
 2033SOL     OW 6111   3.322   3.367   3.201
 2033SOL    HW1 6112   3.346   3.461   3.227
 2033SOL    HW2 6113   3.306   3.313   3.283
 2034SOL     OW 6114   2.300   2.254   3.361
 2034SOL    HW1 6115   2.382   2.198   3.370
 2034SOL    HW2 6116   2.219   2.196   3.365
 2035SOL     OW 6117   3.465   2.309   2.599
 2035SOL    HW1 6118   3.391   2.355   2.549
 2035SOL    HW2 6119   3.516   2.377   2.652
 2036SOL     OW 6120   2.093   3.575   2.345
 2036SOL    HW1 6121   2.127   3.652   2.399
 2036SOL    HW2 6122   2.137   3.575   2.255
 2037SOL     OW 6123   2.989   3.203   3.552
 2037SOL    HW1 6124   3.036   3.203   3.640
 2037SOL    HW2 6125   2.941   3.116   3.541
 2038SOL     OW 6126   2.092   3.296   2.400
 2038SOL    HW1 6127   2.066   3.392   2.400
 2038SOL    HW2 6128   2.021   3.242   2.445
 2039SOL     OW 6129   2.102   2.953   2.748
 2039SOL    HW1 6130   2.116   2.869   2.800
 2039SOL    HW2 6131   2.047   3.017   2.803
 2040SOL     OW 6132   2.482   3.648   3.301
 2040SOL    HW1 6133   2.390   3.631   3.336
 2040SOL    HW2 6134   2.510   3.740   3.327
 2041SOL     OW 6135   2.468   2.826   1.985
 2041SOL    HW1 6136   2.475   2.910   1.931
 2041SOL    HW2 6137   2.514   2.839   2.073
 2042SOL     OW 6138   3.456   1.976   3.342
 2042SOL    HW1 6139   3.438   2.043   3.270
 2042SOL    HW2 6140   3.453   2.022   3.431
 2043SOL     OW 6141   3.704   3.629   2.221
 2043SOL    HW1 6142   3.758   3.600   2.301
 2043SOL    HW2 6143   3.734   3.719   2.192
 2044SOL     OW 6144   1.889   3.458   1.979
 2044SOL    HW1 6145   1.870   3.362   2.000
 2044SOL    HW2 6146   1.856   3.516   2.054
 2045SOL     OW 6147   3.551   2.784   2.474
 2045SOL    HW1 6148   3.646   2.755   2.482
 2045SOL    HW2 6149   3.543   2.849   2.399
 2046SOL     OW 6150   3.503   2.970   2.294
 2046SOL    HW1 6151   3.589   2.972   2.242
 2046SOL    HW2 6152   3.517   3.017   2.382
 2047SOL     OW 6153   1.975   2.599   3.459
 2047SOL    HW1 6154   2.063   2.586   3.504
 2047SOL    HW2 6155   1.962   2.696   3.437
 2048SOL     OW 6156   2.475   3.227   2.588
 2048SOL    HW1 6157   2.426   3.140   2.597
 2048SOL    HW2 6158   2.452   3.270   2.501
 2049SOL     OW 6159   3.155   3.090   3.285
 2049SOL    HW1 6160   3.192   3.017   3.227
 2049SOL    HW2 6161   3.207   3.095   3.370
 2050SOL     OW 6162   2.671   1.866   2.364
 2050SOL    HW1 6163   2.711   1.957   2.355
 2050SOL    HW2 6164   2.571   1.874   2.370
 2051SOL     OW 6165   2.059   2.838   3.126
 2051SOL    HW1 6166   2.148   2.793   3.112
 2051SOL    HW2 6167   1.986   2.773   3.107
 2052SOL     OW 6168   3.387   2.861   2.052
 2052SOL    HW1 6169   3.324   2.785   2.065
 2052SOL    HW2 6170   3.435   2.879   2.138
 2053SOL     OW 6171   3.049   3.654   3.478
 2053SOL    HW1 6172   3.073   3.714   3.402
 2053SOL    HW2 6173   3.056   3.559   3.448
 2054SOL     OW 6174   2.179   2.113   3.663
 2054SOL    HW1 6175   2.250   2.184   3.669
 2054SOL    HW2 6176   2.091   2.152   3.691
 2055SOL     OW 6177   3.328   3.279   2.815
 2055SOL    HW1 6178   3.269   3.285   2.895
 2055SOL    HW2 6179   3.313   3.191   2.769
 2056SOL     OW 6180   3.529   3.576   2.434
 2056SOL    HW1 6181   3.488   3.553   2.346
 2056SOL    HW2 6182   3.511   3.502   2.499
 2057SOL     OW 6183   3.143   2.207   2.806
 2057SOL    HW1 6184   3.057   2.157   2.793
 2057SOL    HW2 6185   3.205   2.153   2.862
 2058SOL     OW 6186   3.438   3.524   2.169
 2058SOL    HW1 6187   3.527   3.570   2.172
 2058SOL    HW2 6188   3.417   3.500   2.074
 2059SOL     OW 6189   2.669   2.467   3.327
 2059SOL    HW1 6190   2.622   2.464   3.416
 2059SOL    HW2 6191   2.618   2.412   3.261
 2060SOL     OW 6192   3.256   2.331   3.536
 2060SOL    HW1 6193   3.236   2.374   3.624
 2060SOL    HW2 6194   3.334   2.269   3.545
 2061SOL     OW 6195   2.835   2.752   3.434
 2061SOL    HW1 6196   2.881   2.668   3.405
 2061SOL    HW2 6197   2.779   2.786   3.359
 2062SOL     OW 6198   2.853   2.272   3.104
 2062SOL    HW1 6199   2.776   2.306   3.158
 2062SOL    HW2 6200   2.819   2.221   3.025
 2063SOL     OW 6201   2.903   2.563   2.291
 2063SOL    HW1 6202   2.929   2.559   2.387
 2063SOL    HW2 6203   2.818   2.512   2.277
 2064SOL     OW 6204   1.938   2.673   2.651
 2064SOL    HW1 6205   2.037   2.661   2.660
 2064SOL    HW2 6206   1.914   2.768   2.672
 2065SOL     OW 6207   1.992   3.683   3.433
 2065SOL    HW1 6208   1.982   3.668   3.532
 2065SOL    HW2 6209   1.906   3.719   3.397
 2066SOL     OW 6210   2.727   2.210   2.057
 2066SOL    HW1 6211   2.786   2.273   2.008
 2066SOL    HW2 6212   2.746   2.116   2.028
 2067SOL     OW 6213   3.581   2.447   3.693
 2067SOL    HW1 6214   3.555   2.536   3.657
 2067SOL    HW2 6215   3.579   2.379   3.620
 2068SOL     OW 6216   3.224   3.006   2.407
 2068SOL    HW1 6217   3.307   2.977   2.359
 2068SOL    HW2 6218   3.175   3.073   2.351
 2069SOL     OW 6219   2.412   2.058   2.747
 2069SOL    HW1 6220   2.407   2.053   2.847
 2069SOL    HW2 6221   2.414   2.154   2.718
 2070SOL     OW 6222   2.870   3.318   2.339
 2070SOL    HW1 6223   2.824   3.390   2.287
 2070SOL    HW2 6224   2.866   3.338   2.437
 2071SOL     OW 6225   2.213   3.663   2.715
 2071SOL    HW1 6226   2.263   3.577   2.721
 2071SOL    HW2 6227   2.278   3.740   2.712
 2072SOL     OW 6228   3.657   2.928   2.735
 2072SOL    HW1 6229   3.595   2.913   2.659
 2072SOL    HW2 6230   3.605   2.939   2.820
 2073SOL     OW 6231   3.089   3.412   3.368
 2073SOL    HW1 6232   3.095   3.335   3.432
 2073SOL    HW2 6233   3.037   3.386   3.288
 2074SOL     OW 6234   2.183   2.805   2.104
 2074SOL    HW1 6235   2.265   2.844   2.062
 2074SOL    HW2 6236   2.156   2.723   2.055
 2075SOL     OW 6237   3.320   2.597   2.590
 2075SOL    HW1 6238   3.315   2.532   2.665
 2075SOL    HW2 6239   3.400   2.656   2.603
 2076SOL     OW 6240   2.323   3.128   3.589
 2076SOL    HW1 6241   2.273   3.129   3.503
 2076SOL    HW2 6242   2.260   3.110   3.665
 2077SOL     OW 6243   2.973   3.638   2.099
 2077SOL    HW1 6244   2.913   3.576   2.149
 2077SOL    HW2 6245   3.004   3.594   2.014
 2078SOL     OW 6246   2.064   2.147   3.360
 2078SOL    HW1 6247   1.984   2.207   3.347
 2078SOL    HW2 6248   2.054   2.098   3.446
 2079SOL     OW 6249   3.494   3.239   1.943
 2079SOL    HW1 6250   3.462   3.333   1.933
 2079SOL    HW2 6251   3.418   3.176   1.931
 2080SOL     OW 6252   2.326   3.605   2.185
 2080SOL    HW1 6253   2.359   3.644   2.271
 2080SOL    HW2 6254   2.402   3.598   2.120
 2081SOL     OW 6255   3.262   1.969   2.288
 2081SOL    HW1 6256   3.238   1.932   2.198
 2081SOL    HW2 6257   3.361   1.985   2.292
 2082SOL     OW 6258   2.111   3.647   3.103
 2082SOL    HW1 6259   2.168   3.582   3.153
 2082SOL    HW2 6260   2.095   3.614   3.010
 2083SOL     OW 6261   2.802   3.560   2.766
 2083SOL    HW1 6262   2.882   3.503   2.787
 2083SOL    HW2 6263   2.753   3.520   2.689
 2084SOL     OW 6264   3.409   2.084   3.591
 2084SOL    HW1 6265   3.404   2.121   3.683
 2084SOL    HW2 6266   3.337   2.015   3.579
 2085SOL     OW 6267   2.476   1.984   1.979
 2085SOL    HW1 6268   2.574   1.962   1.986
 2085SOL    HW2 6269   2.445   1.967   1.886
 2086SOL     OW 6270   2.643   2.126   3.611
 2086SOL    HW1 6271   2.710   2.065   3.654
 2086SOL    HW2 6272   2.570   2.145   3.676
 2087SOL     OW 6273   2.750   3.376   3.057
 2087SOL    HW1 6274   2.727   3.351   2.963
 2087SOL    HW2 6275   2.811   3.307   3.096
 2088SOL     OW 6276   3.213   2.452   3.295
 2088SOL    HW1 6277   3.241   2.409   3.380
 2088SOL    HW2 6278   3.238   2.548   3.296
 2089SOL     OW 6279   2.665   3.264   2.786
 2089SOL    HW1 6280   2.755   3.278   2.744
 2089SOL    HW2 6281   2.594   3.266   2.715
 2090SOL     OW 6282   2.784   2.365   2.761
 2090SOL    HW1 6283   2.759   2.356   2.665
 2090SOL    HW2 6284   2.832   2.283   2.792
 2091SOL     OW 6285   2.401   1.926   2.374
 2091SOL    HW1 6286   2.320   1.927   2.432
 2091SOL    HW2 6287   2.404   2.009   2.319
 2092SOL     OW 6288   3.296   3.050   1.903
 2092SOL    HW1 6289   3.328   2.974   1.960
 2092SOL    HW2 6290   3.204   3.077   1.933
 2093SOL     OW 6291   2.159   1.897   2.033
 2093SOL    HW1 6292   2.208   1.981   2.012
 2093SOL    HW2 6293   2.221   1.832   2.078
 2094SOL     OW 6294   2.797   2.098   2.342
 2094SOL    HW1 6295   2.749   2.139   2.264
 2094SOL    HW2 6296   2.896   2.096   2.323
 2095SOL     OW 6297   2.938   2.545   3.326
 2095SOL    HW1 6298   2.858   2.484   3.329
 2095SOL    HW2 6299   3.019   2.492   3.302
 2096SOL     OW 6300   3.089   3.432   2.655
 2096SOL    HW1 6301   3.110   3.506   2.590
 2096SOL    HW2 6302   3.157   3.432   2.728
 2097SOL     OW 6303   2.321   3.014   2.603
 2097SOL    HW1 6304   2.250   2.987   2.668
 2097SOL    HW2 6305   2.295   2.986   2.510
 2098SOL     OW 6306   3.133   3.659   2.453
 2098SOL    HW1 6307   3.177   3.723   2.389
 2098SOL    HW2 6308   3.083   3.711   2.523
 2099SOL     OW 6309   2.894   2.411   1.878
 2099SOL    HW1 6310   2.853   2.493   1.839
 2099SOL    HW2 6311   2.958   2.437   1.951
 2100SOL     OW 6312   1.940   2.418   3.248
 2100SOL    HW1 6313   2.032   2.417   3.207
 2100SOL    HW2 6314   1.934   2.492   3.315
 2101SOL     OW 6315   2.423   2.084   3.009
 2101SOL    HW1 6316   2.461   2.000   3.046
 2101SOL    HW2 6317   2.335   2.103   3.053
 2102SOL     OW 6318   2.728   2.316   2.504
 2102SOL    HW1 6319   2.696   2.388   2.442
 2102SOL    HW2 6320   2.752   2.235   2.451
 2103SOL     OW 6321   2.879   1.901   2.615
 2103SOL    HW1 6322   2.807   1.906   2.546
 2103SOL    HW2 6323   2.855   1.832   2.684
 2104SOL     OW 6324   3.291   3.035   2.729
 2104SOL    HW1 6325   3.236   2.951   2.722
 2104SOL    HW2 6326   3.317   3.064   2.637
 2105SOL     OW 6327   3.328   2.452   2.854
 2105SOL    HW1 6328   3.298   2.357   2.861
 2105SOL    HW2 6329   3.401   2.468   2.920
 2106SOL     OW 6330   3.719   2.695   2.239
 2106SOL    HW1 6331   3.761   2.631   2.303
 2106SOL    HW2 6332   3.681   2.644   2.161
 2107SOL     OW 6333   2.350   3.247   2.036
 2107SOL    HW1 6334   2.263   3.232   2.083
 2107SOL    HW2 6335   2.333   3.273   1.941
 2108SOL     OW 6336   3.526   3.142   2.519
 2108SOL    HW1 6337   3.625   3.150   2.533
 2108SOL    HW2 6338   3.481   3.226   2.550
 2109SOL     OW 6339   3.252   2.437   1.940
 2109SOL    HW1 6340   3.198   2.416   2.021
 2109SOL    HW2 6341   3.343   2.396   1.949
 2110SOL     OW 6342   3.616   3.085   3.450
 2110SOL    HW1 6343   3.707   3.046   3.437
 2110SOL    HW2 6344   3.624   3.181   3.474
 2111SOL     OW 6345   2.926   3.209   3.202
 2111SOL    HW1 6346   2.846   3.186   3.257
 2111SOL    HW2 6347   3.009   3.183   3.251
 2112SOL     OW 6348   3.454   3.491   3.487
 2112SOL    HW1 6349   3.481   3.525   3.397
 2112SOL    HW2 6350   3.533   3.453   3.533
 2113SOL     OW 6351   2.973   3.057   2.962
 2113SOL    HW1 6352   2.933   3.101   3.043
 2113SOL    HW2 6353   2.932   3.094   2.879
 2114SOL     OW 6354   3.500   2.961   2.941
 2114SOL    HW1 6355   3.505   3.042   3.000
 2114SOL    HW2 6356   3.414   2.963   2.890
 2115SOL     OW 6357   2.777   1.951   3.264
 2115SOL    HW1 6358   2.802   1.931   3.169
 2115SOL    HW2 6359   2.849   2.007   3.306
 2116SOL     OW 6360   2.842   2.978   3.581
 2116SOL    HW1 6361   2.743   2.984   3.591
 2116SOL    HW2 6362   2.865   2.898   3.525
 2117SOL     OW 6363   2.567   2.912   2.230
 2117SOL    HW1 6364   2.553   2.919   2.329
 2117SOL    HW2 6365   2.651   2.861   2.212
 2118SOL     OW 6366   2.272   2.675   3.113
 2118SOL    HW1 6367   2.358   2.687   3.163
 2118SOL    HW2 6368   2.230   2.588   3.140
 2119SOL     OW 6369   3.136   2.248   3.124
 2119SOL    HW1 6370   3.157   2.322   3.188
 2119SOL    HW2 6371   3.047   2.265   3.081
 2120SOL     OW 6372   1.926   3.426   3.193
 2120SOL    HW1 6373   1.880   3.508   3.159
 2120SOL    HW2 6374   2.024   3.445   3.202
 2121SOL     OW 6375   2.229   2.962   2.363
 2121SOL    HW1 6376   2.222   3.045   2.307
 2121SOL    HW2 6377   2.233   2.882   2.303
 2122SOL     OW 6378   2.428   2.399   2.727
 2122SOL    HW1 6379   2.440   2.465   2.653
 2122SOL    HW2 6380   2.474   2.433   2.810
 2123SOL     OW 6381   3.114   3.210   2.250
 2123SOL    HW1 6382   3.164   3.287   2.290
 2123SOL    HW2 6383   3.019   3.212   2.282
 2124SOL     OW 6384   3.134   3.307   3.004
 2124SOL    HW1 6385   3.181   3.320   3.091
 2124SOL    HW2 6386   3.068   3.233   3.013
 2125SOL     OW 6387   3.444   2.501   2.334
 2125SOL    HW1 6388   3.413   2.562   2.407
 2125SOL    HW2 6389   3.494   2.553   2.265
 2126SOL     OW 6390   2.216   3.372   3.191
 2126SOL    HW1 6391   2.195   3.328   3.104
 2126SOL    HW2 6392   2.313   3.398   3.194
 2127SOL     OW 6393   2.264   2.613   3.460
 2127SOL    HW1 6394   2.332   2.668   3.413
 2127SOL    HW2 6395   2.304   2.525   3.487
 2128SOL     OW 6396   3.449   2.641   3.532
 2128SOL    HW1 6397   3.357   2.679   3.527
 2128SOL    HW2 6398   3.509   2.688   3.467
 2129SOL     OW 6399   2.875   1.967   3.632
 2129SOL    HW1 6400   2.881   2.052   3.580
 2129SOL    HW2 6401   2.907   1.891   3.575
 2130SOL     OW 6402   2.366   1.912   3.602
 2130SOL    HW1 6403   2.324   1.855   3.532
 2130SOL    HW2 6404   2.300   1.981   3.634
 2131SOL     OW 6405   2.435   2.732   2.891
 2131SOL    HW1 6406   2.479   2.821   2.882
 2131SOL    HW2 6407   2.372   2.732   2.968
 2132SOL     OW 6408   3.222   2.724   2.907
 2132SOL    HW1 6409   3.147   2.724   2.841
 2132SOL    HW2 6410   3.259   2.632   2.916
 2133SOL     OW 6411   3.071   2.387   2.137
 2133SOL    HW1 6412   3.084   2.303   2.191
 2133SOL    HW2 6413   3.042   2.461   2.197
 2134SOL     OW 6414   2.169   2.075   3.093
 2134SOL    HW1 6415   2.146   2.112   3.183
 2134SOL    HW2 6416   2.139   1.980   3.087
 2135SOL     OW 6417   1.899   3.172   3.144
 2135SOL    HW1 6418   1.952   3.123   3.212
 2135SOL    HW2 6419   1.921   3.270   3.149
 2136SOL     OW 6420   2.594   2.496   2.926
 2136SOL    HW1 6421   2.653   2.470   2.850
 2136SOL    HW2 6422   2.566   2.592   2.915
 2137SOL     OW 6423   3.590   2.797   3.716
 2137SOL    HW1 6424   3.544   2.790   3.627
 2137SOL    HW2 6425   3.528   2.841   3.782
 2138SOL     OW 6426   2.169   1.925   2.480
 2138SOL    HW1 6427   2.158   2.019   2.513
 2138SOL    HW2 6428   2.164   1.862   2.557
 2139SOL     OW 6429   3.484   2.229   2.236
 2139SOL    HW1 6430   3.486   2.153   2.300
 2139SOL    HW2 6431   3.436   2.306   2.276
 2140SOL     OW 6432   2.885   2.628   2.828
 2140SOL    HW1 6433   2.900   2.649   2.924
 2140SOL    HW2 6434   2.855   2.533   2.819
 2141SOL     OW 6435   2.842   3.435   3.562
 2141SOL    HW1 6436   2.822   3.479   3.474
 2141SOL    HW2 6437   2.881   3.344   3.546
 2142SOL     OW 6438   3.721   3.380   3.467
 2142SOL    HW1 6439   3.735   3.407   3.372
 2142SOL    HW2 6440   3.804   3.402   3.520
 2143SOL     OW 6441   2.212   2.760   3.666
 2143SOL    HW1 6442   2.288   2.804   3.714
 2143SOL    HW2 6443   2.247   2.713   3.584
 2144SOL     OW 6444   3.402   2.136   1.987
 2144SOL    HW1 6445   3.341   2.061   2.010
 2144SOL    HW2 6446   3.424   2.188   2.070
 2145SOL     OW 6447   3.165   2.700   1.904
 2145SOL    HW1 6448   3.199   2.607   1.919
 2145SOL    HW2 6449   3.183   2.727   1.809
 2146SOL     OW 6450   2.930   3.195   2.711
 2146SOL    HW1 6451   2.937   3.111   2.656
 2146SOL    HW2 6452   2.992   3.264   2.675
 2147SOL     OW 6453   2.181   2.672   2.811
 2147SOL    HW1 6454   2.274   2.708   2.816
 2147SOL    HW2 6455   2.175   2.587   2.863
 2148SOL     OW 6456   2.201   2.371   2.868
 2148SOL    HW1 6457   2.149   2.288   2.851
 2148SOL    HW2 6458   2.278   2.376   2.804
 2149SOL     OW 6459   3.000   2.242   3.540
 2149SOL    HW1 6460   2.955   2.305   3.604
 2149SOL    HW2 6461   3.093   2.273   3.523
 2150SOL     OW 6462   3.022   2.069   3.339
 2150SOL    HW1 6463   3.022   2.133   3.416
 2150SOL    HW2 6464   3.050   2.117   3.256
 2151SOL     OW 6465   1.870   3.188   2.062
 2151SOL    HW1 6466   1.777   3.209   2.031
 2151SOL    HW2 6467   1.880   3.089   2.075
 2152SOL     OW 6468   1.950   3.663   2.789
 2152SOL    HW1 6469   1.908   3.577   2.762
 2152SOL    HW2 6470   2.044   3.666   2.755
 2153SOL     OW 6471   2.366   3.430   2.772
 2153SOL    HW1 6472   2.432   3.504   2.781
 2153SOL    HW2 6473   2.410   3.351   2.730
 2154SOL     OW 6474   2.864   2.658   3.100
 2154SOL    HW1 6475   2.905   2.626   3.186
 2154SOL    HW2 6476   2.768   2.631   3.097
 2155SOL     OW 6477   1.902   2.406   2.976
 2155SOL    HW1 6478   1.987   2.373   2.935
 2155SOL    HW2 6479   1.915   2.421   3.074
 2156SOL     OW 6480   2.051   2.382   3.584
 2156SOL    HW1 6481   2.110   2.342   3.514
 2156SOL    HW2 6482   1.993   2.453   3.543
 2157SOL     OW 6483   3.231   2.812   3.522
 2157SOL    HW1 6484   3.270   2.901   3.542
 2157SOL    HW2 6485   3.241   2.792   3.425
 2158SOL     OW 6486   2.677   2.434   2.187
 2158SOL    HW1 6487   2.684   2.345   2.141
 2158SOL    HW2 6488   2.583   2.468   2.179
 2159SOL     OW 6489   3.519   2.466   3.068
 2159SOL    HW1 6490   3.481   2.397   3.130
 2159SOL    HW2 6491   3.601   2.430   3.024
 2160SOL     OW 6492   2.114   3.426   3.606
 2160SOL    HW1 6493   2.084   3.483   3.682
 2160SOL    HW2 6494   2.107   3.329   3.632
 2161SOL     OW 6495   2.533   2.326   3.131
 2161SOL    HW1 6496   2.499   2.237   3.101
 2161SOL    HW2 6497   2.559   2.380   3.051
 2162SOL     OW 6498   2.792   3.540   3.327
 2162SOL    HW1 6499   2.768   3.522   3.232
 2162SOL    HW2 6500   2.822   3.634   3.337
 2163SOL     OW 6501   2.021   2.999   3.328
 2163SOL    HW1 6502   2.043   2.938   3.404
 2163SOL    HW2 6503   2.031   2.950   3.242
 2164SOL     OW 6504   3.209   2.921   3.096
 2164SOL    HW1 6505   3.233   2.858   3.022
 2164SOL    HW2 6506   3.119   2.961   3.078
 2165SOL     OW 6507   3.164   2.717   2.171
 2165SOL    HW1 6508   3.078   2.686   2.213
 2165SOL    HW2 6509   3.160   2.703   2.072
 2166SOL     OW 6510   3.621   3.609   3.016
 2166SOL    HW1 6511   3.682   3.639   2.943
 2166SOL    HW2 6512   3.583   3.520   2.994
 2167SOL     OW 6513   3.114   3.593   2.990
 2167SOL    HW1 6514   3.198   3.598   2.936
 2167SOL    HW2 6515   3.091   3.497   3.008
 2168SOL     OW 6516   1.945   3.120   2.884
 2168SOL    HW1 6517   1.940   3.119   2.984
 2168SOL    HW2 6518   1.862   3.079   2.846
 2169SOL     OW 6519   2.550   3.524   3.578
 2169SOL    HW1 6520   2.494   3.605   3.587
 2169SOL    HW2 6521   2.602   3.528   3.492
 2170SOL     OW 6522   3.588   1.997   2.385
 2170SOL    HW1 6523   3.661   1.980   2.318
 2170SOL    HW2 6524   3.557   1.910   2.423
 2171SOL     OW 6525   3.250   3.435   2.339
 2171SOL    HW1 6526   3.317   3.447   2.265
 2171SOL    HW2 6527   3.210   3.524   2.362
 2172SOL     OW 6528   1.992   3.656   3.713
 2172SOL    HW1 6529   1.951   3.582   3.766
 2172SOL    HW2 6530   2.056   3.707   3.771
 2173SOL     OW 6531   3.142   2.789   2.534
 2173SOL    HW1 6532   3.202   2.708   2.536
 2173SOL    HW2 6533   3.182   2.858   2.474
 2174SOL     OW 6534   2.692   3.135   3.284
 2174SOL    HW1 6535   2.687   3.168   3.379
 2174SOL    HW2 6536   2.606   3.154   3.238
 2175SOL     OW 6537   2.534   3.478   2.016
 2175SOL    HW1 6538   2.543   3.488   1.917
 2175SOL    HW2 6539   2.494   3.389   2.037
 2176SOL     OW 6540   3.512   3.582   3.256
 2176SOL    HW1 6541   3.565   3.592   3.172
 2176SOL    HW2 6542   3.485   3.672   3.290
 2177SOL     OW 6543   3.703   2.037   2.825
 2177SOL    HW1 6544   3.742   1.952   2.789
 2177SOL    HW2 6545   3.605   2.039   2.806
 2178SOL     OW 6546   3.056   3.474   1.893
 2178SOL    HW1 6547   3.062   3.381   1.930
 2178SOL    HW2 6548   2.997   3.474   1.813
 2179SOL     OW 6549   2.684   2.864   3.234
 2179SOL    HW1 6550   2.724   2.863   3.142
 2179SOL    HW2 6551   2.694   2.956   3.274
 2180SOL     OW 6552   2.778   2.772   2.153
 2180SOL    HW1 6553   2.841   2.810   2.085
 2180SOL    HW2 6554   2.818   2.689   2.192
 2181SOL     OW 6555   3.366   3.469   1.906
 2181SOL    HW1 6556   3.274   3.506   1.913
 2181SOL    HW2 6557   3.404   3.489   1.816
 2182SOL     OW 6558   2.234   3.150   3.352
 2182SOL    HW1 6559   2.221   3.243   3.318
 2182SOL    HW2 6560   2.150   3.098   3.339
 2183SOL     OW 6561   3.476   3.154   3.151
 2183SOL    HW1 6562   3.536   3.157   3.231
 2183SOL    HW2 6563   3.401   3.218   3.164
 2184SOL     OW 6564   2.901   2.960   2.558
 2184SOL    HW1 6565   2.831   2.913   2.612
 2184SOL    HW2 6566   2.960   2.892   2.515
 2185SOL     OW 6567   2.876   2.098   2.833
 2185SOL    HW1 6568   2.868   2.062   2.740
 2185SOL    HW2 6569   2.874   2.022   2.898
 2186SOL     OW 6570   2.452   3.349   2.353
 2186SOL    HW1 6571   2.494   3.291   2.283
 2186SOL    HW2 6572   2.408   3.428   2.309
 2187SOL     OW 6573   3.571   2.247   3.243
 2187SOL    HW1 6574   3.644   2.316   3.247
 2187SOL    HW2 6575   3.599   2.172   3.184
 2188SOL     OW 6576   2.117   3.210   2.152
 2188SOL    HW1 6577   2.021   3.211   2.125
 2188SOL    HW2 6578   2.129   3.263   2.236
 2189SOL     OW 6579   1.967   2.875   3.588
 2189SOL    HW1 6580   1.890   2.842   3.642
 2189SOL    HW2 6581   2.052   2.845   3.630
 2190SOL     OW 6582   2.534   2.065   3.351
 2190SOL    HW1 6583   2.624   2.049   3.311
 2190SOL    HW2 6584   2.542   2.070   3.450
 2191SOL     OW 6585   1.937   2.207   1.895
 2191SOL    HW1 6586   1.845   2.179   1.866
 2191SOL    HW2 6587   1.968   2.284   1.839
 2192SOL     OW 6588   3.302   2.718   3.260
 2192SOL    HW1 6589   3.245   2.770   3.197
 2192SOL    HW2 6590   3.398   2.730   3.236
 2193SOL     OW 6591   1.934   2.028   2.180
 2193SOL    HW1 6592   1.917   2.111   2.126
 2193SOL    HW2 6593   2.024   1.991   2.158
 2194SOL     OW 6594   3.045   3.197   1.981
 2194SOL    HW1 6595   2.946   3.186   1.983
 2194SOL    HW2 6596   3.079   3.212   2.074
 2195SOL     OW 6597   2.475   2.704   3.293
 2195SOL    HW1 6598   2.531   2.785   3.276
 2195SOL    HW2 6599   2.534   2.624   3.296
 2196SOL     OW 6600   3.355   3.629   2.821
 2196SOL    HW1 6601   3.388   3.693   2.752
 2196SOL    HW2 6602   3.421   3.623   2.896
 2197SOL     OW 6603   2.578   2.427   3.570
 2197SOL    HW1 6604   2.597   2.492   3.644
 2197SOL    HW2 6605   2.638   2.347   3.579
 2198SOL     OW 6606   3.312   3.082   3.495
 2198SOL    HW1 6607   3.303   3.072   3.594
 2198SOL    HW2 6608   3.408   3.075   3.469
 2199SOL     OW 6609   2.252   3.603   3.422
 2199SOL    HW1 6610   2.161   3.644   3.420
 2199SOL    HW2 6611   2.245   3.509   3.454
 2200SOL     OW 6612   3.536   2.745   3.116
 2200SOL    HW1 6613   3.509   2.656   3.079
 2200SOL    HW2 6614   3.537   2.813   3.043
 2201SOL     OW 6615   3.087   2.187   2.311
 2201SOL    HW1 6616   3.152   2.113   2.300
 2201SOL    HW2 6617   3.107   2.237   2.395
 2202SOL     OW 6618   2.456   2.607   2.514
 2202SOL    HW1 6619   2.506   2.692   2.495
 2202SOL    HW2 6620   2.368   2.609   2.466
 2203SOL     OW 6621   3.639   2.204   3.504
 2203SOL    HW1 6622   3.622   2.235   3.410
 2203SOL    HW2 6623   3.555   2.167   3.542
 2204SOL     OW 6624   3.592   2.796   3.379
 2204SOL    HW1 6625   3.630   2.887   3.394
 2204SOL    HW2 6626   3.584   2.779   3.280
 2205SOL     OW 6627   2.721   3.236   1.878
 2205SOL    HW1 6628   2.675   3.251   1.966
 2205SOL    HW2 6629   2.765   3.321   1.848
 2206SOL     OW 6630   2.523   3.652   2.815
 2206SOL    HW1 6631   2.477   3.740   2.802
 2206SOL    HW2 6632   2.622   3.664   2.808
 2207SOL     OW 6633   2.721   2.818   2.723
 2207SOL    HW1 6634   2.775   2.749   2.771
 2207SOL    HW2 6635   2.689   2.887   2.789
 2208SOL     OW 6636   2.945   2.846   1.949
 2208SOL    HW1 6637   2.922   2.899   1.867
 2208SOL    HW2 6638   3.026   2.790   1.930
 2209SOL     OW 6639   3.723   3.431   2.713
 2209SOL    HW1 6640   3.652   3.419   2.643
 2209SOL    HW2 6641   3.724   3.352   2.773
 2210SOL     OW 6642   2.083   3.176   3.706
 2210SOL    HW1 6643   2.018   3.103   3.685
 2210SOL    HW2 6644   2.087   3.190   3.804
 2211SOL     OW 6645   1.941   3.102   2.515
 2211SOL    HW1 6646   1.940   3.055   2.603
 2211SOL    HW2 6647   2.023   3.074   2.464
 2212SOL     OW 6648   2.534   3.253   3.486
 2212SOL    HW1 6649   2.456   3.203   3.524
 2212SOL    HW2 6650   2.531   3.348   3.517
 2213SOL     OW 6651   3.686   2.054   3.089
 2213SOL    HW1 6652   3.682   1.964   3.133
 2213SOL    HW2 6653   3.689   2.043   2.990
 2214SOL     OW 6654   3.567   3.349   2.966
 2214SOL    HW1 6655   3.474   3.324   2.939
 2214SOL    HW2 6656   3.593   3.299   3.048
 2215SOL     OW 6657   2.179   2.409   3.142
 2215SOL    HW1 6658   2.217   2.350   3.214
 2215SOL    HW2 6659   2.219   2.383   3.054
 2216SOL     OW 6660   2.674   3.448   2.549
 2216SOL    HW1 6661   2.706   3.458   2.455
 2216SOL    HW2 6662   2.595   3.386   2.551
 2217SOL     OW 6663   3.286   2.076   2.974
 2217SOL    HW1 6664   3.338   2.011   3.029
 2217SOL    HW2 6665   3.237   2.139   3.035
 2218SOL     OW 6666   2.863   1.896   3.016
 2218SOL    HW1 6667   2.800   1.824   2.985
 2218SOL    HW2 6668   2.956   1.860   3.016
 2219SOL     OW 6669   2.632   3.192   2.163
 2219SOL    HW1 6670   2.586   3.105   2.180
 2219SOL    HW2 6671   2.723   3.189   2.204
 2220SOL     OW 6672   2.480   3.429   3.146
 2220SOL    HW1 6673   2.475   3.511   3.203
 2220SOL    HW2 6674   2.569   3.426   3.101
 2221SOL     OW 6675   3.214   1.914   2.030
 2221SOL    HW1 6676   3.249   1.873   1.946
 2221SOL    HW2 6677   3.124   1.876   2.050
 2222SOL     OW 6678   3.162   2.315   2.553
 2222SOL    HW1 6679   3.103   2.395   2.557
 2222SOL    HW2 6680   3.177   2.280   2.646
 2223SOL     OW 6681   3.455   2.083   2.744
 2223SOL    HW1 6682   3.371   2.082   2.798
 2223SOL    HW2 6683   3.457   2.166   2.688
 2224SOL     OW 6684   1.901   2.939   2.162
 2224SOL    HW1 6685   2.000   2.928   2.153
 2224SOL    HW2 6686   1.861   2.853   2.194
 2225SOL     OW 6687   2.737   3.508   2.199
 2225SOL    HW1 6688   2.660   3.473   2.145
 2225SOL    HW2 6689   2.705   3.579   2.261
 2226SOL     OW 6690   2.092   2.490   3.837
 2226SOL    HW1 6691   1.999   2.488   3.874
 2226SOL    HW2 6692   2.093   2.451   3.745
 2227SOL     OW 6693   1.881   2.230   4.371
 2227SOL    HW1 6694   1.799   2.273   4.410
 2227SOL    HW2 6695   1.853   2.157   4.308
 2228SOL     OW 6696   3.417   3.373   4.427
 2228SOL    HW1 6697   3.360   3.357   4.508
 2228SOL    HW2 6698   3.358   3.383   4.347
 2229SOL     OW 6699   2.997   2.565   4.441
 2229SOL    HW1 6700   3.054   2.643   4.416
 2229SOL    HW2 6701   2.937   2.591   4.517
 2230SOL     OW 6702   3.617   2.469   3.955
 2230SOL    HW1 6703   3.605   2.456   3.856
 2230SOL    HW2 6704   3.587   2.388   4.004
 2231SOL     OW 6705   2.547   2.874   4.389
 2231SOL    HW1 6706   2.616   2.858   4.459
 2231SOL    HW2 6707   2.474   2.931   4.427
 2232SOL     OW 6708   3.465   2.309   4.461
 2232SOL    HW1 6709   3.391   2.355   4.411
 2232SOL    HW2 6710   3.516   2.377   4.514
 2233SOL     OW 6711   2.093   3.575   4.207
 2233SOL    HW1 6712   2.127   3.652   4.261
 2233SOL    HW2 6713   2.137   3.575   4.117
 2234SOL     OW 6714   2.092   3.296   4.262
 2234SOL    HW1 6715   2.066   3.392   4.262
 2234SOL    HW2 6716   2.021   3.242   4.307
 2235SOL     OW 6717   2.102   2.953   4.610
 2235SOL    HW1 6718   2.116   2.869   4.662
 2235SOL    HW2 6719   2.047   3.017   4.665
 2236SOL     OW 6720   2.468   2.826   3.847
 2236SOL    HW1 6721   2.475   2.910   3.793
 2236SOL    HW2 6722   2.514   2.839   3.935
 2237SOL     OW 6723   1.984   2.505   4.287
 2237SOL    HW1 6724   1.939   2.417   4.304
 2237SOL    HW2 6725   1.983   2.559   4.371
 2238SOL     OW 6726   3.704   3.629   4.083
 2238SOL    HW1 6727   3.758   3.600   4.163
 2238SOL    HW2 6728   3.734   3.719   4.054
 2239SOL     OW 6729   1.889   3.458   3.841
 2239SOL    HW1 6730   1.870   3.362   3.862
 2239SOL    HW2 6731   1.856   3.516   3.916
 2240SOL     OW 6732   3.551   2.784   4.336
 2240SOL    HW1 6733   3.646   2.755   4.344
 2240SOL    HW2 6734   3.543   2.849   4.261
 2241SOL     OW 6735   3.503   2.970   4.156
 2241SOL    HW1 6736   3.589   2.972   4.104
 2241SOL    HW2 6737   3.517   3.017   4.244
 2242SOL     OW 6738   2.475   3.227   4.450
 2242SOL    HW1 6739   2.426   3.140   4.459
 2242SOL    HW2 6740   2.452   3.270   4.363
 2243SOL     OW 6741   2.671   1.866   4.226
 2243SOL    HW1 6742   2.711   1.957   4.217
 2243SOL    HW2 6743   2.571   1.874   4.232
 2244SOL     OW 6744   3.387   2.861   3.914
 2244SOL    HW1 6745   3.324   2.785   3.927
 2244SOL    HW2 6746   3.435   2.879   4.000
 2245SOL     OW 6747   3.529   3.576   4.296
 2245SOL    HW1 6748   3.488   3.553   4.208
 2245SOL    HW2 6749   3.511   3.502   4.361
 2246SOL     OW 6750   2.460   2.591   3.994
 2246SOL    HW1 6751   2.484   2.660   3.926
 2246SOL    HW2 6752   2.382   2.624   4.048
 2247SOL     OW 6753   3.143   2.207   4.668
 2247SOL    HW1 6754   3.057   2.157   4.655
 2247SOL    HW2 6755   3.205   2.153   4.724
 2248SOL     OW 6756   3.438   3.524   4.031
 2248SOL    HW1 6757   3.527   3.570   4.034
 2248SOL    HW2 6758   3.417   3.500   3.936
 2249SOL     OW 6759   2.903   2.563   4.153
 2249SOL    HW1 6760   2.929   2.559   4.249
 2249SOL    HW2 6761   2.818   2.512   4.139
 2250SOL     OW 6762   1.938   2.673   4.513
 2250SOL    HW1 6763   2.037   2.661   4.522
 2250SOL    HW2 6764   1.914   2.768   4.534
 2251SOL     OW 6765   2.727   2.210   3.919
 2251SOL    HW1 6766   2.786   2.273   3.870
 2251SOL    HW2 6767   2.746   2.116   3.890
 2252SOL     OW 6768   3.224   3.006   4.269
 2252SOL    HW1 6769   3.307   2.977   4.221
 2252SOL    HW2 6770   3.175   3.073   4.213
 2253SOL     OW 6771   2.870   3.318   4.201
 2253SOL    HW1 6772   2.824   3.390   4.149
 2253SOL    HW2 6773   2.866   3.338   4.299
 2254SOL     OW 6774   2.213   3.663   4.577
 2254SOL    HW1 6775   2.263   3.577   4.583
 2254SOL    HW2 6776   2.278   3.740   4.574
 2255SOL     OW 6777   3.657   2.928   4.597
 2255SOL    HW1 6778   3.595   2.913   4.521
 2255SOL    HW2 6779   3.605   2.939   4.682
 2256SOL     OW 6780   2.183   2.805   3.966
 2256SOL    HW1 6781   2.265   2.844   3.924
 2256SOL    HW2 6782   2.156   2.723   3.917
 2257SOL     OW 6783   3.320   2.597   4.452
 2257SOL    HW1 6784   3.315   2.532   4.527
 2257SOL    HW2 6785   3.400   2.656   4.465
 2258SOL     OW 6786   2.973   3.638   3.961
 2258SOL    HW1 6787   2.913   3.576   4.011
 2258SOL    HW2 6788   3.004   3.594   3.876
 2259SOL     OW 6789   3.494   3.239   3.805
 2259SOL    HW1 6790   3.462   3.333   3.795
 2259SOL    HW2 6791   3.418   3.176   3.793
 2260SOL     OW 6792   2.326   3.605   4.047
 2260SOL    HW1 6793   2.359   3.644   4.133
 2260SOL    HW2 6794   2.402   3.598   3.982
 2261SOL     OW 6795   3.262   1.969   4.150
 2261SOL    HW1 6796   3.238   1.932   4.060
 2261SOL    HW2 6797   3.361   1.985   4.154
 2262SOL     OW 6798   2.802   3.560   4.628
 2262SOL    HW1 6799   2.882   3.503   4.649
 2262SOL    HW2 6800   2.753   3.520   4.551
 2263SOL     OW 6801   2.244   2.562   4.204
 2263SOL    HW1 6802   2.289   2.472   4.201
 2263SOL    HW2 6803   2.150   2.551   4.237
 2264SOL     OW 6804   2.476   1.984   3.841
 2264SOL    HW1 6805   2.574   1.962   3.848
 2264SOL    HW2 6806   2.445   1.967   3.748
 2265SOL     OW 6807   2.401   1.926   4.236
 2265SOL    HW1 6808   2.320   1.927   4.294
 2265SOL    HW2 6809   2.404   2.009   4.181
 2266SOL     OW 6810   3.296   3.050   3.765
 2266SOL    HW1 6811   3.328   2.974   3.822
 2266SOL    HW2 6812   3.204   3.077   3.795
 2267SOL     OW 6813   2.159   1.897   3.895
 2267SOL    HW1 6814   2.208   1.981   3.874
 2267SOL    HW2 6815   2.221   1.832   3.940
 2268SOL     OW 6816   2.797   2.098   4.204
 2268SOL    HW1 6817   2.749   2.139   4.126
 2268SOL    HW2 6818   2.896   2.096   4.185
 2269SOL     OW 6819   2.321   3.014   4.465
 2269SOL    HW1 6820   2.250   2.987   4.530
 2269SOL    HW2 6821   2.295   2.986   4.372
 2270SOL     OW 6822   3.133   3.659   4.315
 2270SOL    HW1 6823   3.177   3.723   4.251
 2270SOL    HW2 6824   3.083   3.711   4.385
 2271SOL     OW 6825   2.894   2.411   3.740
 2271SOL    HW1 6826   2.853   2.493   3.701
 2271SOL    HW2 6827   2.958   2.437   3.813
 2272SOL     OW 6828   2.728   2.316   4.366
 2272SOL    HW1 6829   2.696   2.388   4.304
 2272SOL    HW2 6830   2.752   2.235   4.313
 2273SOL     OW 6831   2.879   1.901   4.477
 2273SOL    HW1 6832   2.807   1.906   4.408
 2273SOL    HW2 6833   2.855   1.832   4.546
 2274SOL     OW 6834   3.719   2.695   4.101
 2274SOL    HW1 6835   3.761   2.631   4.165
 2274SOL    HW2 6836   3.681   2.644   4.023
 2275SOL     OW 6837   2.350   3.247   3.898
 2275SOL    HW1 6838   2.263   3.232   3.945
 2275SOL    HW2 6839   2.333   3.273   3.803
 2276SOL     OW 6840   3.526   3.142   4.381
 2276SOL    HW1 6841   3.625   3.150   4.395
 2276SOL    HW2 6842   3.481   3.226   4.412
 2277SOL     OW 6843   3.252   2.437   3.802
 2277SOL    HW1 6844   3.198   2.416   3.883
 2277SOL    HW2 6845   3.343   2.396   3.811
 2278SOL     OW 6846   2.389   2.118   4.052
 2278SOL    HW1 6847   2.416   2.059   3.977
 2278SOL    HW2 6848   2.389   2.213   4.021
 2279SOL     OW 6849   2.567   2.912   4.092
 2279SOL    HW1 6850   2.553   2.919   4.191
 2279SOL    HW2 6851   2.651   2.861   4.074
 2280SOL     OW 6852   2.229   2.962   4.225
 2280SOL    HW1 6853   2.222   3.045   4.169
 2280SOL    HW2 6854   2.233   2.882   4.165
 2281SOL     OW 6855   2.428   2.399   4.589
 2281SOL    HW1 6856   2.440   2.465   4.515
 2281SOL    HW2 6857   2.474   2.433   4.672
 2282SOL     OW 6858   3.114   3.210   4.112
 2282SOL    HW1 6859   3.164   3.287   4.152
 2282SOL    HW2 6860   3.019   3.212   4.144
 2283SOL     OW 6861   3.444   2.501   4.196
 2283SOL    HW1 6862   3.413   2.562   4.269
 2283SOL    HW2 6863   3.494   2.553   4.127
 2284SOL     OW 6864   3.071   2.387   3.999
 2284SOL    HW1 6865   3.084   2.303   4.053
 2284SOL    HW2 6866   3.042   2.461   4.059
 2285SOL     OW 6867   2.169   1.925   4.342
 2285SOL    HW1 6868   2.158   2.019   4.375
 2285SOL    HW2 6869   2.164   1.862   4.419
 2286SOL     OW 6870   3.484   2.229   4.098
 2286SOL    HW1 6871   3.486   2.153   4.162
 2286SOL    HW2 6872   3.436   2.306   4.138
 2287SOL     OW 6873   3.402   2.136   3.849
 2287SOL    HW1 6874   3.341   2.061   3.872
 2287SOL    HW2 6875   3.424   2.188   3.932
 2288SOL     OW 6876   3.165   2.700   3.766
 2288SOL    HW1 6877   3.199   2.607   3.781
 2288SOL    HW2 6878   3.183   2.727   3.671
 2289SOL     OW 6879   1.870   3.188   3.924
 2289SOL    HW1 6880   1.777   3.209   3.893
 2289SOL    HW2 6881   1.880   3.089   3.937
 2290SOL     OW 6882   2.677   2.434   4.049
 2290SOL    HW1 6883   2.684   2.345   4.003
 2290SOL    HW2 6884   2.583   2.468   4.041
 2291SOL     OW 6885   2.335   2.362   3.915
 2291SOL    HW1 6886   2.396   2.442   3.919
 2291SOL    HW2 6887   2.240   2.393   3.922
 2292SOL     OW 6888   3.164   2.717   4.033
 2292SOL    HW1 6889   3.078   2.686   4.075
 2292SOL    HW2 6890   3.160   2.703   3.934
 2293SOL     OW 6891   3.588   1.997   4.247
 2293SOL    HW1 6892   3.661   1.980   4.180
 2293SOL    HW2 6893   3.557   1.910   4.285
 2294SOL     OW 6894   3.250   3.435   4.201
 2294SOL    HW1 6895   3.317   3.447   4.127
 2294SOL    HW2 6896   3.210   3.524   4.224
 2295SOL     OW 6897   3.142   2.789   4.396
 2295SOL    HW1 6898   3.202   2.708   4.398
 2295SOL    HW2 6899   3.182   2.858   4.336
 2296SOL     OW 6900   2.534   3.478   3.878
 2296SOL    HW1 6901   2.543   3.488   3.779
 2296SOL    HW2 6902   2.494   3.389   3.899
 2297SOL     OW 6903   3.703   2.037   4.687
 2297SOL    HW1 6904   3.742   1.952   4.651
 2297SOL    HW2 6905   3.605   2.039   4.668
 2298SOL     OW 6906   2.125   2.188   4.444
 2298SOL    HW1 6907   2.046   2.239   4.410
 2298SOL    HW2 6908   2.116   2.173   4.542
 2299SOL     OW 6909   3.056   3.474   3.755
 2299SOL    HW1 6910   3.062   3.381   3.792
 2299SOL    HW2 6911   2.997   3.474   3.675
 2300SOL     OW 6912   2.778   2.772   4.015
 2300SOL    HW1 6913   2.841   2.810   3.947
 2300SOL    HW2 6914   2.818   2.689   4.054
 2301SOL     OW 6915   3.366   3.469   3.768
 2301SOL    HW1 6916   3.274   3.506   3.775
 2301SOL    HW2 6917   3.404   3.489   3.678
 2302SOL     OW 6918   2.901   2.960   4.420
 2302SOL    HW1 6919   2.831   2.913   4.474
 2302SOL    HW2 6920   2.960   2.892   4.377
 2303SOL     OW 6921   2.452   3.349   4.215
 2303SOL    HW1 6922   2.494   3.291   4.145
 2303SOL    HW2 6923   2.408   3.428   4.171
 2304SOL     OW 6924   2.117   3.210   4.014
 2304SOL    HW1 6925   2.021   3.211   3.987
 2304SOL    HW2 6926   2.129   3.263   4.098
 2305SOL     OW 6927   1.937   2.207   3.757
 2305SOL    HW1 6928   1.845   2.179   3.728
 2305SOL    HW2 6929   1.968   2.284   3.701
 2306SOL     OW 6930   1.934   2.028   4.042
 2306SOL    HW1 6931   1.917   2.111   3.988
 2306SOL    HW2 6932   2.024   1.991   4.020
 2307SOL     OW 6933   3.045   3.197   3.843
 2307SOL    HW1 6934   2.946   3.186   3.845
 2307SOL    HW2 6935   3.079   3.212   3.936
 2308SOL     OW 6936   3.087   2.187   4.173
 2308SOL    HW1 6937   3.152   2.113   4.162
 2308SOL    HW2 6938   3.107   2.237   4.257
 2309SOL     OW 6939   2.456   2.607   4.376
 2309SOL    HW1 6940   2.506   2.692   4.357
 2309SOL    HW2 6941   2.368   2.609   4.328
 2310SOL     OW 6942   2.721   3.236   3.740
 2310SOL    HW1 6943   2.675   3.251   3.828
 2310SOL    HW2 6944   2.765   3.321   3.710
 2311SOL     OW 6945   2.523   3.652   4.677
 2311SOL    HW1 6946   2.477   3.740   4.664
 2311SOL    HW2 6947   2.622   3.664   4.670
 2312SOL     OW 6948   2.721   2.818   4.585
 2312SOL    HW1 6949   2.775   2.749   4.633
 2312SOL    HW2 6950   2.689   2.887   4.651
 2313SOL     OW 6951   2.945   2.846   3.811
 2313SOL    HW1 6952   2.922   2.899   3.729
 2313SOL    HW2 6953   3.026   2.790   3.792
 2314SOL     OW 6954   1.941   3.102   4.377
 2314SOL    HW1 6955   1.940   3.055   4.465
 2314SOL    HW2 6956   2.023   3.074   4.326
 2315SOL     OW 6957   2.290   2.286   4.244
 2315SOL    HW1 6958   2.320   2.214   4.182
 2315SOL    HW2 6959   2.251   2.246   4.327
 2316SOL     OW 6960   2.674   3.448   4.411
 2316SOL    HW1 6961   2.706   3.458   4.317
 2316SOL    HW2 6962   2.595   3.386   4.413
 2317SOL     OW 6963   2.632   3.192   4.025
 2317SOL    HW1 6964   2.586   3.105   4.042
 2317SOL    HW2 6965   2.723   3.189   4.066
 2318SOL     OW 6966   3.214   1.914   3.892
 2318SOL    HW1 6967   3.249   1.873   3.808
 2318SOL    HW2 6968   3.124   1.876   3.912
 2319SOL     OW 6969   3.162   2.315   4.415
 2319SOL    HW1 6970   3.103   2.395   4.419
 2319SOL    HW2 6971   3.177   2.280   4.508
 2320SOL     OW 6972   1.901   2.939   4.024
 2320SOL    HW1 6973   2.000   2.928   4.015
 2320SOL    HW2 6974   1.861   2.853   4.056
 2321SOL     OW 6975   2.737   3.508   4.061
 2321SOL    HW1 6976   2.660   3.473   4.007
 2321SOL    HW2 6977   2.705   3.579   4.123
 2322SOL     OW 6978   2.092   4.352   0.113
 2322SOL    HW1 6979   1.999   4.350   0.150
 2322SOL    HW2 6980   2.093   4.313   0.021
 2323SOL     OW 6981   2.087   3.999   0.996
 2323SOL    HW1 6982   2.122   3.982   1.088
 2323SOL    HW2 6983   1.999   3.954   0.984
 2324SOL     OW 6984   1.881   4.092   0.647
 2324SOL    HW1 6985   1.799   4.135   0.686
 2324SOL    HW2 6986   1.853   4.019   0.584
 2325SOL     OW 6987   2.997   4.427   0.717
 2325SOL    HW1 6988   3.054   4.505   0.692
 2325SOL    HW2 6989   2.937   4.453   0.793
 2326SOL     OW 6990   3.617   4.331   0.231
 2326SOL    HW1 6991   3.605   4.318   0.132
 2326SOL    HW2 6992   3.587   4.250   0.280
 2327SOL     OW 6993   2.712   4.522   1.823
 2327SOL    HW1 6994   2.708   4.598   1.888
 2327SOL    HW2 6995   2.734   4.558   1.732
 2328SOL     OW 6996   2.547   4.736   0.665
 2328SOL    HW1 6997   2.616   4.720   0.735
 2328SOL    HW2 6998   2.474   4.793   0.703
 2329SOL     OW 6999   2.300   4.116   1.499
 2329SOL    HW1 7000   2.382   4.060   1.508
 2329SOL    HW2 7001   2.219   4.058   1.503
 2330SOL     OW 7002   3.465   4.171   0.737
 2330SOL    HW1 7003   3.391   4.217   0.687
 2330SOL    HW2 7004   3.516   4.239   0.790
 2331SOL     OW 7005   3.456   3.838   1.480
 2331SOL    HW1 7006   3.438   3.905   1.408
 2331SOL    HW2 7007   3.453   3.884   1.569
 2332SOL     OW 7008   1.984   4.367   0.563
 2332SOL    HW1 7009   1.939   4.279   0.580
 2332SOL    HW2 7010   1.983   4.421   0.647
 2333SOL     OW 7011   1.975   4.461   1.597
 2333SOL    HW1 7012   2.063   4.448   1.642
 2333SOL    HW2 7013   1.962   4.558   1.575
 2334SOL     OW 7014   2.671   3.728   0.502
 2334SOL    HW1 7015   2.711   3.819   0.493
 2334SOL    HW2 7016   2.571   3.736   0.508
 2335SOL     OW 7017   2.179   3.975   1.801
 2335SOL    HW1 7018   2.250   4.046   1.807
 2335SOL    HW2 7019   2.091   4.014   1.829
 2336SOL     OW 7020   2.460   4.453   0.270
 2336SOL    HW1 7021   2.484   4.522   0.202
 2336SOL    HW2 7022   2.382   4.486   0.324
 2337SOL     OW 7023   3.143   4.069   0.944
 2337SOL    HW1 7024   3.057   4.019   0.931
 2337SOL    HW2 7025   3.205   4.015   1.000
 2338SOL     OW 7026   2.669   4.329   1.465
 2338SOL    HW1 7027   2.622   4.326   1.554
 2338SOL    HW2 7028   2.618   4.274   1.399
 2339SOL     OW 7029   3.256   4.193   1.674
 2339SOL    HW1 7030   3.236   4.236   1.762
 2339SOL    HW2 7031   3.334   4.131   1.683
 2340SOL     OW 7032   2.853   4.134   1.242
 2340SOL    HW1 7033   2.776   4.168   1.296
 2340SOL    HW2 7034   2.819   4.083   1.163
 2341SOL     OW 7035   2.903   4.425   0.429
 2341SOL    HW1 7036   2.929   4.421   0.525
 2341SOL    HW2 7037   2.818   4.374   0.415
 2342SOL     OW 7038   2.727   4.072   0.195
 2342SOL    HW1 7039   2.786   4.135   0.146
 2342SOL    HW2 7040   2.746   3.978   0.166
 2343SOL     OW 7041   3.581   4.309   1.831
 2343SOL    HW1 7042   3.555   4.398   1.795
 2343SOL    HW2 7043   3.579   4.241   1.758
 2344SOL     OW 7044   2.412   3.920   0.885
 2344SOL    HW1 7045   2.407   3.915   0.985
 2344SOL    HW2 7046   2.414   4.016   0.856
 2345SOL     OW 7047   3.320   4.459   0.728
 2345SOL    HW1 7048   3.315   4.394   0.803
 2345SOL    HW2 7049   3.400   4.518   0.741
 2346SOL     OW 7050   2.064   4.009   1.498
 2346SOL    HW1 7051   1.984   4.069   1.485
 2346SOL    HW2 7052   2.054   3.960   1.584
 2347SOL     OW 7053   3.262   3.831   0.426
 2347SOL    HW1 7054   3.238   3.794   0.336
 2347SOL    HW2 7055   3.361   3.847   0.430
 2348SOL     OW 7056   2.244   4.424   0.480
 2348SOL    HW1 7057   2.289   4.334   0.477
 2348SOL    HW2 7058   2.150   4.413   0.513
 2349SOL     OW 7059   3.409   3.946   1.729
 2349SOL    HW1 7060   3.404   3.983   1.821
 2349SOL    HW2 7061   3.337   3.877   1.717
 2350SOL     OW 7062   2.643   3.988   1.749
 2350SOL    HW1 7063   2.710   3.927   1.792
 2350SOL    HW2 7064   2.570   4.007   1.814
 2351SOL     OW 7065   3.213   4.314   1.433
 2351SOL    HW1 7066   3.241   4.271   1.518
 2351SOL    HW2 7067   3.238   4.410   1.434
 2352SOL     OW 7068   2.784   4.227   0.899
 2352SOL    HW1 7069   2.759   4.218   0.803
 2352SOL    HW2 7070   2.832   4.145   0.930
 2353SOL     OW 7071   2.401   3.788   0.512
 2353SOL    HW1 7072   2.320   3.789   0.570
 2353SOL    HW2 7073   2.404   3.871   0.457
 2354SOL     OW 7074   2.159   3.759   0.171
 2354SOL    HW1 7075   2.208   3.843   0.150
 2354SOL    HW2 7076   2.221   3.694   0.216
 2355SOL     OW 7077   2.797   3.960   0.480
 2355SOL    HW1 7078   2.749   4.001   0.402
 2355SOL    HW2 7079   2.896   3.958   0.461
 2356SOL     OW 7080   2.938   4.407   1.464
 2356SOL    HW1 7081   2.858   4.346   1.467
 2356SOL    HW2 7082   3.019   4.354   1.440
 2357SOL     OW 7083   2.894   4.273   0.016
 2357SOL    HW1 7084   2.853   4.355  -0.023
 2357SOL    HW2 7085   2.958   4.299   0.089
 2358SOL     OW 7086   1.940   4.280   1.386
 2358SOL    HW1 7087   2.032   4.279   1.345
 2358SOL    HW2 7088   1.934   4.354   1.453
 2359SOL     OW 7089   2.423   3.946   1.147
 2359SOL    HW1 7090   2.461   3.862   1.184
 2359SOL    HW2 7091   2.335   3.965   1.191
 2360SOL     OW 7092   2.728   4.178   0.642
 2360SOL    HW1 7093   2.696   4.250   0.580
 2360SOL    HW2 7094   2.752   4.097   0.589
 2361SOL     OW 7095   2.879   3.763   0.753
 2361SOL    HW1 7096   2.807   3.768   0.684
 2361SOL    HW2 7097   2.855   3.694   0.822
 2362SOL     OW 7098   3.328   4.314   0.992
 2362SOL    HW1 7099   3.298   4.219   0.999
 2362SOL    HW2 7100   3.401   4.330   1.058
 2363SOL     OW 7101   3.719   4.557   0.377
 2363SOL    HW1 7102   3.761   4.493   0.441
 2363SOL    HW2 7103   3.681   4.506   0.299
 2364SOL     OW 7104   3.252   4.299   0.078
 2364SOL    HW1 7105   3.198   4.278   0.159
 2364SOL    HW2 7106   3.343   4.258   0.087
 2365SOL     OW 7107   2.389   3.980   0.328
 2365SOL    HW1 7108   2.416   3.921   0.253
 2365SOL    HW2 7109   2.389   4.075   0.297
 2366SOL     OW 7110   2.777   3.813   1.402
 2366SOL    HW1 7111   2.802   3.793   1.307
 2366SOL    HW2 7112   2.849   3.869   1.444
 2367SOL     OW 7113   2.567   4.774   0.368
 2367SOL    HW1 7114   2.553   4.781   0.467
 2367SOL    HW2 7115   2.651   4.723   0.350
 2368SOL     OW 7116   2.272   4.537   1.251
 2368SOL    HW1 7117   2.358   4.549   1.301
 2368SOL    HW2 7118   2.230   4.450   1.278
 2369SOL     OW 7119   3.136   4.110   1.262
 2369SOL    HW1 7120   3.157   4.184   1.326
 2369SOL    HW2 7121   3.047   4.127   1.219
 2370SOL     OW 7122   2.428   4.261   0.865
 2370SOL    HW1 7123   2.440   4.327   0.791
 2370SOL    HW2 7124   2.474   4.295   0.948
 2371SOL     OW 7125   3.444   4.363   0.472
 2371SOL    HW1 7126   3.413   4.424   0.545
 2371SOL    HW2 7127   3.494   4.415   0.403
 2372SOL     OW 7128   3.449   4.503   1.670
 2372SOL    HW1 7129   3.357   4.541   1.665
 2372SOL    HW2 7130   3.509   4.550   1.605
 2373SOL     OW 7131   2.875   3.829   1.770
 2373SOL    HW1 7132   2.881   3.914   1.718
 2373SOL    HW2 7133   2.907   3.753   1.713
 2374SOL     OW 7134   2.366   3.774   1.740
 2374SOL    HW1 7135   2.324   3.717   1.670
 2374SOL    HW2 7136   2.300   3.843   1.772
 2375SOL     OW 7137   3.222   4.586   1.045
 2375SOL    HW1 7138   3.147   4.586   0.979
 2375SOL    HW2 7139   3.259   4.494   1.054
 2376SOL     OW 7140   3.071   4.249   0.275
 2376SOL    HW1 7141   3.084   4.165   0.329
 2376SOL    HW2 7142   3.042   4.323   0.335
 2377SOL     OW 7143   2.169   3.937   1.231
 2377SOL    HW1 7144   2.146   3.974   1.321
 2377SOL    HW2 7145   2.139   3.842   1.225
 2378SOL     OW 7146   2.594   4.358   1.064
 2378SOL    HW1 7147   2.653   4.332   0.988
 2378SOL    HW2 7148   2.566   4.454   1.053
 2379SOL     OW 7149   3.590   4.659   1.854
 2379SOL    HW1 7150   3.544   4.652   1.765
 2379SOL    HW2 7151   3.528   4.703   1.920
 2380SOL     OW 7152   2.169   3.787   0.618
 2380SOL    HW1 7153   2.158   3.881   0.651
 2380SOL    HW2 7154   2.164   3.724   0.695
 2381SOL     OW 7155   3.484   4.091   0.374
 2381SOL    HW1 7156   3.486   4.015   0.438
 2381SOL    HW2 7157   3.436   4.168   0.414
 2382SOL     OW 7158   3.402   3.998   0.125
 2382SOL    HW1 7159   3.341   3.923   0.148
 2382SOL    HW2 7160   3.424   4.050   0.208
 2383SOL     OW 7161   2.181   4.534   0.949
 2383SOL    HW1 7162   2.274   4.570   0.954
 2383SOL    HW2 7163   2.175   4.449   1.001
 2384SOL     OW 7164   2.201   4.233   1.006
 2384SOL    HW1 7165   2.149   4.150   0.989
 2384SOL    HW2 7166   2.278   4.238   0.942
 2385SOL     OW 7167   3.000   4.104   1.678
 2385SOL    HW1 7168   2.955   4.167   1.742
 2385SOL    HW2 7169   3.093   4.135   1.661
 2386SOL     OW 7170   3.022   3.931   1.477
 2386SOL    HW1 7171   3.022   3.995   1.554
 2386SOL    HW2 7172   3.050   3.979   1.394
 2387SOL     OW 7173   1.902   4.268   1.114
 2387SOL    HW1 7174   1.987   4.235   1.073
 2387SOL    HW2 7175   1.915   4.283   1.212
 2388SOL     OW 7176   2.051   4.244   1.722
 2388SOL    HW1 7177   2.110   4.204   1.652
 2388SOL    HW2 7178   1.993   4.315   1.681
 2389SOL     OW 7179   2.677   4.296   0.325
 2389SOL    HW1 7180   2.684   4.207   0.279
 2389SOL    HW2 7181   2.583   4.330   0.317
 2390SOL     OW 7182   3.519   4.328   1.206
 2390SOL    HW1 7183   3.481   4.259   1.268
 2390SOL    HW2 7184   3.601   4.292   1.162
 2391SOL     OW 7185   2.533   4.188   1.269
 2391SOL    HW1 7186   2.499   4.099   1.239
 2391SOL    HW2 7187   2.559   4.242   1.189
 2392SOL     OW 7188   2.335   4.224   0.191
 2392SOL    HW1 7189   2.396   4.304   0.195
 2392SOL    HW2 7190   2.240   4.255   0.198
 2393SOL     OW 7191   2.765   3.810   0.133
 2393SOL    HW1 7192   2.816   3.811   0.047
 2393SOL    HW2 7193   2.821   3.768   0.204
 2394SOL     OW 7194   3.588   3.859   0.523
 2394SOL    HW1 7195   3.661   3.842   0.456
 2394SOL    HW2 7196   3.557   3.772   0.561
 2395SOL     OW 7197   3.142   4.651   0.672
 2395SOL    HW1 7198   3.202   4.570   0.674
 2395SOL    HW2 7199   3.182   4.720   0.612
 2396SOL     OW 7200   3.703   3.899   0.963
 2396SOL    HW1 7201   3.742   3.814   0.927
 2396SOL    HW2 7202   3.605   3.901   0.944
 2397SOL     OW 7203   2.125   4.050   0.720
 2397SOL    HW1 7204   2.046   4.101   0.686
 2397SOL    HW2 7205   2.116   4.035   0.818
 2398SOL     OW 7206   2.876   3.960   0.971
 2398SOL    HW1 7207   2.868   3.924   0.878
 2398SOL    HW2 7208   2.874   3.884   1.036
 2399SOL     OW 7209   3.571   4.109   1.381
 2399SOL    HW1 7210   3.644   4.178   1.385
 2399SOL    HW2 7211   3.599   4.034   1.322
 2400SOL     OW 7212   1.967   4.737   1.726
 2400SOL    HW1 7213   1.890   4.704   1.780
 2400SOL    HW2 7214   2.052   4.707   1.768
 2401SOL     OW 7215   2.534   3.927   1.489
 2401SOL    HW1 7216   2.624   3.911   1.449
 2401SOL    HW2 7217   2.542   3.932   1.588
 2402SOL     OW 7218   1.937   4.069   0.033
 2402SOL    HW1 7219   1.845   4.041   0.004
 2402SOL    HW2 7220   1.968   4.146  -0.023
 2403SOL     OW 7221   3.302   4.580   1.398
 2403SOL    HW1 7222   3.245   4.632   1.335
 2403SOL    HW2 7223   3.398   4.592   1.374
 2404SOL     OW 7224   1.934   3.890   0.318
 2404SOL    HW1 7225   1.917   3.973   0.264
 2404SOL    HW2 7226   2.024   3.853   0.296
 2405SOL     OW 7227   2.475   4.566   1.431
 2405SOL    HW1 7228   2.531   4.647   1.414
 2405SOL    HW2 7229   2.534   4.486   1.434
 2406SOL     OW 7230   2.578   4.289   1.708
 2406SOL    HW1 7231   2.597   4.354   1.782
 2406SOL    HW2 7232   2.638   4.209   1.717
 2407SOL     OW 7233   3.536   4.607   1.254
 2407SOL    HW1 7234   3.509   4.518   1.217
 2407SOL    HW2 7235   3.537   4.675   1.181
 2408SOL     OW 7236   3.087   4.049   0.449
 2408SOL    HW1 7237   3.152   3.975   0.438
 2408SOL    HW2 7238   3.107   4.099   0.533
 2409SOL     OW 7239   2.456   4.469   0.652
 2409SOL    HW1 7240   2.506   4.554   0.633
 2409SOL    HW2 7241   2.368   4.471   0.604
 2410SOL     OW 7242   3.639   4.066   1.642
 2410SOL    HW1 7243   3.622   4.097   1.548
 2410SOL    HW2 7244   3.555   4.029   1.680
 2411SOL     OW 7245   3.686   3.916   1.227
 2411SOL    HW1 7246   3.682   3.826   1.271
 2411SOL    HW2 7247   3.689   3.905   1.128
 2412SOL     OW 7248   2.290   4.148   0.520
 2412SOL    HW1 7249   2.320   4.076   0.458
 2412SOL    HW2 7250   2.251   4.108   0.603
 2413SOL     OW 7251   2.179   4.271   1.280
 2413SOL    HW1 7252   2.217   4.212   1.352
 2413SOL    HW2 7253   2.219   4.245   1.192
 2414SOL     OW 7254   3.286   3.938   1.112
 2414SOL    HW1 7255   3.338   3.873   1.167
 2414SOL    HW2 7256   3.237   4.001   1.173
 2415SOL     OW 7257   2.863   3.758   1.154
 2415SOL    HW1 7258   2.800   3.686   1.123
 2415SOL    HW2 7259   2.956   3.722   1.154
 2416SOL     OW 7260   3.214   3.776   0.168
 2416SOL    HW1 7261   3.249   3.735   0.084
 2416SOL    HW2 7262   3.124   3.738   0.188
 2417SOL     OW 7263   3.162   4.177   0.691
 2417SOL    HW1 7264   3.103   4.257   0.695
 2417SOL    HW2 7265   3.177   4.142   0.784
 2418SOL     OW 7266   3.455   3.945   0.882
 2418SOL    HW1 7267   3.371   3.944   0.936
 2418SOL    HW2 7268   3.457   4.028   0.826
 2419SOL     OW 7269   2.092   4.352   1.975
 2419SOL    HW1 7270   1.999   4.350   2.012
 2419SOL    HW2 7271   2.093   4.313   1.883
 2420SOL     OW 7272   2.087   3.999   2.858
 2420SOL    HW1 7273   2.122   3.982   2.950
 2420SOL    HW2 7274   1.999   3.954   2.846
 2421SOL     OW 7275   1.881   4.092   2.509
 2421SOL    HW1 7276   1.799   4.135   2.548
 2421SOL    HW2 7277   1.853   4.019   2.446
 2422SOL     OW 7278   2.997   4.427   2.579
 2422SOL    HW1 7279   3.054   4.505   2.554
 2422SOL    HW2 7280   2.937   4.453   2.655
 2423SOL     OW 7281   3.617   4.331   2.093
 2423SOL    HW1 7282   3.605   4.318   1.994
 2423SOL    HW2 7283   3.587   4.250   2.142
 2424SOL     OW 7284   2.712   4.522   3.685
 2424SOL    HW1 7285   2.708   4.598   3.750
 2424SOL    HW2 7286   2.734   4.558   3.594
 2425SOL     OW 7287   2.547   4.736   2.527
 2425SOL    HW1 7288   2.616   4.720   2.597
 2425SOL    HW2 7289   2.474   4.793   2.565
 2426SOL     OW 7290   2.300   4.116   3.361
 2426SOL    HW1 7291   2.382   4.060   3.370
 2426SOL    HW2 7292   2.219   4.058   3.365
 2427SOL     OW 7293   3.465   4.171   2.599
 2427SOL    HW1 7294   3.391   4.217   2.549
 2427SOL    HW2 7295   3.516   4.239   2.652
 2428SOL     OW 7296   3.456   3.838   3.342
 2428SOL    HW1 7297   3.438   3.905   3.270
 2428SOL    HW2 7298   3.453   3.884   3.431
 2429SOL     OW 7299   1.984   4.367   2.425
 2429SOL    HW1 7300   1.939   4.279   2.442
 2429SOL    HW2 7301   1.983   4.421   2.509
 2430SOL     OW 7302   1.975   4.461   3.459
 2430SOL    HW1 7303   2.063   4.448   3.504
 2430SOL    HW2 7304   1.962   4.558   3.437
 2431SOL     OW 7305   2.671   3.728   2.364
 2431SOL    HW1 7306   2.711   3.819   2.355
 2431SOL    HW2 7307   2.571   3.736   2.370
 2432SOL     OW 7308   2.179   3.975   3.663
 2432SOL    HW1 7309   2.250   4.046   3.669
 2432SOL    HW2 7310   2.091   4.014   3.691
 2433SOL     OW 7311   2.460   4.453   2.132
 2433SOL    HW1 7312   2.484   4.522   2.064
 2433SOL    HW2 7313   2.382   4.486   2.186
 2434SOL     OW 7314   3.143   4.069   2.806
 2434SOL    HW1 7315   3.057   4.019   2.793
 2434SOL    HW2 7316   3.205   4.015   2.862
 2435SOL     OW 7317   2.669   4.329   3.327
 2435SOL    HW1 7318   2.622   4.326   3.416
 2435SOL    HW2 7319   2.618   4.274   3.261
 2436SOL     OW 7320   3.256   4.193   3.536
 2436SOL    HW1 7321   3.236   4.236   3.624
 2436SOL    HW2 7322   3.334   4.131   3.545
 2437SOL     OW 7323   2.853   4.134   3.104
 2437SOL    HW1 7324   2.776   4.168   3.158
 2437SOL    HW2 7325   2.819   4.083   3.025
 2438SOL     OW 7326   2.903   4.425   2.291
 2438SOL    HW1 7327   2.929   4.421   2.387
 2438SOL    HW2 7328   2.818   4.374   2.277
 2439SOL     OW 7329   2.727   4.072   2.057
 2439SOL    HW1 7330   2.786   4.135   2.008
 2439SOL    HW2 7331   2.746   3.978   2.028
 2440SOL     OW 7332   3.581   4.309   3.693
 2440SOL    HW1 7333   3.555   4.398   3.657
 2440SOL    HW2 7334   3.579   4.241   3.620
 2441SOL     OW 7335   2.412   3.920   2.747
 2441SOL    HW1 7336   2.407   3.915   2.847
 2441SOL    HW2 7337   2.414   4.016   2.718
 2442SOL     OW 7338   3.320   4.459   2.590
 2442SOL    HW1 7339   3.315   4.394   2.665
 2442SOL    HW2 7340   3.400   4.518   2.603
 2443SOL     OW 7341   2.064   4.009   3.360
 2443SOL    HW1 7342   1.984   4.069   3.347
 2443SOL    HW2 7343   2.054   3.960   3.446
 2444SOL     OW 7344   3.262   3.831   2.288
 2444SOL    HW1 7345   3.238   3.794   2.198
 2444SOL    HW2 7346   3.361   3.847   2.292
 2445SOL     OW 7347   2.244   4.424   2.342
 2445SOL    HW1 7348   2.289   4.334   2.339
 2445SOL    HW2 7349   2.150   4.413   2.375
 2446SOL     OW 7350   3.409   3.946   3.591
 2446SOL    HW1 7351   3.404   3.983   3.683
 2446SOL    HW2 7352   3.337   3.877   3.579
 2447SOL     OW 7353   2.476   3.846   1.979
 2447SOL    HW1 7354   2.574   3.824   1.986
 2447SOL    HW2 7355   2.445   3.829   1.886
 2448SOL     OW 7356   2.643   3.988   3.611
 2448SOL    HW1 7357   2.710   3.927   3.654
 2448SOL    HW2 7358   2.570   4.007   3.676
 2449SOL     OW 7359   3.213   4.314   3.295
 2449SOL    HW1 7360   3.241   4.271   3.380
 2449SOL    HW2 7361   3.238   4.410   3.296
 2450SOL     OW 7362   2.784   4.227   2.761
 2450SOL    HW1 7363   2.759   4.218   2.665
 2450SOL    HW2 7364   2.832   4.145   2.792
 2451SOL     OW 7365   2.401   3.788   2.374
 2451SOL    HW1 7366   2.320   3.789   2.432
 2451SOL    HW2 7367   2.404   3.871   2.319
 2452SOL     OW 7368   2.159   3.759   2.033
 2452SOL    HW1 7369   2.208   3.843   2.012
 2452SOL    HW2 7370   2.221   3.694   2.078
 2453SOL     OW 7371   2.797   3.960   2.342
 2453SOL    HW1 7372   2.749   4.001   2.264
 2453SOL    HW2 7373   2.896   3.958   2.323
 2454SOL     OW 7374   2.938   4.407   3.326
 2454SOL    HW1 7375   2.858   4.346   3.329
 2454SOL    HW2 7376   3.019   4.354   3.302
 2455SOL     OW 7377   2.894   4.273   1.878
 2455SOL    HW1 7378   2.853   4.355   1.839
 2455SOL    HW2 7379   2.958   4.299   1.951
 2456SOL     OW 7380   1.940   4.280   3.248
 2456SOL    HW1 7381   2.032   4.279   3.207
 2456SOL    HW2 7382   1.934   4.354   3.315
 2457SOL     OW 7383   2.423   3.946   3.009
 2457SOL    HW1 7384   2.461   3.862   3.046
 2457SOL    HW2 7385   2.335   3.965   3.053
 2458SOL     OW 7386   2.728   4.178   2.504
 2458SOL    HW1 7387   2.696   4.250   2.442
 2458SOL    HW2 7388   2.752   4.097   2.451
 2459SOL     OW 7389   2.879   3.763   2.615
 2459SOL    HW1 7390   2.807   3.768   2.546
 2459SOL    HW2 7391   2.855   3.694   2.684
 2460SOL     OW 7392   3.328   4.314   2.854
 2460SOL    HW1 7393   3.298   4.219   2.861
 2460SOL    HW2 7394   3.401   4.330   2.920
 2461SOL     OW 7395   3.719   4.557   2.239
 2461SOL    HW1 7396   3.761   4.493   2.303
 2461SOL    HW2 7397   3.681   4.506   2.161
 2462SOL     OW 7398   3.252   4.299   1.940
 2462SOL    HW1 7399   3.198   4.278   2.021
 2462SOL    HW2 7400   3.343   4.258   1.949
 2463SOL     OW 7401   2.389   3.980   2.190
 2463SOL    HW1 7402   2.416   3.921   2.115
 2463SOL    HW2 7403   2.389   4.075   2.159
 2464SOL     OW 7404   2.777   3.813   3.264
 2464SOL    HW1 7405   2.802   3.793   3.169
 2464SOL    HW2 7406   2.849   3.869   3.306
 2465SOL     OW 7407   2.567   4.774   2.230
 2465SOL    HW1 7408   2.553   4.781   2.329
 2465SOL    HW2 7409   2.651   4.723   2.212
 2466SOL     OW 7410   2.272   4.537   3.113
 2466SOL    HW1 7411   2.358   4.549   3.163
 2466SOL    HW2 7412   2.230   4.450   3.140
 2467SOL     OW 7413   3.136   4.110   3.124
 2467SOL    HW1 7414   3.157   4.184   3.188
 2467SOL    HW2 7415   3.047   4.127   3.081
 2468SOL     OW 7416   2.428   4.261   2.727
 2468SOL    HW1 7417   2.440   4.327   2.653
 2468SOL    HW2 7418   2.474   4.295   2.810
 2469SOL     OW 7419   3.444   4.363   2.334
 2469SOL    HW1 7420   3.413   4.424   2.407
 2469SOL    HW2 7421   3.494   4.415   2.265
 2470SOL     OW 7422   3.449   4.503   3.532
 2470SOL    HW1 7423   3.357   4.541   3.527
 2470SOL    HW2 7424   3.509   4.550   3.467
 2471SOL     OW 7425   2.875   3.829   3.632
 2471SOL    HW1 7426   2.881   3.914   3.580
 2471SOL    HW2 7427   2.907   3.753   3.575
 2472SOL     OW 7428   2.366   3.774   3.602
 2472SOL    HW1 7429   2.324   3.717   3.532
 2472SOL    HW2 7430   2.300   3.843   3.634
 2473SOL     OW 7431   3.222   4.586   2.907
 2473SOL    HW1 7432   3.147   4.586   2.841
 2473SOL    HW2 7433   3.259   4.494   2.916
 2474SOL     OW 7434   3.071   4.249   2.137
 2474SOL    HW1 7435   3.084   4.165   2.191
 2474SOL    HW2 7436   3.042   4.323   2.197
 2475SOL     OW 7437   2.169   3.937   3.093
 2475SOL    HW1 7438   2.146   3.974   3.183
 2475SOL    HW2 7439   2.139   3.842   3.087
 2476SOL     OW 7440   2.594   4.358   2.926
 2476SOL    HW1 7441   2.653   4.332   2.850
 2476SOL    HW2 7442   2.566   4.454   2.915
 2477SOL     OW 7443   3.590   4.659   3.716
 2477SOL    HW1 7444   3.544   4.652   3.627
 2477SOL    HW2 7445   3.528   4.703   3.782
 2478SOL     OW 7446   2.169   3.787   2.480
 2478SOL    HW1 7447   2.158   3.881   2.513
 2478SOL    HW2 7448   2.164   3.724   2.557
 2479SOL     OW 7449   3.484   4.091   2.236
 2479SOL    HW1 7450   3.486   4.015   2.300
 2479SOL    HW2 7451   3.436   4.168   2.276
 2480SOL     OW 7452   3.402   3.998   1.987
 2480SOL    HW1 7453   3.341   3.923   2.010
 2480SOL    HW2 7454   3.424   4.050   2.070
 2481SOL     OW 7455   2.181   4.534   2.811
 2481SOL    HW1 7456   2.274   4.570   2.816
 2481SOL    HW2 7457   2.175   4.449   2.863
 2482SOL     OW 7458   2.201   4.233   2.868
 2482SOL    HW1 7459   2.149   4.150   2.851
 2482SOL    HW2 7460   2.278   4.238   2.804
 2483SOL     OW 7461   3.000   4.104   3.540
 2483SOL    HW1 7462   2.955   4.167   3.604
 2483SOL    HW2 7463   3.093   4.135   3.523
 2484SOL     OW 7464   3.022   3.931   3.339
 2484SOL    HW1 7465   3.022   3.995   3.416
 2484SOL    HW2 7466   3.050   3.979   3.256
 2485SOL     OW 7467   1.902   4.268   2.976
 2485SOL    HW1 7468   1.987   4.235   2.935
 2485SOL    HW2 7469   1.915   4.283   3.074
 2486SOL     OW 7470   2.051   4.244   3.584
 2486SOL    HW1 7471   2.110   4.204   3.514
 2486SOL    HW2 7472   1.993   4.315   3.543
 2487SOL     OW 7473   2.677   4.296   2.187
 2487SOL    HW1 7474   2.684   4.207   2.141
 2487SOL    HW2 7475   2.583   4.330   2.179
 2488SOL     OW 7476   3.519   4.328   3.068
 2488SOL    HW1 7477   3.481   4.259   3.130
 2488SOL    HW2 7478   3.601   4.292   3.024
 2489SOL     OW 7479   2.533   4.188   3.131
 2489SOL    HW1 7480   2.499   4.099   3.101
 2489SOL    HW2 7481   2.559   4.242   3.051
 2490SOL     OW 7482   2.335   4.224   2.053
 2490SOL    HW1 7483   2.396   4.304   2.057
 2490SOL    HW2 7484   2.240   4.255   2.060
 2491SOL     OW 7485   3.588   3.859   2.385
 2491SOL    HW1 7486   3.661   3.842   2.318
 2491SOL    HW2 7487   3.557   3.772   2.423
 2492SOL     OW 7488   3.142   4.651   2.534
 2492SOL    HW1 7489   3.202   4.570   2.536
 2492SOL    HW2 7490   3.182   4.720   2.474
 2493SOL     OW 7491   3.703   3.899   2.825
 2493SOL    HW1 7492   3.742   3.814   2.789
 2493SOL    HW2 7493   3.605   3.901   2.806
 2494SOL     OW 7494   2.125   4.050   2.582
 2494SOL    HW1 7495   2.046   4.101   2.548
 2494SOL    HW2 7496   2.116   4.035   2.680
 2495SOL     OW 7497   2.778   4.634   2.153
 2495SOL    HW1 7498   2.841   4.672   2.085
 2495SOL    HW2 7499   2.818   4.551   2.192
 2496SOL     OW 7500   2.876   3.960   2.833
 2496SOL    HW1 7501   2.868   3.924   2.740
 2496SOL    HW2 7502   2.874   3.884   2.898
 2497SOL     OW 7503   3.571   4.109   3.243
 2497SOL    HW1 7504   3.644   4.178   3.247
 2497SOL    HW2 7505   3.599   4.034   3.184
 2498SOL     OW 7506   1.967   4.737   3.588
 2498SOL    HW1 7507   1.890   4.704   3.642
 2498SOL    HW2 7508   2.052   4.707   3.630
 2499SOL     OW 7509   2.534   3.927   3.351
 2499SOL    HW1 7510   2.624   3.911   3.311
 2499SOL    HW2 7511   2.542   3.932   3.450
 2500SOL     OW 7512   1.937   4.069   1.895
 2500SOL    HW1 7513   1.845   4.041   1.866
 2500SOL    HW2 7514   1.968   4.146   1.839
 2501SOL     OW 7515   3.302   4.580   3.260
 2501SOL    HW1 7516   3.245   4.632   3.197
 2501SOL    HW2 7517   3.398   4.592   3.236
 2502SOL     OW 7518   1.934   3.890   2.180
 2502SOL    HW1 7519   1.917   3.973   2.126
 2502SOL    HW2 7520   2.024   3.853   2.158
 2503SOL     OW 7521   2.475   4.566   3.293
 2503SOL    HW1 7522   2.531   4.647   3.276
 2503SOL    HW2 7523   2.534   4.486   3.296
 2504SOL     OW 7524   2.578   4.289   3.570
 2504SOL    HW1 7525   2.597   4.354   3.644
 2504SOL    HW2 7526   2.638   4.209   3.579
 2505SOL     OW 7527   3.536   4.607   3.116
 2505SOL    HW1 7528   3.509   4.518   3.079
 2505SOL    HW2 7529   3.537   4.675   3.043
 2506SOL     OW 7530   3.087   4.049   2.311
 2506SOL    HW1 7531   3.152   3.975   2.300
 2506SOL    HW2 7532   3.107   4.099   2.395
 2507SOL     OW 7533   2.456   4.469   2.514
 2507SOL    HW1 7534   2.506   4.554   2.495
 2507SOL    HW2 7535   2.368   4.471   2.466
 2508SOL     OW 7536   3.639   4.066   3.504
 2508SOL    HW1 7537   3.622   4.097   3.410
 2508SOL    HW2 7538   3.555   4.029   3.542
 2509SOL     OW 7539   3.686   3.916   3.089
 2509SOL    HW1 7540   3.682   3.826   3.133
 2509SOL    HW2 7541   3.689   3.905   2.990
 2510SOL     OW 7542   2.290   4.148   2.382
 2510SOL    HW1 7543   2.320   4.076   2.320
 2510SOL    HW2 7544   2.251   4.108   2.465
 2511SOL     OW 7545   2.179   4.271   3.142
 2511SOL    HW1 7546   2.217   4.212   3.214
 2511SOL    HW2 7547   2.219   4.245   3.054
 2512SOL     OW 7548   3.286   3.938   2.974
 2512SOL    HW1 7549   3.338   3.873   3.029
 2512SOL    HW2 7550   3.237   4.001   3.035
 2513SOL     OW 7551   2.863   3.758   3.016
 2513SOL    HW1 7552   2.800   3.686   2.985
 2513SOL    HW2 7553   2.956   3.722   3.016
 2514SOL     OW 7554   3.214   3.776   2.030
 2514SOL    HW1 7555   3.249   3.735   1.946
 2514SOL    HW2 7556   3.124   3.738   2.050
 2515SOL     OW 7557   3.162   4.177   2.553
 2515SOL    HW1 7558   3.103   4.257   2.557
 2515SOL    HW2 7559   3.177   4.142   2.646
 2516SOL     OW 7560   3.455   3.945   2.744
 2516SOL    HW1 7561   3.371   3.944   2.798
 2516SOL    HW2 7562   3.457   4.028   2.688
 2517SOL     OW 7563   2.092   4.352   3.837
 2517SOL    HW1 7564   1.999   4.350   3.874
 2517SOL    HW2 7565   2.093   4.313   3.745
 2518SOL     OW 7566   1.881   4.092   4.371
 2518SOL    HW1 7567   1.799   4.135   4.410
 2518SOL    HW2 7568   1.853   4.019   4.308
 2519SOL     OW 7569   2.997   4.427   4.441
 2519SOL    HW1 7570   3.054   4.505   4.416
 2519SOL    HW2 7571   2.937   4.453   4.517
 2520SOL     OW 7572   3.617   4.331   3.955
 2520SOL    HW1 7573   3.605   4.318   3.856
 2520SOL    HW2 7574   3.587   4.250   4.004
 2521SOL     OW 7575   2.547   4.736   4.389
 2521SOL    HW1 7576   2.616   4.720   4.459
 2521SOL    HW2 7577   2.474   4.793   4.427
 2522SOL     OW 7578   3.465   4.171   4.461
 2522SOL    HW1 7579   3.391   4.217   4.411
 2522SOL    HW2 7580   3.516   4.239   4.514
 2523SOL     OW 7581   1.984   4.367   4.287
 2523SOL    HW1 7582   1.939   4.279   4.304
 2523SOL    HW2 7583   1.983   4.421   4.371
 2524SOL     OW 7584   2.671   3.728   4.226
 2524SOL    HW1 7585   2.711   3.819   4.217
 2524SOL    HW2 7586   2.571   3.736   4.232
 2525SOL     OW 7587   2.460   4.453   3.994
 2525SOL    HW1 7588   2.484   4.522   3.926
 2525SOL    HW2 7589   2.382   4.486   4.048
 2526SOL     OW 7590   3.143   4.069   4.668
 2526SOL    HW1 7591   3.057   4.019   4.655
 2526SOL    HW2 7592   3.205   4.015   4.724
 2527SOL     OW 7593   2.903   4.425   4.153
 2527SOL    HW1 7594   2.929   4.421   4.249
 2527SOL    HW2 7595   2.818   4.374   4.139
 2528SOL     OW 7596   2.727   4.072   3.919
 2528SOL    HW1 7597   2.786   4.135   3.870
 2528SOL    HW2 7598   2.746   3.978   3.890
 2529SOL     OW 7599   3.320   4.459   4.452
 2529SOL    HW1 7600   3.315   4.394   4.527
 2529SOL    HW2 7601   3.400   4.518   4.465
 2530SOL     OW 7602   3.262   3.831   4.150
 2530SOL    HW1 7603   3.238   3.794   4.060
 2530SOL    HW2 7604   3.361   3.847   4.154
 2531SOL     OW 7605   2.244   4.424   4.204
 2531SOL    HW1 7606   2.289   4.334   4.201
 2531SOL    HW2 7607   2.150   4.413   4.237
 2532SOL     OW 7608   2.476   3.846   3.841
 2532SOL    HW1 7609   2.574   3.824   3.848
 2532SOL    HW2 7610   2.445   3.829   3.748
 2533SOL     OW 7611   2.401   3.788   4.236
 2533SOL    HW1 7612   2.320   3.789   4.294
 2533SOL    HW2 7613   2.404   3.871   4.181
 2534SOL     OW 7614   2.159   3.759   3.895
 2534SOL    HW1 7615   2.208   3.843   3.874
 2534SOL    HW2 7616   2.221   3.694   3.940
 2535SOL     OW 7617   2.797   3.960   4.204
 2535SOL    HW1 7618   2.749   4.001   4.126
 2535SOL    HW2 7619   2.896   3.958   4.185
 2536SOL     OW 7620   2.321   4.876   4.465
 2536SOL    HW1 7621   2.250   4.849   4.530
 2536SOL    HW2 7622   2.295   4.848   4.372
 2537SOL     OW 7623   2.894   4.273   3.740
 2537SOL    HW1 7624   2.853   4.355   3.701
 2537SOL    HW2 7625   2.958   4.299   3.813
 2538SOL     OW 7626   2.728   4.178   4.366
 2538SOL    HW1 7627   2.696   4.250   4.304
 2538SOL    HW2 7628   2.752   4.097   4.313
 2539SOL     OW 7629   2.879   3.763   4.477
 2539SOL    HW1 7630   2.807   3.768   4.408
 2539SOL    HW2 7631   2.855   3.694   4.546
 2540SOL     OW 7632   3.719   4.557   4.101
 2540SOL    HW1 7633   3.761   4.493   4.165
 2540SOL    HW2 7634   3.681   4.506   4.023
 2541SOL     OW 7635   3.252   4.299   3.802
 2541SOL    HW1 7636   3.198   4.278   3.883
 2541SOL    HW2 7637   3.343   4.258   3.811
 2542SOL     OW 7638   2.389   3.980   4.052
 2542SOL    HW1 7639   2.416   3.921   3.977
 2542SOL    HW2 7640   2.389   4.075   4.021
 2543SOL     OW 7641   2.567   4.774   4.092
 2543SOL    HW1 7642   2.553   4.781   4.191
 2543SOL    HW2 7643   2.651   4.723   4.074
 2544SOL     OW 7644   2.428   4.261   4.589
 2544SOL    HW1 7645   2.440   4.327   4.515
 2544SOL    HW2 7646   2.474   4.295   4.672
 2545SOL     OW 7647   3.444   4.363   4.196
 2545SOL    HW1 7648   3.413   4.424   4.269
 2545SOL    HW2 7649   3.494   4.415   4.127
 2546SOL     OW 7650   3.071   4.249   3.999
 2546SOL    HW1 7651   3.084   4.165   4.053
 2546SOL    HW2 7652   3.042   4.323   4.059
 2547SOL     OW 7653   2.169   3.787   4.342
 2547SOL    HW1 7654   2.158   3.881   4.375
 2547SOL    HW2 7655   2.164   3.724   4.419
 2548SOL     OW 7656   3.484   4.091   4.098
 2548SOL    HW1 7657   3.486   4.015   4.162
 2548SOL    HW2 7658   3.436   4.168   4.138
 2549SOL     OW 7659   3.402   3.998   3.849
 2549SOL    HW1 7660   3.341   3.923   3.872
 2549SOL    HW2 7661   3.424   4.050   3.932
 2550SOL     OW 7662   2.677   4.296   4.049
 2550SOL    HW1 7663   2.684   4.207   4.003
 2550SOL    HW2 7664   2.583   4.330   4.041
 2551SOL     OW 7665   2.335   4.224   3.915
 2551SOL    HW1 7666   2.396   4.304   3.919
 2551SOL    HW2 7667   2.240   4.255   3.922
 2552SOL     OW 7668   3.588   3.859   4.247
 2552SOL    HW1 7669   3.661   3.842   4.180
 2552SOL    HW2 7670   3.557   3.772   4.285
 2553SOL     OW 7671   3.142   4.651   4.396
 2553SOL    HW1 7672   3.202   4.570   4.398
 2553SOL    HW2 7673   3.182   4.720   4.336
 2554SOL     OW 7674   3.703   3.899   4.687
 2554SOL    HW1 7675   3.742   3.814   4.651
 2554SOL    HW2 7676   3.605   3.901   4.668
 2555SOL     OW 7677   2.125   4.050   4.444
 2555SOL    HW1 7678   2.046   4.101   4.410
 2555SOL    HW2 7679   2.116   4.035   4.542
 2556SOL     OW 7680   2.778   4.634   4.015
 2556SOL    HW1 7681   2.841   4.672   3.947
 2556SOL    HW2 7682   2.818   4.551   4.054
 2557SOL     OW 7683   1.937   4.069   3.757
 2557SOL    HW1 7684   1.845   4.041   3.728
 2557SOL    HW2 7685   1.968   4.146   3.701
 2558SOL     OW 7686   1.934   3.890   4.042
 2558SOL    HW1 7687   1.917   3.973   3.988
 2558SOL    HW2 7688   2.024   3.853   4.020
 2559SOL     OW 7689   3.087   4.049   4.173
 2559SOL    HW1 7690   3.152   3.975   4.162
 2559SOL    HW2 7691   3.107   4.099   4.257
 2560SOL     OW 7692   2.456   4.469   4.376
 2560SOL    HW1 7693   2.506   4.554   4.357
 2560SOL    HW2 7694   2.368   4.471   4.328
 2561SOL     OW 7695   2.290   4.148   4.244
 2561SOL    HW1 7696   2.320   4.076   4.182
 2561SOL    HW2 7697   2.251   4.108   4.327
 2562SOL     OW 7698   3.214   3.776   3.892
 2562SOL    HW1 7699   3.249   3.735   3.808
 2562SOL    HW2 7700   3.124   3.738   3.912
 2563SOL     OW 7701   3.162   4.177   4.415
 2563SOL    HW1 7702   3.103   4.257   4.419
 2563SOL    HW2 7703   3.177   4.142   4.508
 2564SOL     OW 7704   3.954   0.628   0.113
 2564SOL    HW1 7705   3.861   0.626   0.150
 2564SOL    HW2 7706   3.955   0.589   0.021
 2565SOL     OW 7707   3.949   0.275   0.996
 2565SOL    HW1 7708   3.984   0.258   1.088
 2565SOL    HW2 7709   3.861   0.230   0.984
 2566SOL     OW 7710   3.743   0.368   0.647
 2566SOL    HW1 7711   3.661   0.411   0.686
 2566SOL    HW2 7712   3.715   0.295   0.584
 2567SOL     OW 7713   4.293   1.275   1.165
 2567SOL    HW1 7714   4.200   1.268   1.128
 2567SOL    HW2 7715   4.304   1.364   1.209
 2568SOL     OW 7716   4.574   0.798   1.823
 2568SOL    HW1 7717   4.570   0.874   1.888
 2568SOL    HW2 7718   4.596   0.834   1.732
 2569SOL     OW 7719   4.409   1.012   0.665
 2569SOL    HW1 7720   4.478   0.996   0.735
 2569SOL    HW2 7721   4.336   1.069   0.703
 2570SOL     OW 7722   4.410   1.161   1.803
 2570SOL    HW1 7723   4.470   1.240   1.817
 2570SOL    HW2 7724   4.324   1.192   1.762
 2571SOL     OW 7725   4.059   1.435   1.061
 2571SOL    HW1 7726   3.981   1.404   1.008
 2571SOL    HW2 7727   4.117   1.493   1.004
 2572SOL     OW 7728   4.162   0.392   1.499
 2572SOL    HW1 7729   4.244   0.336   1.508
 2572SOL    HW2 7730   4.081   0.334   1.503
 2573SOL     OW 7731   3.955   1.713   0.483
 2573SOL    HW1 7732   3.989   1.790   0.537
 2573SOL    HW2 7733   3.999   1.713   0.393
 2574SOL     OW 7734   3.954   1.434   0.538
 2574SOL    HW1 7735   3.928   1.530   0.538
 2574SOL    HW2 7736   3.883   1.380   0.583
 2575SOL     OW 7737   3.964   1.091   0.886
 2575SOL    HW1 7738   3.978   1.007   0.938
 2575SOL    HW2 7739   3.909   1.155   0.941
 2576SOL     OW 7740   4.344   1.786   1.439
 2576SOL    HW1 7741   4.252   1.769   1.474
 2576SOL    HW2 7742   4.372   1.878   1.465
 2577SOL     OW 7743   4.330   0.964   0.123
 2577SOL    HW1 7744   4.337   1.048   0.069
 2577SOL    HW2 7745   4.376   0.977   0.211
 2578SOL     OW 7746   3.846   0.643   0.563
 2578SOL    HW1 7747   3.801   0.555   0.580
 2578SOL    HW2 7748   3.845   0.697   0.647
 2579SOL     OW 7749   3.751   1.596   0.117
 2579SOL    HW1 7750   3.732   1.500   0.138
 2579SOL    HW2 7751   3.718   1.654   0.192
 2580SOL     OW 7752   3.837   0.737   1.597
 2580SOL    HW1 7753   3.925   0.724   1.642
 2580SOL    HW2 7754   3.824   0.834   1.575
 2581SOL     OW 7755   4.337   1.365   0.726
 2581SOL    HW1 7756   4.288   1.278   0.735
 2581SOL    HW2 7757   4.314   1.408   0.639
 2582SOL     OW 7758   4.533   0.004   0.502
 2582SOL    HW1 7759   4.573   0.095   0.493
 2582SOL    HW2 7760   4.433   0.012   0.508
 2583SOL     OW 7761   3.921   0.976   1.264
 2583SOL    HW1 7762   4.010   0.931   1.250
 2583SOL    HW2 7763   3.848   0.911   1.245
 2584SOL     OW 7764   4.041   0.251   1.801
 2584SOL    HW1 7765   4.112   0.322   1.807
 2584SOL    HW2 7766   3.953   0.290   1.829
 2585SOL     OW 7767   4.322   0.729   0.270
 2585SOL    HW1 7768   4.346   0.798   0.202
 2585SOL    HW2 7769   4.244   0.762   0.324
 2586SOL     OW 7770   3.800   0.811   0.789
 2586SOL    HW1 7771   3.899   0.799   0.798
 2586SOL    HW2 7772   3.776   0.906   0.810
 2587SOL     OW 7773   3.854   1.821   1.571
 2587SOL    HW1 7774   3.844   1.806   1.670
 2587SOL    HW2 7775   3.768   1.857   1.535
 2588SOL     OW 7776   4.274   0.196   0.885
 2588SOL    HW1 7777   4.269   0.191   0.985
 2588SOL    HW2 7778   4.276   0.292   0.856
 2589SOL     OW 7779   4.075   1.801   0.853
 2589SOL    HW1 7780   4.125   1.715   0.859
 2589SOL    HW2 7781   4.140   1.878   0.850
 2590SOL     OW 7782   4.045   0.943   0.242
 2590SOL    HW1 7783   4.127   0.982   0.200
 2590SOL    HW2 7784   4.018   0.861   0.193
 2591SOL     OW 7785   4.185   1.266   1.727
 2591SOL    HW1 7786   4.135   1.267   1.641
 2591SOL    HW2 7787   4.122   1.248   1.803
 2592SOL     OW 7788   3.926   0.285   1.498
 2592SOL    HW1 7789   3.846   0.345   1.485
 2592SOL    HW2 7790   3.916   0.236   1.584
 2593SOL     OW 7791   4.188   1.743   0.323
 2593SOL    HW1 7792   4.221   1.782   0.409
 2593SOL    HW2 7793   4.264   1.736   0.258
 2594SOL     OW 7794   3.973   1.785   1.241
 2594SOL    HW1 7795   4.030   1.720   1.291
 2594SOL    HW2 7796   3.957   1.752   1.148
 2595SOL     OW 7797   4.106   0.700   0.480
 2595SOL    HW1 7798   4.151   0.610   0.477
 2595SOL    HW2 7799   4.012   0.689   0.513
 2596SOL     OW 7800   4.338   0.122   0.117
 2596SOL    HW1 7801   4.436   0.100   0.124
 2596SOL    HW2 7802   4.307   0.105   0.024
 2597SOL     OW 7803   4.527   1.402   0.924
 2597SOL    HW1 7804   4.617   1.416   0.882
 2597SOL    HW2 7805   4.456   1.404   0.853
 2598SOL     OW 7806   4.646   0.503   0.899
 2598SOL    HW1 7807   4.621   0.494   0.803
 2598SOL    HW2 7808   4.694   0.421   0.930
 2599SOL     OW 7809   4.263   0.064   0.512
 2599SOL    HW1 7810   4.182   0.065   0.570
 2599SOL    HW2 7811   4.266   0.147   0.457
 2600SOL     OW 7812   4.021   0.035   0.171
 2600SOL    HW1 7813   4.070   0.119   0.150
 2600SOL    HW2 7814   4.083  -0.030   0.216
 2601SOL     OW 7815   4.183   1.152   0.741
 2601SOL    HW1 7816   4.112   1.125   0.806
 2601SOL    HW2 7817   4.157   1.124   0.648
 2602SOL     OW 7818   3.802   0.556   1.386
 2602SOL    HW1 7819   3.894   0.555   1.345
 2602SOL    HW2 7820   3.796   0.630   1.453
 2603SOL     OW 7821   4.285   0.222   1.147
 2603SOL    HW1 7822   4.323   0.138   1.184
 2603SOL    HW2 7823   4.197   0.241   1.191
 2604SOL     OW 7824   4.212   1.385   0.174
 2604SOL    HW1 7825   4.125   1.370   0.221
 2604SOL    HW2 7826   4.195   1.411   0.079
 2605SOL     OW 7827   4.251   0.256   0.328
 2605SOL    HW1 7828   4.278   0.197   0.253
 2605SOL    HW2 7829   4.251   0.351   0.297
 2606SOL     OW 7830   4.639   0.089   1.402
 2606SOL    HW1 7831   4.664   0.069   1.307
 2606SOL    HW2 7832   4.711   0.145   1.444
 2607SOL     OW 7833   4.134   0.813   1.251
 2607SOL    HW1 7834   4.220   0.825   1.301
 2607SOL    HW2 7835   4.092   0.726   1.278
 2608SOL     OW 7836   3.788   1.564   1.331
 2608SOL    HW1 7837   3.742   1.646   1.297
 2608SOL    HW2 7838   3.886   1.583   1.340
 2609SOL     OW 7839   4.091   1.100   0.501
 2609SOL    HW1 7840   4.084   1.183   0.445
 2609SOL    HW2 7841   4.095   1.020   0.441
 2610SOL     OW 7842   4.290   0.537   0.865
 2610SOL    HW1 7843   4.302   0.603   0.791
 2610SOL    HW2 7844   4.336   0.571   0.948
 2611SOL     OW 7845   4.078   1.510   1.329
 2611SOL    HW1 7846   4.057   1.466   1.242
 2611SOL    HW2 7847   4.175   1.536   1.332
 2612SOL     OW 7848   4.126   0.751   1.598
 2612SOL    HW1 7849   4.194   0.806   1.551
 2612SOL    HW2 7850   4.166   0.663   1.625
 2613SOL     OW 7851   4.228   0.050   1.740
 2613SOL    HW1 7852   4.186  -0.007   1.670
 2613SOL    HW2 7853   4.162   0.119   1.772
 2614SOL     OW 7854   4.297   0.870   1.029
 2614SOL    HW1 7855   4.341   0.959   1.020
 2614SOL    HW2 7856   4.234   0.870   1.106
 2615SOL     OW 7857   4.031   0.213   1.231
 2615SOL    HW1 7858   4.008   0.250   1.321
 2615SOL    HW2 7859   4.001   0.118   1.225
 2616SOL     OW 7860   3.761   1.310   1.282
 2616SOL    HW1 7861   3.814   1.261   1.350
 2616SOL    HW2 7862   3.783   1.408   1.287
 2617SOL     OW 7863   4.456   0.634   1.064
 2617SOL    HW1 7864   4.515   0.608   0.988
 2617SOL    HW2 7865   4.428   0.730   1.053
 2618SOL     OW 7866   4.031   0.063   0.618
 2618SOL    HW1 7867   4.020   0.157   0.651
 2618SOL    HW2 7868   4.026   0.000   0.695
 2619SOL     OW 7869   4.074   0.898   1.804
 2619SOL    HW1 7870   4.150   0.942   1.852
 2619SOL    HW2 7871   4.109   0.851   1.722
 2620SOL     OW 7872   4.792   1.333   0.849
 2620SOL    HW1 7873   4.799   1.249   0.794
 2620SOL    HW2 7874   4.854   1.402   0.813
 2621SOL     OW 7875   4.043   0.810   0.949
 2621SOL    HW1 7876   4.136   0.846   0.954
 2621SOL    HW2 7877   4.037   0.725   1.001
 2622SOL     OW 7878   4.063   0.509   1.006
 2622SOL    HW1 7879   4.011   0.426   0.989
 2622SOL    HW2 7880   4.140   0.514   0.942
 2623SOL     OW 7881   3.732   1.326   0.200
 2623SOL    HW1 7882   3.639   1.347   0.169
 2623SOL    HW2 7883   3.742   1.227   0.213
 2624SOL     OW 7884   3.812   1.801   0.927
 2624SOL    HW1 7885   3.770   1.715   0.900
 2624SOL    HW2 7886   3.906   1.804   0.893
 2625SOL     OW 7887   4.228   1.568   0.910
 2625SOL    HW1 7888   4.294   1.642   0.919
 2625SOL    HW2 7889   4.272   1.489   0.868
 2626SOL     OW 7890   3.764   0.544   1.114
 2626SOL    HW1 7891   3.849   0.511   1.073
 2626SOL    HW2 7892   3.777   0.559   1.212
 2627SOL     OW 7893   3.913   0.520   1.722
 2627SOL    HW1 7894   3.972   0.480   1.652
 2627SOL    HW2 7895   3.855   0.591   1.681
 2628SOL     OW 7896   4.539   0.572   0.325
 2628SOL    HW1 7897   4.546   0.483   0.279
 2628SOL    HW2 7898   4.445   0.606   0.317
 2629SOL     OW 7899   3.976   1.564   1.744
 2629SOL    HW1 7900   3.946   1.621   1.820
 2629SOL    HW2 7901   3.969   1.467   1.770
 2630SOL     OW 7902   4.395   0.464   1.269
 2630SOL    HW1 7903   4.361   0.375   1.239
 2630SOL    HW2 7904   4.421   0.518   1.189
 2631SOL     OW 7905   4.197   0.500   0.191
 2631SOL    HW1 7906   4.258   0.580   0.195
 2631SOL    HW2 7907   4.102   0.531   0.198
 2632SOL     OW 7908   3.883   1.137   1.466
 2632SOL    HW1 7909   3.905   1.076   1.542
 2632SOL    HW2 7910   3.893   1.088   1.380
 2633SOL     OW 7911   3.807   1.258   1.022
 2633SOL    HW1 7912   3.802   1.257   1.122
 2633SOL    HW2 7913   3.724   1.217   0.984
 2634SOL     OW 7914   4.412   1.662   1.716
 2634SOL    HW1 7915   4.356   1.743   1.725
 2634SOL    HW2 7916   4.464   1.666   1.630
 2635SOL     OW 7917   3.854   1.794   1.851
 2635SOL    HW1 7918   3.813   1.720   1.904
 2635SOL    HW2 7919   3.918   1.845   1.909
 2636SOL     OW 7920   4.396   1.616   0.154
 2636SOL    HW1 7921   4.405   1.626   0.055
 2636SOL    HW2 7922   4.356   1.527   0.175
 2637SOL     OW 7923   3.987   0.326   0.720
 2637SOL    HW1 7924   3.908   0.377   0.686
 2637SOL    HW2 7925   3.978   0.311   0.818
 2638SOL     OW 7926   4.546   1.002   1.372
 2638SOL    HW1 7927   4.586   1.001   1.280
 2638SOL    HW2 7928   4.556   1.094   1.412
 2639SOL     OW 7929   4.096   1.288   1.490
 2639SOL    HW1 7930   4.083   1.381   1.456
 2639SOL    HW2 7931   4.012   1.236   1.477
 2640SOL     OW 7932   4.314   1.487   0.491
 2640SOL    HW1 7933   4.356   1.429   0.421
 2640SOL    HW2 7934   4.270   1.566   0.447
 2641SOL     OW 7935   3.979   1.348   0.290
 2641SOL    HW1 7936   3.883   1.349   0.263
 2641SOL    HW2 7937   3.991   1.401   0.374
 2642SOL     OW 7938   3.829   1.013   1.726
 2642SOL    HW1 7939   3.752   0.980   1.780
 2642SOL    HW2 7940   3.914   0.983   1.768
 2643SOL     OW 7941   4.396   0.203   1.489
 2643SOL    HW1 7942   4.486   0.187   1.449
 2643SOL    HW2 7943   4.404   0.208   1.588
 2644SOL     OW 7944   3.799   0.345   0.033
 2644SOL    HW1 7945   3.707   0.317   0.004
 2644SOL    HW2 7946   3.830   0.422  -0.023
 2645SOL     OW 7947   3.796   0.166   0.318
 2645SOL    HW1 7948   3.779   0.249   0.264
 2645SOL    HW2 7949   3.886   0.129   0.296
 2646SOL     OW 7950   4.337   0.842   1.431
 2646SOL    HW1 7951   4.393   0.923   1.414
 2646SOL    HW2 7952   4.396   0.762   1.434
 2647SOL     OW 7953   4.440   0.565   1.708
 2647SOL    HW1 7954   4.459   0.630   1.782
 2647SOL    HW2 7955   4.500   0.485   1.717
 2648SOL     OW 7956   4.114   1.741   1.560
 2648SOL    HW1 7957   4.023   1.782   1.558
 2648SOL    HW2 7958   4.107   1.647   1.592
 2649SOL     OW 7959   4.318   0.745   0.652
 2649SOL    HW1 7960   4.368   0.830   0.633
 2649SOL    HW2 7961   4.230   0.747   0.604
 2650SOL     OW 7962   4.385   1.790   0.953
 2650SOL    HW1 7963   4.339   1.878   0.940
 2650SOL    HW2 7964   4.484   1.802   0.946
 2651SOL     OW 7965   3.945   1.314   1.844
 2651SOL    HW1 7966   3.880   1.241   1.823
 2651SOL    HW2 7967   3.949   1.328   1.942
 2652SOL     OW 7968   3.803   1.240   0.653
 2652SOL    HW1 7969   3.802   1.193   0.741
 2652SOL    HW2 7970   3.885   1.212   0.602
 2653SOL     OW 7971   4.396   1.391   1.624
 2653SOL    HW1 7972   4.318   1.341   1.662
 2653SOL    HW2 7973   4.393   1.486   1.655
 2654SOL     OW 7974   4.152   0.424   0.520
 2654SOL    HW1 7975   4.182   0.352   0.458
 2654SOL    HW2 7976   4.113   0.384   0.603
 2655SOL     OW 7977   4.041   0.547   1.280
 2655SOL    HW1 7978   4.079   0.488   1.352
 2655SOL    HW2 7979   4.081   0.521   1.192
 2656SOL     OW 7980   4.536   1.586   0.687
 2656SOL    HW1 7981   4.568   1.596   0.593
 2656SOL    HW2 7982   4.457   1.524   0.689
 2657SOL     OW 7983   4.725   0.034   1.154
 2657SOL    HW1 7984   4.662  -0.038   1.123
 2657SOL    HW2 7985   4.818  -0.002   1.154
 2658SOL     OW 7986   4.342   1.567   1.284
 2658SOL    HW1 7987   4.337   1.649   1.341
 2658SOL    HW2 7988   4.431   1.564   1.239
 2659SOL     OW 7989   3.763   1.077   0.300
 2659SOL    HW1 7990   3.862   1.066   0.291
 2659SOL    HW2 7991   3.723   0.991   0.332
 2660SOL     OW 7992   3.954   0.628   1.975
 2660SOL    HW1 7993   3.861   0.626   2.012
 2660SOL    HW2 7994   3.955   0.589   1.883
 2661SOL     OW 7995   3.949   0.275   2.858
 2661SOL    HW1 7996   3.984   0.258   2.950
 2661SOL    HW2 7997   3.861   0.230   2.846
 2662SOL     OW 7998   3.743   0.368   2.509
 2662SOL    HW1 7999   3.661   0.411   2.548
 2662SOL    HW2 8000   3.715   0.295   2.446
 2663SOL     OW 8001   4.293   1.275   3.027
 2663SOL    HW1 8002   4.200   1.268   2.990
 2663SOL    HW2 8003   4.304   1.364   3.071
 2664SOL     OW 8004   4.574   0.798   3.685
 2664SOL    HW1 8005   4.570   0.874   3.750
 2664SOL    HW2 8006   4.596   0.834   3.594
 2665SOL     OW 8007   4.409   1.012   2.527
 2665SOL    HW1 8008   4.478   0.996   2.597
 2665SOL    HW2 8009   4.336   1.069   2.565
 2666SOL     OW 8010   4.410   1.161   3.665
 2666SOL    HW1 8011   4.470   1.240   3.679
 2666SOL    HW2 8012   4.324   1.192   3.624
 2667SOL     OW 8013   4.059   1.435   2.923
 2667SOL    HW1 8014   3.981   1.404   2.870
 2667SOL    HW2 8015   4.117   1.493   2.866
 2668SOL     OW 8016   4.162   0.392   3.361
 2668SOL    HW1 8017   4.244   0.336   3.370
 2668SOL    HW2 8018   4.081   0.334   3.365
 2669SOL     OW 8019   3.955   1.713   2.345
 2669SOL    HW1 8020   3.989   1.790   2.399
 2669SOL    HW2 8021   3.999   1.713   2.255
 2670SOL     OW 8022   3.954   1.434   2.400
 2670SOL    HW1 8023   3.928   1.530   2.400
 2670SOL    HW2 8024   3.883   1.380   2.445
 2671SOL     OW 8025   3.964   1.091   2.748
 2671SOL    HW1 8026   3.978   1.007   2.800
 2671SOL    HW2 8027   3.909   1.155   2.803
 2672SOL     OW 8028   4.344   1.786   3.301
 2672SOL    HW1 8029   4.252   1.769   3.336
 2672SOL    HW2 8030   4.372   1.878   3.327
 2673SOL     OW 8031   4.330   0.964   1.985
 2673SOL    HW1 8032   4.337   1.048   1.931
 2673SOL    HW2 8033   4.376   0.977   2.073
 2674SOL     OW 8034   3.846   0.643   2.425
 2674SOL    HW1 8035   3.801   0.555   2.442
 2674SOL    HW2 8036   3.845   0.697   2.509
 2675SOL     OW 8037   3.751   1.596   1.979
 2675SOL    HW1 8038   3.732   1.500   2.000
 2675SOL    HW2 8039   3.718   1.654   2.054
 2676SOL     OW 8040   3.837   0.737   3.459
 2676SOL    HW1 8041   3.925   0.724   3.504
 2676SOL    HW2 8042   3.824   0.834   3.437
 2677SOL     OW 8043   4.337   1.365   2.588
 2677SOL    HW1 8044   4.288   1.278   2.597
 2677SOL    HW2 8045   4.314   1.408   2.501
 2678SOL     OW 8046   4.533   0.004   2.364
 2678SOL    HW1 8047   4.573   0.095   2.355
 2678SOL    HW2 8048   4.433   0.012   2.370
 2679SOL     OW 8049   3.921   0.976   3.126
 2679SOL    HW1 8050   4.010   0.931   3.112
 2679SOL    HW2 8051   3.848   0.911   3.107
 2680SOL     OW 8052   4.041   0.251   3.663
 2680SOL    HW1 8053   4.112   0.322   3.669
 2680SOL    HW2 8054   3.953   0.290   3.691
 2681SOL     OW 8055   4.322   0.729   2.132
 2681SOL    HW1 8056   4.346   0.798   2.064
 2681SOL    HW2 8057   4.244   0.762   2.186
 2682SOL     OW 8058   3.800   0.811   2.651
 2682SOL    HW1 8059   3.899   0.799   2.660
 2682SOL    HW2 8060   3.776   0.906   2.672
 2683SOL     OW 8061   3.854   1.821   3.433
 2683SOL    HW1 8062   3.844   1.806   3.532
 2683SOL    HW2 8063   3.768   1.857   3.397
 2684SOL     OW 8064   4.274   0.196   2.747
 2684SOL    HW1 8065   4.269   0.191   2.847
 2684SOL    HW2 8066   4.276   0.292   2.718
 2685SOL     OW 8067   4.075   1.801   2.715
 2685SOL    HW1 8068   4.125   1.715   2.721
 2685SOL    HW2 8069   4.140   1.878   2.712
 2686SOL     OW 8070   4.045   0.943   2.104
 2686SOL    HW1 8071   4.127   0.982   2.062
 2686SOL    HW2 8072   4.018   0.861   2.055
 2687SOL     OW 8073   4.185   1.266   3.589
 2687SOL    HW1 8074   4.135   1.267   3.503
 2687SOL    HW2 8075   4.122   1.248   3.665
 2688SOL     OW 8076   3.926   0.285   3.360
 2688SOL    HW1 8077   3.846   0.345   3.347
 2688SOL    HW2 8078   3.916   0.236   3.446
 2689SOL     OW 8079   4.188   1.743   2.185
 2689SOL    HW1 8080   4.221   1.782   2.271
 2689SOL    HW2 8081   4.264   1.736   2.120
 2690SOL     OW 8082   3.973   1.785   3.103
 2690SOL    HW1 8083   4.030   1.720   3.153
 2690SOL    HW2 8084   3.957   1.752   3.010
 2691SOL     OW 8085   4.106   0.700   2.342
 2691SOL    HW1 8086   4.151   0.610   2.339
 2691SOL    HW2 8087   4.012   0.689   2.375
 2692SOL     OW 8088   4.338   0.122   1.979
 2692SOL    HW1 8089   4.436   0.100   1.986
 2692SOL    HW2 8090   4.307   0.105   1.886
 2693SOL     OW 8091   4.527   1.402   2.786
 2693SOL    HW1 8092   4.617   1.416   2.744
 2693SOL    HW2 8093   4.456   1.404   2.715
 2694SOL     OW 8094   4.646   0.503   2.761
 2694SOL    HW1 8095   4.621   0.494   2.665
 2694SOL    HW2 8096   4.694   0.421   2.792
 2695SOL     OW 8097   4.263   0.064   2.374
 2695SOL    HW1 8098   4.182   0.065   2.432
 2695SOL    HW2 8099   4.266   0.147   2.319
 2696SOL     OW 8100   4.021   0.035   2.033
 2696SOL    HW1 8101   4.070   0.119   2.012
 2696SOL    HW2 8102   4.083  -0.030   2.078
 2697SOL     OW 8103   4.183   1.152   2.603
 2697SOL    HW1 8104   4.112   1.125   2.668
 2697SOL    HW2 8105   4.157   1.124   2.510
 2698SOL     OW 8106   3.802   0.556   3.248
 2698SOL    HW1 8107   3.894   0.555   3.207
 2698SOL    HW2 8108   3.796   0.630   3.315
 2699SOL     OW 8109   4.285   0.222   3.009
 2699SOL    HW1 8110   4.323   0.138   3.046
 2699SOL    HW2 8111   4.197   0.241   3.053
 2700SOL     OW 8112   4.212   1.385   2.036
 2700SOL    HW1 8113   4.125   1.370   2.083
 2700SOL    HW2 8114   4.195   1.411   1.941
 2701SOL     OW 8115   4.251   0.256   2.190
 2701SOL    HW1 8116   4.278   0.197   2.115
 2701SOL    HW2 8117   4.251   0.351   2.159
 2702SOL     OW 8118   4.639   0.089   3.264
 2702SOL    HW1 8119   4.664   0.069   3.169
 2702SOL    HW2 8120   4.711   0.145   3.306
 2703SOL     OW 8121   4.134   0.813   3.113
 2703SOL    HW1 8122   4.220   0.825   3.163
 2703SOL    HW2 8123   4.092   0.726   3.140
 2704SOL     OW 8124   3.788   1.564   3.193
 2704SOL    HW1 8125   3.742   1.646   3.159
 2704SOL    HW2 8126   3.886   1.583   3.202
 2705SOL     OW 8127   4.091   1.100   2.363
 2705SOL    HW1 8128   4.084   1.183   2.307
 2705SOL    HW2 8129   4.095   1.020   2.303
 2706SOL     OW 8130   4.290   0.537   2.727
 2706SOL    HW1 8131   4.302   0.603   2.653
 2706SOL    HW2 8132   4.336   0.571   2.810
 2707SOL     OW 8133   4.078   1.510   3.191
 2707SOL    HW1 8134   4.057   1.466   3.104
 2707SOL    HW2 8135   4.175   1.536   3.194
 2708SOL     OW 8136   4.126   0.751   3.460
 2708SOL    HW1 8137   4.194   0.806   3.413
 2708SOL    HW2 8138   4.166   0.663   3.487
 2709SOL     OW 8139   4.228   0.050   3.602
 2709SOL    HW1 8140   4.186  -0.007   3.532
 2709SOL    HW2 8141   4.162   0.119   3.634
 2710SOL     OW 8142   4.297   0.870   2.891
 2710SOL    HW1 8143   4.341   0.959   2.882
 2710SOL    HW2 8144   4.234   0.870   2.968
 2711SOL     OW 8145   4.031   0.213   3.093
 2711SOL    HW1 8146   4.008   0.250   3.183
 2711SOL    HW2 8147   4.001   0.118   3.087
 2712SOL     OW 8148   3.761   1.310   3.144
 2712SOL    HW1 8149   3.814   1.261   3.212
 2712SOL    HW2 8150   3.783   1.408   3.149
 2713SOL     OW 8151   4.456   0.634   2.926
 2713SOL    HW1 8152   4.515   0.608   2.850
 2713SOL    HW2 8153   4.428   0.730   2.915
 2714SOL     OW 8154   4.031   0.063   2.480
 2714SOL    HW1 8155   4.020   0.157   2.513
 2714SOL    HW2 8156   4.026   0.000   2.557
 2715SOL     OW 8157   4.074   0.898   3.666
 2715SOL    HW1 8158   4.150   0.942   3.714
 2715SOL    HW2 8159   4.109   0.851   3.584
 2716SOL     OW 8160   4.792   1.333   2.711
 2716SOL    HW1 8161   4.799   1.249   2.656
 2716SOL    HW2 8162   4.854   1.402   2.675
 2717SOL     OW 8163   4.043   0.810   2.811
 2717SOL    HW1 8164   4.136   0.846   2.816
 2717SOL    HW2 8165   4.037   0.725   2.863
 2718SOL     OW 8166   4.063   0.509   2.868
 2718SOL    HW1 8167   4.011   0.426   2.851
 2718SOL    HW2 8168   4.140   0.514   2.804
 2719SOL     OW 8169   3.732   1.326   2.062
 2719SOL    HW1 8170   3.639   1.347   2.031
 2719SOL    HW2 8171   3.742   1.227   2.075
 2720SOL     OW 8172   3.812   1.801   2.789
 2720SOL    HW1 8173   3.770   1.715   2.762
 2720SOL    HW2 8174   3.906   1.804   2.755
 2721SOL     OW 8175   4.228   1.568   2.772
 2721SOL    HW1 8176   4.294   1.642   2.781
 2721SOL    HW2 8177   4.272   1.489   2.730
 2722SOL     OW 8178   3.764   0.544   2.976
 2722SOL    HW1 8179   3.849   0.511   2.935
 2722SOL    HW2 8180   3.777   0.559   3.074
 2723SOL     OW 8181   3.913   0.520   3.584
 2723SOL    HW1 8182   3.972   0.480   3.514
 2723SOL    HW2 8183   3.855   0.591   3.543
 2724SOL     OW 8184   4.539   0.572   2.187
 2724SOL    HW1 8185   4.546   0.483   2.141
 2724SOL    HW2 8186   4.445   0.606   2.179
 2725SOL     OW 8187   3.976   1.564   3.606
 2725SOL    HW1 8188   3.946   1.621   3.682
 2725SOL    HW2 8189   3.969   1.467   3.632
 2726SOL     OW 8190   4.395   0.464   3.131
 2726SOL    HW1 8191   4.361   0.375   3.101
 2726SOL    HW2 8192   4.421   0.518   3.051
 2727SOL     OW 8193   4.197   0.500   2.053
 2727SOL    HW1 8194   4.258   0.580   2.057
 2727SOL    HW2 8195   4.102   0.531   2.060
 2728SOL     OW 8196   3.883   1.137   3.328
 2728SOL    HW1 8197   3.905   1.076   3.404
 2728SOL    HW2 8198   3.893   1.088   3.242
 2729SOL     OW 8199   3.807   1.258   2.884
 2729SOL    HW1 8200   3.802   1.257   2.984
 2729SOL    HW2 8201   3.724   1.217   2.846
 2730SOL     OW 8202   4.412   1.662   3.578
 2730SOL    HW1 8203   4.356   1.743   3.587
 2730SOL    HW2 8204   4.464   1.666   3.492
 2731SOL     OW 8205   4.627   0.086   1.995
 2731SOL    HW1 8206   4.678   0.087   1.909
 2731SOL    HW2 8207   4.683   0.044   2.066
 2732SOL     OW 8208   3.854   1.794   3.713
 2732SOL    HW1 8209   3.813   1.720   3.766
 2732SOL    HW2 8210   3.918   1.845   3.771
 2733SOL     OW 8211   4.396   1.616   2.016
 2733SOL    HW1 8212   4.405   1.626   1.917
 2733SOL    HW2 8213   4.356   1.527   2.037
 2734SOL     OW 8214   3.987   0.326   2.582
 2734SOL    HW1 8215   3.908   0.377   2.548
 2734SOL    HW2 8216   3.978   0.311   2.680
 2735SOL     OW 8217   4.546   1.002   3.234
 2735SOL    HW1 8218   4.586   1.001   3.142
 2735SOL    HW2 8219   4.556   1.094   3.274
 2736SOL     OW 8220   4.096   1.288   3.352
 2736SOL    HW1 8221   4.083   1.381   3.318
 2736SOL    HW2 8222   4.012   1.236   3.339
 2737SOL     OW 8223   4.314   1.487   2.353
 2737SOL    HW1 8224   4.356   1.429   2.283
 2737SOL    HW2 8225   4.270   1.566   2.309
 2738SOL     OW 8226   3.979   1.348   2.152
 2738SOL    HW1 8227   3.883   1.349   2.125
 2738SOL    HW2 8228   3.991   1.401   2.236
 2739SOL     OW 8229   3.829   1.013   3.588
 2739SOL    HW1 8230   3.752   0.980   3.642
 2739SOL    HW2 8231   3.914   0.983   3.630
 2740SOL     OW 8232   4.396   0.203   3.351
 2740SOL    HW1 8233   4.486   0.187   3.311
 2740SOL    HW2 8234   4.404   0.208   3.450
 2741SOL     OW 8235   3.799   0.345   1.895
 2741SOL    HW1 8236   3.707   0.317   1.866
 2741SOL    HW2 8237   3.830   0.422   1.839
 2742SOL     OW 8238   3.796   0.166   2.180
 2742SOL    HW1 8239   3.779   0.249   2.126
 2742SOL    HW2 8240   3.886   0.129   2.158
 2743SOL     OW 8241   4.337   0.842   3.293
 2743SOL    HW1 8242   4.393   0.923   3.276
 2743SOL    HW2 8243   4.396   0.762   3.296
 2744SOL     OW 8244   4.440   0.565   3.570
 2744SOL    HW1 8245   4.459   0.630   3.644
 2744SOL    HW2 8246   4.500   0.485   3.579
 2745SOL     OW 8247   4.114   1.741   3.422
 2745SOL    HW1 8248   4.023   1.782   3.420
 2745SOL    HW2 8249   4.107   1.647   3.454
 2746SOL     OW 8250   4.318   0.745   2.514
 2746SOL    HW1 8251   4.368   0.830   2.495
 2746SOL    HW2 8252   4.230   0.747   2.466
 2747SOL     OW 8253   4.385   1.790   2.815
 2747SOL    HW1 8254   4.339   1.878   2.802
 2747SOL    HW2 8255   4.484   1.802   2.808
 2748SOL     OW 8256   3.945   1.314   3.706
 2748SOL    HW1 8257   3.880   1.241   3.685
 2748SOL    HW2 8258   3.949   1.328   3.804
 2749SOL     OW 8259   3.803   1.240   2.515
 2749SOL    HW1 8260   3.802   1.193   2.603
 2749SOL    HW2 8261   3.885   1.212   2.464
 2750SOL     OW 8262   4.396   1.391   3.486
 2750SOL    HW1 8263   4.318   1.341   3.524
 2750SOL    HW2 8264   4.393   1.486   3.517
 2751SOL     OW 8265   4.152   0.424   2.382
 2751SOL    HW1 8266   4.182   0.352   2.320
 2751SOL    HW2 8267   4.113   0.384   2.465
 2752SOL     OW 8268   4.041   0.547   3.142
 2752SOL    HW1 8269   4.079   0.488   3.214
 2752SOL    HW2 8270   4.081   0.521   3.054
 2753SOL     OW 8271   4.536   1.586   2.549
 2753SOL    HW1 8272   4.568   1.596   2.455
 2753SOL    HW2 8273   4.457   1.524   2.551
 2754SOL     OW 8274   4.725   0.034   3.016
 2754SOL    HW1 8275   4.662  -0.038   2.985
 2754SOL    HW2 8276   4.818  -0.002   3.016
 2755SOL     OW 8277   4.342   1.567   3.146
 2755SOL    HW1 8278   4.337   1.649   3.203
 2755SOL    HW2 8279   4.431   1.564   3.101
 2756SOL     OW 8280   3.763   1.077   2.162
 2756SOL    HW1 8281   3.862   1.066   2.153
 2756SOL    HW2 8282   3.723   0.991   2.194
 2757SOL     OW 8283   3.954   0.628   3.837
 2757SOL    HW1 8284   3.861   0.626   3.874
 2757SOL    HW2 8285   3.955   0.589   3.745
 2758SOL     OW 8286   3.743   0.368   4.371
 2758SOL    HW1 8287   3.661   0.411   4.410
 2758SOL    HW2 8288   3.715   0.295   4.308
 2759SOL     OW 8289   4.409   1.012   4.389
 2759SOL    HW1 8290   4.478   0.996   4.459
 2759SOL    HW2 8291   4.336   1.069   4.427
 2760SOL     OW 8292   3.955   1.713   4.207
 2760SOL    HW1 8293   3.989   1.790   4.261
 2760SOL    HW2 8294   3.999   1.713   4.117
 2761SOL     OW 8295   3.954   1.434   4.262
 2761SOL    HW1 8296   3.928   1.530   4.262
 2761SOL    HW2 8297   3.883   1.380   4.307
 2762SOL     OW 8298   3.964   1.091   4.610
 2762SOL    HW1 8299   3.978   1.007   4.662
 2762SOL    HW2 8300   3.909   1.155   4.665
 2763SOL     OW 8301   4.330   0.964   3.847
 2763SOL    HW1 8302   4.337   1.048   3.793
 2763SOL    HW2 8303   4.376   0.977   3.935
 2764SOL     OW 8304   3.846   0.643   4.287
 2764SOL    HW1 8305   3.801   0.555   4.304
 2764SOL    HW2 8306   3.845   0.697   4.371
 2765SOL     OW 8307   3.751   1.596   3.841
 2765SOL    HW1 8308   3.732   1.500   3.862
 2765SOL    HW2 8309   3.718   1.654   3.916
 2766SOL     OW 8310   4.337   1.365   4.450
 2766SOL    HW1 8311   4.288   1.278   4.459
 2766SOL    HW2 8312   4.314   1.408   4.363
 2767SOL     OW 8313   4.533   0.004   4.226
 2767SOL    HW1 8314   4.573   0.095   4.217
 2767SOL    HW2 8315   4.433   0.012   4.232
 2768SOL     OW 8316   4.322   0.729   3.994
 2768SOL    HW1 8317   4.346   0.798   3.926
 2768SOL    HW2 8318   4.244   0.762   4.048
 2769SOL     OW 8319   3.800   0.811   4.513
 2769SOL    HW1 8320   3.899   0.799   4.522
 2769SOL    HW2 8321   3.776   0.906   4.534
 2770SOL     OW 8322   4.075   1.801   4.577
 2770SOL    HW1 8323   4.125   1.715   4.583
 2770SOL    HW2 8324   4.140   1.878   4.574
 2771SOL     OW 8325   4.045   0.943   3.966
 2771SOL    HW1 8326   4.127   0.982   3.924
 2771SOL    HW2 8327   4.018   0.861   3.917
 2772SOL     OW 8328   4.188   1.743   4.047
 2772SOL    HW1 8329   4.221   1.782   4.133
 2772SOL    HW2 8330   4.264   1.736   3.982
 2773SOL     OW 8331   4.106   0.700   4.204
 2773SOL    HW1 8332   4.151   0.610   4.201
 2773SOL    HW2 8333   4.012   0.689   4.237
 2774SOL     OW 8334   4.338   0.122   3.841
 2774SOL    HW1 8335   4.436   0.100   3.848
 2774SOL    HW2 8336   4.307   0.105   3.748
 2775SOL     OW 8337   4.263   0.064   4.236
 2775SOL    HW1 8338   4.182   0.065   4.294
 2775SOL    HW2 8339   4.266   0.147   4.181
 2776SOL     OW 8340   4.021   0.035   3.895
 2776SOL    HW1 8341   4.070   0.119   3.874
 2776SOL    HW2 8342   4.083  -0.030   3.940
 2777SOL     OW 8343   4.183   1.152   4.465
 2777SOL    HW1 8344   4.112   1.125   4.530
 2777SOL    HW2 8345   4.157   1.124   4.372
 2778SOL     OW 8346   4.212   1.385   3.898
 2778SOL    HW1 8347   4.125   1.370   3.945
 2778SOL    HW2 8348   4.195   1.411   3.803
 2779SOL     OW 8349   4.251   0.256   4.052
 2779SOL    HW1 8350   4.278   0.197   3.977
 2779SOL    HW2 8351   4.251   0.351   4.021
 2780SOL     OW 8352   4.091   1.100   4.225
 2780SOL    HW1 8353   4.084   1.183   4.169
 2780SOL    HW2 8354   4.095   1.020   4.165
 2781SOL     OW 8355   4.290   0.537   4.589
 2781SOL    HW1 8356   4.302   0.603   4.515
 2781SOL    HW2 8357   4.336   0.571   4.672
 2782SOL     OW 8358   4.031   0.063   4.342
 2782SOL    HW1 8359   4.020   0.157   4.375
 2782SOL    HW2 8360   4.026   0.000   4.419
 2783SOL     OW 8361   4.792   1.333   4.573
 2783SOL    HW1 8362   4.799   1.249   4.518
 2783SOL    HW2 8363   4.854   1.402   4.537
 2784SOL     OW 8364   3.732   1.326   3.924
 2784SOL    HW1 8365   3.639   1.347   3.893
 2784SOL    HW2 8366   3.742   1.227   3.937
 2785SOL     OW 8367   4.539   0.572   4.049
 2785SOL    HW1 8368   4.546   0.483   4.003
 2785SOL    HW2 8369   4.445   0.606   4.041
 2786SOL     OW 8370   4.197   0.500   3.915
 2786SOL    HW1 8371   4.258   0.580   3.919
 2786SOL    HW2 8372   4.102   0.531   3.922
 2787SOL     OW 8373   4.627   0.086   3.857
 2787SOL    HW1 8374   4.678   0.087   3.771
 2787SOL    HW2 8375   4.683   0.044   3.928
 2788SOL     OW 8376   4.396   1.616   3.878
 2788SOL    HW1 8377   4.405   1.626   3.779
 2788SOL    HW2 8378   4.356   1.527   3.899
 2789SOL     OW 8379   3.987   0.326   4.444
 2789SOL    HW1 8380   3.908   0.377   4.410
 2789SOL    HW2 8381   3.978   0.311   4.542
 2790SOL     OW 8382   4.314   1.487   4.215
 2790SOL    HW1 8383   4.356   1.429   4.145
 2790SOL    HW2 8384   4.270   1.566   4.171
 2791SOL     OW 8385   3.979   1.348   4.014
 2791SOL    HW1 8386   3.883   1.349   3.987
 2791SOL    HW2 8387   3.991   1.401   4.098
 2792SOL     OW 8388   3.799   0.345   3.757
 2792SOL    HW1 8389   3.707   0.317   3.728
 2792SOL    HW2 8390   3.830   0.422   3.701
 2793SOL     OW 8391   3.796   0.166   4.042
 2793SOL    HW1 8392   3.779   0.249   3.988
 2793SOL    HW2 8393   3.886   0.129   4.020
 2794SOL     OW 8394   4.318   0.745   4.376
 2794SOL    HW1 8395   4.368   0.830   4.357
 2794SOL    HW2 8396   4.230   0.747   4.328
 2795SOL     OW 8397   4.385   1.790   4.677
 2795SOL    HW1 8398   4.339   1.878   4.664
 2795SOL    HW2 8399   4.484   1.802   4.670
 2796SOL     OW 8400   3.803   1.240   4.377
 2796SOL    HW1 8401   3.802   1.193   4.465
 2796SOL    HW2 8402   3.885   1.212   4.326
 2797SOL     OW 8403   4.152   0.424   4.244
 2797SOL    HW1 8404   4.182   0.352   4.182
 2797SOL    HW2 8405   4.113   0.384   4.327
 2798SOL     OW 8406   4.536   1.586   4.411
 2798SOL    HW1 8407   4.568   1.596   4.317
 2798SOL    HW2 8408   4.457   1.524   4.413
 2799SOL     OW 8409   3.763   1.077   4.024
 2799SOL    HW1 8410   3.862   1.066   4.015
 2799SOL    HW2 8411   3.723   0.991   4.056
 2800SOL     OW 8412   3.954   2.490   0.113
 2800SOL    HW1 8413   3.861   2.488   0.150
 2800SOL    HW2 8414   3.955   2.451   0.021
 2801SOL     OW 8415   3.949   2.137   0.996
 2801SOL    HW1 8416   3.984   2.120   1.088
 2801SOL    HW2 8417   3.861   2.092   0.984
 2802SOL     OW 8418   3.743   2.230   0.647
 2802SOL    HW1 8419   3.661   2.273   0.686
 2802SOL    HW2 8420   3.715   2.157   0.584
 2803SOL     OW 8421   4.293   3.137   1.165
 2803SOL    HW1 8422   4.200   3.130   1.128
 2803SOL    HW2 8423   4.304   3.226   1.209
 2804SOL     OW 8424   4.574   2.660   1.823
 2804SOL    HW1 8425   4.570   2.736   1.888
 2804SOL    HW2 8426   4.596   2.696   1.732
 2805SOL     OW 8427   4.409   2.874   0.665
 2805SOL    HW1 8428   4.478   2.858   0.735
 2805SOL    HW2 8429   4.336   2.931   0.703
 2806SOL     OW 8430   4.410   3.023   1.803
 2806SOL    HW1 8431   4.470   3.102   1.817
 2806SOL    HW2 8432   4.324   3.054   1.762
 2807SOL     OW 8433   4.059   3.297   1.061
 2807SOL    HW1 8434   3.981   3.266   1.008
 2807SOL    HW2 8435   4.117   3.355   1.004
 2808SOL     OW 8436   4.162   2.254   1.499
 2808SOL    HW1 8437   4.244   2.198   1.508
 2808SOL    HW2 8438   4.081   2.196   1.503
 2809SOL     OW 8439   3.955   3.575   0.483
 2809SOL    HW1 8440   3.989   3.652   0.537
 2809SOL    HW2 8441   3.999   3.575   0.393
 2810SOL     OW 8442   3.954   3.296   0.538
 2810SOL    HW1 8443   3.928   3.392   0.538
 2810SOL    HW2 8444   3.883   3.242   0.583
 2811SOL     OW 8445   3.964   2.953   0.886
 2811SOL    HW1 8446   3.978   2.869   0.938
 2811SOL    HW2 8447   3.909   3.017   0.941
 2812SOL     OW 8448   4.344   3.648   1.439
 2812SOL    HW1 8449   4.252   3.631   1.474
 2812SOL    HW2 8450   4.372   3.740   1.465
 2813SOL     OW 8451   4.330   2.826   0.123
 2813SOL    HW1 8452   4.337   2.910   0.069
 2813SOL    HW2 8453   4.376   2.839   0.211
 2814SOL     OW 8454   3.846   2.505   0.563
 2814SOL    HW1 8455   3.801   2.417   0.580
 2814SOL    HW2 8456   3.845   2.559   0.647
 2815SOL     OW 8457   3.751   3.458   0.117
 2815SOL    HW1 8458   3.732   3.362   0.138
 2815SOL    HW2 8459   3.718   3.516   0.192
 2816SOL     OW 8460   3.837   2.599   1.597
 2816SOL    HW1 8461   3.925   2.586   1.642
 2816SOL    HW2 8462   3.824   2.696   1.575
 2817SOL     OW 8463   4.337   3.227   0.726
 2817SOL    HW1 8464   4.288   3.140   0.735
 2817SOL    HW2 8465   4.314   3.270   0.639
 2818SOL     OW 8466   4.533   1.866   0.502
 2818SOL    HW1 8467   4.573   1.957   0.493
 2818SOL    HW2 8468   4.433   1.874   0.508
 2819SOL     OW 8469   3.921   2.838   1.264
 2819SOL    HW1 8470   4.010   2.793   1.250
 2819SOL    HW2 8471   3.848   2.773   1.245
 2820SOL     OW 8472   4.041   2.113   1.801
 2820SOL    HW1 8473   4.112   2.184   1.807
 2820SOL    HW2 8474   3.953   2.152   1.829
 2821SOL     OW 8475   4.322   2.591   0.270
 2821SOL    HW1 8476   4.346   2.660   0.202
 2821SOL    HW2 8477   4.244   2.624   0.324
 2822SOL     OW 8478   3.800   2.673   0.789
 2822SOL    HW1 8479   3.899   2.661   0.798
 2822SOL    HW2 8480   3.776   2.768   0.810
 2823SOL     OW 8481   3.854   3.683   1.571
 2823SOL    HW1 8482   3.844   3.668   1.670
 2823SOL    HW2 8483   3.768   3.719   1.535
 2824SOL     OW 8484   4.274   2.058   0.885
 2824SOL    HW1 8485   4.269   2.053   0.985
 2824SOL    HW2 8486   4.276   2.154   0.856
 2825SOL     OW 8487   4.075   3.663   0.853
 2825SOL    HW1 8488   4.125   3.577   0.859
 2825SOL    HW2 8489   4.140   3.740   0.850
 2826SOL     OW 8490   4.045   2.805   0.242
 2826SOL    HW1 8491   4.127   2.844   0.200
 2826SOL    HW2 8492   4.018   2.723   0.193
 2827SOL     OW 8493   4.185   3.128   1.727
 2827SOL    HW1 8494   4.135   3.129   1.641
 2827SOL    HW2 8495   4.122   3.110   1.803
 2828SOL     OW 8496   3.926   2.147   1.498
 2828SOL    HW1 8497   3.846   2.207   1.485
 2828SOL    HW2 8498   3.916   2.098   1.584
 2829SOL     OW 8499   4.188   3.605   0.323
 2829SOL    HW1 8500   4.221   3.644   0.409
 2829SOL    HW2 8501   4.264   3.598   0.258
 2830SOL     OW 8502   3.973   3.647   1.241
 2830SOL    HW1 8503   4.030   3.582   1.291
 2830SOL    HW2 8504   3.957   3.614   1.148
 2831SOL     OW 8505   4.106   2.562   0.480
 2831SOL    HW1 8506   4.151   2.472   0.477
 2831SOL    HW2 8507   4.012   2.551   0.513
 2832SOL     OW 8508   4.527   3.264   0.924
 2832SOL    HW1 8509   4.617   3.278   0.882
 2832SOL    HW2 8510   4.456   3.266   0.853
 2833SOL     OW 8511   4.646   2.365   0.899
 2833SOL    HW1 8512   4.621   2.356   0.803
 2833SOL    HW2 8513   4.694   2.283   0.930
 2834SOL     OW 8514   4.263   1.926   0.512
 2834SOL    HW1 8515   4.182   1.927   0.570
 2834SOL    HW2 8516   4.266   2.009   0.457
 2835SOL     OW 8517   4.021   1.897   0.171
 2835SOL    HW1 8518   4.070   1.981   0.150
 2835SOL    HW2 8519   4.083   1.832   0.216
 2836SOL     OW 8520   4.183   3.014   0.741
 2836SOL    HW1 8521   4.112   2.987   0.806
 2836SOL    HW2 8522   4.157   2.986   0.648
 2837SOL     OW 8523   3.802   2.418   1.386
 2837SOL    HW1 8524   3.894   2.417   1.345
 2837SOL    HW2 8525   3.796   2.492   1.453
 2838SOL     OW 8526   4.285   2.084   1.147
 2838SOL    HW1 8527   4.323   2.000   1.184
 2838SOL    HW2 8528   4.197   2.103   1.191
 2839SOL     OW 8529   4.212   3.247   0.174
 2839SOL    HW1 8530   4.125   3.232   0.221
 2839SOL    HW2 8531   4.195   3.273   0.079
 2840SOL     OW 8532   4.251   2.118   0.328
 2840SOL    HW1 8533   4.278   2.059   0.253
 2840SOL    HW2 8534   4.251   2.213   0.297
 2841SOL     OW 8535   4.639   1.951   1.402
 2841SOL    HW1 8536   4.664   1.931   1.307
 2841SOL    HW2 8537   4.711   2.007   1.444
 2842SOL     OW 8538   4.134   2.675   1.251
 2842SOL    HW1 8539   4.220   2.687   1.301
 2842SOL    HW2 8540   4.092   2.588   1.278
 2843SOL     OW 8541   3.788   3.426   1.331
 2843SOL    HW1 8542   3.742   3.508   1.297
 2843SOL    HW2 8543   3.886   3.445   1.340
 2844SOL     OW 8544   4.091   2.962   0.501
 2844SOL    HW1 8545   4.084   3.045   0.445
 2844SOL    HW2 8546   4.095   2.882   0.441
 2845SOL     OW 8547   4.290   2.399   0.865
 2845SOL    HW1 8548   4.302   2.465   0.791
 2845SOL    HW2 8549   4.336   2.433   0.948
 2846SOL     OW 8550   4.078   3.372   1.329
 2846SOL    HW1 8551   4.057   3.328   1.242
 2846SOL    HW2 8552   4.175   3.398   1.332
 2847SOL     OW 8553   4.126   2.613   1.598
 2847SOL    HW1 8554   4.194   2.668   1.551
 2847SOL    HW2 8555   4.166   2.525   1.625
 2848SOL     OW 8556   4.228   1.912   1.740
 2848SOL    HW1 8557   4.186   1.855   1.670
 2848SOL    HW2 8558   4.162   1.981   1.772
 2849SOL     OW 8559   4.297   2.732   1.029
 2849SOL    HW1 8560   4.341   2.821   1.020
 2849SOL    HW2 8561   4.234   2.732   1.106
 2850SOL     OW 8562   4.031   2.075   1.231
 2850SOL    HW1 8563   4.008   2.112   1.321
 2850SOL    HW2 8564   4.001   1.980   1.225
 2851SOL     OW 8565   3.761   3.172   1.282
 2851SOL    HW1 8566   3.814   3.123   1.350
 2851SOL    HW2 8567   3.783   3.270   1.287
 2852SOL     OW 8568   4.456   2.496   1.064
 2852SOL    HW1 8569   4.515   2.470   0.988
 2852SOL    HW2 8570   4.428   2.592   1.053
 2853SOL     OW 8571   4.031   1.925   0.618
 2853SOL    HW1 8572   4.020   2.019   0.651
 2853SOL    HW2 8573   4.026   1.862   0.695
 2854SOL     OW 8574   4.074   2.760   1.804
 2854SOL    HW1 8575   4.150   2.804   1.852
 2854SOL    HW2 8576   4.109   2.713   1.722
 2855SOL     OW 8577   4.792   3.195   0.849
 2855SOL    HW1 8578   4.799   3.111   0.794
 2855SOL    HW2 8579   4.854   3.264   0.813
 2856SOL     OW 8580   4.043   2.672   0.949
 2856SOL    HW1 8581   4.136   2.708   0.954
 2856SOL    HW2 8582   4.037   2.587   1.001
 2857SOL     OW 8583   4.063   2.371   1.006
 2857SOL    HW1 8584   4.011   2.288   0.989
 2857SOL    HW2 8585   4.140   2.376   0.942
 2858SOL     OW 8586   3.732   3.188   0.200
 2858SOL    HW1 8587   3.639   3.209   0.169
 2858SOL    HW2 8588   3.742   3.089   0.213
 2859SOL     OW 8589   3.812   3.663   0.927
 2859SOL    HW1 8590   3.770   3.577   0.900
 2859SOL    HW2 8591   3.906   3.666   0.893
 2860SOL     OW 8592   4.228   3.430   0.910
 2860SOL    HW1 8593   4.294   3.504   0.919
 2860SOL    HW2 8594   4.272   3.351   0.868
 2861SOL     OW 8595   3.764   2.406   1.114
 2861SOL    HW1 8596   3.849   2.373   1.073
 2861SOL    HW2 8597   3.777   2.421   1.212
 2862SOL     OW 8598   3.913   2.382   1.722
 2862SOL    HW1 8599   3.972   2.342   1.652
 2862SOL    HW2 8600   3.855   2.453   1.681
 2863SOL     OW 8601   4.539   2.434   0.325
 2863SOL    HW1 8602   4.546   2.345   0.279
 2863SOL    HW2 8603   4.445   2.468   0.317
 2864SOL     OW 8604   3.976   3.426   1.744
 2864SOL    HW1 8605   3.946   3.483   1.820
 2864SOL    HW2 8606   3.969   3.329   1.770
 2865SOL     OW 8607   4.395   2.326   1.269
 2865SOL    HW1 8608   4.361   2.237   1.239
 2865SOL    HW2 8609   4.421   2.380   1.189
 2866SOL     OW 8610   4.197   2.362   0.191
 2866SOL    HW1 8611   4.258   2.442   0.195
 2866SOL    HW2 8612   4.102   2.393   0.198
 2867SOL     OW 8613   3.883   2.999   1.466
 2867SOL    HW1 8614   3.905   2.938   1.542
 2867SOL    HW2 8615   3.893   2.950   1.380
 2868SOL     OW 8616   3.807   3.120   1.022
 2868SOL    HW1 8617   3.802   3.119   1.122
 2868SOL    HW2 8618   3.724   3.079   0.984
 2869SOL     OW 8619   4.412   3.524   1.716
 2869SOL    HW1 8620   4.356   3.605   1.725
 2869SOL    HW2 8621   4.464   3.528   1.630
 2870SOL     OW 8622   4.627   1.948   0.133
 2870SOL    HW1 8623   4.678   1.949   0.047
 2870SOL    HW2 8624   4.683   1.906   0.204
 2871SOL     OW 8625   3.854   3.656   1.851
 2871SOL    HW1 8626   3.813   3.582   1.904
 2871SOL    HW2 8627   3.918   3.707   1.909
 2872SOL     OW 8628   4.396   3.478   0.154
 2872SOL    HW1 8629   4.405   3.488   0.055
 2872SOL    HW2 8630   4.356   3.389   0.175
 2873SOL     OW 8631   3.987   2.188   0.720
 2873SOL    HW1 8632   3.908   2.239   0.686
 2873SOL    HW2 8633   3.978   2.173   0.818
 2874SOL     OW 8634   4.546   2.864   1.372
 2874SOL    HW1 8635   4.586   2.863   1.280
 2874SOL    HW2 8636   4.556   2.956   1.412
 2875SOL     OW 8637   4.096   3.150   1.490
 2875SOL    HW1 8638   4.083   3.243   1.456
 2875SOL    HW2 8639   4.012   3.098   1.477
 2876SOL     OW 8640   4.314   3.349   0.491
 2876SOL    HW1 8641   4.356   3.291   0.421
 2876SOL    HW2 8642   4.270   3.428   0.447
 2877SOL     OW 8643   3.979   3.210   0.290
 2877SOL    HW1 8644   3.883   3.211   0.263
 2877SOL    HW2 8645   3.991   3.263   0.374
 2878SOL     OW 8646   3.829   2.875   1.726
 2878SOL    HW1 8647   3.752   2.842   1.780
 2878SOL    HW2 8648   3.914   2.845   1.768
 2879SOL     OW 8649   4.396   2.065   1.489
 2879SOL    HW1 8650   4.486   2.049   1.449
 2879SOL    HW2 8651   4.404   2.070   1.588
 2880SOL     OW 8652   3.799   2.207   0.033
 2880SOL    HW1 8653   3.707   2.179   0.004
 2880SOL    HW2 8654   3.830   2.284  -0.023
 2881SOL     OW 8655   3.796   2.028   0.318
 2881SOL    HW1 8656   3.779   2.111   0.264
 2881SOL    HW2 8657   3.886   1.991   0.296
 2882SOL     OW 8658   4.337   2.704   1.431
 2882SOL    HW1 8659   4.393   2.785   1.414
 2882SOL    HW2 8660   4.396   2.624   1.434
 2883SOL     OW 8661   4.440   2.427   1.708
 2883SOL    HW1 8662   4.459   2.492   1.782
 2883SOL    HW2 8663   4.500   2.347   1.717
 2884SOL     OW 8664   4.114   3.603   1.560
 2884SOL    HW1 8665   4.023   3.644   1.558
 2884SOL    HW2 8666   4.107   3.509   1.592
 2885SOL     OW 8667   4.318   2.607   0.652
 2885SOL    HW1 8668   4.368   2.692   0.633
 2885SOL    HW2 8669   4.230   2.609   0.604
 2886SOL     OW 8670   4.385   3.652   0.953
 2886SOL    HW1 8671   4.339   3.740   0.940
 2886SOL    HW2 8672   4.484   3.664   0.946
 2887SOL     OW 8673   3.945   3.176   1.844
 2887SOL    HW1 8674   3.880   3.103   1.823
 2887SOL    HW2 8675   3.949   3.190   1.942
 2888SOL     OW 8676   3.803   3.102   0.653
 2888SOL    HW1 8677   3.802   3.055   0.741
 2888SOL    HW2 8678   3.885   3.074   0.602
 2889SOL     OW 8679   4.396   3.253   1.624
 2889SOL    HW1 8680   4.318   3.203   1.662
 2889SOL    HW2 8681   4.393   3.348   1.655
 2890SOL     OW 8682   4.152   2.286   0.520
 2890SOL    HW1 8683   4.182   2.214   0.458
 2890SOL    HW2 8684   4.113   2.246   0.603
 2891SOL     OW 8685   4.041   2.409   1.280
 2891SOL    HW1 8686   4.079   2.350   1.352
 2891SOL    HW2 8687   4.081   2.383   1.192
 2892SOL     OW 8688   4.536   3.448   0.687
 2892SOL    HW1 8689   4.568   3.458   0.593
 2892SOL    HW2 8690   4.457   3.386   0.689
 2893SOL     OW 8691   4.342   3.429   1.284
 2893SOL    HW1 8692   4.337   3.511   1.341
 2893SOL    HW2 8693   4.431   3.426   1.239
 2894SOL     OW 8694   3.763   2.939   0.300
 2894SOL    HW1 8695   3.862   2.928   0.291
 2894SOL    HW2 8696   3.723   2.853   0.332
 2895SOL     OW 8697   3.954   2.490   1.975
 2895SOL    HW1 8698   3.861   2.488   2.012
 2895SOL    HW2 8699   3.955   2.451   1.883
 2896SOL     OW 8700   3.949   2.137   2.858
 2896SOL    HW1 8701   3.984   2.120   2.950
 2896SOL    HW2 8702   3.861   2.092   2.846
 2897SOL     OW 8703   3.743   2.230   2.509
 2897SOL    HW1 8704   3.661   2.273   2.548
 2897SOL    HW2 8705   3.715   2.157   2.446
 2898SOL     OW 8706   4.293   3.137   3.027
 2898SOL    HW1 8707   4.200   3.130   2.990
 2898SOL    HW2 8708   4.304   3.226   3.071
 2899SOL     OW 8709   4.574   2.660   3.685
 2899SOL    HW1 8710   4.570   2.736   3.750
 2899SOL    HW2 8711   4.596   2.696   3.594
 2900SOL     OW 8712   4.409   2.874   2.527
 2900SOL    HW1 8713   4.478   2.858   2.597
 2900SOL    HW2 8714   4.336   2.931   2.565
 2901SOL     OW 8715   4.410   3.023   3.665
 2901SOL    HW1 8716   4.470   3.102   3.679
 2901SOL    HW2 8717   4.324   3.054   3.624
 2902SOL     OW 8718   4.059   3.297   2.923
 2902SOL    HW1 8719   3.981   3.266   2.870
 2902SOL    HW2 8720   4.117   3.355   2.866
 2903SOL     OW 8721   4.162   2.254   3.361
 2903SOL    HW1 8722   4.244   2.198   3.370
 2903SOL    HW2 8723   4.081   2.196   3.365
 2904SOL     OW 8724   3.955   3.575   2.345
 2904SOL    HW1 8725   3.989   3.652   2.399
 2904SOL    HW2 8726   3.999   3.575   2.255
 2905SOL     OW 8727   3.954   3.296   2.400
 2905SOL    HW1 8728   3.928   3.392   2.400
 2905SOL    HW2 8729   3.883   3.242   2.445
 2906SOL     OW 8730   3.964   2.953   2.748
 2906SOL    HW1 8731   3.978   2.869   2.800
 2906SOL    HW2 8732   3.909   3.017   2.803
 2907SOL     OW 8733   4.344   3.648   3.301
 2907SOL    HW1 8734   4.252   3.631   3.336
 2907SOL    HW2 8735   4.372   3.740   3.327
 2908SOL     OW 8736   4.330   2.826   1.985
 2908SOL    HW1 8737   4.337   2.910   1.931
 2908SOL    HW2 8738   4.376   2.839   2.073
 2909SOL     OW 8739   3.846   2.505   2.425
 2909SOL    HW1 8740   3.801   2.417   2.442
 2909SOL    HW2 8741   3.845   2.559   2.509
 2910SOL     OW 8742   3.751   3.458   1.979
 2910SOL    HW1 8743   3.732   3.362   2.000
 2910SOL    HW2 8744   3.718   3.516   2.054
 2911SOL     OW 8745   3.837   2.599   3.459
 2911SOL    HW1 8746   3.925   2.586   3.504
 2911SOL    HW2 8747   3.824   2.696   3.437
 2912SOL     OW 8748   4.337   3.227   2.588
 2912SOL    HW1 8749   4.288   3.140   2.597
 2912SOL    HW2 8750   4.314   3.270   2.501
 2913SOL     OW 8751   4.533   1.866   2.364
 2913SOL    HW1 8752   4.573   1.957   2.355
 2913SOL    HW2 8753   4.433   1.874   2.370
 2914SOL     OW 8754   3.921   2.838   3.126
 2914SOL    HW1 8755   4.010   2.793   3.112
 2914SOL    HW2 8756   3.848   2.773   3.107
 2915SOL     OW 8757   4.041   2.113   3.663
 2915SOL    HW1 8758   4.112   2.184   3.669
 2915SOL    HW2 8759   3.953   2.152   3.691
 2916SOL     OW 8760   4.322   2.591   2.132
 2916SOL    HW1 8761   4.346   2.660   2.064
 2916SOL    HW2 8762   4.244   2.624   2.186
 2917SOL     OW 8763   3.800   2.673   2.651
 2917SOL    HW1 8764   3.899   2.661   2.660
 2917SOL    HW2 8765   3.776   2.768   2.672
 2918SOL     OW 8766   3.854   3.683   3.433
 2918SOL    HW1 8767   3.844   3.668   3.532
 2918SOL    HW2 8768   3.768   3.719   3.397
 2919SOL     OW 8769   4.274   2.058   2.747
 2919SOL    HW1 8770   4.269   2.053   2.847
 2919SOL    HW2 8771   4.276   2.154   2.718
 2920SOL     OW 8772   4.075   3.663   2.715
 2920SOL    HW1 8773   4.125   3.577   2.721
 2920SOL    HW2 8774   4.140   3.740   2.712
 2921SOL     OW 8775   4.045   2.805   2.104
 2921SOL    HW1 8776   4.127   2.844   2.062
 2921SOL    HW2 8777   4.018   2.723   2.055
 2922SOL     OW 8778   4.185   3.128   3.589
 2922SOL    HW1 8779   4.135   3.129   3.503
 2922SOL    HW2 8780   4.122   3.110   3.665
 2923SOL     OW 8781   3.926   2.147   3.360
 2923SOL    HW1 8782   3.846   2.207   3.347
 2923SOL    HW2 8783   3.916   2.098   3.446
 2924SOL     OW 8784   4.188   3.605   2.185
 2924SOL    HW1 8785   4.221   3.644   2.271
 2924SOL    HW2 8786   4.264   3.598   2.120
 2925SOL     OW 8787   3.973   3.647   3.103
 2925SOL    HW1 8788   4.030   3.582   3.153
 2925SOL    HW2 8789   3.957   3.614   3.010
 2926SOL     OW 8790   4.106   2.562   2.342
 2926SOL    HW1 8791   4.151   2.472   2.339
 2926SOL    HW2 8792   4.012   2.551   2.375
 2927SOL     OW 8793   4.338   1.984   1.979
 2927SOL    HW1 8794   4.436   1.962   1.986
 2927SOL    HW2 8795   4.307   1.967   1.886
 2928SOL     OW 8796   4.527   3.264   2.786
 2928SOL    HW1 8797   4.617   3.278   2.744
 2928SOL    HW2 8798   4.456   3.266   2.715
 2929SOL     OW 8799   4.646   2.365   2.761
 2929SOL    HW1 8800   4.621   2.356   2.665
 2929SOL    HW2 8801   4.694   2.283   2.792
 2930SOL     OW 8802   4.263   1.926   2.374
 2930SOL    HW1 8803   4.182   1.927   2.432
 2930SOL    HW2 8804   4.266   2.009   2.319
 2931SOL     OW 8805   4.021   1.897   2.033
 2931SOL    HW1 8806   4.070   1.981   2.012
 2931SOL    HW2 8807   4.083   1.832   2.078
 2932SOL     OW 8808   4.183   3.014   2.603
 2932SOL    HW1 8809   4.112   2.987   2.668
 2932SOL    HW2 8810   4.157   2.986   2.510
 2933SOL     OW 8811   3.802   2.418   3.248
 2933SOL    HW1 8812   3.894   2.417   3.207
 2933SOL    HW2 8813   3.796   2.492   3.315
 2934SOL     OW 8814   4.285   2.084   3.009
 2934SOL    HW1 8815   4.323   2.000   3.046
 2934SOL    HW2 8816   4.197   2.103   3.053
 2935SOL     OW 8817   4.212   3.247   2.036
 2935SOL    HW1 8818   4.125   3.232   2.083
 2935SOL    HW2 8819   4.195   3.273   1.941
 2936SOL     OW 8820   4.251   2.118   2.190
 2936SOL    HW1 8821   4.278   2.059   2.115
 2936SOL    HW2 8822   4.251   2.213   2.159
 2937SOL     OW 8823   4.639   1.951   3.264
 2937SOL    HW1 8824   4.664   1.931   3.169
 2937SOL    HW2 8825   4.711   2.007   3.306
 2938SOL     OW 8826   4.134   2.675   3.113
 2938SOL    HW1 8827   4.220   2.687   3.163
 2938SOL    HW2 8828   4.092   2.588   3.140
 2939SOL     OW 8829   3.788   3.426   3.193
 2939SOL    HW1 8830   3.742   3.508   3.159
 2939SOL    HW2 8831   3.886   3.445   3.202
 2940SOL     OW 8832   4.091   2.962   2.363
 2940SOL    HW1 8833   4.084   3.045   2.307
 2940SOL    HW2 8834   4.095   2.882   2.303
 2941SOL     OW 8835   4.290   2.399   2.727
 2941SOL    HW1 8836   4.302   2.465   2.653
 2941SOL    HW2 8837   4.336   2.433   2.810
 2942SOL     OW 8838   4.078   3.372   3.191
 2942SOL    HW1 8839   4.057   3.328   3.104
 2942SOL    HW2 8840   4.175   3.398   3.194
 2943SOL     OW 8841   4.126   2.613   3.460
 2943SOL    HW1 8842   4.194   2.668   3.413
 2943SOL    HW2 8843   4.166   2.525   3.487
 2944SOL     OW 8844   4.228   1.912   3.602
 2944SOL    HW1 8845   4.186   1.855   3.532
 2944SOL    HW2 8846   4.162   1.981   3.634
 2945SOL     OW 8847   4.297   2.732   2.891
 2945SOL    HW1 8848   4.341   2.821   2.882
 2945SOL    HW2 8849   4.234   2.732   2.968
 2946SOL     OW 8850   4.031   2.075   3.093
 2946SOL    HW1 8851   4.008   2.112   3.183
 2946SOL    HW2 8852   4.001   1.980   3.087
 2947SOL     OW 8853   3.761   3.172   3.144
 2947SOL    HW1 8854   3.814   3.123   3.212
 2947SOL    HW2 8855   3.783   3.270   3.149
 2948SOL     OW 8856   4.456   2.496   2.926
 2948SOL    HW1 8857   4.515   2.470   2.850
 2948SOL    HW2 8858   4.428   2.592   2.915
 2949SOL     OW 8859   4.031   1.925   2.480
 2949SOL    HW1 8860   4.020   2.019   2.513
 2949SOL    HW2 8861   4.026   1.862   2.557
 2950SOL     OW 8862   4.074   2.760   3.666
 2950SOL    HW1 8863   4.150   2.804   3.714
 2950SOL    HW2 8864   4.109   2.713   3.584
 2951SOL     OW 8865   4.792   3.195   2.711
 2951SOL    HW1 8866   4.799   3.111   2.656
 2951SOL    HW2 8867   4.854   3.264   2.675
 2952SOL     OW 8868   4.043   2.672   2.811
 2952SOL    HW1 8869   4.136   2.708   2.816
 2952SOL    HW2 8870   4.037   2.587   2.863
 2953SOL     OW 8871   4.063   2.371   2.868
 2953SOL    HW1 8872   4.011   2.288   2.851
 2953SOL    HW2 8873   4.140   2.376   2.804
 2954SOL     OW 8874   3.732   3.188   2.062
 2954SOL    HW1 8875   3.639   3.209   2.031
 2954SOL    HW2 8876   3.742   3.089   2.075
 2955SOL     OW 8877   3.812   3.663   2.789
 2955SOL    HW1 8878   3.770   3.577   2.762
 2955SOL    HW2 8879   3.906   3.666   2.755
 2956SOL     OW 8880   4.228   3.430   2.772
 2956SOL    HW1 8881   4.294   3.504   2.781
 2956SOL    HW2 8882   4.272   3.351   2.730
 2957SOL     OW 8883   3.764   2.406   2.976
 2957SOL    HW1 8884   3.849   2.373   2.935
 2957SOL    HW2 8885   3.777   2.421   3.074
 2958SOL     OW 8886   3.913   2.382   3.584
 2958SOL    HW1 8887   3.972   2.342   3.514
 2958SOL    HW2 8888   3.855   2.453   3.543
 2959SOL     OW 8889   4.539   2.434   2.187
 2959SOL    HW1 8890   4.546   2.345   2.141
 2959SOL    HW2 8891   4.445   2.468   2.179
 2960SOL     OW 8892   3.976   3.426   3.606
 2960SOL    HW1 8893   3.946   3.483   3.682
 2960SOL    HW2 8894   3.969   3.329   3.632
 2961SOL     OW 8895   4.395   2.326   3.131
 2961SOL    HW1 8896   4.361   2.237   3.101
 2961SOL    HW2 8897   4.421   2.380   3.051
 2962SOL     OW 8898   4.197   2.362   2.053
 2962SOL    HW1 8899   4.258   2.442   2.057
 2962SOL    HW2 8900   4.102   2.393   2.060
 2963SOL     OW 8901   3.883   2.999   3.328
 2963SOL    HW1 8902   3.905   2.938   3.404
 2963SOL    HW2 8903   3.893   2.950   3.242
 2964SOL     OW 8904   3.807   3.120   2.884
 2964SOL    HW1 8905   3.802   3.119   2.984
 2964SOL    HW2 8906   3.724   3.079   2.846
 2965SOL     OW 8907   4.412   3.524   3.578
 2965SOL    HW1 8908   4.356   3.605   3.587
 2965SOL    HW2 8909   4.464   3.528   3.492
 2966SOL     OW 8910   4.627   1.948   1.995
 2966SOL    HW1 8911   4.678   1.949   1.909
 2966SOL    HW2 8912   4.683   1.906   2.066
 2967SOL     OW 8913   3.854   3.656   3.713
 2967SOL    HW1 8914   3.813   3.582   3.766
 2967SOL    HW2 8915   3.918   3.707   3.771
 2968SOL     OW 8916   4.396   3.478   2.016
 2968SOL    HW1 8917   4.405   3.488   1.917
 2968SOL    HW2 8918   4.356   3.389   2.037
 2969SOL     OW 8919   3.987   2.188   2.582
 2969SOL    HW1 8920   3.908   2.239   2.548
 2969SOL    HW2 8921   3.978   2.173   2.680
 2970SOL     OW 8922   4.546   2.864   3.234
 2970SOL    HW1 8923   4.586   2.863   3.142
 2970SOL    HW2 8924   4.556   2.956   3.274
 2971SOL     OW 8925   4.096   3.150   3.352
 2971SOL    HW1 8926   4.083   3.243   3.318
 2971SOL    HW2 8927   4.012   3.098   3.339
 2972SOL     OW 8928   4.314   3.349   2.353
 2972SOL    HW1 8929   4.356   3.291   2.283
 2972SOL    HW2 8930   4.270   3.428   2.309
 2973SOL     OW 8931   3.979   3.210   2.152
 2973SOL    HW1 8932   3.883   3.211   2.125
 2973SOL    HW2 8933   3.991   3.263   2.236
 2974SOL     OW 8934   3.829   2.875   3.588
 2974SOL    HW1 8935   3.752   2.842   3.642
 2974SOL    HW2 8936   3.914   2.845   3.630
 2975SOL     OW 8937   4.396   2.065   3.351
 2975SOL    HW1 8938   4.486   2.049   3.311
 2975SOL    HW2 8939   4.404   2.070   3.450
 2976SOL     OW 8940   3.799   2.207   1.895
 2976SOL    HW1 8941   3.707   2.179   1.866
 2976SOL    HW2 8942   3.830   2.284   1.839
 2977SOL     OW 8943   3.796   2.028   2.180
 2977SOL    HW1 8944   3.779   2.111   2.126
 2977SOL    HW2 8945   3.886   1.991   2.158
 2978SOL     OW 8946   4.337   2.704   3.293
 2978SOL    HW1 8947   4.393   2.785   3.276
 2978SOL    HW2 8948   4.396   2.624   3.296
 2979SOL     OW 8949   4.440   2.427   3.570
 2979SOL    HW1 8950   4.459   2.492   3.644
 2979SOL    HW2 8951   4.500   2.347   3.579
 2980SOL     OW 8952   4.114   3.603   3.422
 2980SOL    HW1 8953   4.023   3.644   3.420
 2980SOL    HW2 8954   4.107   3.509   3.454
 2981SOL     OW 8955   4.318   2.607   2.514
 2981SOL    HW1 8956   4.368   2.692   2.495
 2981SOL    HW2 8957   4.230   2.609   2.466
 2982SOL     OW 8958   4.385   3.652   2.815
 2982SOL    HW1 8959   4.339   3.740   2.802
 2982SOL    HW2 8960   4.484   3.664   2.808
 2983SOL     OW 8961   3.945   3.176   3.706
 2983SOL    HW1 8962   3.880   3.103   3.685
 2983SOL    HW2 8963   3.949   3.190   3.804
 2984SOL     OW 8964   3.803   3.102   2.515
 2984SOL    HW1 8965   3.802   3.055   2.603
 2984SOL    HW2 8966   3.885   3.074   2.464
 2985SOL     OW 8967   4.396   3.253   3.486
 2985SOL    HW1 8968   4.318   3.203   3.524
 2985SOL    HW2 8969   4.393   3.348   3.517
 2986SOL     OW 8970   4.152   2.286   2.382
 2986SOL    HW1 8971   4.182   2.214   2.320
 2986SOL    HW2 8972   4.113   2.246   2.465
 2987SOL     OW 8973   4.041   2.409   3.142
 2987SOL    HW1 8974   4.079   2.350   3.214
 2987SOL    HW2 8975   4.081   2.383   3.054
 2988SOL     OW 8976   4.536   3.448   2.549
 2988SOL    HW1 8977   4.568   3.458   2.455
 2988SOL    HW2 8978   4.457   3.386   2.551
 2989SOL     OW 8979   4.342   3.429   3.146
 2989SOL    HW1 8980   4.337   3.511   3.203
 2989SOL    HW2 8981   4.431   3.426   3.101
 2990SOL     OW 8982   3.763   2.939   2.162
 2990SOL    HW1 8983   3.862   2.928   2.153
 2990SOL    HW2 8984   3.723   2.853   2.194
 2991SOL     OW 8985   3.954   2.490   3.837
 2991SOL    HW1 8986   3.861   2.488   3.874
 2991SOL    HW2 8987   3.955   2.451   3.745
 2992SOL     OW 8988   3.743   2.230   4.371
 2992SOL    HW1 8989   3.661   2.273   4.410
 2992SOL    HW2 8990   3.715   2.157   4.308
 2993SOL     OW 8991   4.409   2.874   4.389
 2993SOL    HW1 8992   4.478   2.858   4.459
 2993SOL    HW2 8993   4.336   2.931   4.427
 2994SOL     OW 8994   3.955   3.575   4.207
 2994SOL    HW1 8995   3.989   3.652   4.261
 2994SOL    HW2 8996   3.999   3.575   4.117
 2995SOL     OW 8997   3.954   3.296   4.262
 2995SOL    HW1 8998   3.928   3.392   4.262
 2995SOL    HW2 8999   3.883   3.242   4.307
 2996SOL     OW 9000   3.964   2.953   4.610
 2996SOL    HW1 9001   3.978   2.869   4.662
 2996SOL    HW2 9002   3.909   3.017   4.665
 2997SOL     OW 9003   4.330   2.826   3.847
 2997SOL    HW1 9004   4.337   2.910   3.793
 2997SOL    HW2 9005   4.376   2.839   3.935
 2998SOL     OW 9006   3.846   2.505   4.287
 2998SOL    HW1 9007   3.801   2.417   4.304
 2998SOL    HW2 9008   3.845   2.559   4.371
 2999SOL     OW 9009   3.751   3.458   3.841
 2999SOL    HW1 9010   3.732   3.362   3.862
 2999SOL    HW2 9011   3.718   3.516   3.916
 3000SOL     OW 9012   4.337   3.227   4.450
 3000SOL    HW1 9013   4.288   3.140   4.459
 3000SOL    HW2 9014   4.314   3.270   4.363
 3001SOL     OW 9015   4.533   1.866   4.226
 3001SOL    HW1 9016   4.573   1.957   4.217
 3001SOL    HW2 9017   4.433   1.874   4.232
 3002SOL     OW 9018   4.322   2.591   3.994
 3002SOL    HW1 9019   4.346   2.660   3.926
 3002SOL    HW2 9020   4.244   2.624   4.048
 3003SOL     OW 9021   3.800   2.673   4.513
 3003SOL    HW1 9022   3.899   2.661   4.522
 3003SOL    HW2 9023   3.776   2.768   4.534
 3004SOL     OW 9024   4.075   3.663   4.577
 3004SOL    HW1 9025   4.125   3.577   4.583
 3004SOL    HW2 9026   4.140   3.740   4.574
 3005SOL     OW 9027   4.045   2.805   3.966
 3005SOL    HW1 9028   4.127   2.844   3.924
 3005SOL    HW2 9029   4.018   2.723   3.917
 3006SOL     OW 9030   4.188   3.605   4.047
 3006SOL    HW1 9031   4.221   3.644   4.133
 3006SOL    HW2 9032   4.264   3.598   3.982
 3007SOL     OW 9033   4.106   2.562   4.204
 3007SOL    HW1 9034   4.151   2.472   4.201
 3007SOL    HW2 9035   4.012   2.551   4.237
 3008SOL     OW 9036   4.338   1.984   3.841
 3008SOL    HW1 9037   4.436   1.962   3.848
 3008SOL    HW2 9038   4.307   1.967   3.748
 3009SOL     OW 9039   4.263   1.926   4.236
 3009SOL    HW1 9040   4.182   1.927   4.294
 3009SOL    HW2 9041   4.266   2.009   4.181
 3010SOL     OW 9042   4.021   1.897   3.895
 3010SOL    HW1 9043   4.070   1.981   3.874
 3010SOL    HW2 9044   4.083   1.832   3.940
 3011SOL     OW 9045   4.183   3.014   4.465
 3011SOL    HW1 9046   4.112   2.987   4.530
 3011SOL    HW2 9047   4.157   2.986   4.372
 3012SOL     OW 9048   4.741   1.901   4.477
 3012SOL    HW1 9049   4.669   1.906   4.408
 3012SOL    HW2 9050   4.717   1.832   4.546
 3013SOL     OW 9051   4.212   3.247   3.898
 3013SOL    HW1 9052   4.125   3.232   3.945
 3013SOL    HW2 9053   4.195   3.273   3.803
 3014SOL     OW 9054   4.251   2.118   4.052
 3014SOL    HW1 9055   4.278   2.059   3.977
 3014SOL    HW2 9056   4.251   2.213   4.021
 3015SOL     OW 9057   4.091   2.962   4.225
 3015SOL    HW1 9058   4.084   3.045   4.169
 3015SOL    HW2 9059   4.095   2.882   4.165
 3016SOL     OW 9060   4.290   2.399   4.589
 3016SOL    HW1 9061   4.302   2.465   4.515
 3016SOL    HW2 9062   4.336   2.433   4.672
 3017SOL     OW 9063   4.031   1.925   4.342
 3017SOL    HW1 9064   4.020   2.019   4.375
 3017SOL    HW2 9065   4.026   1.862   4.419
 3018SOL     OW 9066   4.792   3.195   4.573
 3018SOL    HW1 9067   4.799   3.111   4.518
 3018SOL    HW2 9068   4.854   3.264   4.537
 3019SOL     OW 9069   3.732   3.188   3.924
 3019SOL    HW1 9070   3.639   3.209   3.893
 3019SOL    HW2 9071   3.742   3.089   3.937
 3020SOL     OW 9072   4.539   2.434   4.049
 3020SOL    HW1 9073   4.546   2.345   4.003
 3020SOL    HW2 9074   4.445   2.468   4.041
 3021SOL     OW 9075   4.197   2.362   3.915
 3021SOL    HW1 9076   4.258   2.442   3.919
 3021SOL    HW2 9077   4.102   2.393   3.922
 3022SOL     OW 9078   4.627   1.948   3.857
 3022SOL    HW1 9079   4.678   1.949   3.771
 3022SOL    HW2 9080   4.683   1.906   3.928
 3023SOL     OW 9081   4.396   3.478   3.878
 3023SOL    HW1 9082   4.405   3.488   3.779
 3023SOL    HW2 9083   4.356   3.389   3.899
 3024SOL     OW 9084   3.987   2.188   4.444
 3024SOL    HW1 9085   3.908   2.239   4.410
 3024SOL    HW2 9086   3.978   2.173   4.542
 3025SOL     OW 9087   4.314   3.349   4.215
 3025SOL    HW1 9088   4.356   3.291   4.145
 3025SOL    HW2 9089   4.270   3.428   4.171
 3026SOL     OW 9090   3.979   3.210   4.014
 3026SOL    HW1 9091   3.883   3.211   3.987
 3026SOL    HW2 9092   3.991   3.263   4.098
 3027SOL     OW 9093   3.799   2.207   3.757
 3027SOL    HW1 9094   3.707   2.179   3.728
 3027SOL    HW2 9095   3.830   2.284   3.701
 3028SOL     OW 9096   3.796   2.028   4.042
 3028SOL    HW1 9097   3.779   2.111   3.988
 3028SOL    HW2 9098   3.886   1.991   4.020
 3029SOL     OW 9099   4.318   2.607   4.376
 3029SOL    HW1 9100   4.368   2.692   4.357
 3029SOL    HW2 9101   4.230   2.609   4.328
 3030SOL     OW 9102   4.385   3.652   4.677
 3030SOL    HW1 9103   4.339   3.740   4.664
 3030SOL    HW2 9104   4.484   3.664   4.670
 3031SOL     OW 9105   3.803   3.102   4.377
 3031SOL    HW1 9106   3.802   3.055   4.465
 3031SOL    HW2 9107   3.885   3.074   4.326
 3032SOL     OW 9108   4.152   2.286   4.244
 3032SOL    HW1 9109   4.182   2.214   4.182
 3032SOL    HW2 9110   4.113   2.246   4.327
 3033SOL     OW 9111   4.536   3.448   4.411
 3033SOL    HW1 9112   4.568   3.458   4.317
 3033SOL    HW2 9113   4.457   3.386   4.413
 3034SOL     OW 9114   3.763   2.939   4.024
 3034SOL    HW1 9115   3.862   2.928   4.015
 3034SOL    HW2 9116   3.723   2.853   4.056
 3035SOL     OW 9117   3.954   4.352   0.113
 3035SOL    HW1 9118   3.861   4.350   0.150
 3035SOL    HW2 9119   3.955   4.313   0.021
 3036SOL     OW 9120   3.949   3.999   0.996
 3036SOL    HW1 9121   3.984   3.982   1.088
 3036SOL    HW2 9122   3.861   3.954   0.984
 3037SOL     OW 9123   3.743   4.092   0.647
 3037SOL    HW1 9124   3.661   4.135   0.686
 3037SOL    HW2 9125   3.715   4.019   0.584
 3038SOL     OW 9126   4.409   4.736   0.665
 3038SOL    HW1 9127   4.478   4.720   0.735
 3038SOL    HW2 9128   4.336   4.793   0.703
 3039SOL     OW 9129   4.162   4.116   1.499
 3039SOL    HW1 9130   4.244   4.060   1.508
 3039SOL    HW2 9131   4.081   4.058   1.503
 3040SOL     OW 9132   3.846   4.367   0.563
 3040SOL    HW1 9133   3.801   4.279   0.580
 3040SOL    HW2 9134   3.845   4.421   0.647
 3041SOL     OW 9135   3.837   4.461   1.597
 3041SOL    HW1 9136   3.925   4.448   1.642
 3041SOL    HW2 9137   3.824   4.558   1.575
 3042SOL     OW 9138   4.533   3.728   0.502
 3042SOL    HW1 9139   4.573   3.819   0.493
 3042SOL    HW2 9140   4.433   3.736   0.508
 3043SOL     OW 9141   4.041   3.975   1.801
 3043SOL    HW1 9142   4.112   4.046   1.807
 3043SOL    HW2 9143   3.953   4.014   1.829
 3044SOL     OW 9144   4.322   4.453   0.270
 3044SOL    HW1 9145   4.346   4.522   0.202
 3044SOL    HW2 9146   4.244   4.486   0.324
 3045SOL     OW 9147   4.274   3.920   0.885
 3045SOL    HW1 9148   4.269   3.915   0.985
 3045SOL    HW2 9149   4.276   4.016   0.856
 3046SOL     OW 9150   3.926   4.009   1.498
 3046SOL    HW1 9151   3.846   4.069   1.485
 3046SOL    HW2 9152   3.916   3.960   1.584
 3047SOL     OW 9153   4.106   4.424   0.480
 3047SOL    HW1 9154   4.151   4.334   0.477
 3047SOL    HW2 9155   4.012   4.413   0.513
 3048SOL     OW 9156   4.646   4.227   0.899
 3048SOL    HW1 9157   4.621   4.218   0.803
 3048SOL    HW2 9158   4.694   4.145   0.930
 3049SOL     OW 9159   4.263   3.788   0.512
 3049SOL    HW1 9160   4.182   3.789   0.570
 3049SOL    HW2 9161   4.266   3.871   0.457
 3050SOL     OW 9162   4.021   3.759   0.171
 3050SOL    HW1 9163   4.070   3.843   0.150
 3050SOL    HW2 9164   4.083   3.694   0.216
 3051SOL     OW 9165   3.802   4.280   1.386
 3051SOL    HW1 9166   3.894   4.279   1.345
 3051SOL    HW2 9167   3.796   4.354   1.453
 3052SOL     OW 9168   4.285   3.946   1.147
 3052SOL    HW1 9169   4.323   3.862   1.184
 3052SOL    HW2 9170   4.197   3.965   1.191
 3053SOL     OW 9171   4.251   3.980   0.328
 3053SOL    HW1 9172   4.278   3.921   0.253
 3053SOL    HW2 9173   4.251   4.075   0.297
 3054SOL     OW 9174   4.639   3.813   1.402
 3054SOL    HW1 9175   4.664   3.793   1.307
 3054SOL    HW2 9176   4.711   3.869   1.444
 3055SOL     OW 9177   4.429   4.774   0.368
 3055SOL    HW1 9178   4.415   4.781   0.467
 3055SOL    HW2 9179   4.513   4.723   0.350
 3056SOL     OW 9180   4.134   4.537   1.251
 3056SOL    HW1 9181   4.220   4.549   1.301
 3056SOL    HW2 9182   4.092   4.450   1.278
 3057SOL     OW 9183   4.290   4.261   0.865
 3057SOL    HW1 9184   4.302   4.327   0.791
 3057SOL    HW2 9185   4.336   4.295   0.948
 3058SOL     OW 9186   4.228   3.774   1.740
 3058SOL    HW1 9187   4.186   3.717   1.670
 3058SOL    HW2 9188   4.162   3.843   1.772
 3059SOL     OW 9189   4.031   3.937   1.231
 3059SOL    HW1 9190   4.008   3.974   1.321
 3059SOL    HW2 9191   4.001   3.842   1.225
 3060SOL     OW 9192   4.456   4.358   1.064
 3060SOL    HW1 9193   4.515   4.332   0.988
 3060SOL    HW2 9194   4.428   4.454   1.053
 3061SOL     OW 9195   4.031   3.787   0.618
 3061SOL    HW1 9196   4.020   3.881   0.651
 3061SOL    HW2 9197   4.026   3.724   0.695
 3062SOL     OW 9198   4.043   4.534   0.949
 3062SOL    HW1 9199   4.136   4.570   0.954
 3062SOL    HW2 9200   4.037   4.449   1.001
 3063SOL     OW 9201   4.063   4.233   1.006
 3063SOL    HW1 9202   4.011   4.150   0.989
 3063SOL    HW2 9203   4.140   4.238   0.942
 3064SOL     OW 9204   3.764   4.268   1.114
 3064SOL    HW1 9205   3.849   4.235   1.073
 3064SOL    HW2 9206   3.777   4.283   1.212
 3065SOL     OW 9207   3.913   4.244   1.722
 3065SOL    HW1 9208   3.972   4.204   1.652
 3065SOL    HW2 9209   3.855   4.315   1.681
 3066SOL     OW 9210   4.539   4.296   0.325
 3066SOL    HW1 9211   4.546   4.207   0.279
 3066SOL    HW2 9212   4.445   4.330   0.317
 3067SOL     OW 9213   4.395   4.188   1.269
 3067SOL    HW1 9214   4.361   4.099   1.239
 3067SOL    HW2 9215   4.421   4.242   1.189
 3068SOL     OW 9216   4.197   4.224   0.191
 3068SOL    HW1 9217   4.258   4.304   0.195
 3068SOL    HW2 9218   4.102   4.255   0.198
 3069SOL     OW 9219   4.627   3.810   0.133
 3069SOL    HW1 9220   4.678   3.811   0.047
 3069SOL    HW2 9221   4.683   3.768   0.204
 3070SOL     OW 9222   3.987   4.050   0.720
 3070SOL    HW1 9223   3.908   4.101   0.686
 3070SOL    HW2 9224   3.978   4.035   0.818
 3071SOL     OW 9225   3.829   4.737   1.726
 3071SOL    HW1 9226   3.752   4.704   1.780
 3071SOL    HW2 9227   3.914   4.707   1.768
 3072SOL     OW 9228   4.396   3.927   1.489
 3072SOL    HW1 9229   4.486   3.911   1.449
 3072SOL    HW2 9230   4.404   3.932   1.588
 3073SOL     OW 9231   3.799   4.069   0.033
 3073SOL    HW1 9232   3.707   4.041   0.004
 3073SOL    HW2 9233   3.830   4.146  -0.023
 3074SOL     OW 9234   3.796   3.890   0.318
 3074SOL    HW1 9235   3.779   3.973   0.264
 3074SOL    HW2 9236   3.886   3.853   0.296
 3075SOL     OW 9237   4.337   4.566   1.431
 3075SOL    HW1 9238   4.393   4.647   1.414
 3075SOL    HW2 9239   4.396   4.486   1.434
 3076SOL     OW 9240   4.440   4.289   1.708
 3076SOL    HW1 9241   4.459   4.354   1.782
 3076SOL    HW2 9242   4.500   4.209   1.717
 3077SOL     OW 9243   4.318   4.469   0.652
 3077SOL    HW1 9244   4.368   4.554   0.633
 3077SOL    HW2 9245   4.230   4.471   0.604
 3078SOL     OW 9246   4.152   4.148   0.520
 3078SOL    HW1 9247   4.182   4.076   0.458
 3078SOL    HW2 9248   4.113   4.108   0.603
 3079SOL     OW 9249   4.041   4.271   1.280
 3079SOL    HW1 9250   4.079   4.212   1.352
 3079SOL    HW2 9251   4.081   4.245   1.192
 3080SOL     OW 9252   3.954   4.352   1.975
 3080SOL    HW1 9253   3.861   4.350   2.012
 3080SOL    HW2 9254   3.955   4.313   1.883
 3081SOL     OW 9255   3.949   3.999   2.858
 3081SOL    HW1 9256   3.984   3.982   2.950
 3081SOL    HW2 9257   3.861   3.954   2.846
 3082SOL     OW 9258   3.743   4.092   2.509
 3082SOL    HW1 9259   3.661   4.135   2.548
 3082SOL    HW2 9260   3.715   4.019   2.446
 3083SOL     OW 9261   4.409   4.736   2.527
 3083SOL    HW1 9262   4.478   4.720   2.597
 3083SOL    HW2 9263   4.336   4.793   2.565
 3084SOL     OW 9264   4.162   4.116   3.361
 3084SOL    HW1 9265   4.244   4.060   3.370
 3084SOL    HW2 9266   4.081   4.058   3.365
 3085SOL     OW 9267   3.846   4.367   2.425
 3085SOL    HW1 9268   3.801   4.279   2.442
 3085SOL    HW2 9269   3.845   4.421   2.509
 3086SOL     OW 9270   3.837   4.461   3.459
 3086SOL    HW1 9271   3.925   4.448   3.504
 3086SOL    HW2 9272   3.824   4.558   3.437
 3087SOL     OW 9273   4.533   3.728   2.364
 3087SOL    HW1 9274   4.573   3.819   2.355
 3087SOL    HW2 9275   4.433   3.736   2.370
 3088SOL     OW 9276   4.041   3.975   3.663
 3088SOL    HW1 9277   4.112   4.046   3.669
 3088SOL    HW2 9278   3.953   4.014   3.691
 3089SOL     OW 9279   4.322   4.453   2.132
 3089SOL    HW1 9280   4.346   4.522   2.064
 3089SOL    HW2 9281   4.244   4.486   2.186
 3090SOL     OW 9282   4.274   3.920   2.747
 3090SOL    HW1 9283   4.269   3.915   2.847
 3090SOL    HW2 9284   4.276   4.016   2.718
 3091SOL     OW 9285   3.926   4.009   3.360
 3091SOL    HW1 9286   3.846   4.069   3.347
 3091SOL    HW2 9287   3.916   3.960   3.446
 3092SOL     OW 9288   4.106   4.424   2.342
 3092SOL    HW1 9289   4.151   4.334   2.339
 3092SOL    HW2 9290   4.012   4.413   2.375
 3093SOL     OW 9291   4.338   3.846   1.979
 3093SOL    HW1 9292   4.436   3.824   1.986
 3093SOL    HW2 9293   4.307   3.829   1.886
 3094SOL     OW 9294   4.646   4.227   2.761
 3094SOL    HW1 9295   4.621   4.218   2.665
 3094SOL    HW2 9296   4.694   4.145   2.792
 3095SOL     OW 9297   4.263   3.788   2.374
 3095SOL    HW1 9298   4.182   3.789   2.432
 3095SOL    HW2 9299   4.266   3.871   2.319
 3096SOL     OW 9300   4.021   3.759   2.033
 3096SOL    HW1 9301   4.070   3.843   2.012
 3096SOL    HW2 9302   4.083   3.694   2.078
 3097SOL     OW 9303   3.802   4.280   3.248
 3097SOL    HW1 9304   3.894   4.279   3.207
 3097SOL    HW2 9305   3.796   4.354   3.315
 3098SOL     OW 9306   4.285   3.946   3.009
 3098SOL    HW1 9307   4.323   3.862   3.046
 3098SOL    HW2 9308   4.197   3.965   3.053
 3099SOL     OW 9309   4.251   3.980   2.190
 3099SOL    HW1 9310   4.278   3.921   2.115
 3099SOL    HW2 9311   4.251   4.075   2.159
 3100SOL     OW 9312   4.639   3.813   3.264
 3100SOL    HW1 9313   4.664   3.793   3.169
 3100SOL    HW2 9314   4.711   3.869   3.306
 3101SOL     OW 9315   4.429   4.774   2.230
 3101SOL    HW1 9316   4.415   4.781   2.329
 3101SOL    HW2 9317   4.513   4.723   2.212
 3102SOL     OW 9318   4.134   4.537   3.113
 3102SOL    HW1 9319   4.220   4.549   3.163
 3102SOL    HW2 9320   4.092   4.450   3.140
 3103SOL     OW 9321   4.290   4.261   2.727
 3103SOL    HW1 9322   4.302   4.327   2.653
 3103SOL    HW2 9323   4.336   4.295   2.810
 3104SOL     OW 9324   4.228   3.774   3.602
 3104SOL    HW1 9325   4.186   3.717   3.532
 3104SOL    HW2 9326   4.162   3.843   3.634
 3105SOL     OW 9327   4.031   3.937   3.093
 3105SOL    HW1 9328   4.008   3.974   3.183
 3105SOL    HW2 9329   4.001   3.842   3.087
 3106SOL     OW 9330   4.456   4.358   2.926
 3106SOL    HW1 9331   4.515   4.332   2.850
 3106SOL    HW2 9332   4.428   4.454   2.915
 3107SOL     OW 9333   4.031   3.787   2.480
 3107SOL    HW1 9334   4.020   3.881   2.513
 3107SOL    HW2 9335   4.026   3.724   2.557
 3108SOL     OW 9336   4.043   4.534   2.811
 3108SOL    HW1 9337   4.136   4.570   2.816
 3108SOL    HW2 9338   4.037   4.449   2.863
 3109SOL     OW 9339   4.063   4.233   2.868
 3109SOL    HW1 9340   4.011   4.150   2.851
 3109SOL    HW2 9341   4.140   4.238   2.804
 3110SOL     OW 9342   3.764   4.268   2.976
 3110SOL    HW1 9343   3.849   4.235   2.935
 3110SOL    HW2 9344   3.777   4.283   3.074
 3111SOL     OW 9345   3.913   4.244   3.584
 3111SOL    HW1 9346   3.972   4.204   3.514
 3111SOL    HW2 9347   3.855   4.315   3.543
 3112SOL     OW 9348   4.539   4.296   2.187
 3112SOL    HW1 9349   4.546   4.207   2.141
 3112SOL    HW2 9350   4.445   4.330   2.179
 3113SOL     OW 9351   4.395   4.188   3.131
 3113SOL    HW1 9352   4.361   4.099   3.101
 3113SOL    HW2 9353   4.421   4.242   3.051
 3114SOL     OW 9354   4.197   4.224   2.053
 3114SOL    HW1 9355   4.258   4.304   2.057
 3114SOL    HW2 9356   4.102   4.255   2.060
 3115SOL     OW 9357   4.627   3.810   1.995
 3115SOL    HW1 9358   4.678   3.811   1.909
 3115SOL    HW2 9359   4.683   3.768   2.066
 3116SOL     OW 9360   3.987   4.050   2.582
 3116SOL    HW1 9361   3.908   4.101   2.548
 3116SOL    HW2 9362   3.978   4.035   2.680
 3117SOL     OW 9363   3.829   4.737   3.588
 3117SOL    HW1 9364   3.752   4.704   3.642
 3117SOL    HW2 9365   3.914   4.707   3.630
 3118SOL     OW 9366   4.396   3.927   3.351
 3118SOL    HW1 9367   4.486   3.911   3.311
 3118SOL    HW2 9368   4.404   3.932   3.450
 3119SOL     OW 9369   3.799   4.069   1.895
 3119SOL    HW1 9370   3.707   4.041   1.866
 3119SOL    HW2 9371   3.830   4.146   1.839
 3120SOL     OW 9372   3.796   3.890   2.180
 3120SOL    HW1 9373   3.779   3.973   2.126
 3120SOL    HW2 9374   3.886   3.853   2.158
 3121SOL     OW 9375   4.337   4.566   3.293
 3121SOL    HW1 9376   4.393   4.647   3.276
 3121SOL    HW2 9377   4.396   4.486   3.296
 3122SOL     OW 9378   4.440   4.289   3.570
 3122SOL    HW1 9379   4.459   4.354   3.644
 3122SOL    HW2 9380   4.500   4.209   3.579
 3123SOL     OW 9381   4.318   4.469   2.514
 3123SOL    HW1 9382   4.368   4.554   2.495
 3123SOL    HW2 9383   4.230   4.471   2.466
 3124SOL     OW 9384   4.152   4.148   2.382
 3124SOL    HW1 9385   4.182   4.076   2.320
 3124SOL    HW2 9386   4.113   4.108   2.465
 3125SOL     OW 9387   4.041   4.271   3.142
 3125SOL    HW1 9388   4.079   4.212   3.214
 3125SOL    HW2 9389   4.081   4.245   3.054
 3126SOL     OW 9390   3.954   4.352   3.837
 3126SOL    HW1 9391   3.861   4.350   3.874
 3126SOL    HW2 9392   3.955   4.313   3.745
 3127SOL     OW 9393   3.743   4.092   4.371
 3127SOL    HW1 9394   3.661   4.135   4.410
 3127SOL    HW2 9395   3.715   4.019   4.308
 3128SOL     OW 9396   4.409   4.736   4.389
 3128SOL    HW1 9397   4.478   4.720   4.459
 3128SOL    HW2 9398   4.336   4.793   4.427
 3129SOL     OW 9399   3.846   4.367   4.287
 3129SOL    HW1 9400   3.801   4.279   4.304
 3129SOL    HW2 9401   3.845   4.421   4.371
 3130SOL     OW 9402   4.533   3.728   4.226
 3130SOL    HW1 9403   4.573   3.819   4.217
 3130SOL    HW2 9404   4.433   3.736   4.232
 3131SOL     OW 9405   4.322   4.453   3.994
 3131SOL    HW1 9406   4.346   4.522   3.926
 3131SOL    HW2 9407   4.244   4.486   4.048
 3132SOL     OW 9408   4.106   4.424   4.204
 3132SOL    HW1 9409   4.151   4.334   4.201
 3132SOL    HW2 9410   4.012   4.413   4.237
 3133SOL     OW 9411   4.338   3.846   3.841
 3133SOL    HW1 9412   4.436   3.824   3.848
 3133SOL    HW2 9413   4.307   3.829   3.748
 3134SOL     OW 9414   4.263   3.788   4.236
 3134SOL    HW1 9415   4.182   3.789   4.294
 3134SOL    HW2 9416   4.266   3.871   4.181
 3135SOL     OW 9417   4.021   3.759   3.895
 3135SOL    HW1 9418   4.070   3.843   3.874
 3135SOL    HW2 9419   4.083   3.694   3.940
 3136SOL     OW 9420   4.183   4.876   4.465
 3136SOL    HW1 9421   4.112   4.849   4.530
 3136SOL    HW2 9422   4.157   4.848   4.372
 3137SOL     OW 9423   4.741   3.763   4.477
 3137SOL    HW1 9424   4.669   3.768   4.408
 3137SOL    HW2 9425   4.717   3.694   4.546
 3138SOL     OW 9426   4.251   3.980   4.052
 3138SOL    HW1 9427   4.278   3.921   3.977
 3138SOL    HW2 9428   4.251   4.075   4.021
 3139SOL     OW 9429   4.429   4.774   4.092
 3139SOL    HW1 9430   4.415   4.781   4.191
 3139SOL    HW2 9431   4.513   4.723   4.074
 3140SOL     OW 9432   4.290   4.261   4.589
 3140SOL    HW1 9433   4.302   4.327   4.515
 3140SOL    HW2 9434   4.336   4.295   4.672
 3141SOL     OW 9435   4.031   3.787   4.342
 3141SOL    HW1 9436   4.020   3.881   4.375
 3141SOL    HW2 9437   4.026   3.724   4.419
 3142SOL     OW 9438   4.539   4.296   4.049
 3142SOL    HW1 9439   4.546   4.207   4.003
 3142SOL    HW2 9440   4.445   4.330   4.041
 3143SOL     OW 9441   4.197   4.224   3.915
 3143SOL    HW1 9442   4.258   4.304   3.919
 3143SOL    HW2 9443   4.102   4.255   3.922
 3144SOL     OW 9444   4.627   3.810   3.857
 3144SOL    HW1 9445   4.678   3.811   3.771
 3144SOL    HW2 9446   4.683   3.768   3.928
 3145SOL     OW 9447   3.987   4.050   4.444
 3145SOL    HW1 9448   3.908   4.101   4.410
 3145SOL    HW2 9449   3.978   4.035   4.542
 3146SOL     OW 9450   3.799   4.069   3.757
 3146SOL    HW1 9451   3.707   4.041   3.728
 3146SOL    HW2 9452   3.830   4.146   3.701
 3147SOL     OW 9453   3.796   3.890   4.042
 3147SOL    HW1 9454   3.779   3.973   3.988
 3147SOL    HW2 9455   3.886   3.853   4.020
 3148SOL     OW 9456   4.318   4.469   4.376
 3148SOL    HW1 9457   4.368   4.554   4.357
 3148SOL    HW2 9458   4.230   4.471   4.328
 3149SOL     OW 9459   4.152   4.148   4.244
 3149SOL    HW1 9460   4.182   4.076   4.182
 3149SOL    HW2 9461   4.113   4.108   4.327
   4.59230   4.59230   4.59230
