; mobley_296847_GMX.top created by acpype (v: 2023.10.27) on Wed May 20 23:52:05 2026

[ defaults ]
; nbfunc        comb-rule       gen-pairs       fudgeLJ fudgeQQ
1               2               yes             0.5     0.8333333333

; Include mobley_296847_GMX.itp topology
#include "mobley_296847_GMX.itp"

; Ligand position restraints
#ifdef POSRES_LIG
#include "posre_mobley_296847.itp"
#endif

[ system ]
mobley_296847 in water

[ molecules ]
; Compound        nmols
 mobley_296847    1     
SOL              2939
