pyridine
    11
   1.2860000  -0.0600000   1.7330000   0.1840000  -0.4390000   0.9740000
   1.4970000  -0.6400000   2.9790000  -0.6700000  -1.3940000   1.5010000
   0.5840000  -1.5860000   3.4170000  -0.4980000  -1.9790000   2.7080000
   1.9790000   0.6850000   1.3550000   0.0000000  -0.0000000  -0.0010000
   2.3490000  -0.3600000   3.5880000  -1.5430000  -1.7240000   0.9480000
   0.7030000  -2.0680000   4.3820000
