mobley_4689084_GMX.gro created by acpype (v: 2023.10.27) on Wed May 20 23:44:07 2026
10172
    1MOL     C1    1   2.250   2.328   2.487
    1MOL     C2    2   2.408   2.321   2.194
    1MOL     C3    3   2.100   2.328   2.487
    1MOL     C4    4   2.446   2.187   2.137
    1MOL     C5    5   2.439   2.473   2.480
    1MOL     C6    6   2.487   2.493   2.337
    1MOL     O1    7   2.319   2.230   2.486
    1MOL     O2    8   2.304   2.375   2.177
    1MOL     O3    9   2.298   2.452   2.487
    1MOL     O4   10   2.506   2.371   2.268
    1MOL     H1   11   2.066   2.365   2.391
    1MOL     H2   12   2.062   2.394   2.564
    1MOL     H3   13   2.064   2.227   2.502
    1MOL     H4   14   2.544   2.192   2.090
    1MOL     H5   15   2.451   2.115   2.218
    1MOL     H6   16   2.371   2.156   2.065
    1MOL     H7   17   2.491   2.391   2.527
    1MOL     H8   18   2.456   2.564   2.535
    1MOL     H9   19   2.418   2.557   2.282
    1MOL    H10   20   2.584   2.539   2.340
    2SOL     OW   21   0.230   0.628   0.113
    2SOL    HW1   22   0.137   0.626   0.150
    2SOL    HW2   23   0.231   0.589   0.021
    3SOL     OW   24   0.225   0.275   0.996
    3SOL    HW1   25   0.260   0.258   1.088
    3SOL    HW2   26   0.137   0.230   0.984
    4SOL     OW   27   0.019   0.368   0.647
    4SOL    HW1   28  -0.063   0.411   0.686
    4SOL    HW2   29  -0.009   0.295   0.584
    5SOL     OW   30   0.569   1.275   1.165
    5SOL    HW1   31   0.476   1.268   1.128
    5SOL    HW2   32   0.580   1.364   1.209
    6SOL     OW   33   1.555   1.511   0.703
    6SOL    HW1   34   1.498   1.495   0.784
    6SOL    HW2   35   1.496   1.521   0.623
    7SOL     OW   36   1.135   0.703   0.717
    7SOL    HW1   37   1.192   0.781   0.692
    7SOL    HW2   38   1.075   0.729   0.793
    8SOL     OW   39   1.755   0.607   0.231
    8SOL    HW1   40   1.743   0.594   0.132
    8SOL    HW2   41   1.725   0.526   0.280
    9SOL     OW   42   0.768   1.144   1.023
    9SOL    HW1   43   0.690   1.161   1.083
    9SOL    HW2   44   0.802   1.231   0.987
   10SOL     OW   45   0.850   0.798   1.823
   10SOL    HW1   46   0.846   0.874   1.888
   10SOL    HW2   47   0.872   0.834   1.732
   11SOL     OW   48   0.685   1.012   0.665
   11SOL    HW1   49   0.754   0.996   0.735
   11SOL    HW2   50   0.612   1.069   0.703
   12SOL     OW   51   0.686   1.161   1.803
   12SOL    HW1   52   0.746   1.240   1.817
   12SOL    HW2   53   0.600   1.192   1.762
   13SOL     OW   54   0.335   1.435   1.061
   13SOL    HW1   55   0.257   1.404   1.008
   13SOL    HW2   56   0.393   1.493   1.004
   14SOL     OW   57   1.460   1.505   1.339
   14SOL    HW1   58   1.484   1.599   1.365
   14SOL    HW2   59   1.444   1.451   1.421
   15SOL     OW   60   0.438   0.392   1.499
   15SOL    HW1   61   0.520   0.336   1.508
   15SOL    HW2   62   0.357   0.334   1.503
   16SOL     OW   63   1.603   0.447   0.737
   16SOL    HW1   64   1.529   0.493   0.687
   16SOL    HW2   65   1.654   0.515   0.790
   17SOL     OW   66   0.231   1.713   0.483
   17SOL    HW1   67   0.265   1.790   0.537
   17SOL    HW2   68   0.275   1.713   0.393
   18SOL     OW   69   1.127   1.341   1.690
   18SOL    HW1   70   1.174   1.341   1.778
   18SOL    HW2   71   1.079   1.254   1.679
   19SOL     OW   72   0.230   1.434   0.538
   19SOL    HW1   73   0.204   1.530   0.538
   19SOL    HW2   74   0.159   1.380   0.583
   20SOL     OW   75   0.240   1.091   0.886
   20SOL    HW1   76   0.254   1.007   0.938
   20SOL    HW2   77   0.185   1.155   0.941
   21SOL     OW   78   0.620   1.786   1.439
   21SOL    HW1   79   0.528   1.769   1.474
   21SOL    HW2   80   0.648   1.878   1.465
   22SOL     OW   81   0.606   0.964   0.123
   22SOL    HW1   82   0.613   1.048   0.069
   22SOL    HW2   83   0.652   0.977   0.211
   23SOL     OW   84   1.594   0.114   1.480
   23SOL    HW1   85   1.576   0.181   1.408
   23SOL    HW2   86   1.591   0.160   1.569
   24SOL     OW   87   0.122   0.643   0.563
   24SOL    HW1   88   0.077   0.555   0.580
   24SOL    HW2   89   0.121   0.697   0.647
   25SOL     OW   90   1.842   1.767   0.359
   25SOL    HW1   91   1.896   1.738   0.439
   25SOL    HW2   92   1.872   1.857   0.330
   26SOL     OW   93   0.027   1.596   0.117
   26SOL    HW1   94   0.008   1.500   0.138
   26SOL    HW2   95  -0.006   1.654   0.192
   27SOL     OW   96   1.689   0.922   0.612
   27SOL    HW1   97   1.784   0.893   0.620
   27SOL    HW2   98   1.681   0.987   0.537
   28SOL     OW   99   1.641   1.108   0.432
   28SOL    HW1  100   1.727   1.110   0.380
   28SOL    HW2  101   1.655   1.155   0.520
   29SOL     OW  102   0.113   0.737   1.597
   29SOL    HW1  103   0.201   0.724   1.642
   29SOL    HW2  104   0.100   0.834   1.575
   30SOL     OW  105   0.613   1.365   0.726
   30SOL    HW1  106   0.564   1.278   0.735
   30SOL    HW2  107   0.590   1.408   0.639
   31SOL     OW  108   1.293   1.228   1.423
   31SOL    HW1  109   1.330   1.155   1.365
   31SOL    HW2  110   1.345   1.233   1.508
   32SOL     OW  111   0.809   0.004   0.502
   32SOL    HW1  112   0.849   0.095   0.493
   32SOL    HW2  113   0.709   0.012   0.508
   33SOL     OW  114   0.197   0.976   1.264
   33SOL    HW1  115   0.286   0.931   1.250
   33SOL    HW2  116   0.124   0.911   1.245
   34SOL     OW  117   1.525   0.999   0.190
   34SOL    HW1  118   1.462   0.923   0.203
   34SOL    HW2  119   1.573   1.017   0.276
   35SOL     OW  120   1.187   1.792   1.616
   35SOL    HW1  121   1.211   1.852   1.540
   35SOL    HW2  122   1.194   1.697   1.586
   36SOL     OW  123   0.317   0.251   1.801
   36SOL    HW1  124   0.388   0.322   1.807
   36SOL    HW2  125   0.229   0.290   1.829
   37SOL     OW  126   1.466   1.417   0.953
   37SOL    HW1  127   1.407   1.423   1.033
   37SOL    HW2  128   1.451   1.329   0.907
   38SOL     OW  129   1.667   1.714   0.572
   38SOL    HW1  130   1.626   1.691   0.484
   38SOL    HW2  131   1.649   1.640   0.637
   39SOL     OW  132   0.598   0.729   0.270
   39SOL    HW1  133   0.622   0.798   0.202
   39SOL    HW2  134   0.520   0.762   0.324
   40SOL     OW  135   1.281   0.345   0.944
   40SOL    HW1  136   1.195   0.295   0.931
   40SOL    HW2  137   1.343   0.291   1.000
   41SOL     OW  138   1.576   1.662   0.307
   41SOL    HW1  139   1.665   1.708   0.310
   41SOL    HW2  140   1.555   1.638   0.212
   42SOL     OW  141   0.807   0.605   1.465
   42SOL    HW1  142   0.760   0.602   1.554
   42SOL    HW2  143   0.756   0.550   1.399
   43SOL     OW  144   1.394   0.469   1.674
   43SOL    HW1  145   1.374   0.512   1.762
   43SOL    HW2  146   1.472   0.407   1.683
   44SOL     OW  147   0.973   0.890   1.572
   44SOL    HW1  148   1.019   0.806   1.543
   44SOL    HW2  149   0.917   0.924   1.497
   45SOL     OW  150   0.991   0.410   1.242
   45SOL    HW1  151   0.914   0.444   1.296
   45SOL    HW2  152   0.957   0.359   1.163
   46SOL     OW  153   1.041   0.701   0.429
   46SOL    HW1  154   1.067   0.697   0.525
   46SOL    HW2  155   0.956   0.650   0.415
   47SOL     OW  156   0.076   0.811   0.789
   47SOL    HW1  157   0.175   0.799   0.798
   47SOL    HW2  158   0.052   0.906   0.810
   48SOL     OW  159   0.130   1.821   1.571
   48SOL    HW1  160   0.120   1.806   1.670
   48SOL    HW2  161   0.044   1.857   1.535
   49SOL     OW  162   0.865   0.348   0.195
   49SOL    HW1  163   0.924   0.411   0.146
   49SOL    HW2  164   0.884   0.254   0.166
   50SOL     OW  165   1.719   0.585   1.831
   50SOL    HW1  166   1.693   0.674   1.795
   50SOL    HW2  167   1.717   0.517   1.758
   51SOL     OW  168   1.362   1.144   0.545
   51SOL    HW1  169   1.445   1.115   0.497
   51SOL    HW2  170   1.313   1.211   0.489
   52SOL     OW  171   0.550   0.196   0.885
   52SOL    HW1  172   0.545   0.191   0.985
   52SOL    HW2  173   0.552   0.292   0.856
   53SOL     OW  174   1.008   1.456   0.477
   53SOL    HW1  175   0.962   1.528   0.425
   53SOL    HW2  176   1.004   1.476   0.575
   54SOL     OW  177   0.351   1.801   0.853
   54SOL    HW1  178   0.401   1.715   0.859
   54SOL    HW2  179   0.416   1.878   0.850
   55SOL     OW  180   1.795   1.066   0.873
   55SOL    HW1  181   1.733   1.051   0.797
   55SOL    HW2  182   1.743   1.077   0.958
   56SOL     OW  183   1.227   1.550   1.506
   56SOL    HW1  184   1.233   1.473   1.570
   56SOL    HW2  185   1.175   1.524   1.426
   57SOL     OW  186   0.321   0.943   0.242
   57SOL    HW1  187   0.403   0.982   0.200
   57SOL    HW2  188   0.294   0.861   0.193
   58SOL     OW  189   1.458   0.735   0.728
   58SOL    HW1  190   1.453   0.670   0.803
   58SOL    HW2  191   1.538   0.794   0.741
   59SOL     OW  192   0.461   1.266   1.727
   59SOL    HW1  193   0.411   1.267   1.641
   59SOL    HW2  194   0.398   1.248   1.803
   60SOL     OW  195   1.111   1.776   0.237
   60SOL    HW1  196   1.051   1.714   0.287
   60SOL    HW2  197   1.142   1.732   0.152
   61SOL     OW  198   0.202   0.285   1.498
   61SOL    HW1  199   0.122   0.345   1.485
   61SOL    HW2  200   0.192   0.236   1.584
   62SOL     OW  201   1.632   1.377   0.081
   62SOL    HW1  202   1.600   1.471   0.071
   62SOL    HW2  203   1.556   1.314   0.069
   63SOL     OW  204   0.464   1.743   0.323
   63SOL    HW1  205   0.497   1.782   0.409
   63SOL    HW2  206   0.540   1.736   0.258
   64SOL     OW  207   1.400   0.107   0.426
   64SOL    HW1  208   1.376   0.070   0.336
   64SOL    HW2  209   1.499   0.123   0.430
   65SOL     OW  210   0.249   1.785   1.241
   65SOL    HW1  211   0.306   1.720   1.291
   65SOL    HW2  212   0.233   1.752   1.148
   66SOL     OW  213   0.940   1.698   0.904
   66SOL    HW1  214   1.020   1.641   0.925
   66SOL    HW2  215   0.891   1.658   0.827
   67SOL     OW  216   0.382   0.700   0.480
   67SOL    HW1  217   0.427   0.610   0.477
   67SOL    HW2  218   0.288   0.689   0.513
   68SOL     OW  219   1.547   0.222   1.729
   68SOL    HW1  220   1.542   0.259   1.821
   68SOL    HW2  221   1.475   0.153   1.717
   69SOL     OW  222   0.614   0.122   0.117
   69SOL    HW1  223   0.712   0.100   0.124
   69SOL    HW2  224   0.583   0.105   0.024
   70SOL     OW  225   0.781   0.264   1.749
   70SOL    HW1  226   0.848   0.203   1.792
   70SOL    HW2  227   0.708   0.283   1.814
   71SOL     OW  228   0.888   1.514   1.195
   71SOL    HW1  229   0.865   1.489   1.101
   71SOL    HW2  230   0.949   1.445   1.234
   72SOL     OW  231   1.351   0.590   1.433
   72SOL    HW1  232   1.379   0.547   1.518
   72SOL    HW2  233   1.376   0.686   1.434
   73SOL     OW  234   0.803   1.402   0.924
   73SOL    HW1  235   0.893   1.416   0.882
   73SOL    HW2  236   0.732   1.404   0.853
   74SOL     OW  237   0.922   0.503   0.899
   74SOL    HW1  238   0.897   0.494   0.803
   74SOL    HW2  239   0.970   0.421   0.930
   75SOL     OW  240   0.539   0.064   0.512
   75SOL    HW1  241   0.458   0.065   0.570
   75SOL    HW2  242   0.542   0.147   0.457
   76SOL     OW  243   1.434   1.188   0.041
   76SOL    HW1  244   1.466   1.112   0.098
   76SOL    HW2  245   1.342   1.215   0.071
   77SOL     OW  246   0.297   0.035   0.171
   77SOL    HW1  247   0.346   0.119   0.150
   77SOL    HW2  248   0.359  -0.030   0.216
   78SOL     OW  249   0.935   0.236   0.480
   78SOL    HW1  250   0.887   0.277   0.402
   78SOL    HW2  251   1.034   0.234   0.461
   79SOL     OW  252   1.076   0.683   1.464
   79SOL    HW1  253   0.996   0.622   1.467
   79SOL    HW2  254   1.157   0.630   1.440
   80SOL     OW  255   1.227   1.570   0.793
   80SOL    HW1  256   1.248   1.644   0.728
   80SOL    HW2  257   1.295   1.570   0.866
   81SOL     OW  258   0.459   1.152   0.741
   81SOL    HW1  259   0.388   1.125   0.806
   81SOL    HW2  260   0.433   1.124   0.648
   82SOL     OW  261   1.271   1.797   0.591
   82SOL    HW1  262   1.315   1.861   0.527
   82SOL    HW2  263   1.221   1.849   0.661
   83SOL     OW  264   1.032   0.549   0.016
   83SOL    HW1  265   0.991   0.631  -0.023
   83SOL    HW2  266   1.096   0.575   0.089
   84SOL     OW  267   0.078   0.556   1.386
   84SOL    HW1  268   0.170   0.555   1.345
   84SOL    HW2  269   0.072   0.630   1.453
   85SOL     OW  270   0.561   0.222   1.147
   85SOL    HW1  271   0.599   0.138   1.184
   85SOL    HW2  272   0.473   0.241   1.191
   86SOL     OW  273   0.866   0.454   0.642
   86SOL    HW1  274   0.834   0.526   0.580
   86SOL    HW2  275   0.890   0.373   0.589
   87SOL     OW  276   1.017   0.039   0.753
   87SOL    HW1  277   0.945   0.044   0.684
   87SOL    HW2  278   0.993  -0.030   0.822
   88SOL     OW  279   1.429   1.173   0.867
   88SOL    HW1  280   1.374   1.089   0.860
   88SOL    HW2  281   1.455   1.202   0.775
   89SOL     OW  282   1.466   0.590   0.992
   89SOL    HW1  283   1.436   0.495   0.999
   89SOL    HW2  284   1.539   0.606   1.058
   90SOL     OW  285   1.857   0.833   0.377
   90SOL    HW1  286   1.899   0.769   0.441
   90SOL    HW2  287   1.819   0.782   0.299
   91SOL     OW  288   0.488   1.385   0.174
   91SOL    HW1  289   0.401   1.370   0.221
   91SOL    HW2  290   0.471   1.411   0.079
   92SOL     OW  291   1.664   1.280   0.657
   92SOL    HW1  292   1.763   1.288   0.671
   92SOL    HW2  293   1.619   1.364   0.688
   93SOL     OW  294   1.390   0.575   0.078
   93SOL    HW1  295   1.336   0.554   0.159
   93SOL    HW2  296   1.481   0.534   0.087
   94SOL     OW  297   0.527   0.256   0.328
   94SOL    HW1  298   0.554   0.197   0.253
   94SOL    HW2  299   0.527   0.351   0.297
   95SOL     OW  300   1.754   1.223   1.588
   95SOL    HW1  301   1.845   1.184   1.575
   95SOL    HW2  302   1.762   1.319   1.612
   96SOL     OW  303   1.064   1.347   1.340
   96SOL    HW1  304   0.984   1.324   1.395
   96SOL    HW2  305   1.147   1.321   1.389
   97SOL     OW  306   1.592   1.629   1.625
   97SOL    HW1  307   1.619   1.663   1.535
   97SOL    HW2  308   1.671   1.591   1.671
   98SOL     OW  309   1.111   1.195   1.100
   98SOL    HW1  310   1.071   1.239   1.181
   98SOL    HW2  311   1.070   1.232   1.017
   99SOL     OW  312   1.638   1.099   1.079
   99SOL    HW1  313   1.643   1.180   1.138
   99SOL    HW2  314   1.552   1.101   1.028
  100SOL     OW  315   0.915   0.089   1.402
  100SOL    HW1  316   0.940   0.069   1.307
  100SOL    HW2  317   0.987   0.145   1.444
  101SOL     OW  318   0.980   1.116   1.719
  101SOL    HW1  319   0.881   1.122   1.729
  101SOL    HW2  320   1.003   1.036   1.663
  102SOL     OW  321   0.705   1.050   0.368
  102SOL    HW1  322   0.691   1.057   0.467
  102SOL    HW2  323   0.789   0.999   0.350
  103SOL     OW  324   0.410   0.813   1.251
  103SOL    HW1  325   0.496   0.825   1.301
  103SOL    HW2  326   0.368   0.726   1.278
  104SOL     OW  327   1.274   0.386   1.262
  104SOL    HW1  328   1.295   0.460   1.326
  104SOL    HW2  329   1.185   0.403   1.219
  105SOL     OW  330   0.064   1.564   1.331
  105SOL    HW1  331   0.018   1.646   1.297
  105SOL    HW2  332   0.162   1.583   1.340
  106SOL     OW  333   0.367   1.100   0.501
  106SOL    HW1  334   0.360   1.183   0.445
  106SOL    HW2  335   0.371   1.020   0.441
  107SOL     OW  336   0.566   0.537   0.865
  107SOL    HW1  337   0.578   0.603   0.791
  107SOL    HW2  338   0.612   0.571   0.948
  108SOL     OW  339   1.252   1.348   0.388
  108SOL    HW1  340   1.302   1.425   0.428
  108SOL    HW2  341   1.157   1.350   0.420
  109SOL     OW  342   1.272   1.445   1.142
  109SOL    HW1  343   1.319   1.458   1.229
  109SOL    HW2  344   1.206   1.371   1.151
  110SOL     OW  345   1.582   0.639   0.472
  110SOL    HW1  346   1.551   0.700   0.545
  110SOL    HW2  347   1.632   0.691   0.403
  111SOL     OW  348   0.354   1.510   1.329
  111SOL    HW1  349   0.333   1.466   1.242
  111SOL    HW2  350   0.451   1.536   1.332
  112SOL     OW  351   0.402   0.751   1.598
  112SOL    HW1  352   0.470   0.806   1.551
  112SOL    HW2  353   0.442   0.663   1.625
  113SOL     OW  354   1.587   0.779   1.670
  113SOL    HW1  355   1.495   0.817   1.665
  113SOL    HW2  356   1.647   0.826   1.605
  114SOL     OW  357   1.013   0.105   1.770
  114SOL    HW1  358   1.019   0.190   1.718
  114SOL    HW2  359   1.045   0.029   1.713
  115SOL     OW  360   0.504   0.050   1.740
  115SOL    HW1  361   0.462  -0.007   1.670
  115SOL    HW2  362   0.438   0.119   1.772
  116SOL     OW  363   0.573   0.870   1.029
  116SOL    HW1  364   0.617   0.959   1.020
  116SOL    HW2  365   0.510   0.870   1.106
  117SOL     OW  366   1.360   0.862   1.045
  117SOL    HW1  367   1.285   0.862   0.979
  117SOL    HW2  368   1.397   0.770   1.054
  118SOL     OW  369   1.209   0.525   0.275
  118SOL    HW1  370   1.222   0.441   0.329
  118SOL    HW2  371   1.180   0.599   0.335
  119SOL     OW  372   0.307   0.213   1.231
  119SOL    HW1  373   0.284   0.250   1.321
  119SOL    HW2  374   0.277   0.118   1.225
  120SOL     OW  375   0.037   1.310   1.282
  120SOL    HW1  376   0.090   1.261   1.350
  120SOL    HW2  377   0.059   1.408   1.287
  121SOL     OW  378   0.732   0.634   1.064
  121SOL    HW1  379   0.791   0.608   0.988
  121SOL    HW2  380   0.704   0.730   1.053
  122SOL     OW  381   1.728   0.935   1.854
  122SOL    HW1  382   1.682   0.928   1.765
  122SOL    HW2  383   1.666   0.979   1.920
  123SOL     OW  384   0.307   0.063   0.618
  123SOL    HW1  385   0.296   0.157   0.651
  123SOL    HW2  386   0.302   0.000   0.695
  124SOL     OW  387   1.622   0.367   0.374
  124SOL    HW1  388   1.624   0.291   0.438
  124SOL    HW2  389   1.574   0.444   0.414
  125SOL     OW  390   1.023   0.766   0.966
  125SOL    HW1  391   1.038   0.787   1.062
  125SOL    HW2  392   0.993   0.671   0.957
  126SOL     OW  393   0.980   1.573   1.700
  126SOL    HW1  394   0.960   1.617   1.612
  126SOL    HW2  395   1.019   1.482   1.684
  127SOL     OW  396   1.859   1.518   1.605
  127SOL    HW1  397   1.873   1.545   1.510
  127SOL    HW2  398   1.942   1.540   1.658
  128SOL     OW  399   0.350   0.898   1.804
  128SOL    HW1  400   0.426   0.942   1.852
  128SOL    HW2  401   0.385   0.851   1.722
  129SOL     OW  402   1.540   0.274   0.125
  129SOL    HW1  403   1.479   0.199   0.148
  129SOL    HW2  404   1.562   0.326   0.208
  130SOL     OW  405   1.303   0.838   0.042
  130SOL    HW1  406   1.337   0.745   0.057
  130SOL    HW2  407   1.321   0.865  -0.053
  131SOL     OW  408   1.068   1.333   0.849
  131SOL    HW1  409   1.075   1.249   0.794
  131SOL    HW2  410   1.130   1.402   0.813
  132SOL     OW  411   0.319   0.810   0.949
  132SOL    HW1  412   0.412   0.846   0.954
  132SOL    HW2  413   0.313   0.725   1.001
  133SOL     OW  414   0.339   0.509   1.006
  133SOL    HW1  415   0.287   0.426   0.989
  133SOL    HW2  416   0.416   0.514   0.942
  134SOL     OW  417   1.138   0.380   1.678
  134SOL    HW1  418   1.093   0.443   1.742
  134SOL    HW2  419   1.231   0.411   1.661
  135SOL     OW  420   1.160   0.207   1.477
  135SOL    HW1  421   1.160   0.271   1.554
  135SOL    HW2  422   1.188   0.255   1.394
  136SOL     OW  423   0.008   1.326   0.200
  136SOL    HW1  424  -0.085   1.347   0.169
  136SOL    HW2  425   0.018   1.227   0.213
  137SOL     OW  426   0.088   1.801   0.927
  137SOL    HW1  427   0.046   1.715   0.900
  137SOL    HW2  428   0.182   1.804   0.893
  138SOL     OW  429   0.504   1.568   0.910
  138SOL    HW1  430   0.570   1.642   0.919
  138SOL    HW2  431   0.548   1.489   0.868
  139SOL     OW  432   1.002   0.796   1.238
  139SOL    HW1  433   1.043   0.764   1.324
  139SOL    HW2  434   0.906   0.769   1.235
  140SOL     OW  435   0.040   0.544   1.114
  140SOL    HW1  436   0.125   0.511   1.073
  140SOL    HW2  437   0.053   0.559   1.212
  141SOL     OW  438   0.189   0.520   1.722
  141SOL    HW1  439   0.248   0.480   1.652
  141SOL    HW2  440   0.131   0.591   1.681
  142SOL     OW  441   1.369   0.950   1.660
  142SOL    HW1  442   1.408   1.039   1.680
  142SOL    HW2  443   1.379   0.930   1.563
  143SOL     OW  444   0.815   0.572   0.325
  143SOL    HW1  445   0.822   0.483   0.279
  143SOL    HW2  446   0.721   0.606   0.317
  144SOL     OW  447   1.657   0.604   1.206
  144SOL    HW1  448   1.619   0.535   1.268
  144SOL    HW2  449   1.739   0.568   1.162
  145SOL     OW  450   0.252   1.564   1.744
  145SOL    HW1  451   0.222   1.621   1.820
  145SOL    HW2  452   0.245   1.467   1.770
  146SOL     OW  453   0.671   0.464   1.269
  146SOL    HW1  454   0.637   0.375   1.239
  146SOL    HW2  455   0.697   0.518   1.189
  147SOL     OW  456   0.930   1.678   1.465
  147SOL    HW1  457   0.906   1.660   1.370
  147SOL    HW2  458   0.960   1.772   1.475
  148SOL     OW  459   0.473   0.500   0.191
  148SOL    HW1  460   0.534   0.580   0.195
  148SOL    HW2  461   0.378   0.531   0.198
  149SOL     OW  462   0.159   1.137   1.466
  149SOL    HW1  463   0.181   1.076   1.542
  149SOL    HW2  464   0.169   1.088   1.380
  150SOL     OW  465   1.347   1.059   1.234
  150SOL    HW1  466   1.371   0.996   1.160
  150SOL    HW2  467   1.257   1.099   1.216
  151SOL     OW  468   1.302   0.855   0.309
  151SOL    HW1  469   1.216   0.824   0.351
  151SOL    HW2  470   1.298   0.841   0.210
  152SOL     OW  471   1.759   1.747   1.154
  152SOL    HW1  472   1.820   1.777   1.081
  152SOL    HW2  473   1.721   1.658   1.132
  153SOL     OW  474   1.252   1.731   1.128
  153SOL    HW1  475   1.336   1.736   1.074
  153SOL    HW2  476   1.229   1.635   1.146
  154SOL     OW  477   0.083   1.258   1.022
  154SOL    HW1  478   0.078   1.257   1.122
  154SOL    HW2  479   0.000   1.217   0.984
  155SOL     OW  480   0.688   1.662   1.716
  155SOL    HW1  481   0.632   1.743   1.725
  155SOL    HW2  482   0.740   1.666   1.630
  156SOL     OW  483   0.903   0.086   0.133
  156SOL    HW1  484   0.954   0.087   0.047
  156SOL    HW2  485   0.959   0.044   0.204
  157SOL     OW  486   1.726   0.135   0.523
  157SOL    HW1  487   1.799   0.118   0.456
  157SOL    HW2  488   1.695   0.048   0.561
  158SOL     OW  489   1.388   1.573   0.477
  158SOL    HW1  490   1.455   1.585   0.403
  158SOL    HW2  491   1.348   1.662   0.500
  159SOL     OW  492   0.130   1.794   1.851
  159SOL    HW1  493   0.089   1.720   1.904
  159SOL    HW2  494   0.194   1.845   1.909
  160SOL     OW  495   1.280   0.927   0.672
  160SOL    HW1  496   1.340   0.846   0.674
  160SOL    HW2  497   1.320   0.996   0.612
  161SOL     OW  498   0.830   1.273   1.422
  161SOL    HW1  499   0.825   1.306   1.517
  161SOL    HW2  500   0.744   1.292   1.376
  162SOL     OW  501   0.672   1.616   0.154
  162SOL    HW1  502   0.681   1.626   0.055
  162SOL    HW2  503   0.632   1.527   0.175
  163SOL     OW  504   1.650   1.720   1.394
  163SOL    HW1  505   1.703   1.730   1.310
  163SOL    HW2  506   1.623   1.810   1.428
  164SOL     OW  507   1.841   0.175   0.963
  164SOL    HW1  508   1.880   0.090   0.927
  164SOL    HW2  509   1.743   0.177   0.944
  165SOL     OW  510   0.263   0.326   0.720
  165SOL    HW1  511   0.184   0.377   0.686
  165SOL    HW2  512   0.254   0.311   0.818
  166SOL     OW  513   1.194   1.612   0.031
  166SOL    HW1  514   1.200   1.519   0.068
  166SOL    HW2  515   1.135   1.612  -0.049
  167SOL     OW  516   0.822   1.002   1.372
  167SOL    HW1  517   0.862   1.001   1.280
  167SOL    HW2  518   0.832   1.094   1.412
  168SOL     OW  519   0.916   0.910   0.291
  168SOL    HW1  520   0.979   0.948   0.223
  168SOL    HW2  521   0.956   0.827   0.330
  169SOL     OW  522   1.504   1.607   0.044
  169SOL    HW1  523   1.412   1.644   0.051
  169SOL    HW2  524   1.542   1.627  -0.046
  170SOL     OW  525   0.372   1.288   1.490
  170SOL    HW1  526   0.359   1.381   1.456
  170SOL    HW2  527   0.288   1.236   1.477
  171SOL     OW  528   1.614   1.292   1.289
  171SOL    HW1  529   1.674   1.295   1.369
  171SOL    HW2  530   1.539   1.356   1.302
  172SOL     OW  531   1.039   1.098   0.696
  172SOL    HW1  532   0.969   1.051   0.750
  172SOL    HW2  533   1.098   1.030   0.653
  173SOL     OW  534   1.014   0.236   0.971
  173SOL    HW1  535   1.006   0.200   0.878
  173SOL    HW2  536   1.012   0.160   1.036
  174SOL     OW  537   0.590   1.487   0.491
  174SOL    HW1  538   0.632   1.429   0.421
  174SOL    HW2  539   0.546   1.566   0.447
  175SOL     OW  540   1.709   0.385   1.381
  175SOL    HW1  541   1.782   0.454   1.385
  175SOL    HW2  542   1.737   0.310   1.322
  176SOL     OW  543   0.255   1.348   0.290
  176SOL    HW1  544   0.159   1.349   0.263
  176SOL    HW2  545   0.267   1.401   0.374
  177SOL     OW  546   0.105   1.013   1.726
  177SOL    HW1  547   0.028   0.980   1.780
  177SOL    HW2  548   0.190   0.983   1.768
  178SOL     OW  549   0.672   0.203   1.489
  178SOL    HW1  550   0.762   0.187   1.449
  178SOL    HW2  551   0.680   0.208   1.588
  179SOL     OW  552   0.075   0.345   0.033
  179SOL    HW1  553  -0.017   0.317   0.004
  179SOL    HW2  554   0.106   0.422  -0.023
  180SOL     OW  555   1.440   0.856   1.398
  180SOL    HW1  556   1.383   0.908   1.335
  180SOL    HW2  557   1.536   0.868   1.374
  181SOL     OW  558   0.072   0.166   0.318
  181SOL    HW1  559   0.055   0.249   0.264
  181SOL    HW2  560   0.162   0.129   0.296
  182SOL     OW  561   1.183   1.335   0.119
  182SOL    HW1  562   1.084   1.324   0.121
  182SOL    HW2  563   1.217   1.350   0.212
  183SOL     OW  564   0.613   0.842   1.431
  183SOL    HW1  565   0.669   0.923   1.414
  183SOL    HW2  566   0.672   0.762   1.434
  184SOL     OW  567   1.493   1.767   0.959
  184SOL    HW1  568   1.526   1.831   0.890
  184SOL    HW2  569   1.559   1.761   1.034
  185SOL     OW  570   0.716   0.565   1.708
  185SOL    HW1  571   0.735   0.630   1.782
  185SOL    HW2  572   0.776   0.485   1.717
  186SOL     OW  573   1.450   1.220   1.633
  186SOL    HW1  574   1.441   1.210   1.732
  186SOL    HW2  575   1.546   1.213   1.607
  187SOL     OW  576   0.390   1.741   1.560
  187SOL    HW1  577   0.299   1.782   1.558
  187SOL    HW2  578   0.383   1.647   1.592
  188SOL     OW  579   1.674   0.883   1.254
  188SOL    HW1  580   1.647   0.794   1.217
  188SOL    HW2  581   1.675   0.951   1.181
  189SOL     OW  582   1.225   0.325   0.449
  189SOL    HW1  583   1.290   0.251   0.438
  189SOL    HW2  584   1.245   0.375   0.533
  190SOL     OW  585   0.594   0.745   0.652
  190SOL    HW1  586   0.644   0.830   0.633
  190SOL    HW2  587   0.506   0.747   0.604
  191SOL     OW  588   1.777   0.342   1.642
  191SOL    HW1  589   1.760   0.373   1.548
  191SOL    HW2  590   1.693   0.305   1.680
  192SOL     OW  591   1.730   0.934   1.517
  192SOL    HW1  592   1.768   1.025   1.532
  192SOL    HW2  593   1.722   0.917   1.418
  193SOL     OW  594   0.859   1.374   0.016
  193SOL    HW1  595   0.813   1.389   0.104
  193SOL    HW2  596   0.903   1.459  -0.014
  194SOL     OW  597   0.661   1.790   0.953
  194SOL    HW1  598   0.615   1.878   0.940
  194SOL    HW2  599   0.760   1.802   0.946
  195SOL     OW  600   0.859   0.956   0.861
  195SOL    HW1  601   0.913   0.887   0.909
  195SOL    HW2  602   0.827   1.025   0.927
  196SOL     OW  603   1.083   0.984   0.087
  196SOL    HW1  604   1.060   1.037   0.005
  196SOL    HW2  605   1.164   0.928   0.068
  197SOL     OW  606   1.861   1.569   0.851
  197SOL    HW1  607   1.790   1.557   0.781
  197SOL    HW2  608   1.862   1.490   0.911
  198SOL     OW  609   0.221   1.314   1.844
  198SOL    HW1  610   0.156   1.241   1.823
  198SOL    HW2  611   0.225   1.328   1.942
  199SOL     OW  612   0.079   1.240   0.653
  199SOL    HW1  613   0.078   1.193   0.741
  199SOL    HW2  614   0.161   1.212   0.602
  200SOL     OW  615   0.672   1.391   1.624
  200SOL    HW1  616   0.594   1.341   1.662
  200SOL    HW2  617   0.669   1.486   1.655
  201SOL     OW  618   1.824   0.192   1.227
  201SOL    HW1  619   1.820   0.102   1.271
  201SOL    HW2  620   1.827   0.181   1.128
  202SOL     OW  621   0.428   0.424   0.520
  202SOL    HW1  622   0.458   0.352   0.458
  202SOL    HW2  623   0.389   0.384   0.603
  203SOL     OW  624   1.705   1.487   1.104
  203SOL    HW1  625   1.612   1.462   1.077
  203SOL    HW2  626   1.731   1.437   1.186
  204SOL     OW  627   0.317   0.547   1.280
  204SOL    HW1  628   0.355   0.488   1.352
  204SOL    HW2  629   0.357   0.521   1.192
  205SOL     OW  630   0.812   1.586   0.687
  205SOL    HW1  631   0.844   1.596   0.593
  205SOL    HW2  632   0.733   1.524   0.689
  206SOL     OW  633   1.424   0.214   1.112
  206SOL    HW1  634   1.476   0.149   1.167
  206SOL    HW2  635   1.375   0.277   1.173
  207SOL     OW  636   1.001   0.034   1.154
  207SOL    HW1  637   0.938  -0.038   1.123
  207SOL    HW2  638   1.094  -0.002   1.154
  208SOL     OW  639   0.770   1.330   0.301
  208SOL    HW1  640   0.724   1.243   0.318
  208SOL    HW2  641   0.861   1.327   0.342
  209SOL     OW  642   0.618   1.567   1.284
  209SOL    HW1  643   0.613   1.649   1.341
  209SOL    HW2  644   0.707   1.564   1.239
  210SOL     OW  645   1.352   0.052   0.168
  210SOL    HW1  646   1.387   0.011   0.084
  210SOL    HW2  647   1.262   0.014   0.188
  211SOL     OW  648   1.300   0.453   0.691
  211SOL    HW1  649   1.241   0.533   0.695
  211SOL    HW2  650   1.315   0.418   0.784
  212SOL     OW  651   1.593   0.221   0.882
  212SOL    HW1  652   1.509   0.220   0.936
  212SOL    HW2  653   1.595   0.304   0.826
  213SOL     OW  654   0.039   1.077   0.300
  213SOL    HW1  655   0.138   1.066   0.291
  213SOL    HW2  656  -0.001   0.991   0.332
  214SOL     OW  657   0.875   1.646   0.337
  214SOL    HW1  658   0.798   1.611   0.283
  214SOL    HW2  659   0.843   1.717   0.399
  215SOL     OW  660   0.230   0.628   1.975
  215SOL    HW1  661   0.137   0.626   2.012
  215SOL    HW2  662   0.231   0.589   1.883
  216SOL     OW  663   0.225   0.275   2.858
  216SOL    HW1  664   0.260   0.258   2.950
  216SOL    HW2  665   0.137   0.230   2.846
  217SOL     OW  666   0.019   0.368   2.509
  217SOL    HW1  667  -0.063   0.411   2.548
  217SOL    HW2  668  -0.009   0.295   2.446
  218SOL     OW  669   0.569   1.275   3.027
  218SOL    HW1  670   0.476   1.268   2.990
  218SOL    HW2  671   0.580   1.364   3.071
  219SOL     OW  672   1.555   1.511   2.565
  219SOL    HW1  673   1.498   1.495   2.646
  219SOL    HW2  674   1.496   1.521   2.485
  220SOL     OW  675   1.135   0.703   2.579
  220SOL    HW1  676   1.192   0.781   2.554
  220SOL    HW2  677   1.075   0.729   2.655
  221SOL     OW  678   1.755   0.607   2.093
  221SOL    HW1  679   1.743   0.594   1.994
  221SOL    HW2  680   1.725   0.526   2.142
  222SOL     OW  681   0.768   1.144   2.885
  222SOL    HW1  682   0.690   1.161   2.945
  222SOL    HW2  683   0.802   1.231   2.849
  223SOL     OW  684   0.850   0.798   3.685
  223SOL    HW1  685   0.846   0.874   3.750
  223SOL    HW2  686   0.872   0.834   3.594
  224SOL     OW  687   0.685   1.012   2.527
  224SOL    HW1  688   0.754   0.996   2.597
  224SOL    HW2  689   0.612   1.069   2.565
  225SOL     OW  690   0.686   1.161   3.665
  225SOL    HW1  691   0.746   1.240   3.679
  225SOL    HW2  692   0.600   1.192   3.624
  226SOL     OW  693   0.335   1.435   2.923
  226SOL    HW1  694   0.257   1.404   2.870
  226SOL    HW2  695   0.393   1.493   2.866
  227SOL     OW  696   1.460   1.505   3.201
  227SOL    HW1  697   1.484   1.599   3.227
  227SOL    HW2  698   1.444   1.451   3.283
  228SOL     OW  699   0.438   0.392   3.361
  228SOL    HW1  700   0.520   0.336   3.370
  228SOL    HW2  701   0.357   0.334   3.365
  229SOL     OW  702   1.603   0.447   2.599
  229SOL    HW1  703   1.529   0.493   2.549
  229SOL    HW2  704   1.654   0.515   2.652
  230SOL     OW  705   0.231   1.713   2.345
  230SOL    HW1  706   0.265   1.790   2.399
  230SOL    HW2  707   0.275   1.713   2.255
  231SOL     OW  708   1.127   1.341   3.552
  231SOL    HW1  709   1.174   1.341   3.640
  231SOL    HW2  710   1.079   1.254   3.541
  232SOL     OW  711   0.230   1.434   2.400
  232SOL    HW1  712   0.204   1.530   2.400
  232SOL    HW2  713   0.159   1.380   2.445
  233SOL     OW  714   0.240   1.091   2.748
  233SOL    HW1  715   0.254   1.007   2.800
  233SOL    HW2  716   0.185   1.155   2.803
  234SOL     OW  717   0.620   1.786   3.301
  234SOL    HW1  718   0.528   1.769   3.336
  234SOL    HW2  719   0.648   1.878   3.327
  235SOL     OW  720   0.606   0.964   1.985
  235SOL    HW1  721   0.613   1.048   1.931
  235SOL    HW2  722   0.652   0.977   2.073
  236SOL     OW  723   1.594   0.114   3.342
  236SOL    HW1  724   1.576   0.181   3.270
  236SOL    HW2  725   1.591   0.160   3.431
  237SOL     OW  726   0.122   0.643   2.425
  237SOL    HW1  727   0.077   0.555   2.442
  237SOL    HW2  728   0.121   0.697   2.509
  238SOL     OW  729   1.842   1.767   2.221
  238SOL    HW1  730   1.896   1.738   2.301
  238SOL    HW2  731   1.872   1.857   2.192
  239SOL     OW  732   0.027   1.596   1.979
  239SOL    HW1  733   0.008   1.500   2.000
  239SOL    HW2  734  -0.006   1.654   2.054
  240SOL     OW  735   1.689   0.922   2.474
  240SOL    HW1  736   1.784   0.893   2.482
  240SOL    HW2  737   1.681   0.987   2.399
  241SOL     OW  738   1.641   1.108   2.294
  241SOL    HW1  739   1.727   1.110   2.242
  241SOL    HW2  740   1.655   1.155   2.382
  242SOL     OW  741   0.113   0.737   3.459
  242SOL    HW1  742   0.201   0.724   3.504
  242SOL    HW2  743   0.100   0.834   3.437
  243SOL     OW  744   0.613   1.365   2.588
  243SOL    HW1  745   0.564   1.278   2.597
  243SOL    HW2  746   0.590   1.408   2.501
  244SOL     OW  747   1.293   1.228   3.285
  244SOL    HW1  748   1.330   1.155   3.227
  244SOL    HW2  749   1.345   1.233   3.370
  245SOL     OW  750   0.809   0.004   2.364
  245SOL    HW1  751   0.849   0.095   2.355
  245SOL    HW2  752   0.709   0.012   2.370
  246SOL     OW  753   0.197   0.976   3.126
  246SOL    HW1  754   0.286   0.931   3.112
  246SOL    HW2  755   0.124   0.911   3.107
  247SOL     OW  756   1.525   0.999   2.052
  247SOL    HW1  757   1.462   0.923   2.065
  247SOL    HW2  758   1.573   1.017   2.138
  248SOL     OW  759   1.187   1.792   3.478
  248SOL    HW1  760   1.211   1.852   3.402
  248SOL    HW2  761   1.194   1.697   3.448
  249SOL     OW  762   0.317   0.251   3.663
  249SOL    HW1  763   0.388   0.322   3.669
  249SOL    HW2  764   0.229   0.290   3.691
  250SOL     OW  765   1.466   1.417   2.815
  250SOL    HW1  766   1.407   1.423   2.895
  250SOL    HW2  767   1.451   1.329   2.769
  251SOL     OW  768   1.667   1.714   2.434
  251SOL    HW1  769   1.626   1.691   2.346
  251SOL    HW2  770   1.649   1.640   2.499
  252SOL     OW  771   0.598   0.729   2.132
  252SOL    HW1  772   0.622   0.798   2.064
  252SOL    HW2  773   0.520   0.762   2.186
  253SOL     OW  774   1.281   0.345   2.806
  253SOL    HW1  775   1.195   0.295   2.793
  253SOL    HW2  776   1.343   0.291   2.862
  254SOL     OW  777   1.576   1.662   2.169
  254SOL    HW1  778   1.665   1.708   2.172
  254SOL    HW2  779   1.555   1.638   2.074
  255SOL     OW  780   0.807   0.605   3.327
  255SOL    HW1  781   0.760   0.602   3.416
  255SOL    HW2  782   0.756   0.550   3.261
  256SOL     OW  783   1.394   0.469   3.536
  256SOL    HW1  784   1.374   0.512   3.624
  256SOL    HW2  785   1.472   0.407   3.545
  257SOL     OW  786   0.973   0.890   3.434
  257SOL    HW1  787   1.019   0.806   3.405
  257SOL    HW2  788   0.917   0.924   3.359
  258SOL     OW  789   0.991   0.410   3.104
  258SOL    HW1  790   0.914   0.444   3.158
  258SOL    HW2  791   0.957   0.359   3.025
  259SOL     OW  792   1.041   0.701   2.291
  259SOL    HW1  793   1.067   0.697   2.387
  259SOL    HW2  794   0.956   0.650   2.277
  260SOL     OW  795   0.076   0.811   2.651
  260SOL    HW1  796   0.175   0.799   2.660
  260SOL    HW2  797   0.052   0.906   2.672
  261SOL     OW  798   0.130   1.821   3.433
  261SOL    HW1  799   0.120   1.806   3.532
  261SOL    HW2  800   0.044   1.857   3.397
  262SOL     OW  801   0.865   0.348   2.057
  262SOL    HW1  802   0.924   0.411   2.008
  262SOL    HW2  803   0.884   0.254   2.028
  263SOL     OW  804   1.719   0.585   3.693
  263SOL    HW1  805   1.693   0.674   3.657
  263SOL    HW2  806   1.717   0.517   3.620
  264SOL     OW  807   1.362   1.144   2.407
  264SOL    HW1  808   1.445   1.115   2.359
  264SOL    HW2  809   1.313   1.211   2.351
  265SOL     OW  810   0.550   0.196   2.747
  265SOL    HW1  811   0.545   0.191   2.847
  265SOL    HW2  812   0.552   0.292   2.718
  266SOL     OW  813   1.008   1.456   2.339
  266SOL    HW1  814   0.962   1.528   2.287
  266SOL    HW2  815   1.004   1.476   2.437
  267SOL     OW  816   0.351   1.801   2.715
  267SOL    HW1  817   0.401   1.715   2.721
  267SOL    HW2  818   0.416   1.878   2.712
  268SOL     OW  819   1.795   1.066   2.735
  268SOL    HW1  820   1.733   1.051   2.659
  268SOL    HW2  821   1.743   1.077   2.820
  269SOL     OW  822   1.227   1.550   3.368
  269SOL    HW1  823   1.233   1.473   3.432
  269SOL    HW2  824   1.175   1.524   3.288
  270SOL     OW  825   0.321   0.943   2.104
  270SOL    HW1  826   0.403   0.982   2.062
  270SOL    HW2  827   0.294   0.861   2.055
  271SOL     OW  828   1.458   0.735   2.590
  271SOL    HW1  829   1.453   0.670   2.665
  271SOL    HW2  830   1.538   0.794   2.603
  272SOL     OW  831   0.461   1.266   3.589
  272SOL    HW1  832   0.411   1.267   3.503
  272SOL    HW2  833   0.398   1.248   3.665
  273SOL     OW  834   1.111   1.776   2.099
  273SOL    HW1  835   1.051   1.714   2.149
  273SOL    HW2  836   1.142   1.732   2.014
  274SOL     OW  837   0.202   0.285   3.360
  274SOL    HW1  838   0.122   0.345   3.347
  274SOL    HW2  839   0.192   0.236   3.446
  275SOL     OW  840   1.632   1.377   1.943
  275SOL    HW1  841   1.600   1.471   1.933
  275SOL    HW2  842   1.556   1.314   1.931
  276SOL     OW  843   0.464   1.743   2.185
  276SOL    HW1  844   0.497   1.782   2.271
  276SOL    HW2  845   0.540   1.736   2.120
  277SOL     OW  846   1.400   0.107   2.288
  277SOL    HW1  847   1.376   0.070   2.198
  277SOL    HW2  848   1.499   0.123   2.292
  278SOL     OW  849   0.249   1.785   3.103
  278SOL    HW1  850   0.306   1.720   3.153
  278SOL    HW2  851   0.233   1.752   3.010
  279SOL     OW  852   0.940   1.698   2.766
  279SOL    HW1  853   1.020   1.641   2.787
  279SOL    HW2  854   0.891   1.658   2.689
  280SOL     OW  855   0.382   0.700   2.342
  280SOL    HW1  856   0.427   0.610   2.339
  280SOL    HW2  857   0.288   0.689   2.375
  281SOL     OW  858   1.547   0.222   3.591
  281SOL    HW1  859   1.542   0.259   3.683
  281SOL    HW2  860   1.475   0.153   3.579
  282SOL     OW  861   0.614   0.122   1.979
  282SOL    HW1  862   0.712   0.100   1.986
  282SOL    HW2  863   0.583   0.105   1.886
  283SOL     OW  864   0.781   0.264   3.611
  283SOL    HW1  865   0.848   0.203   3.654
  283SOL    HW2  866   0.708   0.283   3.676
  284SOL     OW  867   0.888   1.514   3.057
  284SOL    HW1  868   0.865   1.489   2.963
  284SOL    HW2  869   0.949   1.445   3.096
  285SOL     OW  870   1.351   0.590   3.295
  285SOL    HW1  871   1.379   0.547   3.380
  285SOL    HW2  872   1.376   0.686   3.296
  286SOL     OW  873   0.803   1.402   2.786
  286SOL    HW1  874   0.893   1.416   2.744
  286SOL    HW2  875   0.732   1.404   2.715
  287SOL     OW  876   0.922   0.503   2.761
  287SOL    HW1  877   0.897   0.494   2.665
  287SOL    HW2  878   0.970   0.421   2.792
  288SOL     OW  879   0.539   0.064   2.374
  288SOL    HW1  880   0.458   0.065   2.432
  288SOL    HW2  881   0.542   0.147   2.319
  289SOL     OW  882   1.434   1.188   1.903
  289SOL    HW1  883   1.466   1.112   1.960
  289SOL    HW2  884   1.342   1.215   1.933
  290SOL     OW  885   0.297   0.035   2.033
  290SOL    HW1  886   0.346   0.119   2.012
  290SOL    HW2  887   0.359  -0.030   2.078
  291SOL     OW  888   0.935   0.236   2.342
  291SOL    HW1  889   0.887   0.277   2.264
  291SOL    HW2  890   1.034   0.234   2.323
  292SOL     OW  891   1.076   0.683   3.326
  292SOL    HW1  892   0.996   0.622   3.329
  292SOL    HW2  893   1.157   0.630   3.302
  293SOL     OW  894   1.227   1.570   2.655
  293SOL    HW1  895   1.248   1.644   2.590
  293SOL    HW2  896   1.295   1.570   2.728
  294SOL     OW  897   0.459   1.152   2.603
  294SOL    HW1  898   0.388   1.125   2.668
  294SOL    HW2  899   0.433   1.124   2.510
  295SOL     OW  900   1.271   1.797   2.453
  295SOL    HW1  901   1.315   1.861   2.389
  295SOL    HW2  902   1.221   1.849   2.523
  296SOL     OW  903   1.032   0.549   1.878
  296SOL    HW1  904   0.991   0.631   1.839
  296SOL    HW2  905   1.096   0.575   1.951
  297SOL     OW  906   0.078   0.556   3.248
  297SOL    HW1  907   0.170   0.555   3.207
  297SOL    HW2  908   0.072   0.630   3.315
  298SOL     OW  909   0.561   0.222   3.009
  298SOL    HW1  910   0.599   0.138   3.046
  298SOL    HW2  911   0.473   0.241   3.053
  299SOL     OW  912   0.866   0.454   2.504
  299SOL    HW1  913   0.834   0.526   2.442
  299SOL    HW2  914   0.890   0.373   2.451
  300SOL     OW  915   1.017   0.039   2.615
  300SOL    HW1  916   0.945   0.044   2.546
  300SOL    HW2  917   0.993  -0.030   2.684
  301SOL     OW  918   1.429   1.173   2.729
  301SOL    HW1  919   1.374   1.089   2.722
  301SOL    HW2  920   1.455   1.202   2.637
  302SOL     OW  921   1.466   0.590   2.854
  302SOL    HW1  922   1.436   0.495   2.861
  302SOL    HW2  923   1.539   0.606   2.920
  303SOL     OW  924   1.857   0.833   2.239
  303SOL    HW1  925   1.899   0.769   2.303
  303SOL    HW2  926   1.819   0.782   2.161
  304SOL     OW  927   0.488   1.385   2.036
  304SOL    HW1  928   0.401   1.370   2.083
  304SOL    HW2  929   0.471   1.411   1.941
  305SOL     OW  930   1.664   1.280   2.519
  305SOL    HW1  931   1.763   1.288   2.533
  305SOL    HW2  932   1.619   1.364   2.550
  306SOL     OW  933   1.390   0.575   1.940
  306SOL    HW1  934   1.336   0.554   2.021
  306SOL    HW2  935   1.481   0.534   1.949
  307SOL     OW  936   0.527   0.256   2.190
  307SOL    HW1  937   0.554   0.197   2.115
  307SOL    HW2  938   0.527   0.351   2.159
  308SOL     OW  939   1.754   1.223   3.450
  308SOL    HW1  940   1.845   1.184   3.437
  308SOL    HW2  941   1.762   1.319   3.474
  309SOL     OW  942   1.064   1.347   3.202
  309SOL    HW1  943   0.984   1.324   3.257
  309SOL    HW2  944   1.147   1.321   3.251
  310SOL     OW  945   1.592   1.629   3.487
  310SOL    HW1  946   1.619   1.663   3.397
  310SOL    HW2  947   1.671   1.591   3.533
  311SOL     OW  948   1.111   1.195   2.962
  311SOL    HW1  949   1.071   1.239   3.043
  311SOL    HW2  950   1.070   1.232   2.879
  312SOL     OW  951   1.638   1.099   2.941
  312SOL    HW1  952   1.643   1.180   3.000
  312SOL    HW2  953   1.552   1.101   2.890
  313SOL     OW  954   0.915   0.089   3.264
  313SOL    HW1  955   0.940   0.069   3.169
  313SOL    HW2  956   0.987   0.145   3.306
  314SOL     OW  957   0.980   1.116   3.581
  314SOL    HW1  958   0.881   1.122   3.591
  314SOL    HW2  959   1.003   1.036   3.525
  315SOL     OW  960   0.705   1.050   2.230
  315SOL    HW1  961   0.691   1.057   2.329
  315SOL    HW2  962   0.789   0.999   2.212
  316SOL     OW  963   0.410   0.813   3.113
  316SOL    HW1  964   0.496   0.825   3.163
  316SOL    HW2  965   0.368   0.726   3.140
  317SOL     OW  966   1.274   0.386   3.124
  317SOL    HW1  967   1.295   0.460   3.188
  317SOL    HW2  968   1.185   0.403   3.081
  318SOL     OW  969   0.064   1.564   3.193
  318SOL    HW1  970   0.018   1.646   3.159
  318SOL    HW2  971   0.162   1.583   3.202
  319SOL     OW  972   0.367   1.100   2.363
  319SOL    HW1  973   0.360   1.183   2.307
  319SOL    HW2  974   0.371   1.020   2.303
  320SOL     OW  975   0.566   0.537   2.727
  320SOL    HW1  976   0.578   0.603   2.653
  320SOL    HW2  977   0.612   0.571   2.810
  321SOL     OW  978   1.252   1.348   2.250
  321SOL    HW1  979   1.302   1.425   2.290
  321SOL    HW2  980   1.157   1.350   2.282
  322SOL     OW  981   1.272   1.445   3.004
  322SOL    HW1  982   1.319   1.458   3.091
  322SOL    HW2  983   1.206   1.371   3.013
  323SOL     OW  984   1.582   0.639   2.334
  323SOL    HW1  985   1.551   0.700   2.407
  323SOL    HW2  986   1.632   0.691   2.265
  324SOL     OW  987   0.354   1.510   3.191
  324SOL    HW1  988   0.333   1.466   3.104
  324SOL    HW2  989   0.451   1.536   3.194
  325SOL     OW  990   0.402   0.751   3.460
  325SOL    HW1  991   0.470   0.806   3.413
  325SOL    HW2  992   0.442   0.663   3.487
  326SOL     OW  993   1.587   0.779   3.532
  326SOL    HW1  994   1.495   0.817   3.527
  326SOL    HW2  995   1.647   0.826   3.467
  327SOL     OW  996   1.013   0.105   3.632
  327SOL    HW1  997   1.019   0.190   3.580
  327SOL    HW2  998   1.045   0.029   3.575
  328SOL     OW  999   0.504   0.050   3.602
  328SOL    HW1 1000   0.462  -0.007   3.532
  328SOL    HW2 1001   0.438   0.119   3.634
  329SOL     OW 1002   0.573   0.870   2.891
  329SOL    HW1 1003   0.617   0.959   2.882
  329SOL    HW2 1004   0.510   0.870   2.968
  330SOL     OW 1005   1.360   0.862   2.907
  330SOL    HW1 1006   1.285   0.862   2.841
  330SOL    HW2 1007   1.397   0.770   2.916
  331SOL     OW 1008   1.209   0.525   2.137
  331SOL    HW1 1009   1.222   0.441   2.191
  331SOL    HW2 1010   1.180   0.599   2.197
  332SOL     OW 1011   0.307   0.213   3.093
  332SOL    HW1 1012   0.284   0.250   3.183
  332SOL    HW2 1013   0.277   0.118   3.087
  333SOL     OW 1014   0.037   1.310   3.144
  333SOL    HW1 1015   0.090   1.261   3.212
  333SOL    HW2 1016   0.059   1.408   3.149
  334SOL     OW 1017   0.732   0.634   2.926
  334SOL    HW1 1018   0.791   0.608   2.850
  334SOL    HW2 1019   0.704   0.730   2.915
  335SOL     OW 1020   1.728   0.935   3.716
  335SOL    HW1 1021   1.682   0.928   3.627
  335SOL    HW2 1022   1.666   0.979   3.782
  336SOL     OW 1023   0.307   0.063   2.480
  336SOL    HW1 1024   0.296   0.157   2.513
  336SOL    HW2 1025   0.302   0.000   2.557
  337SOL     OW 1026   1.622   0.367   2.236
  337SOL    HW1 1027   1.624   0.291   2.300
  337SOL    HW2 1028   1.574   0.444   2.276
  338SOL     OW 1029   1.023   0.766   2.828
  338SOL    HW1 1030   1.038   0.787   2.924
  338SOL    HW2 1031   0.993   0.671   2.819
  339SOL     OW 1032   0.980   1.573   3.562
  339SOL    HW1 1033   0.960   1.617   3.474
  339SOL    HW2 1034   1.019   1.482   3.546
  340SOL     OW 1035   1.859   1.518   3.467
  340SOL    HW1 1036   1.873   1.545   3.372
  340SOL    HW2 1037   1.942   1.540   3.520
  341SOL     OW 1038   0.350   0.898   3.666
  341SOL    HW1 1039   0.426   0.942   3.714
  341SOL    HW2 1040   0.385   0.851   3.584
  342SOL     OW 1041   1.540   0.274   1.987
  342SOL    HW1 1042   1.479   0.199   2.010
  342SOL    HW2 1043   1.562   0.326   2.070
  343SOL     OW 1044   1.303   0.838   1.904
  343SOL    HW1 1045   1.337   0.745   1.919
  343SOL    HW2 1046   1.321   0.865   1.809
  344SOL     OW 1047   1.068   1.333   2.711
  344SOL    HW1 1048   1.075   1.249   2.656
  344SOL    HW2 1049   1.130   1.402   2.675
  345SOL     OW 1050   0.319   0.810   2.811
  345SOL    HW1 1051   0.412   0.846   2.816
  345SOL    HW2 1052   0.313   0.725   2.863
  346SOL     OW 1053   0.339   0.509   2.868
  346SOL    HW1 1054   0.287   0.426   2.851
  346SOL    HW2 1055   0.416   0.514   2.804
  347SOL     OW 1056   1.138   0.380   3.540
  347SOL    HW1 1057   1.093   0.443   3.604
  347SOL    HW2 1058   1.231   0.411   3.523
  348SOL     OW 1059   1.160   0.207   3.339
  348SOL    HW1 1060   1.160   0.271   3.416
  348SOL    HW2 1061   1.188   0.255   3.256
  349SOL     OW 1062   0.008   1.326   2.062
  349SOL    HW1 1063  -0.085   1.347   2.031
  349SOL    HW2 1064   0.018   1.227   2.075
  350SOL     OW 1065   0.088   1.801   2.789
  350SOL    HW1 1066   0.046   1.715   2.762
  350SOL    HW2 1067   0.182   1.804   2.755
  351SOL     OW 1068   0.504   1.568   2.772
  351SOL    HW1 1069   0.570   1.642   2.781
  351SOL    HW2 1070   0.548   1.489   2.730
  352SOL     OW 1071   1.002   0.796   3.100
  352SOL    HW1 1072   1.043   0.764   3.186
  352SOL    HW2 1073   0.906   0.769   3.097
  353SOL     OW 1074   0.040   0.544   2.976
  353SOL    HW1 1075   0.125   0.511   2.935
  353SOL    HW2 1076   0.053   0.559   3.074
  354SOL     OW 1077   0.189   0.520   3.584
  354SOL    HW1 1078   0.248   0.480   3.514
  354SOL    HW2 1079   0.131   0.591   3.543
  355SOL     OW 1080   1.369   0.950   3.522
  355SOL    HW1 1081   1.408   1.039   3.542
  355SOL    HW2 1082   1.379   0.930   3.425
  356SOL     OW 1083   0.815   0.572   2.187
  356SOL    HW1 1084   0.822   0.483   2.141
  356SOL    HW2 1085   0.721   0.606   2.179
  357SOL     OW 1086   1.657   0.604   3.068
  357SOL    HW1 1087   1.619   0.535   3.130
  357SOL    HW2 1088   1.739   0.568   3.024
  358SOL     OW 1089   0.252   1.564   3.606
  358SOL    HW1 1090   0.222   1.621   3.682
  358SOL    HW2 1091   0.245   1.467   3.632
  359SOL     OW 1092   0.671   0.464   3.131
  359SOL    HW1 1093   0.637   0.375   3.101
  359SOL    HW2 1094   0.697   0.518   3.051
  360SOL     OW 1095   0.930   1.678   3.327
  360SOL    HW1 1096   0.906   1.660   3.232
  360SOL    HW2 1097   0.960   1.772   3.337
  361SOL     OW 1098   0.473   0.500   2.053
  361SOL    HW1 1099   0.534   0.580   2.057
  361SOL    HW2 1100   0.378   0.531   2.060
  362SOL     OW 1101   0.159   1.137   3.328
  362SOL    HW1 1102   0.181   1.076   3.404
  362SOL    HW2 1103   0.169   1.088   3.242
  363SOL     OW 1104   1.347   1.059   3.096
  363SOL    HW1 1105   1.371   0.996   3.022
  363SOL    HW2 1106   1.257   1.099   3.078
  364SOL     OW 1107   1.302   0.855   2.171
  364SOL    HW1 1108   1.216   0.824   2.213
  364SOL    HW2 1109   1.298   0.841   2.072
  365SOL     OW 1110   1.759   1.747   3.016
  365SOL    HW1 1111   1.820   1.777   2.943
  365SOL    HW2 1112   1.721   1.658   2.994
  366SOL     OW 1113   1.252   1.731   2.990
  366SOL    HW1 1114   1.336   1.736   2.936
  366SOL    HW2 1115   1.229   1.635   3.008
  367SOL     OW 1116   0.083   1.258   2.884
  367SOL    HW1 1117   0.078   1.257   2.984
  367SOL    HW2 1118   0.000   1.217   2.846
  368SOL     OW 1119   0.688   1.662   3.578
  368SOL    HW1 1120   0.632   1.743   3.587
  368SOL    HW2 1121   0.740   1.666   3.492
  369SOL     OW 1122   1.726   0.135   2.385
  369SOL    HW1 1123   1.799   0.118   2.318
  369SOL    HW2 1124   1.695   0.048   2.423
  370SOL     OW 1125   1.388   1.573   2.339
  370SOL    HW1 1126   1.455   1.585   2.265
  370SOL    HW2 1127   1.348   1.662   2.362
  371SOL     OW 1128   0.130   1.794   3.713
  371SOL    HW1 1129   0.089   1.720   3.766
  371SOL    HW2 1130   0.194   1.845   3.771
  372SOL     OW 1131   1.280   0.927   2.534
  372SOL    HW1 1132   1.340   0.846   2.536
  372SOL    HW2 1133   1.320   0.996   2.474
  373SOL     OW 1134   0.830   1.273   3.284
  373SOL    HW1 1135   0.825   1.306   3.379
  373SOL    HW2 1136   0.744   1.292   3.238
  374SOL     OW 1137   0.672   1.616   2.016
  374SOL    HW1 1138   0.681   1.626   1.917
  374SOL    HW2 1139   0.632   1.527   2.037
  375SOL     OW 1140   1.650   1.720   3.256
  375SOL    HW1 1141   1.703   1.730   3.172
  375SOL    HW2 1142   1.623   1.810   3.290
  376SOL     OW 1143   1.841   0.175   2.825
  376SOL    HW1 1144   1.880   0.090   2.789
  376SOL    HW2 1145   1.743   0.177   2.806
  377SOL     OW 1146   0.263   0.326   2.582
  377SOL    HW1 1147   0.184   0.377   2.548
  377SOL    HW2 1148   0.254   0.311   2.680
  378SOL     OW 1149   1.194   1.612   1.893
  378SOL    HW1 1150   1.200   1.519   1.930
  378SOL    HW2 1151   1.135   1.612   1.813
  379SOL     OW 1152   0.822   1.002   3.234
  379SOL    HW1 1153   0.862   1.001   3.142
  379SOL    HW2 1154   0.832   1.094   3.274
  380SOL     OW 1155   0.916   0.910   2.153
  380SOL    HW1 1156   0.979   0.948   2.085
  380SOL    HW2 1157   0.956   0.827   2.192
  381SOL     OW 1158   1.504   1.607   1.906
  381SOL    HW1 1159   1.412   1.644   1.913
  381SOL    HW2 1160   1.542   1.627   1.816
  382SOL     OW 1161   0.372   1.288   3.352
  382SOL    HW1 1162   0.359   1.381   3.318
  382SOL    HW2 1163   0.288   1.236   3.339
  383SOL     OW 1164   1.614   1.292   3.151
  383SOL    HW1 1165   1.674   1.295   3.231
  383SOL    HW2 1166   1.539   1.356   3.164
  384SOL     OW 1167   1.039   1.098   2.558
  384SOL    HW1 1168   0.969   1.051   2.612
  384SOL    HW2 1169   1.098   1.030   2.515
  385SOL     OW 1170   1.014   0.236   2.833
  385SOL    HW1 1171   1.006   0.200   2.740
  385SOL    HW2 1172   1.012   0.160   2.898
  386SOL     OW 1173   0.590   1.487   2.353
  386SOL    HW1 1174   0.632   1.429   2.283
  386SOL    HW2 1175   0.546   1.566   2.309
  387SOL     OW 1176   1.709   0.385   3.243
  387SOL    HW1 1177   1.782   0.454   3.247
  387SOL    HW2 1178   1.737   0.310   3.184
  388SOL     OW 1179   0.255   1.348   2.152
  388SOL    HW1 1180   0.159   1.349   2.125
  388SOL    HW2 1181   0.267   1.401   2.236
  389SOL     OW 1182   0.105   1.013   3.588
  389SOL    HW1 1183   0.028   0.980   3.642
  389SOL    HW2 1184   0.190   0.983   3.630
  390SOL     OW 1185   0.672   0.203   3.351
  390SOL    HW1 1186   0.762   0.187   3.311
  390SOL    HW2 1187   0.680   0.208   3.450
  391SOL     OW 1188   0.075   0.345   1.895
  391SOL    HW1 1189  -0.017   0.317   1.866
  391SOL    HW2 1190   0.106   0.422   1.839
  392SOL     OW 1191   1.440   0.856   3.260
  392SOL    HW1 1192   1.383   0.908   3.197
  392SOL    HW2 1193   1.536   0.868   3.236
  393SOL     OW 1194   0.072   0.166   2.180
  393SOL    HW1 1195   0.055   0.249   2.126
  393SOL    HW2 1196   0.162   0.129   2.158
  394SOL     OW 1197   1.183   1.335   1.981
  394SOL    HW1 1198   1.084   1.324   1.983
  394SOL    HW2 1199   1.217   1.350   2.074
  395SOL     OW 1200   0.613   0.842   3.293
  395SOL    HW1 1201   0.669   0.923   3.276
  395SOL    HW2 1202   0.672   0.762   3.296
  396SOL     OW 1203   1.493   1.767   2.821
  396SOL    HW1 1204   1.526   1.831   2.752
  396SOL    HW2 1205   1.559   1.761   2.896
  397SOL     OW 1206   0.716   0.565   3.570
  397SOL    HW1 1207   0.735   0.630   3.644
  397SOL    HW2 1208   0.776   0.485   3.579
  398SOL     OW 1209   1.450   1.220   3.495
  398SOL    HW1 1210   1.441   1.210   3.594
  398SOL    HW2 1211   1.546   1.213   3.469
  399SOL     OW 1212   0.390   1.741   3.422
  399SOL    HW1 1213   0.299   1.782   3.420
  399SOL    HW2 1214   0.383   1.647   3.454
  400SOL     OW 1215   1.674   0.883   3.116
  400SOL    HW1 1216   1.647   0.794   3.079
  400SOL    HW2 1217   1.675   0.951   3.043
  401SOL     OW 1218   1.225   0.325   2.311
  401SOL    HW1 1219   1.290   0.251   2.300
  401SOL    HW2 1220   1.245   0.375   2.395
  402SOL     OW 1221   0.594   0.745   2.514
  402SOL    HW1 1222   0.644   0.830   2.495
  402SOL    HW2 1223   0.506   0.747   2.466
  403SOL     OW 1224   1.777   0.342   3.504
  403SOL    HW1 1225   1.760   0.373   3.410
  403SOL    HW2 1226   1.693   0.305   3.542
  404SOL     OW 1227   1.730   0.934   3.379
  404SOL    HW1 1228   1.768   1.025   3.394
  404SOL    HW2 1229   1.722   0.917   3.280
  405SOL     OW 1230   0.859   1.374   1.878
  405SOL    HW1 1231   0.813   1.389   1.966
  405SOL    HW2 1232   0.903   1.459   1.848
  406SOL     OW 1233   0.661   1.790   2.815
  406SOL    HW1 1234   0.615   1.878   2.802
  406SOL    HW2 1235   0.760   1.802   2.808
  407SOL     OW 1236   0.859   0.956   2.723
  407SOL    HW1 1237   0.913   0.887   2.771
  407SOL    HW2 1238   0.827   1.025   2.789
  408SOL     OW 1239   1.083   0.984   1.949
  408SOL    HW1 1240   1.060   1.037   1.867
  408SOL    HW2 1241   1.164   0.928   1.930
  409SOL     OW 1242   1.861   1.569   2.713
  409SOL    HW1 1243   1.790   1.557   2.643
  409SOL    HW2 1244   1.862   1.490   2.773
  410SOL     OW 1245   0.221   1.314   3.706
  410SOL    HW1 1246   0.156   1.241   3.685
  410SOL    HW2 1247   0.225   1.328   3.804
  411SOL     OW 1248   0.079   1.240   2.515
  411SOL    HW1 1249   0.078   1.193   2.603
  411SOL    HW2 1250   0.161   1.212   2.464
  412SOL     OW 1251   0.672   1.391   3.486
  412SOL    HW1 1252   0.594   1.341   3.524
  412SOL    HW2 1253   0.669   1.486   3.517
  413SOL     OW 1254   1.824   0.192   3.089
  413SOL    HW1 1255   1.820   0.102   3.133
  413SOL    HW2 1256   1.827   0.181   2.990
  414SOL     OW 1257   0.428   0.424   2.382
  414SOL    HW1 1258   0.458   0.352   2.320
  414SOL    HW2 1259   0.389   0.384   2.465
  415SOL     OW 1260   1.705   1.487   2.966
  415SOL    HW1 1261   1.612   1.462   2.939
  415SOL    HW2 1262   1.731   1.437   3.048
  416SOL     OW 1263   0.317   0.547   3.142
  416SOL    HW1 1264   0.355   0.488   3.214
  416SOL    HW2 1265   0.357   0.521   3.054
  417SOL     OW 1266   0.812   1.586   2.549
  417SOL    HW1 1267   0.844   1.596   2.455
  417SOL    HW2 1268   0.733   1.524   2.551
  418SOL     OW 1269   1.424   0.214   2.974
  418SOL    HW1 1270   1.476   0.149   3.029
  418SOL    HW2 1271   1.375   0.277   3.035
  419SOL     OW 1272   1.001   0.034   3.016
  419SOL    HW1 1273   0.938  -0.038   2.985
  419SOL    HW2 1274   1.094  -0.002   3.016
  420SOL     OW 1275   0.770   1.330   2.163
  420SOL    HW1 1276   0.724   1.243   2.180
  420SOL    HW2 1277   0.861   1.327   2.204
  421SOL     OW 1278   0.618   1.567   3.146
  421SOL    HW1 1279   0.613   1.649   3.203
  421SOL    HW2 1280   0.707   1.564   3.101
  422SOL     OW 1281   1.352   0.052   2.030
  422SOL    HW1 1282   1.387   0.011   1.946
  422SOL    HW2 1283   1.262   0.014   2.050
  423SOL     OW 1284   1.300   0.453   2.553
  423SOL    HW1 1285   1.241   0.533   2.557
  423SOL    HW2 1286   1.315   0.418   2.646
  424SOL     OW 1287   1.593   0.221   2.744
  424SOL    HW1 1288   1.509   0.220   2.798
  424SOL    HW2 1289   1.595   0.304   2.688
  425SOL     OW 1290   0.039   1.077   2.162
  425SOL    HW1 1291   0.138   1.066   2.153
  425SOL    HW2 1292  -0.001   0.991   2.194
  426SOL     OW 1293   0.875   1.646   2.199
  426SOL    HW1 1294   0.798   1.611   2.145
  426SOL    HW2 1295   0.843   1.717   2.261
  427SOL     OW 1296   0.230   0.628   3.837
  427SOL    HW1 1297   0.137   0.626   3.874
  427SOL    HW2 1298   0.231   0.589   3.745
  428SOL     OW 1299   0.019   0.368   4.371
  428SOL    HW1 1300  -0.063   0.411   4.410
  428SOL    HW2 1301  -0.009   0.295   4.308
  429SOL     OW 1302   1.555   1.511   4.427
  429SOL    HW1 1303   1.498   1.495   4.508
  429SOL    HW2 1304   1.496   1.521   4.347
  430SOL     OW 1305   1.135   0.703   4.441
  430SOL    HW1 1306   1.192   0.781   4.416
  430SOL    HW2 1307   1.075   0.729   4.517
  431SOL     OW 1308   1.755   0.607   3.955
  431SOL    HW1 1309   1.743   0.594   3.856
  431SOL    HW2 1310   1.725   0.526   4.004
  432SOL     OW 1311   0.685   1.012   4.389
  432SOL    HW1 1312   0.754   0.996   4.459
  432SOL    HW2 1313   0.612   1.069   4.427
  433SOL     OW 1314   1.603   0.447   4.461
  433SOL    HW1 1315   1.529   0.493   4.411
  433SOL    HW2 1316   1.654   0.515   4.514
  434SOL     OW 1317   0.231   1.713   4.207
  434SOL    HW1 1318   0.265   1.790   4.261
  434SOL    HW2 1319   0.275   1.713   4.117
  435SOL     OW 1320   0.230   1.434   4.262
  435SOL    HW1 1321   0.204   1.530   4.262
  435SOL    HW2 1322   0.159   1.380   4.307
  436SOL     OW 1323   0.240   1.091   4.610
  436SOL    HW1 1324   0.254   1.007   4.662
  436SOL    HW2 1325   0.185   1.155   4.665
  437SOL     OW 1326   0.606   0.964   3.847
  437SOL    HW1 1327   0.613   1.048   3.793
  437SOL    HW2 1328   0.652   0.977   3.935
  438SOL     OW 1329   0.122   0.643   4.287
  438SOL    HW1 1330   0.077   0.555   4.304
  438SOL    HW2 1331   0.121   0.697   4.371
  439SOL     OW 1332   1.842   1.767   4.083
  439SOL    HW1 1333   1.896   1.738   4.163
  439SOL    HW2 1334   1.872   1.857   4.054
  440SOL     OW 1335   0.027   1.596   3.841
  440SOL    HW1 1336   0.008   1.500   3.862
  440SOL    HW2 1337  -0.006   1.654   3.916
  441SOL     OW 1338   1.689   0.922   4.336
  441SOL    HW1 1339   1.784   0.893   4.344
  441SOL    HW2 1340   1.681   0.987   4.261
  442SOL     OW 1341   1.641   1.108   4.156
  442SOL    HW1 1342   1.727   1.110   4.104
  442SOL    HW2 1343   1.655   1.155   4.244
  443SOL     OW 1344   0.613   1.365   4.450
  443SOL    HW1 1345   0.564   1.278   4.459
  443SOL    HW2 1346   0.590   1.408   4.363
  444SOL     OW 1347   0.809   0.004   4.226
  444SOL    HW1 1348   0.849   0.095   4.217
  444SOL    HW2 1349   0.709   0.012   4.232
  445SOL     OW 1350   1.525   0.999   3.914
  445SOL    HW1 1351   1.462   0.923   3.927
  445SOL    HW2 1352   1.573   1.017   4.000
  446SOL     OW 1353   1.466   1.417   4.677
  446SOL    HW1 1354   1.407   1.423   4.757
  446SOL    HW2 1355   1.451   1.329   4.631
  447SOL     OW 1356   1.667   1.714   4.296
  447SOL    HW1 1357   1.626   1.691   4.208
  447SOL    HW2 1358   1.649   1.640   4.361
  448SOL     OW 1359   0.598   0.729   3.994
  448SOL    HW1 1360   0.622   0.798   3.926
  448SOL    HW2 1361   0.520   0.762   4.048
  449SOL     OW 1362   1.281   0.345   4.668
  449SOL    HW1 1363   1.195   0.295   4.655
  449SOL    HW2 1364   1.343   0.291   4.724
  450SOL     OW 1365   1.576   1.662   4.031
  450SOL    HW1 1366   1.665   1.708   4.034
  450SOL    HW2 1367   1.555   1.638   3.936
  451SOL     OW 1368   1.041   0.701   4.153
  451SOL    HW1 1369   1.067   0.697   4.249
  451SOL    HW2 1370   0.956   0.650   4.139
  452SOL     OW 1371   0.076   0.811   4.513
  452SOL    HW1 1372   0.175   0.799   4.522
  452SOL    HW2 1373   0.052   0.906   4.534
  453SOL     OW 1374   0.865   0.348   3.919
  453SOL    HW1 1375   0.924   0.411   3.870
  453SOL    HW2 1376   0.884   0.254   3.890
  454SOL     OW 1377   1.362   1.144   4.269
  454SOL    HW1 1378   1.445   1.115   4.221
  454SOL    HW2 1379   1.313   1.211   4.213
  455SOL     OW 1380   1.008   1.456   4.201
  455SOL    HW1 1381   0.962   1.528   4.149
  455SOL    HW2 1382   1.004   1.476   4.299
  456SOL     OW 1383   0.351   1.801   4.577
  456SOL    HW1 1384   0.401   1.715   4.583
  456SOL    HW2 1385   0.416   1.878   4.574
  457SOL     OW 1386   1.795   1.066   4.597
  457SOL    HW1 1387   1.733   1.051   4.521
  457SOL    HW2 1388   1.743   1.077   4.682
  458SOL     OW 1389   0.321   0.943   3.966
  458SOL    HW1 1390   0.403   0.982   3.924
  458SOL    HW2 1391   0.294   0.861   3.917
  459SOL     OW 1392   1.458   0.735   4.452
  459SOL    HW1 1393   1.453   0.670   4.527
  459SOL    HW2 1394   1.538   0.794   4.465
  460SOL     OW 1395   1.111   1.776   3.961
  460SOL    HW1 1396   1.051   1.714   4.011
  460SOL    HW2 1397   1.142   1.732   3.876
  461SOL     OW 1398   1.632   1.377   3.805
  461SOL    HW1 1399   1.600   1.471   3.795
  461SOL    HW2 1400   1.556   1.314   3.793
  462SOL     OW 1401   0.464   1.743   4.047
  462SOL    HW1 1402   0.497   1.782   4.133
  462SOL    HW2 1403   0.540   1.736   3.982
  463SOL     OW 1404   1.400   0.107   4.150
  463SOL    HW1 1405   1.376   0.070   4.060
  463SOL    HW2 1406   1.499   0.123   4.154
  464SOL     OW 1407   0.382   0.700   4.204
  464SOL    HW1 1408   0.427   0.610   4.201
  464SOL    HW2 1409   0.288   0.689   4.237
  465SOL     OW 1410   0.614   0.122   3.841
  465SOL    HW1 1411   0.712   0.100   3.848
  465SOL    HW2 1412   0.583   0.105   3.748
  466SOL     OW 1413   0.539   0.064   4.236
  466SOL    HW1 1414   0.458   0.065   4.294
  466SOL    HW2 1415   0.542   0.147   4.181
  467SOL     OW 1416   1.434   1.188   3.765
  467SOL    HW1 1417   1.466   1.112   3.822
  467SOL    HW2 1418   1.342   1.215   3.795
  468SOL     OW 1419   0.297   0.035   3.895
  468SOL    HW1 1420   0.346   0.119   3.874
  468SOL    HW2 1421   0.359  -0.030   3.940
  469SOL     OW 1422   0.935   0.236   4.204
  469SOL    HW1 1423   0.887   0.277   4.126
  469SOL    HW2 1424   1.034   0.234   4.185
  470SOL     OW 1425   1.227   1.570   4.517
  470SOL    HW1 1426   1.248   1.644   4.452
  470SOL    HW2 1427   1.295   1.570   4.590
  471SOL     OW 1428   0.459   1.152   4.465
  471SOL    HW1 1429   0.388   1.125   4.530
  471SOL    HW2 1430   0.433   1.124   4.372
  472SOL     OW 1431   1.271   1.797   4.315
  472SOL    HW1 1432   1.315   1.861   4.251
  472SOL    HW2 1433   1.221   1.849   4.385
  473SOL     OW 1434   1.032   0.549   3.740
  473SOL    HW1 1435   0.991   0.631   3.701
  473SOL    HW2 1436   1.096   0.575   3.813
  474SOL     OW 1437   0.866   0.454   4.366
  474SOL    HW1 1438   0.834   0.526   4.304
  474SOL    HW2 1439   0.890   0.373   4.313
  475SOL     OW 1440   1.017   0.039   4.477
  475SOL    HW1 1441   0.945   0.044   4.408
  475SOL    HW2 1442   0.993  -0.030   4.546
  476SOL     OW 1443   1.857   0.833   4.101
  476SOL    HW1 1444   1.899   0.769   4.165
  476SOL    HW2 1445   1.819   0.782   4.023
  477SOL     OW 1446   0.488   1.385   3.898
  477SOL    HW1 1447   0.401   1.370   3.945
  477SOL    HW2 1448   0.471   1.411   3.803
  478SOL     OW 1449   1.664   1.280   4.381
  478SOL    HW1 1450   1.763   1.288   4.395
  478SOL    HW2 1451   1.619   1.364   4.412
  479SOL     OW 1452   1.390   0.575   3.802
  479SOL    HW1 1453   1.336   0.554   3.883
  479SOL    HW2 1454   1.481   0.534   3.811
  480SOL     OW 1455   0.527   0.256   4.052
  480SOL    HW1 1456   0.554   0.197   3.977
  480SOL    HW2 1457   0.527   0.351   4.021
  481SOL     OW 1458   0.705   1.050   4.092
  481SOL    HW1 1459   0.691   1.057   4.191
  481SOL    HW2 1460   0.789   0.999   4.074
  482SOL     OW 1461   0.367   1.100   4.225
  482SOL    HW1 1462   0.360   1.183   4.169
  482SOL    HW2 1463   0.371   1.020   4.165
  483SOL     OW 1464   0.566   0.537   4.589
  483SOL    HW1 1465   0.578   0.603   4.515
  483SOL    HW2 1466   0.612   0.571   4.672
  484SOL     OW 1467   1.252   1.348   4.112
  484SOL    HW1 1468   1.302   1.425   4.152
  484SOL    HW2 1469   1.157   1.350   4.144
  485SOL     OW 1470   1.582   0.639   4.196
  485SOL    HW1 1471   1.551   0.700   4.269
  485SOL    HW2 1472   1.632   0.691   4.127
  486SOL     OW 1473   1.209   0.525   3.999
  486SOL    HW1 1474   1.222   0.441   4.053
  486SOL    HW2 1475   1.180   0.599   4.059
  487SOL     OW 1476   0.732   0.634   4.788
  487SOL    HW1 1477   0.791   0.608   4.712
  487SOL    HW2 1478   0.704   0.730   4.777
  488SOL     OW 1479   0.307   0.063   4.342
  488SOL    HW1 1480   0.296   0.157   4.375
  488SOL    HW2 1481   0.302   0.000   4.419
  489SOL     OW 1482   1.622   0.367   4.098
  489SOL    HW1 1483   1.624   0.291   4.162
  489SOL    HW2 1484   1.574   0.444   4.138
  490SOL     OW 1485   1.540   0.274   3.849
  490SOL    HW1 1486   1.479   0.199   3.872
  490SOL    HW2 1487   1.562   0.326   3.932
  491SOL     OW 1488   1.303   0.838   3.766
  491SOL    HW1 1489   1.337   0.745   3.781
  491SOL    HW2 1490   1.321   0.865   3.671
  492SOL     OW 1491   1.068   1.333   4.573
  492SOL    HW1 1492   1.075   1.249   4.518
  492SOL    HW2 1493   1.130   1.402   4.537
  493SOL     OW 1494   0.319   0.810   4.673
  493SOL    HW1 1495   0.412   0.846   4.678
  493SOL    HW2 1496   0.313   0.725   4.725
  494SOL     OW 1497   0.008   1.326   3.924
  494SOL    HW1 1498  -0.085   1.347   3.893
  494SOL    HW2 1499   0.018   1.227   3.937
  495SOL     OW 1500   0.088   1.801   4.651
  495SOL    HW1 1501   0.046   1.715   4.624
  495SOL    HW2 1502   0.182   1.804   4.617
  496SOL     OW 1503   0.504   1.568   4.634
  496SOL    HW1 1504   0.570   1.642   4.643
  496SOL    HW2 1505   0.548   1.489   4.592
  497SOL     OW 1506   0.815   0.572   4.049
  497SOL    HW1 1507   0.822   0.483   4.003
  497SOL    HW2 1508   0.721   0.606   4.041
  498SOL     OW 1509   0.473   0.500   3.915
  498SOL    HW1 1510   0.534   0.580   3.919
  498SOL    HW2 1511   0.378   0.531   3.922
  499SOL     OW 1512   1.302   0.855   4.033
  499SOL    HW1 1513   1.216   0.824   4.075
  499SOL    HW2 1514   1.298   0.841   3.934
  500SOL     OW 1515   1.759   1.747   4.878
  500SOL    HW1 1516   1.820   1.777   4.805
  500SOL    HW2 1517   1.721   1.658   4.856
  501SOL     OW 1518   1.726   0.135   4.247
  501SOL    HW1 1519   1.799   0.118   4.180
  501SOL    HW2 1520   1.695   0.048   4.285
  502SOL     OW 1521   1.388   1.573   4.201
  502SOL    HW1 1522   1.455   1.585   4.127
  502SOL    HW2 1523   1.348   1.662   4.224
  503SOL     OW 1524   1.280   0.927   4.396
  503SOL    HW1 1525   1.340   0.846   4.398
  503SOL    HW2 1526   1.320   0.996   4.336
  504SOL     OW 1527   0.672   1.616   3.878
  504SOL    HW1 1528   0.681   1.626   3.779
  504SOL    HW2 1529   0.632   1.527   3.899
  505SOL     OW 1530   1.841   0.175   4.687
  505SOL    HW1 1531   1.880   0.090   4.651
  505SOL    HW2 1532   1.743   0.177   4.668
  506SOL     OW 1533   0.263   0.326   4.444
  506SOL    HW1 1534   0.184   0.377   4.410
  506SOL    HW2 1535   0.254   0.311   4.542
  507SOL     OW 1536   1.194   1.612   3.755
  507SOL    HW1 1537   1.200   1.519   3.792
  507SOL    HW2 1538   1.135   1.612   3.675
  508SOL     OW 1539   0.916   0.910   4.015
  508SOL    HW1 1540   0.979   0.948   3.947
  508SOL    HW2 1541   0.956   0.827   4.054
  509SOL     OW 1542   1.504   1.607   3.768
  509SOL    HW1 1543   1.412   1.644   3.775
  509SOL    HW2 1544   1.542   1.627   3.678
  510SOL     OW 1545   1.039   1.098   4.420
  510SOL    HW1 1546   0.969   1.051   4.474
  510SOL    HW2 1547   1.098   1.030   4.377
  511SOL     OW 1548   0.590   1.487   4.215
  511SOL    HW1 1549   0.632   1.429   4.145
  511SOL    HW2 1550   0.546   1.566   4.171
  512SOL     OW 1551   0.255   1.348   4.014
  512SOL    HW1 1552   0.159   1.349   3.987
  512SOL    HW2 1553   0.267   1.401   4.098
  513SOL     OW 1554   0.075   0.345   3.757
  513SOL    HW1 1555  -0.017   0.317   3.728
  513SOL    HW2 1556   0.106   0.422   3.701
  514SOL     OW 1557   0.072   0.166   4.042
  514SOL    HW1 1558   0.055   0.249   3.988
  514SOL    HW2 1559   0.162   0.129   4.020
  515SOL     OW 1560   1.183   1.335   3.843
  515SOL    HW1 1561   1.084   1.324   3.845
  515SOL    HW2 1562   1.217   1.350   3.936
  516SOL     OW 1563   1.674   0.883   4.978
  516SOL    HW1 1564   1.647   0.794   4.941
  516SOL    HW2 1565   1.675   0.951   4.905
  517SOL     OW 1566   1.225   0.325   4.173
  517SOL    HW1 1567   1.290   0.251   4.162
  517SOL    HW2 1568   1.245   0.375   4.257
  518SOL     OW 1569   0.594   0.745   4.376
  518SOL    HW1 1570   0.644   0.830   4.357
  518SOL    HW2 1571   0.506   0.747   4.328
  519SOL     OW 1572   0.859   1.374   3.740
  519SOL    HW1 1573   0.813   1.389   3.828
  519SOL    HW2 1574   0.903   1.459   3.710
  520SOL     OW 1575   0.661   1.790   4.677
  520SOL    HW1 1576   0.615   1.878   4.664
  520SOL    HW2 1577   0.760   1.802   4.670
  521SOL     OW 1578   0.859   0.956   4.585
  521SOL    HW1 1579   0.913   0.887   4.633
  521SOL    HW2 1580   0.827   1.025   4.651
  522SOL     OW 1581   1.083   0.984   3.811
  522SOL    HW1 1582   1.060   1.037   3.729
  522SOL    HW2 1583   1.164   0.928   3.792
  523SOL     OW 1584   1.861   1.569   4.575
  523SOL    HW1 1585   1.790   1.557   4.505
  523SOL    HW2 1586   1.862   1.490   4.635
  524SOL     OW 1587   0.079   1.240   4.377
  524SOL    HW1 1588   0.078   1.193   4.465
  524SOL    HW2 1589   0.161   1.212   4.326
  525SOL     OW 1590   1.824   0.192   4.951
  525SOL    HW1 1591   1.820   0.102   4.995
  525SOL    HW2 1592   1.827   0.181   4.852
  526SOL     OW 1593   0.428   0.424   4.244
  526SOL    HW1 1594   0.458   0.352   4.182
  526SOL    HW2 1595   0.389   0.384   4.327
  527SOL     OW 1596   0.812   1.586   4.411
  527SOL    HW1 1597   0.844   1.596   4.317
  527SOL    HW2 1598   0.733   1.524   4.413
  528SOL     OW 1599   0.770   1.330   4.025
  528SOL    HW1 1600   0.724   1.243   4.042
  528SOL    HW2 1601   0.861   1.327   4.066
  529SOL     OW 1602   1.352   0.052   3.892
  529SOL    HW1 1603   1.387   0.011   3.808
  529SOL    HW2 1604   1.262   0.014   3.912
  530SOL     OW 1605   1.300   0.453   4.415
  530SOL    HW1 1606   1.241   0.533   4.419
  530SOL    HW2 1607   1.315   0.418   4.508
  531SOL     OW 1608   1.593   0.221   4.606
  531SOL    HW1 1609   1.509   0.220   4.660
  531SOL    HW2 1610   1.595   0.304   4.550
  532SOL     OW 1611   0.039   1.077   4.024
  532SOL    HW1 1612   0.138   1.066   4.015
  532SOL    HW2 1613  -0.001   0.991   4.056
  533SOL     OW 1614   0.875   1.646   4.061
  533SOL    HW1 1615   0.798   1.611   4.007
  533SOL    HW2 1616   0.843   1.717   4.123
  534SOL     OW 1617   0.230   2.490   0.113
  534SOL    HW1 1618   0.137   2.488   0.150
  534SOL    HW2 1619   0.231   2.451   0.021
  535SOL     OW 1620   0.225   2.137   0.996
  535SOL    HW1 1621   0.260   2.120   1.088
  535SOL    HW2 1622   0.137   2.092   0.984
  536SOL     OW 1623   0.019   2.230   0.647
  536SOL    HW1 1624  -0.063   2.273   0.686
  536SOL    HW2 1625  -0.009   2.157   0.584
  537SOL     OW 1626   0.569   3.137   1.165
  537SOL    HW1 1627   0.476   3.130   1.128
  537SOL    HW2 1628   0.580   3.226   1.209
  538SOL     OW 1629   1.555   3.373   0.703
  538SOL    HW1 1630   1.498   3.357   0.784
  538SOL    HW2 1631   1.496   3.383   0.623
  539SOL     OW 1632   1.135   2.565   0.717
  539SOL    HW1 1633   1.192   2.643   0.692
  539SOL    HW2 1634   1.075   2.591   0.793
  540SOL     OW 1635   1.755   2.469   0.231
  540SOL    HW1 1636   1.743   2.456   0.132
  540SOL    HW2 1637   1.725   2.388   0.280
  541SOL     OW 1638   0.768   3.006   1.023
  541SOL    HW1 1639   0.690   3.023   1.083
  541SOL    HW2 1640   0.802   3.093   0.987
  542SOL     OW 1641   0.850   2.660   1.823
  542SOL    HW1 1642   0.846   2.736   1.888
  542SOL    HW2 1643   0.872   2.696   1.732
  543SOL     OW 1644   0.685   2.874   0.665
  543SOL    HW1 1645   0.754   2.858   0.735
  543SOL    HW2 1646   0.612   2.931   0.703
  544SOL     OW 1647   0.686   3.023   1.803
  544SOL    HW1 1648   0.746   3.102   1.817
  544SOL    HW2 1649   0.600   3.054   1.762
  545SOL     OW 1650   0.335   3.297   1.061
  545SOL    HW1 1651   0.257   3.266   1.008
  545SOL    HW2 1652   0.393   3.355   1.004
  546SOL     OW 1653   1.460   3.367   1.339
  546SOL    HW1 1654   1.484   3.461   1.365
  546SOL    HW2 1655   1.444   3.313   1.421
  547SOL     OW 1656   0.438   2.254   1.499
  547SOL    HW1 1657   0.520   2.198   1.508
  547SOL    HW2 1658   0.357   2.196   1.503
  548SOL     OW 1659   1.603   2.309   0.737
  548SOL    HW1 1660   1.529   2.355   0.687
  548SOL    HW2 1661   1.654   2.377   0.790
  549SOL     OW 1662   0.231   3.575   0.483
  549SOL    HW1 1663   0.265   3.652   0.537
  549SOL    HW2 1664   0.275   3.575   0.393
  550SOL     OW 1665   1.127   3.203   1.690
  550SOL    HW1 1666   1.174   3.203   1.778
  550SOL    HW2 1667   1.079   3.116   1.679
  551SOL     OW 1668   0.230   3.296   0.538
  551SOL    HW1 1669   0.204   3.392   0.538
  551SOL    HW2 1670   0.159   3.242   0.583
  552SOL     OW 1671   0.240   2.953   0.886
  552SOL    HW1 1672   0.254   2.869   0.938
  552SOL    HW2 1673   0.185   3.017   0.941
  553SOL     OW 1674   0.620   3.648   1.439
  553SOL    HW1 1675   0.528   3.631   1.474
  553SOL    HW2 1676   0.648   3.740   1.465
  554SOL     OW 1677   0.606   2.826   0.123
  554SOL    HW1 1678   0.613   2.910   0.069
  554SOL    HW2 1679   0.652   2.839   0.211
  555SOL     OW 1680   1.594   1.976   1.480
  555SOL    HW1 1681   1.576   2.043   1.408
  555SOL    HW2 1682   1.591   2.022   1.569
  556SOL     OW 1683   0.122   2.505   0.563
  556SOL    HW1 1684   0.077   2.417   0.580
  556SOL    HW2 1685   0.121   2.559   0.647
  557SOL     OW 1686   1.842   3.629   0.359
  557SOL    HW1 1687   1.896   3.600   0.439
  557SOL    HW2 1688   1.872   3.719   0.330
  558SOL     OW 1689   0.027   3.458   0.117
  558SOL    HW1 1690   0.008   3.362   0.138
  558SOL    HW2 1691  -0.006   3.516   0.192
  559SOL     OW 1692   1.689   2.784   0.612
  559SOL    HW1 1693   1.784   2.755   0.620
  559SOL    HW2 1694   1.681   2.849   0.537
  560SOL     OW 1695   1.641   2.970   0.432
  560SOL    HW1 1696   1.727   2.972   0.380
  560SOL    HW2 1697   1.655   3.017   0.520
  561SOL     OW 1698   0.113   2.599   1.597
  561SOL    HW1 1699   0.201   2.586   1.642
  561SOL    HW2 1700   0.100   2.696   1.575
  562SOL     OW 1701   0.613   3.227   0.726
  562SOL    HW1 1702   0.564   3.140   0.735
  562SOL    HW2 1703   0.590   3.270   0.639
  563SOL     OW 1704   1.293   3.090   1.423
  563SOL    HW1 1705   1.330   3.017   1.365
  563SOL    HW2 1706   1.345   3.095   1.508
  564SOL     OW 1707   0.809   1.866   0.502
  564SOL    HW1 1708   0.849   1.957   0.493
  564SOL    HW2 1709   0.709   1.874   0.508
  565SOL     OW 1710   0.197   2.838   1.264
  565SOL    HW1 1711   0.286   2.793   1.250
  565SOL    HW2 1712   0.124   2.773   1.245
  566SOL     OW 1713   1.525   2.861   0.190
  566SOL    HW1 1714   1.462   2.785   0.203
  566SOL    HW2 1715   1.573   2.879   0.276
  567SOL     OW 1716   1.187   3.654   1.616
  567SOL    HW1 1717   1.211   3.714   1.540
  567SOL    HW2 1718   1.194   3.559   1.586
  568SOL     OW 1719   0.317   2.113   1.801
  568SOL    HW1 1720   0.388   2.184   1.807
  568SOL    HW2 1721   0.229   2.152   1.829
  569SOL     OW 1722   1.466   3.279   0.953
  569SOL    HW1 1723   1.407   3.285   1.033
  569SOL    HW2 1724   1.451   3.191   0.907
  570SOL     OW 1725   1.667   3.576   0.572
  570SOL    HW1 1726   1.626   3.553   0.484
  570SOL    HW2 1727   1.649   3.502   0.637
  571SOL     OW 1728   0.598   2.591   0.270
  571SOL    HW1 1729   0.622   2.660   0.202
  571SOL    HW2 1730   0.520   2.624   0.324
  572SOL     OW 1731   1.281   2.207   0.944
  572SOL    HW1 1732   1.195   2.157   0.931
  572SOL    HW2 1733   1.343   2.153   1.000
  573SOL     OW 1734   1.576   3.524   0.307
  573SOL    HW1 1735   1.665   3.570   0.310
  573SOL    HW2 1736   1.555   3.500   0.212
  574SOL     OW 1737   0.807   2.467   1.465
  574SOL    HW1 1738   0.760   2.464   1.554
  574SOL    HW2 1739   0.756   2.412   1.399
  575SOL     OW 1740   1.394   2.331   1.674
  575SOL    HW1 1741   1.374   2.374   1.762
  575SOL    HW2 1742   1.472   2.269   1.683
  576SOL     OW 1743   0.973   2.752   1.572
  576SOL    HW1 1744   1.019   2.668   1.543
  576SOL    HW2 1745   0.917   2.786   1.497
  577SOL     OW 1746   0.991   2.272   1.242
  577SOL    HW1 1747   0.914   2.306   1.296
  577SOL    HW2 1748   0.957   2.221   1.163
  578SOL     OW 1749   1.041   2.563   0.429
  578SOL    HW1 1750   1.067   2.559   0.525
  578SOL    HW2 1751   0.956   2.512   0.415
  579SOL     OW 1752   0.076   2.673   0.789
  579SOL    HW1 1753   0.175   2.661   0.798
  579SOL    HW2 1754   0.052   2.768   0.810
  580SOL     OW 1755   0.130   3.683   1.571
  580SOL    HW1 1756   0.120   3.668   1.670
  580SOL    HW2 1757   0.044   3.719   1.535
  581SOL     OW 1758   0.865   2.210   0.195
  581SOL    HW1 1759   0.924   2.273   0.146
  581SOL    HW2 1760   0.884   2.116   0.166
  582SOL     OW 1761   1.719   2.447   1.831
  582SOL    HW1 1762   1.693   2.536   1.795
  582SOL    HW2 1763   1.717   2.379   1.758
  583SOL     OW 1764   1.362   3.006   0.545
  583SOL    HW1 1765   1.445   2.977   0.497
  583SOL    HW2 1766   1.313   3.073   0.489
  584SOL     OW 1767   0.550   2.058   0.885
  584SOL    HW1 1768   0.545   2.053   0.985
  584SOL    HW2 1769   0.552   2.154   0.856
  585SOL     OW 1770   1.008   3.318   0.477
  585SOL    HW1 1771   0.962   3.390   0.425
  585SOL    HW2 1772   1.004   3.338   0.575
  586SOL     OW 1773   0.351   3.663   0.853
  586SOL    HW1 1774   0.401   3.577   0.859
  586SOL    HW2 1775   0.416   3.740   0.850
  587SOL     OW 1776   1.795   2.928   0.873
  587SOL    HW1 1777   1.733   2.913   0.797
  587SOL    HW2 1778   1.743   2.939   0.958
  588SOL     OW 1779   1.227   3.412   1.506
  588SOL    HW1 1780   1.233   3.335   1.570
  588SOL    HW2 1781   1.175   3.386   1.426
  589SOL     OW 1782   0.321   2.805   0.242
  589SOL    HW1 1783   0.403   2.844   0.200
  589SOL    HW2 1784   0.294   2.723   0.193
  590SOL     OW 1785   1.458   2.597   0.728
  590SOL    HW1 1786   1.453   2.532   0.803
  590SOL    HW2 1787   1.538   2.656   0.741
  591SOL     OW 1788   0.461   3.128   1.727
  591SOL    HW1 1789   0.411   3.129   1.641
  591SOL    HW2 1790   0.398   3.110   1.803
  592SOL     OW 1791   1.111   3.638   0.237
  592SOL    HW1 1792   1.051   3.576   0.287
  592SOL    HW2 1793   1.142   3.594   0.152
  593SOL     OW 1794   0.202   2.147   1.498
  593SOL    HW1 1795   0.122   2.207   1.485
  593SOL    HW2 1796   0.192   2.098   1.584
  594SOL     OW 1797   1.632   3.239   0.081
  594SOL    HW1 1798   1.600   3.333   0.071
  594SOL    HW2 1799   1.556   3.176   0.069
  595SOL     OW 1800   0.464   3.605   0.323
  595SOL    HW1 1801   0.497   3.644   0.409
  595SOL    HW2 1802   0.540   3.598   0.258
  596SOL     OW 1803   1.400   1.969   0.426
  596SOL    HW1 1804   1.376   1.932   0.336
  596SOL    HW2 1805   1.499   1.985   0.430
  597SOL     OW 1806   0.249   3.647   1.241
  597SOL    HW1 1807   0.306   3.582   1.291
  597SOL    HW2 1808   0.233   3.614   1.148
  598SOL     OW 1809   0.940   3.560   0.904
  598SOL    HW1 1810   1.020   3.503   0.925
  598SOL    HW2 1811   0.891   3.520   0.827
  599SOL     OW 1812   0.382   2.562   0.480
  599SOL    HW1 1813   0.427   2.472   0.477
  599SOL    HW2 1814   0.288   2.551   0.513
  600SOL     OW 1815   1.547   2.084   1.729
  600SOL    HW1 1816   1.542   2.121   1.821
  600SOL    HW2 1817   1.475   2.015   1.717
  601SOL     OW 1818   0.781   2.126   1.749
  601SOL    HW1 1819   0.848   2.065   1.792
  601SOL    HW2 1820   0.708   2.145   1.814
  602SOL     OW 1821   0.888   3.376   1.195
  602SOL    HW1 1822   0.865   3.351   1.101
  602SOL    HW2 1823   0.949   3.307   1.234
  603SOL     OW 1824   1.351   2.452   1.433
  603SOL    HW1 1825   1.379   2.409   1.518
  603SOL    HW2 1826   1.376   2.548   1.434
  604SOL     OW 1827   0.803   3.264   0.924
  604SOL    HW1 1828   0.893   3.278   0.882
  604SOL    HW2 1829   0.732   3.266   0.853
  605SOL     OW 1830   0.922   2.365   0.899
  605SOL    HW1 1831   0.897   2.356   0.803
  605SOL    HW2 1832   0.970   2.283   0.930
  606SOL     OW 1833   0.539   1.926   0.512
  606SOL    HW1 1834   0.458   1.927   0.570
  606SOL    HW2 1835   0.542   2.009   0.457
  607SOL     OW 1836   1.434   3.050   0.041
  607SOL    HW1 1837   1.466   2.974   0.098
  607SOL    HW2 1838   1.342   3.077   0.071
  608SOL     OW 1839   0.297   1.897   0.171
  608SOL    HW1 1840   0.346   1.981   0.150
  608SOL    HW2 1841   0.359   1.832   0.216
  609SOL     OW 1842   0.935   2.098   0.480
  609SOL    HW1 1843   0.887   2.139   0.402
  609SOL    HW2 1844   1.034   2.096   0.461
  610SOL     OW 1845   1.076   2.545   1.464
  610SOL    HW1 1846   0.996   2.484   1.467
  610SOL    HW2 1847   1.157   2.492   1.440
  611SOL     OW 1848   1.227   3.432   0.793
  611SOL    HW1 1849   1.248   3.506   0.728
  611SOL    HW2 1850   1.295   3.432   0.866
  612SOL     OW 1851   0.459   3.014   0.741
  612SOL    HW1 1852   0.388   2.987   0.806
  612SOL    HW2 1853   0.433   2.986   0.648
  613SOL     OW 1854   1.271   3.659   0.591
  613SOL    HW1 1855   1.315   3.723   0.527
  613SOL    HW2 1856   1.221   3.711   0.661
  614SOL     OW 1857   1.032   2.411   0.016
  614SOL    HW1 1858   0.991   2.493  -0.023
  614SOL    HW2 1859   1.096   2.437   0.089
  615SOL     OW 1860   0.078   2.418   1.386
  615SOL    HW1 1861   0.170   2.417   1.345
  615SOL    HW2 1862   0.072   2.492   1.453
  616SOL     OW 1863   0.561   2.084   1.147
  616SOL    HW1 1864   0.599   2.000   1.184
  616SOL    HW2 1865   0.473   2.103   1.191
  617SOL     OW 1866   0.866   2.316   0.642
  617SOL    HW1 1867   0.834   2.388   0.580
  617SOL    HW2 1868   0.890   2.235   0.589
  618SOL     OW 1869   1.017   1.901   0.753
  618SOL    HW1 1870   0.945   1.906   0.684
  618SOL    HW2 1871   0.993   1.832   0.822
  619SOL     OW 1872   1.429   3.035   0.867
  619SOL    HW1 1873   1.374   2.951   0.860
  619SOL    HW2 1874   1.455   3.064   0.775
  620SOL     OW 1875   1.466   2.452   0.992
  620SOL    HW1 1876   1.436   2.357   0.999
  620SOL    HW2 1877   1.539   2.468   1.058
  621SOL     OW 1878   1.857   2.695   0.377
  621SOL    HW1 1879   1.899   2.631   0.441
  621SOL    HW2 1880   1.819   2.644   0.299
  622SOL     OW 1881   0.488   3.247   0.174
  622SOL    HW1 1882   0.401   3.232   0.221
  622SOL    HW2 1883   0.471   3.273   0.079
  623SOL     OW 1884   1.664   3.142   0.657
  623SOL    HW1 1885   1.763   3.150   0.671
  623SOL    HW2 1886   1.619   3.226   0.688
  624SOL     OW 1887   1.390   2.437   0.078
  624SOL    HW1 1888   1.336   2.416   0.159
  624SOL    HW2 1889   1.481   2.396   0.087
  625SOL     OW 1890   0.527   2.118   0.328
  625SOL    HW1 1891   0.554   2.059   0.253
  625SOL    HW2 1892   0.527   2.213   0.297
  626SOL     OW 1893   1.754   3.085   1.588
  626SOL    HW1 1894   1.845   3.046   1.575
  626SOL    HW2 1895   1.762   3.181   1.612
  627SOL     OW 1896   1.064   3.209   1.340
  627SOL    HW1 1897   0.984   3.186   1.395
  627SOL    HW2 1898   1.147   3.183   1.389
  628SOL     OW 1899   1.592   3.491   1.625
  628SOL    HW1 1900   1.619   3.525   1.535
  628SOL    HW2 1901   1.671   3.453   1.671
  629SOL     OW 1902   1.111   3.057   1.100
  629SOL    HW1 1903   1.071   3.101   1.181
  629SOL    HW2 1904   1.070   3.094   1.017
  630SOL     OW 1905   1.638   2.961   1.079
  630SOL    HW1 1906   1.643   3.042   1.138
  630SOL    HW2 1907   1.552   2.963   1.028
  631SOL     OW 1908   0.915   1.951   1.402
  631SOL    HW1 1909   0.940   1.931   1.307
  631SOL    HW2 1910   0.987   2.007   1.444
  632SOL     OW 1911   0.980   2.978   1.719
  632SOL    HW1 1912   0.881   2.984   1.729
  632SOL    HW2 1913   1.003   2.898   1.663
  633SOL     OW 1914   0.705   2.912   0.368
  633SOL    HW1 1915   0.691   2.919   0.467
  633SOL    HW2 1916   0.789   2.861   0.350
  634SOL     OW 1917   0.410   2.675   1.251
  634SOL    HW1 1918   0.496   2.687   1.301
  634SOL    HW2 1919   0.368   2.588   1.278
  635SOL     OW 1920   1.274   2.248   1.262
  635SOL    HW1 1921   1.295   2.322   1.326
  635SOL    HW2 1922   1.185   2.265   1.219
  636SOL     OW 1923   0.064   3.426   1.331
  636SOL    HW1 1924   0.018   3.508   1.297
  636SOL    HW2 1925   0.162   3.445   1.340
  637SOL     OW 1926   0.367   2.962   0.501
  637SOL    HW1 1927   0.360   3.045   0.445
  637SOL    HW2 1928   0.371   2.882   0.441
  638SOL     OW 1929   0.566   2.399   0.865
  638SOL    HW1 1930   0.578   2.465   0.791
  638SOL    HW2 1931   0.612   2.433   0.948
  639SOL     OW 1932   1.252   3.210   0.388
  639SOL    HW1 1933   1.302   3.287   0.428
  639SOL    HW2 1934   1.157   3.212   0.420
  640SOL     OW 1935   1.272   3.307   1.142
  640SOL    HW1 1936   1.319   3.320   1.229
  640SOL    HW2 1937   1.206   3.233   1.151
  641SOL     OW 1938   1.582   2.501   0.472
  641SOL    HW1 1939   1.551   2.562   0.545
  641SOL    HW2 1940   1.632   2.553   0.403
  642SOL     OW 1941   0.354   3.372   1.329
  642SOL    HW1 1942   0.333   3.328   1.242
  642SOL    HW2 1943   0.451   3.398   1.332
  643SOL     OW 1944   0.402   2.613   1.598
  643SOL    HW1 1945   0.470   2.668   1.551
  643SOL    HW2 1946   0.442   2.525   1.625
  644SOL     OW 1947   1.587   2.641   1.670
  644SOL    HW1 1948   1.495   2.679   1.665
  644SOL    HW2 1949   1.647   2.688   1.605
  645SOL     OW 1950   1.013   1.967   1.770
  645SOL    HW1 1951   1.019   2.052   1.718
  645SOL    HW2 1952   1.045   1.891   1.713
  646SOL     OW 1953   0.504   1.912   1.740
  646SOL    HW1 1954   0.462   1.855   1.670
  646SOL    HW2 1955   0.438   1.981   1.772
  647SOL     OW 1956   0.573   2.732   1.029
  647SOL    HW1 1957   0.617   2.821   1.020
  647SOL    HW2 1958   0.510   2.732   1.106
  648SOL     OW 1959   1.360   2.724   1.045
  648SOL    HW1 1960   1.285   2.724   0.979
  648SOL    HW2 1961   1.397   2.632   1.054
  649SOL     OW 1962   1.209   2.387   0.275
  649SOL    HW1 1963   1.222   2.303   0.329
  649SOL    HW2 1964   1.180   2.461   0.335
  650SOL     OW 1965   0.307   2.075   1.231
  650SOL    HW1 1966   0.284   2.112   1.321
  650SOL    HW2 1967   0.277   1.980   1.225
  651SOL     OW 1968   0.037   3.172   1.282
  651SOL    HW1 1969   0.090   3.123   1.350
  651SOL    HW2 1970   0.059   3.270   1.287
  652SOL     OW 1971   0.732   2.496   1.064
  652SOL    HW1 1972   0.791   2.470   0.988
  652SOL    HW2 1973   0.704   2.592   1.053
  653SOL     OW 1974   1.728   2.797   1.854
  653SOL    HW1 1975   1.682   2.790   1.765
  653SOL    HW2 1976   1.666   2.841   1.920
  654SOL     OW 1977   0.307   1.925   0.618
  654SOL    HW1 1978   0.296   2.019   0.651
  654SOL    HW2 1979   0.302   1.862   0.695
  655SOL     OW 1980   1.622   2.229   0.374
  655SOL    HW1 1981   1.624   2.153   0.438
  655SOL    HW2 1982   1.574   2.306   0.414
  656SOL     OW 1983   1.023   2.628   0.966
  656SOL    HW1 1984   1.038   2.649   1.062
  656SOL    HW2 1985   0.993   2.533   0.957
  657SOL     OW 1986   0.980   3.435   1.700
  657SOL    HW1 1987   0.960   3.479   1.612
  657SOL    HW2 1988   1.019   3.344   1.684
  658SOL     OW 1989   1.859   3.380   1.605
  658SOL    HW1 1990   1.873   3.407   1.510
  658SOL    HW2 1991   1.942   3.402   1.658
  659SOL     OW 1992   0.350   2.760   1.804
  659SOL    HW1 1993   0.426   2.804   1.852
  659SOL    HW2 1994   0.385   2.713   1.722
  660SOL     OW 1995   1.540   2.136   0.125
  660SOL    HW1 1996   1.479   2.061   0.148
  660SOL    HW2 1997   1.562   2.188   0.208
  661SOL     OW 1998   1.303   2.700   0.042
  661SOL    HW1 1999   1.337   2.607   0.057
  661SOL    HW2 2000   1.321   2.727  -0.053
  662SOL     OW 2001   1.068   3.195   0.849
  662SOL    HW1 2002   1.075   3.111   0.794
  662SOL    HW2 2003   1.130   3.264   0.813
  663SOL     OW 2004   0.319   2.672   0.949
  663SOL    HW1 2005   0.412   2.708   0.954
  663SOL    HW2 2006   0.313   2.587   1.001
  664SOL     OW 2007   0.339   2.371   1.006
  664SOL    HW1 2008   0.287   2.288   0.989
  664SOL    HW2 2009   0.416   2.376   0.942
  665SOL     OW 2010   1.138   2.242   1.678
  665SOL    HW1 2011   1.093   2.305   1.742
  665SOL    HW2 2012   1.231   2.273   1.661
  666SOL     OW 2013   1.160   2.069   1.477
  666SOL    HW1 2014   1.160   2.133   1.554
  666SOL    HW2 2015   1.188   2.117   1.394
  667SOL     OW 2016   0.008   3.188   0.200
  667SOL    HW1 2017  -0.085   3.209   0.169
  667SOL    HW2 2018   0.018   3.089   0.213
  668SOL     OW 2019   0.088   3.663   0.927
  668SOL    HW1 2020   0.046   3.577   0.900
  668SOL    HW2 2021   0.182   3.666   0.893
  669SOL     OW 2022   0.504   3.430   0.910
  669SOL    HW1 2023   0.570   3.504   0.919
  669SOL    HW2 2024   0.548   3.351   0.868
  670SOL     OW 2025   1.002   2.658   1.238
  670SOL    HW1 2026   1.043   2.626   1.324
  670SOL    HW2 2027   0.906   2.631   1.235
  671SOL     OW 2028   0.040   2.406   1.114
  671SOL    HW1 2029   0.125   2.373   1.073
  671SOL    HW2 2030   0.053   2.421   1.212
  672SOL     OW 2031   0.189   2.382   1.722
  672SOL    HW1 2032   0.248   2.342   1.652
  672SOL    HW2 2033   0.131   2.453   1.681
  673SOL     OW 2034   1.369   2.812   1.660
  673SOL    HW1 2035   1.408   2.901   1.680
  673SOL    HW2 2036   1.379   2.792   1.563
  674SOL     OW 2037   0.815   2.434   0.325
  674SOL    HW1 2038   0.822   2.345   0.279
  674SOL    HW2 2039   0.721   2.468   0.317
  675SOL     OW 2040   1.657   2.466   1.206
  675SOL    HW1 2041   1.619   2.397   1.268
  675SOL    HW2 2042   1.739   2.430   1.162
  676SOL     OW 2043   0.252   3.426   1.744
  676SOL    HW1 2044   0.222   3.483   1.820
  676SOL    HW2 2045   0.245   3.329   1.770
  677SOL     OW 2046   0.671   2.326   1.269
  677SOL    HW1 2047   0.637   2.237   1.239
  677SOL    HW2 2048   0.697   2.380   1.189
  678SOL     OW 2049   0.930   3.540   1.465
  678SOL    HW1 2050   0.906   3.522   1.370
  678SOL    HW2 2051   0.960   3.634   1.475
  679SOL     OW 2052   0.473   2.362   0.191
  679SOL    HW1 2053   0.534   2.442   0.195
  679SOL    HW2 2054   0.378   2.393   0.198
  680SOL     OW 2055   0.159   2.999   1.466
  680SOL    HW1 2056   0.181   2.938   1.542
  680SOL    HW2 2057   0.169   2.950   1.380
  681SOL     OW 2058   1.347   2.921   1.234
  681SOL    HW1 2059   1.371   2.858   1.160
  681SOL    HW2 2060   1.257   2.961   1.216
  682SOL     OW 2061   1.302   2.717   0.309
  682SOL    HW1 2062   1.216   2.686   0.351
  682SOL    HW2 2063   1.298   2.703   0.210
  683SOL     OW 2064   1.759   3.609   1.154
  683SOL    HW1 2065   1.820   3.639   1.081
  683SOL    HW2 2066   1.721   3.520   1.132
  684SOL     OW 2067   1.252   3.593   1.128
  684SOL    HW1 2068   1.336   3.598   1.074
  684SOL    HW2 2069   1.229   3.497   1.146
  685SOL     OW 2070   0.083   3.120   1.022
  685SOL    HW1 2071   0.078   3.119   1.122
  685SOL    HW2 2072   0.000   3.079   0.984
  686SOL     OW 2073   0.688   3.524   1.716
  686SOL    HW1 2074   0.632   3.605   1.725
  686SOL    HW2 2075   0.740   3.528   1.630
  687SOL     OW 2076   0.903   1.948   0.133
  687SOL    HW1 2077   0.954   1.949   0.047
  687SOL    HW2 2078   0.959   1.906   0.204
  688SOL     OW 2079   1.726   1.997   0.523
  688SOL    HW1 2080   1.799   1.980   0.456
  688SOL    HW2 2081   1.695   1.910   0.561
  689SOL     OW 2082   1.388   3.435   0.477
  689SOL    HW1 2083   1.455   3.447   0.403
  689SOL    HW2 2084   1.348   3.524   0.500
  690SOL     OW 2085   0.130   3.656   1.851
  690SOL    HW1 2086   0.089   3.582   1.904
  690SOL    HW2 2087   0.194   3.707   1.909
  691SOL     OW 2088   1.280   2.789   0.672
  691SOL    HW1 2089   1.340   2.708   0.674
  691SOL    HW2 2090   1.320   2.858   0.612
  692SOL     OW 2091   0.830   3.135   1.422
  692SOL    HW1 2092   0.825   3.168   1.517
  692SOL    HW2 2093   0.744   3.154   1.376
  693SOL     OW 2094   0.672   3.478   0.154
  693SOL    HW1 2095   0.681   3.488   0.055
  693SOL    HW2 2096   0.632   3.389   0.175
  694SOL     OW 2097   1.650   3.582   1.394
  694SOL    HW1 2098   1.703   3.592   1.310
  694SOL    HW2 2099   1.623   3.672   1.428
  695SOL     OW 2100   1.841   2.037   0.963
  695SOL    HW1 2101   1.880   1.952   0.927
  695SOL    HW2 2102   1.743   2.039   0.944
  696SOL     OW 2103   0.263   2.188   0.720
  696SOL    HW1 2104   0.184   2.239   0.686
  696SOL    HW2 2105   0.254   2.173   0.818
  697SOL     OW 2106   1.194   3.474   0.031
  697SOL    HW1 2107   1.200   3.381   0.068
  697SOL    HW2 2108   1.135   3.474  -0.049
  698SOL     OW 2109   0.822   2.864   1.372
  698SOL    HW1 2110   0.862   2.863   1.280
  698SOL    HW2 2111   0.832   2.956   1.412
  699SOL     OW 2112   0.916   2.772   0.291
  699SOL    HW1 2113   0.979   2.810   0.223
  699SOL    HW2 2114   0.956   2.689   0.330
  700SOL     OW 2115   1.504   3.469   0.044
  700SOL    HW1 2116   1.412   3.506   0.051
  700SOL    HW2 2117   1.542   3.489  -0.046
  701SOL     OW 2118   0.372   3.150   1.490
  701SOL    HW1 2119   0.359   3.243   1.456
  701SOL    HW2 2120   0.288   3.098   1.477
  702SOL     OW 2121   1.614   3.154   1.289
  702SOL    HW1 2122   1.674   3.157   1.369
  702SOL    HW2 2123   1.539   3.218   1.302
  703SOL     OW 2124   1.039   2.960   0.696
  703SOL    HW1 2125   0.969   2.913   0.750
  703SOL    HW2 2126   1.098   2.892   0.653
  704SOL     OW 2127   1.014   2.098   0.971
  704SOL    HW1 2128   1.006   2.062   0.878
  704SOL    HW2 2129   1.012   2.022   1.036
  705SOL     OW 2130   0.590   3.349   0.491
  705SOL    HW1 2131   0.632   3.291   0.421
  705SOL    HW2 2132   0.546   3.428   0.447
  706SOL     OW 2133   1.709   2.247   1.381
  706SOL    HW1 2134   1.782   2.316   1.385
  706SOL    HW2 2135   1.737   2.172   1.322
  707SOL     OW 2136   0.255   3.210   0.290
  707SOL    HW1 2137   0.159   3.211   0.263
  707SOL    HW2 2138   0.267   3.263   0.374
  708SOL     OW 2139   0.105   2.875   1.726
  708SOL    HW1 2140   0.028   2.842   1.780
  708SOL    HW2 2141   0.190   2.845   1.768
  709SOL     OW 2142   0.672   2.065   1.489
  709SOL    HW1 2143   0.762   2.049   1.449
  709SOL    HW2 2144   0.680   2.070   1.588
  710SOL     OW 2145   0.075   2.207   0.033
  710SOL    HW1 2146  -0.017   2.179   0.004
  710SOL    HW2 2147   0.106   2.284  -0.023
  711SOL     OW 2148   1.440   2.718   1.398
  711SOL    HW1 2149   1.383   2.770   1.335
  711SOL    HW2 2150   1.536   2.730   1.374
  712SOL     OW 2151   0.072   2.028   0.318
  712SOL    HW1 2152   0.055   2.111   0.264
  712SOL    HW2 2153   0.162   1.991   0.296
  713SOL     OW 2154   1.183   3.197   0.119
  713SOL    HW1 2155   1.084   3.186   0.121
  713SOL    HW2 2156   1.217   3.212   0.212
  714SOL     OW 2157   0.613   2.704   1.431
  714SOL    HW1 2158   0.669   2.785   1.414
  714SOL    HW2 2159   0.672   2.624   1.434
  715SOL     OW 2160   1.493   3.629   0.959
  715SOL    HW1 2161   1.526   3.693   0.890
  715SOL    HW2 2162   1.559   3.623   1.034
  716SOL     OW 2163   0.716   2.427   1.708
  716SOL    HW1 2164   0.735   2.492   1.782
  716SOL    HW2 2165   0.776   2.347   1.717
  717SOL     OW 2166   1.450   3.082   1.633
  717SOL    HW1 2167   1.441   3.072   1.732
  717SOL    HW2 2168   1.546   3.075   1.607
  718SOL     OW 2169   0.390   3.603   1.560
  718SOL    HW1 2170   0.299   3.644   1.558
  718SOL    HW2 2171   0.383   3.509   1.592
  719SOL     OW 2172   1.674   2.745   1.254
  719SOL    HW1 2173   1.647   2.656   1.217
  719SOL    HW2 2174   1.675   2.813   1.181
  720SOL     OW 2175   1.225   2.187   0.449
  720SOL    HW1 2176   1.290   2.113   0.438
  720SOL    HW2 2177   1.245   2.237   0.533
  721SOL     OW 2178   0.594   2.607   0.652
  721SOL    HW1 2179   0.644   2.692   0.633
  721SOL    HW2 2180   0.506   2.609   0.604
  722SOL     OW 2181   1.777   2.204   1.642
  722SOL    HW1 2182   1.760   2.235   1.548
  722SOL    HW2 2183   1.693   2.167   1.680
  723SOL     OW 2184   1.730   2.796   1.517
  723SOL    HW1 2185   1.768   2.887   1.532
  723SOL    HW2 2186   1.722   2.779   1.418
  724SOL     OW 2187   0.859   3.236   0.016
  724SOL    HW1 2188   0.813   3.251   0.104
  724SOL    HW2 2189   0.903   3.321  -0.014
  725SOL     OW 2190   0.661   3.652   0.953
  725SOL    HW1 2191   0.615   3.740   0.940
  725SOL    HW2 2192   0.760   3.664   0.946
  726SOL     OW 2193   0.859   2.818   0.861
  726SOL    HW1 2194   0.913   2.749   0.909
  726SOL    HW2 2195   0.827   2.887   0.927
  727SOL     OW 2196   1.083   2.846   0.087
  727SOL    HW1 2197   1.060   2.899   0.005
  727SOL    HW2 2198   1.164   2.790   0.068
  728SOL     OW 2199   1.861   3.431   0.851
  728SOL    HW1 2200   1.790   3.419   0.781
  728SOL    HW2 2201   1.862   3.352   0.911
  729SOL     OW 2202   0.221   3.176   1.844
  729SOL    HW1 2203   0.156   3.103   1.823
  729SOL    HW2 2204   0.225   3.190   1.942
  730SOL     OW 2205   0.079   3.102   0.653
  730SOL    HW1 2206   0.078   3.055   0.741
  730SOL    HW2 2207   0.161   3.074   0.602
  731SOL     OW 2208   0.672   3.253   1.624
  731SOL    HW1 2209   0.594   3.203   1.662
  731SOL    HW2 2210   0.669   3.348   1.655
  732SOL     OW 2211   1.824   2.054   1.227
  732SOL    HW1 2212   1.820   1.964   1.271
  732SOL    HW2 2213   1.827   2.043   1.128
  733SOL     OW 2214   0.428   2.286   0.520
  733SOL    HW1 2215   0.458   2.214   0.458
  733SOL    HW2 2216   0.389   2.246   0.603
  734SOL     OW 2217   1.705   3.349   1.104
  734SOL    HW1 2218   1.612   3.324   1.077
  734SOL    HW2 2219   1.731   3.299   1.186
  735SOL     OW 2220   0.317   2.409   1.280
  735SOL    HW1 2221   0.355   2.350   1.352
  735SOL    HW2 2222   0.357   2.383   1.192
  736SOL     OW 2223   0.812   3.448   0.687
  736SOL    HW1 2224   0.844   3.458   0.593
  736SOL    HW2 2225   0.733   3.386   0.689
  737SOL     OW 2226   1.424   2.076   1.112
  737SOL    HW1 2227   1.476   2.011   1.167
  737SOL    HW2 2228   1.375   2.139   1.173
  738SOL     OW 2229   1.001   1.896   1.154
  738SOL    HW1 2230   0.938   1.824   1.123
  738SOL    HW2 2231   1.094   1.860   1.154
  739SOL     OW 2232   0.770   3.192   0.301
  739SOL    HW1 2233   0.724   3.105   0.318
  739SOL    HW2 2234   0.861   3.189   0.342
  740SOL     OW 2235   0.618   3.429   1.284
  740SOL    HW1 2236   0.613   3.511   1.341
  740SOL    HW2 2237   0.707   3.426   1.239
  741SOL     OW 2238   1.352   1.914   0.168
  741SOL    HW1 2239   1.387   1.873   0.084
  741SOL    HW2 2240   1.262   1.876   0.188
  742SOL     OW 2241   1.300   2.315   0.691
  742SOL    HW1 2242   1.241   2.395   0.695
  742SOL    HW2 2243   1.315   2.280   0.784
  743SOL     OW 2244   1.593   2.083   0.882
  743SOL    HW1 2245   1.509   2.082   0.936
  743SOL    HW2 2246   1.595   2.166   0.826
  744SOL     OW 2247   0.039   2.939   0.300
  744SOL    HW1 2248   0.138   2.928   0.291
  744SOL    HW2 2249  -0.001   2.853   0.332
  745SOL     OW 2250   0.875   3.508   0.337
  745SOL    HW1 2251   0.798   3.473   0.283
  745SOL    HW2 2252   0.843   3.579   0.399
  746SOL     OW 2253   0.230   2.490   1.975
  746SOL    HW1 2254   0.137   2.488   2.012
  746SOL    HW2 2255   0.231   2.451   1.883
  747SOL     OW 2256   0.225   2.137   2.858
  747SOL    HW1 2257   0.260   2.120   2.950
  747SOL    HW2 2258   0.137   2.092   2.846
  748SOL     OW 2259   0.019   2.230   2.509
  748SOL    HW1 2260  -0.063   2.273   2.548
  748SOL    HW2 2261  -0.009   2.157   2.446
  749SOL     OW 2262   0.569   3.137   3.027
  749SOL    HW1 2263   0.476   3.130   2.990
  749SOL    HW2 2264   0.580   3.226   3.071
  750SOL     OW 2265   1.555   3.373   2.565
  750SOL    HW1 2266   1.498   3.357   2.646
  750SOL    HW2 2267   1.496   3.383   2.485
  751SOL     OW 2268   1.135   2.565   2.579
  751SOL    HW1 2269   1.192   2.643   2.554
  751SOL    HW2 2270   1.075   2.591   2.655
  752SOL     OW 2271   1.755   2.469   2.093
  752SOL    HW1 2272   1.743   2.456   1.994
  752SOL    HW2 2273   1.725   2.388   2.142
  753SOL     OW 2274   0.768   3.006   2.885
  753SOL    HW1 2275   0.690   3.023   2.945
  753SOL    HW2 2276   0.802   3.093   2.849
  754SOL     OW 2277   0.850   2.660   3.685
  754SOL    HW1 2278   0.846   2.736   3.750
  754SOL    HW2 2279   0.872   2.696   3.594
  755SOL     OW 2280   0.685   2.874   2.527
  755SOL    HW1 2281   0.754   2.858   2.597
  755SOL    HW2 2282   0.612   2.931   2.565
  756SOL     OW 2283   0.686   3.023   3.665
  756SOL    HW1 2284   0.746   3.102   3.679
  756SOL    HW2 2285   0.600   3.054   3.624
  757SOL     OW 2286   0.335   3.297   2.923
  757SOL    HW1 2287   0.257   3.266   2.870
  757SOL    HW2 2288   0.393   3.355   2.866
  758SOL     OW 2289   1.460   3.367   3.201
  758SOL    HW1 2290   1.484   3.461   3.227
  758SOL    HW2 2291   1.444   3.313   3.283
  759SOL     OW 2292   0.438   2.254   3.361
  759SOL    HW1 2293   0.520   2.198   3.370
  759SOL    HW2 2294   0.357   2.196   3.365
  760SOL     OW 2295   1.603   2.309   2.599
  760SOL    HW1 2296   1.529   2.355   2.549
  760SOL    HW2 2297   1.654   2.377   2.652
  761SOL     OW 2298   0.231   3.575   2.345
  761SOL    HW1 2299   0.265   3.652   2.399
  761SOL    HW2 2300   0.275   3.575   2.255
  762SOL     OW 2301   1.127   3.203   3.552
  762SOL    HW1 2302   1.174   3.203   3.640
  762SOL    HW2 2303   1.079   3.116   3.541
  763SOL     OW 2304   0.230   3.296   2.400
  763SOL    HW1 2305   0.204   3.392   2.400
  763SOL    HW2 2306   0.159   3.242   2.445
  764SOL     OW 2307   0.240   2.953   2.748
  764SOL    HW1 2308   0.254   2.869   2.800
  764SOL    HW2 2309   0.185   3.017   2.803
  765SOL     OW 2310   0.620   3.648   3.301
  765SOL    HW1 2311   0.528   3.631   3.336
  765SOL    HW2 2312   0.648   3.740   3.327
  766SOL     OW 2313   0.606   2.826   1.985
  766SOL    HW1 2314   0.613   2.910   1.931
  766SOL    HW2 2315   0.652   2.839   2.073
  767SOL     OW 2316   1.594   1.976   3.342
  767SOL    HW1 2317   1.576   2.043   3.270
  767SOL    HW2 2318   1.591   2.022   3.431
  768SOL     OW 2319   0.122   2.505   2.425
  768SOL    HW1 2320   0.077   2.417   2.442
  768SOL    HW2 2321   0.121   2.559   2.509
  769SOL     OW 2322   1.842   3.629   2.221
  769SOL    HW1 2323   1.896   3.600   2.301
  769SOL    HW2 2324   1.872   3.719   2.192
  770SOL     OW 2325   0.027   3.458   1.979
  770SOL    HW1 2326   0.008   3.362   2.000
  770SOL    HW2 2327  -0.006   3.516   2.054
  771SOL     OW 2328   1.689   2.784   2.474
  771SOL    HW1 2329   1.784   2.755   2.482
  771SOL    HW2 2330   1.681   2.849   2.399
  772SOL     OW 2331   1.641   2.970   2.294
  772SOL    HW1 2332   1.727   2.972   2.242
  772SOL    HW2 2333   1.655   3.017   2.382
  773SOL     OW 2334   0.113   2.599   3.459
  773SOL    HW1 2335   0.201   2.586   3.504
  773SOL    HW2 2336   0.100   2.696   3.437
  774SOL     OW 2337   0.613   3.227   2.588
  774SOL    HW1 2338   0.564   3.140   2.597
  774SOL    HW2 2339   0.590   3.270   2.501
  775SOL     OW 2340   1.293   3.090   3.285
  775SOL    HW1 2341   1.330   3.017   3.227
  775SOL    HW2 2342   1.345   3.095   3.370
  776SOL     OW 2343   0.809   1.866   2.364
  776SOL    HW1 2344   0.849   1.957   2.355
  776SOL    HW2 2345   0.709   1.874   2.370
  777SOL     OW 2346   0.197   2.838   3.126
  777SOL    HW1 2347   0.286   2.793   3.112
  777SOL    HW2 2348   0.124   2.773   3.107
  778SOL     OW 2349   1.525   2.861   2.052
  778SOL    HW1 2350   1.462   2.785   2.065
  778SOL    HW2 2351   1.573   2.879   2.138
  779SOL     OW 2352   1.187   3.654   3.478
  779SOL    HW1 2353   1.211   3.714   3.402
  779SOL    HW2 2354   1.194   3.559   3.448
  780SOL     OW 2355   0.317   2.113   3.663
  780SOL    HW1 2356   0.388   2.184   3.669
  780SOL    HW2 2357   0.229   2.152   3.691
  781SOL     OW 2358   1.466   3.279   2.815
  781SOL    HW1 2359   1.407   3.285   2.895
  781SOL    HW2 2360   1.451   3.191   2.769
  782SOL     OW 2361   1.667   3.576   2.434
  782SOL    HW1 2362   1.626   3.553   2.346
  782SOL    HW2 2363   1.649   3.502   2.499
  783SOL     OW 2364   0.598   2.591   2.132
  783SOL    HW1 2365   0.622   2.660   2.064
  783SOL    HW2 2366   0.520   2.624   2.186
  784SOL     OW 2367   1.281   2.207   2.806
  784SOL    HW1 2368   1.195   2.157   2.793
  784SOL    HW2 2369   1.343   2.153   2.862
  785SOL     OW 2370   1.576   3.524   2.169
  785SOL    HW1 2371   1.665   3.570   2.172
  785SOL    HW2 2372   1.555   3.500   2.074
  786SOL     OW 2373   0.807   2.467   3.327
  786SOL    HW1 2374   0.760   2.464   3.416
  786SOL    HW2 2375   0.756   2.412   3.261
  787SOL     OW 2376   1.394   2.331   3.536
  787SOL    HW1 2377   1.374   2.374   3.624
  787SOL    HW2 2378   1.472   2.269   3.545
  788SOL     OW 2379   0.973   2.752   3.434
  788SOL    HW1 2380   1.019   2.668   3.405
  788SOL    HW2 2381   0.917   2.786   3.359
  789SOL     OW 2382   0.991   2.272   3.104
  789SOL    HW1 2383   0.914   2.306   3.158
  789SOL    HW2 2384   0.957   2.221   3.025
  790SOL     OW 2385   1.041   2.563   2.291
  790SOL    HW1 2386   1.067   2.559   2.387
  790SOL    HW2 2387   0.956   2.512   2.277
  791SOL     OW 2388   0.076   2.673   2.651
  791SOL    HW1 2389   0.175   2.661   2.660
  791SOL    HW2 2390   0.052   2.768   2.672
  792SOL     OW 2391   0.130   3.683   3.433
  792SOL    HW1 2392   0.120   3.668   3.532
  792SOL    HW2 2393   0.044   3.719   3.397
  793SOL     OW 2394   0.865   2.210   2.057
  793SOL    HW1 2395   0.924   2.273   2.008
  793SOL    HW2 2396   0.884   2.116   2.028
  794SOL     OW 2397   1.719   2.447   3.693
  794SOL    HW1 2398   1.693   2.536   3.657
  794SOL    HW2 2399   1.717   2.379   3.620
  795SOL     OW 2400   1.362   3.006   2.407
  795SOL    HW1 2401   1.445   2.977   2.359
  795SOL    HW2 2402   1.313   3.073   2.351
  796SOL     OW 2403   0.550   2.058   2.747
  796SOL    HW1 2404   0.545   2.053   2.847
  796SOL    HW2 2405   0.552   2.154   2.718
  797SOL     OW 2406   1.008   3.318   2.339
  797SOL    HW1 2407   0.962   3.390   2.287
  797SOL    HW2 2408   1.004   3.338   2.437
  798SOL     OW 2409   0.351   3.663   2.715
  798SOL    HW1 2410   0.401   3.577   2.721
  798SOL    HW2 2411   0.416   3.740   2.712
  799SOL     OW 2412   1.795   2.928   2.735
  799SOL    HW1 2413   1.733   2.913   2.659
  799SOL    HW2 2414   1.743   2.939   2.820
  800SOL     OW 2415   1.227   3.412   3.368
  800SOL    HW1 2416   1.233   3.335   3.432
  800SOL    HW2 2417   1.175   3.386   3.288
  801SOL     OW 2418   0.321   2.805   2.104
  801SOL    HW1 2419   0.403   2.844   2.062
  801SOL    HW2 2420   0.294   2.723   2.055
  802SOL     OW 2421   1.458   2.597   2.590
  802SOL    HW1 2422   1.453   2.532   2.665
  802SOL    HW2 2423   1.538   2.656   2.603
  803SOL     OW 2424   0.461   3.128   3.589
  803SOL    HW1 2425   0.411   3.129   3.503
  803SOL    HW2 2426   0.398   3.110   3.665
  804SOL     OW 2427   1.111   3.638   2.099
  804SOL    HW1 2428   1.051   3.576   2.149
  804SOL    HW2 2429   1.142   3.594   2.014
  805SOL     OW 2430   0.202   2.147   3.360
  805SOL    HW1 2431   0.122   2.207   3.347
  805SOL    HW2 2432   0.192   2.098   3.446
  806SOL     OW 2433   1.632   3.239   1.943
  806SOL    HW1 2434   1.600   3.333   1.933
  806SOL    HW2 2435   1.556   3.176   1.931
  807SOL     OW 2436   0.464   3.605   2.185
  807SOL    HW1 2437   0.497   3.644   2.271
  807SOL    HW2 2438   0.540   3.598   2.120
  808SOL     OW 2439   1.400   1.969   2.288
  808SOL    HW1 2440   1.376   1.932   2.198
  808SOL    HW2 2441   1.499   1.985   2.292
  809SOL     OW 2442   0.249   3.647   3.103
  809SOL    HW1 2443   0.306   3.582   3.153
  809SOL    HW2 2444   0.233   3.614   3.010
  810SOL     OW 2445   0.940   3.560   2.766
  810SOL    HW1 2446   1.020   3.503   2.787
  810SOL    HW2 2447   0.891   3.520   2.689
  811SOL     OW 2448   0.382   2.562   2.342
  811SOL    HW1 2449   0.427   2.472   2.339
  811SOL    HW2 2450   0.288   2.551   2.375
  812SOL     OW 2451   1.547   2.084   3.591
  812SOL    HW1 2452   1.542   2.121   3.683
  812SOL    HW2 2453   1.475   2.015   3.579
  813SOL     OW 2454   0.614   1.984   1.979
  813SOL    HW1 2455   0.712   1.962   1.986
  813SOL    HW2 2456   0.583   1.967   1.886
  814SOL     OW 2457   0.781   2.126   3.611
  814SOL    HW1 2458   0.848   2.065   3.654
  814SOL    HW2 2459   0.708   2.145   3.676
  815SOL     OW 2460   0.888   3.376   3.057
  815SOL    HW1 2461   0.865   3.351   2.963
  815SOL    HW2 2462   0.949   3.307   3.096
  816SOL     OW 2463   1.351   2.452   3.295
  816SOL    HW1 2464   1.379   2.409   3.380
  816SOL    HW2 2465   1.376   2.548   3.296
  817SOL     OW 2466   0.803   3.264   2.786
  817SOL    HW1 2467   0.893   3.278   2.744
  817SOL    HW2 2468   0.732   3.266   2.715
  818SOL     OW 2469   0.922   2.365   2.761
  818SOL    HW1 2470   0.897   2.356   2.665
  818SOL    HW2 2471   0.970   2.283   2.792
  819SOL     OW 2472   0.539   1.926   2.374
  819SOL    HW1 2473   0.458   1.927   2.432
  819SOL    HW2 2474   0.542   2.009   2.319
  820SOL     OW 2475   1.434   3.050   1.903
  820SOL    HW1 2476   1.466   2.974   1.960
  820SOL    HW2 2477   1.342   3.077   1.933
  821SOL     OW 2478   0.297   1.897   2.033
  821SOL    HW1 2479   0.346   1.981   2.012
  821SOL    HW2 2480   0.359   1.832   2.078
  822SOL     OW 2481   0.935   2.098   2.342
  822SOL    HW1 2482   0.887   2.139   2.264
  822SOL    HW2 2483   1.034   2.096   2.323
  823SOL     OW 2484   1.076   2.545   3.326
  823SOL    HW1 2485   0.996   2.484   3.329
  823SOL    HW2 2486   1.157   2.492   3.302
  824SOL     OW 2487   1.227   3.432   2.655
  824SOL    HW1 2488   1.248   3.506   2.590
  824SOL    HW2 2489   1.295   3.432   2.728
  825SOL     OW 2490   0.459   3.014   2.603
  825SOL    HW1 2491   0.388   2.987   2.668
  825SOL    HW2 2492   0.433   2.986   2.510
  826SOL     OW 2493   1.271   3.659   2.453
  826SOL    HW1 2494   1.315   3.723   2.389
  826SOL    HW2 2495   1.221   3.711   2.523
  827SOL     OW 2496   1.032   2.411   1.878
  827SOL    HW1 2497   0.991   2.493   1.839
  827SOL    HW2 2498   1.096   2.437   1.951
  828SOL     OW 2499   0.078   2.418   3.248
  828SOL    HW1 2500   0.170   2.417   3.207
  828SOL    HW2 2501   0.072   2.492   3.315
  829SOL     OW 2502   0.561   2.084   3.009
  829SOL    HW1 2503   0.599   2.000   3.046
  829SOL    HW2 2504   0.473   2.103   3.053
  830SOL     OW 2505   0.866   2.316   2.504
  830SOL    HW1 2506   0.834   2.388   2.442
  830SOL    HW2 2507   0.890   2.235   2.451
  831SOL     OW 2508   1.017   1.901   2.615
  831SOL    HW1 2509   0.945   1.906   2.546
  831SOL    HW2 2510   0.993   1.832   2.684
  832SOL     OW 2511   1.429   3.035   2.729
  832SOL    HW1 2512   1.374   2.951   2.722
  832SOL    HW2 2513   1.455   3.064   2.637
  833SOL     OW 2514   1.466   2.452   2.854
  833SOL    HW1 2515   1.436   2.357   2.861
  833SOL    HW2 2516   1.539   2.468   2.920
  834SOL     OW 2517   1.857   2.695   2.239
  834SOL    HW1 2518   1.899   2.631   2.303
  834SOL    HW2 2519   1.819   2.644   2.161
  835SOL     OW 2520   0.488   3.247   2.036
  835SOL    HW1 2521   0.401   3.232   2.083
  835SOL    HW2 2522   0.471   3.273   1.941
  836SOL     OW 2523   1.664   3.142   2.519
  836SOL    HW1 2524   1.763   3.150   2.533
  836SOL    HW2 2525   1.619   3.226   2.550
  837SOL     OW 2526   1.390   2.437   1.940
  837SOL    HW1 2527   1.336   2.416   2.021
  837SOL    HW2 2528   1.481   2.396   1.949
  838SOL     OW 2529   0.527   2.118   2.190
  838SOL    HW1 2530   0.554   2.059   2.115
  838SOL    HW2 2531   0.527   2.213   2.159
  839SOL     OW 2532   1.754   3.085   3.450
  839SOL    HW1 2533   1.845   3.046   3.437
  839SOL    HW2 2534   1.762   3.181   3.474
  840SOL     OW 2535   1.064   3.209   3.202
  840SOL    HW1 2536   0.984   3.186   3.257
  840SOL    HW2 2537   1.147   3.183   3.251
  841SOL     OW 2538   1.592   3.491   3.487
  841SOL    HW1 2539   1.619   3.525   3.397
  841SOL    HW2 2540   1.671   3.453   3.533
  842SOL     OW 2541   1.111   3.057   2.962
  842SOL    HW1 2542   1.071   3.101   3.043
  842SOL    HW2 2543   1.070   3.094   2.879
  843SOL     OW 2544   1.638   2.961   2.941
  843SOL    HW1 2545   1.643   3.042   3.000
  843SOL    HW2 2546   1.552   2.963   2.890
  844SOL     OW 2547   0.915   1.951   3.264
  844SOL    HW1 2548   0.940   1.931   3.169
  844SOL    HW2 2549   0.987   2.007   3.306
  845SOL     OW 2550   0.980   2.978   3.581
  845SOL    HW1 2551   0.881   2.984   3.591
  845SOL    HW2 2552   1.003   2.898   3.525
  846SOL     OW 2553   0.705   2.912   2.230
  846SOL    HW1 2554   0.691   2.919   2.329
  846SOL    HW2 2555   0.789   2.861   2.212
  847SOL     OW 2556   0.410   2.675   3.113
  847SOL    HW1 2557   0.496   2.687   3.163
  847SOL    HW2 2558   0.368   2.588   3.140
  848SOL     OW 2559   1.274   2.248   3.124
  848SOL    HW1 2560   1.295   2.322   3.188
  848SOL    HW2 2561   1.185   2.265   3.081
  849SOL     OW 2562   0.064   3.426   3.193
  849SOL    HW1 2563   0.018   3.508   3.159
  849SOL    HW2 2564   0.162   3.445   3.202
  850SOL     OW 2565   0.367   2.962   2.363
  850SOL    HW1 2566   0.360   3.045   2.307
  850SOL    HW2 2567   0.371   2.882   2.303
  851SOL     OW 2568   0.566   2.399   2.727
  851SOL    HW1 2569   0.578   2.465   2.653
  851SOL    HW2 2570   0.612   2.433   2.810
  852SOL     OW 2571   1.252   3.210   2.250
  852SOL    HW1 2572   1.302   3.287   2.290
  852SOL    HW2 2573   1.157   3.212   2.282
  853SOL     OW 2574   1.272   3.307   3.004
  853SOL    HW1 2575   1.319   3.320   3.091
  853SOL    HW2 2576   1.206   3.233   3.013
  854SOL     OW 2577   1.582   2.501   2.334
  854SOL    HW1 2578   1.551   2.562   2.407
  854SOL    HW2 2579   1.632   2.553   2.265
  855SOL     OW 2580   0.354   3.372   3.191
  855SOL    HW1 2581   0.333   3.328   3.104
  855SOL    HW2 2582   0.451   3.398   3.194
  856SOL     OW 2583   0.402   2.613   3.460
  856SOL    HW1 2584   0.470   2.668   3.413
  856SOL    HW2 2585   0.442   2.525   3.487
  857SOL     OW 2586   1.587   2.641   3.532
  857SOL    HW1 2587   1.495   2.679   3.527
  857SOL    HW2 2588   1.647   2.688   3.467
  858SOL     OW 2589   1.013   1.967   3.632
  858SOL    HW1 2590   1.019   2.052   3.580
  858SOL    HW2 2591   1.045   1.891   3.575
  859SOL     OW 2592   0.504   1.912   3.602
  859SOL    HW1 2593   0.462   1.855   3.532
  859SOL    HW2 2594   0.438   1.981   3.634
  860SOL     OW 2595   0.573   2.732   2.891
  860SOL    HW1 2596   0.617   2.821   2.882
  860SOL    HW2 2597   0.510   2.732   2.968
  861SOL     OW 2598   1.360   2.724   2.907
  861SOL    HW1 2599   1.285   2.724   2.841
  861SOL    HW2 2600   1.397   2.632   2.916
  862SOL     OW 2601   1.209   2.387   2.137
  862SOL    HW1 2602   1.222   2.303   2.191
  862SOL    HW2 2603   1.180   2.461   2.197
  863SOL     OW 2604   0.307   2.075   3.093
  863SOL    HW1 2605   0.284   2.112   3.183
  863SOL    HW2 2606   0.277   1.980   3.087
  864SOL     OW 2607   0.037   3.172   3.144
  864SOL    HW1 2608   0.090   3.123   3.212
  864SOL    HW2 2609   0.059   3.270   3.149
  865SOL     OW 2610   0.732   2.496   2.926
  865SOL    HW1 2611   0.791   2.470   2.850
  865SOL    HW2 2612   0.704   2.592   2.915
  866SOL     OW 2613   1.728   2.797   3.716
  866SOL    HW1 2614   1.682   2.790   3.627
  866SOL    HW2 2615   1.666   2.841   3.782
  867SOL     OW 2616   0.307   1.925   2.480
  867SOL    HW1 2617   0.296   2.019   2.513
  867SOL    HW2 2618   0.302   1.862   2.557
  868SOL     OW 2619   1.622   2.229   2.236
  868SOL    HW1 2620   1.624   2.153   2.300
  868SOL    HW2 2621   1.574   2.306   2.276
  869SOL     OW 2622   1.023   2.628   2.828
  869SOL    HW1 2623   1.038   2.649   2.924
  869SOL    HW2 2624   0.993   2.533   2.819
  870SOL     OW 2625   0.980   3.435   3.562
  870SOL    HW1 2626   0.960   3.479   3.474
  870SOL    HW2 2627   1.019   3.344   3.546
  871SOL     OW 2628   1.859   3.380   3.467
  871SOL    HW1 2629   1.873   3.407   3.372
  871SOL    HW2 2630   1.942   3.402   3.520
  872SOL     OW 2631   0.350   2.760   3.666
  872SOL    HW1 2632   0.426   2.804   3.714
  872SOL    HW2 2633   0.385   2.713   3.584
  873SOL     OW 2634   1.540   2.136   1.987
  873SOL    HW1 2635   1.479   2.061   2.010
  873SOL    HW2 2636   1.562   2.188   2.070
  874SOL     OW 2637   1.303   2.700   1.904
  874SOL    HW1 2638   1.337   2.607   1.919
  874SOL    HW2 2639   1.321   2.727   1.809
  875SOL     OW 2640   1.068   3.195   2.711
  875SOL    HW1 2641   1.075   3.111   2.656
  875SOL    HW2 2642   1.130   3.264   2.675
  876SOL     OW 2643   0.319   2.672   2.811
  876SOL    HW1 2644   0.412   2.708   2.816
  876SOL    HW2 2645   0.313   2.587   2.863
  877SOL     OW 2646   0.339   2.371   2.868
  877SOL    HW1 2647   0.287   2.288   2.851
  877SOL    HW2 2648   0.416   2.376   2.804
  878SOL     OW 2649   1.138   2.242   3.540
  878SOL    HW1 2650   1.093   2.305   3.604
  878SOL    HW2 2651   1.231   2.273   3.523
  879SOL     OW 2652   1.160   2.069   3.339
  879SOL    HW1 2653   1.160   2.133   3.416
  879SOL    HW2 2654   1.188   2.117   3.256
  880SOL     OW 2655   0.008   3.188   2.062
  880SOL    HW1 2656  -0.085   3.209   2.031
  880SOL    HW2 2657   0.018   3.089   2.075
  881SOL     OW 2658   0.088   3.663   2.789
  881SOL    HW1 2659   0.046   3.577   2.762
  881SOL    HW2 2660   0.182   3.666   2.755
  882SOL     OW 2661   0.504   3.430   2.772
  882SOL    HW1 2662   0.570   3.504   2.781
  882SOL    HW2 2663   0.548   3.351   2.730
  883SOL     OW 2664   1.002   2.658   3.100
  883SOL    HW1 2665   1.043   2.626   3.186
  883SOL    HW2 2666   0.906   2.631   3.097
  884SOL     OW 2667   0.040   2.406   2.976
  884SOL    HW1 2668   0.125   2.373   2.935
  884SOL    HW2 2669   0.053   2.421   3.074
  885SOL     OW 2670   0.189   2.382   3.584
  885SOL    HW1 2671   0.248   2.342   3.514
  885SOL    HW2 2672   0.131   2.453   3.543
  886SOL     OW 2673   1.369   2.812   3.522
  886SOL    HW1 2674   1.408   2.901   3.542
  886SOL    HW2 2675   1.379   2.792   3.425
  887SOL     OW 2676   0.815   2.434   2.187
  887SOL    HW1 2677   0.822   2.345   2.141
  887SOL    HW2 2678   0.721   2.468   2.179
  888SOL     OW 2679   1.657   2.466   3.068
  888SOL    HW1 2680   1.619   2.397   3.130
  888SOL    HW2 2681   1.739   2.430   3.024
  889SOL     OW 2682   0.252   3.426   3.606
  889SOL    HW1 2683   0.222   3.483   3.682
  889SOL    HW2 2684   0.245   3.329   3.632
  890SOL     OW 2685   0.671   2.326   3.131
  890SOL    HW1 2686   0.637   2.237   3.101
  890SOL    HW2 2687   0.697   2.380   3.051
  891SOL     OW 2688   0.930   3.540   3.327
  891SOL    HW1 2689   0.906   3.522   3.232
  891SOL    HW2 2690   0.960   3.634   3.337
  892SOL     OW 2691   0.473   2.362   2.053
  892SOL    HW1 2692   0.534   2.442   2.057
  892SOL    HW2 2693   0.378   2.393   2.060
  893SOL     OW 2694   0.159   2.999   3.328
  893SOL    HW1 2695   0.181   2.938   3.404
  893SOL    HW2 2696   0.169   2.950   3.242
  894SOL     OW 2697   1.347   2.921   3.096
  894SOL    HW1 2698   1.371   2.858   3.022
  894SOL    HW2 2699   1.257   2.961   3.078
  895SOL     OW 2700   1.302   2.717   2.171
  895SOL    HW1 2701   1.216   2.686   2.213
  895SOL    HW2 2702   1.298   2.703   2.072
  896SOL     OW 2703   1.759   3.609   3.016
  896SOL    HW1 2704   1.820   3.639   2.943
  896SOL    HW2 2705   1.721   3.520   2.994
  897SOL     OW 2706   1.252   3.593   2.990
  897SOL    HW1 2707   1.336   3.598   2.936
  897SOL    HW2 2708   1.229   3.497   3.008
  898SOL     OW 2709   0.083   3.120   2.884
  898SOL    HW1 2710   0.078   3.119   2.984
  898SOL    HW2 2711   0.000   3.079   2.846
  899SOL     OW 2712   0.688   3.524   3.578
  899SOL    HW1 2713   0.632   3.605   3.587
  899SOL    HW2 2714   0.740   3.528   3.492
  900SOL     OW 2715   1.726   1.997   2.385
  900SOL    HW1 2716   1.799   1.980   2.318
  900SOL    HW2 2717   1.695   1.910   2.423
  901SOL     OW 2718   1.388   3.435   2.339
  901SOL    HW1 2719   1.455   3.447   2.265
  901SOL    HW2 2720   1.348   3.524   2.362
  902SOL     OW 2721   0.130   3.656   3.713
  902SOL    HW1 2722   0.089   3.582   3.766
  902SOL    HW2 2723   0.194   3.707   3.771
  903SOL     OW 2724   1.280   2.789   2.534
  903SOL    HW1 2725   1.340   2.708   2.536
  903SOL    HW2 2726   1.320   2.858   2.474
  904SOL     OW 2727   0.830   3.135   3.284
  904SOL    HW1 2728   0.825   3.168   3.379
  904SOL    HW2 2729   0.744   3.154   3.238
  905SOL     OW 2730   0.672   3.478   2.016
  905SOL    HW1 2731   0.681   3.488   1.917
  905SOL    HW2 2732   0.632   3.389   2.037
  906SOL     OW 2733   1.650   3.582   3.256
  906SOL    HW1 2734   1.703   3.592   3.172
  906SOL    HW2 2735   1.623   3.672   3.290
  907SOL     OW 2736   1.841   2.037   2.825
  907SOL    HW1 2737   1.880   1.952   2.789
  907SOL    HW2 2738   1.743   2.039   2.806
  908SOL     OW 2739   0.263   2.188   2.582
  908SOL    HW1 2740   0.184   2.239   2.548
  908SOL    HW2 2741   0.254   2.173   2.680
  909SOL     OW 2742   1.194   3.474   1.893
  909SOL    HW1 2743   1.200   3.381   1.930
  909SOL    HW2 2744   1.135   3.474   1.813
  910SOL     OW 2745   0.822   2.864   3.234
  910SOL    HW1 2746   0.862   2.863   3.142
  910SOL    HW2 2747   0.832   2.956   3.274
  911SOL     OW 2748   0.916   2.772   2.153
  911SOL    HW1 2749   0.979   2.810   2.085
  911SOL    HW2 2750   0.956   2.689   2.192
  912SOL     OW 2751   1.504   3.469   1.906
  912SOL    HW1 2752   1.412   3.506   1.913
  912SOL    HW2 2753   1.542   3.489   1.816
  913SOL     OW 2754   0.372   3.150   3.352
  913SOL    HW1 2755   0.359   3.243   3.318
  913SOL    HW2 2756   0.288   3.098   3.339
  914SOL     OW 2757   1.614   3.154   3.151
  914SOL    HW1 2758   1.674   3.157   3.231
  914SOL    HW2 2759   1.539   3.218   3.164
  915SOL     OW 2760   1.039   2.960   2.558
  915SOL    HW1 2761   0.969   2.913   2.612
  915SOL    HW2 2762   1.098   2.892   2.515
  916SOL     OW 2763   1.014   2.098   2.833
  916SOL    HW1 2764   1.006   2.062   2.740
  916SOL    HW2 2765   1.012   2.022   2.898
  917SOL     OW 2766   0.590   3.349   2.353
  917SOL    HW1 2767   0.632   3.291   2.283
  917SOL    HW2 2768   0.546   3.428   2.309
  918SOL     OW 2769   1.709   2.247   3.243
  918SOL    HW1 2770   1.782   2.316   3.247
  918SOL    HW2 2771   1.737   2.172   3.184
  919SOL     OW 2772   0.255   3.210   2.152
  919SOL    HW1 2773   0.159   3.211   2.125
  919SOL    HW2 2774   0.267   3.263   2.236
  920SOL     OW 2775   0.105   2.875   3.588
  920SOL    HW1 2776   0.028   2.842   3.642
  920SOL    HW2 2777   0.190   2.845   3.630
  921SOL     OW 2778   0.672   2.065   3.351
  921SOL    HW1 2779   0.762   2.049   3.311
  921SOL    HW2 2780   0.680   2.070   3.450
  922SOL     OW 2781   0.075   2.207   1.895
  922SOL    HW1 2782  -0.017   2.179   1.866
  922SOL    HW2 2783   0.106   2.284   1.839
  923SOL     OW 2784   1.440   2.718   3.260
  923SOL    HW1 2785   1.383   2.770   3.197
  923SOL    HW2 2786   1.536   2.730   3.236
  924SOL     OW 2787   0.072   2.028   2.180
  924SOL    HW1 2788   0.055   2.111   2.126
  924SOL    HW2 2789   0.162   1.991   2.158
  925SOL     OW 2790   1.183   3.197   1.981
  925SOL    HW1 2791   1.084   3.186   1.983
  925SOL    HW2 2792   1.217   3.212   2.074
  926SOL     OW 2793   0.613   2.704   3.293
  926SOL    HW1 2794   0.669   2.785   3.276
  926SOL    HW2 2795   0.672   2.624   3.296
  927SOL     OW 2796   1.493   3.629   2.821
  927SOL    HW1 2797   1.526   3.693   2.752
  927SOL    HW2 2798   1.559   3.623   2.896
  928SOL     OW 2799   0.716   2.427   3.570
  928SOL    HW1 2800   0.735   2.492   3.644
  928SOL    HW2 2801   0.776   2.347   3.579
  929SOL     OW 2802   1.450   3.082   3.495
  929SOL    HW1 2803   1.441   3.072   3.594
  929SOL    HW2 2804   1.546   3.075   3.469
  930SOL     OW 2805   0.390   3.603   3.422
  930SOL    HW1 2806   0.299   3.644   3.420
  930SOL    HW2 2807   0.383   3.509   3.454
  931SOL     OW 2808   1.674   2.745   3.116
  931SOL    HW1 2809   1.647   2.656   3.079
  931SOL    HW2 2810   1.675   2.813   3.043
  932SOL     OW 2811   1.225   2.187   2.311
  932SOL    HW1 2812   1.290   2.113   2.300
  932SOL    HW2 2813   1.245   2.237   2.395
  933SOL     OW 2814   0.594   2.607   2.514
  933SOL    HW1 2815   0.644   2.692   2.495
  933SOL    HW2 2816   0.506   2.609   2.466
  934SOL     OW 2817   1.777   2.204   3.504
  934SOL    HW1 2818   1.760   2.235   3.410
  934SOL    HW2 2819   1.693   2.167   3.542
  935SOL     OW 2820   1.730   2.796   3.379
  935SOL    HW1 2821   1.768   2.887   3.394
  935SOL    HW2 2822   1.722   2.779   3.280
  936SOL     OW 2823   0.859   3.236   1.878
  936SOL    HW1 2824   0.813   3.251   1.966
  936SOL    HW2 2825   0.903   3.321   1.848
  937SOL     OW 2826   0.661   3.652   2.815
  937SOL    HW1 2827   0.615   3.740   2.802
  937SOL    HW2 2828   0.760   3.664   2.808
  938SOL     OW 2829   0.859   2.818   2.723
  938SOL    HW1 2830   0.913   2.749   2.771
  938SOL    HW2 2831   0.827   2.887   2.789
  939SOL     OW 2832   1.083   2.846   1.949
  939SOL    HW1 2833   1.060   2.899   1.867
  939SOL    HW2 2834   1.164   2.790   1.930
  940SOL     OW 2835   1.861   3.431   2.713
  940SOL    HW1 2836   1.790   3.419   2.643
  940SOL    HW2 2837   1.862   3.352   2.773
  941SOL     OW 2838   0.221   3.176   3.706
  941SOL    HW1 2839   0.156   3.103   3.685
  941SOL    HW2 2840   0.225   3.190   3.804
  942SOL     OW 2841   0.079   3.102   2.515
  942SOL    HW1 2842   0.078   3.055   2.603
  942SOL    HW2 2843   0.161   3.074   2.464
  943SOL     OW 2844   0.672   3.253   3.486
  943SOL    HW1 2845   0.594   3.203   3.524
  943SOL    HW2 2846   0.669   3.348   3.517
  944SOL     OW 2847   1.824   2.054   3.089
  944SOL    HW1 2848   1.820   1.964   3.133
  944SOL    HW2 2849   1.827   2.043   2.990
  945SOL     OW 2850   0.428   2.286   2.382
  945SOL    HW1 2851   0.458   2.214   2.320
  945SOL    HW2 2852   0.389   2.246   2.465
  946SOL     OW 2853   1.705   3.349   2.966
  946SOL    HW1 2854   1.612   3.324   2.939
  946SOL    HW2 2855   1.731   3.299   3.048
  947SOL     OW 2856   0.317   2.409   3.142
  947SOL    HW1 2857   0.355   2.350   3.214
  947SOL    HW2 2858   0.357   2.383   3.054
  948SOL     OW 2859   0.812   3.448   2.549
  948SOL    HW1 2860   0.844   3.458   2.455
  948SOL    HW2 2861   0.733   3.386   2.551
  949SOL     OW 2862   1.424   2.076   2.974
  949SOL    HW1 2863   1.476   2.011   3.029
  949SOL    HW2 2864   1.375   2.139   3.035
  950SOL     OW 2865   1.001   1.896   3.016
  950SOL    HW1 2866   0.938   1.824   2.985
  950SOL    HW2 2867   1.094   1.860   3.016
  951SOL     OW 2868   0.770   3.192   2.163
  951SOL    HW1 2869   0.724   3.105   2.180
  951SOL    HW2 2870   0.861   3.189   2.204
  952SOL     OW 2871   0.618   3.429   3.146
  952SOL    HW1 2872   0.613   3.511   3.203
  952SOL    HW2 2873   0.707   3.426   3.101
  953SOL     OW 2874   1.352   1.914   2.030
  953SOL    HW1 2875   1.387   1.873   1.946
  953SOL    HW2 2876   1.262   1.876   2.050
  954SOL     OW 2877   1.300   2.315   2.553
  954SOL    HW1 2878   1.241   2.395   2.557
  954SOL    HW2 2879   1.315   2.280   2.646
  955SOL     OW 2880   1.593   2.083   2.744
  955SOL    HW1 2881   1.509   2.082   2.798
  955SOL    HW2 2882   1.595   2.166   2.688
  956SOL     OW 2883   0.039   2.939   2.162
  956SOL    HW1 2884   0.138   2.928   2.153
  956SOL    HW2 2885  -0.001   2.853   2.194
  957SOL     OW 2886   0.875   3.508   2.199
  957SOL    HW1 2887   0.798   3.473   2.145
  957SOL    HW2 2888   0.843   3.579   2.261
  958SOL     OW 2889   0.230   2.490   3.837
  958SOL    HW1 2890   0.137   2.488   3.874
  958SOL    HW2 2891   0.231   2.451   3.745
  959SOL     OW 2892   0.019   2.230   4.371
  959SOL    HW1 2893  -0.063   2.273   4.410
  959SOL    HW2 2894  -0.009   2.157   4.308
  960SOL     OW 2895   1.555   3.373   4.427
  960SOL    HW1 2896   1.498   3.357   4.508
  960SOL    HW2 2897   1.496   3.383   4.347
  961SOL     OW 2898   1.135   2.565   4.441
  961SOL    HW1 2899   1.192   2.643   4.416
  961SOL    HW2 2900   1.075   2.591   4.517
  962SOL     OW 2901   1.755   2.469   3.955
  962SOL    HW1 2902   1.743   2.456   3.856
  962SOL    HW2 2903   1.725   2.388   4.004
  963SOL     OW 2904   0.685   2.874   4.389
  963SOL    HW1 2905   0.754   2.858   4.459
  963SOL    HW2 2906   0.612   2.931   4.427
  964SOL     OW 2907   1.603   2.309   4.461
  964SOL    HW1 2908   1.529   2.355   4.411
  964SOL    HW2 2909   1.654   2.377   4.514
  965SOL     OW 2910   0.231   3.575   4.207
  965SOL    HW1 2911   0.265   3.652   4.261
  965SOL    HW2 2912   0.275   3.575   4.117
  966SOL     OW 2913   0.230   3.296   4.262
  966SOL    HW1 2914   0.204   3.392   4.262
  966SOL    HW2 2915   0.159   3.242   4.307
  967SOL     OW 2916   0.240   2.953   4.610
  967SOL    HW1 2917   0.254   2.869   4.662
  967SOL    HW2 2918   0.185   3.017   4.665
  968SOL     OW 2919   0.606   2.826   3.847
  968SOL    HW1 2920   0.613   2.910   3.793
  968SOL    HW2 2921   0.652   2.839   3.935
  969SOL     OW 2922   0.122   2.505   4.287
  969SOL    HW1 2923   0.077   2.417   4.304
  969SOL    HW2 2924   0.121   2.559   4.371
  970SOL     OW 2925   1.842   3.629   4.083
  970SOL    HW1 2926   1.896   3.600   4.163
  970SOL    HW2 2927   1.872   3.719   4.054
  971SOL     OW 2928   0.027   3.458   3.841
  971SOL    HW1 2929   0.008   3.362   3.862
  971SOL    HW2 2930  -0.006   3.516   3.916
  972SOL     OW 2931   1.689   2.784   4.336
  972SOL    HW1 2932   1.784   2.755   4.344
  972SOL    HW2 2933   1.681   2.849   4.261
  973SOL     OW 2934   1.641   2.970   4.156
  973SOL    HW1 2935   1.727   2.972   4.104
  973SOL    HW2 2936   1.655   3.017   4.244
  974SOL     OW 2937   0.613   3.227   4.450
  974SOL    HW1 2938   0.564   3.140   4.459
  974SOL    HW2 2939   0.590   3.270   4.363
  975SOL     OW 2940   0.809   1.866   4.226
  975SOL    HW1 2941   0.849   1.957   4.217
  975SOL    HW2 2942   0.709   1.874   4.232
  976SOL     OW 2943   1.525   2.861   3.914
  976SOL    HW1 2944   1.462   2.785   3.927
  976SOL    HW2 2945   1.573   2.879   4.000
  977SOL     OW 2946   1.466   3.279   4.677
  977SOL    HW1 2947   1.407   3.285   4.757
  977SOL    HW2 2948   1.451   3.191   4.631
  978SOL     OW 2949   1.667   3.576   4.296
  978SOL    HW1 2950   1.626   3.553   4.208
  978SOL    HW2 2951   1.649   3.502   4.361
  979SOL     OW 2952   0.598   2.591   3.994
  979SOL    HW1 2953   0.622   2.660   3.926
  979SOL    HW2 2954   0.520   2.624   4.048
  980SOL     OW 2955   1.281   2.207   4.668
  980SOL    HW1 2956   1.195   2.157   4.655
  980SOL    HW2 2957   1.343   2.153   4.724
  981SOL     OW 2958   1.576   3.524   4.031
  981SOL    HW1 2959   1.665   3.570   4.034
  981SOL    HW2 2960   1.555   3.500   3.936
  982SOL     OW 2961   1.041   2.563   4.153
  982SOL    HW1 2962   1.067   2.559   4.249
  982SOL    HW2 2963   0.956   2.512   4.139
  983SOL     OW 2964   0.076   2.673   4.513
  983SOL    HW1 2965   0.175   2.661   4.522
  983SOL    HW2 2966   0.052   2.768   4.534
  984SOL     OW 2967   0.865   2.210   3.919
  984SOL    HW1 2968   0.924   2.273   3.870
  984SOL    HW2 2969   0.884   2.116   3.890
  985SOL     OW 2970   1.362   3.006   4.269
  985SOL    HW1 2971   1.445   2.977   4.221
  985SOL    HW2 2972   1.313   3.073   4.213
  986SOL     OW 2973   0.550   2.058   4.609
  986SOL    HW1 2974   0.545   2.053   4.709
  986SOL    HW2 2975   0.552   2.154   4.580
  987SOL     OW 2976   1.008   3.318   4.201
  987SOL    HW1 2977   0.962   3.390   4.149
  987SOL    HW2 2978   1.004   3.338   4.299
  988SOL     OW 2979   0.351   3.663   4.577
  988SOL    HW1 2980   0.401   3.577   4.583
  988SOL    HW2 2981   0.416   3.740   4.574
  989SOL     OW 2982   1.795   2.928   4.597
  989SOL    HW1 2983   1.733   2.913   4.521
  989SOL    HW2 2984   1.743   2.939   4.682
  990SOL     OW 2985   0.321   2.805   3.966
  990SOL    HW1 2986   0.403   2.844   3.924
  990SOL    HW2 2987   0.294   2.723   3.917
  991SOL     OW 2988   1.458   2.597   4.452
  991SOL    HW1 2989   1.453   2.532   4.527
  991SOL    HW2 2990   1.538   2.656   4.465
  992SOL     OW 2991   1.111   3.638   3.961
  992SOL    HW1 2992   1.051   3.576   4.011
  992SOL    HW2 2993   1.142   3.594   3.876
  993SOL     OW 2994   1.632   3.239   3.805
  993SOL    HW1 2995   1.600   3.333   3.795
  993SOL    HW2 2996   1.556   3.176   3.793
  994SOL     OW 2997   0.464   3.605   4.047
  994SOL    HW1 2998   0.497   3.644   4.133
  994SOL    HW2 2999   0.540   3.598   3.982
  995SOL     OW 3000   1.400   1.969   4.150
  995SOL    HW1 3001   1.376   1.932   4.060
  995SOL    HW2 3002   1.499   1.985   4.154
  996SOL     OW 3003   0.382   2.562   4.204
  996SOL    HW1 3004   0.427   2.472   4.201
  996SOL    HW2 3005   0.288   2.551   4.237
  997SOL     OW 3006   0.614   1.984   3.841
  997SOL    HW1 3007   0.712   1.962   3.848
  997SOL    HW2 3008   0.583   1.967   3.748
  998SOL     OW 3009   0.539   1.926   4.236
  998SOL    HW1 3010   0.458   1.927   4.294
  998SOL    HW2 3011   0.542   2.009   4.181
  999SOL     OW 3012   1.434   3.050   3.765
  999SOL    HW1 3013   1.466   2.974   3.822
  999SOL    HW2 3014   1.342   3.077   3.795
 1000SOL     OW 3015   0.297   1.897   3.895
 1000SOL    HW1 3016   0.346   1.981   3.874
 1000SOL    HW2 3017   0.359   1.832   3.940
 1001SOL     OW 3018   0.935   2.098   4.204
 1001SOL    HW1 3019   0.887   2.139   4.126
 1001SOL    HW2 3020   1.034   2.096   4.185
 1002SOL     OW 3021   1.227   3.432   4.517
 1002SOL    HW1 3022   1.248   3.506   4.452
 1002SOL    HW2 3023   1.295   3.432   4.590
 1003SOL     OW 3024   0.459   3.014   4.465
 1003SOL    HW1 3025   0.388   2.987   4.530
 1003SOL    HW2 3026   0.433   2.986   4.372
 1004SOL     OW 3027   1.271   3.659   4.315
 1004SOL    HW1 3028   1.315   3.723   4.251
 1004SOL    HW2 3029   1.221   3.711   4.385
 1005SOL     OW 3030   1.032   2.411   3.740
 1005SOL    HW1 3031   0.991   2.493   3.701
 1005SOL    HW2 3032   1.096   2.437   3.813
 1006SOL     OW 3033   0.866   2.316   4.366
 1006SOL    HW1 3034   0.834   2.388   4.304
 1006SOL    HW2 3035   0.890   2.235   4.313
 1007SOL     OW 3036   1.017   1.901   4.477
 1007SOL    HW1 3037   0.945   1.906   4.408
 1007SOL    HW2 3038   0.993   1.832   4.546
 1008SOL     OW 3039   1.857   2.695   4.101
 1008SOL    HW1 3040   1.899   2.631   4.165
 1008SOL    HW2 3041   1.819   2.644   4.023
 1009SOL     OW 3042   0.488   3.247   3.898
 1009SOL    HW1 3043   0.401   3.232   3.945
 1009SOL    HW2 3044   0.471   3.273   3.803
 1010SOL     OW 3045   1.664   3.142   4.381
 1010SOL    HW1 3046   1.763   3.150   4.395
 1010SOL    HW2 3047   1.619   3.226   4.412
 1011SOL     OW 3048   1.390   2.437   3.802
 1011SOL    HW1 3049   1.336   2.416   3.883
 1011SOL    HW2 3050   1.481   2.396   3.811
 1012SOL     OW 3051   0.527   2.118   4.052
 1012SOL    HW1 3052   0.554   2.059   3.977
 1012SOL    HW2 3053   0.527   2.213   4.021
 1013SOL     OW 3054   0.705   2.912   4.092
 1013SOL    HW1 3055   0.691   2.919   4.191
 1013SOL    HW2 3056   0.789   2.861   4.074
 1014SOL     OW 3057   0.367   2.962   4.225
 1014SOL    HW1 3058   0.360   3.045   4.169
 1014SOL    HW2 3059   0.371   2.882   4.165
 1015SOL     OW 3060   0.566   2.399   4.589
 1015SOL    HW1 3061   0.578   2.465   4.515
 1015SOL    HW2 3062   0.612   2.433   4.672
 1016SOL     OW 3063   1.252   3.210   4.112
 1016SOL    HW1 3064   1.302   3.287   4.152
 1016SOL    HW2 3065   1.157   3.212   4.144
 1017SOL     OW 3066   1.582   2.501   4.196
 1017SOL    HW1 3067   1.551   2.562   4.269
 1017SOL    HW2 3068   1.632   2.553   4.127
 1018SOL     OW 3069   1.209   2.387   3.999
 1018SOL    HW1 3070   1.222   2.303   4.053
 1018SOL    HW2 3071   1.180   2.461   4.059
 1019SOL     OW 3072   0.732   2.496   4.788
 1019SOL    HW1 3073   0.791   2.470   4.712
 1019SOL    HW2 3074   0.704   2.592   4.777
 1020SOL     OW 3075   0.307   1.925   4.342
 1020SOL    HW1 3076   0.296   2.019   4.375
 1020SOL    HW2 3077   0.302   1.862   4.419
 1021SOL     OW 3078   1.622   2.229   4.098
 1021SOL    HW1 3079   1.624   2.153   4.162
 1021SOL    HW2 3080   1.574   2.306   4.138
 1022SOL     OW 3081   1.540   2.136   3.849
 1022SOL    HW1 3082   1.479   2.061   3.872
 1022SOL    HW2 3083   1.562   2.188   3.932
 1023SOL     OW 3084   1.303   2.700   3.766
 1023SOL    HW1 3085   1.337   2.607   3.781
 1023SOL    HW2 3086   1.321   2.727   3.671
 1024SOL     OW 3087   1.068   3.195   4.573
 1024SOL    HW1 3088   1.075   3.111   4.518
 1024SOL    HW2 3089   1.130   3.264   4.537
 1025SOL     OW 3090   0.319   2.672   4.673
 1025SOL    HW1 3091   0.412   2.708   4.678
 1025SOL    HW2 3092   0.313   2.587   4.725
 1026SOL     OW 3093   0.008   3.188   3.924
 1026SOL    HW1 3094  -0.085   3.209   3.893
 1026SOL    HW2 3095   0.018   3.089   3.937
 1027SOL     OW 3096   0.088   3.663   4.651
 1027SOL    HW1 3097   0.046   3.577   4.624
 1027SOL    HW2 3098   0.182   3.666   4.617
 1028SOL     OW 3099   0.504   3.430   4.634
 1028SOL    HW1 3100   0.570   3.504   4.643
 1028SOL    HW2 3101   0.548   3.351   4.592
 1029SOL     OW 3102   0.815   2.434   4.049
 1029SOL    HW1 3103   0.822   2.345   4.003
 1029SOL    HW2 3104   0.721   2.468   4.041
 1030SOL     OW 3105   0.473   2.362   3.915
 1030SOL    HW1 3106   0.534   2.442   3.919
 1030SOL    HW2 3107   0.378   2.393   3.922
 1031SOL     OW 3108   1.302   2.717   4.033
 1031SOL    HW1 3109   1.216   2.686   4.075
 1031SOL    HW2 3110   1.298   2.703   3.934
 1032SOL     OW 3111   1.759   3.609   4.878
 1032SOL    HW1 3112   1.820   3.639   4.805
 1032SOL    HW2 3113   1.721   3.520   4.856
 1033SOL     OW 3114   1.726   1.997   4.247
 1033SOL    HW1 3115   1.799   1.980   4.180
 1033SOL    HW2 3116   1.695   1.910   4.285
 1034SOL     OW 3117   1.388   3.435   4.201
 1034SOL    HW1 3118   1.455   3.447   4.127
 1034SOL    HW2 3119   1.348   3.524   4.224
 1035SOL     OW 3120   1.280   2.789   4.396
 1035SOL    HW1 3121   1.340   2.708   4.398
 1035SOL    HW2 3122   1.320   2.858   4.336
 1036SOL     OW 3123   0.672   3.478   3.878
 1036SOL    HW1 3124   0.681   3.488   3.779
 1036SOL    HW2 3125   0.632   3.389   3.899
 1037SOL     OW 3126   1.841   2.037   4.687
 1037SOL    HW1 3127   1.880   1.952   4.651
 1037SOL    HW2 3128   1.743   2.039   4.668
 1038SOL     OW 3129   0.263   2.188   4.444
 1038SOL    HW1 3130   0.184   2.239   4.410
 1038SOL    HW2 3131   0.254   2.173   4.542
 1039SOL     OW 3132   1.194   3.474   3.755
 1039SOL    HW1 3133   1.200   3.381   3.792
 1039SOL    HW2 3134   1.135   3.474   3.675
 1040SOL     OW 3135   0.916   2.772   4.015
 1040SOL    HW1 3136   0.979   2.810   3.947
 1040SOL    HW2 3137   0.956   2.689   4.054
 1041SOL     OW 3138   1.504   3.469   3.768
 1041SOL    HW1 3139   1.412   3.506   3.775
 1041SOL    HW2 3140   1.542   3.489   3.678
 1042SOL     OW 3141   1.039   2.960   4.420
 1042SOL    HW1 3142   0.969   2.913   4.474
 1042SOL    HW2 3143   1.098   2.892   4.377
 1043SOL     OW 3144   0.590   3.349   4.215
 1043SOL    HW1 3145   0.632   3.291   4.145
 1043SOL    HW2 3146   0.546   3.428   4.171
 1044SOL     OW 3147   0.255   3.210   4.014
 1044SOL    HW1 3148   0.159   3.211   3.987
 1044SOL    HW2 3149   0.267   3.263   4.098
 1045SOL     OW 3150   0.075   2.207   3.757
 1045SOL    HW1 3151  -0.017   2.179   3.728
 1045SOL    HW2 3152   0.106   2.284   3.701
 1046SOL     OW 3153   0.072   2.028   4.042
 1046SOL    HW1 3154   0.055   2.111   3.988
 1046SOL    HW2 3155   0.162   1.991   4.020
 1047SOL     OW 3156   1.183   3.197   3.843
 1047SOL    HW1 3157   1.084   3.186   3.845
 1047SOL    HW2 3158   1.217   3.212   3.936
 1048SOL     OW 3159   1.674   2.745   4.978
 1048SOL    HW1 3160   1.647   2.656   4.941
 1048SOL    HW2 3161   1.675   2.813   4.905
 1049SOL     OW 3162   1.225   2.187   4.173
 1049SOL    HW1 3163   1.290   2.113   4.162
 1049SOL    HW2 3164   1.245   2.237   4.257
 1050SOL     OW 3165   0.594   2.607   4.376
 1050SOL    HW1 3166   0.644   2.692   4.357
 1050SOL    HW2 3167   0.506   2.609   4.328
 1051SOL     OW 3168   0.859   3.236   3.740
 1051SOL    HW1 3169   0.813   3.251   3.828
 1051SOL    HW2 3170   0.903   3.321   3.710
 1052SOL     OW 3171   0.661   3.652   4.677
 1052SOL    HW1 3172   0.615   3.740   4.664
 1052SOL    HW2 3173   0.760   3.664   4.670
 1053SOL     OW 3174   0.859   2.818   4.585
 1053SOL    HW1 3175   0.913   2.749   4.633
 1053SOL    HW2 3176   0.827   2.887   4.651
 1054SOL     OW 3177   1.083   2.846   3.811
 1054SOL    HW1 3178   1.060   2.899   3.729
 1054SOL    HW2 3179   1.164   2.790   3.792
 1055SOL     OW 3180   1.861   3.431   4.575
 1055SOL    HW1 3181   1.790   3.419   4.505
 1055SOL    HW2 3182   1.862   3.352   4.635
 1056SOL     OW 3183   0.079   3.102   4.377
 1056SOL    HW1 3184   0.078   3.055   4.465
 1056SOL    HW2 3185   0.161   3.074   4.326
 1057SOL     OW 3186   0.428   2.286   4.244
 1057SOL    HW1 3187   0.458   2.214   4.182
 1057SOL    HW2 3188   0.389   2.246   4.327
 1058SOL     OW 3189   0.812   3.448   4.411
 1058SOL    HW1 3190   0.844   3.458   4.317
 1058SOL    HW2 3191   0.733   3.386   4.413
 1059SOL     OW 3192   0.770   3.192   4.025
 1059SOL    HW1 3193   0.724   3.105   4.042
 1059SOL    HW2 3194   0.861   3.189   4.066
 1060SOL     OW 3195   1.352   1.914   3.892
 1060SOL    HW1 3196   1.387   1.873   3.808
 1060SOL    HW2 3197   1.262   1.876   3.912
 1061SOL     OW 3198   1.300   2.315   4.415
 1061SOL    HW1 3199   1.241   2.395   4.419
 1061SOL    HW2 3200   1.315   2.280   4.508
 1062SOL     OW 3201   1.593   2.083   4.606
 1062SOL    HW1 3202   1.509   2.082   4.660
 1062SOL    HW2 3203   1.595   2.166   4.550
 1063SOL     OW 3204   0.039   2.939   4.024
 1063SOL    HW1 3205   0.138   2.928   4.015
 1063SOL    HW2 3206  -0.001   2.853   4.056
 1064SOL     OW 3207   0.875   3.508   4.061
 1064SOL    HW1 3208   0.798   3.473   4.007
 1064SOL    HW2 3209   0.843   3.579   4.123
 1065SOL     OW 3210   0.230   4.352   0.113
 1065SOL    HW1 3211   0.137   4.350   0.150
 1065SOL    HW2 3212   0.231   4.313   0.021
 1066SOL     OW 3213   0.225   3.999   0.996
 1066SOL    HW1 3214   0.260   3.982   1.088
 1066SOL    HW2 3215   0.137   3.954   0.984
 1067SOL     OW 3216   0.019   4.092   0.647
 1067SOL    HW1 3217  -0.063   4.135   0.686
 1067SOL    HW2 3218  -0.009   4.019   0.584
 1068SOL     OW 3219   1.135   4.427   0.717
 1068SOL    HW1 3220   1.192   4.505   0.692
 1068SOL    HW2 3221   1.075   4.453   0.793
 1069SOL     OW 3222   1.755   4.331   0.231
 1069SOL    HW1 3223   1.743   4.318   0.132
 1069SOL    HW2 3224   1.725   4.250   0.280
 1070SOL     OW 3225   0.850   4.522   1.823
 1070SOL    HW1 3226   0.846   4.598   1.888
 1070SOL    HW2 3227   0.872   4.558   1.732
 1071SOL     OW 3228   0.685   4.736   0.665
 1071SOL    HW1 3229   0.754   4.720   0.735
 1071SOL    HW2 3230   0.612   4.793   0.703
 1072SOL     OW 3231   0.438   4.116   1.499
 1072SOL    HW1 3232   0.520   4.060   1.508
 1072SOL    HW2 3233   0.357   4.058   1.503
 1073SOL     OW 3234   1.603   4.171   0.737
 1073SOL    HW1 3235   1.529   4.217   0.687
 1073SOL    HW2 3236   1.654   4.239   0.790
 1074SOL     OW 3237   1.594   3.838   1.480
 1074SOL    HW1 3238   1.576   3.905   1.408
 1074SOL    HW2 3239   1.591   3.884   1.569
 1075SOL     OW 3240   0.122   4.367   0.563
 1075SOL    HW1 3241   0.077   4.279   0.580
 1075SOL    HW2 3242   0.121   4.421   0.647
 1076SOL     OW 3243   0.113   4.461   1.597
 1076SOL    HW1 3244   0.201   4.448   1.642
 1076SOL    HW2 3245   0.100   4.558   1.575
 1077SOL     OW 3246   0.809   3.728   0.502
 1077SOL    HW1 3247   0.849   3.819   0.493
 1077SOL    HW2 3248   0.709   3.736   0.508
 1078SOL     OW 3249   1.525   4.723   0.190
 1078SOL    HW1 3250   1.462   4.647   0.203
 1078SOL    HW2 3251   1.573   4.741   0.276
 1079SOL     OW 3252   0.317   3.975   1.801
 1079SOL    HW1 3253   0.388   4.046   1.807
 1079SOL    HW2 3254   0.229   4.014   1.829
 1080SOL     OW 3255   0.598   4.453   0.270
 1080SOL    HW1 3256   0.622   4.522   0.202
 1080SOL    HW2 3257   0.520   4.486   0.324
 1081SOL     OW 3258   1.281   4.069   0.944
 1081SOL    HW1 3259   1.195   4.019   0.931
 1081SOL    HW2 3260   1.343   4.015   1.000
 1082SOL     OW 3261   0.807   4.329   1.465
 1082SOL    HW1 3262   0.760   4.326   1.554
 1082SOL    HW2 3263   0.756   4.274   1.399
 1083SOL     OW 3264   1.394   4.193   1.674
 1083SOL    HW1 3265   1.374   4.236   1.762
 1083SOL    HW2 3266   1.472   4.131   1.683
 1084SOL     OW 3267   0.973   4.614   1.572
 1084SOL    HW1 3268   1.019   4.530   1.543
 1084SOL    HW2 3269   0.917   4.648   1.497
 1085SOL     OW 3270   0.991   4.134   1.242
 1085SOL    HW1 3271   0.914   4.168   1.296
 1085SOL    HW2 3272   0.957   4.083   1.163
 1086SOL     OW 3273   1.041   4.425   0.429
 1086SOL    HW1 3274   1.067   4.421   0.525
 1086SOL    HW2 3275   0.956   4.374   0.415
 1087SOL     OW 3276   0.076   4.535   0.789
 1087SOL    HW1 3277   0.175   4.523   0.798
 1087SOL    HW2 3278   0.052   4.630   0.810
 1088SOL     OW 3279   0.865   4.072   0.195
 1088SOL    HW1 3280   0.924   4.135   0.146
 1088SOL    HW2 3281   0.884   3.978   0.166
 1089SOL     OW 3282   1.719   4.309   1.831
 1089SOL    HW1 3283   1.693   4.398   1.795
 1089SOL    HW2 3284   1.717   4.241   1.758
 1090SOL     OW 3285   0.550   3.920   0.885
 1090SOL    HW1 3286   0.545   3.915   0.985
 1090SOL    HW2 3287   0.552   4.016   0.856
 1091SOL     OW 3288   1.458   4.459   0.728
 1091SOL    HW1 3289   1.453   4.394   0.803
 1091SOL    HW2 3290   1.538   4.518   0.741
 1092SOL     OW 3291   0.202   4.009   1.498
 1092SOL    HW1 3292   0.122   4.069   1.485
 1092SOL    HW2 3293   0.192   3.960   1.584
 1093SOL     OW 3294   1.400   3.831   0.426
 1093SOL    HW1 3295   1.376   3.794   0.336
 1093SOL    HW2 3296   1.499   3.847   0.430
 1094SOL     OW 3297   0.382   4.424   0.480
 1094SOL    HW1 3298   0.427   4.334   0.477
 1094SOL    HW2 3299   0.288   4.413   0.513
 1095SOL     OW 3300   1.547   3.946   1.729
 1095SOL    HW1 3301   1.542   3.983   1.821
 1095SOL    HW2 3302   1.475   3.877   1.717
 1096SOL     OW 3303   0.781   3.988   1.749
 1096SOL    HW1 3304   0.848   3.927   1.792
 1096SOL    HW2 3305   0.708   4.007   1.814
 1097SOL     OW 3306   1.351   4.314   1.433
 1097SOL    HW1 3307   1.379   4.271   1.518
 1097SOL    HW2 3308   1.376   4.410   1.434
 1098SOL     OW 3309   0.922   4.227   0.899
 1098SOL    HW1 3310   0.897   4.218   0.803
 1098SOL    HW2 3311   0.970   4.145   0.930
 1099SOL     OW 3312   0.539   3.788   0.512
 1099SOL    HW1 3313   0.458   3.789   0.570
 1099SOL    HW2 3314   0.542   3.871   0.457
 1100SOL     OW 3315   0.297   3.759   0.171
 1100SOL    HW1 3316   0.346   3.843   0.150
 1100SOL    HW2 3317   0.359   3.694   0.216
 1101SOL     OW 3318   0.935   3.960   0.480
 1101SOL    HW1 3319   0.887   4.001   0.402
 1101SOL    HW2 3320   1.034   3.958   0.461
 1102SOL     OW 3321   1.076   4.407   1.464
 1102SOL    HW1 3322   0.996   4.346   1.467
 1102SOL    HW2 3323   1.157   4.354   1.440
 1103SOL     OW 3324   1.032   4.273   0.016
 1103SOL    HW1 3325   0.991   4.355  -0.023
 1103SOL    HW2 3326   1.096   4.299   0.089
 1104SOL     OW 3327   0.078   4.280   1.386
 1104SOL    HW1 3328   0.170   4.279   1.345
 1104SOL    HW2 3329   0.072   4.354   1.453
 1105SOL     OW 3330   0.561   3.946   1.147
 1105SOL    HW1 3331   0.599   3.862   1.184
 1105SOL    HW2 3332   0.473   3.965   1.191
 1106SOL     OW 3333   0.866   4.178   0.642
 1106SOL    HW1 3334   0.834   4.250   0.580
 1106SOL    HW2 3335   0.890   4.097   0.589
 1107SOL     OW 3336   1.017   3.763   0.753
 1107SOL    HW1 3337   0.945   3.768   0.684
 1107SOL    HW2 3338   0.993   3.694   0.822
 1108SOL     OW 3339   1.466   4.314   0.992
 1108SOL    HW1 3340   1.436   4.219   0.999
 1108SOL    HW2 3341   1.539   4.330   1.058
 1109SOL     OW 3342   1.857   4.557   0.377
 1109SOL    HW1 3343   1.899   4.493   0.441
 1109SOL    HW2 3344   1.819   4.506   0.299
 1110SOL     OW 3345   1.390   4.299   0.078
 1110SOL    HW1 3346   1.336   4.278   0.159
 1110SOL    HW2 3347   1.481   4.258   0.087
 1111SOL     OW 3348   0.527   3.980   0.328
 1111SOL    HW1 3349   0.554   3.921   0.253
 1111SOL    HW2 3350   0.527   4.075   0.297
 1112SOL     OW 3351   1.638   4.823   1.079
 1112SOL    HW1 3352   1.643   4.904   1.138
 1112SOL    HW2 3353   1.552   4.825   1.028
 1113SOL     OW 3354   0.915   3.813   1.402
 1113SOL    HW1 3355   0.940   3.793   1.307
 1113SOL    HW2 3356   0.987   3.869   1.444
 1114SOL     OW 3357   0.410   4.537   1.251
 1114SOL    HW1 3358   0.496   4.549   1.301
 1114SOL    HW2 3359   0.368   4.450   1.278
 1115SOL     OW 3360   1.274   4.110   1.262
 1115SOL    HW1 3361   1.295   4.184   1.326
 1115SOL    HW2 3362   1.185   4.127   1.219
 1116SOL     OW 3363   0.566   4.261   0.865
 1116SOL    HW1 3364   0.578   4.327   0.791
 1116SOL    HW2 3365   0.612   4.295   0.948
 1117SOL     OW 3366   1.582   4.363   0.472
 1117SOL    HW1 3367   1.551   4.424   0.545
 1117SOL    HW2 3368   1.632   4.415   0.403
 1118SOL     OW 3369   0.402   4.475   1.598
 1118SOL    HW1 3370   0.470   4.530   1.551
 1118SOL    HW2 3371   0.442   4.387   1.625
 1119SOL     OW 3372   1.587   4.503   1.670
 1119SOL    HW1 3373   1.495   4.541   1.665
 1119SOL    HW2 3374   1.647   4.550   1.605
 1120SOL     OW 3375   1.013   3.829   1.770
 1120SOL    HW1 3376   1.019   3.914   1.718
 1120SOL    HW2 3377   1.045   3.753   1.713
 1121SOL     OW 3378   0.504   3.774   1.740
 1121SOL    HW1 3379   0.462   3.717   1.670
 1121SOL    HW2 3380   0.438   3.843   1.772
 1122SOL     OW 3381   0.573   4.594   1.029
 1122SOL    HW1 3382   0.617   4.683   1.020
 1122SOL    HW2 3383   0.510   4.594   1.106
 1123SOL     OW 3384   1.360   4.586   1.045
 1123SOL    HW1 3385   1.285   4.586   0.979
 1123SOL    HW2 3386   1.397   4.494   1.054
 1124SOL     OW 3387   1.209   4.249   0.275
 1124SOL    HW1 3388   1.222   4.165   0.329
 1124SOL    HW2 3389   1.180   4.323   0.335
 1125SOL     OW 3390   0.307   3.937   1.231
 1125SOL    HW1 3391   0.284   3.974   1.321
 1125SOL    HW2 3392   0.277   3.842   1.225
 1126SOL     OW 3393   0.732   4.358   1.064
 1126SOL    HW1 3394   0.791   4.332   0.988
 1126SOL    HW2 3395   0.704   4.454   1.053
 1127SOL     OW 3396   1.728   4.659   1.854
 1127SOL    HW1 3397   1.682   4.652   1.765
 1127SOL    HW2 3398   1.666   4.703   1.920
 1128SOL     OW 3399   0.307   3.787   0.618
 1128SOL    HW1 3400   0.296   3.881   0.651
 1128SOL    HW2 3401   0.302   3.724   0.695
 1129SOL     OW 3402   1.622   4.091   0.374
 1129SOL    HW1 3403   1.624   4.015   0.438
 1129SOL    HW2 3404   1.574   4.168   0.414
 1130SOL     OW 3405   1.023   4.490   0.966
 1130SOL    HW1 3406   1.038   4.511   1.062
 1130SOL    HW2 3407   0.993   4.395   0.957
 1131SOL     OW 3408   0.350   4.622   1.804
 1131SOL    HW1 3409   0.426   4.666   1.852
 1131SOL    HW2 3410   0.385   4.575   1.722
 1132SOL     OW 3411   1.540   3.998   0.125
 1132SOL    HW1 3412   1.479   3.923   0.148
 1132SOL    HW2 3413   1.562   4.050   0.208
 1133SOL     OW 3414   1.303   4.562   0.042
 1133SOL    HW1 3415   1.337   4.469   0.057
 1133SOL    HW2 3416   1.321   4.589  -0.053
 1134SOL     OW 3417   0.319   4.534   0.949
 1134SOL    HW1 3418   0.412   4.570   0.954
 1134SOL    HW2 3419   0.313   4.449   1.001
 1135SOL     OW 3420   0.339   4.233   1.006
 1135SOL    HW1 3421   0.287   4.150   0.989
 1135SOL    HW2 3422   0.416   4.238   0.942
 1136SOL     OW 3423   1.138   4.104   1.678
 1136SOL    HW1 3424   1.093   4.167   1.742
 1136SOL    HW2 3425   1.231   4.135   1.661
 1137SOL     OW 3426   1.160   3.931   1.477
 1137SOL    HW1 3427   1.160   3.995   1.554
 1137SOL    HW2 3428   1.188   3.979   1.394
 1138SOL     OW 3429   1.002   4.520   1.238
 1138SOL    HW1 3430   1.043   4.488   1.324
 1138SOL    HW2 3431   0.906   4.493   1.235
 1139SOL     OW 3432   0.040   4.268   1.114
 1139SOL    HW1 3433   0.125   4.235   1.073
 1139SOL    HW2 3434   0.053   4.283   1.212
 1140SOL     OW 3435   0.189   4.244   1.722
 1140SOL    HW1 3436   0.248   4.204   1.652
 1140SOL    HW2 3437   0.131   4.315   1.681
 1141SOL     OW 3438   0.815   4.296   0.325
 1141SOL    HW1 3439   0.822   4.207   0.279
 1141SOL    HW2 3440   0.721   4.330   0.317
 1142SOL     OW 3441   1.657   4.328   1.206
 1142SOL    HW1 3442   1.619   4.259   1.268
 1142SOL    HW2 3443   1.739   4.292   1.162
 1143SOL     OW 3444   0.671   4.188   1.269
 1143SOL    HW1 3445   0.637   4.099   1.239
 1143SOL    HW2 3446   0.697   4.242   1.189
 1144SOL     OW 3447   0.473   4.224   0.191
 1144SOL    HW1 3448   0.534   4.304   0.195
 1144SOL    HW2 3449   0.378   4.255   0.198
 1145SOL     OW 3450   1.347   4.783   1.234
 1145SOL    HW1 3451   1.371   4.720   1.160
 1145SOL    HW2 3452   1.257   4.823   1.216
 1146SOL     OW 3453   1.302   4.579   0.309
 1146SOL    HW1 3454   1.216   4.548   0.351
 1146SOL    HW2 3455   1.298   4.565   0.210
 1147SOL     OW 3456   0.903   3.810   0.133
 1147SOL    HW1 3457   0.954   3.811   0.047
 1147SOL    HW2 3458   0.959   3.768   0.204
 1148SOL     OW 3459   1.726   3.859   0.523
 1148SOL    HW1 3460   1.799   3.842   0.456
 1148SOL    HW2 3461   1.695   3.772   0.561
 1149SOL     OW 3462   1.280   4.651   0.672
 1149SOL    HW1 3463   1.340   4.570   0.674
 1149SOL    HW2 3464   1.320   4.720   0.612
 1150SOL     OW 3465   1.841   3.899   0.963
 1150SOL    HW1 3466   1.880   3.814   0.927
 1150SOL    HW2 3467   1.743   3.901   0.944
 1151SOL     OW 3468   0.263   4.050   0.720
 1151SOL    HW1 3469   0.184   4.101   0.686
 1151SOL    HW2 3470   0.254   4.035   0.818
 1152SOL     OW 3471   1.014   3.960   0.971
 1152SOL    HW1 3472   1.006   3.924   0.878
 1152SOL    HW2 3473   1.012   3.884   1.036
 1153SOL     OW 3474   1.709   4.109   1.381
 1153SOL    HW1 3475   1.782   4.178   1.385
 1153SOL    HW2 3476   1.737   4.034   1.322
 1154SOL     OW 3477   0.105   4.737   1.726
 1154SOL    HW1 3478   0.028   4.704   1.780
 1154SOL    HW2 3479   0.190   4.707   1.768
 1155SOL     OW 3480   0.672   3.927   1.489
 1155SOL    HW1 3481   0.762   3.911   1.449
 1155SOL    HW2 3482   0.680   3.932   1.588
 1156SOL     OW 3483   0.075   4.069   0.033
 1156SOL    HW1 3484  -0.017   4.041   0.004
 1156SOL    HW2 3485   0.106   4.146  -0.023
 1157SOL     OW 3486   1.440   4.580   1.398
 1157SOL    HW1 3487   1.383   4.632   1.335
 1157SOL    HW2 3488   1.536   4.592   1.374
 1158SOL     OW 3489   0.072   3.890   0.318
 1158SOL    HW1 3490   0.055   3.973   0.264
 1158SOL    HW2 3491   0.162   3.853   0.296
 1159SOL     OW 3492   0.613   4.566   1.431
 1159SOL    HW1 3493   0.669   4.647   1.414
 1159SOL    HW2 3494   0.672   4.486   1.434
 1160SOL     OW 3495   0.716   4.289   1.708
 1160SOL    HW1 3496   0.735   4.354   1.782
 1160SOL    HW2 3497   0.776   4.209   1.717
 1161SOL     OW 3498   1.674   4.607   1.254
 1161SOL    HW1 3499   1.647   4.518   1.217
 1161SOL    HW2 3500   1.675   4.675   1.181
 1162SOL     OW 3501   1.225   4.049   0.449
 1162SOL    HW1 3502   1.290   3.975   0.438
 1162SOL    HW2 3503   1.245   4.099   0.533
 1163SOL     OW 3504   0.594   4.469   0.652
 1163SOL    HW1 3505   0.644   4.554   0.633
 1163SOL    HW2 3506   0.506   4.471   0.604
 1164SOL     OW 3507   1.777   4.066   1.642
 1164SOL    HW1 3508   1.760   4.097   1.548
 1164SOL    HW2 3509   1.693   4.029   1.680
 1165SOL     OW 3510   1.730   4.658   1.517
 1165SOL    HW1 3511   1.768   4.749   1.532
 1165SOL    HW2 3512   1.722   4.641   1.418
 1166SOL     OW 3513   1.824   3.916   1.227
 1166SOL    HW1 3514   1.820   3.826   1.271
 1166SOL    HW2 3515   1.827   3.905   1.128
 1167SOL     OW 3516   0.428   4.148   0.520
 1167SOL    HW1 3517   0.458   4.076   0.458
 1167SOL    HW2 3518   0.389   4.108   0.603
 1168SOL     OW 3519   0.317   4.271   1.280
 1168SOL    HW1 3520   0.355   4.212   1.352
 1168SOL    HW2 3521   0.357   4.245   1.192
 1169SOL     OW 3522   1.424   3.938   1.112
 1169SOL    HW1 3523   1.476   3.873   1.167
 1169SOL    HW2 3524   1.375   4.001   1.173
 1170SOL     OW 3525   1.001   3.758   1.154
 1170SOL    HW1 3526   0.938   3.686   1.123
 1170SOL    HW2 3527   1.094   3.722   1.154
 1171SOL     OW 3528   1.352   3.776   0.168
 1171SOL    HW1 3529   1.387   3.735   0.084
 1171SOL    HW2 3530   1.262   3.738   0.188
 1172SOL     OW 3531   1.300   4.177   0.691
 1172SOL    HW1 3532   1.241   4.257   0.695
 1172SOL    HW2 3533   1.315   4.142   0.784
 1173SOL     OW 3534   1.593   3.945   0.882
 1173SOL    HW1 3535   1.509   3.944   0.936
 1173SOL    HW2 3536   1.595   4.028   0.826
 1174SOL     OW 3537   0.230   4.352   1.975
 1174SOL    HW1 3538   0.137   4.350   2.012
 1174SOL    HW2 3539   0.231   4.313   1.883
 1175SOL     OW 3540   0.225   3.999   2.858
 1175SOL    HW1 3541   0.260   3.982   2.950
 1175SOL    HW2 3542   0.137   3.954   2.846
 1176SOL     OW 3543   0.019   4.092   2.509
 1176SOL    HW1 3544  -0.063   4.135   2.548
 1176SOL    HW2 3545  -0.009   4.019   2.446
 1177SOL     OW 3546   1.135   4.427   2.579
 1177SOL    HW1 3547   1.192   4.505   2.554
 1177SOL    HW2 3548   1.075   4.453   2.655
 1178SOL     OW 3549   1.755   4.331   2.093
 1178SOL    HW1 3550   1.743   4.318   1.994
 1178SOL    HW2 3551   1.725   4.250   2.142
 1179SOL     OW 3552   0.850   4.522   3.685
 1179SOL    HW1 3553   0.846   4.598   3.750
 1179SOL    HW2 3554   0.872   4.558   3.594
 1180SOL     OW 3555   0.685   4.736   2.527
 1180SOL    HW1 3556   0.754   4.720   2.597
 1180SOL    HW2 3557   0.612   4.793   2.565
 1181SOL     OW 3558   0.438   4.116   3.361
 1181SOL    HW1 3559   0.520   4.060   3.370
 1181SOL    HW2 3560   0.357   4.058   3.365
 1182SOL     OW 3561   1.603   4.171   2.599
 1182SOL    HW1 3562   1.529   4.217   2.549
 1182SOL    HW2 3563   1.654   4.239   2.652
 1183SOL     OW 3564   1.594   3.838   3.342
 1183SOL    HW1 3565   1.576   3.905   3.270
 1183SOL    HW2 3566   1.591   3.884   3.431
 1184SOL     OW 3567   0.122   4.367   2.425
 1184SOL    HW1 3568   0.077   4.279   2.442
 1184SOL    HW2 3569   0.121   4.421   2.509
 1185SOL     OW 3570   0.113   4.461   3.459
 1185SOL    HW1 3571   0.201   4.448   3.504
 1185SOL    HW2 3572   0.100   4.558   3.437
 1186SOL     OW 3573   0.809   3.728   2.364
 1186SOL    HW1 3574   0.849   3.819   2.355
 1186SOL    HW2 3575   0.709   3.736   2.370
 1187SOL     OW 3576   1.525   4.723   2.052
 1187SOL    HW1 3577   1.462   4.647   2.065
 1187SOL    HW2 3578   1.573   4.741   2.138
 1188SOL     OW 3579   0.317   3.975   3.663
 1188SOL    HW1 3580   0.388   4.046   3.669
 1188SOL    HW2 3581   0.229   4.014   3.691
 1189SOL     OW 3582   0.598   4.453   2.132
 1189SOL    HW1 3583   0.622   4.522   2.064
 1189SOL    HW2 3584   0.520   4.486   2.186
 1190SOL     OW 3585   1.281   4.069   2.806
 1190SOL    HW1 3586   1.195   4.019   2.793
 1190SOL    HW2 3587   1.343   4.015   2.862
 1191SOL     OW 3588   0.807   4.329   3.327
 1191SOL    HW1 3589   0.760   4.326   3.416
 1191SOL    HW2 3590   0.756   4.274   3.261
 1192SOL     OW 3591   1.394   4.193   3.536
 1192SOL    HW1 3592   1.374   4.236   3.624
 1192SOL    HW2 3593   1.472   4.131   3.545
 1193SOL     OW 3594   0.973   4.614   3.434
 1193SOL    HW1 3595   1.019   4.530   3.405
 1193SOL    HW2 3596   0.917   4.648   3.359
 1194SOL     OW 3597   0.991   4.134   3.104
 1194SOL    HW1 3598   0.914   4.168   3.158
 1194SOL    HW2 3599   0.957   4.083   3.025
 1195SOL     OW 3600   1.041   4.425   2.291
 1195SOL    HW1 3601   1.067   4.421   2.387
 1195SOL    HW2 3602   0.956   4.374   2.277
 1196SOL     OW 3603   0.076   4.535   2.651
 1196SOL    HW1 3604   0.175   4.523   2.660
 1196SOL    HW2 3605   0.052   4.630   2.672
 1197SOL     OW 3606   0.865   4.072   2.057
 1197SOL    HW1 3607   0.924   4.135   2.008
 1197SOL    HW2 3608   0.884   3.978   2.028
 1198SOL     OW 3609   1.719   4.309   3.693
 1198SOL    HW1 3610   1.693   4.398   3.657
 1198SOL    HW2 3611   1.717   4.241   3.620
 1199SOL     OW 3612   0.550   3.920   2.747
 1199SOL    HW1 3613   0.545   3.915   2.847
 1199SOL    HW2 3614   0.552   4.016   2.718
 1200SOL     OW 3615   1.458   4.459   2.590
 1200SOL    HW1 3616   1.453   4.394   2.665
 1200SOL    HW2 3617   1.538   4.518   2.603
 1201SOL     OW 3618   0.202   4.009   3.360
 1201SOL    HW1 3619   0.122   4.069   3.347
 1201SOL    HW2 3620   0.192   3.960   3.446
 1202SOL     OW 3621   1.400   3.831   2.288
 1202SOL    HW1 3622   1.376   3.794   2.198
 1202SOL    HW2 3623   1.499   3.847   2.292
 1203SOL     OW 3624   0.382   4.424   2.342
 1203SOL    HW1 3625   0.427   4.334   2.339
 1203SOL    HW2 3626   0.288   4.413   2.375
 1204SOL     OW 3627   1.547   3.946   3.591
 1204SOL    HW1 3628   1.542   3.983   3.683
 1204SOL    HW2 3629   1.475   3.877   3.579
 1205SOL     OW 3630   0.614   3.846   1.979
 1205SOL    HW1 3631   0.712   3.824   1.986
 1205SOL    HW2 3632   0.583   3.829   1.886
 1206SOL     OW 3633   0.781   3.988   3.611
 1206SOL    HW1 3634   0.848   3.927   3.654
 1206SOL    HW2 3635   0.708   4.007   3.676
 1207SOL     OW 3636   1.351   4.314   3.295
 1207SOL    HW1 3637   1.379   4.271   3.380
 1207SOL    HW2 3638   1.376   4.410   3.296
 1208SOL     OW 3639   0.922   4.227   2.761
 1208SOL    HW1 3640   0.897   4.218   2.665
 1208SOL    HW2 3641   0.970   4.145   2.792
 1209SOL     OW 3642   0.539   3.788   2.374
 1209SOL    HW1 3643   0.458   3.789   2.432
 1209SOL    HW2 3644   0.542   3.871   2.319
 1210SOL     OW 3645   0.297   3.759   2.033
 1210SOL    HW1 3646   0.346   3.843   2.012
 1210SOL    HW2 3647   0.359   3.694   2.078
 1211SOL     OW 3648   0.935   3.960   2.342
 1211SOL    HW1 3649   0.887   4.001   2.264
 1211SOL    HW2 3650   1.034   3.958   2.323
 1212SOL     OW 3651   1.076   4.407   3.326
 1212SOL    HW1 3652   0.996   4.346   3.329
 1212SOL    HW2 3653   1.157   4.354   3.302
 1213SOL     OW 3654   1.032   4.273   1.878
 1213SOL    HW1 3655   0.991   4.355   1.839
 1213SOL    HW2 3656   1.096   4.299   1.951
 1214SOL     OW 3657   0.078   4.280   3.248
 1214SOL    HW1 3658   0.170   4.279   3.207
 1214SOL    HW2 3659   0.072   4.354   3.315
 1215SOL     OW 3660   0.561   3.946   3.009
 1215SOL    HW1 3661   0.599   3.862   3.046
 1215SOL    HW2 3662   0.473   3.965   3.053
 1216SOL     OW 3663   0.866   4.178   2.504
 1216SOL    HW1 3664   0.834   4.250   2.442
 1216SOL    HW2 3665   0.890   4.097   2.451
 1217SOL     OW 3666   1.017   3.763   2.615
 1217SOL    HW1 3667   0.945   3.768   2.546
 1217SOL    HW2 3668   0.993   3.694   2.684
 1218SOL     OW 3669   1.466   4.314   2.854
 1218SOL    HW1 3670   1.436   4.219   2.861
 1218SOL    HW2 3671   1.539   4.330   2.920
 1219SOL     OW 3672   1.857   4.557   2.239
 1219SOL    HW1 3673   1.899   4.493   2.303
 1219SOL    HW2 3674   1.819   4.506   2.161
 1220SOL     OW 3675   1.390   4.299   1.940
 1220SOL    HW1 3676   1.336   4.278   2.021
 1220SOL    HW2 3677   1.481   4.258   1.949
 1221SOL     OW 3678   0.527   3.980   2.190
 1221SOL    HW1 3679   0.554   3.921   2.115
 1221SOL    HW2 3680   0.527   4.075   2.159
 1222SOL     OW 3681   1.638   4.823   2.941
 1222SOL    HW1 3682   1.643   4.904   3.000
 1222SOL    HW2 3683   1.552   4.825   2.890
 1223SOL     OW 3684   0.915   3.813   3.264
 1223SOL    HW1 3685   0.940   3.793   3.169
 1223SOL    HW2 3686   0.987   3.869   3.306
 1224SOL     OW 3687   0.410   4.537   3.113
 1224SOL    HW1 3688   0.496   4.549   3.163
 1224SOL    HW2 3689   0.368   4.450   3.140
 1225SOL     OW 3690   1.274   4.110   3.124
 1225SOL    HW1 3691   1.295   4.184   3.188
 1225SOL    HW2 3692   1.185   4.127   3.081
 1226SOL     OW 3693   0.566   4.261   2.727
 1226SOL    HW1 3694   0.578   4.327   2.653
 1226SOL    HW2 3695   0.612   4.295   2.810
 1227SOL     OW 3696   1.582   4.363   2.334
 1227SOL    HW1 3697   1.551   4.424   2.407
 1227SOL    HW2 3698   1.632   4.415   2.265
 1228SOL     OW 3699   0.402   4.475   3.460
 1228SOL    HW1 3700   0.470   4.530   3.413
 1228SOL    HW2 3701   0.442   4.387   3.487
 1229SOL     OW 3702   1.587   4.503   3.532
 1229SOL    HW1 3703   1.495   4.541   3.527
 1229SOL    HW2 3704   1.647   4.550   3.467
 1230SOL     OW 3705   1.013   3.829   3.632
 1230SOL    HW1 3706   1.019   3.914   3.580
 1230SOL    HW2 3707   1.045   3.753   3.575
 1231SOL     OW 3708   0.504   3.774   3.602
 1231SOL    HW1 3709   0.462   3.717   3.532
 1231SOL    HW2 3710   0.438   3.843   3.634
 1232SOL     OW 3711   0.573   4.594   2.891
 1232SOL    HW1 3712   0.617   4.683   2.882
 1232SOL    HW2 3713   0.510   4.594   2.968
 1233SOL     OW 3714   1.360   4.586   2.907
 1233SOL    HW1 3715   1.285   4.586   2.841
 1233SOL    HW2 3716   1.397   4.494   2.916
 1234SOL     OW 3717   1.209   4.249   2.137
 1234SOL    HW1 3718   1.222   4.165   2.191
 1234SOL    HW2 3719   1.180   4.323   2.197
 1235SOL     OW 3720   0.307   3.937   3.093
 1235SOL    HW1 3721   0.284   3.974   3.183
 1235SOL    HW2 3722   0.277   3.842   3.087
 1236SOL     OW 3723   0.732   4.358   2.926
 1236SOL    HW1 3724   0.791   4.332   2.850
 1236SOL    HW2 3725   0.704   4.454   2.915
 1237SOL     OW 3726   1.728   4.659   3.716
 1237SOL    HW1 3727   1.682   4.652   3.627
 1237SOL    HW2 3728   1.666   4.703   3.782
 1238SOL     OW 3729   0.307   3.787   2.480
 1238SOL    HW1 3730   0.296   3.881   2.513
 1238SOL    HW2 3731   0.302   3.724   2.557
 1239SOL     OW 3732   1.622   4.091   2.236
 1239SOL    HW1 3733   1.624   4.015   2.300
 1239SOL    HW2 3734   1.574   4.168   2.276
 1240SOL     OW 3735   1.023   4.490   2.828
 1240SOL    HW1 3736   1.038   4.511   2.924
 1240SOL    HW2 3737   0.993   4.395   2.819
 1241SOL     OW 3738   0.350   4.622   3.666
 1241SOL    HW1 3739   0.426   4.666   3.714
 1241SOL    HW2 3740   0.385   4.575   3.584
 1242SOL     OW 3741   1.540   3.998   1.987
 1242SOL    HW1 3742   1.479   3.923   2.010
 1242SOL    HW2 3743   1.562   4.050   2.070
 1243SOL     OW 3744   1.303   4.562   1.904
 1243SOL    HW1 3745   1.337   4.469   1.919
 1243SOL    HW2 3746   1.321   4.589   1.809
 1244SOL     OW 3747   0.319   4.534   2.811
 1244SOL    HW1 3748   0.412   4.570   2.816
 1244SOL    HW2 3749   0.313   4.449   2.863
 1245SOL     OW 3750   0.339   4.233   2.868
 1245SOL    HW1 3751   0.287   4.150   2.851
 1245SOL    HW2 3752   0.416   4.238   2.804
 1246SOL     OW 3753   1.138   4.104   3.540
 1246SOL    HW1 3754   1.093   4.167   3.604
 1246SOL    HW2 3755   1.231   4.135   3.523
 1247SOL     OW 3756   1.160   3.931   3.339
 1247SOL    HW1 3757   1.160   3.995   3.416
 1247SOL    HW2 3758   1.188   3.979   3.256
 1248SOL     OW 3759   1.002   4.520   3.100
 1248SOL    HW1 3760   1.043   4.488   3.186
 1248SOL    HW2 3761   0.906   4.493   3.097
 1249SOL     OW 3762   0.040   4.268   2.976
 1249SOL    HW1 3763   0.125   4.235   2.935
 1249SOL    HW2 3764   0.053   4.283   3.074
 1250SOL     OW 3765   0.189   4.244   3.584
 1250SOL    HW1 3766   0.248   4.204   3.514
 1250SOL    HW2 3767   0.131   4.315   3.543
 1251SOL     OW 3768   0.815   4.296   2.187
 1251SOL    HW1 3769   0.822   4.207   2.141
 1251SOL    HW2 3770   0.721   4.330   2.179
 1252SOL     OW 3771   1.657   4.328   3.068
 1252SOL    HW1 3772   1.619   4.259   3.130
 1252SOL    HW2 3773   1.739   4.292   3.024
 1253SOL     OW 3774   0.671   4.188   3.131
 1253SOL    HW1 3775   0.637   4.099   3.101
 1253SOL    HW2 3776   0.697   4.242   3.051
 1254SOL     OW 3777   0.473   4.224   2.053
 1254SOL    HW1 3778   0.534   4.304   2.057
 1254SOL    HW2 3779   0.378   4.255   2.060
 1255SOL     OW 3780   1.347   4.783   3.096
 1255SOL    HW1 3781   1.371   4.720   3.022
 1255SOL    HW2 3782   1.257   4.823   3.078
 1256SOL     OW 3783   1.302   4.579   2.171
 1256SOL    HW1 3784   1.216   4.548   2.213
 1256SOL    HW2 3785   1.298   4.565   2.072
 1257SOL     OW 3786   1.726   3.859   2.385
 1257SOL    HW1 3787   1.799   3.842   2.318
 1257SOL    HW2 3788   1.695   3.772   2.423
 1258SOL     OW 3789   1.280   4.651   2.534
 1258SOL    HW1 3790   1.340   4.570   2.536
 1258SOL    HW2 3791   1.320   4.720   2.474
 1259SOL     OW 3792   1.841   3.899   2.825
 1259SOL    HW1 3793   1.880   3.814   2.789
 1259SOL    HW2 3794   1.743   3.901   2.806
 1260SOL     OW 3795   0.263   4.050   2.582
 1260SOL    HW1 3796   0.184   4.101   2.548
 1260SOL    HW2 3797   0.254   4.035   2.680
 1261SOL     OW 3798   0.916   4.634   2.153
 1261SOL    HW1 3799   0.979   4.672   2.085
 1261SOL    HW2 3800   0.956   4.551   2.192
 1262SOL     OW 3801   1.014   3.960   2.833
 1262SOL    HW1 3802   1.006   3.924   2.740
 1262SOL    HW2 3803   1.012   3.884   2.898
 1263SOL     OW 3804   1.709   4.109   3.243
 1263SOL    HW1 3805   1.782   4.178   3.247
 1263SOL    HW2 3806   1.737   4.034   3.184
 1264SOL     OW 3807   0.105   4.737   3.588
 1264SOL    HW1 3808   0.028   4.704   3.642
 1264SOL    HW2 3809   0.190   4.707   3.630
 1265SOL     OW 3810   0.672   3.927   3.351
 1265SOL    HW1 3811   0.762   3.911   3.311
 1265SOL    HW2 3812   0.680   3.932   3.450
 1266SOL     OW 3813   0.075   4.069   1.895
 1266SOL    HW1 3814  -0.017   4.041   1.866
 1266SOL    HW2 3815   0.106   4.146   1.839
 1267SOL     OW 3816   1.440   4.580   3.260
 1267SOL    HW1 3817   1.383   4.632   3.197
 1267SOL    HW2 3818   1.536   4.592   3.236
 1268SOL     OW 3819   0.072   3.890   2.180
 1268SOL    HW1 3820   0.055   3.973   2.126
 1268SOL    HW2 3821   0.162   3.853   2.158
 1269SOL     OW 3822   0.613   4.566   3.293
 1269SOL    HW1 3823   0.669   4.647   3.276
 1269SOL    HW2 3824   0.672   4.486   3.296
 1270SOL     OW 3825   0.716   4.289   3.570
 1270SOL    HW1 3826   0.735   4.354   3.644
 1270SOL    HW2 3827   0.776   4.209   3.579
 1271SOL     OW 3828   1.674   4.607   3.116
 1271SOL    HW1 3829   1.647   4.518   3.079
 1271SOL    HW2 3830   1.675   4.675   3.043
 1272SOL     OW 3831   1.225   4.049   2.311
 1272SOL    HW1 3832   1.290   3.975   2.300
 1272SOL    HW2 3833   1.245   4.099   2.395
 1273SOL     OW 3834   0.594   4.469   2.514
 1273SOL    HW1 3835   0.644   4.554   2.495
 1273SOL    HW2 3836   0.506   4.471   2.466
 1274SOL     OW 3837   1.777   4.066   3.504
 1274SOL    HW1 3838   1.760   4.097   3.410
 1274SOL    HW2 3839   1.693   4.029   3.542
 1275SOL     OW 3840   1.730   4.658   3.379
 1275SOL    HW1 3841   1.768   4.749   3.394
 1275SOL    HW2 3842   1.722   4.641   3.280
 1276SOL     OW 3843   1.824   3.916   3.089
 1276SOL    HW1 3844   1.820   3.826   3.133
 1276SOL    HW2 3845   1.827   3.905   2.990
 1277SOL     OW 3846   0.428   4.148   2.382
 1277SOL    HW1 3847   0.458   4.076   2.320
 1277SOL    HW2 3848   0.389   4.108   2.465
 1278SOL     OW 3849   0.317   4.271   3.142
 1278SOL    HW1 3850   0.355   4.212   3.214
 1278SOL    HW2 3851   0.357   4.245   3.054
 1279SOL     OW 3852   1.424   3.938   2.974
 1279SOL    HW1 3853   1.476   3.873   3.029
 1279SOL    HW2 3854   1.375   4.001   3.035
 1280SOL     OW 3855   1.001   3.758   3.016
 1280SOL    HW1 3856   0.938   3.686   2.985
 1280SOL    HW2 3857   1.094   3.722   3.016
 1281SOL     OW 3858   1.352   3.776   2.030
 1281SOL    HW1 3859   1.387   3.735   1.946
 1281SOL    HW2 3860   1.262   3.738   2.050
 1282SOL     OW 3861   1.300   4.177   2.553
 1282SOL    HW1 3862   1.241   4.257   2.557
 1282SOL    HW2 3863   1.315   4.142   2.646
 1283SOL     OW 3864   1.593   3.945   2.744
 1283SOL    HW1 3865   1.509   3.944   2.798
 1283SOL    HW2 3866   1.595   4.028   2.688
 1284SOL     OW 3867   0.230   4.352   3.837
 1284SOL    HW1 3868   0.137   4.350   3.874
 1284SOL    HW2 3869   0.231   4.313   3.745
 1285SOL     OW 3870   0.019   4.092   4.371
 1285SOL    HW1 3871  -0.063   4.135   4.410
 1285SOL    HW2 3872  -0.009   4.019   4.308
 1286SOL     OW 3873   1.135   4.427   4.441
 1286SOL    HW1 3874   1.192   4.505   4.416
 1286SOL    HW2 3875   1.075   4.453   4.517
 1287SOL     OW 3876   1.755   4.331   3.955
 1287SOL    HW1 3877   1.743   4.318   3.856
 1287SOL    HW2 3878   1.725   4.250   4.004
 1288SOL     OW 3879   0.685   4.736   4.389
 1288SOL    HW1 3880   0.754   4.720   4.459
 1288SOL    HW2 3881   0.612   4.793   4.427
 1289SOL     OW 3882   1.603   4.171   4.461
 1289SOL    HW1 3883   1.529   4.217   4.411
 1289SOL    HW2 3884   1.654   4.239   4.514
 1290SOL     OW 3885   0.240   4.815   4.610
 1290SOL    HW1 3886   0.254   4.731   4.662
 1290SOL    HW2 3887   0.185   4.879   4.665
 1291SOL     OW 3888   0.122   4.367   4.287
 1291SOL    HW1 3889   0.077   4.279   4.304
 1291SOL    HW2 3890   0.121   4.421   4.371
 1292SOL     OW 3891   0.809   3.728   4.226
 1292SOL    HW1 3892   0.849   3.819   4.217
 1292SOL    HW2 3893   0.709   3.736   4.232
 1293SOL     OW 3894   1.525   4.723   3.914
 1293SOL    HW1 3895   1.462   4.647   3.927
 1293SOL    HW2 3896   1.573   4.741   4.000
 1294SOL     OW 3897   0.598   4.453   3.994
 1294SOL    HW1 3898   0.622   4.522   3.926
 1294SOL    HW2 3899   0.520   4.486   4.048
 1295SOL     OW 3900   1.281   4.069   4.668
 1295SOL    HW1 3901   1.195   4.019   4.655
 1295SOL    HW2 3902   1.343   4.015   4.724
 1296SOL     OW 3903   1.041   4.425   4.153
 1296SOL    HW1 3904   1.067   4.421   4.249
 1296SOL    HW2 3905   0.956   4.374   4.139
 1297SOL     OW 3906   0.076   4.535   4.513
 1297SOL    HW1 3907   0.175   4.523   4.522
 1297SOL    HW2 3908   0.052   4.630   4.534
 1298SOL     OW 3909   0.865   4.072   3.919
 1298SOL    HW1 3910   0.924   4.135   3.870
 1298SOL    HW2 3911   0.884   3.978   3.890
 1299SOL     OW 3912   0.550   3.920   4.609
 1299SOL    HW1 3913   0.545   3.915   4.709
 1299SOL    HW2 3914   0.552   4.016   4.580
 1300SOL     OW 3915   1.458   4.459   4.452
 1300SOL    HW1 3916   1.453   4.394   4.527
 1300SOL    HW2 3917   1.538   4.518   4.465
 1301SOL     OW 3918   1.400   3.831   4.150
 1301SOL    HW1 3919   1.376   3.794   4.060
 1301SOL    HW2 3920   1.499   3.847   4.154
 1302SOL     OW 3921   0.382   4.424   4.204
 1302SOL    HW1 3922   0.427   4.334   4.201
 1302SOL    HW2 3923   0.288   4.413   4.237
 1303SOL     OW 3924   0.614   3.846   3.841
 1303SOL    HW1 3925   0.712   3.824   3.848
 1303SOL    HW2 3926   0.583   3.829   3.748
 1304SOL     OW 3927   0.539   3.788   4.236
 1304SOL    HW1 3928   0.458   3.789   4.294
 1304SOL    HW2 3929   0.542   3.871   4.181
 1305SOL     OW 3930   0.297   3.759   3.895
 1305SOL    HW1 3931   0.346   3.843   3.874
 1305SOL    HW2 3932   0.359   3.694   3.940
 1306SOL     OW 3933   0.935   3.960   4.204
 1306SOL    HW1 3934   0.887   4.001   4.126
 1306SOL    HW2 3935   1.034   3.958   4.185
 1307SOL     OW 3936   1.032   4.273   3.740
 1307SOL    HW1 3937   0.991   4.355   3.701
 1307SOL    HW2 3938   1.096   4.299   3.813
 1308SOL     OW 3939   0.866   4.178   4.366
 1308SOL    HW1 3940   0.834   4.250   4.304
 1308SOL    HW2 3941   0.890   4.097   4.313
 1309SOL     OW 3942   1.017   3.763   4.477
 1309SOL    HW1 3943   0.945   3.768   4.408
 1309SOL    HW2 3944   0.993   3.694   4.546
 1310SOL     OW 3945   1.857   4.557   4.101
 1310SOL    HW1 3946   1.899   4.493   4.165
 1310SOL    HW2 3947   1.819   4.506   4.023
 1311SOL     OW 3948   1.390   4.299   3.802
 1311SOL    HW1 3949   1.336   4.278   3.883
 1311SOL    HW2 3950   1.481   4.258   3.811
 1312SOL     OW 3951   0.527   3.980   4.052
 1312SOL    HW1 3952   0.554   3.921   3.977
 1312SOL    HW2 3953   0.527   4.075   4.021
 1313SOL     OW 3954   1.111   4.919   4.824
 1313SOL    HW1 3955   1.071   4.963   4.905
 1313SOL    HW2 3956   1.070   4.956   4.741
 1314SOL     OW 3957   0.566   4.261   4.589
 1314SOL    HW1 3958   0.578   4.327   4.515
 1314SOL    HW2 3959   0.612   4.295   4.672
 1315SOL     OW 3960   1.582   4.363   4.196
 1315SOL    HW1 3961   1.551   4.424   4.269
 1315SOL    HW2 3962   1.632   4.415   4.127
 1316SOL     OW 3963   1.209   4.249   3.999
 1316SOL    HW1 3964   1.222   4.165   4.053
 1316SOL    HW2 3965   1.180   4.323   4.059
 1317SOL     OW 3966   0.732   4.358   4.788
 1317SOL    HW1 3967   0.791   4.332   4.712
 1317SOL    HW2 3968   0.704   4.454   4.777
 1318SOL     OW 3969   0.307   3.787   4.342
 1318SOL    HW1 3970   0.296   3.881   4.375
 1318SOL    HW2 3971   0.302   3.724   4.419
 1319SOL     OW 3972   1.622   4.091   4.098
 1319SOL    HW1 3973   1.624   4.015   4.162
 1319SOL    HW2 3974   1.574   4.168   4.138
 1320SOL     OW 3975   1.540   3.998   3.849
 1320SOL    HW1 3976   1.479   3.923   3.872
 1320SOL    HW2 3977   1.562   4.050   3.932
 1321SOL     OW 3978   1.303   4.562   3.766
 1321SOL    HW1 3979   1.337   4.469   3.781
 1321SOL    HW2 3980   1.321   4.589   3.671
 1322SOL     OW 3981   0.319   4.534   4.673
 1322SOL    HW1 3982   0.412   4.570   4.678
 1322SOL    HW2 3983   0.313   4.449   4.725
 1323SOL     OW 3984   0.815   4.296   4.049
 1323SOL    HW1 3985   0.822   4.207   4.003
 1323SOL    HW2 3986   0.721   4.330   4.041
 1324SOL     OW 3987   0.473   4.224   3.915
 1324SOL    HW1 3988   0.534   4.304   3.919
 1324SOL    HW2 3989   0.378   4.255   3.922
 1325SOL     OW 3990   1.302   4.579   4.033
 1325SOL    HW1 3991   1.216   4.548   4.075
 1325SOL    HW2 3992   1.298   4.565   3.934
 1326SOL     OW 3993   1.726   3.859   4.247
 1326SOL    HW1 3994   1.799   3.842   4.180
 1326SOL    HW2 3995   1.695   3.772   4.285
 1327SOL     OW 3996   1.280   4.651   4.396
 1327SOL    HW1 3997   1.340   4.570   4.398
 1327SOL    HW2 3998   1.320   4.720   4.336
 1328SOL     OW 3999   1.841   3.899   4.687
 1328SOL    HW1 4000   1.880   3.814   4.651
 1328SOL    HW2 4001   1.743   3.901   4.668
 1329SOL     OW 4002   0.263   4.050   4.444
 1329SOL    HW1 4003   0.184   4.101   4.410
 1329SOL    HW2 4004   0.254   4.035   4.542
 1330SOL     OW 4005   0.916   4.634   4.015
 1330SOL    HW1 4006   0.979   4.672   3.947
 1330SOL    HW2 4007   0.956   4.551   4.054
 1331SOL     OW 4008   0.075   4.069   3.757
 1331SOL    HW1 4009  -0.017   4.041   3.728
 1331SOL    HW2 4010   0.106   4.146   3.701
 1332SOL     OW 4011   0.072   3.890   4.042
 1332SOL    HW1 4012   0.055   3.973   3.988
 1332SOL    HW2 4013   0.162   3.853   4.020
 1333SOL     OW 4014   1.674   4.607   4.978
 1333SOL    HW1 4015   1.647   4.518   4.941
 1333SOL    HW2 4016   1.675   4.675   4.905
 1334SOL     OW 4017   1.225   4.049   4.173
 1334SOL    HW1 4018   1.290   3.975   4.162
 1334SOL    HW2 4019   1.245   4.099   4.257
 1335SOL     OW 4020   0.594   4.469   4.376
 1335SOL    HW1 4021   0.644   4.554   4.357
 1335SOL    HW2 4022   0.506   4.471   4.328
 1336SOL     OW 4023   0.428   4.148   4.244
 1336SOL    HW1 4024   0.458   4.076   4.182
 1336SOL    HW2 4025   0.389   4.108   4.327
 1337SOL     OW 4026   1.352   3.776   3.892
 1337SOL    HW1 4027   1.387   3.735   3.808
 1337SOL    HW2 4028   1.262   3.738   3.912
 1338SOL     OW 4029   1.300   4.177   4.415
 1338SOL    HW1 4030   1.241   4.257   4.419
 1338SOL    HW2 4031   1.315   4.142   4.508
 1339SOL     OW 4032   1.593   3.945   4.606
 1339SOL    HW1 4033   1.509   3.944   4.660
 1339SOL    HW2 4034   1.595   4.028   4.550
 1340SOL     OW 4035   2.092   0.628   0.113
 1340SOL    HW1 4036   1.999   0.626   0.150
 1340SOL    HW2 4037   2.093   0.589   0.021
 1341SOL     OW 4038   2.087   0.275   0.996
 1341SOL    HW1 4039   2.122   0.258   1.088
 1341SOL    HW2 4040   1.999   0.230   0.984
 1342SOL     OW 4041   1.881   0.368   0.647
 1342SOL    HW1 4042   1.799   0.411   0.686
 1342SOL    HW2 4043   1.853   0.295   0.584
 1343SOL     OW 4044   2.431   1.275   1.165
 1343SOL    HW1 4045   2.338   1.268   1.128
 1343SOL    HW2 4046   2.442   1.364   1.209
 1344SOL     OW 4047   3.417   1.511   0.703
 1344SOL    HW1 4048   3.360   1.495   0.784
 1344SOL    HW2 4049   3.358   1.521   0.623
 1345SOL     OW 4050   2.997   0.703   0.717
 1345SOL    HW1 4051   3.054   0.781   0.692
 1345SOL    HW2 4052   2.937   0.729   0.793
 1346SOL     OW 4053   3.617   0.607   0.231
 1346SOL    HW1 4054   3.605   0.594   0.132
 1346SOL    HW2 4055   3.587   0.526   0.280
 1347SOL     OW 4056   2.630   1.144   1.023
 1347SOL    HW1 4057   2.552   1.161   1.083
 1347SOL    HW2 4058   2.664   1.231   0.987
 1348SOL     OW 4059   2.712   0.798   1.823
 1348SOL    HW1 4060   2.708   0.874   1.888
 1348SOL    HW2 4061   2.734   0.834   1.732
 1349SOL     OW 4062   2.547   1.012   0.665
 1349SOL    HW1 4063   2.616   0.996   0.735
 1349SOL    HW2 4064   2.474   1.069   0.703
 1350SOL     OW 4065   2.548   1.161   1.803
 1350SOL    HW1 4066   2.608   1.240   1.817
 1350SOL    HW2 4067   2.462   1.192   1.762
 1351SOL     OW 4068   2.197   1.435   1.061
 1351SOL    HW1 4069   2.119   1.404   1.008
 1351SOL    HW2 4070   2.255   1.493   1.004
 1352SOL     OW 4071   3.322   1.505   1.339
 1352SOL    HW1 4072   3.346   1.599   1.365
 1352SOL    HW2 4073   3.306   1.451   1.421
 1353SOL     OW 4074   2.300   0.392   1.499
 1353SOL    HW1 4075   2.382   0.336   1.508
 1353SOL    HW2 4076   2.219   0.334   1.503
 1354SOL     OW 4077   3.465   0.447   0.737
 1354SOL    HW1 4078   3.391   0.493   0.687
 1354SOL    HW2 4079   3.516   0.515   0.790
 1355SOL     OW 4080   2.093   1.713   0.483
 1355SOL    HW1 4081   2.127   1.790   0.537
 1355SOL    HW2 4082   2.137   1.713   0.393
 1356SOL     OW 4083   2.989   1.341   1.690
 1356SOL    HW1 4084   3.036   1.341   1.778
 1356SOL    HW2 4085   2.941   1.254   1.679
 1357SOL     OW 4086   2.092   1.434   0.538
 1357SOL    HW1 4087   2.066   1.530   0.538
 1357SOL    HW2 4088   2.021   1.380   0.583
 1358SOL     OW 4089   2.102   1.091   0.886
 1358SOL    HW1 4090   2.116   1.007   0.938
 1358SOL    HW2 4091   2.047   1.155   0.941
 1359SOL     OW 4092   2.482   1.786   1.439
 1359SOL    HW1 4093   2.390   1.769   1.474
 1359SOL    HW2 4094   2.510   1.878   1.465
 1360SOL     OW 4095   2.468   0.964   0.123
 1360SOL    HW1 4096   2.475   1.048   0.069
 1360SOL    HW2 4097   2.514   0.977   0.211
 1361SOL     OW 4098   3.456   0.114   1.480
 1361SOL    HW1 4099   3.438   0.181   1.408
 1361SOL    HW2 4100   3.453   0.160   1.569
 1362SOL     OW 4101   1.984   0.643   0.563
 1362SOL    HW1 4102   1.939   0.555   0.580
 1362SOL    HW2 4103   1.983   0.697   0.647
 1363SOL     OW 4104   3.704   1.767   0.359
 1363SOL    HW1 4105   3.758   1.738   0.439
 1363SOL    HW2 4106   3.734   1.857   0.330
 1364SOL     OW 4107   3.551   0.922   0.612
 1364SOL    HW1 4108   3.646   0.893   0.620
 1364SOL    HW2 4109   3.543   0.987   0.537
 1365SOL     OW 4110   3.503   1.108   0.432
 1365SOL    HW1 4111   3.589   1.110   0.380
 1365SOL    HW2 4112   3.517   1.155   0.520
 1366SOL     OW 4113   1.975   0.737   1.597
 1366SOL    HW1 4114   2.063   0.724   1.642
 1366SOL    HW2 4115   1.962   0.834   1.575
 1367SOL     OW 4116   2.475   1.365   0.726
 1367SOL    HW1 4117   2.426   1.278   0.735
 1367SOL    HW2 4118   2.452   1.408   0.639
 1368SOL     OW 4119   3.155   1.228   1.423
 1368SOL    HW1 4120   3.192   1.155   1.365
 1368SOL    HW2 4121   3.207   1.233   1.508
 1369SOL     OW 4122   2.671   0.004   0.502
 1369SOL    HW1 4123   2.711   0.095   0.493
 1369SOL    HW2 4124   2.571   0.012   0.508
 1370SOL     OW 4125   2.059   0.976   1.264
 1370SOL    HW1 4126   2.148   0.931   1.250
 1370SOL    HW2 4127   1.986   0.911   1.245
 1371SOL     OW 4128   3.387   0.999   0.190
 1371SOL    HW1 4129   3.324   0.923   0.203
 1371SOL    HW2 4130   3.435   1.017   0.276
 1372SOL     OW 4131   3.049   1.792   1.616
 1372SOL    HW1 4132   3.073   1.852   1.540
 1372SOL    HW2 4133   3.056   1.697   1.586
 1373SOL     OW 4134   2.179   0.251   1.801
 1373SOL    HW1 4135   2.250   0.322   1.807
 1373SOL    HW2 4136   2.091   0.290   1.829
 1374SOL     OW 4137   3.328   1.417   0.953
 1374SOL    HW1 4138   3.269   1.423   1.033
 1374SOL    HW2 4139   3.313   1.329   0.907
 1375SOL     OW 4140   3.529   1.714   0.572
 1375SOL    HW1 4141   3.488   1.691   0.484
 1375SOL    HW2 4142   3.511   1.640   0.637
 1376SOL     OW 4143   2.460   0.729   0.270
 1376SOL    HW1 4144   2.484   0.798   0.202
 1376SOL    HW2 4145   2.382   0.762   0.324
 1377SOL     OW 4146   3.143   0.345   0.944
 1377SOL    HW1 4147   3.057   0.295   0.931
 1377SOL    HW2 4148   3.205   0.291   1.000
 1378SOL     OW 4149   3.438   1.662   0.307
 1378SOL    HW1 4150   3.527   1.708   0.310
 1378SOL    HW2 4151   3.417   1.638   0.212
 1379SOL     OW 4152   2.669   0.605   1.465
 1379SOL    HW1 4153   2.622   0.602   1.554
 1379SOL    HW2 4154   2.618   0.550   1.399
 1380SOL     OW 4155   3.256   0.469   1.674
 1380SOL    HW1 4156   3.236   0.512   1.762
 1380SOL    HW2 4157   3.334   0.407   1.683
 1381SOL     OW 4158   2.835   0.890   1.572
 1381SOL    HW1 4159   2.881   0.806   1.543
 1381SOL    HW2 4160   2.779   0.924   1.497
 1382SOL     OW 4161   2.853   0.410   1.242
 1382SOL    HW1 4162   2.776   0.444   1.296
 1382SOL    HW2 4163   2.819   0.359   1.163
 1383SOL     OW 4164   2.903   0.701   0.429
 1383SOL    HW1 4165   2.929   0.697   0.525
 1383SOL    HW2 4166   2.818   0.650   0.415
 1384SOL     OW 4167   1.938   0.811   0.789
 1384SOL    HW1 4168   2.037   0.799   0.798
 1384SOL    HW2 4169   1.914   0.906   0.810
 1385SOL     OW 4170   1.992   1.821   1.571
 1385SOL    HW1 4171   1.982   1.806   1.670
 1385SOL    HW2 4172   1.906   1.857   1.535
 1386SOL     OW 4173   2.727   0.348   0.195
 1386SOL    HW1 4174   2.786   0.411   0.146
 1386SOL    HW2 4175   2.746   0.254   0.166
 1387SOL     OW 4176   3.581   0.585   1.831
 1387SOL    HW1 4177   3.555   0.674   1.795
 1387SOL    HW2 4178   3.579   0.517   1.758
 1388SOL     OW 4179   3.224   1.144   0.545
 1388SOL    HW1 4180   3.307   1.115   0.497
 1388SOL    HW2 4181   3.175   1.211   0.489
 1389SOL     OW 4182   2.412   0.196   0.885
 1389SOL    HW1 4183   2.407   0.191   0.985
 1389SOL    HW2 4184   2.414   0.292   0.856
 1390SOL     OW 4185   2.870   1.456   0.477
 1390SOL    HW1 4186   2.824   1.528   0.425
 1390SOL    HW2 4187   2.866   1.476   0.575
 1391SOL     OW 4188   2.213   1.801   0.853
 1391SOL    HW1 4189   2.263   1.715   0.859
 1391SOL    HW2 4190   2.278   1.878   0.850
 1392SOL     OW 4191   3.657   1.066   0.873
 1392SOL    HW1 4192   3.595   1.051   0.797
 1392SOL    HW2 4193   3.605   1.077   0.958
 1393SOL     OW 4194   3.089   1.550   1.506
 1393SOL    HW1 4195   3.095   1.473   1.570
 1393SOL    HW2 4196   3.037   1.524   1.426
 1394SOL     OW 4197   2.183   0.943   0.242
 1394SOL    HW1 4198   2.265   0.982   0.200
 1394SOL    HW2 4199   2.156   0.861   0.193
 1395SOL     OW 4200   3.320   0.735   0.728
 1395SOL    HW1 4201   3.315   0.670   0.803
 1395SOL    HW2 4202   3.400   0.794   0.741
 1396SOL     OW 4203   2.323   1.266   1.727
 1396SOL    HW1 4204   2.273   1.267   1.641
 1396SOL    HW2 4205   2.260   1.248   1.803
 1397SOL     OW 4206   2.973   1.776   0.237
 1397SOL    HW1 4207   2.913   1.714   0.287
 1397SOL    HW2 4208   3.004   1.732   0.152
 1398SOL     OW 4209   2.064   0.285   1.498
 1398SOL    HW1 4210   1.984   0.345   1.485
 1398SOL    HW2 4211   2.054   0.236   1.584
 1399SOL     OW 4212   3.494   1.377   0.081
 1399SOL    HW1 4213   3.462   1.471   0.071
 1399SOL    HW2 4214   3.418   1.314   0.069
 1400SOL     OW 4215   2.326   1.743   0.323
 1400SOL    HW1 4216   2.359   1.782   0.409
 1400SOL    HW2 4217   2.402   1.736   0.258
 1401SOL     OW 4218   3.262   0.107   0.426
 1401SOL    HW1 4219   3.238   0.070   0.336
 1401SOL    HW2 4220   3.361   0.123   0.430
 1402SOL     OW 4221   2.111   1.785   1.241
 1402SOL    HW1 4222   2.168   1.720   1.291
 1402SOL    HW2 4223   2.095   1.752   1.148
 1403SOL     OW 4224   2.802   1.698   0.904
 1403SOL    HW1 4225   2.882   1.641   0.925
 1403SOL    HW2 4226   2.753   1.658   0.827
 1404SOL     OW 4227   2.244   0.700   0.480
 1404SOL    HW1 4228   2.289   0.610   0.477
 1404SOL    HW2 4229   2.150   0.689   0.513
 1405SOL     OW 4230   3.409   0.222   1.729
 1405SOL    HW1 4231   3.404   0.259   1.821
 1405SOL    HW2 4232   3.337   0.153   1.717
 1406SOL     OW 4233   2.476   0.122   0.117
 1406SOL    HW1 4234   2.574   0.100   0.124
 1406SOL    HW2 4235   2.445   0.105   0.024
 1407SOL     OW 4236   2.643   0.264   1.749
 1407SOL    HW1 4237   2.710   0.203   1.792
 1407SOL    HW2 4238   2.570   0.283   1.814
 1408SOL     OW 4239   2.750   1.514   1.195
 1408SOL    HW1 4240   2.727   1.489   1.101
 1408SOL    HW2 4241   2.811   1.445   1.234
 1409SOL     OW 4242   3.213   0.590   1.433
 1409SOL    HW1 4243   3.241   0.547   1.518
 1409SOL    HW2 4244   3.238   0.686   1.434
 1410SOL     OW 4245   2.665   1.402   0.924
 1410SOL    HW1 4246   2.755   1.416   0.882
 1410SOL    HW2 4247   2.594   1.404   0.853
 1411SOL     OW 4248   2.784   0.503   0.899
 1411SOL    HW1 4249   2.759   0.494   0.803
 1411SOL    HW2 4250   2.832   0.421   0.930
 1412SOL     OW 4251   2.401   0.064   0.512
 1412SOL    HW1 4252   2.320   0.065   0.570
 1412SOL    HW2 4253   2.404   0.147   0.457
 1413SOL     OW 4254   3.296   1.188   0.041
 1413SOL    HW1 4255   3.328   1.112   0.098
 1413SOL    HW2 4256   3.204   1.215   0.071
 1414SOL     OW 4257   2.159   0.035   0.171
 1414SOL    HW1 4258   2.208   0.119   0.150
 1414SOL    HW2 4259   2.221  -0.030   0.216
 1415SOL     OW 4260   2.797   0.236   0.480
 1415SOL    HW1 4261   2.749   0.277   0.402
 1415SOL    HW2 4262   2.896   0.234   0.461
 1416SOL     OW 4263   2.938   0.683   1.464
 1416SOL    HW1 4264   2.858   0.622   1.467
 1416SOL    HW2 4265   3.019   0.630   1.440
 1417SOL     OW 4266   3.089   1.570   0.793
 1417SOL    HW1 4267   3.110   1.644   0.728
 1417SOL    HW2 4268   3.157   1.570   0.866
 1418SOL     OW 4269   2.321   1.152   0.741
 1418SOL    HW1 4270   2.250   1.125   0.806
 1418SOL    HW2 4271   2.295   1.124   0.648
 1419SOL     OW 4272   3.133   1.797   0.591
 1419SOL    HW1 4273   3.177   1.861   0.527
 1419SOL    HW2 4274   3.083   1.849   0.661
 1420SOL     OW 4275   2.894   0.549   0.016
 1420SOL    HW1 4276   2.853   0.631  -0.023
 1420SOL    HW2 4277   2.958   0.575   0.089
 1421SOL     OW 4278   1.940   0.556   1.386
 1421SOL    HW1 4279   2.032   0.555   1.345
 1421SOL    HW2 4280   1.934   0.630   1.453
 1422SOL     OW 4281   2.423   0.222   1.147
 1422SOL    HW1 4282   2.461   0.138   1.184
 1422SOL    HW2 4283   2.335   0.241   1.191
 1423SOL     OW 4284   2.728   0.454   0.642
 1423SOL    HW1 4285   2.696   0.526   0.580
 1423SOL    HW2 4286   2.752   0.373   0.589
 1424SOL     OW 4287   2.879   0.039   0.753
 1424SOL    HW1 4288   2.807   0.044   0.684
 1424SOL    HW2 4289   2.855  -0.030   0.822
 1425SOL     OW 4290   3.291   1.173   0.867
 1425SOL    HW1 4291   3.236   1.089   0.860
 1425SOL    HW2 4292   3.317   1.202   0.775
 1426SOL     OW 4293   3.328   0.590   0.992
 1426SOL    HW1 4294   3.298   0.495   0.999
 1426SOL    HW2 4295   3.401   0.606   1.058
 1427SOL     OW 4296   3.719   0.833   0.377
 1427SOL    HW1 4297   3.761   0.769   0.441
 1427SOL    HW2 4298   3.681   0.782   0.299
 1428SOL     OW 4299   2.350   1.385   0.174
 1428SOL    HW1 4300   2.263   1.370   0.221
 1428SOL    HW2 4301   2.333   1.411   0.079
 1429SOL     OW 4302   3.526   1.280   0.657
 1429SOL    HW1 4303   3.625   1.288   0.671
 1429SOL    HW2 4304   3.481   1.364   0.688
 1430SOL     OW 4305   3.252   0.575   0.078
 1430SOL    HW1 4306   3.198   0.554   0.159
 1430SOL    HW2 4307   3.343   0.534   0.087
 1431SOL     OW 4308   2.389   0.256   0.328
 1431SOL    HW1 4309   2.416   0.197   0.253
 1431SOL    HW2 4310   2.389   0.351   0.297
 1432SOL     OW 4311   3.616   1.223   1.588
 1432SOL    HW1 4312   3.707   1.184   1.575
 1432SOL    HW2 4313   3.624   1.319   1.612
 1433SOL     OW 4314   2.926   1.347   1.340
 1433SOL    HW1 4315   2.846   1.324   1.395
 1433SOL    HW2 4316   3.009   1.321   1.389
 1434SOL     OW 4317   3.454   1.629   1.625
 1434SOL    HW1 4318   3.481   1.663   1.535
 1434SOL    HW2 4319   3.533   1.591   1.671
 1435SOL     OW 4320   2.973   1.195   1.100
 1435SOL    HW1 4321   2.933   1.239   1.181
 1435SOL    HW2 4322   2.932   1.232   1.017
 1436SOL     OW 4323   3.500   1.099   1.079
 1436SOL    HW1 4324   3.505   1.180   1.138
 1436SOL    HW2 4325   3.414   1.101   1.028
 1437SOL     OW 4326   2.777   0.089   1.402
 1437SOL    HW1 4327   2.802   0.069   1.307
 1437SOL    HW2 4328   2.849   0.145   1.444
 1438SOL     OW 4329   2.842   1.116   1.719
 1438SOL    HW1 4330   2.743   1.122   1.729
 1438SOL    HW2 4331   2.865   1.036   1.663
 1439SOL     OW 4332   2.567   1.050   0.368
 1439SOL    HW1 4333   2.553   1.057   0.467
 1439SOL    HW2 4334   2.651   0.999   0.350
 1440SOL     OW 4335   2.272   0.813   1.251
 1440SOL    HW1 4336   2.358   0.825   1.301
 1440SOL    HW2 4337   2.230   0.726   1.278
 1441SOL     OW 4338   3.136   0.386   1.262
 1441SOL    HW1 4339   3.157   0.460   1.326
 1441SOL    HW2 4340   3.047   0.403   1.219
 1442SOL     OW 4341   1.926   1.564   1.331
 1442SOL    HW1 4342   1.880   1.646   1.297
 1442SOL    HW2 4343   2.024   1.583   1.340
 1443SOL     OW 4344   2.229   1.100   0.501
 1443SOL    HW1 4345   2.222   1.183   0.445
 1443SOL    HW2 4346   2.233   1.020   0.441
 1444SOL     OW 4347   2.428   0.537   0.865
 1444SOL    HW1 4348   2.440   0.603   0.791
 1444SOL    HW2 4349   2.474   0.571   0.948
 1445SOL     OW 4350   3.114   1.348   0.388
 1445SOL    HW1 4351   3.164   1.425   0.428
 1445SOL    HW2 4352   3.019   1.350   0.420
 1446SOL     OW 4353   3.134   1.445   1.142
 1446SOL    HW1 4354   3.181   1.458   1.229
 1446SOL    HW2 4355   3.068   1.371   1.151
 1447SOL     OW 4356   3.444   0.639   0.472
 1447SOL    HW1 4357   3.413   0.700   0.545
 1447SOL    HW2 4358   3.494   0.691   0.403
 1448SOL     OW 4359   2.216   1.510   1.329
 1448SOL    HW1 4360   2.195   1.466   1.242
 1448SOL    HW2 4361   2.313   1.536   1.332
 1449SOL     OW 4362   2.264   0.751   1.598
 1449SOL    HW1 4363   2.332   0.806   1.551
 1449SOL    HW2 4364   2.304   0.663   1.625
 1450SOL     OW 4365   3.449   0.779   1.670
 1450SOL    HW1 4366   3.357   0.817   1.665
 1450SOL    HW2 4367   3.509   0.826   1.605
 1451SOL     OW 4368   2.875   0.105   1.770
 1451SOL    HW1 4369   2.881   0.190   1.718
 1451SOL    HW2 4370   2.907   0.029   1.713
 1452SOL     OW 4371   2.366   0.050   1.740
 1452SOL    HW1 4372   2.324  -0.007   1.670
 1452SOL    HW2 4373   2.300   0.119   1.772
 1453SOL     OW 4374   2.435   0.870   1.029
 1453SOL    HW1 4375   2.479   0.959   1.020
 1453SOL    HW2 4376   2.372   0.870   1.106
 1454SOL     OW 4377   3.222   0.862   1.045
 1454SOL    HW1 4378   3.147   0.862   0.979
 1454SOL    HW2 4379   3.259   0.770   1.054
 1455SOL     OW 4380   3.071   0.525   0.275
 1455SOL    HW1 4381   3.084   0.441   0.329
 1455SOL    HW2 4382   3.042   0.599   0.335
 1456SOL     OW 4383   2.169   0.213   1.231
 1456SOL    HW1 4384   2.146   0.250   1.321
 1456SOL    HW2 4385   2.139   0.118   1.225
 1457SOL     OW 4386   1.899   1.310   1.282
 1457SOL    HW1 4387   1.952   1.261   1.350
 1457SOL    HW2 4388   1.921   1.408   1.287
 1458SOL     OW 4389   2.594   0.634   1.064
 1458SOL    HW1 4390   2.653   0.608   0.988
 1458SOL    HW2 4391   2.566   0.730   1.053
 1459SOL     OW 4392   3.590   0.935   1.854
 1459SOL    HW1 4393   3.544   0.928   1.765
 1459SOL    HW2 4394   3.528   0.979   1.920
 1460SOL     OW 4395   2.169   0.063   0.618
 1460SOL    HW1 4396   2.158   0.157   0.651
 1460SOL    HW2 4397   2.164   0.000   0.695
 1461SOL     OW 4398   3.484   0.367   0.374
 1461SOL    HW1 4399   3.486   0.291   0.438
 1461SOL    HW2 4400   3.436   0.444   0.414
 1462SOL     OW 4401   2.885   0.766   0.966
 1462SOL    HW1 4402   2.900   0.787   1.062
 1462SOL    HW2 4403   2.855   0.671   0.957
 1463SOL     OW 4404   2.842   1.573   1.700
 1463SOL    HW1 4405   2.822   1.617   1.612
 1463SOL    HW2 4406   2.881   1.482   1.684
 1464SOL     OW 4407   3.721   1.518   1.605
 1464SOL    HW1 4408   3.735   1.545   1.510
 1464SOL    HW2 4409   3.804   1.540   1.658
 1465SOL     OW 4410   2.212   0.898   1.804
 1465SOL    HW1 4411   2.288   0.942   1.852
 1465SOL    HW2 4412   2.247   0.851   1.722
 1466SOL     OW 4413   3.402   0.274   0.125
 1466SOL    HW1 4414   3.341   0.199   0.148
 1466SOL    HW2 4415   3.424   0.326   0.208
 1467SOL     OW 4416   3.165   0.838   0.042
 1467SOL    HW1 4417   3.199   0.745   0.057
 1467SOL    HW2 4418   3.183   0.865  -0.053
 1468SOL     OW 4419   2.930   1.333   0.849
 1468SOL    HW1 4420   2.937   1.249   0.794
 1468SOL    HW2 4421   2.992   1.402   0.813
 1469SOL     OW 4422   2.181   0.810   0.949
 1469SOL    HW1 4423   2.274   0.846   0.954
 1469SOL    HW2 4424   2.175   0.725   1.001
 1470SOL     OW 4425   2.201   0.509   1.006
 1470SOL    HW1 4426   2.149   0.426   0.989
 1470SOL    HW2 4427   2.278   0.514   0.942
 1471SOL     OW 4428   3.000   0.380   1.678
 1471SOL    HW1 4429   2.955   0.443   1.742
 1471SOL    HW2 4430   3.093   0.411   1.661
 1472SOL     OW 4431   3.022   0.207   1.477
 1472SOL    HW1 4432   3.022   0.271   1.554
 1472SOL    HW2 4433   3.050   0.255   1.394
 1473SOL     OW 4434   1.870   1.326   0.200
 1473SOL    HW1 4435   1.777   1.347   0.169
 1473SOL    HW2 4436   1.880   1.227   0.213
 1474SOL     OW 4437   1.950   1.801   0.927
 1474SOL    HW1 4438   1.908   1.715   0.900
 1474SOL    HW2 4439   2.044   1.804   0.893
 1475SOL     OW 4440   2.366   1.568   0.910
 1475SOL    HW1 4441   2.432   1.642   0.919
 1475SOL    HW2 4442   2.410   1.489   0.868
 1476SOL     OW 4443   2.864   0.796   1.238
 1476SOL    HW1 4444   2.905   0.764   1.324
 1476SOL    HW2 4445   2.768   0.769   1.235
 1477SOL     OW 4446   1.902   0.544   1.114
 1477SOL    HW1 4447   1.987   0.511   1.073
 1477SOL    HW2 4448   1.915   0.559   1.212
 1478SOL     OW 4449   2.051   0.520   1.722
 1478SOL    HW1 4450   2.110   0.480   1.652
 1478SOL    HW2 4451   1.993   0.591   1.681
 1479SOL     OW 4452   3.231   0.950   1.660
 1479SOL    HW1 4453   3.270   1.039   1.680
 1479SOL    HW2 4454   3.241   0.930   1.563
 1480SOL     OW 4455   2.677   0.572   0.325
 1480SOL    HW1 4456   2.684   0.483   0.279
 1480SOL    HW2 4457   2.583   0.606   0.317
 1481SOL     OW 4458   3.519   0.604   1.206
 1481SOL    HW1 4459   3.481   0.535   1.268
 1481SOL    HW2 4460   3.601   0.568   1.162
 1482SOL     OW 4461   2.114   1.564   1.744
 1482SOL    HW1 4462   2.084   1.621   1.820
 1482SOL    HW2 4463   2.107   1.467   1.770
 1483SOL     OW 4464   2.533   0.464   1.269
 1483SOL    HW1 4465   2.499   0.375   1.239
 1483SOL    HW2 4466   2.559   0.518   1.189
 1484SOL     OW 4467   2.792   1.678   1.465
 1484SOL    HW1 4468   2.768   1.660   1.370
 1484SOL    HW2 4469   2.822   1.772   1.475
 1485SOL     OW 4470   2.335   0.500   0.191
 1485SOL    HW1 4471   2.396   0.580   0.195
 1485SOL    HW2 4472   2.240   0.531   0.198
 1486SOL     OW 4473   2.021   1.137   1.466
 1486SOL    HW1 4474   2.043   1.076   1.542
 1486SOL    HW2 4475   2.031   1.088   1.380
 1487SOL     OW 4476   3.209   1.059   1.234
 1487SOL    HW1 4477   3.233   0.996   1.160
 1487SOL    HW2 4478   3.119   1.099   1.216
 1488SOL     OW 4479   3.164   0.855   0.309
 1488SOL    HW1 4480   3.078   0.824   0.351
 1488SOL    HW2 4481   3.160   0.841   0.210
 1489SOL     OW 4482   3.621   1.747   1.154
 1489SOL    HW1 4483   3.682   1.777   1.081
 1489SOL    HW2 4484   3.583   1.658   1.132
 1490SOL     OW 4485   3.114   1.731   1.128
 1490SOL    HW1 4486   3.198   1.736   1.074
 1490SOL    HW2 4487   3.091   1.635   1.146
 1491SOL     OW 4488   1.945   1.258   1.022
 1491SOL    HW1 4489   1.940   1.257   1.122
 1491SOL    HW2 4490   1.862   1.217   0.984
 1492SOL     OW 4491   2.550   1.662   1.716
 1492SOL    HW1 4492   2.494   1.743   1.725
 1492SOL    HW2 4493   2.602   1.666   1.630
 1493SOL     OW 4494   2.765   0.086   0.133
 1493SOL    HW1 4495   2.816   0.087   0.047
 1493SOL    HW2 4496   2.821   0.044   0.204
 1494SOL     OW 4497   3.588   0.135   0.523
 1494SOL    HW1 4498   3.661   0.118   0.456
 1494SOL    HW2 4499   3.557   0.048   0.561
 1495SOL     OW 4500   3.250   1.573   0.477
 1495SOL    HW1 4501   3.317   1.585   0.403
 1495SOL    HW2 4502   3.210   1.662   0.500
 1496SOL     OW 4503   1.992   1.794   1.851
 1496SOL    HW1 4504   1.951   1.720   1.904
 1496SOL    HW2 4505   2.056   1.845   1.909
 1497SOL     OW 4506   3.142   0.927   0.672
 1497SOL    HW1 4507   3.202   0.846   0.674
 1497SOL    HW2 4508   3.182   0.996   0.612
 1498SOL     OW 4509   2.692   1.273   1.422
 1498SOL    HW1 4510   2.687   1.306   1.517
 1498SOL    HW2 4511   2.606   1.292   1.376
 1499SOL     OW 4512   2.534   1.616   0.154
 1499SOL    HW1 4513   2.543   1.626   0.055
 1499SOL    HW2 4514   2.494   1.527   0.175
 1500SOL     OW 4515   3.512   1.720   1.394
 1500SOL    HW1 4516   3.565   1.730   1.310
 1500SOL    HW2 4517   3.485   1.810   1.428
 1501SOL     OW 4518   3.703   0.175   0.963
 1501SOL    HW1 4519   3.742   0.090   0.927
 1501SOL    HW2 4520   3.605   0.177   0.944
 1502SOL     OW 4521   2.125   0.326   0.720
 1502SOL    HW1 4522   2.046   0.377   0.686
 1502SOL    HW2 4523   2.116   0.311   0.818
 1503SOL     OW 4524   3.056   1.612   0.031
 1503SOL    HW1 4525   3.062   1.519   0.068
 1503SOL    HW2 4526   2.997   1.612  -0.049
 1504SOL     OW 4527   2.684   1.002   1.372
 1504SOL    HW1 4528   2.724   1.001   1.280
 1504SOL    HW2 4529   2.694   1.094   1.412
 1505SOL     OW 4530   2.778   0.910   0.291
 1505SOL    HW1 4531   2.841   0.948   0.223
 1505SOL    HW2 4532   2.818   0.827   0.330
 1506SOL     OW 4533   3.366   1.607   0.044
 1506SOL    HW1 4534   3.274   1.644   0.051
 1506SOL    HW2 4535   3.404   1.627  -0.046
 1507SOL     OW 4536   2.234   1.288   1.490
 1507SOL    HW1 4537   2.221   1.381   1.456
 1507SOL    HW2 4538   2.150   1.236   1.477
 1508SOL     OW 4539   3.476   1.292   1.289
 1508SOL    HW1 4540   3.536   1.295   1.369
 1508SOL    HW2 4541   3.401   1.356   1.302
 1509SOL     OW 4542   2.901   1.098   0.696
 1509SOL    HW1 4543   2.831   1.051   0.750
 1509SOL    HW2 4544   2.960   1.030   0.653
 1510SOL     OW 4545   2.876   0.236   0.971
 1510SOL    HW1 4546   2.868   0.200   0.878
 1510SOL    HW2 4547   2.874   0.160   1.036
 1511SOL     OW 4548   2.452   1.487   0.491
 1511SOL    HW1 4549   2.494   1.429   0.421
 1511SOL    HW2 4550   2.408   1.566   0.447
 1512SOL     OW 4551   3.571   0.385   1.381
 1512SOL    HW1 4552   3.644   0.454   1.385
 1512SOL    HW2 4553   3.599   0.310   1.322
 1513SOL     OW 4554   2.117   1.348   0.290
 1513SOL    HW1 4555   2.021   1.349   0.263
 1513SOL    HW2 4556   2.129   1.401   0.374
 1514SOL     OW 4557   1.967   1.013   1.726
 1514SOL    HW1 4558   1.890   0.980   1.780
 1514SOL    HW2 4559   2.052   0.983   1.768
 1515SOL     OW 4560   2.534   0.203   1.489
 1515SOL    HW1 4561   2.624   0.187   1.449
 1515SOL    HW2 4562   2.542   0.208   1.588
 1516SOL     OW 4563   3.302   0.856   1.398
 1516SOL    HW1 4564   3.245   0.908   1.335
 1516SOL    HW2 4565   3.398   0.868   1.374
 1517SOL     OW 4566   3.045   1.335   0.119
 1517SOL    HW1 4567   2.946   1.324   0.121
 1517SOL    HW2 4568   3.079   1.350   0.212
 1518SOL     OW 4569   2.475   0.842   1.431
 1518SOL    HW1 4570   2.531   0.923   1.414
 1518SOL    HW2 4571   2.534   0.762   1.434
 1519SOL     OW 4572   3.355   1.767   0.959
 1519SOL    HW1 4573   3.388   1.831   0.890
 1519SOL    HW2 4574   3.421   1.761   1.034
 1520SOL     OW 4575   2.578   0.565   1.708
 1520SOL    HW1 4576   2.597   0.630   1.782
 1520SOL    HW2 4577   2.638   0.485   1.717
 1521SOL     OW 4578   3.312   1.220   1.633
 1521SOL    HW1 4579   3.303   1.210   1.732
 1521SOL    HW2 4580   3.408   1.213   1.607
 1522SOL     OW 4581   2.252   1.741   1.560
 1522SOL    HW1 4582   2.161   1.782   1.558
 1522SOL    HW2 4583   2.245   1.647   1.592
 1523SOL     OW 4584   3.536   0.883   1.254
 1523SOL    HW1 4585   3.509   0.794   1.217
 1523SOL    HW2 4586   3.537   0.951   1.181
 1524SOL     OW 4587   3.087   0.325   0.449
 1524SOL    HW1 4588   3.152   0.251   0.438
 1524SOL    HW2 4589   3.107   0.375   0.533
 1525SOL     OW 4590   2.456   0.745   0.652
 1525SOL    HW1 4591   2.506   0.830   0.633
 1525SOL    HW2 4592   2.368   0.747   0.604
 1526SOL     OW 4593   3.639   0.342   1.642
 1526SOL    HW1 4594   3.622   0.373   1.548
 1526SOL    HW2 4595   3.555   0.305   1.680
 1527SOL     OW 4596   3.592   0.934   1.517
 1527SOL    HW1 4597   3.630   1.025   1.532
 1527SOL    HW2 4598   3.584   0.917   1.418
 1528SOL     OW 4599   2.721   1.374   0.016
 1528SOL    HW1 4600   2.675   1.389   0.104
 1528SOL    HW2 4601   2.765   1.459  -0.014
 1529SOL     OW 4602   2.523   1.790   0.953
 1529SOL    HW1 4603   2.477   1.878   0.940
 1529SOL    HW2 4604   2.622   1.802   0.946
 1530SOL     OW 4605   2.721   0.956   0.861
 1530SOL    HW1 4606   2.775   0.887   0.909
 1530SOL    HW2 4607   2.689   1.025   0.927
 1531SOL     OW 4608   2.945   0.984   0.087
 1531SOL    HW1 4609   2.922   1.037   0.005
 1531SOL    HW2 4610   3.026   0.928   0.068
 1532SOL     OW 4611   3.723   1.569   0.851
 1532SOL    HW1 4612   3.652   1.557   0.781
 1532SOL    HW2 4613   3.724   1.490   0.911
 1533SOL     OW 4614   2.083   1.314   1.844
 1533SOL    HW1 4615   2.018   1.241   1.823
 1533SOL    HW2 4616   2.087   1.328   1.942
 1534SOL     OW 4617   1.941   1.240   0.653
 1534SOL    HW1 4618   1.940   1.193   0.741
 1534SOL    HW2 4619   2.023   1.212   0.602
 1535SOL     OW 4620   2.534   1.391   1.624
 1535SOL    HW1 4621   2.456   1.341   1.662
 1535SOL    HW2 4622   2.531   1.486   1.655
 1536SOL     OW 4623   3.686   0.192   1.227
 1536SOL    HW1 4624   3.682   0.102   1.271
 1536SOL    HW2 4625   3.689   0.181   1.128
 1537SOL     OW 4626   2.290   0.424   0.520
 1537SOL    HW1 4627   2.320   0.352   0.458
 1537SOL    HW2 4628   2.251   0.384   0.603
 1538SOL     OW 4629   3.567   1.487   1.104
 1538SOL    HW1 4630   3.474   1.462   1.077
 1538SOL    HW2 4631   3.593   1.437   1.186
 1539SOL     OW 4632   2.179   0.547   1.280
 1539SOL    HW1 4633   2.217   0.488   1.352
 1539SOL    HW2 4634   2.219   0.521   1.192
 1540SOL     OW 4635   2.674   1.586   0.687
 1540SOL    HW1 4636   2.706   1.596   0.593
 1540SOL    HW2 4637   2.595   1.524   0.689
 1541SOL     OW 4638   3.286   0.214   1.112
 1541SOL    HW1 4639   3.338   0.149   1.167
 1541SOL    HW2 4640   3.237   0.277   1.173
 1542SOL     OW 4641   2.863   0.034   1.154
 1542SOL    HW1 4642   2.800  -0.038   1.123
 1542SOL    HW2 4643   2.956  -0.002   1.154
 1543SOL     OW 4644   2.632   1.330   0.301
 1543SOL    HW1 4645   2.586   1.243   0.318
 1543SOL    HW2 4646   2.723   1.327   0.342
 1544SOL     OW 4647   2.480   1.567   1.284
 1544SOL    HW1 4648   2.475   1.649   1.341
 1544SOL    HW2 4649   2.569   1.564   1.239
 1545SOL     OW 4650   3.214   0.052   0.168
 1545SOL    HW1 4651   3.249   0.011   0.084
 1545SOL    HW2 4652   3.124   0.014   0.188
 1546SOL     OW 4653   3.162   0.453   0.691
 1546SOL    HW1 4654   3.103   0.533   0.695
 1546SOL    HW2 4655   3.177   0.418   0.784
 1547SOL     OW 4656   3.455   0.221   0.882
 1547SOL    HW1 4657   3.371   0.220   0.936
 1547SOL    HW2 4658   3.457   0.304   0.826
 1548SOL     OW 4659   1.901   1.077   0.300
 1548SOL    HW1 4660   2.000   1.066   0.291
 1548SOL    HW2 4661   1.861   0.991   0.332
 1549SOL     OW 4662   2.737   1.646   0.337
 1549SOL    HW1 4663   2.660   1.611   0.283
 1549SOL    HW2 4664   2.705   1.717   0.399
 1550SOL     OW 4665   2.092   0.628   1.975
 1550SOL    HW1 4666   1.999   0.626   2.012
 1550SOL    HW2 4667   2.093   0.589   1.883
 1551SOL     OW 4668   2.087   0.275   2.858
 1551SOL    HW1 4669   2.122   0.258   2.950
 1551SOL    HW2 4670   1.999   0.230   2.846
 1552SOL     OW 4671   1.881   0.368   2.509
 1552SOL    HW1 4672   1.799   0.411   2.548
 1552SOL    HW2 4673   1.853   0.295   2.446
 1553SOL     OW 4674   2.431   1.275   3.027
 1553SOL    HW1 4675   2.338   1.268   2.990
 1553SOL    HW2 4676   2.442   1.364   3.071
 1554SOL     OW 4677   3.417   1.511   2.565
 1554SOL    HW1 4678   3.360   1.495   2.646
 1554SOL    HW2 4679   3.358   1.521   2.485
 1555SOL     OW 4680   2.997   0.703   2.579
 1555SOL    HW1 4681   3.054   0.781   2.554
 1555SOL    HW2 4682   2.937   0.729   2.655
 1556SOL     OW 4683   3.617   0.607   2.093
 1556SOL    HW1 4684   3.605   0.594   1.994
 1556SOL    HW2 4685   3.587   0.526   2.142
 1557SOL     OW 4686   2.630   1.144   2.885
 1557SOL    HW1 4687   2.552   1.161   2.945
 1557SOL    HW2 4688   2.664   1.231   2.849
 1558SOL     OW 4689   2.712   0.798   3.685
 1558SOL    HW1 4690   2.708   0.874   3.750
 1558SOL    HW2 4691   2.734   0.834   3.594
 1559SOL     OW 4692   2.547   1.012   2.527
 1559SOL    HW1 4693   2.616   0.996   2.597
 1559SOL    HW2 4694   2.474   1.069   2.565
 1560SOL     OW 4695   2.548   1.161   3.665
 1560SOL    HW1 4696   2.608   1.240   3.679
 1560SOL    HW2 4697   2.462   1.192   3.624
 1561SOL     OW 4698   2.197   1.435   2.923
 1561SOL    HW1 4699   2.119   1.404   2.870
 1561SOL    HW2 4700   2.255   1.493   2.866
 1562SOL     OW 4701   3.322   1.505   3.201
 1562SOL    HW1 4702   3.346   1.599   3.227
 1562SOL    HW2 4703   3.306   1.451   3.283
 1563SOL     OW 4704   2.300   0.392   3.361
 1563SOL    HW1 4705   2.382   0.336   3.370
 1563SOL    HW2 4706   2.219   0.334   3.365
 1564SOL     OW 4707   3.465   0.447   2.599
 1564SOL    HW1 4708   3.391   0.493   2.549
 1564SOL    HW2 4709   3.516   0.515   2.652
 1565SOL     OW 4710   2.093   1.713   2.345
 1565SOL    HW1 4711   2.127   1.790   2.399
 1565SOL    HW2 4712   2.137   1.713   2.255
 1566SOL     OW 4713   2.989   1.341   3.552
 1566SOL    HW1 4714   3.036   1.341   3.640
 1566SOL    HW2 4715   2.941   1.254   3.541
 1567SOL     OW 4716   2.092   1.434   2.400
 1567SOL    HW1 4717   2.066   1.530   2.400
 1567SOL    HW2 4718   2.021   1.380   2.445
 1568SOL     OW 4719   2.102   1.091   2.748
 1568SOL    HW1 4720   2.116   1.007   2.800
 1568SOL    HW2 4721   2.047   1.155   2.803
 1569SOL     OW 4722   2.482   1.786   3.301
 1569SOL    HW1 4723   2.390   1.769   3.336
 1569SOL    HW2 4724   2.510   1.878   3.327
 1570SOL     OW 4725   2.468   0.964   1.985
 1570SOL    HW1 4726   2.475   1.048   1.931
 1570SOL    HW2 4727   2.514   0.977   2.073
 1571SOL     OW 4728   3.456   0.114   3.342
 1571SOL    HW1 4729   3.438   0.181   3.270
 1571SOL    HW2 4730   3.453   0.160   3.431
 1572SOL     OW 4731   1.984   0.643   2.425
 1572SOL    HW1 4732   1.939   0.555   2.442
 1572SOL    HW2 4733   1.983   0.697   2.509
 1573SOL     OW 4734   3.704   1.767   2.221
 1573SOL    HW1 4735   3.758   1.738   2.301
 1573SOL    HW2 4736   3.734   1.857   2.192
 1574SOL     OW 4737   1.889   1.596   1.979
 1574SOL    HW1 4738   1.870   1.500   2.000
 1574SOL    HW2 4739   1.856   1.654   2.054
 1575SOL     OW 4740   3.551   0.922   2.474
 1575SOL    HW1 4741   3.646   0.893   2.482
 1575SOL    HW2 4742   3.543   0.987   2.399
 1576SOL     OW 4743   3.503   1.108   2.294
 1576SOL    HW1 4744   3.589   1.110   2.242
 1576SOL    HW2 4745   3.517   1.155   2.382
 1577SOL     OW 4746   1.975   0.737   3.459
 1577SOL    HW1 4747   2.063   0.724   3.504
 1577SOL    HW2 4748   1.962   0.834   3.437
 1578SOL     OW 4749   2.475   1.365   2.588
 1578SOL    HW1 4750   2.426   1.278   2.597
 1578SOL    HW2 4751   2.452   1.408   2.501
 1579SOL     OW 4752   3.155   1.228   3.285
 1579SOL    HW1 4753   3.192   1.155   3.227
 1579SOL    HW2 4754   3.207   1.233   3.370
 1580SOL     OW 4755   2.671   0.004   2.364
 1580SOL    HW1 4756   2.711   0.095   2.355
 1580SOL    HW2 4757   2.571   0.012   2.370
 1581SOL     OW 4758   2.059   0.976   3.126
 1581SOL    HW1 4759   2.148   0.931   3.112
 1581SOL    HW2 4760   1.986   0.911   3.107
 1582SOL     OW 4761   3.387   0.999   2.052
 1582SOL    HW1 4762   3.324   0.923   2.065
 1582SOL    HW2 4763   3.435   1.017   2.138
 1583SOL     OW 4764   3.049   1.792   3.478
 1583SOL    HW1 4765   3.073   1.852   3.402
 1583SOL    HW2 4766   3.056   1.697   3.448
 1584SOL     OW 4767   2.179   0.251   3.663
 1584SOL    HW1 4768   2.250   0.322   3.669
 1584SOL    HW2 4769   2.091   0.290   3.691
 1585SOL     OW 4770   3.328   1.417   2.815
 1585SOL    HW1 4771   3.269   1.423   2.895
 1585SOL    HW2 4772   3.313   1.329   2.769
 1586SOL     OW 4773   3.529   1.714   2.434
 1586SOL    HW1 4774   3.488   1.691   2.346
 1586SOL    HW2 4775   3.511   1.640   2.499
 1587SOL     OW 4776   2.460   0.729   2.132
 1587SOL    HW1 4777   2.484   0.798   2.064
 1587SOL    HW2 4778   2.382   0.762   2.186
 1588SOL     OW 4779   3.143   0.345   2.806
 1588SOL    HW1 4780   3.057   0.295   2.793
 1588SOL    HW2 4781   3.205   0.291   2.862
 1589SOL     OW 4782   3.438   1.662   2.169
 1589SOL    HW1 4783   3.527   1.708   2.172
 1589SOL    HW2 4784   3.417   1.638   2.074
 1590SOL     OW 4785   2.669   0.605   3.327
 1590SOL    HW1 4786   2.622   0.602   3.416
 1590SOL    HW2 4787   2.618   0.550   3.261
 1591SOL     OW 4788   3.256   0.469   3.536
 1591SOL    HW1 4789   3.236   0.512   3.624
 1591SOL    HW2 4790   3.334   0.407   3.545
 1592SOL     OW 4791   2.835   0.890   3.434
 1592SOL    HW1 4792   2.881   0.806   3.405
 1592SOL    HW2 4793   2.779   0.924   3.359
 1593SOL     OW 4794   2.853   0.410   3.104
 1593SOL    HW1 4795   2.776   0.444   3.158
 1593SOL    HW2 4796   2.819   0.359   3.025
 1594SOL     OW 4797   2.903   0.701   2.291
 1594SOL    HW1 4798   2.929   0.697   2.387
 1594SOL    HW2 4799   2.818   0.650   2.277
 1595SOL     OW 4800   1.938   0.811   2.651
 1595SOL    HW1 4801   2.037   0.799   2.660
 1595SOL    HW2 4802   1.914   0.906   2.672
 1596SOL     OW 4803   1.992   1.821   3.433
 1596SOL    HW1 4804   1.982   1.806   3.532
 1596SOL    HW2 4805   1.906   1.857   3.397
 1597SOL     OW 4806   2.727   0.348   2.057
 1597SOL    HW1 4807   2.786   0.411   2.008
 1597SOL    HW2 4808   2.746   0.254   2.028
 1598SOL     OW 4809   3.581   0.585   3.693
 1598SOL    HW1 4810   3.555   0.674   3.657
 1598SOL    HW2 4811   3.579   0.517   3.620
 1599SOL     OW 4812   3.224   1.144   2.407
 1599SOL    HW1 4813   3.307   1.115   2.359
 1599SOL    HW2 4814   3.175   1.211   2.351
 1600SOL     OW 4815   2.412   0.196   2.747
 1600SOL    HW1 4816   2.407   0.191   2.847
 1600SOL    HW2 4817   2.414   0.292   2.718
 1601SOL     OW 4818   2.870   1.456   2.339
 1601SOL    HW1 4819   2.824   1.528   2.287
 1601SOL    HW2 4820   2.866   1.476   2.437
 1602SOL     OW 4821   2.213   1.801   2.715
 1602SOL    HW1 4822   2.263   1.715   2.721
 1602SOL    HW2 4823   2.278   1.878   2.712
 1603SOL     OW 4824   3.657   1.066   2.735
 1603SOL    HW1 4825   3.595   1.051   2.659
 1603SOL    HW2 4826   3.605   1.077   2.820
 1604SOL     OW 4827   3.089   1.550   3.368
 1604SOL    HW1 4828   3.095   1.473   3.432
 1604SOL    HW2 4829   3.037   1.524   3.288
 1605SOL     OW 4830   2.183   0.943   2.104
 1605SOL    HW1 4831   2.265   0.982   2.062
 1605SOL    HW2 4832   2.156   0.861   2.055
 1606SOL     OW 4833   3.320   0.735   2.590
 1606SOL    HW1 4834   3.315   0.670   2.665
 1606SOL    HW2 4835   3.400   0.794   2.603
 1607SOL     OW 4836   2.323   1.266   3.589
 1607SOL    HW1 4837   2.273   1.267   3.503
 1607SOL    HW2 4838   2.260   1.248   3.665
 1608SOL     OW 4839   2.973   1.776   2.099
 1608SOL    HW1 4840   2.913   1.714   2.149
 1608SOL    HW2 4841   3.004   1.732   2.014
 1609SOL     OW 4842   2.064   0.285   3.360
 1609SOL    HW1 4843   1.984   0.345   3.347
 1609SOL    HW2 4844   2.054   0.236   3.446
 1610SOL     OW 4845   3.494   1.377   1.943
 1610SOL    HW1 4846   3.462   1.471   1.933
 1610SOL    HW2 4847   3.418   1.314   1.931
 1611SOL     OW 4848   2.326   1.743   2.185
 1611SOL    HW1 4849   2.359   1.782   2.271
 1611SOL    HW2 4850   2.402   1.736   2.120
 1612SOL     OW 4851   3.262   0.107   2.288
 1612SOL    HW1 4852   3.238   0.070   2.198
 1612SOL    HW2 4853   3.361   0.123   2.292
 1613SOL     OW 4854   2.111   1.785   3.103
 1613SOL    HW1 4855   2.168   1.720   3.153
 1613SOL    HW2 4856   2.095   1.752   3.010
 1614SOL     OW 4857   2.802   1.698   2.766
 1614SOL    HW1 4858   2.882   1.641   2.787
 1614SOL    HW2 4859   2.753   1.658   2.689
 1615SOL     OW 4860   2.244   0.700   2.342
 1615SOL    HW1 4861   2.289   0.610   2.339
 1615SOL    HW2 4862   2.150   0.689   2.375
 1616SOL     OW 4863   3.409   0.222   3.591
 1616SOL    HW1 4864   3.404   0.259   3.683
 1616SOL    HW2 4865   3.337   0.153   3.579
 1617SOL     OW 4866   2.476   0.122   1.979
 1617SOL    HW1 4867   2.574   0.100   1.986
 1617SOL    HW2 4868   2.445   0.105   1.886
 1618SOL     OW 4869   2.643   0.264   3.611
 1618SOL    HW1 4870   2.710   0.203   3.654
 1618SOL    HW2 4871   2.570   0.283   3.676
 1619SOL     OW 4872   2.750   1.514   3.057
 1619SOL    HW1 4873   2.727   1.489   2.963
 1619SOL    HW2 4874   2.811   1.445   3.096
 1620SOL     OW 4875   3.213   0.590   3.295
 1620SOL    HW1 4876   3.241   0.547   3.380
 1620SOL    HW2 4877   3.238   0.686   3.296
 1621SOL     OW 4878   2.665   1.402   2.786
 1621SOL    HW1 4879   2.755   1.416   2.744
 1621SOL    HW2 4880   2.594   1.404   2.715
 1622SOL     OW 4881   2.784   0.503   2.761
 1622SOL    HW1 4882   2.759   0.494   2.665
 1622SOL    HW2 4883   2.832   0.421   2.792
 1623SOL     OW 4884   2.401   0.064   2.374
 1623SOL    HW1 4885   2.320   0.065   2.432
 1623SOL    HW2 4886   2.404   0.147   2.319
 1624SOL     OW 4887   3.296   1.188   1.903
 1624SOL    HW1 4888   3.328   1.112   1.960
 1624SOL    HW2 4889   3.204   1.215   1.933
 1625SOL     OW 4890   2.159   0.035   2.033
 1625SOL    HW1 4891   2.208   0.119   2.012
 1625SOL    HW2 4892   2.221  -0.030   2.078
 1626SOL     OW 4893   2.797   0.236   2.342
 1626SOL    HW1 4894   2.749   0.277   2.264
 1626SOL    HW2 4895   2.896   0.234   2.323
 1627SOL     OW 4896   2.938   0.683   3.326
 1627SOL    HW1 4897   2.858   0.622   3.329
 1627SOL    HW2 4898   3.019   0.630   3.302
 1628SOL     OW 4899   3.089   1.570   2.655
 1628SOL    HW1 4900   3.110   1.644   2.590
 1628SOL    HW2 4901   3.157   1.570   2.728
 1629SOL     OW 4902   2.321   1.152   2.603
 1629SOL    HW1 4903   2.250   1.125   2.668
 1629SOL    HW2 4904   2.295   1.124   2.510
 1630SOL     OW 4905   3.133   1.797   2.453
 1630SOL    HW1 4906   3.177   1.861   2.389
 1630SOL    HW2 4907   3.083   1.849   2.523
 1631SOL     OW 4908   2.894   0.549   1.878
 1631SOL    HW1 4909   2.853   0.631   1.839
 1631SOL    HW2 4910   2.958   0.575   1.951
 1632SOL     OW 4911   1.940   0.556   3.248
 1632SOL    HW1 4912   2.032   0.555   3.207
 1632SOL    HW2 4913   1.934   0.630   3.315
 1633SOL     OW 4914   2.423   0.222   3.009
 1633SOL    HW1 4915   2.461   0.138   3.046
 1633SOL    HW2 4916   2.335   0.241   3.053
 1634SOL     OW 4917   2.728   0.454   2.504
 1634SOL    HW1 4918   2.696   0.526   2.442
 1634SOL    HW2 4919   2.752   0.373   2.451
 1635SOL     OW 4920   2.879   0.039   2.615
 1635SOL    HW1 4921   2.807   0.044   2.546
 1635SOL    HW2 4922   2.855  -0.030   2.684
 1636SOL     OW 4923   3.291   1.173   2.729
 1636SOL    HW1 4924   3.236   1.089   2.722
 1636SOL    HW2 4925   3.317   1.202   2.637
 1637SOL     OW 4926   3.328   0.590   2.854
 1637SOL    HW1 4927   3.298   0.495   2.861
 1637SOL    HW2 4928   3.401   0.606   2.920
 1638SOL     OW 4929   3.719   0.833   2.239
 1638SOL    HW1 4930   3.761   0.769   2.303
 1638SOL    HW2 4931   3.681   0.782   2.161
 1639SOL     OW 4932   2.350   1.385   2.036
 1639SOL    HW1 4933   2.263   1.370   2.083
 1639SOL    HW2 4934   2.333   1.411   1.941
 1640SOL     OW 4935   3.526   1.280   2.519
 1640SOL    HW1 4936   3.625   1.288   2.533
 1640SOL    HW2 4937   3.481   1.364   2.550
 1641SOL     OW 4938   3.252   0.575   1.940
 1641SOL    HW1 4939   3.198   0.554   2.021
 1641SOL    HW2 4940   3.343   0.534   1.949
 1642SOL     OW 4941   2.389   0.256   2.190
 1642SOL    HW1 4942   2.416   0.197   2.115
 1642SOL    HW2 4943   2.389   0.351   2.159
 1643SOL     OW 4944   3.616   1.223   3.450
 1643SOL    HW1 4945   3.707   1.184   3.437
 1643SOL    HW2 4946   3.624   1.319   3.474
 1644SOL     OW 4947   2.926   1.347   3.202
 1644SOL    HW1 4948   2.846   1.324   3.257
 1644SOL    HW2 4949   3.009   1.321   3.251
 1645SOL     OW 4950   3.454   1.629   3.487
 1645SOL    HW1 4951   3.481   1.663   3.397
 1645SOL    HW2 4952   3.533   1.591   3.533
 1646SOL     OW 4953   2.973   1.195   2.962
 1646SOL    HW1 4954   2.933   1.239   3.043
 1646SOL    HW2 4955   2.932   1.232   2.879
 1647SOL     OW 4956   3.500   1.099   2.941
 1647SOL    HW1 4957   3.505   1.180   3.000
 1647SOL    HW2 4958   3.414   1.101   2.890
 1648SOL     OW 4959   2.777   0.089   3.264
 1648SOL    HW1 4960   2.802   0.069   3.169
 1648SOL    HW2 4961   2.849   0.145   3.306
 1649SOL     OW 4962   2.842   1.116   3.581
 1649SOL    HW1 4963   2.743   1.122   3.591
 1649SOL    HW2 4964   2.865   1.036   3.525
 1650SOL     OW 4965   2.567   1.050   2.230
 1650SOL    HW1 4966   2.553   1.057   2.329
 1650SOL    HW2 4967   2.651   0.999   2.212
 1651SOL     OW 4968   2.272   0.813   3.113
 1651SOL    HW1 4969   2.358   0.825   3.163
 1651SOL    HW2 4970   2.230   0.726   3.140
 1652SOL     OW 4971   3.136   0.386   3.124
 1652SOL    HW1 4972   3.157   0.460   3.188
 1652SOL    HW2 4973   3.047   0.403   3.081
 1653SOL     OW 4974   1.926   1.564   3.193
 1653SOL    HW1 4975   1.880   1.646   3.159
 1653SOL    HW2 4976   2.024   1.583   3.202
 1654SOL     OW 4977   2.229   1.100   2.363
 1654SOL    HW1 4978   2.222   1.183   2.307
 1654SOL    HW2 4979   2.233   1.020   2.303
 1655SOL     OW 4980   2.428   0.537   2.727
 1655SOL    HW1 4981   2.440   0.603   2.653
 1655SOL    HW2 4982   2.474   0.571   2.810
 1656SOL     OW 4983   3.114   1.348   2.250
 1656SOL    HW1 4984   3.164   1.425   2.290
 1656SOL    HW2 4985   3.019   1.350   2.282
 1657SOL     OW 4986   3.134   1.445   3.004
 1657SOL    HW1 4987   3.181   1.458   3.091
 1657SOL    HW2 4988   3.068   1.371   3.013
 1658SOL     OW 4989   3.444   0.639   2.334
 1658SOL    HW1 4990   3.413   0.700   2.407
 1658SOL    HW2 4991   3.494   0.691   2.265
 1659SOL     OW 4992   2.216   1.510   3.191
 1659SOL    HW1 4993   2.195   1.466   3.104
 1659SOL    HW2 4994   2.313   1.536   3.194
 1660SOL     OW 4995   2.264   0.751   3.460
 1660SOL    HW1 4996   2.332   0.806   3.413
 1660SOL    HW2 4997   2.304   0.663   3.487
 1661SOL     OW 4998   3.449   0.779   3.532
 1661SOL    HW1 4999   3.357   0.817   3.527
 1661SOL    HW2 5000   3.509   0.826   3.467
 1662SOL     OW 5001   2.875   0.105   3.632
 1662SOL    HW1 5002   2.881   0.190   3.580
 1662SOL    HW2 5003   2.907   0.029   3.575
 1663SOL     OW 5004   2.366   0.050   3.602
 1663SOL    HW1 5005   2.324  -0.007   3.532
 1663SOL    HW2 5006   2.300   0.119   3.634
 1664SOL     OW 5007   2.435   0.870   2.891
 1664SOL    HW1 5008   2.479   0.959   2.882
 1664SOL    HW2 5009   2.372   0.870   2.968
 1665SOL     OW 5010   3.222   0.862   2.907
 1665SOL    HW1 5011   3.147   0.862   2.841
 1665SOL    HW2 5012   3.259   0.770   2.916
 1666SOL     OW 5013   3.071   0.525   2.137
 1666SOL    HW1 5014   3.084   0.441   2.191
 1666SOL    HW2 5015   3.042   0.599   2.197
 1667SOL     OW 5016   2.169   0.213   3.093
 1667SOL    HW1 5017   2.146   0.250   3.183
 1667SOL    HW2 5018   2.139   0.118   3.087
 1668SOL     OW 5019   1.899   1.310   3.144
 1668SOL    HW1 5020   1.952   1.261   3.212
 1668SOL    HW2 5021   1.921   1.408   3.149
 1669SOL     OW 5022   2.594   0.634   2.926
 1669SOL    HW1 5023   2.653   0.608   2.850
 1669SOL    HW2 5024   2.566   0.730   2.915
 1670SOL     OW 5025   3.590   0.935   3.716
 1670SOL    HW1 5026   3.544   0.928   3.627
 1670SOL    HW2 5027   3.528   0.979   3.782
 1671SOL     OW 5028   2.169   0.063   2.480
 1671SOL    HW1 5029   2.158   0.157   2.513
 1671SOL    HW2 5030   2.164   0.000   2.557
 1672SOL     OW 5031   3.484   0.367   2.236
 1672SOL    HW1 5032   3.486   0.291   2.300
 1672SOL    HW2 5033   3.436   0.444   2.276
 1673SOL     OW 5034   2.885   0.766   2.828
 1673SOL    HW1 5035   2.900   0.787   2.924
 1673SOL    HW2 5036   2.855   0.671   2.819
 1674SOL     OW 5037   2.842   1.573   3.562
 1674SOL    HW1 5038   2.822   1.617   3.474
 1674SOL    HW2 5039   2.881   1.482   3.546
 1675SOL     OW 5040   3.721   1.518   3.467
 1675SOL    HW1 5041   3.735   1.545   3.372
 1675SOL    HW2 5042   3.804   1.540   3.520
 1676SOL     OW 5043   2.212   0.898   3.666
 1676SOL    HW1 5044   2.288   0.942   3.714
 1676SOL    HW2 5045   2.247   0.851   3.584
 1677SOL     OW 5046   3.402   0.274   1.987
 1677SOL    HW1 5047   3.341   0.199   2.010
 1677SOL    HW2 5048   3.424   0.326   2.070
 1678SOL     OW 5049   3.165   0.838   1.904
 1678SOL    HW1 5050   3.199   0.745   1.919
 1678SOL    HW2 5051   3.183   0.865   1.809
 1679SOL     OW 5052   2.930   1.333   2.711
 1679SOL    HW1 5053   2.937   1.249   2.656
 1679SOL    HW2 5054   2.992   1.402   2.675
 1680SOL     OW 5055   2.181   0.810   2.811
 1680SOL    HW1 5056   2.274   0.846   2.816
 1680SOL    HW2 5057   2.175   0.725   2.863
 1681SOL     OW 5058   2.201   0.509   2.868
 1681SOL    HW1 5059   2.149   0.426   2.851
 1681SOL    HW2 5060   2.278   0.514   2.804
 1682SOL     OW 5061   3.000   0.380   3.540
 1682SOL    HW1 5062   2.955   0.443   3.604
 1682SOL    HW2 5063   3.093   0.411   3.523
 1683SOL     OW 5064   3.022   0.207   3.339
 1683SOL    HW1 5065   3.022   0.271   3.416
 1683SOL    HW2 5066   3.050   0.255   3.256
 1684SOL     OW 5067   1.870   1.326   2.062
 1684SOL    HW1 5068   1.777   1.347   2.031
 1684SOL    HW2 5069   1.880   1.227   2.075
 1685SOL     OW 5070   1.950   1.801   2.789
 1685SOL    HW1 5071   1.908   1.715   2.762
 1685SOL    HW2 5072   2.044   1.804   2.755
 1686SOL     OW 5073   2.366   1.568   2.772
 1686SOL    HW1 5074   2.432   1.642   2.781
 1686SOL    HW2 5075   2.410   1.489   2.730
 1687SOL     OW 5076   2.864   0.796   3.100
 1687SOL    HW1 5077   2.905   0.764   3.186
 1687SOL    HW2 5078   2.768   0.769   3.097
 1688SOL     OW 5079   1.902   0.544   2.976
 1688SOL    HW1 5080   1.987   0.511   2.935
 1688SOL    HW2 5081   1.915   0.559   3.074
 1689SOL     OW 5082   2.051   0.520   3.584
 1689SOL    HW1 5083   2.110   0.480   3.514
 1689SOL    HW2 5084   1.993   0.591   3.543
 1690SOL     OW 5085   3.231   0.950   3.522
 1690SOL    HW1 5086   3.270   1.039   3.542
 1690SOL    HW2 5087   3.241   0.930   3.425
 1691SOL     OW 5088   2.677   0.572   2.187
 1691SOL    HW1 5089   2.684   0.483   2.141
 1691SOL    HW2 5090   2.583   0.606   2.179
 1692SOL     OW 5091   3.519   0.604   3.068
 1692SOL    HW1 5092   3.481   0.535   3.130
 1692SOL    HW2 5093   3.601   0.568   3.024
 1693SOL     OW 5094   2.114   1.564   3.606
 1693SOL    HW1 5095   2.084   1.621   3.682
 1693SOL    HW2 5096   2.107   1.467   3.632
 1694SOL     OW 5097   2.533   0.464   3.131
 1694SOL    HW1 5098   2.499   0.375   3.101
 1694SOL    HW2 5099   2.559   0.518   3.051
 1695SOL     OW 5100   2.792   1.678   3.327
 1695SOL    HW1 5101   2.768   1.660   3.232
 1695SOL    HW2 5102   2.822   1.772   3.337
 1696SOL     OW 5103   2.335   0.500   2.053
 1696SOL    HW1 5104   2.396   0.580   2.057
 1696SOL    HW2 5105   2.240   0.531   2.060
 1697SOL     OW 5106   2.021   1.137   3.328
 1697SOL    HW1 5107   2.043   1.076   3.404
 1697SOL    HW2 5108   2.031   1.088   3.242
 1698SOL     OW 5109   3.209   1.059   3.096
 1698SOL    HW1 5110   3.233   0.996   3.022
 1698SOL    HW2 5111   3.119   1.099   3.078
 1699SOL     OW 5112   3.164   0.855   2.171
 1699SOL    HW1 5113   3.078   0.824   2.213
 1699SOL    HW2 5114   3.160   0.841   2.072
 1700SOL     OW 5115   3.621   1.747   3.016
 1700SOL    HW1 5116   3.682   1.777   2.943
 1700SOL    HW2 5117   3.583   1.658   2.994
 1701SOL     OW 5118   3.114   1.731   2.990
 1701SOL    HW1 5119   3.198   1.736   2.936
 1701SOL    HW2 5120   3.091   1.635   3.008
 1702SOL     OW 5121   1.945   1.258   2.884
 1702SOL    HW1 5122   1.940   1.257   2.984
 1702SOL    HW2 5123   1.862   1.217   2.846
 1703SOL     OW 5124   2.550   1.662   3.578
 1703SOL    HW1 5125   2.494   1.743   3.587
 1703SOL    HW2 5126   2.602   1.666   3.492
 1704SOL     OW 5127   3.588   0.135   2.385
 1704SOL    HW1 5128   3.661   0.118   2.318
 1704SOL    HW2 5129   3.557   0.048   2.423
 1705SOL     OW 5130   3.250   1.573   2.339
 1705SOL    HW1 5131   3.317   1.585   2.265
 1705SOL    HW2 5132   3.210   1.662   2.362
 1706SOL     OW 5133   1.992   1.794   3.713
 1706SOL    HW1 5134   1.951   1.720   3.766
 1706SOL    HW2 5135   2.056   1.845   3.771
 1707SOL     OW 5136   3.142   0.927   2.534
 1707SOL    HW1 5137   3.202   0.846   2.536
 1707SOL    HW2 5138   3.182   0.996   2.474
 1708SOL     OW 5139   2.692   1.273   3.284
 1708SOL    HW1 5140   2.687   1.306   3.379
 1708SOL    HW2 5141   2.606   1.292   3.238
 1709SOL     OW 5142   2.534   1.616   2.016
 1709SOL    HW1 5143   2.543   1.626   1.917
 1709SOL    HW2 5144   2.494   1.527   2.037
 1710SOL     OW 5145   3.512   1.720   3.256
 1710SOL    HW1 5146   3.565   1.730   3.172
 1710SOL    HW2 5147   3.485   1.810   3.290
 1711SOL     OW 5148   3.703   0.175   2.825
 1711SOL    HW1 5149   3.742   0.090   2.789
 1711SOL    HW2 5150   3.605   0.177   2.806
 1712SOL     OW 5151   2.125   0.326   2.582
 1712SOL    HW1 5152   2.046   0.377   2.548
 1712SOL    HW2 5153   2.116   0.311   2.680
 1713SOL     OW 5154   3.056   1.612   1.893
 1713SOL    HW1 5155   3.062   1.519   1.930
 1713SOL    HW2 5156   2.997   1.612   1.813
 1714SOL     OW 5157   2.684   1.002   3.234
 1714SOL    HW1 5158   2.724   1.001   3.142
 1714SOL    HW2 5159   2.694   1.094   3.274
 1715SOL     OW 5160   2.778   0.910   2.153
 1715SOL    HW1 5161   2.841   0.948   2.085
 1715SOL    HW2 5162   2.818   0.827   2.192
 1716SOL     OW 5163   3.366   1.607   1.906
 1716SOL    HW1 5164   3.274   1.644   1.913
 1716SOL    HW2 5165   3.404   1.627   1.816
 1717SOL     OW 5166   2.234   1.288   3.352
 1717SOL    HW1 5167   2.221   1.381   3.318
 1717SOL    HW2 5168   2.150   1.236   3.339
 1718SOL     OW 5169   3.476   1.292   3.151
 1718SOL    HW1 5170   3.536   1.295   3.231
 1718SOL    HW2 5171   3.401   1.356   3.164
 1719SOL     OW 5172   2.901   1.098   2.558
 1719SOL    HW1 5173   2.831   1.051   2.612
 1719SOL    HW2 5174   2.960   1.030   2.515
 1720SOL     OW 5175   2.876   0.236   2.833
 1720SOL    HW1 5176   2.868   0.200   2.740
 1720SOL    HW2 5177   2.874   0.160   2.898
 1721SOL     OW 5178   2.452   1.487   2.353
 1721SOL    HW1 5179   2.494   1.429   2.283
 1721SOL    HW2 5180   2.408   1.566   2.309
 1722SOL     OW 5181   3.571   0.385   3.243
 1722SOL    HW1 5182   3.644   0.454   3.247
 1722SOL    HW2 5183   3.599   0.310   3.184
 1723SOL     OW 5184   2.117   1.348   2.152
 1723SOL    HW1 5185   2.021   1.349   2.125
 1723SOL    HW2 5186   2.129   1.401   2.236
 1724SOL     OW 5187   1.967   1.013   3.588
 1724SOL    HW1 5188   1.890   0.980   3.642
 1724SOL    HW2 5189   2.052   0.983   3.630
 1725SOL     OW 5190   2.534   0.203   3.351
 1725SOL    HW1 5191   2.624   0.187   3.311
 1725SOL    HW2 5192   2.542   0.208   3.450
 1726SOL     OW 5193   1.937   0.345   1.895
 1726SOL    HW1 5194   1.845   0.317   1.866
 1726SOL    HW2 5195   1.968   0.422   1.839
 1727SOL     OW 5196   3.302   0.856   3.260
 1727SOL    HW1 5197   3.245   0.908   3.197
 1727SOL    HW2 5198   3.398   0.868   3.236
 1728SOL     OW 5199   1.934   0.166   2.180
 1728SOL    HW1 5200   1.917   0.249   2.126
 1728SOL    HW2 5201   2.024   0.129   2.158
 1729SOL     OW 5202   3.045   1.335   1.981
 1729SOL    HW1 5203   2.946   1.324   1.983
 1729SOL    HW2 5204   3.079   1.350   2.074
 1730SOL     OW 5205   2.475   0.842   3.293
 1730SOL    HW1 5206   2.531   0.923   3.276
 1730SOL    HW2 5207   2.534   0.762   3.296
 1731SOL     OW 5208   3.355   1.767   2.821
 1731SOL    HW1 5209   3.388   1.831   2.752
 1731SOL    HW2 5210   3.421   1.761   2.896
 1732SOL     OW 5211   2.578   0.565   3.570
 1732SOL    HW1 5212   2.597   0.630   3.644
 1732SOL    HW2 5213   2.638   0.485   3.579
 1733SOL     OW 5214   3.312   1.220   3.495
 1733SOL    HW1 5215   3.303   1.210   3.594
 1733SOL    HW2 5216   3.408   1.213   3.469
 1734SOL     OW 5217   2.252   1.741   3.422
 1734SOL    HW1 5218   2.161   1.782   3.420
 1734SOL    HW2 5219   2.245   1.647   3.454
 1735SOL     OW 5220   3.536   0.883   3.116
 1735SOL    HW1 5221   3.509   0.794   3.079
 1735SOL    HW2 5222   3.537   0.951   3.043
 1736SOL     OW 5223   3.087   0.325   2.311
 1736SOL    HW1 5224   3.152   0.251   2.300
 1736SOL    HW2 5225   3.107   0.375   2.395
 1737SOL     OW 5226   2.456   0.745   2.514
 1737SOL    HW1 5227   2.506   0.830   2.495
 1737SOL    HW2 5228   2.368   0.747   2.466
 1738SOL     OW 5229   3.639   0.342   3.504
 1738SOL    HW1 5230   3.622   0.373   3.410
 1738SOL    HW2 5231   3.555   0.305   3.542
 1739SOL     OW 5232   3.592   0.934   3.379
 1739SOL    HW1 5233   3.630   1.025   3.394
 1739SOL    HW2 5234   3.584   0.917   3.280
 1740SOL     OW 5235   2.721   1.374   1.878
 1740SOL    HW1 5236   2.675   1.389   1.966
 1740SOL    HW2 5237   2.765   1.459   1.848
 1741SOL     OW 5238   2.523   1.790   2.815
 1741SOL    HW1 5239   2.477   1.878   2.802
 1741SOL    HW2 5240   2.622   1.802   2.808
 1742SOL     OW 5241   2.721   0.956   2.723
 1742SOL    HW1 5242   2.775   0.887   2.771
 1742SOL    HW2 5243   2.689   1.025   2.789
 1743SOL     OW 5244   2.945   0.984   1.949
 1743SOL    HW1 5245   2.922   1.037   1.867
 1743SOL    HW2 5246   3.026   0.928   1.930
 1744SOL     OW 5247   3.723   1.569   2.713
 1744SOL    HW1 5248   3.652   1.557   2.643
 1744SOL    HW2 5249   3.724   1.490   2.773
 1745SOL     OW 5250   2.083   1.314   3.706
 1745SOL    HW1 5251   2.018   1.241   3.685
 1745SOL    HW2 5252   2.087   1.328   3.804
 1746SOL     OW 5253   1.941   1.240   2.515
 1746SOL    HW1 5254   1.940   1.193   2.603
 1746SOL    HW2 5255   2.023   1.212   2.464
 1747SOL     OW 5256   2.534   1.391   3.486
 1747SOL    HW1 5257   2.456   1.341   3.524
 1747SOL    HW2 5258   2.531   1.486   3.517
 1748SOL     OW 5259   3.686   0.192   3.089
 1748SOL    HW1 5260   3.682   0.102   3.133
 1748SOL    HW2 5261   3.689   0.181   2.990
 1749SOL     OW 5262   2.290   0.424   2.382
 1749SOL    HW1 5263   2.320   0.352   2.320
 1749SOL    HW2 5264   2.251   0.384   2.465
 1750SOL     OW 5265   3.567   1.487   2.966
 1750SOL    HW1 5266   3.474   1.462   2.939
 1750SOL    HW2 5267   3.593   1.437   3.048
 1751SOL     OW 5268   2.179   0.547   3.142
 1751SOL    HW1 5269   2.217   0.488   3.214
 1751SOL    HW2 5270   2.219   0.521   3.054
 1752SOL     OW 5271   2.674   1.586   2.549
 1752SOL    HW1 5272   2.706   1.596   2.455
 1752SOL    HW2 5273   2.595   1.524   2.551
 1753SOL     OW 5274   3.286   0.214   2.974
 1753SOL    HW1 5275   3.338   0.149   3.029
 1753SOL    HW2 5276   3.237   0.277   3.035
 1754SOL     OW 5277   2.863   0.034   3.016
 1754SOL    HW1 5278   2.800  -0.038   2.985
 1754SOL    HW2 5279   2.956  -0.002   3.016
 1755SOL     OW 5280   2.632   1.330   2.163
 1755SOL    HW1 5281   2.586   1.243   2.180
 1755SOL    HW2 5282   2.723   1.327   2.204
 1756SOL     OW 5283   2.480   1.567   3.146
 1756SOL    HW1 5284   2.475   1.649   3.203
 1756SOL    HW2 5285   2.569   1.564   3.101
 1757SOL     OW 5286   3.214   0.052   2.030
 1757SOL    HW1 5287   3.249   0.011   1.946
 1757SOL    HW2 5288   3.124   0.014   2.050
 1758SOL     OW 5289   3.162   0.453   2.553
 1758SOL    HW1 5290   3.103   0.533   2.557
 1758SOL    HW2 5291   3.177   0.418   2.646
 1759SOL     OW 5292   3.455   0.221   2.744
 1759SOL    HW1 5293   3.371   0.220   2.798
 1759SOL    HW2 5294   3.457   0.304   2.688
 1760SOL     OW 5295   1.901   1.077   2.162
 1760SOL    HW1 5296   2.000   1.066   2.153
 1760SOL    HW2 5297   1.861   0.991   2.194
 1761SOL     OW 5298   2.737   1.646   2.199
 1761SOL    HW1 5299   2.660   1.611   2.145
 1761SOL    HW2 5300   2.705   1.717   2.261
 1762SOL     OW 5301   2.092   0.628   3.837
 1762SOL    HW1 5302   1.999   0.626   3.874
 1762SOL    HW2 5303   2.093   0.589   3.745
 1763SOL     OW 5304   2.087   0.275   4.720
 1763SOL    HW1 5305   2.122   0.258   4.812
 1763SOL    HW2 5306   1.999   0.230   4.708
 1764SOL     OW 5307   1.881   0.368   4.371
 1764SOL    HW1 5308   1.799   0.411   4.410
 1764SOL    HW2 5309   1.853   0.295   4.308
 1765SOL     OW 5310   3.417   1.511   4.427
 1765SOL    HW1 5311   3.360   1.495   4.508
 1765SOL    HW2 5312   3.358   1.521   4.347
 1766SOL     OW 5313   2.997   0.703   4.441
 1766SOL    HW1 5314   3.054   0.781   4.416
 1766SOL    HW2 5315   2.937   0.729   4.517
 1767SOL     OW 5316   3.617   0.607   3.955
 1767SOL    HW1 5317   3.605   0.594   3.856
 1767SOL    HW2 5318   3.587   0.526   4.004
 1768SOL     OW 5319   2.547   1.012   4.389
 1768SOL    HW1 5320   2.616   0.996   4.459
 1768SOL    HW2 5321   2.474   1.069   4.427
 1769SOL     OW 5322   3.465   0.447   4.461
 1769SOL    HW1 5323   3.391   0.493   4.411
 1769SOL    HW2 5324   3.516   0.515   4.514
 1770SOL     OW 5325   2.093   1.713   4.207
 1770SOL    HW1 5326   2.127   1.790   4.261
 1770SOL    HW2 5327   2.137   1.713   4.117
 1771SOL     OW 5328   2.092   1.434   4.262
 1771SOL    HW1 5329   2.066   1.530   4.262
 1771SOL    HW2 5330   2.021   1.380   4.307
 1772SOL     OW 5331   2.102   1.091   4.610
 1772SOL    HW1 5332   2.116   1.007   4.662
 1772SOL    HW2 5333   2.047   1.155   4.665
 1773SOL     OW 5334   2.468   0.964   3.847
 1773SOL    HW1 5335   2.475   1.048   3.793
 1773SOL    HW2 5336   2.514   0.977   3.935
 1774SOL     OW 5337   1.984   0.643   4.287
 1774SOL    HW1 5338   1.939   0.555   4.304
 1774SOL    HW2 5339   1.983   0.697   4.371
 1775SOL     OW 5340   3.704   1.767   4.083
 1775SOL    HW1 5341   3.758   1.738   4.163
 1775SOL    HW2 5342   3.734   1.857   4.054
 1776SOL     OW 5343   1.889   1.596   3.841
 1776SOL    HW1 5344   1.870   1.500   3.862
 1776SOL    HW2 5345   1.856   1.654   3.916
 1777SOL     OW 5346   3.551   0.922   4.336
 1777SOL    HW1 5347   3.646   0.893   4.344
 1777SOL    HW2 5348   3.543   0.987   4.261
 1778SOL     OW 5349   3.503   1.108   4.156
 1778SOL    HW1 5350   3.589   1.110   4.104
 1778SOL    HW2 5351   3.517   1.155   4.244
 1779SOL     OW 5352   2.475   1.365   4.450
 1779SOL    HW1 5353   2.426   1.278   4.459
 1779SOL    HW2 5354   2.452   1.408   4.363
 1780SOL     OW 5355   2.671   0.004   4.226
 1780SOL    HW1 5356   2.711   0.095   4.217
 1780SOL    HW2 5357   2.571   0.012   4.232
 1781SOL     OW 5358   3.387   0.999   3.914
 1781SOL    HW1 5359   3.324   0.923   3.927
 1781SOL    HW2 5360   3.435   1.017   4.000
 1782SOL     OW 5361   3.328   1.417   4.677
 1782SOL    HW1 5362   3.269   1.423   4.757
 1782SOL    HW2 5363   3.313   1.329   4.631
 1783SOL     OW 5364   3.529   1.714   4.296
 1783SOL    HW1 5365   3.488   1.691   4.208
 1783SOL    HW2 5366   3.511   1.640   4.361
 1784SOL     OW 5367   2.460   0.729   3.994
 1784SOL    HW1 5368   2.484   0.798   3.926
 1784SOL    HW2 5369   2.382   0.762   4.048
 1785SOL     OW 5370   3.143   0.345   4.668
 1785SOL    HW1 5371   3.057   0.295   4.655
 1785SOL    HW2 5372   3.205   0.291   4.724
 1786SOL     OW 5373   3.438   1.662   4.031
 1786SOL    HW1 5374   3.527   1.708   4.034
 1786SOL    HW2 5375   3.417   1.638   3.936
 1787SOL     OW 5376   2.903   0.701   4.153
 1787SOL    HW1 5377   2.929   0.697   4.249
 1787SOL    HW2 5378   2.818   0.650   4.139
 1788SOL     OW 5379   1.938   0.811   4.513
 1788SOL    HW1 5380   2.037   0.799   4.522
 1788SOL    HW2 5381   1.914   0.906   4.534
 1789SOL     OW 5382   2.727   0.348   3.919
 1789SOL    HW1 5383   2.786   0.411   3.870
 1789SOL    HW2 5384   2.746   0.254   3.890
 1790SOL     OW 5385   3.224   1.144   4.269
 1790SOL    HW1 5386   3.307   1.115   4.221
 1790SOL    HW2 5387   3.175   1.211   4.213
 1791SOL     OW 5388   2.870   1.456   4.201
 1791SOL    HW1 5389   2.824   1.528   4.149
 1791SOL    HW2 5390   2.866   1.476   4.299
 1792SOL     OW 5391   2.213   1.801   4.577
 1792SOL    HW1 5392   2.263   1.715   4.583
 1792SOL    HW2 5393   2.278   1.878   4.574
 1793SOL     OW 5394   3.657   1.066   4.597
 1793SOL    HW1 5395   3.595   1.051   4.521
 1793SOL    HW2 5396   3.605   1.077   4.682
 1794SOL     OW 5397   2.183   0.943   3.966
 1794SOL    HW1 5398   2.265   0.982   3.924
 1794SOL    HW2 5399   2.156   0.861   3.917
 1795SOL     OW 5400   3.320   0.735   4.452
 1795SOL    HW1 5401   3.315   0.670   4.527
 1795SOL    HW2 5402   3.400   0.794   4.465
 1796SOL     OW 5403   2.973   1.776   3.961
 1796SOL    HW1 5404   2.913   1.714   4.011
 1796SOL    HW2 5405   3.004   1.732   3.876
 1797SOL     OW 5406   3.494   1.377   3.805
 1797SOL    HW1 5407   3.462   1.471   3.795
 1797SOL    HW2 5408   3.418   1.314   3.793
 1798SOL     OW 5409   2.326   1.743   4.047
 1798SOL    HW1 5410   2.359   1.782   4.133
 1798SOL    HW2 5411   2.402   1.736   3.982
 1799SOL     OW 5412   3.262   0.107   4.150
 1799SOL    HW1 5413   3.238   0.070   4.060
 1799SOL    HW2 5414   3.361   0.123   4.154
 1800SOL     OW 5415   2.244   0.700   4.204
 1800SOL    HW1 5416   2.289   0.610   4.201
 1800SOL    HW2 5417   2.150   0.689   4.237
 1801SOL     OW 5418   2.476   0.122   3.841
 1801SOL    HW1 5419   2.574   0.100   3.848
 1801SOL    HW2 5420   2.445   0.105   3.748
 1802SOL     OW 5421   2.401   0.064   4.236
 1802SOL    HW1 5422   2.320   0.065   4.294
 1802SOL    HW2 5423   2.404   0.147   4.181
 1803SOL     OW 5424   3.296   1.188   3.765
 1803SOL    HW1 5425   3.328   1.112   3.822
 1803SOL    HW2 5426   3.204   1.215   3.795
 1804SOL     OW 5427   2.159   0.035   3.895
 1804SOL    HW1 5428   2.208   0.119   3.874
 1804SOL    HW2 5429   2.221  -0.030   3.940
 1805SOL     OW 5430   2.797   0.236   4.204
 1805SOL    HW1 5431   2.749   0.277   4.126
 1805SOL    HW2 5432   2.896   0.234   4.185
 1806SOL     OW 5433   3.089   1.570   4.517
 1806SOL    HW1 5434   3.110   1.644   4.452
 1806SOL    HW2 5435   3.157   1.570   4.590
 1807SOL     OW 5436   2.321   1.152   4.465
 1807SOL    HW1 5437   2.250   1.125   4.530
 1807SOL    HW2 5438   2.295   1.124   4.372
 1808SOL     OW 5439   3.133   1.797   4.315
 1808SOL    HW1 5440   3.177   1.861   4.251
 1808SOL    HW2 5441   3.083   1.849   4.385
 1809SOL     OW 5442   2.894   0.549   3.740
 1809SOL    HW1 5443   2.853   0.631   3.701
 1809SOL    HW2 5444   2.958   0.575   3.813
 1810SOL     OW 5445   2.728   0.454   4.366
 1810SOL    HW1 5446   2.696   0.526   4.304
 1810SOL    HW2 5447   2.752   0.373   4.313
 1811SOL     OW 5448   2.879   0.039   4.477
 1811SOL    HW1 5449   2.807   0.044   4.408
 1811SOL    HW2 5450   2.855  -0.030   4.546
 1812SOL     OW 5451   3.719   0.833   4.101
 1812SOL    HW1 5452   3.761   0.769   4.165
 1812SOL    HW2 5453   3.681   0.782   4.023
 1813SOL     OW 5454   2.350   1.385   3.898
 1813SOL    HW1 5455   2.263   1.370   3.945
 1813SOL    HW2 5456   2.333   1.411   3.803
 1814SOL     OW 5457   3.526   1.280   4.381
 1814SOL    HW1 5458   3.625   1.288   4.395
 1814SOL    HW2 5459   3.481   1.364   4.412
 1815SOL     OW 5460   3.252   0.575   3.802
 1815SOL    HW1 5461   3.198   0.554   3.883
 1815SOL    HW2 5462   3.343   0.534   3.811
 1816SOL     OW 5463   2.389   0.256   4.052
 1816SOL    HW1 5464   2.416   0.197   3.977
 1816SOL    HW2 5465   2.389   0.351   4.021
 1817SOL     OW 5466   2.567   1.050   4.092
 1817SOL    HW1 5467   2.553   1.057   4.191
 1817SOL    HW2 5468   2.651   0.999   4.074
 1818SOL     OW 5469   2.229   1.100   4.225
 1818SOL    HW1 5470   2.222   1.183   4.169
 1818SOL    HW2 5471   2.233   1.020   4.165
 1819SOL     OW 5472   2.428   0.537   4.589
 1819SOL    HW1 5473   2.440   0.603   4.515
 1819SOL    HW2 5474   2.474   0.571   4.672
 1820SOL     OW 5475   3.114   1.348   4.112
 1820SOL    HW1 5476   3.164   1.425   4.152
 1820SOL    HW2 5477   3.019   1.350   4.144
 1821SOL     OW 5478   3.444   0.639   4.196
 1821SOL    HW1 5479   3.413   0.700   4.269
 1821SOL    HW2 5480   3.494   0.691   4.127
 1822SOL     OW 5481   3.071   0.525   3.999
 1822SOL    HW1 5482   3.084   0.441   4.053
 1822SOL    HW2 5483   3.042   0.599   4.059
 1823SOL     OW 5484   2.594   0.634   4.788
 1823SOL    HW1 5485   2.653   0.608   4.712
 1823SOL    HW2 5486   2.566   0.730   4.777
 1824SOL     OW 5487   2.169   0.063   4.342
 1824SOL    HW1 5488   2.158   0.157   4.375
 1824SOL    HW2 5489   2.164   0.000   4.419
 1825SOL     OW 5490   3.484   0.367   4.098
 1825SOL    HW1 5491   3.486   0.291   4.162
 1825SOL    HW2 5492   3.436   0.444   4.138
 1826SOL     OW 5493   3.402   0.274   3.849
 1826SOL    HW1 5494   3.341   0.199   3.872
 1826SOL    HW2 5495   3.424   0.326   3.932
 1827SOL     OW 5496   3.165   0.838   3.766
 1827SOL    HW1 5497   3.199   0.745   3.781
 1827SOL    HW2 5498   3.183   0.865   3.671
 1828SOL     OW 5499   2.930   1.333   4.573
 1828SOL    HW1 5500   2.937   1.249   4.518
 1828SOL    HW2 5501   2.992   1.402   4.537
 1829SOL     OW 5502   2.181   0.810   4.673
 1829SOL    HW1 5503   2.274   0.846   4.678
 1829SOL    HW2 5504   2.175   0.725   4.725
 1830SOL     OW 5505   1.870   1.326   3.924
 1830SOL    HW1 5506   1.777   1.347   3.893
 1830SOL    HW2 5507   1.880   1.227   3.937
 1831SOL     OW 5508   1.950   1.801   4.651
 1831SOL    HW1 5509   1.908   1.715   4.624
 1831SOL    HW2 5510   2.044   1.804   4.617
 1832SOL     OW 5511   2.366   1.568   4.634
 1832SOL    HW1 5512   2.432   1.642   4.643
 1832SOL    HW2 5513   2.410   1.489   4.592
 1833SOL     OW 5514   2.677   0.572   4.049
 1833SOL    HW1 5515   2.684   0.483   4.003
 1833SOL    HW2 5516   2.583   0.606   4.041
 1834SOL     OW 5517   2.335   0.500   3.915
 1834SOL    HW1 5518   2.396   0.580   3.919
 1834SOL    HW2 5519   2.240   0.531   3.922
 1835SOL     OW 5520   3.164   0.855   4.033
 1835SOL    HW1 5521   3.078   0.824   4.075
 1835SOL    HW2 5522   3.160   0.841   3.934
 1836SOL     OW 5523   3.621   1.747   4.878
 1836SOL    HW1 5524   3.682   1.777   4.805
 1836SOL    HW2 5525   3.583   1.658   4.856
 1837SOL     OW 5526   3.588   0.135   4.247
 1837SOL    HW1 5527   3.661   0.118   4.180
 1837SOL    HW2 5528   3.557   0.048   4.285
 1838SOL     OW 5529   3.250   1.573   4.201
 1838SOL    HW1 5530   3.317   1.585   4.127
 1838SOL    HW2 5531   3.210   1.662   4.224
 1839SOL     OW 5532   3.142   0.927   4.396
 1839SOL    HW1 5533   3.202   0.846   4.398
 1839SOL    HW2 5534   3.182   0.996   4.336
 1840SOL     OW 5535   2.534   1.616   3.878
 1840SOL    HW1 5536   2.543   1.626   3.779
 1840SOL    HW2 5537   2.494   1.527   3.899
 1841SOL     OW 5538   3.703   0.175   4.687
 1841SOL    HW1 5539   3.742   0.090   4.651
 1841SOL    HW2 5540   3.605   0.177   4.668
 1842SOL     OW 5541   2.125   0.326   4.444
 1842SOL    HW1 5542   2.046   0.377   4.410
 1842SOL    HW2 5543   2.116   0.311   4.542
 1843SOL     OW 5544   3.056   1.612   3.755
 1843SOL    HW1 5545   3.062   1.519   3.792
 1843SOL    HW2 5546   2.997   1.612   3.675
 1844SOL     OW 5547   2.778   0.910   4.015
 1844SOL    HW1 5548   2.841   0.948   3.947
 1844SOL    HW2 5549   2.818   0.827   4.054
 1845SOL     OW 5550   3.366   1.607   3.768
 1845SOL    HW1 5551   3.274   1.644   3.775
 1845SOL    HW2 5552   3.404   1.627   3.678
 1846SOL     OW 5553   2.901   1.098   4.420
 1846SOL    HW1 5554   2.831   1.051   4.474
 1846SOL    HW2 5555   2.960   1.030   4.377
 1847SOL     OW 5556   2.452   1.487   4.215
 1847SOL    HW1 5557   2.494   1.429   4.145
 1847SOL    HW2 5558   2.408   1.566   4.171
 1848SOL     OW 5559   2.117   1.348   4.014
 1848SOL    HW1 5560   2.021   1.349   3.987
 1848SOL    HW2 5561   2.129   1.401   4.098
 1849SOL     OW 5562   1.937   0.345   3.757
 1849SOL    HW1 5563   1.845   0.317   3.728
 1849SOL    HW2 5564   1.968   0.422   3.701
 1850SOL     OW 5565   1.934   0.166   4.042
 1850SOL    HW1 5566   1.917   0.249   3.988
 1850SOL    HW2 5567   2.024   0.129   4.020
 1851SOL     OW 5568   3.045   1.335   3.843
 1851SOL    HW1 5569   2.946   1.324   3.845
 1851SOL    HW2 5570   3.079   1.350   3.936
 1852SOL     OW 5571   3.536   0.883   4.978
 1852SOL    HW1 5572   3.509   0.794   4.941
 1852SOL    HW2 5573   3.537   0.951   4.905
 1853SOL     OW 5574   3.087   0.325   4.173
 1853SOL    HW1 5575   3.152   0.251   4.162
 1853SOL    HW2 5576   3.107   0.375   4.257
 1854SOL     OW 5577   2.456   0.745   4.376
 1854SOL    HW1 5578   2.506   0.830   4.357
 1854SOL    HW2 5579   2.368   0.747   4.328
 1855SOL     OW 5580   2.721   1.374   3.740
 1855SOL    HW1 5581   2.675   1.389   3.828
 1855SOL    HW2 5582   2.765   1.459   3.710
 1856SOL     OW 5583   2.523   1.790   4.677
 1856SOL    HW1 5584   2.477   1.878   4.664
 1856SOL    HW2 5585   2.622   1.802   4.670
 1857SOL     OW 5586   2.721   0.956   4.585
 1857SOL    HW1 5587   2.775   0.887   4.633
 1857SOL    HW2 5588   2.689   1.025   4.651
 1858SOL     OW 5589   2.945   0.984   3.811
 1858SOL    HW1 5590   2.922   1.037   3.729
 1858SOL    HW2 5591   3.026   0.928   3.792
 1859SOL     OW 5592   3.723   1.569   4.575
 1859SOL    HW1 5593   3.652   1.557   4.505
 1859SOL    HW2 5594   3.724   1.490   4.635
 1860SOL     OW 5595   1.941   1.240   4.377
 1860SOL    HW1 5596   1.940   1.193   4.465
 1860SOL    HW2 5597   2.023   1.212   4.326
 1861SOL     OW 5598   3.686   0.192   4.951
 1861SOL    HW1 5599   3.682   0.102   4.995
 1861SOL    HW2 5600   3.689   0.181   4.852
 1862SOL     OW 5601   2.290   0.424   4.244
 1862SOL    HW1 5602   2.320   0.352   4.182
 1862SOL    HW2 5603   2.251   0.384   4.327
 1863SOL     OW 5604   2.674   1.586   4.411
 1863SOL    HW1 5605   2.706   1.596   4.317
 1863SOL    HW2 5606   2.595   1.524   4.413
 1864SOL     OW 5607   2.632   1.330   4.025
 1864SOL    HW1 5608   2.586   1.243   4.042
 1864SOL    HW2 5609   2.723   1.327   4.066
 1865SOL     OW 5610   3.214   0.052   3.892
 1865SOL    HW1 5611   3.249   0.011   3.808
 1865SOL    HW2 5612   3.124   0.014   3.912
 1866SOL     OW 5613   3.162   0.453   4.415
 1866SOL    HW1 5614   3.103   0.533   4.419
 1866SOL    HW2 5615   3.177   0.418   4.508
 1867SOL     OW 5616   3.455   0.221   4.606
 1867SOL    HW1 5617   3.371   0.220   4.660
 1867SOL    HW2 5618   3.457   0.304   4.550
 1868SOL     OW 5619   1.901   1.077   4.024
 1868SOL    HW1 5620   2.000   1.066   4.015
 1868SOL    HW2 5621   1.861   0.991   4.056
 1869SOL     OW 5622   2.737   1.646   4.061
 1869SOL    HW1 5623   2.660   1.611   4.007
 1869SOL    HW2 5624   2.705   1.717   4.123
 1870SOL     OW 5625   2.092   2.490   0.113
 1870SOL    HW1 5626   1.999   2.488   0.150
 1870SOL    HW2 5627   2.093   2.451   0.021
 1871SOL     OW 5628   2.087   2.137   0.996
 1871SOL    HW1 5629   2.122   2.120   1.088
 1871SOL    HW2 5630   1.999   2.092   0.984
 1872SOL     OW 5631   1.881   2.230   0.647
 1872SOL    HW1 5632   1.799   2.273   0.686
 1872SOL    HW2 5633   1.853   2.157   0.584
 1873SOL     OW 5634   2.431   3.137   1.165
 1873SOL    HW1 5635   2.338   3.130   1.128
 1873SOL    HW2 5636   2.442   3.226   1.209
 1874SOL     OW 5637   3.417   3.373   0.703
 1874SOL    HW1 5638   3.360   3.357   0.784
 1874SOL    HW2 5639   3.358   3.383   0.623
 1875SOL     OW 5640   2.997   2.565   0.717
 1875SOL    HW1 5641   3.054   2.643   0.692
 1875SOL    HW2 5642   2.937   2.591   0.793
 1876SOL     OW 5643   3.617   2.469   0.231
 1876SOL    HW1 5644   3.605   2.456   0.132
 1876SOL    HW2 5645   3.587   2.388   0.280
 1877SOL     OW 5646   2.630   3.006   1.023
 1877SOL    HW1 5647   2.552   3.023   1.083
 1877SOL    HW2 5648   2.664   3.093   0.987
 1878SOL     OW 5649   2.712   2.660   1.823
 1878SOL    HW1 5650   2.708   2.736   1.888
 1878SOL    HW2 5651   2.734   2.696   1.732
 1879SOL     OW 5652   2.547   2.874   0.665
 1879SOL    HW1 5653   2.616   2.858   0.735
 1879SOL    HW2 5654   2.474   2.931   0.703
 1880SOL     OW 5655   2.548   3.023   1.803
 1880SOL    HW1 5656   2.608   3.102   1.817
 1880SOL    HW2 5657   2.462   3.054   1.762
 1881SOL     OW 5658   2.197   3.297   1.061
 1881SOL    HW1 5659   2.119   3.266   1.008
 1881SOL    HW2 5660   2.255   3.355   1.004
 1882SOL     OW 5661   3.322   3.367   1.339
 1882SOL    HW1 5662   3.346   3.461   1.365
 1882SOL    HW2 5663   3.306   3.313   1.421
 1883SOL     OW 5664   2.300   2.254   1.499
 1883SOL    HW1 5665   2.382   2.198   1.508
 1883SOL    HW2 5666   2.219   2.196   1.503
 1884SOL     OW 5667   3.465   2.309   0.737
 1884SOL    HW1 5668   3.391   2.355   0.687
 1884SOL    HW2 5669   3.516   2.377   0.790
 1885SOL     OW 5670   2.093   3.575   0.483
 1885SOL    HW1 5671   2.127   3.652   0.537
 1885SOL    HW2 5672   2.137   3.575   0.393
 1886SOL     OW 5673   2.989   3.203   1.690
 1886SOL    HW1 5674   3.036   3.203   1.778
 1886SOL    HW2 5675   2.941   3.116   1.679
 1887SOL     OW 5676   2.092   3.296   0.538
 1887SOL    HW1 5677   2.066   3.392   0.538
 1887SOL    HW2 5678   2.021   3.242   0.583
 1888SOL     OW 5679   2.102   2.953   0.886
 1888SOL    HW1 5680   2.116   2.869   0.938
 1888SOL    HW2 5681   2.047   3.017   0.941
 1889SOL     OW 5682   2.482   3.648   1.439
 1889SOL    HW1 5683   2.390   3.631   1.474
 1889SOL    HW2 5684   2.510   3.740   1.465
 1890SOL     OW 5685   2.468   2.826   0.123
 1890SOL    HW1 5686   2.475   2.910   0.069
 1890SOL    HW2 5687   2.514   2.839   0.211
 1891SOL     OW 5688   3.456   1.976   1.480
 1891SOL    HW1 5689   3.438   2.043   1.408
 1891SOL    HW2 5690   3.453   2.022   1.569
 1892SOL     OW 5691   1.984   2.505   0.563
 1892SOL    HW1 5692   1.939   2.417   0.580
 1892SOL    HW2 5693   1.983   2.559   0.647
 1893SOL     OW 5694   3.704   3.629   0.359
 1893SOL    HW1 5695   3.758   3.600   0.439
 1893SOL    HW2 5696   3.734   3.719   0.330
 1894SOL     OW 5697   3.551   2.784   0.612
 1894SOL    HW1 5698   3.646   2.755   0.620
 1894SOL    HW2 5699   3.543   2.849   0.537
 1895SOL     OW 5700   3.503   2.970   0.432
 1895SOL    HW1 5701   3.589   2.972   0.380
 1895SOL    HW2 5702   3.517   3.017   0.520
 1896SOL     OW 5703   1.975   2.599   1.597
 1896SOL    HW1 5704   2.063   2.586   1.642
 1896SOL    HW2 5705   1.962   2.696   1.575
 1897SOL     OW 5706   2.475   3.227   0.726
 1897SOL    HW1 5707   2.426   3.140   0.735
 1897SOL    HW2 5708   2.452   3.270   0.639
 1898SOL     OW 5709   3.155   3.090   1.423
 1898SOL    HW1 5710   3.192   3.017   1.365
 1898SOL    HW2 5711   3.207   3.095   1.508
 1899SOL     OW 5712   2.671   1.866   0.502
 1899SOL    HW1 5713   2.711   1.957   0.493
 1899SOL    HW2 5714   2.571   1.874   0.508
 1900SOL     OW 5715   2.059   2.838   1.264
 1900SOL    HW1 5716   2.148   2.793   1.250
 1900SOL    HW2 5717   1.986   2.773   1.245
 1901SOL     OW 5718   3.387   2.861   0.190
 1901SOL    HW1 5719   3.324   2.785   0.203
 1901SOL    HW2 5720   3.435   2.879   0.276
 1902SOL     OW 5721   3.049   3.654   1.616
 1902SOL    HW1 5722   3.073   3.714   1.540
 1902SOL    HW2 5723   3.056   3.559   1.586
 1903SOL     OW 5724   2.179   2.113   1.801
 1903SOL    HW1 5725   2.250   2.184   1.807
 1903SOL    HW2 5726   2.091   2.152   1.829
 1904SOL     OW 5727   3.328   3.279   0.953
 1904SOL    HW1 5728   3.269   3.285   1.033
 1904SOL    HW2 5729   3.313   3.191   0.907
 1905SOL     OW 5730   3.529   3.576   0.572
 1905SOL    HW1 5731   3.488   3.553   0.484
 1905SOL    HW2 5732   3.511   3.502   0.637
 1906SOL     OW 5733   2.460   2.591   0.270
 1906SOL    HW1 5734   2.484   2.660   0.202
 1906SOL    HW2 5735   2.382   2.624   0.324
 1907SOL     OW 5736   3.143   2.207   0.944
 1907SOL    HW1 5737   3.057   2.157   0.931
 1907SOL    HW2 5738   3.205   2.153   1.000
 1908SOL     OW 5739   3.438   3.524   0.307
 1908SOL    HW1 5740   3.527   3.570   0.310
 1908SOL    HW2 5741   3.417   3.500   0.212
 1909SOL     OW 5742   2.669   2.467   1.465
 1909SOL    HW1 5743   2.622   2.464   1.554
 1909SOL    HW2 5744   2.618   2.412   1.399
 1910SOL     OW 5745   3.256   2.331   1.674
 1910SOL    HW1 5746   3.236   2.374   1.762
 1910SOL    HW2 5747   3.334   2.269   1.683
 1911SOL     OW 5748   2.835   2.752   1.572
 1911SOL    HW1 5749   2.881   2.668   1.543
 1911SOL    HW2 5750   2.779   2.786   1.497
 1912SOL     OW 5751   2.853   2.272   1.242
 1912SOL    HW1 5752   2.776   2.306   1.296
 1912SOL    HW2 5753   2.819   2.221   1.163
 1913SOL     OW 5754   2.903   2.563   0.429
 1913SOL    HW1 5755   2.929   2.559   0.525
 1913SOL    HW2 5756   2.818   2.512   0.415
 1914SOL     OW 5757   1.938   2.673   0.789
 1914SOL    HW1 5758   2.037   2.661   0.798
 1914SOL    HW2 5759   1.914   2.768   0.810
 1915SOL     OW 5760   1.992   3.683   1.571
 1915SOL    HW1 5761   1.982   3.668   1.670
 1915SOL    HW2 5762   1.906   3.719   1.535
 1916SOL     OW 5763   2.727   2.210   0.195
 1916SOL    HW1 5764   2.786   2.273   0.146
 1916SOL    HW2 5765   2.746   2.116   0.166
 1917SOL     OW 5766   3.581   2.447   1.831
 1917SOL    HW1 5767   3.555   2.536   1.795
 1917SOL    HW2 5768   3.579   2.379   1.758
 1918SOL     OW 5769   3.224   3.006   0.545
 1918SOL    HW1 5770   3.307   2.977   0.497
 1918SOL    HW2 5771   3.175   3.073   0.489
 1919SOL     OW 5772   2.412   2.058   0.885
 1919SOL    HW1 5773   2.407   2.053   0.985
 1919SOL    HW2 5774   2.414   2.154   0.856
 1920SOL     OW 5775   2.870   3.318   0.477
 1920SOL    HW1 5776   2.824   3.390   0.425
 1920SOL    HW2 5777   2.866   3.338   0.575
 1921SOL     OW 5778   2.213   3.663   0.853
 1921SOL    HW1 5779   2.263   3.577   0.859
 1921SOL    HW2 5780   2.278   3.740   0.850
 1922SOL     OW 5781   3.657   2.928   0.873
 1922SOL    HW1 5782   3.595   2.913   0.797
 1922SOL    HW2 5783   3.605   2.939   0.958
 1923SOL     OW 5784   3.089   3.412   1.506
 1923SOL    HW1 5785   3.095   3.335   1.570
 1923SOL    HW2 5786   3.037   3.386   1.426
 1924SOL     OW 5787   2.183   2.805   0.242
 1924SOL    HW1 5788   2.265   2.844   0.200
 1924SOL    HW2 5789   2.156   2.723   0.193
 1925SOL     OW 5790   3.320   2.597   0.728
 1925SOL    HW1 5791   3.315   2.532   0.803
 1925SOL    HW2 5792   3.400   2.656   0.741
 1926SOL     OW 5793   2.323   3.128   1.727
 1926SOL    HW1 5794   2.273   3.129   1.641
 1926SOL    HW2 5795   2.260   3.110   1.803
 1927SOL     OW 5796   2.973   3.638   0.237
 1927SOL    HW1 5797   2.913   3.576   0.287
 1927SOL    HW2 5798   3.004   3.594   0.152
 1928SOL     OW 5799   2.064   2.147   1.498
 1928SOL    HW1 5800   1.984   2.207   1.485
 1928SOL    HW2 5801   2.054   2.098   1.584
 1929SOL     OW 5802   3.494   3.239   0.081
 1929SOL    HW1 5803   3.462   3.333   0.071
 1929SOL    HW2 5804   3.418   3.176   0.069
 1930SOL     OW 5805   2.326   3.605   0.323
 1930SOL    HW1 5806   2.359   3.644   0.409
 1930SOL    HW2 5807   2.402   3.598   0.258
 1931SOL     OW 5808   3.262   1.969   0.426
 1931SOL    HW1 5809   3.238   1.932   0.336
 1931SOL    HW2 5810   3.361   1.985   0.430
 1932SOL     OW 5811   2.111   3.647   1.241
 1932SOL    HW1 5812   2.168   3.582   1.291
 1932SOL    HW2 5813   2.095   3.614   1.148
 1933SOL     OW 5814   2.802   3.560   0.904
 1933SOL    HW1 5815   2.882   3.503   0.925
 1933SOL    HW2 5816   2.753   3.520   0.827
 1934SOL     OW 5817   2.244   2.562   0.480
 1934SOL    HW1 5818   2.289   2.472   0.477
 1934SOL    HW2 5819   2.150   2.551   0.513
 1935SOL     OW 5820   3.409   2.084   1.729
 1935SOL    HW1 5821   3.404   2.121   1.821
 1935SOL    HW2 5822   3.337   2.015   1.717
 1936SOL     OW 5823   2.643   2.126   1.749
 1936SOL    HW1 5824   2.710   2.065   1.792
 1936SOL    HW2 5825   2.570   2.145   1.814
 1937SOL     OW 5826   2.750   3.376   1.195
 1937SOL    HW1 5827   2.727   3.351   1.101
 1937SOL    HW2 5828   2.811   3.307   1.234
 1938SOL     OW 5829   3.213   2.452   1.433
 1938SOL    HW1 5830   3.241   2.409   1.518
 1938SOL    HW2 5831   3.238   2.548   1.434
 1939SOL     OW 5832   2.665   3.264   0.924
 1939SOL    HW1 5833   2.755   3.278   0.882
 1939SOL    HW2 5834   2.594   3.266   0.853
 1940SOL     OW 5835   2.784   2.365   0.899
 1940SOL    HW1 5836   2.759   2.356   0.803
 1940SOL    HW2 5837   2.832   2.283   0.930
 1941SOL     OW 5838   2.401   1.926   0.512
 1941SOL    HW1 5839   2.320   1.927   0.570
 1941SOL    HW2 5840   2.404   2.009   0.457
 1942SOL     OW 5841   3.296   3.050   0.041
 1942SOL    HW1 5842   3.328   2.974   0.098
 1942SOL    HW2 5843   3.204   3.077   0.071
 1943SOL     OW 5844   2.159   1.897   0.171
 1943SOL    HW1 5845   2.208   1.981   0.150
 1943SOL    HW2 5846   2.221   1.832   0.216
 1944SOL     OW 5847   2.797   2.098   0.480
 1944SOL    HW1 5848   2.749   2.139   0.402
 1944SOL    HW2 5849   2.896   2.096   0.461
 1945SOL     OW 5850   2.938   2.545   1.464
 1945SOL    HW1 5851   2.858   2.484   1.467
 1945SOL    HW2 5852   3.019   2.492   1.440
 1946SOL     OW 5853   3.089   3.432   0.793
 1946SOL    HW1 5854   3.110   3.506   0.728
 1946SOL    HW2 5855   3.157   3.432   0.866
 1947SOL     OW 5856   2.321   3.014   0.741
 1947SOL    HW1 5857   2.250   2.987   0.806
 1947SOL    HW2 5858   2.295   2.986   0.648
 1948SOL     OW 5859   3.133   3.659   0.591
 1948SOL    HW1 5860   3.177   3.723   0.527
 1948SOL    HW2 5861   3.083   3.711   0.661
 1949SOL     OW 5862   2.894   2.411   0.016
 1949SOL    HW1 5863   2.853   2.493  -0.023
 1949SOL    HW2 5864   2.958   2.437   0.089
 1950SOL     OW 5865   1.940   2.418   1.386
 1950SOL    HW1 5866   2.032   2.417   1.345
 1950SOL    HW2 5867   1.934   2.492   1.453
 1951SOL     OW 5868   2.423   2.084   1.147
 1951SOL    HW1 5869   2.461   2.000   1.184
 1951SOL    HW2 5870   2.335   2.103   1.191
 1952SOL     OW 5871   2.728   2.316   0.642
 1952SOL    HW1 5872   2.696   2.388   0.580
 1952SOL    HW2 5873   2.752   2.235   0.589
 1953SOL     OW 5874   2.879   1.901   0.753
 1953SOL    HW1 5875   2.807   1.906   0.684
 1953SOL    HW2 5876   2.855   1.832   0.822
 1954SOL     OW 5877   3.291   3.035   0.867
 1954SOL    HW1 5878   3.236   2.951   0.860
 1954SOL    HW2 5879   3.317   3.064   0.775
 1955SOL     OW 5880   3.328   2.452   0.992
 1955SOL    HW1 5881   3.298   2.357   0.999
 1955SOL    HW2 5882   3.401   2.468   1.058
 1956SOL     OW 5883   3.719   2.695   0.377
 1956SOL    HW1 5884   3.761   2.631   0.441
 1956SOL    HW2 5885   3.681   2.644   0.299
 1957SOL     OW 5886   2.350   3.247   0.174
 1957SOL    HW1 5887   2.263   3.232   0.221
 1957SOL    HW2 5888   2.333   3.273   0.079
 1958SOL     OW 5889   3.526   3.142   0.657
 1958SOL    HW1 5890   3.625   3.150   0.671
 1958SOL    HW2 5891   3.481   3.226   0.688
 1959SOL     OW 5892   3.252   2.437   0.078
 1959SOL    HW1 5893   3.198   2.416   0.159
 1959SOL    HW2 5894   3.343   2.396   0.087
 1960SOL     OW 5895   2.389   2.118   0.328
 1960SOL    HW1 5896   2.416   2.059   0.253
 1960SOL    HW2 5897   2.389   2.213   0.297
 1961SOL     OW 5898   3.616   3.085   1.588
 1961SOL    HW1 5899   3.707   3.046   1.575
 1961SOL    HW2 5900   3.624   3.181   1.612
 1962SOL     OW 5901   2.926   3.209   1.340
 1962SOL    HW1 5902   2.846   3.186   1.395
 1962SOL    HW2 5903   3.009   3.183   1.389
 1963SOL     OW 5904   3.454   3.491   1.625
 1963SOL    HW1 5905   3.481   3.525   1.535
 1963SOL    HW2 5906   3.533   3.453   1.671
 1964SOL     OW 5907   2.973   3.057   1.100
 1964SOL    HW1 5908   2.933   3.101   1.181
 1964SOL    HW2 5909   2.932   3.094   1.017
 1965SOL     OW 5910   3.500   2.961   1.079
 1965SOL    HW1 5911   3.505   3.042   1.138
 1965SOL    HW2 5912   3.414   2.963   1.028
 1966SOL     OW 5913   2.777   1.951   1.402
 1966SOL    HW1 5914   2.802   1.931   1.307
 1966SOL    HW2 5915   2.849   2.007   1.444
 1967SOL     OW 5916   2.842   2.978   1.719
 1967SOL    HW1 5917   2.743   2.984   1.729
 1967SOL    HW2 5918   2.865   2.898   1.663
 1968SOL     OW 5919   2.567   2.912   0.368
 1968SOL    HW1 5920   2.553   2.919   0.467
 1968SOL    HW2 5921   2.651   2.861   0.350
 1969SOL     OW 5922   2.272   2.675   1.251
 1969SOL    HW1 5923   2.358   2.687   1.301
 1969SOL    HW2 5924   2.230   2.588   1.278
 1970SOL     OW 5925   3.136   2.248   1.262
 1970SOL    HW1 5926   3.157   2.322   1.326
 1970SOL    HW2 5927   3.047   2.265   1.219
 1971SOL     OW 5928   1.926   3.426   1.331
 1971SOL    HW1 5929   1.880   3.508   1.297
 1971SOL    HW2 5930   2.024   3.445   1.340
 1972SOL     OW 5931   2.229   2.962   0.501
 1972SOL    HW1 5932   2.222   3.045   0.445
 1972SOL    HW2 5933   2.233   2.882   0.441
 1973SOL     OW 5934   2.428   2.399   0.865
 1973SOL    HW1 5935   2.440   2.465   0.791
 1973SOL    HW2 5936   2.474   2.433   0.948
 1974SOL     OW 5937   3.114   3.210   0.388
 1974SOL    HW1 5938   3.164   3.287   0.428
 1974SOL    HW2 5939   3.019   3.212   0.420
 1975SOL     OW 5940   3.134   3.307   1.142
 1975SOL    HW1 5941   3.181   3.320   1.229
 1975SOL    HW2 5942   3.068   3.233   1.151
 1976SOL     OW 5943   3.444   2.501   0.472
 1976SOL    HW1 5944   3.413   2.562   0.545
 1976SOL    HW2 5945   3.494   2.553   0.403
 1977SOL     OW 5946   2.216   3.372   1.329
 1977SOL    HW1 5947   2.195   3.328   1.242
 1977SOL    HW2 5948   2.313   3.398   1.332
 1978SOL     OW 5949   2.264   2.613   1.598
 1978SOL    HW1 5950   2.332   2.668   1.551
 1978SOL    HW2 5951   2.304   2.525   1.625
 1979SOL     OW 5952   3.449   2.641   1.670
 1979SOL    HW1 5953   3.357   2.679   1.665
 1979SOL    HW2 5954   3.509   2.688   1.605
 1980SOL     OW 5955   2.875   1.967   1.770
 1980SOL    HW1 5956   2.881   2.052   1.718
 1980SOL    HW2 5957   2.907   1.891   1.713
 1981SOL     OW 5958   2.366   1.912   1.740
 1981SOL    HW1 5959   2.324   1.855   1.670
 1981SOL    HW2 5960   2.300   1.981   1.772
 1982SOL     OW 5961   2.435   2.732   1.029
 1982SOL    HW1 5962   2.479   2.821   1.020
 1982SOL    HW2 5963   2.372   2.732   1.106
 1983SOL     OW 5964   3.222   2.724   1.045
 1983SOL    HW1 5965   3.147   2.724   0.979
 1983SOL    HW2 5966   3.259   2.632   1.054
 1984SOL     OW 5967   3.071   2.387   0.275
 1984SOL    HW1 5968   3.084   2.303   0.329
 1984SOL    HW2 5969   3.042   2.461   0.335
 1985SOL     OW 5970   2.169   2.075   1.231
 1985SOL    HW1 5971   2.146   2.112   1.321
 1985SOL    HW2 5972   2.139   1.980   1.225
 1986SOL     OW 5973   1.899   3.172   1.282
 1986SOL    HW1 5974   1.952   3.123   1.350
 1986SOL    HW2 5975   1.921   3.270   1.287
 1987SOL     OW 5976   2.594   2.496   1.064
 1987SOL    HW1 5977   2.653   2.470   0.988
 1987SOL    HW2 5978   2.566   2.592   1.053
 1988SOL     OW 5979   3.590   2.797   1.854
 1988SOL    HW1 5980   3.544   2.790   1.765
 1988SOL    HW2 5981   3.528   2.841   1.920
 1989SOL     OW 5982   2.169   1.925   0.618
 1989SOL    HW1 5983   2.158   2.019   0.651
 1989SOL    HW2 5984   2.164   1.862   0.695
 1990SOL     OW 5985   3.484   2.229   0.374
 1990SOL    HW1 5986   3.486   2.153   0.438
 1990SOL    HW2 5987   3.436   2.306   0.414
 1991SOL     OW 5988   2.885   2.628   0.966
 1991SOL    HW1 5989   2.900   2.649   1.062
 1991SOL    HW2 5990   2.855   2.533   0.957
 1992SOL     OW 5991   2.842   3.435   1.700
 1992SOL    HW1 5992   2.822   3.479   1.612
 1992SOL    HW2 5993   2.881   3.344   1.684
 1993SOL     OW 5994   3.721   3.380   1.605
 1993SOL    HW1 5995   3.735   3.407   1.510
 1993SOL    HW2 5996   3.804   3.402   1.658
 1994SOL     OW 5997   2.212   2.760   1.804
 1994SOL    HW1 5998   2.288   2.804   1.852
 1994SOL    HW2 5999   2.247   2.713   1.722
 1995SOL     OW 6000   3.402   2.136   0.125
 1995SOL    HW1 6001   3.341   2.061   0.148
 1995SOL    HW2 6002   3.424   2.188   0.208
 1996SOL     OW 6003   3.165   2.700   0.042
 1996SOL    HW1 6004   3.199   2.607   0.057
 1996SOL    HW2 6005   3.183   2.727  -0.053
 1997SOL     OW 6006   2.930   3.195   0.849
 1997SOL    HW1 6007   2.937   3.111   0.794
 1997SOL    HW2 6008   2.992   3.264   0.813
 1998SOL     OW 6009   2.181   2.672   0.949
 1998SOL    HW1 6010   2.274   2.708   0.954
 1998SOL    HW2 6011   2.175   2.587   1.001
 1999SOL     OW 6012   2.201   2.371   1.006
 1999SOL    HW1 6013   2.149   2.288   0.989
 1999SOL    HW2 6014   2.278   2.376   0.942
 2000SOL     OW 6015   3.000   2.242   1.678
 2000SOL    HW1 6016   2.955   2.305   1.742
 2000SOL    HW2 6017   3.093   2.273   1.661
 2001SOL     OW 6018   3.022   2.069   1.477
 2001SOL    HW1 6019   3.022   2.133   1.554
 2001SOL    HW2 6020   3.050   2.117   1.394
 2002SOL     OW 6021   1.870   3.188   0.200
 2002SOL    HW1 6022   1.777   3.209   0.169
 2002SOL    HW2 6023   1.880   3.089   0.213
 2003SOL     OW 6024   1.950   3.663   0.927
 2003SOL    HW1 6025   1.908   3.577   0.900
 2003SOL    HW2 6026   2.044   3.666   0.893
 2004SOL     OW 6027   2.366   3.430   0.910
 2004SOL    HW1 6028   2.432   3.504   0.919
 2004SOL    HW2 6029   2.410   3.351   0.868
 2005SOL     OW 6030   2.864   2.658   1.238
 2005SOL    HW1 6031   2.905   2.626   1.324
 2005SOL    HW2 6032   2.768   2.631   1.235
 2006SOL     OW 6033   1.902   2.406   1.114
 2006SOL    HW1 6034   1.987   2.373   1.073
 2006SOL    HW2 6035   1.915   2.421   1.212
 2007SOL     OW 6036   2.051   2.382   1.722
 2007SOL    HW1 6037   2.110   2.342   1.652
 2007SOL    HW2 6038   1.993   2.453   1.681
 2008SOL     OW 6039   3.231   2.812   1.660
 2008SOL    HW1 6040   3.270   2.901   1.680
 2008SOL    HW2 6041   3.241   2.792   1.563
 2009SOL     OW 6042   2.677   2.434   0.325
 2009SOL    HW1 6043   2.684   2.345   0.279
 2009SOL    HW2 6044   2.583   2.468   0.317
 2010SOL     OW 6045   3.519   2.466   1.206
 2010SOL    HW1 6046   3.481   2.397   1.268
 2010SOL    HW2 6047   3.601   2.430   1.162
 2011SOL     OW 6048   2.114   3.426   1.744
 2011SOL    HW1 6049   2.084   3.483   1.820
 2011SOL    HW2 6050   2.107   3.329   1.770
 2012SOL     OW 6051   2.533   2.326   1.269
 2012SOL    HW1 6052   2.499   2.237   1.239
 2012SOL    HW2 6053   2.559   2.380   1.189
 2013SOL     OW 6054   2.792   3.540   1.465
 2013SOL    HW1 6055   2.768   3.522   1.370
 2013SOL    HW2 6056   2.822   3.634   1.475
 2014SOL     OW 6057   2.335   2.362   0.191
 2014SOL    HW1 6058   2.396   2.442   0.195
 2014SOL    HW2 6059   2.240   2.393   0.198
 2015SOL     OW 6060   2.021   2.999   1.466
 2015SOL    HW1 6061   2.043   2.938   1.542
 2015SOL    HW2 6062   2.031   2.950   1.380
 2016SOL     OW 6063   3.209   2.921   1.234
 2016SOL    HW1 6064   3.233   2.858   1.160
 2016SOL    HW2 6065   3.119   2.961   1.216
 2017SOL     OW 6066   3.164   2.717   0.309
 2017SOL    HW1 6067   3.078   2.686   0.351
 2017SOL    HW2 6068   3.160   2.703   0.210
 2018SOL     OW 6069   3.621   3.609   1.154
 2018SOL    HW1 6070   3.682   3.639   1.081
 2018SOL    HW2 6071   3.583   3.520   1.132
 2019SOL     OW 6072   3.114   3.593   1.128
 2019SOL    HW1 6073   3.198   3.598   1.074
 2019SOL    HW2 6074   3.091   3.497   1.146
 2020SOL     OW 6075   1.945   3.120   1.022
 2020SOL    HW1 6076   1.940   3.119   1.122
 2020SOL    HW2 6077   1.862   3.079   0.984
 2021SOL     OW 6078   2.550   3.524   1.716
 2021SOL    HW1 6079   2.494   3.605   1.725
 2021SOL    HW2 6080   2.602   3.528   1.630
 2022SOL     OW 6081   2.765   1.948   0.133
 2022SOL    HW1 6082   2.816   1.949   0.047
 2022SOL    HW2 6083   2.821   1.906   0.204
 2023SOL     OW 6084   3.588   1.997   0.523
 2023SOL    HW1 6085   3.661   1.980   0.456
 2023SOL    HW2 6086   3.557   1.910   0.561
 2024SOL     OW 6087   3.250   3.435   0.477
 2024SOL    HW1 6088   3.317   3.447   0.403
 2024SOL    HW2 6089   3.210   3.524   0.500
 2025SOL     OW 6090   1.992   3.656   1.851
 2025SOL    HW1 6091   1.951   3.582   1.904
 2025SOL    HW2 6092   2.056   3.707   1.909
 2026SOL     OW 6093   3.142   2.789   0.672
 2026SOL    HW1 6094   3.202   2.708   0.674
 2026SOL    HW2 6095   3.182   2.858   0.612
 2027SOL     OW 6096   2.692   3.135   1.422
 2027SOL    HW1 6097   2.687   3.168   1.517
 2027SOL    HW2 6098   2.606   3.154   1.376
 2028SOL     OW 6099   2.534   3.478   0.154
 2028SOL    HW1 6100   2.543   3.488   0.055
 2028SOL    HW2 6101   2.494   3.389   0.175
 2029SOL     OW 6102   3.512   3.582   1.394
 2029SOL    HW1 6103   3.565   3.592   1.310
 2029SOL    HW2 6104   3.485   3.672   1.428
 2030SOL     OW 6105   3.703   2.037   0.963
 2030SOL    HW1 6106   3.742   1.952   0.927
 2030SOL    HW2 6107   3.605   2.039   0.944
 2031SOL     OW 6108   2.125   2.188   0.720
 2031SOL    HW1 6109   2.046   2.239   0.686
 2031SOL    HW2 6110   2.116   2.173   0.818
 2032SOL     OW 6111   3.056   3.474   0.031
 2032SOL    HW1 6112   3.062   3.381   0.068
 2032SOL    HW2 6113   2.997   3.474  -0.049
 2033SOL     OW 6114   2.684   2.864   1.372
 2033SOL    HW1 6115   2.724   2.863   1.280
 2033SOL    HW2 6116   2.694   2.956   1.412
 2034SOL     OW 6117   2.778   2.772   0.291
 2034SOL    HW1 6118   2.841   2.810   0.223
 2034SOL    HW2 6119   2.818   2.689   0.330
 2035SOL     OW 6120   3.366   3.469   0.044
 2035SOL    HW1 6121   3.274   3.506   0.051
 2035SOL    HW2 6122   3.404   3.489  -0.046
 2036SOL     OW 6123   2.234   3.150   1.490
 2036SOL    HW1 6124   2.221   3.243   1.456
 2036SOL    HW2 6125   2.150   3.098   1.477
 2037SOL     OW 6126   3.476   3.154   1.289
 2037SOL    HW1 6127   3.536   3.157   1.369
 2037SOL    HW2 6128   3.401   3.218   1.302
 2038SOL     OW 6129   2.901   2.960   0.696
 2038SOL    HW1 6130   2.831   2.913   0.750
 2038SOL    HW2 6131   2.960   2.892   0.653
 2039SOL     OW 6132   2.876   2.098   0.971
 2039SOL    HW1 6133   2.868   2.062   0.878
 2039SOL    HW2 6134   2.874   2.022   1.036
 2040SOL     OW 6135   2.452   3.349   0.491
 2040SOL    HW1 6136   2.494   3.291   0.421
 2040SOL    HW2 6137   2.408   3.428   0.447
 2041SOL     OW 6138   3.571   2.247   1.381
 2041SOL    HW1 6139   3.644   2.316   1.385
 2041SOL    HW2 6140   3.599   2.172   1.322
 2042SOL     OW 6141   2.117   3.210   0.290
 2042SOL    HW1 6142   2.021   3.211   0.263
 2042SOL    HW2 6143   2.129   3.263   0.374
 2043SOL     OW 6144   1.967   2.875   1.726
 2043SOL    HW1 6145   1.890   2.842   1.780
 2043SOL    HW2 6146   2.052   2.845   1.768
 2044SOL     OW 6147   2.534   2.065   1.489
 2044SOL    HW1 6148   2.624   2.049   1.449
 2044SOL    HW2 6149   2.542   2.070   1.588
 2045SOL     OW 6150   3.302   2.718   1.398
 2045SOL    HW1 6151   3.245   2.770   1.335
 2045SOL    HW2 6152   3.398   2.730   1.374
 2046SOL     OW 6153   1.934   2.028   0.318
 2046SOL    HW1 6154   1.917   2.111   0.264
 2046SOL    HW2 6155   2.024   1.991   0.296
 2047SOL     OW 6156   3.045   3.197   0.119
 2047SOL    HW1 6157   2.946   3.186   0.121
 2047SOL    HW2 6158   3.079   3.212   0.212
 2048SOL     OW 6159   2.475   2.704   1.431
 2048SOL    HW1 6160   2.531   2.785   1.414
 2048SOL    HW2 6161   2.534   2.624   1.434
 2049SOL     OW 6162   3.355   3.629   0.959
 2049SOL    HW1 6163   3.388   3.693   0.890
 2049SOL    HW2 6164   3.421   3.623   1.034
 2050SOL     OW 6165   2.578   2.427   1.708
 2050SOL    HW1 6166   2.597   2.492   1.782
 2050SOL    HW2 6167   2.638   2.347   1.717
 2051SOL     OW 6168   3.312   3.082   1.633
 2051SOL    HW1 6169   3.303   3.072   1.732
 2051SOL    HW2 6170   3.408   3.075   1.607
 2052SOL     OW 6171   2.252   3.603   1.560
 2052SOL    HW1 6172   2.161   3.644   1.558
 2052SOL    HW2 6173   2.245   3.509   1.592
 2053SOL     OW 6174   3.536   2.745   1.254
 2053SOL    HW1 6175   3.509   2.656   1.217
 2053SOL    HW2 6176   3.537   2.813   1.181
 2054SOL     OW 6177   3.087   2.187   0.449
 2054SOL    HW1 6178   3.152   2.113   0.438
 2054SOL    HW2 6179   3.107   2.237   0.533
 2055SOL     OW 6180   2.456   2.607   0.652
 2055SOL    HW1 6181   2.506   2.692   0.633
 2055SOL    HW2 6182   2.368   2.609   0.604
 2056SOL     OW 6183   3.639   2.204   1.642
 2056SOL    HW1 6184   3.622   2.235   1.548
 2056SOL    HW2 6185   3.555   2.167   1.680
 2057SOL     OW 6186   3.592   2.796   1.517
 2057SOL    HW1 6187   3.630   2.887   1.532
 2057SOL    HW2 6188   3.584   2.779   1.418
 2058SOL     OW 6189   2.721   3.236   0.016
 2058SOL    HW1 6190   2.675   3.251   0.104
 2058SOL    HW2 6191   2.765   3.321  -0.014
 2059SOL     OW 6192   2.523   3.652   0.953
 2059SOL    HW1 6193   2.477   3.740   0.940
 2059SOL    HW2 6194   2.622   3.664   0.946
 2060SOL     OW 6195   2.721   2.818   0.861
 2060SOL    HW1 6196   2.775   2.749   0.909
 2060SOL    HW2 6197   2.689   2.887   0.927
 2061SOL     OW 6198   2.945   2.846   0.087
 2061SOL    HW1 6199   2.922   2.899   0.005
 2061SOL    HW2 6200   3.026   2.790   0.068
 2062SOL     OW 6201   3.723   3.431   0.851
 2062SOL    HW1 6202   3.652   3.419   0.781
 2062SOL    HW2 6203   3.724   3.352   0.911
 2063SOL     OW 6204   2.083   3.176   1.844
 2063SOL    HW1 6205   2.018   3.103   1.823
 2063SOL    HW2 6206   2.087   3.190   1.942
 2064SOL     OW 6207   1.941   3.102   0.653
 2064SOL    HW1 6208   1.940   3.055   0.741
 2064SOL    HW2 6209   2.023   3.074   0.602
 2065SOL     OW 6210   2.534   3.253   1.624
 2065SOL    HW1 6211   2.456   3.203   1.662
 2065SOL    HW2 6212   2.531   3.348   1.655
 2066SOL     OW 6213   3.686   2.054   1.227
 2066SOL    HW1 6214   3.682   1.964   1.271
 2066SOL    HW2 6215   3.689   2.043   1.128
 2067SOL     OW 6216   2.290   2.286   0.520
 2067SOL    HW1 6217   2.320   2.214   0.458
 2067SOL    HW2 6218   2.251   2.246   0.603
 2068SOL     OW 6219   3.567   3.349   1.104
 2068SOL    HW1 6220   3.474   3.324   1.077
 2068SOL    HW2 6221   3.593   3.299   1.186
 2069SOL     OW 6222   2.179   2.409   1.280
 2069SOL    HW1 6223   2.217   2.350   1.352
 2069SOL    HW2 6224   2.219   2.383   1.192
 2070SOL     OW 6225   2.674   3.448   0.687
 2070SOL    HW1 6226   2.706   3.458   0.593
 2070SOL    HW2 6227   2.595   3.386   0.689
 2071SOL     OW 6228   3.286   2.076   1.112
 2071SOL    HW1 6229   3.338   2.011   1.167
 2071SOL    HW2 6230   3.237   2.139   1.173
 2072SOL     OW 6231   2.863   1.896   1.154
 2072SOL    HW1 6232   2.800   1.824   1.123
 2072SOL    HW2 6233   2.956   1.860   1.154
 2073SOL     OW 6234   2.632   3.192   0.301
 2073SOL    HW1 6235   2.586   3.105   0.318
 2073SOL    HW2 6236   2.723   3.189   0.342
 2074SOL     OW 6237   2.480   3.429   1.284
 2074SOL    HW1 6238   2.475   3.511   1.341
 2074SOL    HW2 6239   2.569   3.426   1.239
 2075SOL     OW 6240   3.214   1.914   0.168
 2075SOL    HW1 6241   3.249   1.873   0.084
 2075SOL    HW2 6242   3.124   1.876   0.188
 2076SOL     OW 6243   3.162   2.315   0.691
 2076SOL    HW1 6244   3.103   2.395   0.695
 2076SOL    HW2 6245   3.177   2.280   0.784
 2077SOL     OW 6246   3.455   2.083   0.882
 2077SOL    HW1 6247   3.371   2.082   0.936
 2077SOL    HW2 6248   3.457   2.166   0.826
 2078SOL     OW 6249   1.901   2.939   0.300
 2078SOL    HW1 6250   2.000   2.928   0.291
 2078SOL    HW2 6251   1.861   2.853   0.332
 2079SOL     OW 6252   2.737   3.508   0.337
 2079SOL    HW1 6253   2.660   3.473   0.283
 2079SOL    HW2 6254   2.705   3.579   0.399
 2080SOL     OW 6255   2.092   2.490   1.975
 2080SOL    HW1 6256   1.999   2.488   2.012
 2080SOL    HW2 6257   2.093   2.451   1.883
 2081SOL     OW 6258   2.087   2.137   2.858
 2081SOL    HW1 6259   2.122   2.120   2.950
 2081SOL    HW2 6260   1.999   2.092   2.846
 2082SOL     OW 6261   1.881   2.230   2.509
 2082SOL    HW1 6262   1.799   2.273   2.548
 2082SOL    HW2 6263   1.853   2.157   2.446
 2083SOL     OW 6264   2.431   3.137   3.027
 2083SOL    HW1 6265   2.338   3.130   2.990
 2083SOL    HW2 6266   2.442   3.226   3.071
 2084SOL     OW 6267   3.417   3.373   2.565
 2084SOL    HW1 6268   3.360   3.357   2.646
 2084SOL    HW2 6269   3.358   3.383   2.485
 2085SOL     OW 6270   2.997   2.565   2.579
 2085SOL    HW1 6271   3.054   2.643   2.554
 2085SOL    HW2 6272   2.937   2.591   2.655
 2086SOL     OW 6273   3.617   2.469   2.093
 2086SOL    HW1 6274   3.605   2.456   1.994
 2086SOL    HW2 6275   3.587   2.388   2.142
 2087SOL     OW 6276   2.630   3.006   2.885
 2087SOL    HW1 6277   2.552   3.023   2.945
 2087SOL    HW2 6278   2.664   3.093   2.849
 2088SOL     OW 6279   2.712   2.660   3.685
 2088SOL    HW1 6280   2.708   2.736   3.750
 2088SOL    HW2 6281   2.734   2.696   3.594
 2089SOL     OW 6282   2.547   2.874   2.527
 2089SOL    HW1 6283   2.616   2.858   2.597
 2089SOL    HW2 6284   2.474   2.931   2.565
 2090SOL     OW 6285   2.548   3.023   3.665
 2090SOL    HW1 6286   2.608   3.102   3.679
 2090SOL    HW2 6287   2.462   3.054   3.624
 2091SOL     OW 6288   2.197   3.297   2.923
 2091SOL    HW1 6289   2.119   3.266   2.870
 2091SOL    HW2 6290   2.255   3.355   2.866
 2092SOL     OW 6291   3.322   3.367   3.201
 2092SOL    HW1 6292   3.346   3.461   3.227
 2092SOL    HW2 6293   3.306   3.313   3.283
 2093SOL     OW 6294   2.300   2.254   3.361
 2093SOL    HW1 6295   2.382   2.198   3.370
 2093SOL    HW2 6296   2.219   2.196   3.365
 2094SOL     OW 6297   3.465   2.309   2.599
 2094SOL    HW1 6298   3.391   2.355   2.549
 2094SOL    HW2 6299   3.516   2.377   2.652
 2095SOL     OW 6300   2.093   3.575   2.345
 2095SOL    HW1 6301   2.127   3.652   2.399
 2095SOL    HW2 6302   2.137   3.575   2.255
 2096SOL     OW 6303   2.989   3.203   3.552
 2096SOL    HW1 6304   3.036   3.203   3.640
 2096SOL    HW2 6305   2.941   3.116   3.541
 2097SOL     OW 6306   2.092   3.296   2.400
 2097SOL    HW1 6307   2.066   3.392   2.400
 2097SOL    HW2 6308   2.021   3.242   2.445
 2098SOL     OW 6309   2.102   2.953   2.748
 2098SOL    HW1 6310   2.116   2.869   2.800
 2098SOL    HW2 6311   2.047   3.017   2.803
 2099SOL     OW 6312   2.482   3.648   3.301
 2099SOL    HW1 6313   2.390   3.631   3.336
 2099SOL    HW2 6314   2.510   3.740   3.327
 2100SOL     OW 6315   2.468   2.826   1.985
 2100SOL    HW1 6316   2.475   2.910   1.931
 2100SOL    HW2 6317   2.514   2.839   2.073
 2101SOL     OW 6318   3.456   1.976   3.342
 2101SOL    HW1 6319   3.438   2.043   3.270
 2101SOL    HW2 6320   3.453   2.022   3.431
 2102SOL     OW 6321   1.984   2.505   2.425
 2102SOL    HW1 6322   1.939   2.417   2.442
 2102SOL    HW2 6323   1.983   2.559   2.509
 2103SOL     OW 6324   3.704   3.629   2.221
 2103SOL    HW1 6325   3.758   3.600   2.301
 2103SOL    HW2 6326   3.734   3.719   2.192
 2104SOL     OW 6327   1.889   3.458   1.979
 2104SOL    HW1 6328   1.870   3.362   2.000
 2104SOL    HW2 6329   1.856   3.516   2.054
 2105SOL     OW 6330   3.551   2.784   2.474
 2105SOL    HW1 6331   3.646   2.755   2.482
 2105SOL    HW2 6332   3.543   2.849   2.399
 2106SOL     OW 6333   3.503   2.970   2.294
 2106SOL    HW1 6334   3.589   2.972   2.242
 2106SOL    HW2 6335   3.517   3.017   2.382
 2107SOL     OW 6336   1.975   2.599   3.459
 2107SOL    HW1 6337   2.063   2.586   3.504
 2107SOL    HW2 6338   1.962   2.696   3.437
 2108SOL     OW 6339   2.475   3.227   2.588
 2108SOL    HW1 6340   2.426   3.140   2.597
 2108SOL    HW2 6341   2.452   3.270   2.501
 2109SOL     OW 6342   3.155   3.090   3.285
 2109SOL    HW1 6343   3.192   3.017   3.227
 2109SOL    HW2 6344   3.207   3.095   3.370
 2110SOL     OW 6345   2.671   1.866   2.364
 2110SOL    HW1 6346   2.711   1.957   2.355
 2110SOL    HW2 6347   2.571   1.874   2.370
 2111SOL     OW 6348   2.059   2.838   3.126
 2111SOL    HW1 6349   2.148   2.793   3.112
 2111SOL    HW2 6350   1.986   2.773   3.107
 2112SOL     OW 6351   3.387   2.861   2.052
 2112SOL    HW1 6352   3.324   2.785   2.065
 2112SOL    HW2 6353   3.435   2.879   2.138
 2113SOL     OW 6354   3.049   3.654   3.478
 2113SOL    HW1 6355   3.073   3.714   3.402
 2113SOL    HW2 6356   3.056   3.559   3.448
 2114SOL     OW 6357   2.179   2.113   3.663
 2114SOL    HW1 6358   2.250   2.184   3.669
 2114SOL    HW2 6359   2.091   2.152   3.691
 2115SOL     OW 6360   3.328   3.279   2.815
 2115SOL    HW1 6361   3.269   3.285   2.895
 2115SOL    HW2 6362   3.313   3.191   2.769
 2116SOL     OW 6363   3.529   3.576   2.434
 2116SOL    HW1 6364   3.488   3.553   2.346
 2116SOL    HW2 6365   3.511   3.502   2.499
 2117SOL     OW 6366   3.143   2.207   2.806
 2117SOL    HW1 6367   3.057   2.157   2.793
 2117SOL    HW2 6368   3.205   2.153   2.862
 2118SOL     OW 6369   3.438   3.524   2.169
 2118SOL    HW1 6370   3.527   3.570   2.172
 2118SOL    HW2 6371   3.417   3.500   2.074
 2119SOL     OW 6372   2.669   2.467   3.327
 2119SOL    HW1 6373   2.622   2.464   3.416
 2119SOL    HW2 6374   2.618   2.412   3.261
 2120SOL     OW 6375   3.256   2.331   3.536
 2120SOL    HW1 6376   3.236   2.374   3.624
 2120SOL    HW2 6377   3.334   2.269   3.545
 2121SOL     OW 6378   2.835   2.752   3.434
 2121SOL    HW1 6379   2.881   2.668   3.405
 2121SOL    HW2 6380   2.779   2.786   3.359
 2122SOL     OW 6381   2.853   2.272   3.104
 2122SOL    HW1 6382   2.776   2.306   3.158
 2122SOL    HW2 6383   2.819   2.221   3.025
 2123SOL     OW 6384   2.903   2.563   2.291
 2123SOL    HW1 6385   2.929   2.559   2.387
 2123SOL    HW2 6386   2.818   2.512   2.277
 2124SOL     OW 6387   1.938   2.673   2.651
 2124SOL    HW1 6388   2.037   2.661   2.660
 2124SOL    HW2 6389   1.914   2.768   2.672
 2125SOL     OW 6390   1.992   3.683   3.433
 2125SOL    HW1 6391   1.982   3.668   3.532
 2125SOL    HW2 6392   1.906   3.719   3.397
 2126SOL     OW 6393   2.727   2.210   2.057
 2126SOL    HW1 6394   2.786   2.273   2.008
 2126SOL    HW2 6395   2.746   2.116   2.028
 2127SOL     OW 6396   3.581   2.447   3.693
 2127SOL    HW1 6397   3.555   2.536   3.657
 2127SOL    HW2 6398   3.579   2.379   3.620
 2128SOL     OW 6399   3.224   3.006   2.407
 2128SOL    HW1 6400   3.307   2.977   2.359
 2128SOL    HW2 6401   3.175   3.073   2.351
 2129SOL     OW 6402   2.412   2.058   2.747
 2129SOL    HW1 6403   2.407   2.053   2.847
 2129SOL    HW2 6404   2.414   2.154   2.718
 2130SOL     OW 6405   2.870   3.318   2.339
 2130SOL    HW1 6406   2.824   3.390   2.287
 2130SOL    HW2 6407   2.866   3.338   2.437
 2131SOL     OW 6408   2.213   3.663   2.715
 2131SOL    HW1 6409   2.263   3.577   2.721
 2131SOL    HW2 6410   2.278   3.740   2.712
 2132SOL     OW 6411   3.657   2.928   2.735
 2132SOL    HW1 6412   3.595   2.913   2.659
 2132SOL    HW2 6413   3.605   2.939   2.820
 2133SOL     OW 6414   3.089   3.412   3.368
 2133SOL    HW1 6415   3.095   3.335   3.432
 2133SOL    HW2 6416   3.037   3.386   3.288
 2134SOL     OW 6417   2.183   2.805   2.104
 2134SOL    HW1 6418   2.265   2.844   2.062
 2134SOL    HW2 6419   2.156   2.723   2.055
 2135SOL     OW 6420   3.320   2.597   2.590
 2135SOL    HW1 6421   3.315   2.532   2.665
 2135SOL    HW2 6422   3.400   2.656   2.603
 2136SOL     OW 6423   2.323   3.128   3.589
 2136SOL    HW1 6424   2.273   3.129   3.503
 2136SOL    HW2 6425   2.260   3.110   3.665
 2137SOL     OW 6426   2.973   3.638   2.099
 2137SOL    HW1 6427   2.913   3.576   2.149
 2137SOL    HW2 6428   3.004   3.594   2.014
 2138SOL     OW 6429   2.064   2.147   3.360
 2138SOL    HW1 6430   1.984   2.207   3.347
 2138SOL    HW2 6431   2.054   2.098   3.446
 2139SOL     OW 6432   3.494   3.239   1.943
 2139SOL    HW1 6433   3.462   3.333   1.933
 2139SOL    HW2 6434   3.418   3.176   1.931
 2140SOL     OW 6435   2.326   3.605   2.185
 2140SOL    HW1 6436   2.359   3.644   2.271
 2140SOL    HW2 6437   2.402   3.598   2.120
 2141SOL     OW 6438   3.262   1.969   2.288
 2141SOL    HW1 6439   3.238   1.932   2.198
 2141SOL    HW2 6440   3.361   1.985   2.292
 2142SOL     OW 6441   2.111   3.647   3.103
 2142SOL    HW1 6442   2.168   3.582   3.153
 2142SOL    HW2 6443   2.095   3.614   3.010
 2143SOL     OW 6444   2.802   3.560   2.766
 2143SOL    HW1 6445   2.882   3.503   2.787
 2143SOL    HW2 6446   2.753   3.520   2.689
 2144SOL     OW 6447   3.409   2.084   3.591
 2144SOL    HW1 6448   3.404   2.121   3.683
 2144SOL    HW2 6449   3.337   2.015   3.579
 2145SOL     OW 6450   2.476   1.984   1.979
 2145SOL    HW1 6451   2.574   1.962   1.986
 2145SOL    HW2 6452   2.445   1.967   1.886
 2146SOL     OW 6453   2.643   2.126   3.611
 2146SOL    HW1 6454   2.710   2.065   3.654
 2146SOL    HW2 6455   2.570   2.145   3.676
 2147SOL     OW 6456   2.750   3.376   3.057
 2147SOL    HW1 6457   2.727   3.351   2.963
 2147SOL    HW2 6458   2.811   3.307   3.096
 2148SOL     OW 6459   3.213   2.452   3.295
 2148SOL    HW1 6460   3.241   2.409   3.380
 2148SOL    HW2 6461   3.238   2.548   3.296
 2149SOL     OW 6462   2.665   3.264   2.786
 2149SOL    HW1 6463   2.755   3.278   2.744
 2149SOL    HW2 6464   2.594   3.266   2.715
 2150SOL     OW 6465   2.784   2.365   2.761
 2150SOL    HW1 6466   2.759   2.356   2.665
 2150SOL    HW2 6467   2.832   2.283   2.792
 2151SOL     OW 6468   2.401   1.926   2.374
 2151SOL    HW1 6469   2.320   1.927   2.432
 2151SOL    HW2 6470   2.404   2.009   2.319
 2152SOL     OW 6471   3.296   3.050   1.903
 2152SOL    HW1 6472   3.328   2.974   1.960
 2152SOL    HW2 6473   3.204   3.077   1.933
 2153SOL     OW 6474   2.159   1.897   2.033
 2153SOL    HW1 6475   2.208   1.981   2.012
 2153SOL    HW2 6476   2.221   1.832   2.078
 2154SOL     OW 6477   2.797   2.098   2.342
 2154SOL    HW1 6478   2.749   2.139   2.264
 2154SOL    HW2 6479   2.896   2.096   2.323
 2155SOL     OW 6480   2.938   2.545   3.326
 2155SOL    HW1 6481   2.858   2.484   3.329
 2155SOL    HW2 6482   3.019   2.492   3.302
 2156SOL     OW 6483   3.089   3.432   2.655
 2156SOL    HW1 6484   3.110   3.506   2.590
 2156SOL    HW2 6485   3.157   3.432   2.728
 2157SOL     OW 6486   2.321   3.014   2.603
 2157SOL    HW1 6487   2.250   2.987   2.668
 2157SOL    HW2 6488   2.295   2.986   2.510
 2158SOL     OW 6489   3.133   3.659   2.453
 2158SOL    HW1 6490   3.177   3.723   2.389
 2158SOL    HW2 6491   3.083   3.711   2.523
 2159SOL     OW 6492   2.894   2.411   1.878
 2159SOL    HW1 6493   2.853   2.493   1.839
 2159SOL    HW2 6494   2.958   2.437   1.951
 2160SOL     OW 6495   1.940   2.418   3.248
 2160SOL    HW1 6496   2.032   2.417   3.207
 2160SOL    HW2 6497   1.934   2.492   3.315
 2161SOL     OW 6498   2.423   2.084   3.009
 2161SOL    HW1 6499   2.461   2.000   3.046
 2161SOL    HW2 6500   2.335   2.103   3.053
 2162SOL     OW 6501   2.728   2.316   2.504
 2162SOL    HW1 6502   2.696   2.388   2.442
 2162SOL    HW2 6503   2.752   2.235   2.451
 2163SOL     OW 6504   2.879   1.901   2.615
 2163SOL    HW1 6505   2.807   1.906   2.546
 2163SOL    HW2 6506   2.855   1.832   2.684
 2164SOL     OW 6507   3.291   3.035   2.729
 2164SOL    HW1 6508   3.236   2.951   2.722
 2164SOL    HW2 6509   3.317   3.064   2.637
 2165SOL     OW 6510   3.328   2.452   2.854
 2165SOL    HW1 6511   3.298   2.357   2.861
 2165SOL    HW2 6512   3.401   2.468   2.920
 2166SOL     OW 6513   3.719   2.695   2.239
 2166SOL    HW1 6514   3.761   2.631   2.303
 2166SOL    HW2 6515   3.681   2.644   2.161
 2167SOL     OW 6516   2.350   3.247   2.036
 2167SOL    HW1 6517   2.263   3.232   2.083
 2167SOL    HW2 6518   2.333   3.273   1.941
 2168SOL     OW 6519   3.526   3.142   2.519
 2168SOL    HW1 6520   3.625   3.150   2.533
 2168SOL    HW2 6521   3.481   3.226   2.550
 2169SOL     OW 6522   3.252   2.437   1.940
 2169SOL    HW1 6523   3.198   2.416   2.021
 2169SOL    HW2 6524   3.343   2.396   1.949
 2170SOL     OW 6525   3.616   3.085   3.450
 2170SOL    HW1 6526   3.707   3.046   3.437
 2170SOL    HW2 6527   3.624   3.181   3.474
 2171SOL     OW 6528   2.926   3.209   3.202
 2171SOL    HW1 6529   2.846   3.186   3.257
 2171SOL    HW2 6530   3.009   3.183   3.251
 2172SOL     OW 6531   3.454   3.491   3.487
 2172SOL    HW1 6532   3.481   3.525   3.397
 2172SOL    HW2 6533   3.533   3.453   3.533
 2173SOL     OW 6534   2.973   3.057   2.962
 2173SOL    HW1 6535   2.933   3.101   3.043
 2173SOL    HW2 6536   2.932   3.094   2.879
 2174SOL     OW 6537   3.500   2.961   2.941
 2174SOL    HW1 6538   3.505   3.042   3.000
 2174SOL    HW2 6539   3.414   2.963   2.890
 2175SOL     OW 6540   2.777   1.951   3.264
 2175SOL    HW1 6541   2.802   1.931   3.169
 2175SOL    HW2 6542   2.849   2.007   3.306
 2176SOL     OW 6543   2.842   2.978   3.581
 2176SOL    HW1 6544   2.743   2.984   3.591
 2176SOL    HW2 6545   2.865   2.898   3.525
 2177SOL     OW 6546   2.567   2.912   2.230
 2177SOL    HW1 6547   2.553   2.919   2.329
 2177SOL    HW2 6548   2.651   2.861   2.212
 2178SOL     OW 6549   2.272   2.675   3.113
 2178SOL    HW1 6550   2.358   2.687   3.163
 2178SOL    HW2 6551   2.230   2.588   3.140
 2179SOL     OW 6552   3.136   2.248   3.124
 2179SOL    HW1 6553   3.157   2.322   3.188
 2179SOL    HW2 6554   3.047   2.265   3.081
 2180SOL     OW 6555   1.926   3.426   3.193
 2180SOL    HW1 6556   1.880   3.508   3.159
 2180SOL    HW2 6557   2.024   3.445   3.202
 2181SOL     OW 6558   2.229   2.962   2.363
 2181SOL    HW1 6559   2.222   3.045   2.307
 2181SOL    HW2 6560   2.233   2.882   2.303
 2182SOL     OW 6561   2.428   2.399   2.727
 2182SOL    HW1 6562   2.440   2.465   2.653
 2182SOL    HW2 6563   2.474   2.433   2.810
 2183SOL     OW 6564   3.114   3.210   2.250
 2183SOL    HW1 6565   3.164   3.287   2.290
 2183SOL    HW2 6566   3.019   3.212   2.282
 2184SOL     OW 6567   3.134   3.307   3.004
 2184SOL    HW1 6568   3.181   3.320   3.091
 2184SOL    HW2 6569   3.068   3.233   3.013
 2185SOL     OW 6570   3.444   2.501   2.334
 2185SOL    HW1 6571   3.413   2.562   2.407
 2185SOL    HW2 6572   3.494   2.553   2.265
 2186SOL     OW 6573   2.216   3.372   3.191
 2186SOL    HW1 6574   2.195   3.328   3.104
 2186SOL    HW2 6575   2.313   3.398   3.194
 2187SOL     OW 6576   2.264   2.613   3.460
 2187SOL    HW1 6577   2.332   2.668   3.413
 2187SOL    HW2 6578   2.304   2.525   3.487
 2188SOL     OW 6579   3.449   2.641   3.532
 2188SOL    HW1 6580   3.357   2.679   3.527
 2188SOL    HW2 6581   3.509   2.688   3.467
 2189SOL     OW 6582   2.875   1.967   3.632
 2189SOL    HW1 6583   2.881   2.052   3.580
 2189SOL    HW2 6584   2.907   1.891   3.575
 2190SOL     OW 6585   2.366   1.912   3.602
 2190SOL    HW1 6586   2.324   1.855   3.532
 2190SOL    HW2 6587   2.300   1.981   3.634
 2191SOL     OW 6588   2.435   2.732   2.891
 2191SOL    HW1 6589   2.479   2.821   2.882
 2191SOL    HW2 6590   2.372   2.732   2.968
 2192SOL     OW 6591   3.222   2.724   2.907
 2192SOL    HW1 6592   3.147   2.724   2.841
 2192SOL    HW2 6593   3.259   2.632   2.916
 2193SOL     OW 6594   3.071   2.387   2.137
 2193SOL    HW1 6595   3.084   2.303   2.191
 2193SOL    HW2 6596   3.042   2.461   2.197
 2194SOL     OW 6597   2.169   2.075   3.093
 2194SOL    HW1 6598   2.146   2.112   3.183
 2194SOL    HW2 6599   2.139   1.980   3.087
 2195SOL     OW 6600   1.899   3.172   3.144
 2195SOL    HW1 6601   1.952   3.123   3.212
 2195SOL    HW2 6602   1.921   3.270   3.149
 2196SOL     OW 6603   2.594   2.496   2.926
 2196SOL    HW1 6604   2.653   2.470   2.850
 2196SOL    HW2 6605   2.566   2.592   2.915
 2197SOL     OW 6606   3.590   2.797   3.716
 2197SOL    HW1 6607   3.544   2.790   3.627
 2197SOL    HW2 6608   3.528   2.841   3.782
 2198SOL     OW 6609   2.169   1.925   2.480
 2198SOL    HW1 6610   2.158   2.019   2.513
 2198SOL    HW2 6611   2.164   1.862   2.557
 2199SOL     OW 6612   3.484   2.229   2.236
 2199SOL    HW1 6613   3.486   2.153   2.300
 2199SOL    HW2 6614   3.436   2.306   2.276
 2200SOL     OW 6615   2.885   2.628   2.828
 2200SOL    HW1 6616   2.900   2.649   2.924
 2200SOL    HW2 6617   2.855   2.533   2.819
 2201SOL     OW 6618   2.842   3.435   3.562
 2201SOL    HW1 6619   2.822   3.479   3.474
 2201SOL    HW2 6620   2.881   3.344   3.546
 2202SOL     OW 6621   3.721   3.380   3.467
 2202SOL    HW1 6622   3.735   3.407   3.372
 2202SOL    HW2 6623   3.804   3.402   3.520
 2203SOL     OW 6624   2.212   2.760   3.666
 2203SOL    HW1 6625   2.288   2.804   3.714
 2203SOL    HW2 6626   2.247   2.713   3.584
 2204SOL     OW 6627   3.402   2.136   1.987
 2204SOL    HW1 6628   3.341   2.061   2.010
 2204SOL    HW2 6629   3.424   2.188   2.070
 2205SOL     OW 6630   3.165   2.700   1.904
 2205SOL    HW1 6631   3.199   2.607   1.919
 2205SOL    HW2 6632   3.183   2.727   1.809
 2206SOL     OW 6633   2.930   3.195   2.711
 2206SOL    HW1 6634   2.937   3.111   2.656
 2206SOL    HW2 6635   2.992   3.264   2.675
 2207SOL     OW 6636   2.181   2.672   2.811
 2207SOL    HW1 6637   2.274   2.708   2.816
 2207SOL    HW2 6638   2.175   2.587   2.863
 2208SOL     OW 6639   2.201   2.371   2.868
 2208SOL    HW1 6640   2.149   2.288   2.851
 2208SOL    HW2 6641   2.278   2.376   2.804
 2209SOL     OW 6642   3.000   2.242   3.540
 2209SOL    HW1 6643   2.955   2.305   3.604
 2209SOL    HW2 6644   3.093   2.273   3.523
 2210SOL     OW 6645   3.022   2.069   3.339
 2210SOL    HW1 6646   3.022   2.133   3.416
 2210SOL    HW2 6647   3.050   2.117   3.256
 2211SOL     OW 6648   1.870   3.188   2.062
 2211SOL    HW1 6649   1.777   3.209   2.031
 2211SOL    HW2 6650   1.880   3.089   2.075
 2212SOL     OW 6651   1.950   3.663   2.789
 2212SOL    HW1 6652   1.908   3.577   2.762
 2212SOL    HW2 6653   2.044   3.666   2.755
 2213SOL     OW 6654   2.366   3.430   2.772
 2213SOL    HW1 6655   2.432   3.504   2.781
 2213SOL    HW2 6656   2.410   3.351   2.730
 2214SOL     OW 6657   2.864   2.658   3.100
 2214SOL    HW1 6658   2.905   2.626   3.186
 2214SOL    HW2 6659   2.768   2.631   3.097
 2215SOL     OW 6660   1.902   2.406   2.976
 2215SOL    HW1 6661   1.987   2.373   2.935
 2215SOL    HW2 6662   1.915   2.421   3.074
 2216SOL     OW 6663   2.051   2.382   3.584
 2216SOL    HW1 6664   2.110   2.342   3.514
 2216SOL    HW2 6665   1.993   2.453   3.543
 2217SOL     OW 6666   3.231   2.812   3.522
 2217SOL    HW1 6667   3.270   2.901   3.542
 2217SOL    HW2 6668   3.241   2.792   3.425
 2218SOL     OW 6669   3.519   2.466   3.068
 2218SOL    HW1 6670   3.481   2.397   3.130
 2218SOL    HW2 6671   3.601   2.430   3.024
 2219SOL     OW 6672   2.114   3.426   3.606
 2219SOL    HW1 6673   2.084   3.483   3.682
 2219SOL    HW2 6674   2.107   3.329   3.632
 2220SOL     OW 6675   2.533   2.326   3.131
 2220SOL    HW1 6676   2.499   2.237   3.101
 2220SOL    HW2 6677   2.559   2.380   3.051
 2221SOL     OW 6678   2.792   3.540   3.327
 2221SOL    HW1 6679   2.768   3.522   3.232
 2221SOL    HW2 6680   2.822   3.634   3.337
 2222SOL     OW 6681   2.021   2.999   3.328
 2222SOL    HW1 6682   2.043   2.938   3.404
 2222SOL    HW2 6683   2.031   2.950   3.242
 2223SOL     OW 6684   3.209   2.921   3.096
 2223SOL    HW1 6685   3.233   2.858   3.022
 2223SOL    HW2 6686   3.119   2.961   3.078
 2224SOL     OW 6687   3.164   2.717   2.171
 2224SOL    HW1 6688   3.078   2.686   2.213
 2224SOL    HW2 6689   3.160   2.703   2.072
 2225SOL     OW 6690   3.621   3.609   3.016
 2225SOL    HW1 6691   3.682   3.639   2.943
 2225SOL    HW2 6692   3.583   3.520   2.994
 2226SOL     OW 6693   3.114   3.593   2.990
 2226SOL    HW1 6694   3.198   3.598   2.936
 2226SOL    HW2 6695   3.091   3.497   3.008
 2227SOL     OW 6696   1.945   3.120   2.884
 2227SOL    HW1 6697   1.940   3.119   2.984
 2227SOL    HW2 6698   1.862   3.079   2.846
 2228SOL     OW 6699   2.550   3.524   3.578
 2228SOL    HW1 6700   2.494   3.605   3.587
 2228SOL    HW2 6701   2.602   3.528   3.492
 2229SOL     OW 6702   3.588   1.997   2.385
 2229SOL    HW1 6703   3.661   1.980   2.318
 2229SOL    HW2 6704   3.557   1.910   2.423
 2230SOL     OW 6705   3.250   3.435   2.339
 2230SOL    HW1 6706   3.317   3.447   2.265
 2230SOL    HW2 6707   3.210   3.524   2.362
 2231SOL     OW 6708   1.992   3.656   3.713
 2231SOL    HW1 6709   1.951   3.582   3.766
 2231SOL    HW2 6710   2.056   3.707   3.771
 2232SOL     OW 6711   3.142   2.789   2.534
 2232SOL    HW1 6712   3.202   2.708   2.536
 2232SOL    HW2 6713   3.182   2.858   2.474
 2233SOL     OW 6714   2.692   3.135   3.284
 2233SOL    HW1 6715   2.687   3.168   3.379
 2233SOL    HW2 6716   2.606   3.154   3.238
 2234SOL     OW 6717   2.534   3.478   2.016
 2234SOL    HW1 6718   2.543   3.488   1.917
 2234SOL    HW2 6719   2.494   3.389   2.037
 2235SOL     OW 6720   3.512   3.582   3.256
 2235SOL    HW1 6721   3.565   3.592   3.172
 2235SOL    HW2 6722   3.485   3.672   3.290
 2236SOL     OW 6723   3.703   2.037   2.825
 2236SOL    HW1 6724   3.742   1.952   2.789
 2236SOL    HW2 6725   3.605   2.039   2.806
 2237SOL     OW 6726   3.056   3.474   1.893
 2237SOL    HW1 6727   3.062   3.381   1.930
 2237SOL    HW2 6728   2.997   3.474   1.813
 2238SOL     OW 6729   2.684   2.864   3.234
 2238SOL    HW1 6730   2.724   2.863   3.142
 2238SOL    HW2 6731   2.694   2.956   3.274
 2239SOL     OW 6732   2.778   2.772   2.153
 2239SOL    HW1 6733   2.841   2.810   2.085
 2239SOL    HW2 6734   2.818   2.689   2.192
 2240SOL     OW 6735   3.366   3.469   1.906
 2240SOL    HW1 6736   3.274   3.506   1.913
 2240SOL    HW2 6737   3.404   3.489   1.816
 2241SOL     OW 6738   2.234   3.150   3.352
 2241SOL    HW1 6739   2.221   3.243   3.318
 2241SOL    HW2 6740   2.150   3.098   3.339
 2242SOL     OW 6741   3.476   3.154   3.151
 2242SOL    HW1 6742   3.536   3.157   3.231
 2242SOL    HW2 6743   3.401   3.218   3.164
 2243SOL     OW 6744   2.901   2.960   2.558
 2243SOL    HW1 6745   2.831   2.913   2.612
 2243SOL    HW2 6746   2.960   2.892   2.515
 2244SOL     OW 6747   2.876   2.098   2.833
 2244SOL    HW1 6748   2.868   2.062   2.740
 2244SOL    HW2 6749   2.874   2.022   2.898
 2245SOL     OW 6750   2.452   3.349   2.353
 2245SOL    HW1 6751   2.494   3.291   2.283
 2245SOL    HW2 6752   2.408   3.428   2.309
 2246SOL     OW 6753   3.571   2.247   3.243
 2246SOL    HW1 6754   3.644   2.316   3.247
 2246SOL    HW2 6755   3.599   2.172   3.184
 2247SOL     OW 6756   2.117   3.210   2.152
 2247SOL    HW1 6757   2.021   3.211   2.125
 2247SOL    HW2 6758   2.129   3.263   2.236
 2248SOL     OW 6759   1.967   2.875   3.588
 2248SOL    HW1 6760   1.890   2.842   3.642
 2248SOL    HW2 6761   2.052   2.845   3.630
 2249SOL     OW 6762   2.534   2.065   3.351
 2249SOL    HW1 6763   2.624   2.049   3.311
 2249SOL    HW2 6764   2.542   2.070   3.450
 2250SOL     OW 6765   1.937   2.207   1.895
 2250SOL    HW1 6766   1.845   2.179   1.866
 2250SOL    HW2 6767   1.968   2.284   1.839
 2251SOL     OW 6768   3.302   2.718   3.260
 2251SOL    HW1 6769   3.245   2.770   3.197
 2251SOL    HW2 6770   3.398   2.730   3.236
 2252SOL     OW 6771   1.934   2.028   2.180
 2252SOL    HW1 6772   1.917   2.111   2.126
 2252SOL    HW2 6773   2.024   1.991   2.158
 2253SOL     OW 6774   3.045   3.197   1.981
 2253SOL    HW1 6775   2.946   3.186   1.983
 2253SOL    HW2 6776   3.079   3.212   2.074
 2254SOL     OW 6777   2.475   2.704   3.293
 2254SOL    HW1 6778   2.531   2.785   3.276
 2254SOL    HW2 6779   2.534   2.624   3.296
 2255SOL     OW 6780   3.355   3.629   2.821
 2255SOL    HW1 6781   3.388   3.693   2.752
 2255SOL    HW2 6782   3.421   3.623   2.896
 2256SOL     OW 6783   2.578   2.427   3.570
 2256SOL    HW1 6784   2.597   2.492   3.644
 2256SOL    HW2 6785   2.638   2.347   3.579
 2257SOL     OW 6786   3.312   3.082   3.495
 2257SOL    HW1 6787   3.303   3.072   3.594
 2257SOL    HW2 6788   3.408   3.075   3.469
 2258SOL     OW 6789   2.252   3.603   3.422
 2258SOL    HW1 6790   2.161   3.644   3.420
 2258SOL    HW2 6791   2.245   3.509   3.454
 2259SOL     OW 6792   3.536   2.745   3.116
 2259SOL    HW1 6793   3.509   2.656   3.079
 2259SOL    HW2 6794   3.537   2.813   3.043
 2260SOL     OW 6795   3.087   2.187   2.311
 2260SOL    HW1 6796   3.152   2.113   2.300
 2260SOL    HW2 6797   3.107   2.237   2.395
 2261SOL     OW 6798   3.639   2.204   3.504
 2261SOL    HW1 6799   3.622   2.235   3.410
 2261SOL    HW2 6800   3.555   2.167   3.542
 2262SOL     OW 6801   3.592   2.796   3.379
 2262SOL    HW1 6802   3.630   2.887   3.394
 2262SOL    HW2 6803   3.584   2.779   3.280
 2263SOL     OW 6804   2.721   3.236   1.878
 2263SOL    HW1 6805   2.675   3.251   1.966
 2263SOL    HW2 6806   2.765   3.321   1.848
 2264SOL     OW 6807   2.523   3.652   2.815
 2264SOL    HW1 6808   2.477   3.740   2.802
 2264SOL    HW2 6809   2.622   3.664   2.808
 2265SOL     OW 6810   2.721   2.818   2.723
 2265SOL    HW1 6811   2.775   2.749   2.771
 2265SOL    HW2 6812   2.689   2.887   2.789
 2266SOL     OW 6813   2.945   2.846   1.949
 2266SOL    HW1 6814   2.922   2.899   1.867
 2266SOL    HW2 6815   3.026   2.790   1.930
 2267SOL     OW 6816   3.723   3.431   2.713
 2267SOL    HW1 6817   3.652   3.419   2.643
 2267SOL    HW2 6818   3.724   3.352   2.773
 2268SOL     OW 6819   2.083   3.176   3.706
 2268SOL    HW1 6820   2.018   3.103   3.685
 2268SOL    HW2 6821   2.087   3.190   3.804
 2269SOL     OW 6822   1.941   3.102   2.515
 2269SOL    HW1 6823   1.940   3.055   2.603
 2269SOL    HW2 6824   2.023   3.074   2.464
 2270SOL     OW 6825   2.534   3.253   3.486
 2270SOL    HW1 6826   2.456   3.203   3.524
 2270SOL    HW2 6827   2.531   3.348   3.517
 2271SOL     OW 6828   3.686   2.054   3.089
 2271SOL    HW1 6829   3.682   1.964   3.133
 2271SOL    HW2 6830   3.689   2.043   2.990
 2272SOL     OW 6831   3.567   3.349   2.966
 2272SOL    HW1 6832   3.474   3.324   2.939
 2272SOL    HW2 6833   3.593   3.299   3.048
 2273SOL     OW 6834   2.179   2.409   3.142
 2273SOL    HW1 6835   2.217   2.350   3.214
 2273SOL    HW2 6836   2.219   2.383   3.054
 2274SOL     OW 6837   2.674   3.448   2.549
 2274SOL    HW1 6838   2.706   3.458   2.455
 2274SOL    HW2 6839   2.595   3.386   2.551
 2275SOL     OW 6840   3.286   2.076   2.974
 2275SOL    HW1 6841   3.338   2.011   3.029
 2275SOL    HW2 6842   3.237   2.139   3.035
 2276SOL     OW 6843   2.863   1.896   3.016
 2276SOL    HW1 6844   2.800   1.824   2.985
 2276SOL    HW2 6845   2.956   1.860   3.016
 2277SOL     OW 6846   2.632   3.192   2.163
 2277SOL    HW1 6847   2.586   3.105   2.180
 2277SOL    HW2 6848   2.723   3.189   2.204
 2278SOL     OW 6849   2.480   3.429   3.146
 2278SOL    HW1 6850   2.475   3.511   3.203
 2278SOL    HW2 6851   2.569   3.426   3.101
 2279SOL     OW 6852   3.214   1.914   2.030
 2279SOL    HW1 6853   3.249   1.873   1.946
 2279SOL    HW2 6854   3.124   1.876   2.050
 2280SOL     OW 6855   3.162   2.315   2.553
 2280SOL    HW1 6856   3.103   2.395   2.557
 2280SOL    HW2 6857   3.177   2.280   2.646
 2281SOL     OW 6858   3.455   2.083   2.744
 2281SOL    HW1 6859   3.371   2.082   2.798
 2281SOL    HW2 6860   3.457   2.166   2.688
 2282SOL     OW 6861   1.901   2.939   2.162
 2282SOL    HW1 6862   2.000   2.928   2.153
 2282SOL    HW2 6863   1.861   2.853   2.194
 2283SOL     OW 6864   2.737   3.508   2.199
 2283SOL    HW1 6865   2.660   3.473   2.145
 2283SOL    HW2 6866   2.705   3.579   2.261
 2284SOL     OW 6867   2.092   2.490   3.837
 2284SOL    HW1 6868   1.999   2.488   3.874
 2284SOL    HW2 6869   2.093   2.451   3.745
 2285SOL     OW 6870   2.087   2.137   4.720
 2285SOL    HW1 6871   2.122   2.120   4.812
 2285SOL    HW2 6872   1.999   2.092   4.708
 2286SOL     OW 6873   1.881   2.230   4.371
 2286SOL    HW1 6874   1.799   2.273   4.410
 2286SOL    HW2 6875   1.853   2.157   4.308
 2287SOL     OW 6876   3.417   3.373   4.427
 2287SOL    HW1 6877   3.360   3.357   4.508
 2287SOL    HW2 6878   3.358   3.383   4.347
 2288SOL     OW 6879   2.997   2.565   4.441
 2288SOL    HW1 6880   3.054   2.643   4.416
 2288SOL    HW2 6881   2.937   2.591   4.517
 2289SOL     OW 6882   3.617   2.469   3.955
 2289SOL    HW1 6883   3.605   2.456   3.856
 2289SOL    HW2 6884   3.587   2.388   4.004
 2290SOL     OW 6885   2.547   2.874   4.389
 2290SOL    HW1 6886   2.616   2.858   4.459
 2290SOL    HW2 6887   2.474   2.931   4.427
 2291SOL     OW 6888   3.465   2.309   4.461
 2291SOL    HW1 6889   3.391   2.355   4.411
 2291SOL    HW2 6890   3.516   2.377   4.514
 2292SOL     OW 6891   2.093   3.575   4.207
 2292SOL    HW1 6892   2.127   3.652   4.261
 2292SOL    HW2 6893   2.137   3.575   4.117
 2293SOL     OW 6894   2.092   3.296   4.262
 2293SOL    HW1 6895   2.066   3.392   4.262
 2293SOL    HW2 6896   2.021   3.242   4.307
 2294SOL     OW 6897   2.102   2.953   4.610
 2294SOL    HW1 6898   2.116   2.869   4.662
 2294SOL    HW2 6899   2.047   3.017   4.665
 2295SOL     OW 6900   2.468   2.826   3.847
 2295SOL    HW1 6901   2.475   2.910   3.793
 2295SOL    HW2 6902   2.514   2.839   3.935
 2296SOL     OW 6903   1.984   2.505   4.287
 2296SOL    HW1 6904   1.939   2.417   4.304
 2296SOL    HW2 6905   1.983   2.559   4.371
 2297SOL     OW 6906   3.704   3.629   4.083
 2297SOL    HW1 6907   3.758   3.600   4.163
 2297SOL    HW2 6908   3.734   3.719   4.054
 2298SOL     OW 6909   1.889   3.458   3.841
 2298SOL    HW1 6910   1.870   3.362   3.862
 2298SOL    HW2 6911   1.856   3.516   3.916
 2299SOL     OW 6912   3.551   2.784   4.336
 2299SOL    HW1 6913   3.646   2.755   4.344
 2299SOL    HW2 6914   3.543   2.849   4.261
 2300SOL     OW 6915   3.503   2.970   4.156
 2300SOL    HW1 6916   3.589   2.972   4.104
 2300SOL    HW2 6917   3.517   3.017   4.244
 2301SOL     OW 6918   2.475   3.227   4.450
 2301SOL    HW1 6919   2.426   3.140   4.459
 2301SOL    HW2 6920   2.452   3.270   4.363
 2302SOL     OW 6921   2.671   1.866   4.226
 2302SOL    HW1 6922   2.711   1.957   4.217
 2302SOL    HW2 6923   2.571   1.874   4.232
 2303SOL     OW 6924   3.387   2.861   3.914
 2303SOL    HW1 6925   3.324   2.785   3.927
 2303SOL    HW2 6926   3.435   2.879   4.000
 2304SOL     OW 6927   3.328   3.279   4.677
 2304SOL    HW1 6928   3.269   3.285   4.757
 2304SOL    HW2 6929   3.313   3.191   4.631
 2305SOL     OW 6930   3.529   3.576   4.296
 2305SOL    HW1 6931   3.488   3.553   4.208
 2305SOL    HW2 6932   3.511   3.502   4.361
 2306SOL     OW 6933   2.460   2.591   3.994
 2306SOL    HW1 6934   2.484   2.660   3.926
 2306SOL    HW2 6935   2.382   2.624   4.048
 2307SOL     OW 6936   3.143   2.207   4.668
 2307SOL    HW1 6937   3.057   2.157   4.655
 2307SOL    HW2 6938   3.205   2.153   4.724
 2308SOL     OW 6939   3.438   3.524   4.031
 2308SOL    HW1 6940   3.527   3.570   4.034
 2308SOL    HW2 6941   3.417   3.500   3.936
 2309SOL     OW 6942   2.903   2.563   4.153
 2309SOL    HW1 6943   2.929   2.559   4.249
 2309SOL    HW2 6944   2.818   2.512   4.139
 2310SOL     OW 6945   1.938   2.673   4.513
 2310SOL    HW1 6946   2.037   2.661   4.522
 2310SOL    HW2 6947   1.914   2.768   4.534
 2311SOL     OW 6948   2.727   2.210   3.919
 2311SOL    HW1 6949   2.786   2.273   3.870
 2311SOL    HW2 6950   2.746   2.116   3.890
 2312SOL     OW 6951   3.224   3.006   4.269
 2312SOL    HW1 6952   3.307   2.977   4.221
 2312SOL    HW2 6953   3.175   3.073   4.213
 2313SOL     OW 6954   2.412   2.058   4.609
 2313SOL    HW1 6955   2.407   2.053   4.709
 2313SOL    HW2 6956   2.414   2.154   4.580
 2314SOL     OW 6957   2.870   3.318   4.201
 2314SOL    HW1 6958   2.824   3.390   4.149
 2314SOL    HW2 6959   2.866   3.338   4.299
 2315SOL     OW 6960   2.213   3.663   4.577
 2315SOL    HW1 6961   2.263   3.577   4.583
 2315SOL    HW2 6962   2.278   3.740   4.574
 2316SOL     OW 6963   3.657   2.928   4.597
 2316SOL    HW1 6964   3.595   2.913   4.521
 2316SOL    HW2 6965   3.605   2.939   4.682
 2317SOL     OW 6966   2.183   2.805   3.966
 2317SOL    HW1 6967   2.265   2.844   3.924
 2317SOL    HW2 6968   2.156   2.723   3.917
 2318SOL     OW 6969   3.320   2.597   4.452
 2318SOL    HW1 6970   3.315   2.532   4.527
 2318SOL    HW2 6971   3.400   2.656   4.465
 2319SOL     OW 6972   2.973   3.638   3.961
 2319SOL    HW1 6973   2.913   3.576   4.011
 2319SOL    HW2 6974   3.004   3.594   3.876
 2320SOL     OW 6975   3.494   3.239   3.805
 2320SOL    HW1 6976   3.462   3.333   3.795
 2320SOL    HW2 6977   3.418   3.176   3.793
 2321SOL     OW 6978   2.326   3.605   4.047
 2321SOL    HW1 6979   2.359   3.644   4.133
 2321SOL    HW2 6980   2.402   3.598   3.982
 2322SOL     OW 6981   3.262   1.969   4.150
 2322SOL    HW1 6982   3.238   1.932   4.060
 2322SOL    HW2 6983   3.361   1.985   4.154
 2323SOL     OW 6984   2.244   2.562   4.204
 2323SOL    HW1 6985   2.289   2.472   4.201
 2323SOL    HW2 6986   2.150   2.551   4.237
 2324SOL     OW 6987   2.476   1.984   3.841
 2324SOL    HW1 6988   2.574   1.962   3.848
 2324SOL    HW2 6989   2.445   1.967   3.748
 2325SOL     OW 6990   2.401   1.926   4.236
 2325SOL    HW1 6991   2.320   1.927   4.294
 2325SOL    HW2 6992   2.404   2.009   4.181
 2326SOL     OW 6993   3.296   3.050   3.765
 2326SOL    HW1 6994   3.328   2.974   3.822
 2326SOL    HW2 6995   3.204   3.077   3.795
 2327SOL     OW 6996   2.159   1.897   3.895
 2327SOL    HW1 6997   2.208   1.981   3.874
 2327SOL    HW2 6998   2.221   1.832   3.940
 2328SOL     OW 6999   2.797   2.098   4.204
 2328SOL    HW1 7000   2.749   2.139   4.126
 2328SOL    HW2 7001   2.896   2.096   4.185
 2329SOL     OW 7002   3.089   3.432   4.517
 2329SOL    HW1 7003   3.110   3.506   4.452
 2329SOL    HW2 7004   3.157   3.432   4.590
 2330SOL     OW 7005   2.321   3.014   4.465
 2330SOL    HW1 7006   2.250   2.987   4.530
 2330SOL    HW2 7007   2.295   2.986   4.372
 2331SOL     OW 7008   3.133   3.659   4.315
 2331SOL    HW1 7009   3.177   3.723   4.251
 2331SOL    HW2 7010   3.083   3.711   4.385
 2332SOL     OW 7011   2.894   2.411   3.740
 2332SOL    HW1 7012   2.853   2.493   3.701
 2332SOL    HW2 7013   2.958   2.437   3.813
 2333SOL     OW 7014   2.728   2.316   4.366
 2333SOL    HW1 7015   2.696   2.388   4.304
 2333SOL    HW2 7016   2.752   2.235   4.313
 2334SOL     OW 7017   2.879   1.901   4.477
 2334SOL    HW1 7018   2.807   1.906   4.408
 2334SOL    HW2 7019   2.855   1.832   4.546
 2335SOL     OW 7020   3.719   2.695   4.101
 2335SOL    HW1 7021   3.761   2.631   4.165
 2335SOL    HW2 7022   3.681   2.644   4.023
 2336SOL     OW 7023   2.350   3.247   3.898
 2336SOL    HW1 7024   2.263   3.232   3.945
 2336SOL    HW2 7025   2.333   3.273   3.803
 2337SOL     OW 7026   3.526   3.142   4.381
 2337SOL    HW1 7027   3.625   3.150   4.395
 2337SOL    HW2 7028   3.481   3.226   4.412
 2338SOL     OW 7029   3.252   2.437   3.802
 2338SOL    HW1 7030   3.198   2.416   3.883
 2338SOL    HW2 7031   3.343   2.396   3.811
 2339SOL     OW 7032   2.389   2.118   4.052
 2339SOL    HW1 7033   2.416   2.059   3.977
 2339SOL    HW2 7034   2.389   2.213   4.021
 2340SOL     OW 7035   2.567   2.912   4.092
 2340SOL    HW1 7036   2.553   2.919   4.191
 2340SOL    HW2 7037   2.651   2.861   4.074
 2341SOL     OW 7038   2.229   2.962   4.225
 2341SOL    HW1 7039   2.222   3.045   4.169
 2341SOL    HW2 7040   2.233   2.882   4.165
 2342SOL     OW 7041   2.428   2.399   4.589
 2342SOL    HW1 7042   2.440   2.465   4.515
 2342SOL    HW2 7043   2.474   2.433   4.672
 2343SOL     OW 7044   3.114   3.210   4.112
 2343SOL    HW1 7045   3.164   3.287   4.152
 2343SOL    HW2 7046   3.019   3.212   4.144
 2344SOL     OW 7047   3.444   2.501   4.196
 2344SOL    HW1 7048   3.413   2.562   4.269
 2344SOL    HW2 7049   3.494   2.553   4.127
 2345SOL     OW 7050   3.071   2.387   3.999
 2345SOL    HW1 7051   3.084   2.303   4.053
 2345SOL    HW2 7052   3.042   2.461   4.059
 2346SOL     OW 7053   2.594   2.496   4.788
 2346SOL    HW1 7054   2.653   2.470   4.712
 2346SOL    HW2 7055   2.566   2.592   4.777
 2347SOL     OW 7056   2.169   1.925   4.342
 2347SOL    HW1 7057   2.158   2.019   4.375
 2347SOL    HW2 7058   2.164   1.862   4.419
 2348SOL     OW 7059   3.484   2.229   4.098
 2348SOL    HW1 7060   3.486   2.153   4.162
 2348SOL    HW2 7061   3.436   2.306   4.138
 2349SOL     OW 7062   3.402   2.136   3.849
 2349SOL    HW1 7063   3.341   2.061   3.872
 2349SOL    HW2 7064   3.424   2.188   3.932
 2350SOL     OW 7065   3.165   2.700   3.766
 2350SOL    HW1 7066   3.199   2.607   3.781
 2350SOL    HW2 7067   3.183   2.727   3.671
 2351SOL     OW 7068   2.930   3.195   4.573
 2351SOL    HW1 7069   2.937   3.111   4.518
 2351SOL    HW2 7070   2.992   3.264   4.537
 2352SOL     OW 7071   2.181   2.672   4.673
 2352SOL    HW1 7072   2.274   2.708   4.678
 2352SOL    HW2 7073   2.175   2.587   4.725
 2353SOL     OW 7074   1.870   3.188   3.924
 2353SOL    HW1 7075   1.777   3.209   3.893
 2353SOL    HW2 7076   1.880   3.089   3.937
 2354SOL     OW 7077   1.950   3.663   4.651
 2354SOL    HW1 7078   1.908   3.577   4.624
 2354SOL    HW2 7079   2.044   3.666   4.617
 2355SOL     OW 7080   2.366   3.430   4.634
 2355SOL    HW1 7081   2.432   3.504   4.643
 2355SOL    HW2 7082   2.410   3.351   4.592
 2356SOL     OW 7083   2.677   2.434   4.049
 2356SOL    HW1 7084   2.684   2.345   4.003
 2356SOL    HW2 7085   2.583   2.468   4.041
 2357SOL     OW 7086   2.335   2.362   3.915
 2357SOL    HW1 7087   2.396   2.442   3.919
 2357SOL    HW2 7088   2.240   2.393   3.922
 2358SOL     OW 7089   3.164   2.717   4.033
 2358SOL    HW1 7090   3.078   2.686   4.075
 2358SOL    HW2 7091   3.160   2.703   3.934
 2359SOL     OW 7092   3.621   3.609   4.878
 2359SOL    HW1 7093   3.682   3.639   4.805
 2359SOL    HW2 7094   3.583   3.520   4.856
 2360SOL     OW 7095   3.588   1.997   4.247
 2360SOL    HW1 7096   3.661   1.980   4.180
 2360SOL    HW2 7097   3.557   1.910   4.285
 2361SOL     OW 7098   3.250   3.435   4.201
 2361SOL    HW1 7099   3.317   3.447   4.127
 2361SOL    HW2 7100   3.210   3.524   4.224
 2362SOL     OW 7101   3.142   2.789   4.396
 2362SOL    HW1 7102   3.202   2.708   4.398
 2362SOL    HW2 7103   3.182   2.858   4.336
 2363SOL     OW 7104   2.534   3.478   3.878
 2363SOL    HW1 7105   2.543   3.488   3.779
 2363SOL    HW2 7106   2.494   3.389   3.899
 2364SOL     OW 7107   3.703   2.037   4.687
 2364SOL    HW1 7108   3.742   1.952   4.651
 2364SOL    HW2 7109   3.605   2.039   4.668
 2365SOL     OW 7110   2.125   2.188   4.444
 2365SOL    HW1 7111   2.046   2.239   4.410
 2365SOL    HW2 7112   2.116   2.173   4.542
 2366SOL     OW 7113   3.056   3.474   3.755
 2366SOL    HW1 7114   3.062   3.381   3.792
 2366SOL    HW2 7115   2.997   3.474   3.675
 2367SOL     OW 7116   2.778   2.772   4.015
 2367SOL    HW1 7117   2.841   2.810   3.947
 2367SOL    HW2 7118   2.818   2.689   4.054
 2368SOL     OW 7119   3.366   3.469   3.768
 2368SOL    HW1 7120   3.274   3.506   3.775
 2368SOL    HW2 7121   3.404   3.489   3.678
 2369SOL     OW 7122   2.901   2.960   4.420
 2369SOL    HW1 7123   2.831   2.913   4.474
 2369SOL    HW2 7124   2.960   2.892   4.377
 2370SOL     OW 7125   2.452   3.349   4.215
 2370SOL    HW1 7126   2.494   3.291   4.145
 2370SOL    HW2 7127   2.408   3.428   4.171
 2371SOL     OW 7128   2.117   3.210   4.014
 2371SOL    HW1 7129   2.021   3.211   3.987
 2371SOL    HW2 7130   2.129   3.263   4.098
 2372SOL     OW 7131   1.937   2.207   3.757
 2372SOL    HW1 7132   1.845   2.179   3.728
 2372SOL    HW2 7133   1.968   2.284   3.701
 2373SOL     OW 7134   1.934   2.028   4.042
 2373SOL    HW1 7135   1.917   2.111   3.988
 2373SOL    HW2 7136   2.024   1.991   4.020
 2374SOL     OW 7137   3.045   3.197   3.843
 2374SOL    HW1 7138   2.946   3.186   3.845
 2374SOL    HW2 7139   3.079   3.212   3.936
 2375SOL     OW 7140   3.536   2.745   4.978
 2375SOL    HW1 7141   3.509   2.656   4.941
 2375SOL    HW2 7142   3.537   2.813   4.905
 2376SOL     OW 7143   3.087   2.187   4.173
 2376SOL    HW1 7144   3.152   2.113   4.162
 2376SOL    HW2 7145   3.107   2.237   4.257
 2377SOL     OW 7146   2.456   2.607   4.376
 2377SOL    HW1 7147   2.506   2.692   4.357
 2377SOL    HW2 7148   2.368   2.609   4.328
 2378SOL     OW 7149   2.721   3.236   3.740
 2378SOL    HW1 7150   2.675   3.251   3.828
 2378SOL    HW2 7151   2.765   3.321   3.710
 2379SOL     OW 7152   2.523   3.652   4.677
 2379SOL    HW1 7153   2.477   3.740   4.664
 2379SOL    HW2 7154   2.622   3.664   4.670
 2380SOL     OW 7155   2.721   2.818   4.585
 2380SOL    HW1 7156   2.775   2.749   4.633
 2380SOL    HW2 7157   2.689   2.887   4.651
 2381SOL     OW 7158   2.945   2.846   3.811
 2381SOL    HW1 7159   2.922   2.899   3.729
 2381SOL    HW2 7160   3.026   2.790   3.792
 2382SOL     OW 7161   3.723   3.431   4.575
 2382SOL    HW1 7162   3.652   3.419   4.505
 2382SOL    HW2 7163   3.724   3.352   4.635
 2383SOL     OW 7164   1.941   3.102   4.377
 2383SOL    HW1 7165   1.940   3.055   4.465
 2383SOL    HW2 7166   2.023   3.074   4.326
 2384SOL     OW 7167   2.290   2.286   4.244
 2384SOL    HW1 7168   2.320   2.214   4.182
 2384SOL    HW2 7169   2.251   2.246   4.327
 2385SOL     OW 7170   2.674   3.448   4.411
 2385SOL    HW1 7171   2.706   3.458   4.317
 2385SOL    HW2 7172   2.595   3.386   4.413
 2386SOL     OW 7173   2.632   3.192   4.025
 2386SOL    HW1 7174   2.586   3.105   4.042
 2386SOL    HW2 7175   2.723   3.189   4.066
 2387SOL     OW 7176   3.214   1.914   3.892
 2387SOL    HW1 7177   3.249   1.873   3.808
 2387SOL    HW2 7178   3.124   1.876   3.912
 2388SOL     OW 7179   3.162   2.315   4.415
 2388SOL    HW1 7180   3.103   2.395   4.419
 2388SOL    HW2 7181   3.177   2.280   4.508
 2389SOL     OW 7182   3.455   2.083   4.606
 2389SOL    HW1 7183   3.371   2.082   4.660
 2389SOL    HW2 7184   3.457   2.166   4.550
 2390SOL     OW 7185   1.901   2.939   4.024
 2390SOL    HW1 7186   2.000   2.928   4.015
 2390SOL    HW2 7187   1.861   2.853   4.056
 2391SOL     OW 7188   2.737   3.508   4.061
 2391SOL    HW1 7189   2.660   3.473   4.007
 2391SOL    HW2 7190   2.705   3.579   4.123
 2392SOL     OW 7191   2.092   4.352   0.113
 2392SOL    HW1 7192   1.999   4.350   0.150
 2392SOL    HW2 7193   2.093   4.313   0.021
 2393SOL     OW 7194   2.087   3.999   0.996
 2393SOL    HW1 7195   2.122   3.982   1.088
 2393SOL    HW2 7196   1.999   3.954   0.984
 2394SOL     OW 7197   1.881   4.092   0.647
 2394SOL    HW1 7198   1.799   4.135   0.686
 2394SOL    HW2 7199   1.853   4.019   0.584
 2395SOL     OW 7200   2.997   4.427   0.717
 2395SOL    HW1 7201   3.054   4.505   0.692
 2395SOL    HW2 7202   2.937   4.453   0.793
 2396SOL     OW 7203   3.617   4.331   0.231
 2396SOL    HW1 7204   3.605   4.318   0.132
 2396SOL    HW2 7205   3.587   4.250   0.280
 2397SOL     OW 7206   2.712   4.522   1.823
 2397SOL    HW1 7207   2.708   4.598   1.888
 2397SOL    HW2 7208   2.734   4.558   1.732
 2398SOL     OW 7209   2.547   4.736   0.665
 2398SOL    HW1 7210   2.616   4.720   0.735
 2398SOL    HW2 7211   2.474   4.793   0.703
 2399SOL     OW 7212   2.300   4.116   1.499
 2399SOL    HW1 7213   2.382   4.060   1.508
 2399SOL    HW2 7214   2.219   4.058   1.503
 2400SOL     OW 7215   3.465   4.171   0.737
 2400SOL    HW1 7216   3.391   4.217   0.687
 2400SOL    HW2 7217   3.516   4.239   0.790
 2401SOL     OW 7218   3.456   3.838   1.480
 2401SOL    HW1 7219   3.438   3.905   1.408
 2401SOL    HW2 7220   3.453   3.884   1.569
 2402SOL     OW 7221   1.984   4.367   0.563
 2402SOL    HW1 7222   1.939   4.279   0.580
 2402SOL    HW2 7223   1.983   4.421   0.647
 2403SOL     OW 7224   1.975   4.461   1.597
 2403SOL    HW1 7225   2.063   4.448   1.642
 2403SOL    HW2 7226   1.962   4.558   1.575
 2404SOL     OW 7227   2.671   3.728   0.502
 2404SOL    HW1 7228   2.711   3.819   0.493
 2404SOL    HW2 7229   2.571   3.736   0.508
 2405SOL     OW 7230   3.387   4.723   0.190
 2405SOL    HW1 7231   3.324   4.647   0.203
 2405SOL    HW2 7232   3.435   4.741   0.276
 2406SOL     OW 7233   2.179   3.975   1.801
 2406SOL    HW1 7234   2.250   4.046   1.807
 2406SOL    HW2 7235   2.091   4.014   1.829
 2407SOL     OW 7236   2.460   4.453   0.270
 2407SOL    HW1 7237   2.484   4.522   0.202
 2407SOL    HW2 7238   2.382   4.486   0.324
 2408SOL     OW 7239   3.143   4.069   0.944
 2408SOL    HW1 7240   3.057   4.019   0.931
 2408SOL    HW2 7241   3.205   4.015   1.000
 2409SOL     OW 7242   2.669   4.329   1.465
 2409SOL    HW1 7243   2.622   4.326   1.554
 2409SOL    HW2 7244   2.618   4.274   1.399
 2410SOL     OW 7245   3.256   4.193   1.674
 2410SOL    HW1 7246   3.236   4.236   1.762
 2410SOL    HW2 7247   3.334   4.131   1.683
 2411SOL     OW 7248   2.835   4.614   1.572
 2411SOL    HW1 7249   2.881   4.530   1.543
 2411SOL    HW2 7250   2.779   4.648   1.497
 2412SOL     OW 7251   2.853   4.134   1.242
 2412SOL    HW1 7252   2.776   4.168   1.296
 2412SOL    HW2 7253   2.819   4.083   1.163
 2413SOL     OW 7254   2.903   4.425   0.429
 2413SOL    HW1 7255   2.929   4.421   0.525
 2413SOL    HW2 7256   2.818   4.374   0.415
 2414SOL     OW 7257   1.938   4.535   0.789
 2414SOL    HW1 7258   2.037   4.523   0.798
 2414SOL    HW2 7259   1.914   4.630   0.810
 2415SOL     OW 7260   2.727   4.072   0.195
 2415SOL    HW1 7261   2.786   4.135   0.146
 2415SOL    HW2 7262   2.746   3.978   0.166
 2416SOL     OW 7263   3.581   4.309   1.831
 2416SOL    HW1 7264   3.555   4.398   1.795
 2416SOL    HW2 7265   3.579   4.241   1.758
 2417SOL     OW 7266   2.412   3.920   0.885
 2417SOL    HW1 7267   2.407   3.915   0.985
 2417SOL    HW2 7268   2.414   4.016   0.856
 2418SOL     OW 7269   3.320   4.459   0.728
 2418SOL    HW1 7270   3.315   4.394   0.803
 2418SOL    HW2 7271   3.400   4.518   0.741
 2419SOL     OW 7272   2.064   4.009   1.498
 2419SOL    HW1 7273   1.984   4.069   1.485
 2419SOL    HW2 7274   2.054   3.960   1.584
 2420SOL     OW 7275   3.262   3.831   0.426
 2420SOL    HW1 7276   3.238   3.794   0.336
 2420SOL    HW2 7277   3.361   3.847   0.430
 2421SOL     OW 7278   2.244   4.424   0.480
 2421SOL    HW1 7279   2.289   4.334   0.477
 2421SOL    HW2 7280   2.150   4.413   0.513
 2422SOL     OW 7281   3.409   3.946   1.729
 2422SOL    HW1 7282   3.404   3.983   1.821
 2422SOL    HW2 7283   3.337   3.877   1.717
 2423SOL     OW 7284   2.643   3.988   1.749
 2423SOL    HW1 7285   2.710   3.927   1.792
 2423SOL    HW2 7286   2.570   4.007   1.814
 2424SOL     OW 7287   3.213   4.314   1.433
 2424SOL    HW1 7288   3.241   4.271   1.518
 2424SOL    HW2 7289   3.238   4.410   1.434
 2425SOL     OW 7290   2.784   4.227   0.899
 2425SOL    HW1 7291   2.759   4.218   0.803
 2425SOL    HW2 7292   2.832   4.145   0.930
 2426SOL     OW 7293   2.401   3.788   0.512
 2426SOL    HW1 7294   2.320   3.789   0.570
 2426SOL    HW2 7295   2.404   3.871   0.457
 2427SOL     OW 7296   2.159   3.759   0.171
 2427SOL    HW1 7297   2.208   3.843   0.150
 2427SOL    HW2 7298   2.221   3.694   0.216
 2428SOL     OW 7299   2.797   3.960   0.480
 2428SOL    HW1 7300   2.749   4.001   0.402
 2428SOL    HW2 7301   2.896   3.958   0.461
 2429SOL     OW 7302   2.938   4.407   1.464
 2429SOL    HW1 7303   2.858   4.346   1.467
 2429SOL    HW2 7304   3.019   4.354   1.440
 2430SOL     OW 7305   2.894   4.273   0.016
 2430SOL    HW1 7306   2.853   4.355  -0.023
 2430SOL    HW2 7307   2.958   4.299   0.089
 2431SOL     OW 7308   1.940   4.280   1.386
 2431SOL    HW1 7309   2.032   4.279   1.345
 2431SOL    HW2 7310   1.934   4.354   1.453
 2432SOL     OW 7311   2.423   3.946   1.147
 2432SOL    HW1 7312   2.461   3.862   1.184
 2432SOL    HW2 7313   2.335   3.965   1.191
 2433SOL     OW 7314   2.728   4.178   0.642
 2433SOL    HW1 7315   2.696   4.250   0.580
 2433SOL    HW2 7316   2.752   4.097   0.589
 2434SOL     OW 7317   2.879   3.763   0.753
 2434SOL    HW1 7318   2.807   3.768   0.684
 2434SOL    HW2 7319   2.855   3.694   0.822
 2435SOL     OW 7320   3.328   4.314   0.992
 2435SOL    HW1 7321   3.298   4.219   0.999
 2435SOL    HW2 7322   3.401   4.330   1.058
 2436SOL     OW 7323   3.719   4.557   0.377
 2436SOL    HW1 7324   3.761   4.493   0.441
 2436SOL    HW2 7325   3.681   4.506   0.299
 2437SOL     OW 7326   3.252   4.299   0.078
 2437SOL    HW1 7327   3.198   4.278   0.159
 2437SOL    HW2 7328   3.343   4.258   0.087
 2438SOL     OW 7329   2.389   3.980   0.328
 2438SOL    HW1 7330   2.416   3.921   0.253
 2438SOL    HW2 7331   2.389   4.075   0.297
 2439SOL     OW 7332   3.500   4.823   1.079
 2439SOL    HW1 7333   3.505   4.904   1.138
 2439SOL    HW2 7334   3.414   4.825   1.028
 2440SOL     OW 7335   2.777   3.813   1.402
 2440SOL    HW1 7336   2.802   3.793   1.307
 2440SOL    HW2 7337   2.849   3.869   1.444
 2441SOL     OW 7338   2.272   4.537   1.251
 2441SOL    HW1 7339   2.358   4.549   1.301
 2441SOL    HW2 7340   2.230   4.450   1.278
 2442SOL     OW 7341   3.136   4.110   1.262
 2442SOL    HW1 7342   3.157   4.184   1.326
 2442SOL    HW2 7343   3.047   4.127   1.219
 2443SOL     OW 7344   2.428   4.261   0.865
 2443SOL    HW1 7345   2.440   4.327   0.791
 2443SOL    HW2 7346   2.474   4.295   0.948
 2444SOL     OW 7347   3.444   4.363   0.472
 2444SOL    HW1 7348   3.413   4.424   0.545
 2444SOL    HW2 7349   3.494   4.415   0.403
 2445SOL     OW 7350   2.264   4.475   1.598
 2445SOL    HW1 7351   2.332   4.530   1.551
 2445SOL    HW2 7352   2.304   4.387   1.625
 2446SOL     OW 7353   3.449   4.503   1.670
 2446SOL    HW1 7354   3.357   4.541   1.665
 2446SOL    HW2 7355   3.509   4.550   1.605
 2447SOL     OW 7356   2.875   3.829   1.770
 2447SOL    HW1 7357   2.881   3.914   1.718
 2447SOL    HW2 7358   2.907   3.753   1.713
 2448SOL     OW 7359   2.366   3.774   1.740
 2448SOL    HW1 7360   2.324   3.717   1.670
 2448SOL    HW2 7361   2.300   3.843   1.772
 2449SOL     OW 7362   2.435   4.594   1.029
 2449SOL    HW1 7363   2.479   4.683   1.020
 2449SOL    HW2 7364   2.372   4.594   1.106
 2450SOL     OW 7365   3.222   4.586   1.045
 2450SOL    HW1 7366   3.147   4.586   0.979
 2450SOL    HW2 7367   3.259   4.494   1.054
 2451SOL     OW 7368   3.071   4.249   0.275
 2451SOL    HW1 7369   3.084   4.165   0.329
 2451SOL    HW2 7370   3.042   4.323   0.335
 2452SOL     OW 7371   2.169   3.937   1.231
 2452SOL    HW1 7372   2.146   3.974   1.321
 2452SOL    HW2 7373   2.139   3.842   1.225
 2453SOL     OW 7374   2.594   4.358   1.064
 2453SOL    HW1 7375   2.653   4.332   0.988
 2453SOL    HW2 7376   2.566   4.454   1.053
 2454SOL     OW 7377   3.590   4.659   1.854
 2454SOL    HW1 7378   3.544   4.652   1.765
 2454SOL    HW2 7379   3.528   4.703   1.920
 2455SOL     OW 7380   2.169   3.787   0.618
 2455SOL    HW1 7381   2.158   3.881   0.651
 2455SOL    HW2 7382   2.164   3.724   0.695
 2456SOL     OW 7383   3.484   4.091   0.374
 2456SOL    HW1 7384   3.486   4.015   0.438
 2456SOL    HW2 7385   3.436   4.168   0.414
 2457SOL     OW 7386   2.885   4.490   0.966
 2457SOL    HW1 7387   2.900   4.511   1.062
 2457SOL    HW2 7388   2.855   4.395   0.957
 2458SOL     OW 7389   2.212   4.622   1.804
 2458SOL    HW1 7390   2.288   4.666   1.852
 2458SOL    HW2 7391   2.247   4.575   1.722
 2459SOL     OW 7392   3.402   3.998   0.125
 2459SOL    HW1 7393   3.341   3.923   0.148
 2459SOL    HW2 7394   3.424   4.050   0.208
 2460SOL     OW 7395   3.165   4.562   0.042
 2460SOL    HW1 7396   3.199   4.469   0.057
 2460SOL    HW2 7397   3.183   4.589  -0.053
 2461SOL     OW 7398   2.181   4.534   0.949
 2461SOL    HW1 7399   2.274   4.570   0.954
 2461SOL    HW2 7400   2.175   4.449   1.001
 2462SOL     OW 7401   2.201   4.233   1.006
 2462SOL    HW1 7402   2.149   4.150   0.989
 2462SOL    HW2 7403   2.278   4.238   0.942
 2463SOL     OW 7404   3.000   4.104   1.678
 2463SOL    HW1 7405   2.955   4.167   1.742
 2463SOL    HW2 7406   3.093   4.135   1.661
 2464SOL     OW 7407   3.022   3.931   1.477
 2464SOL    HW1 7408   3.022   3.995   1.554
 2464SOL    HW2 7409   3.050   3.979   1.394
 2465SOL     OW 7410   2.864   4.520   1.238
 2465SOL    HW1 7411   2.905   4.488   1.324
 2465SOL    HW2 7412   2.768   4.493   1.235
 2466SOL     OW 7413   1.902   4.268   1.114
 2466SOL    HW1 7414   1.987   4.235   1.073
 2466SOL    HW2 7415   1.915   4.283   1.212
 2467SOL     OW 7416   2.051   4.244   1.722
 2467SOL    HW1 7417   2.110   4.204   1.652
 2467SOL    HW2 7418   1.993   4.315   1.681
 2468SOL     OW 7419   2.677   4.296   0.325
 2468SOL    HW1 7420   2.684   4.207   0.279
 2468SOL    HW2 7421   2.583   4.330   0.317
 2469SOL     OW 7422   3.519   4.328   1.206
 2469SOL    HW1 7423   3.481   4.259   1.268
 2469SOL    HW2 7424   3.601   4.292   1.162
 2470SOL     OW 7425   2.533   4.188   1.269
 2470SOL    HW1 7426   2.499   4.099   1.239
 2470SOL    HW2 7427   2.559   4.242   1.189
 2471SOL     OW 7428   2.335   4.224   0.191
 2471SOL    HW1 7429   2.396   4.304   0.195
 2471SOL    HW2 7430   2.240   4.255   0.198
 2472SOL     OW 7431   3.209   4.783   1.234
 2472SOL    HW1 7432   3.233   4.720   1.160
 2472SOL    HW2 7433   3.119   4.823   1.216
 2473SOL     OW 7434   3.164   4.579   0.309
 2473SOL    HW1 7435   3.078   4.548   0.351
 2473SOL    HW2 7436   3.160   4.565   0.210
 2474SOL     OW 7437   2.765   3.810   0.133
 2474SOL    HW1 7438   2.816   3.811   0.047
 2474SOL    HW2 7439   2.821   3.768   0.204
 2475SOL     OW 7440   3.588   3.859   0.523
 2475SOL    HW1 7441   3.661   3.842   0.456
 2475SOL    HW2 7442   3.557   3.772   0.561
 2476SOL     OW 7443   3.142   4.651   0.672
 2476SOL    HW1 7444   3.202   4.570   0.674
 2476SOL    HW2 7445   3.182   4.720   0.612
 2477SOL     OW 7446   3.703   3.899   0.963
 2477SOL    HW1 7447   3.742   3.814   0.927
 2477SOL    HW2 7448   3.605   3.901   0.944
 2478SOL     OW 7449   2.125   4.050   0.720
 2478SOL    HW1 7450   2.046   4.101   0.686
 2478SOL    HW2 7451   2.116   4.035   0.818
 2479SOL     OW 7452   2.876   3.960   0.971
 2479SOL    HW1 7453   2.868   3.924   0.878
 2479SOL    HW2 7454   2.874   3.884   1.036
 2480SOL     OW 7455   3.571   4.109   1.381
 2480SOL    HW1 7456   3.644   4.178   1.385
 2480SOL    HW2 7457   3.599   4.034   1.322
 2481SOL     OW 7458   1.967   4.737   1.726
 2481SOL    HW1 7459   1.890   4.704   1.780
 2481SOL    HW2 7460   2.052   4.707   1.768
 2482SOL     OW 7461   2.534   3.927   1.489
 2482SOL    HW1 7462   2.624   3.911   1.449
 2482SOL    HW2 7463   2.542   3.932   1.588
 2483SOL     OW 7464   3.302   4.580   1.398
 2483SOL    HW1 7465   3.245   4.632   1.335
 2483SOL    HW2 7466   3.398   4.592   1.374
 2484SOL     OW 7467   1.934   3.890   0.318
 2484SOL    HW1 7468   1.917   3.973   0.264
 2484SOL    HW2 7469   2.024   3.853   0.296
 2485SOL     OW 7470   2.475   4.566   1.431
 2485SOL    HW1 7471   2.531   4.647   1.414
 2485SOL    HW2 7472   2.534   4.486   1.434
 2486SOL     OW 7473   2.578   4.289   1.708
 2486SOL    HW1 7474   2.597   4.354   1.782
 2486SOL    HW2 7475   2.638   4.209   1.717
 2487SOL     OW 7476   3.536   4.607   1.254
 2487SOL    HW1 7477   3.509   4.518   1.217
 2487SOL    HW2 7478   3.537   4.675   1.181
 2488SOL     OW 7479   3.087   4.049   0.449
 2488SOL    HW1 7480   3.152   3.975   0.438
 2488SOL    HW2 7481   3.107   4.099   0.533
 2489SOL     OW 7482   2.456   4.469   0.652
 2489SOL    HW1 7483   2.506   4.554   0.633
 2489SOL    HW2 7484   2.368   4.471   0.604
 2490SOL     OW 7485   3.639   4.066   1.642
 2490SOL    HW1 7486   3.622   4.097   1.548
 2490SOL    HW2 7487   3.555   4.029   1.680
 2491SOL     OW 7488   3.592   4.658   1.517
 2491SOL    HW1 7489   3.630   4.749   1.532
 2491SOL    HW2 7490   3.584   4.641   1.418
 2492SOL     OW 7491   3.686   3.916   1.227
 2492SOL    HW1 7492   3.682   3.826   1.271
 2492SOL    HW2 7493   3.689   3.905   1.128
 2493SOL     OW 7494   2.290   4.148   0.520
 2493SOL    HW1 7495   2.320   4.076   0.458
 2493SOL    HW2 7496   2.251   4.108   0.603
 2494SOL     OW 7497   2.179   4.271   1.280
 2494SOL    HW1 7498   2.217   4.212   1.352
 2494SOL    HW2 7499   2.219   4.245   1.192
 2495SOL     OW 7500   3.286   3.938   1.112
 2495SOL    HW1 7501   3.338   3.873   1.167
 2495SOL    HW2 7502   3.237   4.001   1.173
 2496SOL     OW 7503   2.863   3.758   1.154
 2496SOL    HW1 7504   2.800   3.686   1.123
 2496SOL    HW2 7505   2.956   3.722   1.154
 2497SOL     OW 7506   3.214   3.776   0.168
 2497SOL    HW1 7507   3.249   3.735   0.084
 2497SOL    HW2 7508   3.124   3.738   0.188
 2498SOL     OW 7509   3.162   4.177   0.691
 2498SOL    HW1 7510   3.103   4.257   0.695
 2498SOL    HW2 7511   3.177   4.142   0.784
 2499SOL     OW 7512   3.455   3.945   0.882
 2499SOL    HW1 7513   3.371   3.944   0.936
 2499SOL    HW2 7514   3.457   4.028   0.826
 2500SOL     OW 7515   2.092   4.352   1.975
 2500SOL    HW1 7516   1.999   4.350   2.012
 2500SOL    HW2 7517   2.093   4.313   1.883
 2501SOL     OW 7518   2.087   3.999   2.858
 2501SOL    HW1 7519   2.122   3.982   2.950
 2501SOL    HW2 7520   1.999   3.954   2.846
 2502SOL     OW 7521   1.881   4.092   2.509
 2502SOL    HW1 7522   1.799   4.135   2.548
 2502SOL    HW2 7523   1.853   4.019   2.446
 2503SOL     OW 7524   2.997   4.427   2.579
 2503SOL    HW1 7525   3.054   4.505   2.554
 2503SOL    HW2 7526   2.937   4.453   2.655
 2504SOL     OW 7527   3.617   4.331   2.093
 2504SOL    HW1 7528   3.605   4.318   1.994
 2504SOL    HW2 7529   3.587   4.250   2.142
 2505SOL     OW 7530   2.712   4.522   3.685
 2505SOL    HW1 7531   2.708   4.598   3.750
 2505SOL    HW2 7532   2.734   4.558   3.594
 2506SOL     OW 7533   2.547   4.736   2.527
 2506SOL    HW1 7534   2.616   4.720   2.597
 2506SOL    HW2 7535   2.474   4.793   2.565
 2507SOL     OW 7536   2.300   4.116   3.361
 2507SOL    HW1 7537   2.382   4.060   3.370
 2507SOL    HW2 7538   2.219   4.058   3.365
 2508SOL     OW 7539   3.465   4.171   2.599
 2508SOL    HW1 7540   3.391   4.217   2.549
 2508SOL    HW2 7541   3.516   4.239   2.652
 2509SOL     OW 7542   3.456   3.838   3.342
 2509SOL    HW1 7543   3.438   3.905   3.270
 2509SOL    HW2 7544   3.453   3.884   3.431
 2510SOL     OW 7545   1.984   4.367   2.425
 2510SOL    HW1 7546   1.939   4.279   2.442
 2510SOL    HW2 7547   1.983   4.421   2.509
 2511SOL     OW 7548   1.975   4.461   3.459
 2511SOL    HW1 7549   2.063   4.448   3.504
 2511SOL    HW2 7550   1.962   4.558   3.437
 2512SOL     OW 7551   2.671   3.728   2.364
 2512SOL    HW1 7552   2.711   3.819   2.355
 2512SOL    HW2 7553   2.571   3.736   2.370
 2513SOL     OW 7554   3.387   4.723   2.052
 2513SOL    HW1 7555   3.324   4.647   2.065
 2513SOL    HW2 7556   3.435   4.741   2.138
 2514SOL     OW 7557   2.179   3.975   3.663
 2514SOL    HW1 7558   2.250   4.046   3.669
 2514SOL    HW2 7559   2.091   4.014   3.691
 2515SOL     OW 7560   2.460   4.453   2.132
 2515SOL    HW1 7561   2.484   4.522   2.064
 2515SOL    HW2 7562   2.382   4.486   2.186
 2516SOL     OW 7563   3.143   4.069   2.806
 2516SOL    HW1 7564   3.057   4.019   2.793
 2516SOL    HW2 7565   3.205   4.015   2.862
 2517SOL     OW 7566   2.669   4.329   3.327
 2517SOL    HW1 7567   2.622   4.326   3.416
 2517SOL    HW2 7568   2.618   4.274   3.261
 2518SOL     OW 7569   3.256   4.193   3.536
 2518SOL    HW1 7570   3.236   4.236   3.624
 2518SOL    HW2 7571   3.334   4.131   3.545
 2519SOL     OW 7572   2.835   4.614   3.434
 2519SOL    HW1 7573   2.881   4.530   3.405
 2519SOL    HW2 7574   2.779   4.648   3.359
 2520SOL     OW 7575   2.853   4.134   3.104
 2520SOL    HW1 7576   2.776   4.168   3.158
 2520SOL    HW2 7577   2.819   4.083   3.025
 2521SOL     OW 7578   2.903   4.425   2.291
 2521SOL    HW1 7579   2.929   4.421   2.387
 2521SOL    HW2 7580   2.818   4.374   2.277
 2522SOL     OW 7581   1.938   4.535   2.651
 2522SOL    HW1 7582   2.037   4.523   2.660
 2522SOL    HW2 7583   1.914   4.630   2.672
 2523SOL     OW 7584   2.727   4.072   2.057
 2523SOL    HW1 7585   2.786   4.135   2.008
 2523SOL    HW2 7586   2.746   3.978   2.028
 2524SOL     OW 7587   3.581   4.309   3.693
 2524SOL    HW1 7588   3.555   4.398   3.657
 2524SOL    HW2 7589   3.579   4.241   3.620
 2525SOL     OW 7590   2.412   3.920   2.747
 2525SOL    HW1 7591   2.407   3.915   2.847
 2525SOL    HW2 7592   2.414   4.016   2.718
 2526SOL     OW 7593   3.320   4.459   2.590
 2526SOL    HW1 7594   3.315   4.394   2.665
 2526SOL    HW2 7595   3.400   4.518   2.603
 2527SOL     OW 7596   2.064   4.009   3.360
 2527SOL    HW1 7597   1.984   4.069   3.347
 2527SOL    HW2 7598   2.054   3.960   3.446
 2528SOL     OW 7599   3.262   3.831   2.288
 2528SOL    HW1 7600   3.238   3.794   2.198
 2528SOL    HW2 7601   3.361   3.847   2.292
 2529SOL     OW 7602   2.244   4.424   2.342
 2529SOL    HW1 7603   2.289   4.334   2.339
 2529SOL    HW2 7604   2.150   4.413   2.375
 2530SOL     OW 7605   3.409   3.946   3.591
 2530SOL    HW1 7606   3.404   3.983   3.683
 2530SOL    HW2 7607   3.337   3.877   3.579
 2531SOL     OW 7608   2.476   3.846   1.979
 2531SOL    HW1 7609   2.574   3.824   1.986
 2531SOL    HW2 7610   2.445   3.829   1.886
 2532SOL     OW 7611   2.643   3.988   3.611
 2532SOL    HW1 7612   2.710   3.927   3.654
 2532SOL    HW2 7613   2.570   4.007   3.676
 2533SOL     OW 7614   3.213   4.314   3.295
 2533SOL    HW1 7615   3.241   4.271   3.380
 2533SOL    HW2 7616   3.238   4.410   3.296
 2534SOL     OW 7617   2.784   4.227   2.761
 2534SOL    HW1 7618   2.759   4.218   2.665
 2534SOL    HW2 7619   2.832   4.145   2.792
 2535SOL     OW 7620   2.401   3.788   2.374
 2535SOL    HW1 7621   2.320   3.789   2.432
 2535SOL    HW2 7622   2.404   3.871   2.319
 2536SOL     OW 7623   2.159   3.759   2.033
 2536SOL    HW1 7624   2.208   3.843   2.012
 2536SOL    HW2 7625   2.221   3.694   2.078
 2537SOL     OW 7626   2.797   3.960   2.342
 2537SOL    HW1 7627   2.749   4.001   2.264
 2537SOL    HW2 7628   2.896   3.958   2.323
 2538SOL     OW 7629   2.938   4.407   3.326
 2538SOL    HW1 7630   2.858   4.346   3.329
 2538SOL    HW2 7631   3.019   4.354   3.302
 2539SOL     OW 7632   2.894   4.273   1.878
 2539SOL    HW1 7633   2.853   4.355   1.839
 2539SOL    HW2 7634   2.958   4.299   1.951
 2540SOL     OW 7635   1.940   4.280   3.248
 2540SOL    HW1 7636   2.032   4.279   3.207
 2540SOL    HW2 7637   1.934   4.354   3.315
 2541SOL     OW 7638   2.423   3.946   3.009
 2541SOL    HW1 7639   2.461   3.862   3.046
 2541SOL    HW2 7640   2.335   3.965   3.053
 2542SOL     OW 7641   2.728   4.178   2.504
 2542SOL    HW1 7642   2.696   4.250   2.442
 2542SOL    HW2 7643   2.752   4.097   2.451
 2543SOL     OW 7644   2.879   3.763   2.615
 2543SOL    HW1 7645   2.807   3.768   2.546
 2543SOL    HW2 7646   2.855   3.694   2.684
 2544SOL     OW 7647   3.328   4.314   2.854
 2544SOL    HW1 7648   3.298   4.219   2.861
 2544SOL    HW2 7649   3.401   4.330   2.920
 2545SOL     OW 7650   3.719   4.557   2.239
 2545SOL    HW1 7651   3.761   4.493   2.303
 2545SOL    HW2 7652   3.681   4.506   2.161
 2546SOL     OW 7653   3.252   4.299   1.940
 2546SOL    HW1 7654   3.198   4.278   2.021
 2546SOL    HW2 7655   3.343   4.258   1.949
 2547SOL     OW 7656   2.389   3.980   2.190
 2547SOL    HW1 7657   2.416   3.921   2.115
 2547SOL    HW2 7658   2.389   4.075   2.159
 2548SOL     OW 7659   3.500   4.823   2.941
 2548SOL    HW1 7660   3.505   4.904   3.000
 2548SOL    HW2 7661   3.414   4.825   2.890
 2549SOL     OW 7662   2.777   3.813   3.264
 2549SOL    HW1 7663   2.802   3.793   3.169
 2549SOL    HW2 7664   2.849   3.869   3.306
 2550SOL     OW 7665   2.272   4.537   3.113
 2550SOL    HW1 7666   2.358   4.549   3.163
 2550SOL    HW2 7667   2.230   4.450   3.140
 2551SOL     OW 7668   3.136   4.110   3.124
 2551SOL    HW1 7669   3.157   4.184   3.188
 2551SOL    HW2 7670   3.047   4.127   3.081
 2552SOL     OW 7671   2.428   4.261   2.727
 2552SOL    HW1 7672   2.440   4.327   2.653
 2552SOL    HW2 7673   2.474   4.295   2.810
 2553SOL     OW 7674   3.444   4.363   2.334
 2553SOL    HW1 7675   3.413   4.424   2.407
 2553SOL    HW2 7676   3.494   4.415   2.265
 2554SOL     OW 7677   2.264   4.475   3.460
 2554SOL    HW1 7678   2.332   4.530   3.413
 2554SOL    HW2 7679   2.304   4.387   3.487
 2555SOL     OW 7680   3.449   4.503   3.532
 2555SOL    HW1 7681   3.357   4.541   3.527
 2555SOL    HW2 7682   3.509   4.550   3.467
 2556SOL     OW 7683   2.875   3.829   3.632
 2556SOL    HW1 7684   2.881   3.914   3.580
 2556SOL    HW2 7685   2.907   3.753   3.575
 2557SOL     OW 7686   2.366   3.774   3.602
 2557SOL    HW1 7687   2.324   3.717   3.532
 2557SOL    HW2 7688   2.300   3.843   3.634
 2558SOL     OW 7689   2.435   4.594   2.891
 2558SOL    HW1 7690   2.479   4.683   2.882
 2558SOL    HW2 7691   2.372   4.594   2.968
 2559SOL     OW 7692   3.222   4.586   2.907
 2559SOL    HW1 7693   3.147   4.586   2.841
 2559SOL    HW2 7694   3.259   4.494   2.916
 2560SOL     OW 7695   3.071   4.249   2.137
 2560SOL    HW1 7696   3.084   4.165   2.191
 2560SOL    HW2 7697   3.042   4.323   2.197
 2561SOL     OW 7698   2.169   3.937   3.093
 2561SOL    HW1 7699   2.146   3.974   3.183
 2561SOL    HW2 7700   2.139   3.842   3.087
 2562SOL     OW 7701   2.594   4.358   2.926
 2562SOL    HW1 7702   2.653   4.332   2.850
 2562SOL    HW2 7703   2.566   4.454   2.915
 2563SOL     OW 7704   3.590   4.659   3.716
 2563SOL    HW1 7705   3.544   4.652   3.627
 2563SOL    HW2 7706   3.528   4.703   3.782
 2564SOL     OW 7707   2.169   3.787   2.480
 2564SOL    HW1 7708   2.158   3.881   2.513
 2564SOL    HW2 7709   2.164   3.724   2.557
 2565SOL     OW 7710   3.484   4.091   2.236
 2565SOL    HW1 7711   3.486   4.015   2.300
 2565SOL    HW2 7712   3.436   4.168   2.276
 2566SOL     OW 7713   2.885   4.490   2.828
 2566SOL    HW1 7714   2.900   4.511   2.924
 2566SOL    HW2 7715   2.855   4.395   2.819
 2567SOL     OW 7716   2.212   4.622   3.666
 2567SOL    HW1 7717   2.288   4.666   3.714
 2567SOL    HW2 7718   2.247   4.575   3.584
 2568SOL     OW 7719   3.402   3.998   1.987
 2568SOL    HW1 7720   3.341   3.923   2.010
 2568SOL    HW2 7721   3.424   4.050   2.070
 2569SOL     OW 7722   3.165   4.562   1.904
 2569SOL    HW1 7723   3.199   4.469   1.919
 2569SOL    HW2 7724   3.183   4.589   1.809
 2570SOL     OW 7725   2.181   4.534   2.811
 2570SOL    HW1 7726   2.274   4.570   2.816
 2570SOL    HW2 7727   2.175   4.449   2.863
 2571SOL     OW 7728   2.201   4.233   2.868
 2571SOL    HW1 7729   2.149   4.150   2.851
 2571SOL    HW2 7730   2.278   4.238   2.804
 2572SOL     OW 7731   3.000   4.104   3.540
 2572SOL    HW1 7732   2.955   4.167   3.604
 2572SOL    HW2 7733   3.093   4.135   3.523
 2573SOL     OW 7734   3.022   3.931   3.339
 2573SOL    HW1 7735   3.022   3.995   3.416
 2573SOL    HW2 7736   3.050   3.979   3.256
 2574SOL     OW 7737   2.864   4.520   3.100
 2574SOL    HW1 7738   2.905   4.488   3.186
 2574SOL    HW2 7739   2.768   4.493   3.097
 2575SOL     OW 7740   1.902   4.268   2.976
 2575SOL    HW1 7741   1.987   4.235   2.935
 2575SOL    HW2 7742   1.915   4.283   3.074
 2576SOL     OW 7743   2.051   4.244   3.584
 2576SOL    HW1 7744   2.110   4.204   3.514
 2576SOL    HW2 7745   1.993   4.315   3.543
 2577SOL     OW 7746   2.677   4.296   2.187
 2577SOL    HW1 7747   2.684   4.207   2.141
 2577SOL    HW2 7748   2.583   4.330   2.179
 2578SOL     OW 7749   3.519   4.328   3.068
 2578SOL    HW1 7750   3.481   4.259   3.130
 2578SOL    HW2 7751   3.601   4.292   3.024
 2579SOL     OW 7752   2.533   4.188   3.131
 2579SOL    HW1 7753   2.499   4.099   3.101
 2579SOL    HW2 7754   2.559   4.242   3.051
 2580SOL     OW 7755   2.335   4.224   2.053
 2580SOL    HW1 7756   2.396   4.304   2.057
 2580SOL    HW2 7757   2.240   4.255   2.060
 2581SOL     OW 7758   3.209   4.783   3.096
 2581SOL    HW1 7759   3.233   4.720   3.022
 2581SOL    HW2 7760   3.119   4.823   3.078
 2582SOL     OW 7761   3.164   4.579   2.171
 2582SOL    HW1 7762   3.078   4.548   2.213
 2582SOL    HW2 7763   3.160   4.565   2.072
 2583SOL     OW 7764   3.588   3.859   2.385
 2583SOL    HW1 7765   3.661   3.842   2.318
 2583SOL    HW2 7766   3.557   3.772   2.423
 2584SOL     OW 7767   3.142   4.651   2.534
 2584SOL    HW1 7768   3.202   4.570   2.536
 2584SOL    HW2 7769   3.182   4.720   2.474
 2585SOL     OW 7770   3.703   3.899   2.825
 2585SOL    HW1 7771   3.742   3.814   2.789
 2585SOL    HW2 7772   3.605   3.901   2.806
 2586SOL     OW 7773   2.125   4.050   2.582
 2586SOL    HW1 7774   2.046   4.101   2.548
 2586SOL    HW2 7775   2.116   4.035   2.680
 2587SOL     OW 7776   2.778   4.634   2.153
 2587SOL    HW1 7777   2.841   4.672   2.085
 2587SOL    HW2 7778   2.818   4.551   2.192
 2588SOL     OW 7779   2.876   3.960   2.833
 2588SOL    HW1 7780   2.868   3.924   2.740
 2588SOL    HW2 7781   2.874   3.884   2.898
 2589SOL     OW 7782   3.571   4.109   3.243
 2589SOL    HW1 7783   3.644   4.178   3.247
 2589SOL    HW2 7784   3.599   4.034   3.184
 2590SOL     OW 7785   1.967   4.737   3.588
 2590SOL    HW1 7786   1.890   4.704   3.642
 2590SOL    HW2 7787   2.052   4.707   3.630
 2591SOL     OW 7788   2.534   3.927   3.351
 2591SOL    HW1 7789   2.624   3.911   3.311
 2591SOL    HW2 7790   2.542   3.932   3.450
 2592SOL     OW 7791   1.937   4.069   1.895
 2592SOL    HW1 7792   1.845   4.041   1.866
 2592SOL    HW2 7793   1.968   4.146   1.839
 2593SOL     OW 7794   3.302   4.580   3.260
 2593SOL    HW1 7795   3.245   4.632   3.197
 2593SOL    HW2 7796   3.398   4.592   3.236
 2594SOL     OW 7797   1.934   3.890   2.180
 2594SOL    HW1 7798   1.917   3.973   2.126
 2594SOL    HW2 7799   2.024   3.853   2.158
 2595SOL     OW 7800   2.475   4.566   3.293
 2595SOL    HW1 7801   2.531   4.647   3.276
 2595SOL    HW2 7802   2.534   4.486   3.296
 2596SOL     OW 7803   2.578   4.289   3.570
 2596SOL    HW1 7804   2.597   4.354   3.644
 2596SOL    HW2 7805   2.638   4.209   3.579
 2597SOL     OW 7806   3.536   4.607   3.116
 2597SOL    HW1 7807   3.509   4.518   3.079
 2597SOL    HW2 7808   3.537   4.675   3.043
 2598SOL     OW 7809   3.087   4.049   2.311
 2598SOL    HW1 7810   3.152   3.975   2.300
 2598SOL    HW2 7811   3.107   4.099   2.395
 2599SOL     OW 7812   2.456   4.469   2.514
 2599SOL    HW1 7813   2.506   4.554   2.495
 2599SOL    HW2 7814   2.368   4.471   2.466
 2600SOL     OW 7815   3.639   4.066   3.504
 2600SOL    HW1 7816   3.622   4.097   3.410
 2600SOL    HW2 7817   3.555   4.029   3.542
 2601SOL     OW 7818   3.592   4.658   3.379
 2601SOL    HW1 7819   3.630   4.749   3.394
 2601SOL    HW2 7820   3.584   4.641   3.280
 2602SOL     OW 7821   3.686   3.916   3.089
 2602SOL    HW1 7822   3.682   3.826   3.133
 2602SOL    HW2 7823   3.689   3.905   2.990
 2603SOL     OW 7824   2.290   4.148   2.382
 2603SOL    HW1 7825   2.320   4.076   2.320
 2603SOL    HW2 7826   2.251   4.108   2.465
 2604SOL     OW 7827   2.179   4.271   3.142
 2604SOL    HW1 7828   2.217   4.212   3.214
 2604SOL    HW2 7829   2.219   4.245   3.054
 2605SOL     OW 7830   3.286   3.938   2.974
 2605SOL    HW1 7831   3.338   3.873   3.029
 2605SOL    HW2 7832   3.237   4.001   3.035
 2606SOL     OW 7833   2.863   3.758   3.016
 2606SOL    HW1 7834   2.800   3.686   2.985
 2606SOL    HW2 7835   2.956   3.722   3.016
 2607SOL     OW 7836   3.214   3.776   2.030
 2607SOL    HW1 7837   3.249   3.735   1.946
 2607SOL    HW2 7838   3.124   3.738   2.050
 2608SOL     OW 7839   3.162   4.177   2.553
 2608SOL    HW1 7840   3.103   4.257   2.557
 2608SOL    HW2 7841   3.177   4.142   2.646
 2609SOL     OW 7842   3.455   3.945   2.744
 2609SOL    HW1 7843   3.371   3.944   2.798
 2609SOL    HW2 7844   3.457   4.028   2.688
 2610SOL     OW 7845   2.092   4.352   3.837
 2610SOL    HW1 7846   1.999   4.350   3.874
 2610SOL    HW2 7847   2.093   4.313   3.745
 2611SOL     OW 7848   2.087   3.999   4.720
 2611SOL    HW1 7849   2.122   3.982   4.812
 2611SOL    HW2 7850   1.999   3.954   4.708
 2612SOL     OW 7851   1.881   4.092   4.371
 2612SOL    HW1 7852   1.799   4.135   4.410
 2612SOL    HW2 7853   1.853   4.019   4.308
 2613SOL     OW 7854   2.997   4.427   4.441
 2613SOL    HW1 7855   3.054   4.505   4.416
 2613SOL    HW2 7856   2.937   4.453   4.517
 2614SOL     OW 7857   3.617   4.331   3.955
 2614SOL    HW1 7858   3.605   4.318   3.856
 2614SOL    HW2 7859   3.587   4.250   4.004
 2615SOL     OW 7860   2.547   4.736   4.389
 2615SOL    HW1 7861   2.616   4.720   4.459
 2615SOL    HW2 7862   2.474   4.793   4.427
 2616SOL     OW 7863   3.465   4.171   4.461
 2616SOL    HW1 7864   3.391   4.217   4.411
 2616SOL    HW2 7865   3.516   4.239   4.514
 2617SOL     OW 7866   1.984   4.367   4.287
 2617SOL    HW1 7867   1.939   4.279   4.304
 2617SOL    HW2 7868   1.983   4.421   4.371
 2618SOL     OW 7869   2.671   3.728   4.226
 2618SOL    HW1 7870   2.711   3.819   4.217
 2618SOL    HW2 7871   2.571   3.736   4.232
 2619SOL     OW 7872   3.387   4.723   3.914
 2619SOL    HW1 7873   3.324   4.647   3.927
 2619SOL    HW2 7874   3.435   4.741   4.000
 2620SOL     OW 7875   2.460   4.453   3.994
 2620SOL    HW1 7876   2.484   4.522   3.926
 2620SOL    HW2 7877   2.382   4.486   4.048
 2621SOL     OW 7878   3.143   4.069   4.668
 2621SOL    HW1 7879   3.057   4.019   4.655
 2621SOL    HW2 7880   3.205   4.015   4.724
 2622SOL     OW 7881   2.903   4.425   4.153
 2622SOL    HW1 7882   2.929   4.421   4.249
 2622SOL    HW2 7883   2.818   4.374   4.139
 2623SOL     OW 7884   1.938   4.535   4.513
 2623SOL    HW1 7885   2.037   4.523   4.522
 2623SOL    HW2 7886   1.914   4.630   4.534
 2624SOL     OW 7887   2.727   4.072   3.919
 2624SOL    HW1 7888   2.786   4.135   3.870
 2624SOL    HW2 7889   2.746   3.978   3.890
 2625SOL     OW 7890   2.412   3.920   4.609
 2625SOL    HW1 7891   2.407   3.915   4.709
 2625SOL    HW2 7892   2.414   4.016   4.580
 2626SOL     OW 7893   3.320   4.459   4.452
 2626SOL    HW1 7894   3.315   4.394   4.527
 2626SOL    HW2 7895   3.400   4.518   4.465
 2627SOL     OW 7896   3.262   3.831   4.150
 2627SOL    HW1 7897   3.238   3.794   4.060
 2627SOL    HW2 7898   3.361   3.847   4.154
 2628SOL     OW 7899   2.244   4.424   4.204
 2628SOL    HW1 7900   2.289   4.334   4.201
 2628SOL    HW2 7901   2.150   4.413   4.237
 2629SOL     OW 7902   2.476   3.846   3.841
 2629SOL    HW1 7903   2.574   3.824   3.848
 2629SOL    HW2 7904   2.445   3.829   3.748
 2630SOL     OW 7905   2.401   3.788   4.236
 2630SOL    HW1 7906   2.320   3.789   4.294
 2630SOL    HW2 7907   2.404   3.871   4.181
 2631SOL     OW 7908   2.159   3.759   3.895
 2631SOL    HW1 7909   2.208   3.843   3.874
 2631SOL    HW2 7910   2.221   3.694   3.940
 2632SOL     OW 7911   2.797   3.960   4.204
 2632SOL    HW1 7912   2.749   4.001   4.126
 2632SOL    HW2 7913   2.896   3.958   4.185
 2633SOL     OW 7914   2.894   4.273   3.740
 2633SOL    HW1 7915   2.853   4.355   3.701
 2633SOL    HW2 7916   2.958   4.299   3.813
 2634SOL     OW 7917   2.728   4.178   4.366
 2634SOL    HW1 7918   2.696   4.250   4.304
 2634SOL    HW2 7919   2.752   4.097   4.313
 2635SOL     OW 7920   2.879   3.763   4.477
 2635SOL    HW1 7921   2.807   3.768   4.408
 2635SOL    HW2 7922   2.855   3.694   4.546
 2636SOL     OW 7923   3.719   4.557   4.101
 2636SOL    HW1 7924   3.761   4.493   4.165
 2636SOL    HW2 7925   3.681   4.506   4.023
 2637SOL     OW 7926   3.252   4.299   3.802
 2637SOL    HW1 7927   3.198   4.278   3.883
 2637SOL    HW2 7928   3.343   4.258   3.811
 2638SOL     OW 7929   2.389   3.980   4.052
 2638SOL    HW1 7930   2.416   3.921   3.977
 2638SOL    HW2 7931   2.389   4.075   4.021
 2639SOL     OW 7932   2.973   4.919   4.824
 2639SOL    HW1 7933   2.933   4.963   4.905
 2639SOL    HW2 7934   2.932   4.956   4.741
 2640SOL     OW 7935   2.428   4.261   4.589
 2640SOL    HW1 7936   2.440   4.327   4.515
 2640SOL    HW2 7937   2.474   4.295   4.672
 2641SOL     OW 7938   3.444   4.363   4.196
 2641SOL    HW1 7939   3.413   4.424   4.269
 2641SOL    HW2 7940   3.494   4.415   4.127
 2642SOL     OW 7941   3.071   4.249   3.999
 2642SOL    HW1 7942   3.084   4.165   4.053
 2642SOL    HW2 7943   3.042   4.323   4.059
 2643SOL     OW 7944   2.594   4.358   4.788
 2643SOL    HW1 7945   2.653   4.332   4.712
 2643SOL    HW2 7946   2.566   4.454   4.777
 2644SOL     OW 7947   2.169   3.787   4.342
 2644SOL    HW1 7948   2.158   3.881   4.375
 2644SOL    HW2 7949   2.164   3.724   4.419
 2645SOL     OW 7950   3.484   4.091   4.098
 2645SOL    HW1 7951   3.486   4.015   4.162
 2645SOL    HW2 7952   3.436   4.168   4.138
 2646SOL     OW 7953   3.402   3.998   3.849
 2646SOL    HW1 7954   3.341   3.923   3.872
 2646SOL    HW2 7955   3.424   4.050   3.932
 2647SOL     OW 7956   3.165   4.562   3.766
 2647SOL    HW1 7957   3.199   4.469   3.781
 2647SOL    HW2 7958   3.183   4.589   3.671
 2648SOL     OW 7959   2.181   4.534   4.673
 2648SOL    HW1 7960   2.274   4.570   4.678
 2648SOL    HW2 7961   2.175   4.449   4.725
 2649SOL     OW 7962   2.677   4.296   4.049
 2649SOL    HW1 7963   2.684   4.207   4.003
 2649SOL    HW2 7964   2.583   4.330   4.041
 2650SOL     OW 7965   2.335   4.224   3.915
 2650SOL    HW1 7966   2.396   4.304   3.919
 2650SOL    HW2 7967   2.240   4.255   3.922
 2651SOL     OW 7968   3.164   4.579   4.033
 2651SOL    HW1 7969   3.078   4.548   4.075
 2651SOL    HW2 7970   3.160   4.565   3.934
 2652SOL     OW 7971   3.588   3.859   4.247
 2652SOL    HW1 7972   3.661   3.842   4.180
 2652SOL    HW2 7973   3.557   3.772   4.285
 2653SOL     OW 7974   3.142   4.651   4.396
 2653SOL    HW1 7975   3.202   4.570   4.398
 2653SOL    HW2 7976   3.182   4.720   4.336
 2654SOL     OW 7977   3.703   3.899   4.687
 2654SOL    HW1 7978   3.742   3.814   4.651
 2654SOL    HW2 7979   3.605   3.901   4.668
 2655SOL     OW 7980   2.125   4.050   4.444
 2655SOL    HW1 7981   2.046   4.101   4.410
 2655SOL    HW2 7982   2.116   4.035   4.542
 2656SOL     OW 7983   2.778   4.634   4.015
 2656SOL    HW1 7984   2.841   4.672   3.947
 2656SOL    HW2 7985   2.818   4.551   4.054
 2657SOL     OW 7986   1.937   4.069   3.757
 2657SOL    HW1 7987   1.845   4.041   3.728
 2657SOL    HW2 7988   1.968   4.146   3.701
 2658SOL     OW 7989   1.934   3.890   4.042
 2658SOL    HW1 7990   1.917   3.973   3.988
 2658SOL    HW2 7991   2.024   3.853   4.020
 2659SOL     OW 7992   3.536   4.607   4.978
 2659SOL    HW1 7993   3.509   4.518   4.941
 2659SOL    HW2 7994   3.537   4.675   4.905
 2660SOL     OW 7995   3.087   4.049   4.173
 2660SOL    HW1 7996   3.152   3.975   4.162
 2660SOL    HW2 7997   3.107   4.099   4.257
 2661SOL     OW 7998   2.456   4.469   4.376
 2661SOL    HW1 7999   2.506   4.554   4.357
 2661SOL    HW2 8000   2.368   4.471   4.328
 2662SOL     OW 8001   2.290   4.148   4.244
 2662SOL    HW1 8002   2.320   4.076   4.182
 2662SOL    HW2 8003   2.251   4.108   4.327
 2663SOL     OW 8004   3.214   3.776   3.892
 2663SOL    HW1 8005   3.249   3.735   3.808
 2663SOL    HW2 8006   3.124   3.738   3.912
 2664SOL     OW 8007   3.162   4.177   4.415
 2664SOL    HW1 8008   3.103   4.257   4.419
 2664SOL    HW2 8009   3.177   4.142   4.508
 2665SOL     OW 8010   3.455   3.945   4.606
 2665SOL    HW1 8011   3.371   3.944   4.660
 2665SOL    HW2 8012   3.457   4.028   4.550
 2666SOL     OW 8013   3.954   0.628   0.113
 2666SOL    HW1 8014   3.861   0.626   0.150
 2666SOL    HW2 8015   3.955   0.589   0.021
 2667SOL     OW 8016   3.949   0.275   0.996
 2667SOL    HW1 8017   3.984   0.258   1.088
 2667SOL    HW2 8018   3.861   0.230   0.984
 2668SOL     OW 8019   3.743   0.368   0.647
 2668SOL    HW1 8020   3.661   0.411   0.686
 2668SOL    HW2 8021   3.715   0.295   0.584
 2669SOL     OW 8022   4.293   1.275   1.165
 2669SOL    HW1 8023   4.200   1.268   1.128
 2669SOL    HW2 8024   4.304   1.364   1.209
 2670SOL     OW 8025   4.492   1.144   1.023
 2670SOL    HW1 8026   4.414   1.161   1.083
 2670SOL    HW2 8027   4.526   1.231   0.987
 2671SOL     OW 8028   4.574   0.798   1.823
 2671SOL    HW1 8029   4.570   0.874   1.888
 2671SOL    HW2 8030   4.596   0.834   1.732
 2672SOL     OW 8031   4.409   1.012   0.665
 2672SOL    HW1 8032   4.478   0.996   0.735
 2672SOL    HW2 8033   4.336   1.069   0.703
 2673SOL     OW 8034   4.410   1.161   1.803
 2673SOL    HW1 8035   4.470   1.240   1.817
 2673SOL    HW2 8036   4.324   1.192   1.762
 2674SOL     OW 8037   4.059   1.435   1.061
 2674SOL    HW1 8038   3.981   1.404   1.008
 2674SOL    HW2 8039   4.117   1.493   1.004
 2675SOL     OW 8040   4.162   0.392   1.499
 2675SOL    HW1 8041   4.244   0.336   1.508
 2675SOL    HW2 8042   4.081   0.334   1.503
 2676SOL     OW 8043   3.955   1.713   0.483
 2676SOL    HW1 8044   3.989   1.790   0.537
 2676SOL    HW2 8045   3.999   1.713   0.393
 2677SOL     OW 8046   3.954   1.434   0.538
 2677SOL    HW1 8047   3.928   1.530   0.538
 2677SOL    HW2 8048   3.883   1.380   0.583
 2678SOL     OW 8049   3.964   1.091   0.886
 2678SOL    HW1 8050   3.978   1.007   0.938
 2678SOL    HW2 8051   3.909   1.155   0.941
 2679SOL     OW 8052   4.344   1.786   1.439
 2679SOL    HW1 8053   4.252   1.769   1.474
 2679SOL    HW2 8054   4.372   1.878   1.465
 2680SOL     OW 8055   4.330   0.964   0.123
 2680SOL    HW1 8056   4.337   1.048   0.069
 2680SOL    HW2 8057   4.376   0.977   0.211
 2681SOL     OW 8058   3.846   0.643   0.563
 2681SOL    HW1 8059   3.801   0.555   0.580
 2681SOL    HW2 8060   3.845   0.697   0.647
 2682SOL     OW 8061   3.837   0.737   1.597
 2682SOL    HW1 8062   3.925   0.724   1.642
 2682SOL    HW2 8063   3.824   0.834   1.575
 2683SOL     OW 8064   4.337   1.365   0.726
 2683SOL    HW1 8065   4.288   1.278   0.735
 2683SOL    HW2 8066   4.314   1.408   0.639
 2684SOL     OW 8067   4.533   0.004   0.502
 2684SOL    HW1 8068   4.573   0.095   0.493
 2684SOL    HW2 8069   4.433   0.012   0.508
 2685SOL     OW 8070   3.921   0.976   1.264
 2685SOL    HW1 8071   4.010   0.931   1.250
 2685SOL    HW2 8072   3.848   0.911   1.245
 2686SOL     OW 8073   4.041   0.251   1.801
 2686SOL    HW1 8074   4.112   0.322   1.807
 2686SOL    HW2 8075   3.953   0.290   1.829
 2687SOL     OW 8076   4.322   0.729   0.270
 2687SOL    HW1 8077   4.346   0.798   0.202
 2687SOL    HW2 8078   4.244   0.762   0.324
 2688SOL     OW 8079   4.531   0.605   1.465
 2688SOL    HW1 8080   4.484   0.602   1.554
 2688SOL    HW2 8081   4.480   0.550   1.399
 2689SOL     OW 8082   4.715   0.410   1.242
 2689SOL    HW1 8083   4.638   0.444   1.296
 2689SOL    HW2 8084   4.681   0.359   1.163
 2690SOL     OW 8085   3.800   0.811   0.789
 2690SOL    HW1 8086   3.899   0.799   0.798
 2690SOL    HW2 8087   3.776   0.906   0.810
 2691SOL     OW 8088   3.854   1.821   1.571
 2691SOL    HW1 8089   3.844   1.806   1.670
 2691SOL    HW2 8090   3.768   1.857   1.535
 2692SOL     OW 8091   4.589   0.348   0.195
 2692SOL    HW1 8092   4.648   0.411   0.146
 2692SOL    HW2 8093   4.608   0.254   0.166
 2693SOL     OW 8094   4.274   0.196   0.885
 2693SOL    HW1 8095   4.269   0.191   0.985
 2693SOL    HW2 8096   4.276   0.292   0.856
 2694SOL     OW 8097   4.732   1.456   0.477
 2694SOL    HW1 8098   4.686   1.528   0.425
 2694SOL    HW2 8099   4.728   1.476   0.575
 2695SOL     OW 8100   4.075   1.801   0.853
 2695SOL    HW1 8101   4.125   1.715   0.859
 2695SOL    HW2 8102   4.140   1.878   0.850
 2696SOL     OW 8103   4.045   0.943   0.242
 2696SOL    HW1 8104   4.127   0.982   0.200
 2696SOL    HW2 8105   4.018   0.861   0.193
 2697SOL     OW 8106   4.185   1.266   1.727
 2697SOL    HW1 8107   4.135   1.267   1.641
 2697SOL    HW2 8108   4.122   1.248   1.803
 2698SOL     OW 8109   3.926   0.285   1.498
 2698SOL    HW1 8110   3.846   0.345   1.485
 2698SOL    HW2 8111   3.916   0.236   1.584
 2699SOL     OW 8112   4.188   1.743   0.323
 2699SOL    HW1 8113   4.221   1.782   0.409
 2699SOL    HW2 8114   4.264   1.736   0.258
 2700SOL     OW 8115   3.973   1.785   1.241
 2700SOL    HW1 8116   4.030   1.720   1.291
 2700SOL    HW2 8117   3.957   1.752   1.148
 2701SOL     OW 8118   4.106   0.700   0.480
 2701SOL    HW1 8119   4.151   0.610   0.477
 2701SOL    HW2 8120   4.012   0.689   0.513
 2702SOL     OW 8121   4.338   0.122   0.117
 2702SOL    HW1 8122   4.436   0.100   0.124
 2702SOL    HW2 8123   4.307   0.105   0.024
 2703SOL     OW 8124   4.505   0.264   1.749
 2703SOL    HW1 8125   4.572   0.203   1.792
 2703SOL    HW2 8126   4.432   0.283   1.814
 2704SOL     OW 8127   4.527   1.402   0.924
 2704SOL    HW1 8128   4.617   1.416   0.882
 2704SOL    HW2 8129   4.456   1.404   0.853
 2705SOL     OW 8130   4.646   0.503   0.899
 2705SOL    HW1 8131   4.621   0.494   0.803
 2705SOL    HW2 8132   4.694   0.421   0.930
 2706SOL     OW 8133   4.263   0.064   0.512
 2706SOL    HW1 8134   4.182   0.065   0.570
 2706SOL    HW2 8135   4.266   0.147   0.457
 2707SOL     OW 8136   4.021   0.035   0.171
 2707SOL    HW1 8137   4.070   0.119   0.150
 2707SOL    HW2 8138   4.083  -0.030   0.216
 2708SOL     OW 8139   4.951   1.570   0.793
 2708SOL    HW1 8140   4.972   1.644   0.728
 2708SOL    HW2 8141   5.019   1.570   0.866
 2709SOL     OW 8142   4.183   1.152   0.741
 2709SOL    HW1 8143   4.112   1.125   0.806
 2709SOL    HW2 8144   4.157   1.124   0.648
 2710SOL     OW 8145   3.802   0.556   1.386
 2710SOL    HW1 8146   3.894   0.555   1.345
 2710SOL    HW2 8147   3.796   0.630   1.453
 2711SOL     OW 8148   4.285   0.222   1.147
 2711SOL    HW1 8149   4.323   0.138   1.184
 2711SOL    HW2 8150   4.197   0.241   1.191
 2712SOL     OW 8151   4.212   1.385   0.174
 2712SOL    HW1 8152   4.125   1.370   0.221
 2712SOL    HW2 8153   4.195   1.411   0.079
 2713SOL     OW 8154   4.251   0.256   0.328
 2713SOL    HW1 8155   4.278   0.197   0.253
 2713SOL    HW2 8156   4.251   0.351   0.297
 2714SOL     OW 8157   4.639   0.089   1.402
 2714SOL    HW1 8158   4.664   0.069   1.307
 2714SOL    HW2 8159   4.711   0.145   1.444
 2715SOL     OW 8160   4.429   1.050   0.368
 2715SOL    HW1 8161   4.415   1.057   0.467
 2715SOL    HW2 8162   4.513   0.999   0.350
 2716SOL     OW 8163   4.134   0.813   1.251
 2716SOL    HW1 8164   4.220   0.825   1.301
 2716SOL    HW2 8165   4.092   0.726   1.278
 2717SOL     OW 8166   3.788   1.564   1.331
 2717SOL    HW1 8167   3.742   1.646   1.297
 2717SOL    HW2 8168   3.886   1.583   1.340
 2718SOL     OW 8169   4.091   1.100   0.501
 2718SOL    HW1 8170   4.084   1.183   0.445
 2718SOL    HW2 8171   4.095   1.020   0.441
 2719SOL     OW 8172   4.290   0.537   0.865
 2719SOL    HW1 8173   4.302   0.603   0.791
 2719SOL    HW2 8174   4.336   0.571   0.948
 2720SOL     OW 8175   4.078   1.510   1.329
 2720SOL    HW1 8176   4.057   1.466   1.242
 2720SOL    HW2 8177   4.175   1.536   1.332
 2721SOL     OW 8178   4.126   0.751   1.598
 2721SOL    HW1 8179   4.194   0.806   1.551
 2721SOL    HW2 8180   4.166   0.663   1.625
 2722SOL     OW 8181   4.228   0.050   1.740
 2722SOL    HW1 8182   4.186  -0.007   1.670
 2722SOL    HW2 8183   4.162   0.119   1.772
 2723SOL     OW 8184   4.297   0.870   1.029
 2723SOL    HW1 8185   4.341   0.959   1.020
 2723SOL    HW2 8186   4.234   0.870   1.106
 2724SOL     OW 8187   4.933   0.525   0.275
 2724SOL    HW1 8188   4.946   0.441   0.329
 2724SOL    HW2 8189   4.904   0.599   0.335
 2725SOL     OW 8190   4.031   0.213   1.231
 2725SOL    HW1 8191   4.008   0.250   1.321
 2725SOL    HW2 8192   4.001   0.118   1.225
 2726SOL     OW 8193   3.761   1.310   1.282
 2726SOL    HW1 8194   3.814   1.261   1.350
 2726SOL    HW2 8195   3.783   1.408   1.287
 2727SOL     OW 8196   4.456   0.634   1.064
 2727SOL    HW1 8197   4.515   0.608   0.988
 2727SOL    HW2 8198   4.428   0.730   1.053
 2728SOL     OW 8199   4.031   0.063   0.618
 2728SOL    HW1 8200   4.020   0.157   0.651
 2728SOL    HW2 8201   4.026   0.000   0.695
 2729SOL     OW 8202   4.747   0.766   0.966
 2729SOL    HW1 8203   4.762   0.787   1.062
 2729SOL    HW2 8204   4.717   0.671   0.957
 2730SOL     OW 8205   4.704   1.573   1.700
 2730SOL    HW1 8206   4.684   1.617   1.612
 2730SOL    HW2 8207   4.743   1.482   1.684
 2731SOL     OW 8208   4.074   0.898   1.804
 2731SOL    HW1 8209   4.150   0.942   1.852
 2731SOL    HW2 8210   4.109   0.851   1.722
 2732SOL     OW 8211   4.043   0.810   0.949
 2732SOL    HW1 8212   4.136   0.846   0.954
 2732SOL    HW2 8213   4.037   0.725   1.001
 2733SOL     OW 8214   4.063   0.509   1.006
 2733SOL    HW1 8215   4.011   0.426   0.989
 2733SOL    HW2 8216   4.140   0.514   0.942
 2734SOL     OW 8217   3.732   1.326   0.200
 2734SOL    HW1 8218   3.639   1.347   0.169
 2734SOL    HW2 8219   3.742   1.227   0.213
 2735SOL     OW 8220   3.812   1.801   0.927
 2735SOL    HW1 8221   3.770   1.715   0.900
 2735SOL    HW2 8222   3.906   1.804   0.893
 2736SOL     OW 8223   4.228   1.568   0.910
 2736SOL    HW1 8224   4.294   1.642   0.919
 2736SOL    HW2 8225   4.272   1.489   0.868
 2737SOL     OW 8226   3.764   0.544   1.114
 2737SOL    HW1 8227   3.849   0.511   1.073
 2737SOL    HW2 8228   3.777   0.559   1.212
 2738SOL     OW 8229   3.913   0.520   1.722
 2738SOL    HW1 8230   3.972   0.480   1.652
 2738SOL    HW2 8231   3.855   0.591   1.681
 2739SOL     OW 8232   4.539   0.572   0.325
 2739SOL    HW1 8233   4.546   0.483   0.279
 2739SOL    HW2 8234   4.445   0.606   0.317
 2740SOL     OW 8235   3.976   1.564   1.744
 2740SOL    HW1 8236   3.946   1.621   1.820
 2740SOL    HW2 8237   3.969   1.467   1.770
 2741SOL     OW 8238   4.395   0.464   1.269
 2741SOL    HW1 8239   4.361   0.375   1.239
 2741SOL    HW2 8240   4.421   0.518   1.189
 2742SOL     OW 8241   4.197   0.500   0.191
 2742SOL    HW1 8242   4.258   0.580   0.195
 2742SOL    HW2 8243   4.102   0.531   0.198
 2743SOL     OW 8244   3.883   1.137   1.466
 2743SOL    HW1 8245   3.905   1.076   1.542
 2743SOL    HW2 8246   3.893   1.088   1.380
 2744SOL     OW 8247   3.807   1.258   1.022
 2744SOL    HW1 8248   3.802   1.257   1.122
 2744SOL    HW2 8249   3.724   1.217   0.984
 2745SOL     OW 8250   4.412   1.662   1.716
 2745SOL    HW1 8251   4.356   1.743   1.725
 2745SOL    HW2 8252   4.464   1.666   1.630
 2746SOL     OW 8253   4.627   0.086   0.133
 2746SOL    HW1 8254   4.678   0.087   0.047
 2746SOL    HW2 8255   4.683   0.044   0.204
 2747SOL     OW 8256   3.854   1.794   1.851
 2747SOL    HW1 8257   3.813   1.720   1.904
 2747SOL    HW2 8258   3.918   1.845   1.909
 2748SOL     OW 8259   4.554   1.273   1.422
 2748SOL    HW1 8260   4.549   1.306   1.517
 2748SOL    HW2 8261   4.468   1.292   1.376
 2749SOL     OW 8262   4.396   1.616   0.154
 2749SOL    HW1 8263   4.405   1.626   0.055
 2749SOL    HW2 8264   4.356   1.527   0.175
 2750SOL     OW 8265   3.987   0.326   0.720
 2750SOL    HW1 8266   3.908   0.377   0.686
 2750SOL    HW2 8267   3.978   0.311   0.818
 2751SOL     OW 8268   4.918   1.612   0.031
 2751SOL    HW1 8269   4.924   1.519   0.068
 2751SOL    HW2 8270   4.859   1.612  -0.049
 2752SOL     OW 8271   4.546   1.002   1.372
 2752SOL    HW1 8272   4.586   1.001   1.280
 2752SOL    HW2 8273   4.556   1.094   1.412
 2753SOL     OW 8274   4.096   1.288   1.490
 2753SOL    HW1 8275   4.083   1.381   1.456
 2753SOL    HW2 8276   4.012   1.236   1.477
 2754SOL     OW 8277   4.314   1.487   0.491
 2754SOL    HW1 8278   4.356   1.429   0.421
 2754SOL    HW2 8279   4.270   1.566   0.447
 2755SOL     OW 8280   3.979   1.348   0.290
 2755SOL    HW1 8281   3.883   1.349   0.263
 2755SOL    HW2 8282   3.991   1.401   0.374
 2756SOL     OW 8283   3.829   1.013   1.726
 2756SOL    HW1 8284   3.752   0.980   1.780
 2756SOL    HW2 8285   3.914   0.983   1.768
 2757SOL     OW 8286   4.396   0.203   1.489
 2757SOL    HW1 8287   4.486   0.187   1.449
 2757SOL    HW2 8288   4.404   0.208   1.588
 2758SOL     OW 8289   4.337   0.842   1.431
 2758SOL    HW1 8290   4.393   0.923   1.414
 2758SOL    HW2 8291   4.396   0.762   1.434
 2759SOL     OW 8292   4.440   0.565   1.708
 2759SOL    HW1 8293   4.459   0.630   1.782
 2759SOL    HW2 8294   4.500   0.485   1.717
 2760SOL     OW 8295   4.114   1.741   1.560
 2760SOL    HW1 8296   4.023   1.782   1.558
 2760SOL    HW2 8297   4.107   1.647   1.592
 2761SOL     OW 8298   4.949   0.325   0.449
 2761SOL    HW1 8299   5.014   0.251   0.438
 2761SOL    HW2 8300   4.969   0.375   0.533
 2762SOL     OW 8301   4.318   0.745   0.652
 2762SOL    HW1 8302   4.368   0.830   0.633
 2762SOL    HW2 8303   4.230   0.747   0.604
 2763SOL     OW 8304   4.385   1.790   0.953
 2763SOL    HW1 8305   4.339   1.878   0.940
 2763SOL    HW2 8306   4.484   1.802   0.946
 2764SOL     OW 8307   4.583   0.956   0.861
 2764SOL    HW1 8308   4.637   0.887   0.909
 2764SOL    HW2 8309   4.551   1.025   0.927
 2765SOL     OW 8310   4.807   0.984   0.087
 2765SOL    HW1 8311   4.784   1.037   0.005
 2765SOL    HW2 8312   4.888   0.928   0.068
 2766SOL     OW 8313   3.945   1.314   1.844
 2766SOL    HW1 8314   3.880   1.241   1.823
 2766SOL    HW2 8315   3.949   1.328   1.942
 2767SOL     OW 8316   3.803   1.240   0.653
 2767SOL    HW1 8317   3.802   1.193   0.741
 2767SOL    HW2 8318   3.885   1.212   0.602
 2768SOL     OW 8319   4.396   1.391   1.624
 2768SOL    HW1 8320   4.318   1.341   1.662
 2768SOL    HW2 8321   4.393   1.486   1.655
 2769SOL     OW 8322   4.152   0.424   0.520
 2769SOL    HW1 8323   4.182   0.352   0.458
 2769SOL    HW2 8324   4.113   0.384   0.603
 2770SOL     OW 8325   4.041   0.547   1.280
 2770SOL    HW1 8326   4.079   0.488   1.352
 2770SOL    HW2 8327   4.081   0.521   1.192
 2771SOL     OW 8328   4.536   1.586   0.687
 2771SOL    HW1 8329   4.568   1.596   0.593
 2771SOL    HW2 8330   4.457   1.524   0.689
 2772SOL     OW 8331   4.725   0.034   1.154
 2772SOL    HW1 8332   4.662  -0.038   1.123
 2772SOL    HW2 8333   4.818  -0.002   1.154
 2773SOL     OW 8334   4.494   1.330   0.301
 2773SOL    HW1 8335   4.448   1.243   0.318
 2773SOL    HW2 8336   4.585   1.327   0.342
 2774SOL     OW 8337   4.342   1.567   1.284
 2774SOL    HW1 8338   4.337   1.649   1.341
 2774SOL    HW2 8339   4.431   1.564   1.239
 2775SOL     OW 8340   3.763   1.077   0.300
 2775SOL    HW1 8341   3.862   1.066   0.291
 2775SOL    HW2 8342   3.723   0.991   0.332
 2776SOL     OW 8343   4.599   1.646   0.337
 2776SOL    HW1 8344   4.522   1.611   0.283
 2776SOL    HW2 8345   4.567   1.717   0.399
 2777SOL     OW 8346   3.954   0.628   1.975
 2777SOL    HW1 8347   3.861   0.626   2.012
 2777SOL    HW2 8348   3.955   0.589   1.883
 2778SOL     OW 8349   3.949   0.275   2.858
 2778SOL    HW1 8350   3.984   0.258   2.950
 2778SOL    HW2 8351   3.861   0.230   2.846
 2779SOL     OW 8352   3.743   0.368   2.509
 2779SOL    HW1 8353   3.661   0.411   2.548
 2779SOL    HW2 8354   3.715   0.295   2.446
 2780SOL     OW 8355   4.293   1.275   3.027
 2780SOL    HW1 8356   4.200   1.268   2.990
 2780SOL    HW2 8357   4.304   1.364   3.071
 2781SOL     OW 8358   4.492   1.144   2.885
 2781SOL    HW1 8359   4.414   1.161   2.945
 2781SOL    HW2 8360   4.526   1.231   2.849
 2782SOL     OW 8361   4.574   0.798   3.685
 2782SOL    HW1 8362   4.570   0.874   3.750
 2782SOL    HW2 8363   4.596   0.834   3.594
 2783SOL     OW 8364   4.409   1.012   2.527
 2783SOL    HW1 8365   4.478   0.996   2.597
 2783SOL    HW2 8366   4.336   1.069   2.565
 2784SOL     OW 8367   4.410   1.161   3.665
 2784SOL    HW1 8368   4.470   1.240   3.679
 2784SOL    HW2 8369   4.324   1.192   3.624
 2785SOL     OW 8370   4.059   1.435   2.923
 2785SOL    HW1 8371   3.981   1.404   2.870
 2785SOL    HW2 8372   4.117   1.493   2.866
 2786SOL     OW 8373   4.162   0.392   3.361
 2786SOL    HW1 8374   4.244   0.336   3.370
 2786SOL    HW2 8375   4.081   0.334   3.365
 2787SOL     OW 8376   3.955   1.713   2.345
 2787SOL    HW1 8377   3.989   1.790   2.399
 2787SOL    HW2 8378   3.999   1.713   2.255
 2788SOL     OW 8379   3.954   1.434   2.400
 2788SOL    HW1 8380   3.928   1.530   2.400
 2788SOL    HW2 8381   3.883   1.380   2.445
 2789SOL     OW 8382   3.964   1.091   2.748
 2789SOL    HW1 8383   3.978   1.007   2.800
 2789SOL    HW2 8384   3.909   1.155   2.803
 2790SOL     OW 8385   4.344   1.786   3.301
 2790SOL    HW1 8386   4.252   1.769   3.336
 2790SOL    HW2 8387   4.372   1.878   3.327
 2791SOL     OW 8388   4.330   0.964   1.985
 2791SOL    HW1 8389   4.337   1.048   1.931
 2791SOL    HW2 8390   4.376   0.977   2.073
 2792SOL     OW 8391   3.846   0.643   2.425
 2792SOL    HW1 8392   3.801   0.555   2.442
 2792SOL    HW2 8393   3.845   0.697   2.509
 2793SOL     OW 8394   3.751   1.596   1.979
 2793SOL    HW1 8395   3.732   1.500   2.000
 2793SOL    HW2 8396   3.718   1.654   2.054
 2794SOL     OW 8397   3.837   0.737   3.459
 2794SOL    HW1 8398   3.925   0.724   3.504
 2794SOL    HW2 8399   3.824   0.834   3.437
 2795SOL     OW 8400   4.337   1.365   2.588
 2795SOL    HW1 8401   4.288   1.278   2.597
 2795SOL    HW2 8402   4.314   1.408   2.501
 2796SOL     OW 8403   4.533   0.004   2.364
 2796SOL    HW1 8404   4.573   0.095   2.355
 2796SOL    HW2 8405   4.433   0.012   2.370
 2797SOL     OW 8406   3.921   0.976   3.126
 2797SOL    HW1 8407   4.010   0.931   3.112
 2797SOL    HW2 8408   3.848   0.911   3.107
 2798SOL     OW 8409   4.041   0.251   3.663
 2798SOL    HW1 8410   4.112   0.322   3.669
 2798SOL    HW2 8411   3.953   0.290   3.691
 2799SOL     OW 8412   4.322   0.729   2.132
 2799SOL    HW1 8413   4.346   0.798   2.064
 2799SOL    HW2 8414   4.244   0.762   2.186
 2800SOL     OW 8415   4.531   0.605   3.327
 2800SOL    HW1 8416   4.484   0.602   3.416
 2800SOL    HW2 8417   4.480   0.550   3.261
 2801SOL     OW 8418   4.715   0.410   3.104
 2801SOL    HW1 8419   4.638   0.444   3.158
 2801SOL    HW2 8420   4.681   0.359   3.025
 2802SOL     OW 8421   3.800   0.811   2.651
 2802SOL    HW1 8422   3.899   0.799   2.660
 2802SOL    HW2 8423   3.776   0.906   2.672
 2803SOL     OW 8424   3.854   1.821   3.433
 2803SOL    HW1 8425   3.844   1.806   3.532
 2803SOL    HW2 8426   3.768   1.857   3.397
 2804SOL     OW 8427   4.589   0.348   2.057
 2804SOL    HW1 8428   4.648   0.411   2.008
 2804SOL    HW2 8429   4.608   0.254   2.028
 2805SOL     OW 8430   4.274   0.196   2.747
 2805SOL    HW1 8431   4.269   0.191   2.847
 2805SOL    HW2 8432   4.276   0.292   2.718
 2806SOL     OW 8433   4.732   1.456   2.339
 2806SOL    HW1 8434   4.686   1.528   2.287
 2806SOL    HW2 8435   4.728   1.476   2.437
 2807SOL     OW 8436   4.075   1.801   2.715
 2807SOL    HW1 8437   4.125   1.715   2.721
 2807SOL    HW2 8438   4.140   1.878   2.712
 2808SOL     OW 8439   4.045   0.943   2.104
 2808SOL    HW1 8440   4.127   0.982   2.062
 2808SOL    HW2 8441   4.018   0.861   2.055
 2809SOL     OW 8442   4.185   1.266   3.589
 2809SOL    HW1 8443   4.135   1.267   3.503
 2809SOL    HW2 8444   4.122   1.248   3.665
 2810SOL     OW 8445   3.926   0.285   3.360
 2810SOL    HW1 8446   3.846   0.345   3.347
 2810SOL    HW2 8447   3.916   0.236   3.446
 2811SOL     OW 8448   4.188   1.743   2.185
 2811SOL    HW1 8449   4.221   1.782   2.271
 2811SOL    HW2 8450   4.264   1.736   2.120
 2812SOL     OW 8451   3.973   1.785   3.103
 2812SOL    HW1 8452   4.030   1.720   3.153
 2812SOL    HW2 8453   3.957   1.752   3.010
 2813SOL     OW 8454   4.106   0.700   2.342
 2813SOL    HW1 8455   4.151   0.610   2.339
 2813SOL    HW2 8456   4.012   0.689   2.375
 2814SOL     OW 8457   4.338   0.122   1.979
 2814SOL    HW1 8458   4.436   0.100   1.986
 2814SOL    HW2 8459   4.307   0.105   1.886
 2815SOL     OW 8460   4.505   0.264   3.611
 2815SOL    HW1 8461   4.572   0.203   3.654
 2815SOL    HW2 8462   4.432   0.283   3.676
 2816SOL     OW 8463   4.527   1.402   2.786
 2816SOL    HW1 8464   4.617   1.416   2.744
 2816SOL    HW2 8465   4.456   1.404   2.715
 2817SOL     OW 8466   4.646   0.503   2.761
 2817SOL    HW1 8467   4.621   0.494   2.665
 2817SOL    HW2 8468   4.694   0.421   2.792
 2818SOL     OW 8469   4.263   0.064   2.374
 2818SOL    HW1 8470   4.182   0.065   2.432
 2818SOL    HW2 8471   4.266   0.147   2.319
 2819SOL     OW 8472   4.021   0.035   2.033
 2819SOL    HW1 8473   4.070   0.119   2.012
 2819SOL    HW2 8474   4.083  -0.030   2.078
 2820SOL     OW 8475   4.951   1.570   2.655
 2820SOL    HW1 8476   4.972   1.644   2.590
 2820SOL    HW2 8477   5.019   1.570   2.728
 2821SOL     OW 8478   4.183   1.152   2.603
 2821SOL    HW1 8479   4.112   1.125   2.668
 2821SOL    HW2 8480   4.157   1.124   2.510
 2822SOL     OW 8481   3.802   0.556   3.248
 2822SOL    HW1 8482   3.894   0.555   3.207
 2822SOL    HW2 8483   3.796   0.630   3.315
 2823SOL     OW 8484   4.285   0.222   3.009
 2823SOL    HW1 8485   4.323   0.138   3.046
 2823SOL    HW2 8486   4.197   0.241   3.053
 2824SOL     OW 8487   4.212   1.385   2.036
 2824SOL    HW1 8488   4.125   1.370   2.083
 2824SOL    HW2 8489   4.195   1.411   1.941
 2825SOL     OW 8490   4.251   0.256   2.190
 2825SOL    HW1 8491   4.278   0.197   2.115
 2825SOL    HW2 8492   4.251   0.351   2.159
 2826SOL     OW 8493   4.639   0.089   3.264
 2826SOL    HW1 8494   4.664   0.069   3.169
 2826SOL    HW2 8495   4.711   0.145   3.306
 2827SOL     OW 8496   4.429   1.050   2.230
 2827SOL    HW1 8497   4.415   1.057   2.329
 2827SOL    HW2 8498   4.513   0.999   2.212
 2828SOL     OW 8499   4.134   0.813   3.113
 2828SOL    HW1 8500   4.220   0.825   3.163
 2828SOL    HW2 8501   4.092   0.726   3.140
 2829SOL     OW 8502   3.788   1.564   3.193
 2829SOL    HW1 8503   3.742   1.646   3.159
 2829SOL    HW2 8504   3.886   1.583   3.202
 2830SOL     OW 8505   4.091   1.100   2.363
 2830SOL    HW1 8506   4.084   1.183   2.307
 2830SOL    HW2 8507   4.095   1.020   2.303
 2831SOL     OW 8508   4.290   0.537   2.727
 2831SOL    HW1 8509   4.302   0.603   2.653
 2831SOL    HW2 8510   4.336   0.571   2.810
 2832SOL     OW 8511   4.078   1.510   3.191
 2832SOL    HW1 8512   4.057   1.466   3.104
 2832SOL    HW2 8513   4.175   1.536   3.194
 2833SOL     OW 8514   4.126   0.751   3.460
 2833SOL    HW1 8515   4.194   0.806   3.413
 2833SOL    HW2 8516   4.166   0.663   3.487
 2834SOL     OW 8517   4.228   0.050   3.602
 2834SOL    HW1 8518   4.186  -0.007   3.532
 2834SOL    HW2 8519   4.162   0.119   3.634
 2835SOL     OW 8520   4.297   0.870   2.891
 2835SOL    HW1 8521   4.341   0.959   2.882
 2835SOL    HW2 8522   4.234   0.870   2.968
 2836SOL     OW 8523   4.933   0.525   2.137
 2836SOL    HW1 8524   4.946   0.441   2.191
 2836SOL    HW2 8525   4.904   0.599   2.197
 2837SOL     OW 8526   4.031   0.213   3.093
 2837SOL    HW1 8527   4.008   0.250   3.183
 2837SOL    HW2 8528   4.001   0.118   3.087
 2838SOL     OW 8529   3.761   1.310   3.144
 2838SOL    HW1 8530   3.814   1.261   3.212
 2838SOL    HW2 8531   3.783   1.408   3.149
 2839SOL     OW 8532   4.456   0.634   2.926
 2839SOL    HW1 8533   4.515   0.608   2.850
 2839SOL    HW2 8534   4.428   0.730   2.915
 2840SOL     OW 8535   4.031   0.063   2.480
 2840SOL    HW1 8536   4.020   0.157   2.513
 2840SOL    HW2 8537   4.026   0.000   2.557
 2841SOL     OW 8538   4.747   0.766   2.828
 2841SOL    HW1 8539   4.762   0.787   2.924
 2841SOL    HW2 8540   4.717   0.671   2.819
 2842SOL     OW 8541   4.704   1.573   3.562
 2842SOL    HW1 8542   4.684   1.617   3.474
 2842SOL    HW2 8543   4.743   1.482   3.546
 2843SOL     OW 8544   4.074   0.898   3.666
 2843SOL    HW1 8545   4.150   0.942   3.714
 2843SOL    HW2 8546   4.109   0.851   3.584
 2844SOL     OW 8547   4.043   0.810   2.811
 2844SOL    HW1 8548   4.136   0.846   2.816
 2844SOL    HW2 8549   4.037   0.725   2.863
 2845SOL     OW 8550   4.063   0.509   2.868
 2845SOL    HW1 8551   4.011   0.426   2.851
 2845SOL    HW2 8552   4.140   0.514   2.804
 2846SOL     OW 8553   3.732   1.326   2.062
 2846SOL    HW1 8554   3.639   1.347   2.031
 2846SOL    HW2 8555   3.742   1.227   2.075
 2847SOL     OW 8556   3.812   1.801   2.789
 2847SOL    HW1 8557   3.770   1.715   2.762
 2847SOL    HW2 8558   3.906   1.804   2.755
 2848SOL     OW 8559   4.228   1.568   2.772
 2848SOL    HW1 8560   4.294   1.642   2.781
 2848SOL    HW2 8561   4.272   1.489   2.730
 2849SOL     OW 8562   3.764   0.544   2.976
 2849SOL    HW1 8563   3.849   0.511   2.935
 2849SOL    HW2 8564   3.777   0.559   3.074
 2850SOL     OW 8565   3.913   0.520   3.584
 2850SOL    HW1 8566   3.972   0.480   3.514
 2850SOL    HW2 8567   3.855   0.591   3.543
 2851SOL     OW 8568   4.539   0.572   2.187
 2851SOL    HW1 8569   4.546   0.483   2.141
 2851SOL    HW2 8570   4.445   0.606   2.179
 2852SOL     OW 8571   3.976   1.564   3.606
 2852SOL    HW1 8572   3.946   1.621   3.682
 2852SOL    HW2 8573   3.969   1.467   3.632
 2853SOL     OW 8574   4.395   0.464   3.131
 2853SOL    HW1 8575   4.361   0.375   3.101
 2853SOL    HW2 8576   4.421   0.518   3.051
 2854SOL     OW 8577   4.197   0.500   2.053
 2854SOL    HW1 8578   4.258   0.580   2.057
 2854SOL    HW2 8579   4.102   0.531   2.060
 2855SOL     OW 8580   3.883   1.137   3.328
 2855SOL    HW1 8581   3.905   1.076   3.404
 2855SOL    HW2 8582   3.893   1.088   3.242
 2856SOL     OW 8583   3.807   1.258   2.884
 2856SOL    HW1 8584   3.802   1.257   2.984
 2856SOL    HW2 8585   3.724   1.217   2.846
 2857SOL     OW 8586   4.412   1.662   3.578
 2857SOL    HW1 8587   4.356   1.743   3.587
 2857SOL    HW2 8588   4.464   1.666   3.492
 2858SOL     OW 8589   4.627   0.086   1.995
 2858SOL    HW1 8590   4.678   0.087   1.909
 2858SOL    HW2 8591   4.683   0.044   2.066
 2859SOL     OW 8592   3.854   1.794   3.713
 2859SOL    HW1 8593   3.813   1.720   3.766
 2859SOL    HW2 8594   3.918   1.845   3.771
 2860SOL     OW 8595   4.554   1.273   3.284
 2860SOL    HW1 8596   4.549   1.306   3.379
 2860SOL    HW2 8597   4.468   1.292   3.238
 2861SOL     OW 8598   4.396   1.616   2.016
 2861SOL    HW1 8599   4.405   1.626   1.917
 2861SOL    HW2 8600   4.356   1.527   2.037
 2862SOL     OW 8601   3.987   0.326   2.582
 2862SOL    HW1 8602   3.908   0.377   2.548
 2862SOL    HW2 8603   3.978   0.311   2.680
 2863SOL     OW 8604   4.546   1.002   3.234
 2863SOL    HW1 8605   4.586   1.001   3.142
 2863SOL    HW2 8606   4.556   1.094   3.274
 2864SOL     OW 8607   4.096   1.288   3.352
 2864SOL    HW1 8608   4.083   1.381   3.318
 2864SOL    HW2 8609   4.012   1.236   3.339
 2865SOL     OW 8610   4.314   1.487   2.353
 2865SOL    HW1 8611   4.356   1.429   2.283
 2865SOL    HW2 8612   4.270   1.566   2.309
 2866SOL     OW 8613   3.979   1.348   2.152
 2866SOL    HW1 8614   3.883   1.349   2.125
 2866SOL    HW2 8615   3.991   1.401   2.236
 2867SOL     OW 8616   3.829   1.013   3.588
 2867SOL    HW1 8617   3.752   0.980   3.642
 2867SOL    HW2 8618   3.914   0.983   3.630
 2868SOL     OW 8619   4.396   0.203   3.351
 2868SOL    HW1 8620   4.486   0.187   3.311
 2868SOL    HW2 8621   4.404   0.208   3.450
 2869SOL     OW 8622   3.799   0.345   1.895
 2869SOL    HW1 8623   3.707   0.317   1.866
 2869SOL    HW2 8624   3.830   0.422   1.839
 2870SOL     OW 8625   3.796   0.166   2.180
 2870SOL    HW1 8626   3.779   0.249   2.126
 2870SOL    HW2 8627   3.886   0.129   2.158
 2871SOL     OW 8628   4.337   0.842   3.293
 2871SOL    HW1 8629   4.393   0.923   3.276
 2871SOL    HW2 8630   4.396   0.762   3.296
 2872SOL     OW 8631   4.440   0.565   3.570
 2872SOL    HW1 8632   4.459   0.630   3.644
 2872SOL    HW2 8633   4.500   0.485   3.579
 2873SOL     OW 8634   4.114   1.741   3.422
 2873SOL    HW1 8635   4.023   1.782   3.420
 2873SOL    HW2 8636   4.107   1.647   3.454
 2874SOL     OW 8637   4.949   0.325   2.311
 2874SOL    HW1 8638   5.014   0.251   2.300
 2874SOL    HW2 8639   4.969   0.375   2.395
 2875SOL     OW 8640   4.318   0.745   2.514
 2875SOL    HW1 8641   4.368   0.830   2.495
 2875SOL    HW2 8642   4.230   0.747   2.466
 2876SOL     OW 8643   4.385   1.790   2.815
 2876SOL    HW1 8644   4.339   1.878   2.802
 2876SOL    HW2 8645   4.484   1.802   2.808
 2877SOL     OW 8646   4.583   0.956   2.723
 2877SOL    HW1 8647   4.637   0.887   2.771
 2877SOL    HW2 8648   4.551   1.025   2.789
 2878SOL     OW 8649   3.945   1.314   3.706
 2878SOL    HW1 8650   3.880   1.241   3.685
 2878SOL    HW2 8651   3.949   1.328   3.804
 2879SOL     OW 8652   3.803   1.240   2.515
 2879SOL    HW1 8653   3.802   1.193   2.603
 2879SOL    HW2 8654   3.885   1.212   2.464
 2880SOL     OW 8655   4.396   1.391   3.486
 2880SOL    HW1 8656   4.318   1.341   3.524
 2880SOL    HW2 8657   4.393   1.486   3.517
 2881SOL     OW 8658   4.152   0.424   2.382
 2881SOL    HW1 8659   4.182   0.352   2.320
 2881SOL    HW2 8660   4.113   0.384   2.465
 2882SOL     OW 8661   4.041   0.547   3.142
 2882SOL    HW1 8662   4.079   0.488   3.214
 2882SOL    HW2 8663   4.081   0.521   3.054
 2883SOL     OW 8664   4.536   1.586   2.549
 2883SOL    HW1 8665   4.568   1.596   2.455
 2883SOL    HW2 8666   4.457   1.524   2.551
 2884SOL     OW 8667   4.725   0.034   3.016
 2884SOL    HW1 8668   4.662  -0.038   2.985
 2884SOL    HW2 8669   4.818  -0.002   3.016
 2885SOL     OW 8670   4.494   1.330   2.163
 2885SOL    HW1 8671   4.448   1.243   2.180
 2885SOL    HW2 8672   4.585   1.327   2.204
 2886SOL     OW 8673   4.342   1.567   3.146
 2886SOL    HW1 8674   4.337   1.649   3.203
 2886SOL    HW2 8675   4.431   1.564   3.101
 2887SOL     OW 8676   3.763   1.077   2.162
 2887SOL    HW1 8677   3.862   1.066   2.153
 2887SOL    HW2 8678   3.723   0.991   2.194
 2888SOL     OW 8679   4.599   1.646   2.199
 2888SOL    HW1 8680   4.522   1.611   2.145
 2888SOL    HW2 8681   4.567   1.717   2.261
 2889SOL     OW 8682   3.954   0.628   3.837
 2889SOL    HW1 8683   3.861   0.626   3.874
 2889SOL    HW2 8684   3.955   0.589   3.745
 2890SOL     OW 8685   3.949   0.275   4.720
 2890SOL    HW1 8686   3.984   0.258   4.812
 2890SOL    HW2 8687   3.861   0.230   4.708
 2891SOL     OW 8688   3.743   0.368   4.371
 2891SOL    HW1 8689   3.661   0.411   4.410
 2891SOL    HW2 8690   3.715   0.295   4.308
 2892SOL     OW 8691   4.492   1.144   4.747
 2892SOL    HW1 8692   4.414   1.161   4.807
 2892SOL    HW2 8693   4.526   1.231   4.711
 2893SOL     OW 8694   4.409   1.012   4.389
 2893SOL    HW1 8695   4.478   0.996   4.459
 2893SOL    HW2 8696   4.336   1.069   4.427
 2894SOL     OW 8697   3.955   1.713   4.207
 2894SOL    HW1 8698   3.989   1.790   4.261
 2894SOL    HW2 8699   3.999   1.713   4.117
 2895SOL     OW 8700   3.954   1.434   4.262
 2895SOL    HW1 8701   3.928   1.530   4.262
 2895SOL    HW2 8702   3.883   1.380   4.307
 2896SOL     OW 8703   3.964   1.091   4.610
 2896SOL    HW1 8704   3.978   1.007   4.662
 2896SOL    HW2 8705   3.909   1.155   4.665
 2897SOL     OW 8706   4.330   0.964   3.847
 2897SOL    HW1 8707   4.337   1.048   3.793
 2897SOL    HW2 8708   4.376   0.977   3.935
 2898SOL     OW 8709   3.846   0.643   4.287
 2898SOL    HW1 8710   3.801   0.555   4.304
 2898SOL    HW2 8711   3.845   0.697   4.371
 2899SOL     OW 8712   3.751   1.596   3.841
 2899SOL    HW1 8713   3.732   1.500   3.862
 2899SOL    HW2 8714   3.718   1.654   3.916
 2900SOL     OW 8715   4.337   1.365   4.450
 2900SOL    HW1 8716   4.288   1.278   4.459
 2900SOL    HW2 8717   4.314   1.408   4.363
 2901SOL     OW 8718   4.533   0.004   4.226
 2901SOL    HW1 8719   4.573   0.095   4.217
 2901SOL    HW2 8720   4.433   0.012   4.232
 2902SOL     OW 8721   4.322   0.729   3.994
 2902SOL    HW1 8722   4.346   0.798   3.926
 2902SOL    HW2 8723   4.244   0.762   4.048
 2903SOL     OW 8724   3.800   0.811   4.513
 2903SOL    HW1 8725   3.899   0.799   4.522
 2903SOL    HW2 8726   3.776   0.906   4.534
 2904SOL     OW 8727   4.589   0.348   3.919
 2904SOL    HW1 8728   4.648   0.411   3.870
 2904SOL    HW2 8729   4.608   0.254   3.890
 2905SOL     OW 8730   4.732   1.456   4.201
 2905SOL    HW1 8731   4.686   1.528   4.149
 2905SOL    HW2 8732   4.728   1.476   4.299
 2906SOL     OW 8733   4.075   1.801   4.577
 2906SOL    HW1 8734   4.125   1.715   4.583
 2906SOL    HW2 8735   4.140   1.878   4.574
 2907SOL     OW 8736   4.045   0.943   3.966
 2907SOL    HW1 8737   4.127   0.982   3.924
 2907SOL    HW2 8738   4.018   0.861   3.917
 2908SOL     OW 8739   4.188   1.743   4.047
 2908SOL    HW1 8740   4.221   1.782   4.133
 2908SOL    HW2 8741   4.264   1.736   3.982
 2909SOL     OW 8742   4.106   0.700   4.204
 2909SOL    HW1 8743   4.151   0.610   4.201
 2909SOL    HW2 8744   4.012   0.689   4.237
 2910SOL     OW 8745   4.338   0.122   3.841
 2910SOL    HW1 8746   4.436   0.100   3.848
 2910SOL    HW2 8747   4.307   0.105   3.748
 2911SOL     OW 8748   4.527   1.402   4.648
 2911SOL    HW1 8749   4.617   1.416   4.606
 2911SOL    HW2 8750   4.456   1.404   4.577
 2912SOL     OW 8751   4.263   0.064   4.236
 2912SOL    HW1 8752   4.182   0.065   4.294
 2912SOL    HW2 8753   4.266   0.147   4.181
 2913SOL     OW 8754   4.021   0.035   3.895
 2913SOL    HW1 8755   4.070   0.119   3.874
 2913SOL    HW2 8756   4.083  -0.030   3.940
 2914SOL     OW 8757   4.951   1.570   4.517
 2914SOL    HW1 8758   4.972   1.644   4.452
 2914SOL    HW2 8759   5.019   1.570   4.590
 2915SOL     OW 8760   4.183   1.152   4.465
 2915SOL    HW1 8761   4.112   1.125   4.530
 2915SOL    HW2 8762   4.157   1.124   4.372
 2916SOL     OW 8763   4.212   1.385   3.898
 2916SOL    HW1 8764   4.125   1.370   3.945
 2916SOL    HW2 8765   4.195   1.411   3.803
 2917SOL     OW 8766   4.251   0.256   4.052
 2917SOL    HW1 8767   4.278   0.197   3.977
 2917SOL    HW2 8768   4.251   0.351   4.021
 2918SOL     OW 8769   4.429   1.050   4.092
 2918SOL    HW1 8770   4.415   1.057   4.191
 2918SOL    HW2 8771   4.513   0.999   4.074
 2919SOL     OW 8772   4.091   1.100   4.225
 2919SOL    HW1 8773   4.084   1.183   4.169
 2919SOL    HW2 8774   4.095   1.020   4.165
 2920SOL     OW 8775   4.290   0.537   4.589
 2920SOL    HW1 8776   4.302   0.603   4.515
 2920SOL    HW2 8777   4.336   0.571   4.672
 2921SOL     OW 8778   4.933   0.525   3.999
 2921SOL    HW1 8779   4.946   0.441   4.053
 2921SOL    HW2 8780   4.904   0.599   4.059
 2922SOL     OW 8781   4.456   0.634   4.788
 2922SOL    HW1 8782   4.515   0.608   4.712
 2922SOL    HW2 8783   4.428   0.730   4.777
 2923SOL     OW 8784   4.031   0.063   4.342
 2923SOL    HW1 8785   4.020   0.157   4.375
 2923SOL    HW2 8786   4.026   0.000   4.419
 2924SOL     OW 8787   4.747   0.766   4.690
 2924SOL    HW1 8788   4.762   0.787   4.786
 2924SOL    HW2 8789   4.717   0.671   4.681
 2925SOL     OW 8790   4.043   0.810   4.673
 2925SOL    HW1 8791   4.136   0.846   4.678
 2925SOL    HW2 8792   4.037   0.725   4.725
 2926SOL     OW 8793   3.732   1.326   3.924
 2926SOL    HW1 8794   3.639   1.347   3.893
 2926SOL    HW2 8795   3.742   1.227   3.937
 2927SOL     OW 8796   3.812   1.801   4.651
 2927SOL    HW1 8797   3.770   1.715   4.624
 2927SOL    HW2 8798   3.906   1.804   4.617
 2928SOL     OW 8799   4.228   1.568   4.634
 2928SOL    HW1 8800   4.294   1.642   4.643
 2928SOL    HW2 8801   4.272   1.489   4.592
 2929SOL     OW 8802   4.726   0.796   4.962
 2929SOL    HW1 8803   4.767   0.764   5.048
 2929SOL    HW2 8804   4.630   0.769   4.959
 2930SOL     OW 8805   4.539   0.572   4.049
 2930SOL    HW1 8806   4.546   0.483   4.003
 2930SOL    HW2 8807   4.445   0.606   4.041
 2931SOL     OW 8808   4.197   0.500   3.915
 2931SOL    HW1 8809   4.258   0.580   3.919
 2931SOL    HW2 8810   4.102   0.531   3.922
 2932SOL     OW 8811   4.627   0.086   3.857
 2932SOL    HW1 8812   4.678   0.087   3.771
 2932SOL    HW2 8813   4.683   0.044   3.928
 2933SOL     OW 8814   4.396   1.616   3.878
 2933SOL    HW1 8815   4.405   1.626   3.779
 2933SOL    HW2 8816   4.356   1.527   3.899
 2934SOL     OW 8817   3.987   0.326   4.444
 2934SOL    HW1 8818   3.908   0.377   4.410
 2934SOL    HW2 8819   3.978   0.311   4.542
 2935SOL     OW 8820   4.314   1.487   4.215
 2935SOL    HW1 8821   4.356   1.429   4.145
 2935SOL    HW2 8822   4.270   1.566   4.171
 2936SOL     OW 8823   3.979   1.348   4.014
 2936SOL    HW1 8824   3.883   1.349   3.987
 2936SOL    HW2 8825   3.991   1.401   4.098
 2937SOL     OW 8826   3.799   0.345   3.757
 2937SOL    HW1 8827   3.707   0.317   3.728
 2937SOL    HW2 8828   3.830   0.422   3.701
 2938SOL     OW 8829   3.796   0.166   4.042
 2938SOL    HW1 8830   3.779   0.249   3.988
 2938SOL    HW2 8831   3.886   0.129   4.020
 2939SOL     OW 8832   4.949   0.325   4.173
 2939SOL    HW1 8833   5.014   0.251   4.162
 2939SOL    HW2 8834   4.969   0.375   4.257
 2940SOL     OW 8835   4.318   0.745   4.376
 2940SOL    HW1 8836   4.368   0.830   4.357
 2940SOL    HW2 8837   4.230   0.747   4.328
 2941SOL     OW 8838   4.385   1.790   4.677
 2941SOL    HW1 8839   4.339   1.878   4.664
 2941SOL    HW2 8840   4.484   1.802   4.670
 2942SOL     OW 8841   4.583   0.956   4.585
 2942SOL    HW1 8842   4.637   0.887   4.633
 2942SOL    HW2 8843   4.551   1.025   4.651
 2943SOL     OW 8844   3.803   1.240   4.377
 2943SOL    HW1 8845   3.802   1.193   4.465
 2943SOL    HW2 8846   3.885   1.212   4.326
 2944SOL     OW 8847   4.152   0.424   4.244
 2944SOL    HW1 8848   4.182   0.352   4.182
 2944SOL    HW2 8849   4.113   0.384   4.327
 2945SOL     OW 8850   4.536   1.586   4.411
 2945SOL    HW1 8851   4.568   1.596   4.317
 2945SOL    HW2 8852   4.457   1.524   4.413
 2946SOL     OW 8853   4.494   1.330   4.025
 2946SOL    HW1 8854   4.448   1.243   4.042
 2946SOL    HW2 8855   4.585   1.327   4.066
 2947SOL     OW 8856   3.763   1.077   4.024
 2947SOL    HW1 8857   3.862   1.066   4.015
 2947SOL    HW2 8858   3.723   0.991   4.056
 2948SOL     OW 8859   4.599   1.646   4.061
 2948SOL    HW1 8860   4.522   1.611   4.007
 2948SOL    HW2 8861   4.567   1.717   4.123
 2949SOL     OW 8862   3.954   2.490   0.113
 2949SOL    HW1 8863   3.861   2.488   0.150
 2949SOL    HW2 8864   3.955   2.451   0.021
 2950SOL     OW 8865   3.949   2.137   0.996
 2950SOL    HW1 8866   3.984   2.120   1.088
 2950SOL    HW2 8867   3.861   2.092   0.984
 2951SOL     OW 8868   3.743   2.230   0.647
 2951SOL    HW1 8869   3.661   2.273   0.686
 2951SOL    HW2 8870   3.715   2.157   0.584
 2952SOL     OW 8871   4.293   3.137   1.165
 2952SOL    HW1 8872   4.200   3.130   1.128
 2952SOL    HW2 8873   4.304   3.226   1.209
 2953SOL     OW 8874   4.492   3.006   1.023
 2953SOL    HW1 8875   4.414   3.023   1.083
 2953SOL    HW2 8876   4.526   3.093   0.987
 2954SOL     OW 8877   4.574   2.660   1.823
 2954SOL    HW1 8878   4.570   2.736   1.888
 2954SOL    HW2 8879   4.596   2.696   1.732
 2955SOL     OW 8880   4.409   2.874   0.665
 2955SOL    HW1 8881   4.478   2.858   0.735
 2955SOL    HW2 8882   4.336   2.931   0.703
 2956SOL     OW 8883   4.410   3.023   1.803
 2956SOL    HW1 8884   4.470   3.102   1.817
 2956SOL    HW2 8885   4.324   3.054   1.762
 2957SOL     OW 8886   4.059   3.297   1.061
 2957SOL    HW1 8887   3.981   3.266   1.008
 2957SOL    HW2 8888   4.117   3.355   1.004
 2958SOL     OW 8889   4.162   2.254   1.499
 2958SOL    HW1 8890   4.244   2.198   1.508
 2958SOL    HW2 8891   4.081   2.196   1.503
 2959SOL     OW 8892   3.955   3.575   0.483
 2959SOL    HW1 8893   3.989   3.652   0.537
 2959SOL    HW2 8894   3.999   3.575   0.393
 2960SOL     OW 8895   3.954   3.296   0.538
 2960SOL    HW1 8896   3.928   3.392   0.538
 2960SOL    HW2 8897   3.883   3.242   0.583
 2961SOL     OW 8898   3.964   2.953   0.886
 2961SOL    HW1 8899   3.978   2.869   0.938
 2961SOL    HW2 8900   3.909   3.017   0.941
 2962SOL     OW 8901   4.344   3.648   1.439
 2962SOL    HW1 8902   4.252   3.631   1.474
 2962SOL    HW2 8903   4.372   3.740   1.465
 2963SOL     OW 8904   4.330   2.826   0.123
 2963SOL    HW1 8905   4.337   2.910   0.069
 2963SOL    HW2 8906   4.376   2.839   0.211
 2964SOL     OW 8907   3.846   2.505   0.563
 2964SOL    HW1 8908   3.801   2.417   0.580
 2964SOL    HW2 8909   3.845   2.559   0.647
 2965SOL     OW 8910   3.837   2.599   1.597
 2965SOL    HW1 8911   3.925   2.586   1.642
 2965SOL    HW2 8912   3.824   2.696   1.575
 2966SOL     OW 8913   4.337   3.227   0.726
 2966SOL    HW1 8914   4.288   3.140   0.735
 2966SOL    HW2 8915   4.314   3.270   0.639
 2967SOL     OW 8916   4.533   1.866   0.502
 2967SOL    HW1 8917   4.573   1.957   0.493
 2967SOL    HW2 8918   4.433   1.874   0.508
 2968SOL     OW 8919   3.921   2.838   1.264
 2968SOL    HW1 8920   4.010   2.793   1.250
 2968SOL    HW2 8921   3.848   2.773   1.245
 2969SOL     OW 8922   4.041   2.113   1.801
 2969SOL    HW1 8923   4.112   2.184   1.807
 2969SOL    HW2 8924   3.953   2.152   1.829
 2970SOL     OW 8925   4.322   2.591   0.270
 2970SOL    HW1 8926   4.346   2.660   0.202
 2970SOL    HW2 8927   4.244   2.624   0.324
 2971SOL     OW 8928   4.531   2.467   1.465
 2971SOL    HW1 8929   4.484   2.464   1.554
 2971SOL    HW2 8930   4.480   2.412   1.399
 2972SOL     OW 8931   4.715   2.272   1.242
 2972SOL    HW1 8932   4.638   2.306   1.296
 2972SOL    HW2 8933   4.681   2.221   1.163
 2973SOL     OW 8934   3.800   2.673   0.789
 2973SOL    HW1 8935   3.899   2.661   0.798
 2973SOL    HW2 8936   3.776   2.768   0.810
 2974SOL     OW 8937   3.854   3.683   1.571
 2974SOL    HW1 8938   3.844   3.668   1.670
 2974SOL    HW2 8939   3.768   3.719   1.535
 2975SOL     OW 8940   4.589   2.210   0.195
 2975SOL    HW1 8941   4.648   2.273   0.146
 2975SOL    HW2 8942   4.608   2.116   0.166
 2976SOL     OW 8943   4.274   2.058   0.885
 2976SOL    HW1 8944   4.269   2.053   0.985
 2976SOL    HW2 8945   4.276   2.154   0.856
 2977SOL     OW 8946   4.732   3.318   0.477
 2977SOL    HW1 8947   4.686   3.390   0.425
 2977SOL    HW2 8948   4.728   3.338   0.575
 2978SOL     OW 8949   4.075   3.663   0.853
 2978SOL    HW1 8950   4.125   3.577   0.859
 2978SOL    HW2 8951   4.140   3.740   0.850
 2979SOL     OW 8952   4.045   2.805   0.242
 2979SOL    HW1 8953   4.127   2.844   0.200
 2979SOL    HW2 8954   4.018   2.723   0.193
 2980SOL     OW 8955   4.185   3.128   1.727
 2980SOL    HW1 8956   4.135   3.129   1.641
 2980SOL    HW2 8957   4.122   3.110   1.803
 2981SOL     OW 8958   3.926   2.147   1.498
 2981SOL    HW1 8959   3.846   2.207   1.485
 2981SOL    HW2 8960   3.916   2.098   1.584
 2982SOL     OW 8961   4.188   3.605   0.323
 2982SOL    HW1 8962   4.221   3.644   0.409
 2982SOL    HW2 8963   4.264   3.598   0.258
 2983SOL     OW 8964   3.973   3.647   1.241
 2983SOL    HW1 8965   4.030   3.582   1.291
 2983SOL    HW2 8966   3.957   3.614   1.148
 2984SOL     OW 8967   4.106   2.562   0.480
 2984SOL    HW1 8968   4.151   2.472   0.477
 2984SOL    HW2 8969   4.012   2.551   0.513
 2985SOL     OW 8970   4.505   2.126   1.749
 2985SOL    HW1 8971   4.572   2.065   1.792
 2985SOL    HW2 8972   4.432   2.145   1.814
 2986SOL     OW 8973   4.527   3.264   0.924
 2986SOL    HW1 8974   4.617   3.278   0.882
 2986SOL    HW2 8975   4.456   3.266   0.853
 2987SOL     OW 8976   4.646   2.365   0.899
 2987SOL    HW1 8977   4.621   2.356   0.803
 2987SOL    HW2 8978   4.694   2.283   0.930
 2988SOL     OW 8979   4.263   1.926   0.512
 2988SOL    HW1 8980   4.182   1.927   0.570
 2988SOL    HW2 8981   4.266   2.009   0.457
 2989SOL     OW 8982   4.021   1.897   0.171
 2989SOL    HW1 8983   4.070   1.981   0.150
 2989SOL    HW2 8984   4.083   1.832   0.216
 2990SOL     OW 8985   4.951   3.432   0.793
 2990SOL    HW1 8986   4.972   3.506   0.728
 2990SOL    HW2 8987   5.019   3.432   0.866
 2991SOL     OW 8988   4.183   3.014   0.741
 2991SOL    HW1 8989   4.112   2.987   0.806
 2991SOL    HW2 8990   4.157   2.986   0.648
 2992SOL     OW 8991   3.802   2.418   1.386
 2992SOL    HW1 8992   3.894   2.417   1.345
 2992SOL    HW2 8993   3.796   2.492   1.453
 2993SOL     OW 8994   4.285   2.084   1.147
 2993SOL    HW1 8995   4.323   2.000   1.184
 2993SOL    HW2 8996   4.197   2.103   1.191
 2994SOL     OW 8997   4.212   3.247   0.174
 2994SOL    HW1 8998   4.125   3.232   0.221
 2994SOL    HW2 8999   4.195   3.273   0.079
 2995SOL     OW 9000   4.251   2.118   0.328
 2995SOL    HW1 9001   4.278   2.059   0.253
 2995SOL    HW2 9002   4.251   2.213   0.297
 2996SOL     OW 9003   4.639   1.951   1.402
 2996SOL    HW1 9004   4.664   1.931   1.307
 2996SOL    HW2 9005   4.711   2.007   1.444
 2997SOL     OW 9006   4.429   2.912   0.368
 2997SOL    HW1 9007   4.415   2.919   0.467
 2997SOL    HW2 9008   4.513   2.861   0.350
 2998SOL     OW 9009   4.134   2.675   1.251
 2998SOL    HW1 9010   4.220   2.687   1.301
 2998SOL    HW2 9011   4.092   2.588   1.278
 2999SOL     OW 9012   3.788   3.426   1.331
 2999SOL    HW1 9013   3.742   3.508   1.297
 2999SOL    HW2 9014   3.886   3.445   1.340
 3000SOL     OW 9015   4.091   2.962   0.501
 3000SOL    HW1 9016   4.084   3.045   0.445
 3000SOL    HW2 9017   4.095   2.882   0.441
 3001SOL     OW 9018   4.290   2.399   0.865
 3001SOL    HW1 9019   4.302   2.465   0.791
 3001SOL    HW2 9020   4.336   2.433   0.948
 3002SOL     OW 9021   4.078   3.372   1.329
 3002SOL    HW1 9022   4.057   3.328   1.242
 3002SOL    HW2 9023   4.175   3.398   1.332
 3003SOL     OW 9024   4.126   2.613   1.598
 3003SOL    HW1 9025   4.194   2.668   1.551
 3003SOL    HW2 9026   4.166   2.525   1.625
 3004SOL     OW 9027   4.228   1.912   1.740
 3004SOL    HW1 9028   4.186   1.855   1.670
 3004SOL    HW2 9029   4.162   1.981   1.772
 3005SOL     OW 9030   4.297   2.732   1.029
 3005SOL    HW1 9031   4.341   2.821   1.020
 3005SOL    HW2 9032   4.234   2.732   1.106
 3006SOL     OW 9033   4.933   2.387   0.275
 3006SOL    HW1 9034   4.946   2.303   0.329
 3006SOL    HW2 9035   4.904   2.461   0.335
 3007SOL     OW 9036   4.031   2.075   1.231
 3007SOL    HW1 9037   4.008   2.112   1.321
 3007SOL    HW2 9038   4.001   1.980   1.225
 3008SOL     OW 9039   3.761   3.172   1.282
 3008SOL    HW1 9040   3.814   3.123   1.350
 3008SOL    HW2 9041   3.783   3.270   1.287
 3009SOL     OW 9042   4.456   2.496   1.064
 3009SOL    HW1 9043   4.515   2.470   0.988
 3009SOL    HW2 9044   4.428   2.592   1.053
 3010SOL     OW 9045   4.031   1.925   0.618
 3010SOL    HW1 9046   4.020   2.019   0.651
 3010SOL    HW2 9047   4.026   1.862   0.695
 3011SOL     OW 9048   4.747   2.628   0.966
 3011SOL    HW1 9049   4.762   2.649   1.062
 3011SOL    HW2 9050   4.717   2.533   0.957
 3012SOL     OW 9051   4.704   3.435   1.700
 3012SOL    HW1 9052   4.684   3.479   1.612
 3012SOL    HW2 9053   4.743   3.344   1.684
 3013SOL     OW 9054   4.074   2.760   1.804
 3013SOL    HW1 9055   4.150   2.804   1.852
 3013SOL    HW2 9056   4.109   2.713   1.722
 3014SOL     OW 9057   4.043   2.672   0.949
 3014SOL    HW1 9058   4.136   2.708   0.954
 3014SOL    HW2 9059   4.037   2.587   1.001
 3015SOL     OW 9060   4.063   2.371   1.006
 3015SOL    HW1 9061   4.011   2.288   0.989
 3015SOL    HW2 9062   4.140   2.376   0.942
 3016SOL     OW 9063   3.732   3.188   0.200
 3016SOL    HW1 9064   3.639   3.209   0.169
 3016SOL    HW2 9065   3.742   3.089   0.213
 3017SOL     OW 9066   3.812   3.663   0.927
 3017SOL    HW1 9067   3.770   3.577   0.900
 3017SOL    HW2 9068   3.906   3.666   0.893
 3018SOL     OW 9069   4.228   3.430   0.910
 3018SOL    HW1 9070   4.294   3.504   0.919
 3018SOL    HW2 9071   4.272   3.351   0.868
 3019SOL     OW 9072   3.764   2.406   1.114
 3019SOL    HW1 9073   3.849   2.373   1.073
 3019SOL    HW2 9074   3.777   2.421   1.212
 3020SOL     OW 9075   3.913   2.382   1.722
 3020SOL    HW1 9076   3.972   2.342   1.652
 3020SOL    HW2 9077   3.855   2.453   1.681
 3021SOL     OW 9078   4.539   2.434   0.325
 3021SOL    HW1 9079   4.546   2.345   0.279
 3021SOL    HW2 9080   4.445   2.468   0.317
 3022SOL     OW 9081   3.976   3.426   1.744
 3022SOL    HW1 9082   3.946   3.483   1.820
 3022SOL    HW2 9083   3.969   3.329   1.770
 3023SOL     OW 9084   4.395   2.326   1.269
 3023SOL    HW1 9085   4.361   2.237   1.239
 3023SOL    HW2 9086   4.421   2.380   1.189
 3024SOL     OW 9087   4.197   2.362   0.191
 3024SOL    HW1 9088   4.258   2.442   0.195
 3024SOL    HW2 9089   4.102   2.393   0.198
 3025SOL     OW 9090   3.883   2.999   1.466
 3025SOL    HW1 9091   3.905   2.938   1.542
 3025SOL    HW2 9092   3.893   2.950   1.380
 3026SOL     OW 9093   3.807   3.120   1.022
 3026SOL    HW1 9094   3.802   3.119   1.122
 3026SOL    HW2 9095   3.724   3.079   0.984
 3027SOL     OW 9096   4.412   3.524   1.716
 3027SOL    HW1 9097   4.356   3.605   1.725
 3027SOL    HW2 9098   4.464   3.528   1.630
 3028SOL     OW 9099   4.627   1.948   0.133
 3028SOL    HW1 9100   4.678   1.949   0.047
 3028SOL    HW2 9101   4.683   1.906   0.204
 3029SOL     OW 9102   3.854   3.656   1.851
 3029SOL    HW1 9103   3.813   3.582   1.904
 3029SOL    HW2 9104   3.918   3.707   1.909
 3030SOL     OW 9105   4.554   3.135   1.422
 3030SOL    HW1 9106   4.549   3.168   1.517
 3030SOL    HW2 9107   4.468   3.154   1.376
 3031SOL     OW 9108   4.396   3.478   0.154
 3031SOL    HW1 9109   4.405   3.488   0.055
 3031SOL    HW2 9110   4.356   3.389   0.175
 3032SOL     OW 9111   3.987   2.188   0.720
 3032SOL    HW1 9112   3.908   2.239   0.686
 3032SOL    HW2 9113   3.978   2.173   0.818
 3033SOL     OW 9114   4.918   3.474   0.031
 3033SOL    HW1 9115   4.924   3.381   0.068
 3033SOL    HW2 9116   4.859   3.474  -0.049
 3034SOL     OW 9117   4.546   2.864   1.372
 3034SOL    HW1 9118   4.586   2.863   1.280
 3034SOL    HW2 9119   4.556   2.956   1.412
 3035SOL     OW 9120   4.096   3.150   1.490
 3035SOL    HW1 9121   4.083   3.243   1.456
 3035SOL    HW2 9122   4.012   3.098   1.477
 3036SOL     OW 9123   4.314   3.349   0.491
 3036SOL    HW1 9124   4.356   3.291   0.421
 3036SOL    HW2 9125   4.270   3.428   0.447
 3037SOL     OW 9126   3.979   3.210   0.290
 3037SOL    HW1 9127   3.883   3.211   0.263
 3037SOL    HW2 9128   3.991   3.263   0.374
 3038SOL     OW 9129   3.829   2.875   1.726
 3038SOL    HW1 9130   3.752   2.842   1.780
 3038SOL    HW2 9131   3.914   2.845   1.768
 3039SOL     OW 9132   4.396   2.065   1.489
 3039SOL    HW1 9133   4.486   2.049   1.449
 3039SOL    HW2 9134   4.404   2.070   1.588
 3040SOL     OW 9135   3.796   2.028   0.318
 3040SOL    HW1 9136   3.779   2.111   0.264
 3040SOL    HW2 9137   3.886   1.991   0.296
 3041SOL     OW 9138   4.337   2.704   1.431
 3041SOL    HW1 9139   4.393   2.785   1.414
 3041SOL    HW2 9140   4.396   2.624   1.434
 3042SOL     OW 9141   4.440   2.427   1.708
 3042SOL    HW1 9142   4.459   2.492   1.782
 3042SOL    HW2 9143   4.500   2.347   1.717
 3043SOL     OW 9144   4.114   3.603   1.560
 3043SOL    HW1 9145   4.023   3.644   1.558
 3043SOL    HW2 9146   4.107   3.509   1.592
 3044SOL     OW 9147   4.949   2.187   0.449
 3044SOL    HW1 9148   5.014   2.113   0.438
 3044SOL    HW2 9149   4.969   2.237   0.533
 3045SOL     OW 9150   4.318   2.607   0.652
 3045SOL    HW1 9151   4.368   2.692   0.633
 3045SOL    HW2 9152   4.230   2.609   0.604
 3046SOL     OW 9153   4.385   3.652   0.953
 3046SOL    HW1 9154   4.339   3.740   0.940
 3046SOL    HW2 9155   4.484   3.664   0.946
 3047SOL     OW 9156   4.583   2.818   0.861
 3047SOL    HW1 9157   4.637   2.749   0.909
 3047SOL    HW2 9158   4.551   2.887   0.927
 3048SOL     OW 9159   4.807   2.846   0.087
 3048SOL    HW1 9160   4.784   2.899   0.005
 3048SOL    HW2 9161   4.888   2.790   0.068
 3049SOL     OW 9162   3.945   3.176   1.844
 3049SOL    HW1 9163   3.880   3.103   1.823
 3049SOL    HW2 9164   3.949   3.190   1.942
 3050SOL     OW 9165   3.803   3.102   0.653
 3050SOL    HW1 9166   3.802   3.055   0.741
 3050SOL    HW2 9167   3.885   3.074   0.602
 3051SOL     OW 9168   4.396   3.253   1.624
 3051SOL    HW1 9169   4.318   3.203   1.662
 3051SOL    HW2 9170   4.393   3.348   1.655
 3052SOL     OW 9171   4.152   2.286   0.520
 3052SOL    HW1 9172   4.182   2.214   0.458
 3052SOL    HW2 9173   4.113   2.246   0.603
 3053SOL     OW 9174   4.041   2.409   1.280
 3053SOL    HW1 9175   4.079   2.350   1.352
 3053SOL    HW2 9176   4.081   2.383   1.192
 3054SOL     OW 9177   4.536   3.448   0.687
 3054SOL    HW1 9178   4.568   3.458   0.593
 3054SOL    HW2 9179   4.457   3.386   0.689
 3055SOL     OW 9180   4.725   1.896   1.154
 3055SOL    HW1 9181   4.662   1.824   1.123
 3055SOL    HW2 9182   4.818   1.860   1.154
 3056SOL     OW 9183   4.494   3.192   0.301
 3056SOL    HW1 9184   4.448   3.105   0.318
 3056SOL    HW2 9185   4.585   3.189   0.342
 3057SOL     OW 9186   4.342   3.429   1.284
 3057SOL    HW1 9187   4.337   3.511   1.341
 3057SOL    HW2 9188   4.431   3.426   1.239
 3058SOL     OW 9189   3.763   2.939   0.300
 3058SOL    HW1 9190   3.862   2.928   0.291
 3058SOL    HW2 9191   3.723   2.853   0.332
 3059SOL     OW 9192   4.599   3.508   0.337
 3059SOL    HW1 9193   4.522   3.473   0.283
 3059SOL    HW2 9194   4.567   3.579   0.399
 3060SOL     OW 9195   3.954   2.490   1.975
 3060SOL    HW1 9196   3.861   2.488   2.012
 3060SOL    HW2 9197   3.955   2.451   1.883
 3061SOL     OW 9198   3.949   2.137   2.858
 3061SOL    HW1 9199   3.984   2.120   2.950
 3061SOL    HW2 9200   3.861   2.092   2.846
 3062SOL     OW 9201   3.743   2.230   2.509
 3062SOL    HW1 9202   3.661   2.273   2.548
 3062SOL    HW2 9203   3.715   2.157   2.446
 3063SOL     OW 9204   4.293   3.137   3.027
 3063SOL    HW1 9205   4.200   3.130   2.990
 3063SOL    HW2 9206   4.304   3.226   3.071
 3064SOL     OW 9207   4.492   3.006   2.885
 3064SOL    HW1 9208   4.414   3.023   2.945
 3064SOL    HW2 9209   4.526   3.093   2.849
 3065SOL     OW 9210   4.574   2.660   3.685
 3065SOL    HW1 9211   4.570   2.736   3.750
 3065SOL    HW2 9212   4.596   2.696   3.594
 3066SOL     OW 9213   4.409   2.874   2.527
 3066SOL    HW1 9214   4.478   2.858   2.597
 3066SOL    HW2 9215   4.336   2.931   2.565
 3067SOL     OW 9216   4.410   3.023   3.665
 3067SOL    HW1 9217   4.470   3.102   3.679
 3067SOL    HW2 9218   4.324   3.054   3.624
 3068SOL     OW 9219   4.059   3.297   2.923
 3068SOL    HW1 9220   3.981   3.266   2.870
 3068SOL    HW2 9221   4.117   3.355   2.866
 3069SOL     OW 9222   4.162   2.254   3.361
 3069SOL    HW1 9223   4.244   2.198   3.370
 3069SOL    HW2 9224   4.081   2.196   3.365
 3070SOL     OW 9225   3.955   3.575   2.345
 3070SOL    HW1 9226   3.989   3.652   2.399
 3070SOL    HW2 9227   3.999   3.575   2.255
 3071SOL     OW 9228   3.954   3.296   2.400
 3071SOL    HW1 9229   3.928   3.392   2.400
 3071SOL    HW2 9230   3.883   3.242   2.445
 3072SOL     OW 9231   3.964   2.953   2.748
 3072SOL    HW1 9232   3.978   2.869   2.800
 3072SOL    HW2 9233   3.909   3.017   2.803
 3073SOL     OW 9234   4.344   3.648   3.301
 3073SOL    HW1 9235   4.252   3.631   3.336
 3073SOL    HW2 9236   4.372   3.740   3.327
 3074SOL     OW 9237   4.330   2.826   1.985
 3074SOL    HW1 9238   4.337   2.910   1.931
 3074SOL    HW2 9239   4.376   2.839   2.073
 3075SOL     OW 9240   3.846   2.505   2.425
 3075SOL    HW1 9241   3.801   2.417   2.442
 3075SOL    HW2 9242   3.845   2.559   2.509
 3076SOL     OW 9243   3.751   3.458   1.979
 3076SOL    HW1 9244   3.732   3.362   2.000
 3076SOL    HW2 9245   3.718   3.516   2.054
 3077SOL     OW 9246   3.837   2.599   3.459
 3077SOL    HW1 9247   3.925   2.586   3.504
 3077SOL    HW2 9248   3.824   2.696   3.437
 3078SOL     OW 9249   4.337   3.227   2.588
 3078SOL    HW1 9250   4.288   3.140   2.597
 3078SOL    HW2 9251   4.314   3.270   2.501
 3079SOL     OW 9252   4.533   1.866   2.364
 3079SOL    HW1 9253   4.573   1.957   2.355
 3079SOL    HW2 9254   4.433   1.874   2.370
 3080SOL     OW 9255   3.921   2.838   3.126
 3080SOL    HW1 9256   4.010   2.793   3.112
 3080SOL    HW2 9257   3.848   2.773   3.107
 3081SOL     OW 9258   4.041   2.113   3.663
 3081SOL    HW1 9259   4.112   2.184   3.669
 3081SOL    HW2 9260   3.953   2.152   3.691
 3082SOL     OW 9261   4.322   2.591   2.132
 3082SOL    HW1 9262   4.346   2.660   2.064
 3082SOL    HW2 9263   4.244   2.624   2.186
 3083SOL     OW 9264   4.531   2.467   3.327
 3083SOL    HW1 9265   4.484   2.464   3.416
 3083SOL    HW2 9266   4.480   2.412   3.261
 3084SOL     OW 9267   4.715   2.272   3.104
 3084SOL    HW1 9268   4.638   2.306   3.158
 3084SOL    HW2 9269   4.681   2.221   3.025
 3085SOL     OW 9270   3.800   2.673   2.651
 3085SOL    HW1 9271   3.899   2.661   2.660
 3085SOL    HW2 9272   3.776   2.768   2.672
 3086SOL     OW 9273   3.854   3.683   3.433
 3086SOL    HW1 9274   3.844   3.668   3.532
 3086SOL    HW2 9275   3.768   3.719   3.397
 3087SOL     OW 9276   4.589   2.210   2.057
 3087SOL    HW1 9277   4.648   2.273   2.008
 3087SOL    HW2 9278   4.608   2.116   2.028
 3088SOL     OW 9279   4.274   2.058   2.747
 3088SOL    HW1 9280   4.269   2.053   2.847
 3088SOL    HW2 9281   4.276   2.154   2.718
 3089SOL     OW 9282   4.732   3.318   2.339
 3089SOL    HW1 9283   4.686   3.390   2.287
 3089SOL    HW2 9284   4.728   3.338   2.437
 3090SOL     OW 9285   4.075   3.663   2.715
 3090SOL    HW1 9286   4.125   3.577   2.721
 3090SOL    HW2 9287   4.140   3.740   2.712
 3091SOL     OW 9288   4.045   2.805   2.104
 3091SOL    HW1 9289   4.127   2.844   2.062
 3091SOL    HW2 9290   4.018   2.723   2.055
 3092SOL     OW 9291   4.185   3.128   3.589
 3092SOL    HW1 9292   4.135   3.129   3.503
 3092SOL    HW2 9293   4.122   3.110   3.665
 3093SOL     OW 9294   3.926   2.147   3.360
 3093SOL    HW1 9295   3.846   2.207   3.347
 3093SOL    HW2 9296   3.916   2.098   3.446
 3094SOL     OW 9297   4.188   3.605   2.185
 3094SOL    HW1 9298   4.221   3.644   2.271
 3094SOL    HW2 9299   4.264   3.598   2.120
 3095SOL     OW 9300   3.973   3.647   3.103
 3095SOL    HW1 9301   4.030   3.582   3.153
 3095SOL    HW2 9302   3.957   3.614   3.010
 3096SOL     OW 9303   4.106   2.562   2.342
 3096SOL    HW1 9304   4.151   2.472   2.339
 3096SOL    HW2 9305   4.012   2.551   2.375
 3097SOL     OW 9306   4.338   1.984   1.979
 3097SOL    HW1 9307   4.436   1.962   1.986
 3097SOL    HW2 9308   4.307   1.967   1.886
 3098SOL     OW 9309   4.505   2.126   3.611
 3098SOL    HW1 9310   4.572   2.065   3.654
 3098SOL    HW2 9311   4.432   2.145   3.676
 3099SOL     OW 9312   4.527   3.264   2.786
 3099SOL    HW1 9313   4.617   3.278   2.744
 3099SOL    HW2 9314   4.456   3.266   2.715
 3100SOL     OW 9315   4.646   2.365   2.761
 3100SOL    HW1 9316   4.621   2.356   2.665
 3100SOL    HW2 9317   4.694   2.283   2.792
 3101SOL     OW 9318   4.263   1.926   2.374
 3101SOL    HW1 9319   4.182   1.927   2.432
 3101SOL    HW2 9320   4.266   2.009   2.319
 3102SOL     OW 9321   4.021   1.897   2.033
 3102SOL    HW1 9322   4.070   1.981   2.012
 3102SOL    HW2 9323   4.083   1.832   2.078
 3103SOL     OW 9324   4.951   3.432   2.655
 3103SOL    HW1 9325   4.972   3.506   2.590
 3103SOL    HW2 9326   5.019   3.432   2.728
 3104SOL     OW 9327   4.183   3.014   2.603
 3104SOL    HW1 9328   4.112   2.987   2.668
 3104SOL    HW2 9329   4.157   2.986   2.510
 3105SOL     OW 9330   3.802   2.418   3.248
 3105SOL    HW1 9331   3.894   2.417   3.207
 3105SOL    HW2 9332   3.796   2.492   3.315
 3106SOL     OW 9333   4.285   2.084   3.009
 3106SOL    HW1 9334   4.323   2.000   3.046
 3106SOL    HW2 9335   4.197   2.103   3.053
 3107SOL     OW 9336   4.212   3.247   2.036
 3107SOL    HW1 9337   4.125   3.232   2.083
 3107SOL    HW2 9338   4.195   3.273   1.941
 3108SOL     OW 9339   4.251   2.118   2.190
 3108SOL    HW1 9340   4.278   2.059   2.115
 3108SOL    HW2 9341   4.251   2.213   2.159
 3109SOL     OW 9342   4.639   1.951   3.264
 3109SOL    HW1 9343   4.664   1.931   3.169
 3109SOL    HW2 9344   4.711   2.007   3.306
 3110SOL     OW 9345   4.429   2.912   2.230
 3110SOL    HW1 9346   4.415   2.919   2.329
 3110SOL    HW2 9347   4.513   2.861   2.212
 3111SOL     OW 9348   4.134   2.675   3.113
 3111SOL    HW1 9349   4.220   2.687   3.163
 3111SOL    HW2 9350   4.092   2.588   3.140
 3112SOL     OW 9351   3.788   3.426   3.193
 3112SOL    HW1 9352   3.742   3.508   3.159
 3112SOL    HW2 9353   3.886   3.445   3.202
 3113SOL     OW 9354   4.091   2.962   2.363
 3113SOL    HW1 9355   4.084   3.045   2.307
 3113SOL    HW2 9356   4.095   2.882   2.303
 3114SOL     OW 9357   4.290   2.399   2.727
 3114SOL    HW1 9358   4.302   2.465   2.653
 3114SOL    HW2 9359   4.336   2.433   2.810
 3115SOL     OW 9360   4.078   3.372   3.191
 3115SOL    HW1 9361   4.057   3.328   3.104
 3115SOL    HW2 9362   4.175   3.398   3.194
 3116SOL     OW 9363   4.126   2.613   3.460
 3116SOL    HW1 9364   4.194   2.668   3.413
 3116SOL    HW2 9365   4.166   2.525   3.487
 3117SOL     OW 9366   4.228   1.912   3.602
 3117SOL    HW1 9367   4.186   1.855   3.532
 3117SOL    HW2 9368   4.162   1.981   3.634
 3118SOL     OW 9369   4.297   2.732   2.891
 3118SOL    HW1 9370   4.341   2.821   2.882
 3118SOL    HW2 9371   4.234   2.732   2.968
 3119SOL     OW 9372   4.933   2.387   2.137
 3119SOL    HW1 9373   4.946   2.303   2.191
 3119SOL    HW2 9374   4.904   2.461   2.197
 3120SOL     OW 9375   4.031   2.075   3.093
 3120SOL    HW1 9376   4.008   2.112   3.183
 3120SOL    HW2 9377   4.001   1.980   3.087
 3121SOL     OW 9378   3.761   3.172   3.144
 3121SOL    HW1 9379   3.814   3.123   3.212
 3121SOL    HW2 9380   3.783   3.270   3.149
 3122SOL     OW 9381   4.456   2.496   2.926
 3122SOL    HW1 9382   4.515   2.470   2.850
 3122SOL    HW2 9383   4.428   2.592   2.915
 3123SOL     OW 9384   4.031   1.925   2.480
 3123SOL    HW1 9385   4.020   2.019   2.513
 3123SOL    HW2 9386   4.026   1.862   2.557
 3124SOL     OW 9387   4.747   2.628   2.828
 3124SOL    HW1 9388   4.762   2.649   2.924
 3124SOL    HW2 9389   4.717   2.533   2.819
 3125SOL     OW 9390   4.704   3.435   3.562
 3125SOL    HW1 9391   4.684   3.479   3.474
 3125SOL    HW2 9392   4.743   3.344   3.546
 3126SOL     OW 9393   4.074   2.760   3.666
 3126SOL    HW1 9394   4.150   2.804   3.714
 3126SOL    HW2 9395   4.109   2.713   3.584
 3127SOL     OW 9396   4.043   2.672   2.811
 3127SOL    HW1 9397   4.136   2.708   2.816
 3127SOL    HW2 9398   4.037   2.587   2.863
 3128SOL     OW 9399   4.063   2.371   2.868
 3128SOL    HW1 9400   4.011   2.288   2.851
 3128SOL    HW2 9401   4.140   2.376   2.804
 3129SOL     OW 9402   3.732   3.188   2.062
 3129SOL    HW1 9403   3.639   3.209   2.031
 3129SOL    HW2 9404   3.742   3.089   2.075
 3130SOL     OW 9405   3.812   3.663   2.789
 3130SOL    HW1 9406   3.770   3.577   2.762
 3130SOL    HW2 9407   3.906   3.666   2.755
 3131SOL     OW 9408   4.228   3.430   2.772
 3131SOL    HW1 9409   4.294   3.504   2.781
 3131SOL    HW2 9410   4.272   3.351   2.730
 3132SOL     OW 9411   3.764   2.406   2.976
 3132SOL    HW1 9412   3.849   2.373   2.935
 3132SOL    HW2 9413   3.777   2.421   3.074
 3133SOL     OW 9414   3.913   2.382   3.584
 3133SOL    HW1 9415   3.972   2.342   3.514
 3133SOL    HW2 9416   3.855   2.453   3.543
 3134SOL     OW 9417   4.539   2.434   2.187
 3134SOL    HW1 9418   4.546   2.345   2.141
 3134SOL    HW2 9419   4.445   2.468   2.179
 3135SOL     OW 9420   3.976   3.426   3.606
 3135SOL    HW1 9421   3.946   3.483   3.682
 3135SOL    HW2 9422   3.969   3.329   3.632
 3136SOL     OW 9423   4.395   2.326   3.131
 3136SOL    HW1 9424   4.361   2.237   3.101
 3136SOL    HW2 9425   4.421   2.380   3.051
 3137SOL     OW 9426   4.197   2.362   2.053
 3137SOL    HW1 9427   4.258   2.442   2.057
 3137SOL    HW2 9428   4.102   2.393   2.060
 3138SOL     OW 9429   3.883   2.999   3.328
 3138SOL    HW1 9430   3.905   2.938   3.404
 3138SOL    HW2 9431   3.893   2.950   3.242
 3139SOL     OW 9432   3.807   3.120   2.884
 3139SOL    HW1 9433   3.802   3.119   2.984
 3139SOL    HW2 9434   3.724   3.079   2.846
 3140SOL     OW 9435   4.412   3.524   3.578
 3140SOL    HW1 9436   4.356   3.605   3.587
 3140SOL    HW2 9437   4.464   3.528   3.492
 3141SOL     OW 9438   4.627   1.948   1.995
 3141SOL    HW1 9439   4.678   1.949   1.909
 3141SOL    HW2 9440   4.683   1.906   2.066
 3142SOL     OW 9441   3.854   3.656   3.713
 3142SOL    HW1 9442   3.813   3.582   3.766
 3142SOL    HW2 9443   3.918   3.707   3.771
 3143SOL     OW 9444   4.554   3.135   3.284
 3143SOL    HW1 9445   4.549   3.168   3.379
 3143SOL    HW2 9446   4.468   3.154   3.238
 3144SOL     OW 9447   4.396   3.478   2.016
 3144SOL    HW1 9448   4.405   3.488   1.917
 3144SOL    HW2 9449   4.356   3.389   2.037
 3145SOL     OW 9450   3.987   2.188   2.582
 3145SOL    HW1 9451   3.908   2.239   2.548
 3145SOL    HW2 9452   3.978   2.173   2.680
 3146SOL     OW 9453   4.546   2.864   3.234
 3146SOL    HW1 9454   4.586   2.863   3.142
 3146SOL    HW2 9455   4.556   2.956   3.274
 3147SOL     OW 9456   4.096   3.150   3.352
 3147SOL    HW1 9457   4.083   3.243   3.318
 3147SOL    HW2 9458   4.012   3.098   3.339
 3148SOL     OW 9459   4.314   3.349   2.353
 3148SOL    HW1 9460   4.356   3.291   2.283
 3148SOL    HW2 9461   4.270   3.428   2.309
 3149SOL     OW 9462   3.979   3.210   2.152
 3149SOL    HW1 9463   3.883   3.211   2.125
 3149SOL    HW2 9464   3.991   3.263   2.236
 3150SOL     OW 9465   3.829   2.875   3.588
 3150SOL    HW1 9466   3.752   2.842   3.642
 3150SOL    HW2 9467   3.914   2.845   3.630
 3151SOL     OW 9468   4.396   2.065   3.351
 3151SOL    HW1 9469   4.486   2.049   3.311
 3151SOL    HW2 9470   4.404   2.070   3.450
 3152SOL     OW 9471   3.799   2.207   1.895
 3152SOL    HW1 9472   3.707   2.179   1.866
 3152SOL    HW2 9473   3.830   2.284   1.839
 3153SOL     OW 9474   3.796   2.028   2.180
 3153SOL    HW1 9475   3.779   2.111   2.126
 3153SOL    HW2 9476   3.886   1.991   2.158
 3154SOL     OW 9477   4.337   2.704   3.293
 3154SOL    HW1 9478   4.393   2.785   3.276
 3154SOL    HW2 9479   4.396   2.624   3.296
 3155SOL     OW 9480   4.440   2.427   3.570
 3155SOL    HW1 9481   4.459   2.492   3.644
 3155SOL    HW2 9482   4.500   2.347   3.579
 3156SOL     OW 9483   4.114   3.603   3.422
 3156SOL    HW1 9484   4.023   3.644   3.420
 3156SOL    HW2 9485   4.107   3.509   3.454
 3157SOL     OW 9486   4.949   2.187   2.311
 3157SOL    HW1 9487   5.014   2.113   2.300
 3157SOL    HW2 9488   4.969   2.237   2.395
 3158SOL     OW 9489   4.318   2.607   2.514
 3158SOL    HW1 9490   4.368   2.692   2.495
 3158SOL    HW2 9491   4.230   2.609   2.466
 3159SOL     OW 9492   4.385   3.652   2.815
 3159SOL    HW1 9493   4.339   3.740   2.802
 3159SOL    HW2 9494   4.484   3.664   2.808
 3160SOL     OW 9495   4.583   2.818   2.723
 3160SOL    HW1 9496   4.637   2.749   2.771
 3160SOL    HW2 9497   4.551   2.887   2.789
 3161SOL     OW 9498   3.945   3.176   3.706
 3161SOL    HW1 9499   3.880   3.103   3.685
 3161SOL    HW2 9500   3.949   3.190   3.804
 3162SOL     OW 9501   3.803   3.102   2.515
 3162SOL    HW1 9502   3.802   3.055   2.603
 3162SOL    HW2 9503   3.885   3.074   2.464
 3163SOL     OW 9504   4.396   3.253   3.486
 3163SOL    HW1 9505   4.318   3.203   3.524
 3163SOL    HW2 9506   4.393   3.348   3.517
 3164SOL     OW 9507   4.152   2.286   2.382
 3164SOL    HW1 9508   4.182   2.214   2.320
 3164SOL    HW2 9509   4.113   2.246   2.465
 3165SOL     OW 9510   4.041   2.409   3.142
 3165SOL    HW1 9511   4.079   2.350   3.214
 3165SOL    HW2 9512   4.081   2.383   3.054
 3166SOL     OW 9513   4.536   3.448   2.549
 3166SOL    HW1 9514   4.568   3.458   2.455
 3166SOL    HW2 9515   4.457   3.386   2.551
 3167SOL     OW 9516   4.725   1.896   3.016
 3167SOL    HW1 9517   4.662   1.824   2.985
 3167SOL    HW2 9518   4.818   1.860   3.016
 3168SOL     OW 9519   4.494   3.192   2.163
 3168SOL    HW1 9520   4.448   3.105   2.180
 3168SOL    HW2 9521   4.585   3.189   2.204
 3169SOL     OW 9522   4.342   3.429   3.146
 3169SOL    HW1 9523   4.337   3.511   3.203
 3169SOL    HW2 9524   4.431   3.426   3.101
 3170SOL     OW 9525   3.763   2.939   2.162
 3170SOL    HW1 9526   3.862   2.928   2.153
 3170SOL    HW2 9527   3.723   2.853   2.194
 3171SOL     OW 9528   4.599   3.508   2.199
 3171SOL    HW1 9529   4.522   3.473   2.145
 3171SOL    HW2 9530   4.567   3.579   2.261
 3172SOL     OW 9531   3.954   2.490   3.837
 3172SOL    HW1 9532   3.861   2.488   3.874
 3172SOL    HW2 9533   3.955   2.451   3.745
 3173SOL     OW 9534   3.949   2.137   4.720
 3173SOL    HW1 9535   3.984   2.120   4.812
 3173SOL    HW2 9536   3.861   2.092   4.708
 3174SOL     OW 9537   3.743   2.230   4.371
 3174SOL    HW1 9538   3.661   2.273   4.410
 3174SOL    HW2 9539   3.715   2.157   4.308
 3175SOL     OW 9540   4.492   3.006   4.747
 3175SOL    HW1 9541   4.414   3.023   4.807
 3175SOL    HW2 9542   4.526   3.093   4.711
 3176SOL     OW 9543   4.409   2.874   4.389
 3176SOL    HW1 9544   4.478   2.858   4.459
 3176SOL    HW2 9545   4.336   2.931   4.427
 3177SOL     OW 9546   3.955   3.575   4.207
 3177SOL    HW1 9547   3.989   3.652   4.261
 3177SOL    HW2 9548   3.999   3.575   4.117
 3178SOL     OW 9549   3.954   3.296   4.262
 3178SOL    HW1 9550   3.928   3.392   4.262
 3178SOL    HW2 9551   3.883   3.242   4.307
 3179SOL     OW 9552   3.964   2.953   4.610
 3179SOL    HW1 9553   3.978   2.869   4.662
 3179SOL    HW2 9554   3.909   3.017   4.665
 3180SOL     OW 9555   4.330   2.826   3.847
 3180SOL    HW1 9556   4.337   2.910   3.793
 3180SOL    HW2 9557   4.376   2.839   3.935
 3181SOL     OW 9558   3.846   2.505   4.287
 3181SOL    HW1 9559   3.801   2.417   4.304
 3181SOL    HW2 9560   3.845   2.559   4.371
 3182SOL     OW 9561   3.751   3.458   3.841
 3182SOL    HW1 9562   3.732   3.362   3.862
 3182SOL    HW2 9563   3.718   3.516   3.916
 3183SOL     OW 9564   4.337   3.227   4.450
 3183SOL    HW1 9565   4.288   3.140   4.459
 3183SOL    HW2 9566   4.314   3.270   4.363
 3184SOL     OW 9567   4.533   1.866   4.226
 3184SOL    HW1 9568   4.573   1.957   4.217
 3184SOL    HW2 9569   4.433   1.874   4.232
 3185SOL     OW 9570   4.322   2.591   3.994
 3185SOL    HW1 9571   4.346   2.660   3.926
 3185SOL    HW2 9572   4.244   2.624   4.048
 3186SOL     OW 9573   3.800   2.673   4.513
 3186SOL    HW1 9574   3.899   2.661   4.522
 3186SOL    HW2 9575   3.776   2.768   4.534
 3187SOL     OW 9576   4.589   2.210   3.919
 3187SOL    HW1 9577   4.648   2.273   3.870
 3187SOL    HW2 9578   4.608   2.116   3.890
 3188SOL     OW 9579   4.274   2.058   4.609
 3188SOL    HW1 9580   4.269   2.053   4.709
 3188SOL    HW2 9581   4.276   2.154   4.580
 3189SOL     OW 9582   4.732   3.318   4.201
 3189SOL    HW1 9583   4.686   3.390   4.149
 3189SOL    HW2 9584   4.728   3.338   4.299
 3190SOL     OW 9585   4.075   3.663   4.577
 3190SOL    HW1 9586   4.125   3.577   4.583
 3190SOL    HW2 9587   4.140   3.740   4.574
 3191SOL     OW 9588   4.045   2.805   3.966
 3191SOL    HW1 9589   4.127   2.844   3.924
 3191SOL    HW2 9590   4.018   2.723   3.917
 3192SOL     OW 9591   4.188   3.605   4.047
 3192SOL    HW1 9592   4.221   3.644   4.133
 3192SOL    HW2 9593   4.264   3.598   3.982
 3193SOL     OW 9594   4.106   2.562   4.204
 3193SOL    HW1 9595   4.151   2.472   4.201
 3193SOL    HW2 9596   4.012   2.551   4.237
 3194SOL     OW 9597   4.338   1.984   3.841
 3194SOL    HW1 9598   4.436   1.962   3.848
 3194SOL    HW2 9599   4.307   1.967   3.748
 3195SOL     OW 9600   4.527   3.264   4.648
 3195SOL    HW1 9601   4.617   3.278   4.606
 3195SOL    HW2 9602   4.456   3.266   4.577
 3196SOL     OW 9603   4.263   1.926   4.236
 3196SOL    HW1 9604   4.182   1.927   4.294
 3196SOL    HW2 9605   4.266   2.009   4.181
 3197SOL     OW 9606   4.021   1.897   3.895
 3197SOL    HW1 9607   4.070   1.981   3.874
 3197SOL    HW2 9608   4.083   1.832   3.940
 3198SOL     OW 9609   4.951   3.432   4.517
 3198SOL    HW1 9610   4.972   3.506   4.452
 3198SOL    HW2 9611   5.019   3.432   4.590
 3199SOL     OW 9612   4.183   3.014   4.465
 3199SOL    HW1 9613   4.112   2.987   4.530
 3199SOL    HW2 9614   4.157   2.986   4.372
 3200SOL     OW 9615   4.212   3.247   3.898
 3200SOL    HW1 9616   4.125   3.232   3.945
 3200SOL    HW2 9617   4.195   3.273   3.803
 3201SOL     OW 9618   4.251   2.118   4.052
 3201SOL    HW1 9619   4.278   2.059   3.977
 3201SOL    HW2 9620   4.251   2.213   4.021
 3202SOL     OW 9621   4.429   2.912   4.092
 3202SOL    HW1 9622   4.415   2.919   4.191
 3202SOL    HW2 9623   4.513   2.861   4.074
 3203SOL     OW 9624   4.091   2.962   4.225
 3203SOL    HW1 9625   4.084   3.045   4.169
 3203SOL    HW2 9626   4.095   2.882   4.165
 3204SOL     OW 9627   4.290   2.399   4.589
 3204SOL    HW1 9628   4.302   2.465   4.515
 3204SOL    HW2 9629   4.336   2.433   4.672
 3205SOL     OW 9630   4.933   2.387   3.999
 3205SOL    HW1 9631   4.946   2.303   4.053
 3205SOL    HW2 9632   4.904   2.461   4.059
 3206SOL     OW 9633   4.456   2.496   4.788
 3206SOL    HW1 9634   4.515   2.470   4.712
 3206SOL    HW2 9635   4.428   2.592   4.777
 3207SOL     OW 9636   4.031   1.925   4.342
 3207SOL    HW1 9637   4.020   2.019   4.375
 3207SOL    HW2 9638   4.026   1.862   4.419
 3208SOL     OW 9639   4.747   2.628   4.690
 3208SOL    HW1 9640   4.762   2.649   4.786
 3208SOL    HW2 9641   4.717   2.533   4.681
 3209SOL     OW 9642   4.043   2.672   4.673
 3209SOL    HW1 9643   4.136   2.708   4.678
 3209SOL    HW2 9644   4.037   2.587   4.725
 3210SOL     OW 9645   3.732   3.188   3.924
 3210SOL    HW1 9646   3.639   3.209   3.893
 3210SOL    HW2 9647   3.742   3.089   3.937
 3211SOL     OW 9648   3.812   3.663   4.651
 3211SOL    HW1 9649   3.770   3.577   4.624
 3211SOL    HW2 9650   3.906   3.666   4.617
 3212SOL     OW 9651   4.228   3.430   4.634
 3212SOL    HW1 9652   4.294   3.504   4.643
 3212SOL    HW2 9653   4.272   3.351   4.592
 3213SOL     OW 9654   4.726   2.658   4.962
 3213SOL    HW1 9655   4.767   2.626   5.048
 3213SOL    HW2 9656   4.630   2.631   4.959
 3214SOL     OW 9657   4.539   2.434   4.049
 3214SOL    HW1 9658   4.546   2.345   4.003
 3214SOL    HW2 9659   4.445   2.468   4.041
 3215SOL     OW 9660   4.197   2.362   3.915
 3215SOL    HW1 9661   4.258   2.442   3.919
 3215SOL    HW2 9662   4.102   2.393   3.922
 3216SOL     OW 9663   4.627   1.948   3.857
 3216SOL    HW1 9664   4.678   1.949   3.771
 3216SOL    HW2 9665   4.683   1.906   3.928
 3217SOL     OW 9666   4.396   3.478   3.878
 3217SOL    HW1 9667   4.405   3.488   3.779
 3217SOL    HW2 9668   4.356   3.389   3.899
 3218SOL     OW 9669   3.987   2.188   4.444
 3218SOL    HW1 9670   3.908   2.239   4.410
 3218SOL    HW2 9671   3.978   2.173   4.542
 3219SOL     OW 9672   4.314   3.349   4.215
 3219SOL    HW1 9673   4.356   3.291   4.145
 3219SOL    HW2 9674   4.270   3.428   4.171
 3220SOL     OW 9675   3.979   3.210   4.014
 3220SOL    HW1 9676   3.883   3.211   3.987
 3220SOL    HW2 9677   3.991   3.263   4.098
 3221SOL     OW 9678   3.799   2.207   3.757
 3221SOL    HW1 9679   3.707   2.179   3.728
 3221SOL    HW2 9680   3.830   2.284   3.701
 3222SOL     OW 9681   3.796   2.028   4.042
 3222SOL    HW1 9682   3.779   2.111   3.988
 3222SOL    HW2 9683   3.886   1.991   4.020
 3223SOL     OW 9684   4.949   2.187   4.173
 3223SOL    HW1 9685   5.014   2.113   4.162
 3223SOL    HW2 9686   4.969   2.237   4.257
 3224SOL     OW 9687   4.318   2.607   4.376
 3224SOL    HW1 9688   4.368   2.692   4.357
 3224SOL    HW2 9689   4.230   2.609   4.328
 3225SOL     OW 9690   4.385   3.652   4.677
 3225SOL    HW1 9691   4.339   3.740   4.664
 3225SOL    HW2 9692   4.484   3.664   4.670
 3226SOL     OW 9693   4.583   2.818   4.585
 3226SOL    HW1 9694   4.637   2.749   4.633
 3226SOL    HW2 9695   4.551   2.887   4.651
 3227SOL     OW 9696   3.803   3.102   4.377
 3227SOL    HW1 9697   3.802   3.055   4.465
 3227SOL    HW2 9698   3.885   3.074   4.326
 3228SOL     OW 9699   4.152   2.286   4.244
 3228SOL    HW1 9700   4.182   2.214   4.182
 3228SOL    HW2 9701   4.113   2.246   4.327
 3229SOL     OW 9702   4.536   3.448   4.411
 3229SOL    HW1 9703   4.568   3.458   4.317
 3229SOL    HW2 9704   4.457   3.386   4.413
 3230SOL     OW 9705   4.494   3.192   4.025
 3230SOL    HW1 9706   4.448   3.105   4.042
 3230SOL    HW2 9707   4.585   3.189   4.066
 3231SOL     OW 9708   3.763   2.939   4.024
 3231SOL    HW1 9709   3.862   2.928   4.015
 3231SOL    HW2 9710   3.723   2.853   4.056
 3232SOL     OW 9711   4.599   3.508   4.061
 3232SOL    HW1 9712   4.522   3.473   4.007
 3232SOL    HW2 9713   4.567   3.579   4.123
 3233SOL     OW 9714   3.954   4.352   0.113
 3233SOL    HW1 9715   3.861   4.350   0.150
 3233SOL    HW2 9716   3.955   4.313   0.021
 3234SOL     OW 9717   3.949   3.999   0.996
 3234SOL    HW1 9718   3.984   3.982   1.088
 3234SOL    HW2 9719   3.861   3.954   0.984
 3235SOL     OW 9720   3.743   4.092   0.647
 3235SOL    HW1 9721   3.661   4.135   0.686
 3235SOL    HW2 9722   3.715   4.019   0.584
 3236SOL     OW 9723   4.574   4.522   1.823
 3236SOL    HW1 9724   4.570   4.598   1.888
 3236SOL    HW2 9725   4.596   4.558   1.732
 3237SOL     OW 9726   4.409   4.736   0.665
 3237SOL    HW1 9727   4.478   4.720   0.735
 3237SOL    HW2 9728   4.336   4.793   0.703
 3238SOL     OW 9729   4.162   4.116   1.499
 3238SOL    HW1 9730   4.244   4.060   1.508
 3238SOL    HW2 9731   4.081   4.058   1.503
 3239SOL     OW 9732   3.846   4.367   0.563
 3239SOL    HW1 9733   3.801   4.279   0.580
 3239SOL    HW2 9734   3.845   4.421   0.647
 3240SOL     OW 9735   3.837   4.461   1.597
 3240SOL    HW1 9736   3.925   4.448   1.642
 3240SOL    HW2 9737   3.824   4.558   1.575
 3241SOL     OW 9738   4.533   3.728   0.502
 3241SOL    HW1 9739   4.573   3.819   0.493
 3241SOL    HW2 9740   4.433   3.736   0.508
 3242SOL     OW 9741   4.041   3.975   1.801
 3242SOL    HW1 9742   4.112   4.046   1.807
 3242SOL    HW2 9743   3.953   4.014   1.829
 3243SOL     OW 9744   4.322   4.453   0.270
 3243SOL    HW1 9745   4.346   4.522   0.202
 3243SOL    HW2 9746   4.244   4.486   0.324
 3244SOL     OW 9747   4.531   4.329   1.465
 3244SOL    HW1 9748   4.484   4.326   1.554
 3244SOL    HW2 9749   4.480   4.274   1.399
 3245SOL     OW 9750   4.715   4.134   1.242
 3245SOL    HW1 9751   4.638   4.168   1.296
 3245SOL    HW2 9752   4.681   4.083   1.163
 3246SOL     OW 9753   3.800   4.535   0.789
 3246SOL    HW1 9754   3.899   4.523   0.798
 3246SOL    HW2 9755   3.776   4.630   0.810
 3247SOL     OW 9756   4.589   4.072   0.195
 3247SOL    HW1 9757   4.648   4.135   0.146
 3247SOL    HW2 9758   4.608   3.978   0.166
 3248SOL     OW 9759   4.274   3.920   0.885
 3248SOL    HW1 9760   4.269   3.915   0.985
 3248SOL    HW2 9761   4.276   4.016   0.856
 3249SOL     OW 9762   3.926   4.009   1.498
 3249SOL    HW1 9763   3.846   4.069   1.485
 3249SOL    HW2 9764   3.916   3.960   1.584
 3250SOL     OW 9765   4.106   4.424   0.480
 3250SOL    HW1 9766   4.151   4.334   0.477
 3250SOL    HW2 9767   4.012   4.413   0.513
 3251SOL     OW 9768   4.505   3.988   1.749
 3251SOL    HW1 9769   4.572   3.927   1.792
 3251SOL    HW2 9770   4.432   4.007   1.814
 3252SOL     OW 9771   4.646   4.227   0.899
 3252SOL    HW1 9772   4.621   4.218   0.803
 3252SOL    HW2 9773   4.694   4.145   0.930
 3253SOL     OW 9774   4.263   3.788   0.512
 3253SOL    HW1 9775   4.182   3.789   0.570
 3253SOL    HW2 9776   4.266   3.871   0.457
 3254SOL     OW 9777   4.021   3.759   0.171
 3254SOL    HW1 9778   4.070   3.843   0.150
 3254SOL    HW2 9779   4.083   3.694   0.216
 3255SOL     OW 9780   3.802   4.280   1.386
 3255SOL    HW1 9781   3.894   4.279   1.345
 3255SOL    HW2 9782   3.796   4.354   1.453
 3256SOL     OW 9783   4.285   3.946   1.147
 3256SOL    HW1 9784   4.323   3.862   1.184
 3256SOL    HW2 9785   4.197   3.965   1.191
 3257SOL     OW 9786   4.251   3.980   0.328
 3257SOL    HW1 9787   4.278   3.921   0.253
 3257SOL    HW2 9788   4.251   4.075   0.297
 3258SOL     OW 9789   4.639   3.813   1.402
 3258SOL    HW1 9790   4.664   3.793   1.307
 3258SOL    HW2 9791   4.711   3.869   1.444
 3259SOL     OW 9792   4.134   4.537   1.251
 3259SOL    HW1 9793   4.220   4.549   1.301
 3259SOL    HW2 9794   4.092   4.450   1.278
 3260SOL     OW 9795   4.290   4.261   0.865
 3260SOL    HW1 9796   4.302   4.327   0.791
 3260SOL    HW2 9797   4.336   4.295   0.948
 3261SOL     OW 9798   4.126   4.475   1.598
 3261SOL    HW1 9799   4.194   4.530   1.551
 3261SOL    HW2 9800   4.166   4.387   1.625
 3262SOL     OW 9801   4.228   3.774   1.740
 3262SOL    HW1 9802   4.186   3.717   1.670
 3262SOL    HW2 9803   4.162   3.843   1.772
 3263SOL     OW 9804   4.297   4.594   1.029
 3263SOL    HW1 9805   4.341   4.683   1.020
 3263SOL    HW2 9806   4.234   4.594   1.106
 3264SOL     OW 9807   4.933   4.249   0.275
 3264SOL    HW1 9808   4.946   4.165   0.329
 3264SOL    HW2 9809   4.904   4.323   0.335
 3265SOL     OW 9810   4.031   3.937   1.231
 3265SOL    HW1 9811   4.008   3.974   1.321
 3265SOL    HW2 9812   4.001   3.842   1.225
 3266SOL     OW 9813   4.456   4.358   1.064
 3266SOL    HW1 9814   4.515   4.332   0.988
 3266SOL    HW2 9815   4.428   4.454   1.053
 3267SOL     OW 9816   4.031   3.787   0.618
 3267SOL    HW1 9817   4.020   3.881   0.651
 3267SOL    HW2 9818   4.026   3.724   0.695
 3268SOL     OW 9819   4.747   4.490   0.966
 3268SOL    HW1 9820   4.762   4.511   1.062
 3268SOL    HW2 9821   4.717   4.395   0.957
 3269SOL     OW 9822   4.074   4.622   1.804
 3269SOL    HW1 9823   4.150   4.666   1.852
 3269SOL    HW2 9824   4.109   4.575   1.722
 3270SOL     OW 9825   4.043   4.534   0.949
 3270SOL    HW1 9826   4.136   4.570   0.954
 3270SOL    HW2 9827   4.037   4.449   1.001
 3271SOL     OW 9828   4.063   4.233   1.006
 3271SOL    HW1 9829   4.011   4.150   0.989
 3271SOL    HW2 9830   4.140   4.238   0.942
 3272SOL     OW 9831   4.726   4.520   1.238
 3272SOL    HW1 9832   4.767   4.488   1.324
 3272SOL    HW2 9833   4.630   4.493   1.235
 3273SOL     OW 9834   3.764   4.268   1.114
 3273SOL    HW1 9835   3.849   4.235   1.073
 3273SOL    HW2 9836   3.777   4.283   1.212
 3274SOL     OW 9837   3.913   4.244   1.722
 3274SOL    HW1 9838   3.972   4.204   1.652
 3274SOL    HW2 9839   3.855   4.315   1.681
 3275SOL     OW 9840   4.539   4.296   0.325
 3275SOL    HW1 9841   4.546   4.207   0.279
 3275SOL    HW2 9842   4.445   4.330   0.317
 3276SOL     OW 9843   4.395   4.188   1.269
 3276SOL    HW1 9844   4.361   4.099   1.239
 3276SOL    HW2 9845   4.421   4.242   1.189
 3277SOL     OW 9846   4.197   4.224   0.191
 3277SOL    HW1 9847   4.258   4.304   0.195
 3277SOL    HW2 9848   4.102   4.255   0.198
 3278SOL     OW 9849   4.627   3.810   0.133
 3278SOL    HW1 9850   4.678   3.811   0.047
 3278SOL    HW2 9851   4.683   3.768   0.204
 3279SOL     OW 9852   3.987   4.050   0.720
 3279SOL    HW1 9853   3.908   4.101   0.686
 3279SOL    HW2 9854   3.978   4.035   0.818
 3280SOL     OW 9855   4.763   4.822   0.696
 3280SOL    HW1 9856   4.693   4.775   0.750
 3280SOL    HW2 9857   4.822   4.754   0.653
 3281SOL     OW 9858   3.829   4.737   1.726
 3281SOL    HW1 9859   3.752   4.704   1.780
 3281SOL    HW2 9860   3.914   4.707   1.768
 3282SOL     OW 9861   4.396   3.927   1.489
 3282SOL    HW1 9862   4.486   3.911   1.449
 3282SOL    HW2 9863   4.404   3.932   1.588
 3283SOL     OW 9864   3.796   3.890   0.318
 3283SOL    HW1 9865   3.779   3.973   0.264
 3283SOL    HW2 9866   3.886   3.853   0.296
 3284SOL     OW 9867   4.337   4.566   1.431
 3284SOL    HW1 9868   4.393   4.647   1.414
 3284SOL    HW2 9869   4.396   4.486   1.434
 3285SOL     OW 9870   4.440   4.289   1.708
 3285SOL    HW1 9871   4.459   4.354   1.782
 3285SOL    HW2 9872   4.500   4.209   1.717
 3286SOL     OW 9873   4.949   4.049   0.449
 3286SOL    HW1 9874   5.014   3.975   0.438
 3286SOL    HW2 9875   4.969   4.099   0.533
 3287SOL     OW 9876   4.318   4.469   0.652
 3287SOL    HW1 9877   4.368   4.554   0.633
 3287SOL    HW2 9878   4.230   4.471   0.604
 3288SOL     OW 9879   4.583   4.680   0.861
 3288SOL    HW1 9880   4.637   4.611   0.909
 3288SOL    HW2 9881   4.551   4.749   0.927
 3289SOL     OW 9882   4.152   4.148   0.520
 3289SOL    HW1 9883   4.182   4.076   0.458
 3289SOL    HW2 9884   4.113   4.108   0.603
 3290SOL     OW 9885   4.041   4.271   1.280
 3290SOL    HW1 9886   4.079   4.212   1.352
 3290SOL    HW2 9887   4.081   4.245   1.192
 3291SOL     OW 9888   4.725   3.758   1.154
 3291SOL    HW1 9889   4.662   3.686   1.123
 3291SOL    HW2 9890   4.818   3.722   1.154
 3292SOL     OW 9891   3.954   4.352   1.975
 3292SOL    HW1 9892   3.861   4.350   2.012
 3292SOL    HW2 9893   3.955   4.313   1.883
 3293SOL     OW 9894   3.949   3.999   2.858
 3293SOL    HW1 9895   3.984   3.982   2.950
 3293SOL    HW2 9896   3.861   3.954   2.846
 3294SOL     OW 9897   3.743   4.092   2.509
 3294SOL    HW1 9898   3.661   4.135   2.548
 3294SOL    HW2 9899   3.715   4.019   2.446
 3295SOL     OW 9900   4.574   4.522   3.685
 3295SOL    HW1 9901   4.570   4.598   3.750
 3295SOL    HW2 9902   4.596   4.558   3.594
 3296SOL     OW 9903   4.409   4.736   2.527
 3296SOL    HW1 9904   4.478   4.720   2.597
 3296SOL    HW2 9905   4.336   4.793   2.565
 3297SOL     OW 9906   4.162   4.116   3.361
 3297SOL    HW1 9907   4.244   4.060   3.370
 3297SOL    HW2 9908   4.081   4.058   3.365
 3298SOL     OW 9909   3.846   4.367   2.425
 3298SOL    HW1 9910   3.801   4.279   2.442
 3298SOL    HW2 9911   3.845   4.421   2.509
 3299SOL     OW 9912   3.837   4.461   3.459
 3299SOL    HW1 9913   3.925   4.448   3.504
 3299SOL    HW2 9914   3.824   4.558   3.437
 3300SOL     OW 9915   4.533   3.728   2.364
 3300SOL    HW1 9916   4.573   3.819   2.355
 3300SOL    HW2 9917   4.433   3.736   2.370
 3301SOL     OW 9918   4.041   3.975   3.663
 3301SOL    HW1 9919   4.112   4.046   3.669
 3301SOL    HW2 9920   3.953   4.014   3.691
 3302SOL     OW 9921   4.322   4.453   2.132
 3302SOL    HW1 9922   4.346   4.522   2.064
 3302SOL    HW2 9923   4.244   4.486   2.186
 3303SOL     OW 9924   4.531   4.329   3.327
 3303SOL    HW1 9925   4.484   4.326   3.416
 3303SOL    HW2 9926   4.480   4.274   3.261
 3304SOL     OW 9927   4.715   4.134   3.104
 3304SOL    HW1 9928   4.638   4.168   3.158
 3304SOL    HW2 9929   4.681   4.083   3.025
 3305SOL     OW 9930   3.800   4.535   2.651
 3305SOL    HW1 9931   3.899   4.523   2.660
 3305SOL    HW2 9932   3.776   4.630   2.672
 3306SOL     OW 9933   4.589   4.072   2.057
 3306SOL    HW1 9934   4.648   4.135   2.008
 3306SOL    HW2 9935   4.608   3.978   2.028
 3307SOL     OW 9936   4.274   3.920   2.747
 3307SOL    HW1 9937   4.269   3.915   2.847
 3307SOL    HW2 9938   4.276   4.016   2.718
 3308SOL     OW 9939   3.926   4.009   3.360
 3308SOL    HW1 9940   3.846   4.069   3.347
 3308SOL    HW2 9941   3.916   3.960   3.446
 3309SOL     OW 9942   4.106   4.424   2.342
 3309SOL    HW1 9943   4.151   4.334   2.339
 3309SOL    HW2 9944   4.012   4.413   2.375
 3310SOL     OW 9945   4.338   3.846   1.979
 3310SOL    HW1 9946   4.436   3.824   1.986
 3310SOL    HW2 9947   4.307   3.829   1.886
 3311SOL     OW 9948   4.505   3.988   3.611
 3311SOL    HW1 9949   4.572   3.927   3.654
 3311SOL    HW2 9950   4.432   4.007   3.676
 3312SOL     OW 9951   4.646   4.227   2.761
 3312SOL    HW1 9952   4.621   4.218   2.665
 3312SOL    HW2 9953   4.694   4.145   2.792
 3313SOL     OW 9954   4.263   3.788   2.374
 3313SOL    HW1 9955   4.182   3.789   2.432
 3313SOL    HW2 9956   4.266   3.871   2.319
 3314SOL     OW 9957   4.021   3.759   2.033
 3314SOL    HW1 9958   4.070   3.843   2.012
 3314SOL    HW2 9959   4.083   3.694   2.078
 3315SOL     OW 9960   3.802   4.280   3.248
 3315SOL    HW1 9961   3.894   4.279   3.207
 3315SOL    HW2 9962   3.796   4.354   3.315
 3316SOL     OW 9963   4.285   3.946   3.009
 3316SOL    HW1 9964   4.323   3.862   3.046
 3316SOL    HW2 9965   4.197   3.965   3.053
 3317SOL     OW 9966   4.251   3.980   2.190
 3317SOL    HW1 9967   4.278   3.921   2.115
 3317SOL    HW2 9968   4.251   4.075   2.159
 3318SOL     OW 9969   4.639   3.813   3.264
 3318SOL    HW1 9970   4.664   3.793   3.169
 3318SOL    HW2 9971   4.711   3.869   3.306
 3319SOL     OW 9972   4.134   4.537   3.113
 3319SOL    HW1 9973   4.220   4.549   3.163
 3319SOL    HW2 9974   4.092   4.450   3.140
 3320SOL     OW 9975   4.290   4.261   2.727
 3320SOL    HW1 9976   4.302   4.327   2.653
 3320SOL    HW2 9977   4.336   4.295   2.810
 3321SOL     OW 9978   4.126   4.475   3.460
 3321SOL    HW1 9979   4.194   4.530   3.413
 3321SOL    HW2 9980   4.166   4.387   3.487
 3322SOL     OW 9981   4.228   3.774   3.602
 3322SOL    HW1 9982   4.186   3.717   3.532
 3322SOL    HW2 9983   4.162   3.843   3.634
 3323SOL     OW 9984   4.297   4.594   2.891
 3323SOL    HW1 9985   4.341   4.683   2.882
 3323SOL    HW2 9986   4.234   4.594   2.968
 3324SOL     OW 9987   4.933   4.249   2.137
 3324SOL    HW1 9988   4.946   4.165   2.191
 3324SOL    HW2 9989   4.904   4.323   2.197
 3325SOL     OW 9990   4.031   3.937   3.093
 3325SOL    HW1 9991   4.008   3.974   3.183
 3325SOL    HW2 9992   4.001   3.842   3.087
 3326SOL     OW 9993   4.456   4.358   2.926
 3326SOL    HW1 9994   4.515   4.332   2.850
 3326SOL    HW2 9995   4.428   4.454   2.915
 3327SOL     OW 9996   4.031   3.787   2.480
 3327SOL    HW1 9997   4.020   3.881   2.513
 3327SOL    HW2 9998   4.026   3.724   2.557
 3328SOL     OW 9999   4.747   4.490   2.828
 3328SOL    HW110000   4.762   4.511   2.924
 3328SOL    HW210001   4.717   4.395   2.819
 3329SOL     OW10002   4.074   4.622   3.666
 3329SOL    HW110003   4.150   4.666   3.714
 3329SOL    HW210004   4.109   4.575   3.584
 3330SOL     OW10005   4.043   4.534   2.811
 3330SOL    HW110006   4.136   4.570   2.816
 3330SOL    HW210007   4.037   4.449   2.863
 3331SOL     OW10008   4.063   4.233   2.868
 3331SOL    HW110009   4.011   4.150   2.851
 3331SOL    HW210010   4.140   4.238   2.804
 3332SOL     OW10011   4.726   4.520   3.100
 3332SOL    HW110012   4.767   4.488   3.186
 3332SOL    HW210013   4.630   4.493   3.097
 3333SOL     OW10014   3.764   4.268   2.976
 3333SOL    HW110015   3.849   4.235   2.935
 3333SOL    HW210016   3.777   4.283   3.074
 3334SOL     OW10017   3.913   4.244   3.584
 3334SOL    HW110018   3.972   4.204   3.514
 3334SOL    HW210019   3.855   4.315   3.543
 3335SOL     OW10020   4.539   4.296   2.187
 3335SOL    HW110021   4.546   4.207   2.141
 3335SOL    HW210022   4.445   4.330   2.179
 3336SOL     OW10023   4.395   4.188   3.131
 3336SOL    HW110024   4.361   4.099   3.101
 3336SOL    HW210025   4.421   4.242   3.051
 3337SOL     OW10026   4.197   4.224   2.053
 3337SOL    HW110027   4.258   4.304   2.057
 3337SOL    HW210028   4.102   4.255   2.060
 3338SOL     OW10029   4.627   3.810   1.995
 3338SOL    HW110030   4.678   3.811   1.909
 3338SOL    HW210031   4.683   3.768   2.066
 3339SOL     OW10032   3.987   4.050   2.582
 3339SOL    HW110033   3.908   4.101   2.548
 3339SOL    HW210034   3.978   4.035   2.680
 3340SOL     OW10035   4.763   4.822   2.558
 3340SOL    HW110036   4.693   4.775   2.612
 3340SOL    HW210037   4.822   4.754   2.515
 3341SOL     OW10038   3.829   4.737   3.588
 3341SOL    HW110039   3.752   4.704   3.642
 3341SOL    HW210040   3.914   4.707   3.630
 3342SOL     OW10041   4.396   3.927   3.351
 3342SOL    HW110042   4.486   3.911   3.311
 3342SOL    HW210043   4.404   3.932   3.450
 3343SOL     OW10044   3.799   4.069   1.895
 3343SOL    HW110045   3.707   4.041   1.866
 3343SOL    HW210046   3.830   4.146   1.839
 3344SOL     OW10047   3.796   3.890   2.180
 3344SOL    HW110048   3.779   3.973   2.126
 3344SOL    HW210049   3.886   3.853   2.158
 3345SOL     OW10050   4.337   4.566   3.293
 3345SOL    HW110051   4.393   4.647   3.276
 3345SOL    HW210052   4.396   4.486   3.296
 3346SOL     OW10053   4.440   4.289   3.570
 3346SOL    HW110054   4.459   4.354   3.644
 3346SOL    HW210055   4.500   4.209   3.579
 3347SOL     OW10056   4.949   4.049   2.311
 3347SOL    HW110057   5.014   3.975   2.300
 3347SOL    HW210058   4.969   4.099   2.395
 3348SOL     OW10059   4.318   4.469   2.514
 3348SOL    HW110060   4.368   4.554   2.495
 3348SOL    HW210061   4.230   4.471   2.466
 3349SOL     OW10062   4.583   4.680   2.723
 3349SOL    HW110063   4.637   4.611   2.771
 3349SOL    HW210064   4.551   4.749   2.789
 3350SOL     OW10065   4.152   4.148   2.382
 3350SOL    HW110066   4.182   4.076   2.320
 3350SOL    HW210067   4.113   4.108   2.465
 3351SOL     OW10068   4.041   4.271   3.142
 3351SOL    HW110069   4.079   4.212   3.214
 3351SOL    HW210070   4.081   4.245   3.054
 3352SOL     OW10071   4.725   3.758   3.016
 3352SOL    HW110072   4.662   3.686   2.985
 3352SOL    HW210073   4.818   3.722   3.016
 3353SOL     OW10074   3.954   4.352   3.837
 3353SOL    HW110075   3.861   4.350   3.874
 3353SOL    HW210076   3.955   4.313   3.745
 3354SOL     OW10077   3.949   3.999   4.720
 3354SOL    HW110078   3.984   3.982   4.812
 3354SOL    HW210079   3.861   3.954   4.708
 3355SOL     OW10080   3.743   4.092   4.371
 3355SOL    HW110081   3.661   4.135   4.410
 3355SOL    HW210082   3.715   4.019   4.308
 3356SOL     OW10083   4.409   4.736   4.389
 3356SOL    HW110084   4.478   4.720   4.459
 3356SOL    HW210085   4.336   4.793   4.427
 3357SOL     OW10086   3.846   4.367   4.287
 3357SOL    HW110087   3.801   4.279   4.304
 3357SOL    HW210088   3.845   4.421   4.371
 3358SOL     OW10089   4.533   3.728   4.226
 3358SOL    HW110090   4.573   3.819   4.217
 3358SOL    HW210091   4.433   3.736   4.232
 3359SOL     OW10092   4.322   4.453   3.994
 3359SOL    HW110093   4.346   4.522   3.926
 3359SOL    HW210094   4.244   4.486   4.048
 3360SOL     OW10095   3.800   4.535   4.513
 3360SOL    HW110096   3.899   4.523   4.522
 3360SOL    HW210097   3.776   4.630   4.534
 3361SOL     OW10098   4.589   4.072   3.919
 3361SOL    HW110099   4.648   4.135   3.870
 3361SOL    HW210100   4.608   3.978   3.890
 3362SOL     OW10101   4.274   3.920   4.609
 3362SOL    HW110102   4.269   3.915   4.709
 3362SOL    HW210103   4.276   4.016   4.580
 3363SOL     OW10104   4.106   4.424   4.204
 3363SOL    HW110105   4.151   4.334   4.201
 3363SOL    HW210106   4.012   4.413   4.237
 3364SOL     OW10107   4.338   3.846   3.841
 3364SOL    HW110108   4.436   3.824   3.848
 3364SOL    HW210109   4.307   3.829   3.748
 3365SOL     OW10110   4.263   3.788   4.236
 3365SOL    HW110111   4.182   3.789   4.294
 3365SOL    HW210112   4.266   3.871   4.181
 3366SOL     OW10113   4.021   3.759   3.895
 3366SOL    HW110114   4.070   3.843   3.874
 3366SOL    HW210115   4.083   3.694   3.940
 3367SOL     OW10116   4.251   3.980   4.052
 3367SOL    HW110117   4.278   3.921   3.977
 3367SOL    HW210118   4.251   4.075   4.021
 3368SOL     OW10119   4.290   4.261   4.589
 3368SOL    HW110120   4.302   4.327   4.515
 3368SOL    HW210121   4.336   4.295   4.672
 3369SOL     OW10122   4.933   4.249   3.999
 3369SOL    HW110123   4.946   4.165   4.053
 3369SOL    HW210124   4.904   4.323   4.059
 3370SOL     OW10125   4.456   4.358   4.788
 3370SOL    HW110126   4.515   4.332   4.712
 3370SOL    HW210127   4.428   4.454   4.777
 3371SOL     OW10128   4.031   3.787   4.342
 3371SOL    HW110129   4.020   3.881   4.375
 3371SOL    HW210130   4.026   3.724   4.419
 3372SOL     OW10131   4.747   4.490   4.690
 3372SOL    HW110132   4.762   4.511   4.786
 3372SOL    HW210133   4.717   4.395   4.681
 3373SOL     OW10134   4.043   4.534   4.673
 3373SOL    HW110135   4.136   4.570   4.678
 3373SOL    HW210136   4.037   4.449   4.725
 3374SOL     OW10137   4.726   4.520   4.962
 3374SOL    HW110138   4.767   4.488   5.048
 3374SOL    HW210139   4.630   4.493   4.959
 3375SOL     OW10140   4.539   4.296   4.049
 3375SOL    HW110141   4.546   4.207   4.003
 3375SOL    HW210142   4.445   4.330   4.041
 3376SOL     OW10143   4.197   4.224   3.915
 3376SOL    HW110144   4.258   4.304   3.919
 3376SOL    HW210145   4.102   4.255   3.922
 3377SOL     OW10146   4.627   3.810   3.857
 3377SOL    HW110147   4.678   3.811   3.771
 3377SOL    HW210148   4.683   3.768   3.928
 3378SOL     OW10149   3.987   4.050   4.444
 3378SOL    HW110150   3.908   4.101   4.410
 3378SOL    HW210151   3.978   4.035   4.542
 3379SOL     OW10152   4.763   4.822   4.420
 3379SOL    HW110153   4.693   4.775   4.474
 3379SOL    HW210154   4.822   4.754   4.377
 3380SOL     OW10155   3.799   4.069   3.757
 3380SOL    HW110156   3.707   4.041   3.728
 3380SOL    HW210157   3.830   4.146   3.701
 3381SOL     OW10158   3.796   3.890   4.042
 3381SOL    HW110159   3.779   3.973   3.988
 3381SOL    HW210160   3.886   3.853   4.020
 3382SOL     OW10161   4.949   4.049   4.173
 3382SOL    HW110162   5.014   3.975   4.162
 3382SOL    HW210163   4.969   4.099   4.257
 3383SOL     OW10164   4.318   4.469   4.376
 3383SOL    HW110165   4.368   4.554   4.357
 3383SOL    HW210166   4.230   4.471   4.328
 3384SOL     OW10167   4.583   4.680   4.585
 3384SOL    HW110168   4.637   4.611   4.633
 3384SOL    HW210169   4.551   4.749   4.651
 3385SOL     OW10170   4.152   4.148   4.244
 3385SOL    HW110171   4.182   4.076   4.182
 3385SOL    HW210172   4.113   4.108   4.327
   4.70555   4.70555   4.70555
