mobley_337666_GMX.gro created by acpype (v: 2023.10.27) on Wed May 20 23:59:20 2026
 9213
    1MOL     C1    1   2.318   2.398   2.284
    1MOL     C2    2   2.232   2.351   2.374
    1MOL     C3    3   2.177   2.214   2.364
    1MOL     C4    4   2.315   2.191   2.157
    1MOL     N1    5   2.359   2.321   2.179
    1MOL     N2    6   2.225   2.144   2.253
    1MOL     O1    7   2.098   2.170   2.446
    1MOL     O2    8   2.353   2.122   2.062
    1MOL     F1    9   2.190   2.424   2.479
    1MOL     H1   10   2.360   2.497   2.289
    1MOL     H2   11   2.425   2.361   2.112
    1MOL     H3   12   2.190   2.049   2.241
    2SOL     OW   13   0.230   0.628   0.113
    2SOL    HW1   14   0.137   0.626   0.150
    2SOL    HW2   15   0.231   0.589   0.021
    3SOL     OW   16   0.225   0.275   0.996
    3SOL    HW1   17   0.260   0.258   1.088
    3SOL    HW2   18   0.137   0.230   0.984
    4SOL     OW   19   0.019   0.368   0.647
    4SOL    HW1   20  -0.063   0.411   0.686
    4SOL    HW2   21  -0.009   0.295   0.584
    5SOL     OW   22   0.569   1.275   1.165
    5SOL    HW1   23   0.476   1.268   1.128
    5SOL    HW2   24   0.580   1.364   1.209
    6SOL     OW   25   1.555   1.511   0.703
    6SOL    HW1   26   1.498   1.495   0.784
    6SOL    HW2   27   1.496   1.521   0.623
    7SOL     OW   28   1.135   0.703   0.717
    7SOL    HW1   29   1.192   0.781   0.692
    7SOL    HW2   30   1.075   0.729   0.793
    8SOL     OW   31   1.755   0.607   0.231
    8SOL    HW1   32   1.743   0.594   0.132
    8SOL    HW2   33   1.725   0.526   0.280
    9SOL     OW   34   0.768   1.144   1.023
    9SOL    HW1   35   0.690   1.161   1.083
    9SOL    HW2   36   0.802   1.231   0.987
   10SOL     OW   37   0.850   0.798   1.823
   10SOL    HW1   38   0.846   0.874   1.888
   10SOL    HW2   39   0.872   0.834   1.732
   11SOL     OW   40   0.685   1.012   0.665
   11SOL    HW1   41   0.754   0.996   0.735
   11SOL    HW2   42   0.612   1.069   0.703
   12SOL     OW   43   0.686   1.161   1.803
   12SOL    HW1   44   0.746   1.240   1.817
   12SOL    HW2   45   0.600   1.192   1.762
   13SOL     OW   46   0.335   1.435   1.061
   13SOL    HW1   47   0.257   1.404   1.008
   13SOL    HW2   48   0.393   1.493   1.004
   14SOL     OW   49   1.460   1.505   1.339
   14SOL    HW1   50   1.484   1.599   1.365
   14SOL    HW2   51   1.444   1.451   1.421
   15SOL     OW   52   0.438   0.392   1.499
   15SOL    HW1   53   0.520   0.336   1.508
   15SOL    HW2   54   0.357   0.334   1.503
   16SOL     OW   55   1.603   0.447   0.737
   16SOL    HW1   56   1.529   0.493   0.687
   16SOL    HW2   57   1.654   0.515   0.790
   17SOL     OW   58   0.231   1.713   0.483
   17SOL    HW1   59   0.265   1.790   0.537
   17SOL    HW2   60   0.275   1.713   0.393
   18SOL     OW   61   1.127   1.341   1.690
   18SOL    HW1   62   1.174   1.341   1.778
   18SOL    HW2   63   1.079   1.254   1.679
   19SOL     OW   64   0.230   1.434   0.538
   19SOL    HW1   65   0.204   1.530   0.538
   19SOL    HW2   66   0.159   1.380   0.583
   20SOL     OW   67   0.240   1.091   0.886
   20SOL    HW1   68   0.254   1.007   0.938
   20SOL    HW2   69   0.185   1.155   0.941
   21SOL     OW   70   0.620   1.786   1.439
   21SOL    HW1   71   0.528   1.769   1.474
   21SOL    HW2   72   0.648   1.878   1.465
   22SOL     OW   73   0.606   0.964   0.123
   22SOL    HW1   74   0.613   1.048   0.069
   22SOL    HW2   75   0.652   0.977   0.211
   23SOL     OW   76   1.594   0.114   1.480
   23SOL    HW1   77   1.576   0.181   1.408
   23SOL    HW2   78   1.591   0.160   1.569
   24SOL     OW   79   0.122   0.643   0.563
   24SOL    HW1   80   0.077   0.555   0.580
   24SOL    HW2   81   0.121   0.697   0.647
   25SOL     OW   82   1.842   1.767   0.359
   25SOL    HW1   83   1.896   1.738   0.439
   25SOL    HW2   84   1.872   1.857   0.330
   26SOL     OW   85   0.027   1.596   0.117
   26SOL    HW1   86   0.008   1.500   0.138
   26SOL    HW2   87  -0.006   1.654   0.192
   27SOL     OW   88   1.689   0.922   0.612
   27SOL    HW1   89   1.784   0.893   0.620
   27SOL    HW2   90   1.681   0.987   0.537
   28SOL     OW   91   1.641   1.108   0.432
   28SOL    HW1   92   1.727   1.110   0.380
   28SOL    HW2   93   1.655   1.155   0.520
   29SOL     OW   94   0.113   0.737   1.597
   29SOL    HW1   95   0.201   0.724   1.642
   29SOL    HW2   96   0.100   0.834   1.575
   30SOL     OW   97   0.613   1.365   0.726
   30SOL    HW1   98   0.564   1.278   0.735
   30SOL    HW2   99   0.590   1.408   0.639
   31SOL     OW  100   1.293   1.228   1.423
   31SOL    HW1  101   1.330   1.155   1.365
   31SOL    HW2  102   1.345   1.233   1.508
   32SOL     OW  103   0.809   0.004   0.502
   32SOL    HW1  104   0.849   0.095   0.493
   32SOL    HW2  105   0.709   0.012   0.508
   33SOL     OW  106   0.197   0.976   1.264
   33SOL    HW1  107   0.286   0.931   1.250
   33SOL    HW2  108   0.124   0.911   1.245
   34SOL     OW  109   1.525   0.999   0.190
   34SOL    HW1  110   1.462   0.923   0.203
   34SOL    HW2  111   1.573   1.017   0.276
   35SOL     OW  112   1.187   1.792   1.616
   35SOL    HW1  113   1.211   1.852   1.540
   35SOL    HW2  114   1.194   1.697   1.586
   36SOL     OW  115   0.317   0.251   1.801
   36SOL    HW1  116   0.388   0.322   1.807
   36SOL    HW2  117   0.229   0.290   1.829
   37SOL     OW  118   1.466   1.417   0.953
   37SOL    HW1  119   1.407   1.423   1.033
   37SOL    HW2  120   1.451   1.329   0.907
   38SOL     OW  121   1.667   1.714   0.572
   38SOL    HW1  122   1.626   1.691   0.484
   38SOL    HW2  123   1.649   1.640   0.637
   39SOL     OW  124   0.598   0.729   0.270
   39SOL    HW1  125   0.622   0.798   0.202
   39SOL    HW2  126   0.520   0.762   0.324
   40SOL     OW  127   1.281   0.345   0.944
   40SOL    HW1  128   1.195   0.295   0.931
   40SOL    HW2  129   1.343   0.291   1.000
   41SOL     OW  130   1.576   1.662   0.307
   41SOL    HW1  131   1.665   1.708   0.310
   41SOL    HW2  132   1.555   1.638   0.212
   42SOL     OW  133   0.807   0.605   1.465
   42SOL    HW1  134   0.760   0.602   1.554
   42SOL    HW2  135   0.756   0.550   1.399
   43SOL     OW  136   1.394   0.469   1.674
   43SOL    HW1  137   1.374   0.512   1.762
   43SOL    HW2  138   1.472   0.407   1.683
   44SOL     OW  139   0.973   0.890   1.572
   44SOL    HW1  140   1.019   0.806   1.543
   44SOL    HW2  141   0.917   0.924   1.497
   45SOL     OW  142   0.991   0.410   1.242
   45SOL    HW1  143   0.914   0.444   1.296
   45SOL    HW2  144   0.957   0.359   1.163
   46SOL     OW  145   1.041   0.701   0.429
   46SOL    HW1  146   1.067   0.697   0.525
   46SOL    HW2  147   0.956   0.650   0.415
   47SOL     OW  148   0.076   0.811   0.789
   47SOL    HW1  149   0.175   0.799   0.798
   47SOL    HW2  150   0.052   0.906   0.810
   48SOL     OW  151   0.130   1.821   1.571
   48SOL    HW1  152   0.120   1.806   1.670
   48SOL    HW2  153   0.044   1.857   1.535
   49SOL     OW  154   0.865   0.348   0.195
   49SOL    HW1  155   0.924   0.411   0.146
   49SOL    HW2  156   0.884   0.254   0.166
   50SOL     OW  157   1.719   0.585   1.831
   50SOL    HW1  158   1.693   0.674   1.795
   50SOL    HW2  159   1.717   0.517   1.758
   51SOL     OW  160   1.362   1.144   0.545
   51SOL    HW1  161   1.445   1.115   0.497
   51SOL    HW2  162   1.313   1.211   0.489
   52SOL     OW  163   0.550   0.196   0.885
   52SOL    HW1  164   0.545   0.191   0.985
   52SOL    HW2  165   0.552   0.292   0.856
   53SOL     OW  166   1.008   1.456   0.477
   53SOL    HW1  167   0.962   1.528   0.425
   53SOL    HW2  168   1.004   1.476   0.575
   54SOL     OW  169   0.351   1.801   0.853
   54SOL    HW1  170   0.401   1.715   0.859
   54SOL    HW2  171   0.416   1.878   0.850
   55SOL     OW  172   1.795   1.066   0.873
   55SOL    HW1  173   1.733   1.051   0.797
   55SOL    HW2  174   1.743   1.077   0.958
   56SOL     OW  175   1.227   1.550   1.506
   56SOL    HW1  176   1.233   1.473   1.570
   56SOL    HW2  177   1.175   1.524   1.426
   57SOL     OW  178   0.321   0.943   0.242
   57SOL    HW1  179   0.403   0.982   0.200
   57SOL    HW2  180   0.294   0.861   0.193
   58SOL     OW  181   1.458   0.735   0.728
   58SOL    HW1  182   1.453   0.670   0.803
   58SOL    HW2  183   1.538   0.794   0.741
   59SOL     OW  184   0.461   1.266   1.727
   59SOL    HW1  185   0.411   1.267   1.641
   59SOL    HW2  186   0.398   1.248   1.803
   60SOL     OW  187   1.111   1.776   0.237
   60SOL    HW1  188   1.051   1.714   0.287
   60SOL    HW2  189   1.142   1.732   0.152
   61SOL     OW  190   0.202   0.285   1.498
   61SOL    HW1  191   0.122   0.345   1.485
   61SOL    HW2  192   0.192   0.236   1.584
   62SOL     OW  193   1.632   1.377   0.081
   62SOL    HW1  194   1.600   1.471   0.071
   62SOL    HW2  195   1.556   1.314   0.069
   63SOL     OW  196   0.464   1.743   0.323
   63SOL    HW1  197   0.497   1.782   0.409
   63SOL    HW2  198   0.540   1.736   0.258
   64SOL     OW  199   1.400   0.107   0.426
   64SOL    HW1  200   1.376   0.070   0.336
   64SOL    HW2  201   1.499   0.123   0.430
   65SOL     OW  202   0.249   1.785   1.241
   65SOL    HW1  203   0.306   1.720   1.291
   65SOL    HW2  204   0.233   1.752   1.148
   66SOL     OW  205   0.940   1.698   0.904
   66SOL    HW1  206   1.020   1.641   0.925
   66SOL    HW2  207   0.891   1.658   0.827
   67SOL     OW  208   0.382   0.700   0.480
   67SOL    HW1  209   0.427   0.610   0.477
   67SOL    HW2  210   0.288   0.689   0.513
   68SOL     OW  211   1.547   0.222   1.729
   68SOL    HW1  212   1.542   0.259   1.821
   68SOL    HW2  213   1.475   0.153   1.717
   69SOL     OW  214   0.614   0.122   0.117
   69SOL    HW1  215   0.712   0.100   0.124
   69SOL    HW2  216   0.583   0.105   0.024
   70SOL     OW  217   0.781   0.264   1.749
   70SOL    HW1  218   0.848   0.203   1.792
   70SOL    HW2  219   0.708   0.283   1.814
   71SOL     OW  220   0.888   1.514   1.195
   71SOL    HW1  221   0.865   1.489   1.101
   71SOL    HW2  222   0.949   1.445   1.234
   72SOL     OW  223   1.351   0.590   1.433
   72SOL    HW1  224   1.379   0.547   1.518
   72SOL    HW2  225   1.376   0.686   1.434
   73SOL     OW  226   0.803   1.402   0.924
   73SOL    HW1  227   0.893   1.416   0.882
   73SOL    HW2  228   0.732   1.404   0.853
   74SOL     OW  229   0.922   0.503   0.899
   74SOL    HW1  230   0.897   0.494   0.803
   74SOL    HW2  231   0.970   0.421   0.930
   75SOL     OW  232   0.539   0.064   0.512
   75SOL    HW1  233   0.458   0.065   0.570
   75SOL    HW2  234   0.542   0.147   0.457
   76SOL     OW  235   1.434   1.188   0.041
   76SOL    HW1  236   1.466   1.112   0.098
   76SOL    HW2  237   1.342   1.215   0.071
   77SOL     OW  238   0.297   0.035   0.171
   77SOL    HW1  239   0.346   0.119   0.150
   77SOL    HW2  240   0.359  -0.030   0.216
   78SOL     OW  241   0.935   0.236   0.480
   78SOL    HW1  242   0.887   0.277   0.402
   78SOL    HW2  243   1.034   0.234   0.461
   79SOL     OW  244   1.076   0.683   1.464
   79SOL    HW1  245   0.996   0.622   1.467
   79SOL    HW2  246   1.157   0.630   1.440
   80SOL     OW  247   1.227   1.570   0.793
   80SOL    HW1  248   1.248   1.644   0.728
   80SOL    HW2  249   1.295   1.570   0.866
   81SOL     OW  250   0.459   1.152   0.741
   81SOL    HW1  251   0.388   1.125   0.806
   81SOL    HW2  252   0.433   1.124   0.648
   82SOL     OW  253   1.271   1.797   0.591
   82SOL    HW1  254   1.315   1.861   0.527
   82SOL    HW2  255   1.221   1.849   0.661
   83SOL     OW  256   1.032   0.549   0.016
   83SOL    HW1  257   0.991   0.631  -0.023
   83SOL    HW2  258   1.096   0.575   0.089
   84SOL     OW  259   0.078   0.556   1.386
   84SOL    HW1  260   0.170   0.555   1.345
   84SOL    HW2  261   0.072   0.630   1.453
   85SOL     OW  262   0.561   0.222   1.147
   85SOL    HW1  263   0.599   0.138   1.184
   85SOL    HW2  264   0.473   0.241   1.191
   86SOL     OW  265   0.866   0.454   0.642
   86SOL    HW1  266   0.834   0.526   0.580
   86SOL    HW2  267   0.890   0.373   0.589
   87SOL     OW  268   1.017   0.039   0.753
   87SOL    HW1  269   0.945   0.044   0.684
   87SOL    HW2  270   0.993  -0.030   0.822
   88SOL     OW  271   1.429   1.173   0.867
   88SOL    HW1  272   1.374   1.089   0.860
   88SOL    HW2  273   1.455   1.202   0.775
   89SOL     OW  274   1.466   0.590   0.992
   89SOL    HW1  275   1.436   0.495   0.999
   89SOL    HW2  276   1.539   0.606   1.058
   90SOL     OW  277   1.857   0.833   0.377
   90SOL    HW1  278   1.899   0.769   0.441
   90SOL    HW2  279   1.819   0.782   0.299
   91SOL     OW  280   0.488   1.385   0.174
   91SOL    HW1  281   0.401   1.370   0.221
   91SOL    HW2  282   0.471   1.411   0.079
   92SOL     OW  283   1.664   1.280   0.657
   92SOL    HW1  284   1.763   1.288   0.671
   92SOL    HW2  285   1.619   1.364   0.688
   93SOL     OW  286   1.390   0.575   0.078
   93SOL    HW1  287   1.336   0.554   0.159
   93SOL    HW2  288   1.481   0.534   0.087
   94SOL     OW  289   0.527   0.256   0.328
   94SOL    HW1  290   0.554   0.197   0.253
   94SOL    HW2  291   0.527   0.351   0.297
   95SOL     OW  292   1.754   1.223   1.588
   95SOL    HW1  293   1.845   1.184   1.575
   95SOL    HW2  294   1.762   1.319   1.612
   96SOL     OW  295   1.064   1.347   1.340
   96SOL    HW1  296   0.984   1.324   1.395
   96SOL    HW2  297   1.147   1.321   1.389
   97SOL     OW  298   1.592   1.629   1.625
   97SOL    HW1  299   1.619   1.663   1.535
   97SOL    HW2  300   1.671   1.591   1.671
   98SOL     OW  301   1.111   1.195   1.100
   98SOL    HW1  302   1.071   1.239   1.181
   98SOL    HW2  303   1.070   1.232   1.017
   99SOL     OW  304   1.638   1.099   1.079
   99SOL    HW1  305   1.643   1.180   1.138
   99SOL    HW2  306   1.552   1.101   1.028
  100SOL     OW  307   0.915   0.089   1.402
  100SOL    HW1  308   0.940   0.069   1.307
  100SOL    HW2  309   0.987   0.145   1.444
  101SOL     OW  310   0.980   1.116   1.719
  101SOL    HW1  311   0.881   1.122   1.729
  101SOL    HW2  312   1.003   1.036   1.663
  102SOL     OW  313   0.705   1.050   0.368
  102SOL    HW1  314   0.691   1.057   0.467
  102SOL    HW2  315   0.789   0.999   0.350
  103SOL     OW  316   0.410   0.813   1.251
  103SOL    HW1  317   0.496   0.825   1.301
  103SOL    HW2  318   0.368   0.726   1.278
  104SOL     OW  319   1.274   0.386   1.262
  104SOL    HW1  320   1.295   0.460   1.326
  104SOL    HW2  321   1.185   0.403   1.219
  105SOL     OW  322   0.064   1.564   1.331
  105SOL    HW1  323   0.018   1.646   1.297
  105SOL    HW2  324   0.162   1.583   1.340
  106SOL     OW  325   0.367   1.100   0.501
  106SOL    HW1  326   0.360   1.183   0.445
  106SOL    HW2  327   0.371   1.020   0.441
  107SOL     OW  328   0.566   0.537   0.865
  107SOL    HW1  329   0.578   0.603   0.791
  107SOL    HW2  330   0.612   0.571   0.948
  108SOL     OW  331   1.252   1.348   0.388
  108SOL    HW1  332   1.302   1.425   0.428
  108SOL    HW2  333   1.157   1.350   0.420
  109SOL     OW  334   1.272   1.445   1.142
  109SOL    HW1  335   1.319   1.458   1.229
  109SOL    HW2  336   1.206   1.371   1.151
  110SOL     OW  337   1.582   0.639   0.472
  110SOL    HW1  338   1.551   0.700   0.545
  110SOL    HW2  339   1.632   0.691   0.403
  111SOL     OW  340   0.354   1.510   1.329
  111SOL    HW1  341   0.333   1.466   1.242
  111SOL    HW2  342   0.451   1.536   1.332
  112SOL     OW  343   0.402   0.751   1.598
  112SOL    HW1  344   0.470   0.806   1.551
  112SOL    HW2  345   0.442   0.663   1.625
  113SOL     OW  346   1.587   0.779   1.670
  113SOL    HW1  347   1.495   0.817   1.665
  113SOL    HW2  348   1.647   0.826   1.605
  114SOL     OW  349   1.013   0.105   1.770
  114SOL    HW1  350   1.019   0.190   1.718
  114SOL    HW2  351   1.045   0.029   1.713
  115SOL     OW  352   0.504   0.050   1.740
  115SOL    HW1  353   0.462  -0.007   1.670
  115SOL    HW2  354   0.438   0.119   1.772
  116SOL     OW  355   0.573   0.870   1.029
  116SOL    HW1  356   0.617   0.959   1.020
  116SOL    HW2  357   0.510   0.870   1.106
  117SOL     OW  358   1.360   0.862   1.045
  117SOL    HW1  359   1.285   0.862   0.979
  117SOL    HW2  360   1.397   0.770   1.054
  118SOL     OW  361   1.209   0.525   0.275
  118SOL    HW1  362   1.222   0.441   0.329
  118SOL    HW2  363   1.180   0.599   0.335
  119SOL     OW  364   0.307   0.213   1.231
  119SOL    HW1  365   0.284   0.250   1.321
  119SOL    HW2  366   0.277   0.118   1.225
  120SOL     OW  367   0.037   1.310   1.282
  120SOL    HW1  368   0.090   1.261   1.350
  120SOL    HW2  369   0.059   1.408   1.287
  121SOL     OW  370   0.732   0.634   1.064
  121SOL    HW1  371   0.791   0.608   0.988
  121SOL    HW2  372   0.704   0.730   1.053
  122SOL     OW  373   1.728   0.935   1.854
  122SOL    HW1  374   1.682   0.928   1.765
  122SOL    HW2  375   1.666   0.979   1.920
  123SOL     OW  376   0.307   0.063   0.618
  123SOL    HW1  377   0.296   0.157   0.651
  123SOL    HW2  378   0.302   0.000   0.695
  124SOL     OW  379   1.622   0.367   0.374
  124SOL    HW1  380   1.624   0.291   0.438
  124SOL    HW2  381   1.574   0.444   0.414
  125SOL     OW  382   1.023   0.766   0.966
  125SOL    HW1  383   1.038   0.787   1.062
  125SOL    HW2  384   0.993   0.671   0.957
  126SOL     OW  385   0.980   1.573   1.700
  126SOL    HW1  386   0.960   1.617   1.612
  126SOL    HW2  387   1.019   1.482   1.684
  127SOL     OW  388   1.859   1.518   1.605
  127SOL    HW1  389   1.873   1.545   1.510
  127SOL    HW2  390   1.942   1.540   1.658
  128SOL     OW  391   0.350   0.898   1.804
  128SOL    HW1  392   0.426   0.942   1.852
  128SOL    HW2  393   0.385   0.851   1.722
  129SOL     OW  394   1.540   0.274   0.125
  129SOL    HW1  395   1.479   0.199   0.148
  129SOL    HW2  396   1.562   0.326   0.208
  130SOL     OW  397   1.303   0.838   0.042
  130SOL    HW1  398   1.337   0.745   0.057
  130SOL    HW2  399   1.321   0.865  -0.053
  131SOL     OW  400   1.068   1.333   0.849
  131SOL    HW1  401   1.075   1.249   0.794
  131SOL    HW2  402   1.130   1.402   0.813
  132SOL     OW  403   0.319   0.810   0.949
  132SOL    HW1  404   0.412   0.846   0.954
  132SOL    HW2  405   0.313   0.725   1.001
  133SOL     OW  406   0.339   0.509   1.006
  133SOL    HW1  407   0.287   0.426   0.989
  133SOL    HW2  408   0.416   0.514   0.942
  134SOL     OW  409   1.138   0.380   1.678
  134SOL    HW1  410   1.093   0.443   1.742
  134SOL    HW2  411   1.231   0.411   1.661
  135SOL     OW  412   1.160   0.207   1.477
  135SOL    HW1  413   1.160   0.271   1.554
  135SOL    HW2  414   1.188   0.255   1.394
  136SOL     OW  415   0.008   1.326   0.200
  136SOL    HW1  416  -0.085   1.347   0.169
  136SOL    HW2  417   0.018   1.227   0.213
  137SOL     OW  418   0.088   1.801   0.927
  137SOL    HW1  419   0.046   1.715   0.900
  137SOL    HW2  420   0.182   1.804   0.893
  138SOL     OW  421   0.504   1.568   0.910
  138SOL    HW1  422   0.570   1.642   0.919
  138SOL    HW2  423   0.548   1.489   0.868
  139SOL     OW  424   1.002   0.796   1.238
  139SOL    HW1  425   1.043   0.764   1.324
  139SOL    HW2  426   0.906   0.769   1.235
  140SOL     OW  427   0.040   0.544   1.114
  140SOL    HW1  428   0.125   0.511   1.073
  140SOL    HW2  429   0.053   0.559   1.212
  141SOL     OW  430   0.189   0.520   1.722
  141SOL    HW1  431   0.248   0.480   1.652
  141SOL    HW2  432   0.131   0.591   1.681
  142SOL     OW  433   1.369   0.950   1.660
  142SOL    HW1  434   1.408   1.039   1.680
  142SOL    HW2  435   1.379   0.930   1.563
  143SOL     OW  436   0.815   0.572   0.325
  143SOL    HW1  437   0.822   0.483   0.279
  143SOL    HW2  438   0.721   0.606   0.317
  144SOL     OW  439   1.657   0.604   1.206
  144SOL    HW1  440   1.619   0.535   1.268
  144SOL    HW2  441   1.739   0.568   1.162
  145SOL     OW  442   0.252   1.564   1.744
  145SOL    HW1  443   0.222   1.621   1.820
  145SOL    HW2  444   0.245   1.467   1.770
  146SOL     OW  445   0.671   0.464   1.269
  146SOL    HW1  446   0.637   0.375   1.239
  146SOL    HW2  447   0.697   0.518   1.189
  147SOL     OW  448   0.930   1.678   1.465
  147SOL    HW1  449   0.906   1.660   1.370
  147SOL    HW2  450   0.960   1.772   1.475
  148SOL     OW  451   0.473   0.500   0.191
  148SOL    HW1  452   0.534   0.580   0.195
  148SOL    HW2  453   0.378   0.531   0.198
  149SOL     OW  454   0.159   1.137   1.466
  149SOL    HW1  455   0.181   1.076   1.542
  149SOL    HW2  456   0.169   1.088   1.380
  150SOL     OW  457   1.347   1.059   1.234
  150SOL    HW1  458   1.371   0.996   1.160
  150SOL    HW2  459   1.257   1.099   1.216
  151SOL     OW  460   1.302   0.855   0.309
  151SOL    HW1  461   1.216   0.824   0.351
  151SOL    HW2  462   1.298   0.841   0.210
  152SOL     OW  463   1.759   1.747   1.154
  152SOL    HW1  464   1.820   1.777   1.081
  152SOL    HW2  465   1.721   1.658   1.132
  153SOL     OW  466   1.252   1.731   1.128
  153SOL    HW1  467   1.336   1.736   1.074
  153SOL    HW2  468   1.229   1.635   1.146
  154SOL     OW  469   0.083   1.258   1.022
  154SOL    HW1  470   0.078   1.257   1.122
  154SOL    HW2  471   0.000   1.217   0.984
  155SOL     OW  472   0.688   1.662   1.716
  155SOL    HW1  473   0.632   1.743   1.725
  155SOL    HW2  474   0.740   1.666   1.630
  156SOL     OW  475   0.903   0.086   0.133
  156SOL    HW1  476   0.954   0.087   0.047
  156SOL    HW2  477   0.959   0.044   0.204
  157SOL     OW  478   1.726   0.135   0.523
  157SOL    HW1  479   1.799   0.118   0.456
  157SOL    HW2  480   1.695   0.048   0.561
  158SOL     OW  481   1.388   1.573   0.477
  158SOL    HW1  482   1.455   1.585   0.403
  158SOL    HW2  483   1.348   1.662   0.500
  159SOL     OW  484   0.130   1.794   1.851
  159SOL    HW1  485   0.089   1.720   1.904
  159SOL    HW2  486   0.194   1.845   1.909
  160SOL     OW  487   1.280   0.927   0.672
  160SOL    HW1  488   1.340   0.846   0.674
  160SOL    HW2  489   1.320   0.996   0.612
  161SOL     OW  490   0.830   1.273   1.422
  161SOL    HW1  491   0.825   1.306   1.517
  161SOL    HW2  492   0.744   1.292   1.376
  162SOL     OW  493   0.672   1.616   0.154
  162SOL    HW1  494   0.681   1.626   0.055
  162SOL    HW2  495   0.632   1.527   0.175
  163SOL     OW  496   1.650   1.720   1.394
  163SOL    HW1  497   1.703   1.730   1.310
  163SOL    HW2  498   1.623   1.810   1.428
  164SOL     OW  499   1.841   0.175   0.963
  164SOL    HW1  500   1.880   0.090   0.927
  164SOL    HW2  501   1.743   0.177   0.944
  165SOL     OW  502   0.263   0.326   0.720
  165SOL    HW1  503   0.184   0.377   0.686
  165SOL    HW2  504   0.254   0.311   0.818
  166SOL     OW  505   1.194   1.612   0.031
  166SOL    HW1  506   1.200   1.519   0.068
  166SOL    HW2  507   1.135   1.612  -0.049
  167SOL     OW  508   0.822   1.002   1.372
  167SOL    HW1  509   0.862   1.001   1.280
  167SOL    HW2  510   0.832   1.094   1.412
  168SOL     OW  511   0.916   0.910   0.291
  168SOL    HW1  512   0.979   0.948   0.223
  168SOL    HW2  513   0.956   0.827   0.330
  169SOL     OW  514   1.504   1.607   0.044
  169SOL    HW1  515   1.412   1.644   0.051
  169SOL    HW2  516   1.542   1.627  -0.046
  170SOL     OW  517   0.372   1.288   1.490
  170SOL    HW1  518   0.359   1.381   1.456
  170SOL    HW2  519   0.288   1.236   1.477
  171SOL     OW  520   1.614   1.292   1.289
  171SOL    HW1  521   1.674   1.295   1.369
  171SOL    HW2  522   1.539   1.356   1.302
  172SOL     OW  523   1.039   1.098   0.696
  172SOL    HW1  524   0.969   1.051   0.750
  172SOL    HW2  525   1.098   1.030   0.653
  173SOL     OW  526   1.014   0.236   0.971
  173SOL    HW1  527   1.006   0.200   0.878
  173SOL    HW2  528   1.012   0.160   1.036
  174SOL     OW  529   0.590   1.487   0.491
  174SOL    HW1  530   0.632   1.429   0.421
  174SOL    HW2  531   0.546   1.566   0.447
  175SOL     OW  532   1.709   0.385   1.381
  175SOL    HW1  533   1.782   0.454   1.385
  175SOL    HW2  534   1.737   0.310   1.322
  176SOL     OW  535   0.255   1.348   0.290
  176SOL    HW1  536   0.159   1.349   0.263
  176SOL    HW2  537   0.267   1.401   0.374
  177SOL     OW  538   0.105   1.013   1.726
  177SOL    HW1  539   0.028   0.980   1.780
  177SOL    HW2  540   0.190   0.983   1.768
  178SOL     OW  541   0.672   0.203   1.489
  178SOL    HW1  542   0.762   0.187   1.449
  178SOL    HW2  543   0.680   0.208   1.588
  179SOL     OW  544   0.075   0.345   0.033
  179SOL    HW1  545  -0.017   0.317   0.004
  179SOL    HW2  546   0.106   0.422  -0.023
  180SOL     OW  547   1.440   0.856   1.398
  180SOL    HW1  548   1.383   0.908   1.335
  180SOL    HW2  549   1.536   0.868   1.374
  181SOL     OW  550   0.072   0.166   0.318
  181SOL    HW1  551   0.055   0.249   0.264
  181SOL    HW2  552   0.162   0.129   0.296
  182SOL     OW  553   1.183   1.335   0.119
  182SOL    HW1  554   1.084   1.324   0.121
  182SOL    HW2  555   1.217   1.350   0.212
  183SOL     OW  556   0.613   0.842   1.431
  183SOL    HW1  557   0.669   0.923   1.414
  183SOL    HW2  558   0.672   0.762   1.434
  184SOL     OW  559   1.493   1.767   0.959
  184SOL    HW1  560   1.526   1.831   0.890
  184SOL    HW2  561   1.559   1.761   1.034
  185SOL     OW  562   0.716   0.565   1.708
  185SOL    HW1  563   0.735   0.630   1.782
  185SOL    HW2  564   0.776   0.485   1.717
  186SOL     OW  565   1.450   1.220   1.633
  186SOL    HW1  566   1.441   1.210   1.732
  186SOL    HW2  567   1.546   1.213   1.607
  187SOL     OW  568   0.390   1.741   1.560
  187SOL    HW1  569   0.299   1.782   1.558
  187SOL    HW2  570   0.383   1.647   1.592
  188SOL     OW  571   1.674   0.883   1.254
  188SOL    HW1  572   1.647   0.794   1.217
  188SOL    HW2  573   1.675   0.951   1.181
  189SOL     OW  574   1.225   0.325   0.449
  189SOL    HW1  575   1.290   0.251   0.438
  189SOL    HW2  576   1.245   0.375   0.533
  190SOL     OW  577   0.594   0.745   0.652
  190SOL    HW1  578   0.644   0.830   0.633
  190SOL    HW2  579   0.506   0.747   0.604
  191SOL     OW  580   1.777   0.342   1.642
  191SOL    HW1  581   1.760   0.373   1.548
  191SOL    HW2  582   1.693   0.305   1.680
  192SOL     OW  583   1.730   0.934   1.517
  192SOL    HW1  584   1.768   1.025   1.532
  192SOL    HW2  585   1.722   0.917   1.418
  193SOL     OW  586   0.859   1.374   0.016
  193SOL    HW1  587   0.813   1.389   0.104
  193SOL    HW2  588   0.903   1.459  -0.014
  194SOL     OW  589   0.661   1.790   0.953
  194SOL    HW1  590   0.615   1.878   0.940
  194SOL    HW2  591   0.760   1.802   0.946
  195SOL     OW  592   0.859   0.956   0.861
  195SOL    HW1  593   0.913   0.887   0.909
  195SOL    HW2  594   0.827   1.025   0.927
  196SOL     OW  595   1.083   0.984   0.087
  196SOL    HW1  596   1.060   1.037   0.005
  196SOL    HW2  597   1.164   0.928   0.068
  197SOL     OW  598   1.861   1.569   0.851
  197SOL    HW1  599   1.790   1.557   0.781
  197SOL    HW2  600   1.862   1.490   0.911
  198SOL     OW  601   0.221   1.314   1.844
  198SOL    HW1  602   0.156   1.241   1.823
  198SOL    HW2  603   0.225   1.328   1.942
  199SOL     OW  604   0.079   1.240   0.653
  199SOL    HW1  605   0.078   1.193   0.741
  199SOL    HW2  606   0.161   1.212   0.602
  200SOL     OW  607   0.672   1.391   1.624
  200SOL    HW1  608   0.594   1.341   1.662
  200SOL    HW2  609   0.669   1.486   1.655
  201SOL     OW  610   1.824   0.192   1.227
  201SOL    HW1  611   1.820   0.102   1.271
  201SOL    HW2  612   1.827   0.181   1.128
  202SOL     OW  613   0.428   0.424   0.520
  202SOL    HW1  614   0.458   0.352   0.458
  202SOL    HW2  615   0.389   0.384   0.603
  203SOL     OW  616   1.705   1.487   1.104
  203SOL    HW1  617   1.612   1.462   1.077
  203SOL    HW2  618   1.731   1.437   1.186
  204SOL     OW  619   0.317   0.547   1.280
  204SOL    HW1  620   0.355   0.488   1.352
  204SOL    HW2  621   0.357   0.521   1.192
  205SOL     OW  622   0.812   1.586   0.687
  205SOL    HW1  623   0.844   1.596   0.593
  205SOL    HW2  624   0.733   1.524   0.689
  206SOL     OW  625   1.424   0.214   1.112
  206SOL    HW1  626   1.476   0.149   1.167
  206SOL    HW2  627   1.375   0.277   1.173
  207SOL     OW  628   1.001   0.034   1.154
  207SOL    HW1  629   0.938  -0.038   1.123
  207SOL    HW2  630   1.094  -0.002   1.154
  208SOL     OW  631   0.770   1.330   0.301
  208SOL    HW1  632   0.724   1.243   0.318
  208SOL    HW2  633   0.861   1.327   0.342
  209SOL     OW  634   0.618   1.567   1.284
  209SOL    HW1  635   0.613   1.649   1.341
  209SOL    HW2  636   0.707   1.564   1.239
  210SOL     OW  637   1.352   0.052   0.168
  210SOL    HW1  638   1.387   0.011   0.084
  210SOL    HW2  639   1.262   0.014   0.188
  211SOL     OW  640   1.300   0.453   0.691
  211SOL    HW1  641   1.241   0.533   0.695
  211SOL    HW2  642   1.315   0.418   0.784
  212SOL     OW  643   1.593   0.221   0.882
  212SOL    HW1  644   1.509   0.220   0.936
  212SOL    HW2  645   1.595   0.304   0.826
  213SOL     OW  646   0.039   1.077   0.300
  213SOL    HW1  647   0.138   1.066   0.291
  213SOL    HW2  648  -0.001   0.991   0.332
  214SOL     OW  649   0.875   1.646   0.337
  214SOL    HW1  650   0.798   1.611   0.283
  214SOL    HW2  651   0.843   1.717   0.399
  215SOL     OW  652   0.230   0.628   1.975
  215SOL    HW1  653   0.137   0.626   2.012
  215SOL    HW2  654   0.231   0.589   1.883
  216SOL     OW  655   0.225   0.275   2.858
  216SOL    HW1  656   0.260   0.258   2.950
  216SOL    HW2  657   0.137   0.230   2.846
  217SOL     OW  658   0.019   0.368   2.509
  217SOL    HW1  659  -0.063   0.411   2.548
  217SOL    HW2  660  -0.009   0.295   2.446
  218SOL     OW  661   0.569   1.275   3.027
  218SOL    HW1  662   0.476   1.268   2.990
  218SOL    HW2  663   0.580   1.364   3.071
  219SOL     OW  664   1.555   1.511   2.565
  219SOL    HW1  665   1.498   1.495   2.646
  219SOL    HW2  666   1.496   1.521   2.485
  220SOL     OW  667   1.135   0.703   2.579
  220SOL    HW1  668   1.192   0.781   2.554
  220SOL    HW2  669   1.075   0.729   2.655
  221SOL     OW  670   1.755   0.607   2.093
  221SOL    HW1  671   1.743   0.594   1.994
  221SOL    HW2  672   1.725   0.526   2.142
  222SOL     OW  673   0.768   1.144   2.885
  222SOL    HW1  674   0.690   1.161   2.945
  222SOL    HW2  675   0.802   1.231   2.849
  223SOL     OW  676   0.850   0.798   3.685
  223SOL    HW1  677   0.846   0.874   3.750
  223SOL    HW2  678   0.872   0.834   3.594
  224SOL     OW  679   0.685   1.012   2.527
  224SOL    HW1  680   0.754   0.996   2.597
  224SOL    HW2  681   0.612   1.069   2.565
  225SOL     OW  682   0.686   1.161   3.665
  225SOL    HW1  683   0.746   1.240   3.679
  225SOL    HW2  684   0.600   1.192   3.624
  226SOL     OW  685   0.335   1.435   2.923
  226SOL    HW1  686   0.257   1.404   2.870
  226SOL    HW2  687   0.393   1.493   2.866
  227SOL     OW  688   1.460   1.505   3.201
  227SOL    HW1  689   1.484   1.599   3.227
  227SOL    HW2  690   1.444   1.451   3.283
  228SOL     OW  691   0.438   0.392   3.361
  228SOL    HW1  692   0.520   0.336   3.370
  228SOL    HW2  693   0.357   0.334   3.365
  229SOL     OW  694   1.603   0.447   2.599
  229SOL    HW1  695   1.529   0.493   2.549
  229SOL    HW2  696   1.654   0.515   2.652
  230SOL     OW  697   0.231   1.713   2.345
  230SOL    HW1  698   0.265   1.790   2.399
  230SOL    HW2  699   0.275   1.713   2.255
  231SOL     OW  700   1.127   1.341   3.552
  231SOL    HW1  701   1.174   1.341   3.640
  231SOL    HW2  702   1.079   1.254   3.541
  232SOL     OW  703   0.230   1.434   2.400
  232SOL    HW1  704   0.204   1.530   2.400
  232SOL    HW2  705   0.159   1.380   2.445
  233SOL     OW  706   0.240   1.091   2.748
  233SOL    HW1  707   0.254   1.007   2.800
  233SOL    HW2  708   0.185   1.155   2.803
  234SOL     OW  709   0.620   1.786   3.301
  234SOL    HW1  710   0.528   1.769   3.336
  234SOL    HW2  711   0.648   1.878   3.327
  235SOL     OW  712   0.606   0.964   1.985
  235SOL    HW1  713   0.613   1.048   1.931
  235SOL    HW2  714   0.652   0.977   2.073
  236SOL     OW  715   1.594   0.114   3.342
  236SOL    HW1  716   1.576   0.181   3.270
  236SOL    HW2  717   1.591   0.160   3.431
  237SOL     OW  718   0.122   0.643   2.425
  237SOL    HW1  719   0.077   0.555   2.442
  237SOL    HW2  720   0.121   0.697   2.509
  238SOL     OW  721   1.842   1.767   2.221
  238SOL    HW1  722   1.896   1.738   2.301
  238SOL    HW2  723   1.872   1.857   2.192
  239SOL     OW  724   0.027   1.596   1.979
  239SOL    HW1  725   0.008   1.500   2.000
  239SOL    HW2  726  -0.006   1.654   2.054
  240SOL     OW  727   1.689   0.922   2.474
  240SOL    HW1  728   1.784   0.893   2.482
  240SOL    HW2  729   1.681   0.987   2.399
  241SOL     OW  730   1.641   1.108   2.294
  241SOL    HW1  731   1.727   1.110   2.242
  241SOL    HW2  732   1.655   1.155   2.382
  242SOL     OW  733   0.113   0.737   3.459
  242SOL    HW1  734   0.201   0.724   3.504
  242SOL    HW2  735   0.100   0.834   3.437
  243SOL     OW  736   0.613   1.365   2.588
  243SOL    HW1  737   0.564   1.278   2.597
  243SOL    HW2  738   0.590   1.408   2.501
  244SOL     OW  739   1.293   1.228   3.285
  244SOL    HW1  740   1.330   1.155   3.227
  244SOL    HW2  741   1.345   1.233   3.370
  245SOL     OW  742   0.809   0.004   2.364
  245SOL    HW1  743   0.849   0.095   2.355
  245SOL    HW2  744   0.709   0.012   2.370
  246SOL     OW  745   0.197   0.976   3.126
  246SOL    HW1  746   0.286   0.931   3.112
  246SOL    HW2  747   0.124   0.911   3.107
  247SOL     OW  748   1.525   0.999   2.052
  247SOL    HW1  749   1.462   0.923   2.065
  247SOL    HW2  750   1.573   1.017   2.138
  248SOL     OW  751   1.187   1.792   3.478
  248SOL    HW1  752   1.211   1.852   3.402
  248SOL    HW2  753   1.194   1.697   3.448
  249SOL     OW  754   0.317   0.251   3.663
  249SOL    HW1  755   0.388   0.322   3.669
  249SOL    HW2  756   0.229   0.290   3.691
  250SOL     OW  757   1.466   1.417   2.815
  250SOL    HW1  758   1.407   1.423   2.895
  250SOL    HW2  759   1.451   1.329   2.769
  251SOL     OW  760   1.667   1.714   2.434
  251SOL    HW1  761   1.626   1.691   2.346
  251SOL    HW2  762   1.649   1.640   2.499
  252SOL     OW  763   0.598   0.729   2.132
  252SOL    HW1  764   0.622   0.798   2.064
  252SOL    HW2  765   0.520   0.762   2.186
  253SOL     OW  766   1.281   0.345   2.806
  253SOL    HW1  767   1.195   0.295   2.793
  253SOL    HW2  768   1.343   0.291   2.862
  254SOL     OW  769   1.576   1.662   2.169
  254SOL    HW1  770   1.665   1.708   2.172
  254SOL    HW2  771   1.555   1.638   2.074
  255SOL     OW  772   0.807   0.605   3.327
  255SOL    HW1  773   0.760   0.602   3.416
  255SOL    HW2  774   0.756   0.550   3.261
  256SOL     OW  775   1.394   0.469   3.536
  256SOL    HW1  776   1.374   0.512   3.624
  256SOL    HW2  777   1.472   0.407   3.545
  257SOL     OW  778   0.973   0.890   3.434
  257SOL    HW1  779   1.019   0.806   3.405
  257SOL    HW2  780   0.917   0.924   3.359
  258SOL     OW  781   0.991   0.410   3.104
  258SOL    HW1  782   0.914   0.444   3.158
  258SOL    HW2  783   0.957   0.359   3.025
  259SOL     OW  784   1.041   0.701   2.291
  259SOL    HW1  785   1.067   0.697   2.387
  259SOL    HW2  786   0.956   0.650   2.277
  260SOL     OW  787   0.076   0.811   2.651
  260SOL    HW1  788   0.175   0.799   2.660
  260SOL    HW2  789   0.052   0.906   2.672
  261SOL     OW  790   0.130   1.821   3.433
  261SOL    HW1  791   0.120   1.806   3.532
  261SOL    HW2  792   0.044   1.857   3.397
  262SOL     OW  793   0.865   0.348   2.057
  262SOL    HW1  794   0.924   0.411   2.008
  262SOL    HW2  795   0.884   0.254   2.028
  263SOL     OW  796   1.719   0.585   3.693
  263SOL    HW1  797   1.693   0.674   3.657
  263SOL    HW2  798   1.717   0.517   3.620
  264SOL     OW  799   1.362   1.144   2.407
  264SOL    HW1  800   1.445   1.115   2.359
  264SOL    HW2  801   1.313   1.211   2.351
  265SOL     OW  802   0.550   0.196   2.747
  265SOL    HW1  803   0.545   0.191   2.847
  265SOL    HW2  804   0.552   0.292   2.718
  266SOL     OW  805   1.008   1.456   2.339
  266SOL    HW1  806   0.962   1.528   2.287
  266SOL    HW2  807   1.004   1.476   2.437
  267SOL     OW  808   0.351   1.801   2.715
  267SOL    HW1  809   0.401   1.715   2.721
  267SOL    HW2  810   0.416   1.878   2.712
  268SOL     OW  811   1.795   1.066   2.735
  268SOL    HW1  812   1.733   1.051   2.659
  268SOL    HW2  813   1.743   1.077   2.820
  269SOL     OW  814   1.227   1.550   3.368
  269SOL    HW1  815   1.233   1.473   3.432
  269SOL    HW2  816   1.175   1.524   3.288
  270SOL     OW  817   0.321   0.943   2.104
  270SOL    HW1  818   0.403   0.982   2.062
  270SOL    HW2  819   0.294   0.861   2.055
  271SOL     OW  820   1.458   0.735   2.590
  271SOL    HW1  821   1.453   0.670   2.665
  271SOL    HW2  822   1.538   0.794   2.603
  272SOL     OW  823   0.461   1.266   3.589
  272SOL    HW1  824   0.411   1.267   3.503
  272SOL    HW2  825   0.398   1.248   3.665
  273SOL     OW  826   1.111   1.776   2.099
  273SOL    HW1  827   1.051   1.714   2.149
  273SOL    HW2  828   1.142   1.732   2.014
  274SOL     OW  829   0.202   0.285   3.360
  274SOL    HW1  830   0.122   0.345   3.347
  274SOL    HW2  831   0.192   0.236   3.446
  275SOL     OW  832   1.632   1.377   1.943
  275SOL    HW1  833   1.600   1.471   1.933
  275SOL    HW2  834   1.556   1.314   1.931
  276SOL     OW  835   0.464   1.743   2.185
  276SOL    HW1  836   0.497   1.782   2.271
  276SOL    HW2  837   0.540   1.736   2.120
  277SOL     OW  838   1.400   0.107   2.288
  277SOL    HW1  839   1.376   0.070   2.198
  277SOL    HW2  840   1.499   0.123   2.292
  278SOL     OW  841   0.249   1.785   3.103
  278SOL    HW1  842   0.306   1.720   3.153
  278SOL    HW2  843   0.233   1.752   3.010
  279SOL     OW  844   0.940   1.698   2.766
  279SOL    HW1  845   1.020   1.641   2.787
  279SOL    HW2  846   0.891   1.658   2.689
  280SOL     OW  847   0.382   0.700   2.342
  280SOL    HW1  848   0.427   0.610   2.339
  280SOL    HW2  849   0.288   0.689   2.375
  281SOL     OW  850   1.547   0.222   3.591
  281SOL    HW1  851   1.542   0.259   3.683
  281SOL    HW2  852   1.475   0.153   3.579
  282SOL     OW  853   0.614   0.122   1.979
  282SOL    HW1  854   0.712   0.100   1.986
  282SOL    HW2  855   0.583   0.105   1.886
  283SOL     OW  856   0.781   0.264   3.611
  283SOL    HW1  857   0.848   0.203   3.654
  283SOL    HW2  858   0.708   0.283   3.676
  284SOL     OW  859   0.888   1.514   3.057
  284SOL    HW1  860   0.865   1.489   2.963
  284SOL    HW2  861   0.949   1.445   3.096
  285SOL     OW  862   1.351   0.590   3.295
  285SOL    HW1  863   1.379   0.547   3.380
  285SOL    HW2  864   1.376   0.686   3.296
  286SOL     OW  865   0.803   1.402   2.786
  286SOL    HW1  866   0.893   1.416   2.744
  286SOL    HW2  867   0.732   1.404   2.715
  287SOL     OW  868   0.922   0.503   2.761
  287SOL    HW1  869   0.897   0.494   2.665
  287SOL    HW2  870   0.970   0.421   2.792
  288SOL     OW  871   0.539   0.064   2.374
  288SOL    HW1  872   0.458   0.065   2.432
  288SOL    HW2  873   0.542   0.147   2.319
  289SOL     OW  874   1.434   1.188   1.903
  289SOL    HW1  875   1.466   1.112   1.960
  289SOL    HW2  876   1.342   1.215   1.933
  290SOL     OW  877   0.297   0.035   2.033
  290SOL    HW1  878   0.346   0.119   2.012
  290SOL    HW2  879   0.359  -0.030   2.078
  291SOL     OW  880   0.935   0.236   2.342
  291SOL    HW1  881   0.887   0.277   2.264
  291SOL    HW2  882   1.034   0.234   2.323
  292SOL     OW  883   1.076   0.683   3.326
  292SOL    HW1  884   0.996   0.622   3.329
  292SOL    HW2  885   1.157   0.630   3.302
  293SOL     OW  886   1.227   1.570   2.655
  293SOL    HW1  887   1.248   1.644   2.590
  293SOL    HW2  888   1.295   1.570   2.728
  294SOL     OW  889   0.459   1.152   2.603
  294SOL    HW1  890   0.388   1.125   2.668
  294SOL    HW2  891   0.433   1.124   2.510
  295SOL     OW  892   1.271   1.797   2.453
  295SOL    HW1  893   1.315   1.861   2.389
  295SOL    HW2  894   1.221   1.849   2.523
  296SOL     OW  895   1.032   0.549   1.878
  296SOL    HW1  896   0.991   0.631   1.839
  296SOL    HW2  897   1.096   0.575   1.951
  297SOL     OW  898   0.078   0.556   3.248
  297SOL    HW1  899   0.170   0.555   3.207
  297SOL    HW2  900   0.072   0.630   3.315
  298SOL     OW  901   0.561   0.222   3.009
  298SOL    HW1  902   0.599   0.138   3.046
  298SOL    HW2  903   0.473   0.241   3.053
  299SOL     OW  904   0.866   0.454   2.504
  299SOL    HW1  905   0.834   0.526   2.442
  299SOL    HW2  906   0.890   0.373   2.451
  300SOL     OW  907   1.017   0.039   2.615
  300SOL    HW1  908   0.945   0.044   2.546
  300SOL    HW2  909   0.993  -0.030   2.684
  301SOL     OW  910   1.429   1.173   2.729
  301SOL    HW1  911   1.374   1.089   2.722
  301SOL    HW2  912   1.455   1.202   2.637
  302SOL     OW  913   1.466   0.590   2.854
  302SOL    HW1  914   1.436   0.495   2.861
  302SOL    HW2  915   1.539   0.606   2.920
  303SOL     OW  916   1.857   0.833   2.239
  303SOL    HW1  917   1.899   0.769   2.303
  303SOL    HW2  918   1.819   0.782   2.161
  304SOL     OW  919   0.488   1.385   2.036
  304SOL    HW1  920   0.401   1.370   2.083
  304SOL    HW2  921   0.471   1.411   1.941
  305SOL     OW  922   1.664   1.280   2.519
  305SOL    HW1  923   1.763   1.288   2.533
  305SOL    HW2  924   1.619   1.364   2.550
  306SOL     OW  925   1.390   0.575   1.940
  306SOL    HW1  926   1.336   0.554   2.021
  306SOL    HW2  927   1.481   0.534   1.949
  307SOL     OW  928   0.527   0.256   2.190
  307SOL    HW1  929   0.554   0.197   2.115
  307SOL    HW2  930   0.527   0.351   2.159
  308SOL     OW  931   1.754   1.223   3.450
  308SOL    HW1  932   1.845   1.184   3.437
  308SOL    HW2  933   1.762   1.319   3.474
  309SOL     OW  934   1.064   1.347   3.202
  309SOL    HW1  935   0.984   1.324   3.257
  309SOL    HW2  936   1.147   1.321   3.251
  310SOL     OW  937   1.592   1.629   3.487
  310SOL    HW1  938   1.619   1.663   3.397
  310SOL    HW2  939   1.671   1.591   3.533
  311SOL     OW  940   1.111   1.195   2.962
  311SOL    HW1  941   1.071   1.239   3.043
  311SOL    HW2  942   1.070   1.232   2.879
  312SOL     OW  943   1.638   1.099   2.941
  312SOL    HW1  944   1.643   1.180   3.000
  312SOL    HW2  945   1.552   1.101   2.890
  313SOL     OW  946   0.915   0.089   3.264
  313SOL    HW1  947   0.940   0.069   3.169
  313SOL    HW2  948   0.987   0.145   3.306
  314SOL     OW  949   0.980   1.116   3.581
  314SOL    HW1  950   0.881   1.122   3.591
  314SOL    HW2  951   1.003   1.036   3.525
  315SOL     OW  952   0.705   1.050   2.230
  315SOL    HW1  953   0.691   1.057   2.329
  315SOL    HW2  954   0.789   0.999   2.212
  316SOL     OW  955   0.410   0.813   3.113
  316SOL    HW1  956   0.496   0.825   3.163
  316SOL    HW2  957   0.368   0.726   3.140
  317SOL     OW  958   1.274   0.386   3.124
  317SOL    HW1  959   1.295   0.460   3.188
  317SOL    HW2  960   1.185   0.403   3.081
  318SOL     OW  961   0.064   1.564   3.193
  318SOL    HW1  962   0.018   1.646   3.159
  318SOL    HW2  963   0.162   1.583   3.202
  319SOL     OW  964   0.367   1.100   2.363
  319SOL    HW1  965   0.360   1.183   2.307
  319SOL    HW2  966   0.371   1.020   2.303
  320SOL     OW  967   0.566   0.537   2.727
  320SOL    HW1  968   0.578   0.603   2.653
  320SOL    HW2  969   0.612   0.571   2.810
  321SOL     OW  970   1.252   1.348   2.250
  321SOL    HW1  971   1.302   1.425   2.290
  321SOL    HW2  972   1.157   1.350   2.282
  322SOL     OW  973   1.272   1.445   3.004
  322SOL    HW1  974   1.319   1.458   3.091
  322SOL    HW2  975   1.206   1.371   3.013
  323SOL     OW  976   1.582   0.639   2.334
  323SOL    HW1  977   1.551   0.700   2.407
  323SOL    HW2  978   1.632   0.691   2.265
  324SOL     OW  979   0.354   1.510   3.191
  324SOL    HW1  980   0.333   1.466   3.104
  324SOL    HW2  981   0.451   1.536   3.194
  325SOL     OW  982   0.402   0.751   3.460
  325SOL    HW1  983   0.470   0.806   3.413
  325SOL    HW2  984   0.442   0.663   3.487
  326SOL     OW  985   1.587   0.779   3.532
  326SOL    HW1  986   1.495   0.817   3.527
  326SOL    HW2  987   1.647   0.826   3.467
  327SOL     OW  988   1.013   0.105   3.632
  327SOL    HW1  989   1.019   0.190   3.580
  327SOL    HW2  990   1.045   0.029   3.575
  328SOL     OW  991   0.504   0.050   3.602
  328SOL    HW1  992   0.462  -0.007   3.532
  328SOL    HW2  993   0.438   0.119   3.634
  329SOL     OW  994   0.573   0.870   2.891
  329SOL    HW1  995   0.617   0.959   2.882
  329SOL    HW2  996   0.510   0.870   2.968
  330SOL     OW  997   1.360   0.862   2.907
  330SOL    HW1  998   1.285   0.862   2.841
  330SOL    HW2  999   1.397   0.770   2.916
  331SOL     OW 1000   1.209   0.525   2.137
  331SOL    HW1 1001   1.222   0.441   2.191
  331SOL    HW2 1002   1.180   0.599   2.197
  332SOL     OW 1003   0.307   0.213   3.093
  332SOL    HW1 1004   0.284   0.250   3.183
  332SOL    HW2 1005   0.277   0.118   3.087
  333SOL     OW 1006   0.037   1.310   3.144
  333SOL    HW1 1007   0.090   1.261   3.212
  333SOL    HW2 1008   0.059   1.408   3.149
  334SOL     OW 1009   0.732   0.634   2.926
  334SOL    HW1 1010   0.791   0.608   2.850
  334SOL    HW2 1011   0.704   0.730   2.915
  335SOL     OW 1012   1.728   0.935   3.716
  335SOL    HW1 1013   1.682   0.928   3.627
  335SOL    HW2 1014   1.666   0.979   3.782
  336SOL     OW 1015   0.307   0.063   2.480
  336SOL    HW1 1016   0.296   0.157   2.513
  336SOL    HW2 1017   0.302   0.000   2.557
  337SOL     OW 1018   1.622   0.367   2.236
  337SOL    HW1 1019   1.624   0.291   2.300
  337SOL    HW2 1020   1.574   0.444   2.276
  338SOL     OW 1021   1.023   0.766   2.828
  338SOL    HW1 1022   1.038   0.787   2.924
  338SOL    HW2 1023   0.993   0.671   2.819
  339SOL     OW 1024   0.980   1.573   3.562
  339SOL    HW1 1025   0.960   1.617   3.474
  339SOL    HW2 1026   1.019   1.482   3.546
  340SOL     OW 1027   1.859   1.518   3.467
  340SOL    HW1 1028   1.873   1.545   3.372
  340SOL    HW2 1029   1.942   1.540   3.520
  341SOL     OW 1030   0.350   0.898   3.666
  341SOL    HW1 1031   0.426   0.942   3.714
  341SOL    HW2 1032   0.385   0.851   3.584
  342SOL     OW 1033   1.540   0.274   1.987
  342SOL    HW1 1034   1.479   0.199   2.010
  342SOL    HW2 1035   1.562   0.326   2.070
  343SOL     OW 1036   1.303   0.838   1.904
  343SOL    HW1 1037   1.337   0.745   1.919
  343SOL    HW2 1038   1.321   0.865   1.809
  344SOL     OW 1039   1.068   1.333   2.711
  344SOL    HW1 1040   1.075   1.249   2.656
  344SOL    HW2 1041   1.130   1.402   2.675
  345SOL     OW 1042   0.319   0.810   2.811
  345SOL    HW1 1043   0.412   0.846   2.816
  345SOL    HW2 1044   0.313   0.725   2.863
  346SOL     OW 1045   0.339   0.509   2.868
  346SOL    HW1 1046   0.287   0.426   2.851
  346SOL    HW2 1047   0.416   0.514   2.804
  347SOL     OW 1048   1.138   0.380   3.540
  347SOL    HW1 1049   1.093   0.443   3.604
  347SOL    HW2 1050   1.231   0.411   3.523
  348SOL     OW 1051   1.160   0.207   3.339
  348SOL    HW1 1052   1.160   0.271   3.416
  348SOL    HW2 1053   1.188   0.255   3.256
  349SOL     OW 1054   0.008   1.326   2.062
  349SOL    HW1 1055  -0.085   1.347   2.031
  349SOL    HW2 1056   0.018   1.227   2.075
  350SOL     OW 1057   0.088   1.801   2.789
  350SOL    HW1 1058   0.046   1.715   2.762
  350SOL    HW2 1059   0.182   1.804   2.755
  351SOL     OW 1060   0.504   1.568   2.772
  351SOL    HW1 1061   0.570   1.642   2.781
  351SOL    HW2 1062   0.548   1.489   2.730
  352SOL     OW 1063   1.002   0.796   3.100
  352SOL    HW1 1064   1.043   0.764   3.186
  352SOL    HW2 1065   0.906   0.769   3.097
  353SOL     OW 1066   0.040   0.544   2.976
  353SOL    HW1 1067   0.125   0.511   2.935
  353SOL    HW2 1068   0.053   0.559   3.074
  354SOL     OW 1069   0.189   0.520   3.584
  354SOL    HW1 1070   0.248   0.480   3.514
  354SOL    HW2 1071   0.131   0.591   3.543
  355SOL     OW 1072   1.369   0.950   3.522
  355SOL    HW1 1073   1.408   1.039   3.542
  355SOL    HW2 1074   1.379   0.930   3.425
  356SOL     OW 1075   0.815   0.572   2.187
  356SOL    HW1 1076   0.822   0.483   2.141
  356SOL    HW2 1077   0.721   0.606   2.179
  357SOL     OW 1078   1.657   0.604   3.068
  357SOL    HW1 1079   1.619   0.535   3.130
  357SOL    HW2 1080   1.739   0.568   3.024
  358SOL     OW 1081   0.252   1.564   3.606
  358SOL    HW1 1082   0.222   1.621   3.682
  358SOL    HW2 1083   0.245   1.467   3.632
  359SOL     OW 1084   0.671   0.464   3.131
  359SOL    HW1 1085   0.637   0.375   3.101
  359SOL    HW2 1086   0.697   0.518   3.051
  360SOL     OW 1087   0.930   1.678   3.327
  360SOL    HW1 1088   0.906   1.660   3.232
  360SOL    HW2 1089   0.960   1.772   3.337
  361SOL     OW 1090   0.473   0.500   2.053
  361SOL    HW1 1091   0.534   0.580   2.057
  361SOL    HW2 1092   0.378   0.531   2.060
  362SOL     OW 1093   0.159   1.137   3.328
  362SOL    HW1 1094   0.181   1.076   3.404
  362SOL    HW2 1095   0.169   1.088   3.242
  363SOL     OW 1096   1.347   1.059   3.096
  363SOL    HW1 1097   1.371   0.996   3.022
  363SOL    HW2 1098   1.257   1.099   3.078
  364SOL     OW 1099   1.302   0.855   2.171
  364SOL    HW1 1100   1.216   0.824   2.213
  364SOL    HW2 1101   1.298   0.841   2.072
  365SOL     OW 1102   1.759   1.747   3.016
  365SOL    HW1 1103   1.820   1.777   2.943
  365SOL    HW2 1104   1.721   1.658   2.994
  366SOL     OW 1105   1.252   1.731   2.990
  366SOL    HW1 1106   1.336   1.736   2.936
  366SOL    HW2 1107   1.229   1.635   3.008
  367SOL     OW 1108   0.083   1.258   2.884
  367SOL    HW1 1109   0.078   1.257   2.984
  367SOL    HW2 1110   0.000   1.217   2.846
  368SOL     OW 1111   0.688   1.662   3.578
  368SOL    HW1 1112   0.632   1.743   3.587
  368SOL    HW2 1113   0.740   1.666   3.492
  369SOL     OW 1114   1.726   0.135   2.385
  369SOL    HW1 1115   1.799   0.118   2.318
  369SOL    HW2 1116   1.695   0.048   2.423
  370SOL     OW 1117   1.388   1.573   2.339
  370SOL    HW1 1118   1.455   1.585   2.265
  370SOL    HW2 1119   1.348   1.662   2.362
  371SOL     OW 1120   0.130   1.794   3.713
  371SOL    HW1 1121   0.089   1.720   3.766
  371SOL    HW2 1122   0.194   1.845   3.771
  372SOL     OW 1123   1.280   0.927   2.534
  372SOL    HW1 1124   1.340   0.846   2.536
  372SOL    HW2 1125   1.320   0.996   2.474
  373SOL     OW 1126   0.830   1.273   3.284
  373SOL    HW1 1127   0.825   1.306   3.379
  373SOL    HW2 1128   0.744   1.292   3.238
  374SOL     OW 1129   0.672   1.616   2.016
  374SOL    HW1 1130   0.681   1.626   1.917
  374SOL    HW2 1131   0.632   1.527   2.037
  375SOL     OW 1132   1.650   1.720   3.256
  375SOL    HW1 1133   1.703   1.730   3.172
  375SOL    HW2 1134   1.623   1.810   3.290
  376SOL     OW 1135   1.841   0.175   2.825
  376SOL    HW1 1136   1.880   0.090   2.789
  376SOL    HW2 1137   1.743   0.177   2.806
  377SOL     OW 1138   0.263   0.326   2.582
  377SOL    HW1 1139   0.184   0.377   2.548
  377SOL    HW2 1140   0.254   0.311   2.680
  378SOL     OW 1141   1.194   1.612   1.893
  378SOL    HW1 1142   1.200   1.519   1.930
  378SOL    HW2 1143   1.135   1.612   1.813
  379SOL     OW 1144   0.822   1.002   3.234
  379SOL    HW1 1145   0.862   1.001   3.142
  379SOL    HW2 1146   0.832   1.094   3.274
  380SOL     OW 1147   0.916   0.910   2.153
  380SOL    HW1 1148   0.979   0.948   2.085
  380SOL    HW2 1149   0.956   0.827   2.192
  381SOL     OW 1150   1.504   1.607   1.906
  381SOL    HW1 1151   1.412   1.644   1.913
  381SOL    HW2 1152   1.542   1.627   1.816
  382SOL     OW 1153   0.372   1.288   3.352
  382SOL    HW1 1154   0.359   1.381   3.318
  382SOL    HW2 1155   0.288   1.236   3.339
  383SOL     OW 1156   1.614   1.292   3.151
  383SOL    HW1 1157   1.674   1.295   3.231
  383SOL    HW2 1158   1.539   1.356   3.164
  384SOL     OW 1159   1.039   1.098   2.558
  384SOL    HW1 1160   0.969   1.051   2.612
  384SOL    HW2 1161   1.098   1.030   2.515
  385SOL     OW 1162   1.014   0.236   2.833
  385SOL    HW1 1163   1.006   0.200   2.740
  385SOL    HW2 1164   1.012   0.160   2.898
  386SOL     OW 1165   0.590   1.487   2.353
  386SOL    HW1 1166   0.632   1.429   2.283
  386SOL    HW2 1167   0.546   1.566   2.309
  387SOL     OW 1168   1.709   0.385   3.243
  387SOL    HW1 1169   1.782   0.454   3.247
  387SOL    HW2 1170   1.737   0.310   3.184
  388SOL     OW 1171   0.255   1.348   2.152
  388SOL    HW1 1172   0.159   1.349   2.125
  388SOL    HW2 1173   0.267   1.401   2.236
  389SOL     OW 1174   0.105   1.013   3.588
  389SOL    HW1 1175   0.028   0.980   3.642
  389SOL    HW2 1176   0.190   0.983   3.630
  390SOL     OW 1177   0.672   0.203   3.351
  390SOL    HW1 1178   0.762   0.187   3.311
  390SOL    HW2 1179   0.680   0.208   3.450
  391SOL     OW 1180   0.075   0.345   1.895
  391SOL    HW1 1181  -0.017   0.317   1.866
  391SOL    HW2 1182   0.106   0.422   1.839
  392SOL     OW 1183   1.440   0.856   3.260
  392SOL    HW1 1184   1.383   0.908   3.197
  392SOL    HW2 1185   1.536   0.868   3.236
  393SOL     OW 1186   0.072   0.166   2.180
  393SOL    HW1 1187   0.055   0.249   2.126
  393SOL    HW2 1188   0.162   0.129   2.158
  394SOL     OW 1189   1.183   1.335   1.981
  394SOL    HW1 1190   1.084   1.324   1.983
  394SOL    HW2 1191   1.217   1.350   2.074
  395SOL     OW 1192   0.613   0.842   3.293
  395SOL    HW1 1193   0.669   0.923   3.276
  395SOL    HW2 1194   0.672   0.762   3.296
  396SOL     OW 1195   1.493   1.767   2.821
  396SOL    HW1 1196   1.526   1.831   2.752
  396SOL    HW2 1197   1.559   1.761   2.896
  397SOL     OW 1198   0.716   0.565   3.570
  397SOL    HW1 1199   0.735   0.630   3.644
  397SOL    HW2 1200   0.776   0.485   3.579
  398SOL     OW 1201   1.450   1.220   3.495
  398SOL    HW1 1202   1.441   1.210   3.594
  398SOL    HW2 1203   1.546   1.213   3.469
  399SOL     OW 1204   0.390   1.741   3.422
  399SOL    HW1 1205   0.299   1.782   3.420
  399SOL    HW2 1206   0.383   1.647   3.454
  400SOL     OW 1207   1.674   0.883   3.116
  400SOL    HW1 1208   1.647   0.794   3.079
  400SOL    HW2 1209   1.675   0.951   3.043
  401SOL     OW 1210   1.225   0.325   2.311
  401SOL    HW1 1211   1.290   0.251   2.300
  401SOL    HW2 1212   1.245   0.375   2.395
  402SOL     OW 1213   0.594   0.745   2.514
  402SOL    HW1 1214   0.644   0.830   2.495
  402SOL    HW2 1215   0.506   0.747   2.466
  403SOL     OW 1216   1.777   0.342   3.504
  403SOL    HW1 1217   1.760   0.373   3.410
  403SOL    HW2 1218   1.693   0.305   3.542
  404SOL     OW 1219   1.730   0.934   3.379
  404SOL    HW1 1220   1.768   1.025   3.394
  404SOL    HW2 1221   1.722   0.917   3.280
  405SOL     OW 1222   0.859   1.374   1.878
  405SOL    HW1 1223   0.813   1.389   1.966
  405SOL    HW2 1224   0.903   1.459   1.848
  406SOL     OW 1225   0.661   1.790   2.815
  406SOL    HW1 1226   0.615   1.878   2.802
  406SOL    HW2 1227   0.760   1.802   2.808
  407SOL     OW 1228   0.859   0.956   2.723
  407SOL    HW1 1229   0.913   0.887   2.771
  407SOL    HW2 1230   0.827   1.025   2.789
  408SOL     OW 1231   1.083   0.984   1.949
  408SOL    HW1 1232   1.060   1.037   1.867
  408SOL    HW2 1233   1.164   0.928   1.930
  409SOL     OW 1234   1.861   1.569   2.713
  409SOL    HW1 1235   1.790   1.557   2.643
  409SOL    HW2 1236   1.862   1.490   2.773
  410SOL     OW 1237   0.221   1.314   3.706
  410SOL    HW1 1238   0.156   1.241   3.685
  410SOL    HW2 1239   0.225   1.328   3.804
  411SOL     OW 1240   0.079   1.240   2.515
  411SOL    HW1 1241   0.078   1.193   2.603
  411SOL    HW2 1242   0.161   1.212   2.464
  412SOL     OW 1243   0.672   1.391   3.486
  412SOL    HW1 1244   0.594   1.341   3.524
  412SOL    HW2 1245   0.669   1.486   3.517
  413SOL     OW 1246   1.824   0.192   3.089
  413SOL    HW1 1247   1.820   0.102   3.133
  413SOL    HW2 1248   1.827   0.181   2.990
  414SOL     OW 1249   0.428   0.424   2.382
  414SOL    HW1 1250   0.458   0.352   2.320
  414SOL    HW2 1251   0.389   0.384   2.465
  415SOL     OW 1252   1.705   1.487   2.966
  415SOL    HW1 1253   1.612   1.462   2.939
  415SOL    HW2 1254   1.731   1.437   3.048
  416SOL     OW 1255   0.317   0.547   3.142
  416SOL    HW1 1256   0.355   0.488   3.214
  416SOL    HW2 1257   0.357   0.521   3.054
  417SOL     OW 1258   0.812   1.586   2.549
  417SOL    HW1 1259   0.844   1.596   2.455
  417SOL    HW2 1260   0.733   1.524   2.551
  418SOL     OW 1261   1.424   0.214   2.974
  418SOL    HW1 1262   1.476   0.149   3.029
  418SOL    HW2 1263   1.375   0.277   3.035
  419SOL     OW 1264   1.001   0.034   3.016
  419SOL    HW1 1265   0.938  -0.038   2.985
  419SOL    HW2 1266   1.094  -0.002   3.016
  420SOL     OW 1267   0.770   1.330   2.163
  420SOL    HW1 1268   0.724   1.243   2.180
  420SOL    HW2 1269   0.861   1.327   2.204
  421SOL     OW 1270   0.618   1.567   3.146
  421SOL    HW1 1271   0.613   1.649   3.203
  421SOL    HW2 1272   0.707   1.564   3.101
  422SOL     OW 1273   1.352   0.052   2.030
  422SOL    HW1 1274   1.387   0.011   1.946
  422SOL    HW2 1275   1.262   0.014   2.050
  423SOL     OW 1276   1.300   0.453   2.553
  423SOL    HW1 1277   1.241   0.533   2.557
  423SOL    HW2 1278   1.315   0.418   2.646
  424SOL     OW 1279   1.593   0.221   2.744
  424SOL    HW1 1280   1.509   0.220   2.798
  424SOL    HW2 1281   1.595   0.304   2.688
  425SOL     OW 1282   0.039   1.077   2.162
  425SOL    HW1 1283   0.138   1.066   2.153
  425SOL    HW2 1284  -0.001   0.991   2.194
  426SOL     OW 1285   0.875   1.646   2.199
  426SOL    HW1 1286   0.798   1.611   2.145
  426SOL    HW2 1287   0.843   1.717   2.261
  427SOL     OW 1288   0.230   0.628   3.837
  427SOL    HW1 1289   0.137   0.626   3.874
  427SOL    HW2 1290   0.231   0.589   3.745
  428SOL     OW 1291   0.019   0.368   4.371
  428SOL    HW1 1292  -0.063   0.411   4.410
  428SOL    HW2 1293  -0.009   0.295   4.308
  429SOL     OW 1294   1.755   0.607   3.955
  429SOL    HW1 1295   1.743   0.594   3.856
  429SOL    HW2 1296   1.725   0.526   4.004
  430SOL     OW 1297   0.685   1.012   4.389
  430SOL    HW1 1298   0.754   0.996   4.459
  430SOL    HW2 1299   0.612   1.069   4.427
  431SOL     OW 1300   1.603   0.447   4.461
  431SOL    HW1 1301   1.529   0.493   4.411
  431SOL    HW2 1302   1.654   0.515   4.514
  432SOL     OW 1303   0.231   1.713   4.207
  432SOL    HW1 1304   0.265   1.790   4.261
  432SOL    HW2 1305   0.275   1.713   4.117
  433SOL     OW 1306   0.230   1.434   4.262
  433SOL    HW1 1307   0.204   1.530   4.262
  433SOL    HW2 1308   0.159   1.380   4.307
  434SOL     OW 1309   0.606   0.964   3.847
  434SOL    HW1 1310   0.613   1.048   3.793
  434SOL    HW2 1311   0.652   0.977   3.935
  435SOL     OW 1312   0.122   0.643   4.287
  435SOL    HW1 1313   0.077   0.555   4.304
  435SOL    HW2 1314   0.121   0.697   4.371
  436SOL     OW 1315   1.842   1.767   4.083
  436SOL    HW1 1316   1.896   1.738   4.163
  436SOL    HW2 1317   1.872   1.857   4.054
  437SOL     OW 1318   0.027   1.596   3.841
  437SOL    HW1 1319   0.008   1.500   3.862
  437SOL    HW2 1320  -0.006   1.654   3.916
  438SOL     OW 1321   1.689   0.922   4.336
  438SOL    HW1 1322   1.784   0.893   4.344
  438SOL    HW2 1323   1.681   0.987   4.261
  439SOL     OW 1324   1.641   1.108   4.156
  439SOL    HW1 1325   1.727   1.110   4.104
  439SOL    HW2 1326   1.655   1.155   4.244
  440SOL     OW 1327   0.613   1.365   4.450
  440SOL    HW1 1328   0.564   1.278   4.459
  440SOL    HW2 1329   0.590   1.408   4.363
  441SOL     OW 1330   0.809   0.004   4.226
  441SOL    HW1 1331   0.849   0.095   4.217
  441SOL    HW2 1332   0.709   0.012   4.232
  442SOL     OW 1333   1.525   0.999   3.914
  442SOL    HW1 1334   1.462   0.923   3.927
  442SOL    HW2 1335   1.573   1.017   4.000
  443SOL     OW 1336   1.667   1.714   4.296
  443SOL    HW1 1337   1.626   1.691   4.208
  443SOL    HW2 1338   1.649   1.640   4.361
  444SOL     OW 1339   0.598   0.729   3.994
  444SOL    HW1 1340   0.622   0.798   3.926
  444SOL    HW2 1341   0.520   0.762   4.048
  445SOL     OW 1342   1.281   0.345   4.668
  445SOL    HW1 1343   1.195   0.295   4.655
  445SOL    HW2 1344   1.343   0.291   4.724
  446SOL     OW 1345   1.576   1.662   4.031
  446SOL    HW1 1346   1.665   1.708   4.034
  446SOL    HW2 1347   1.555   1.638   3.936
  447SOL     OW 1348   1.041   0.701   4.153
  447SOL    HW1 1349   1.067   0.697   4.249
  447SOL    HW2 1350   0.956   0.650   4.139
  448SOL     OW 1351   0.076   0.811   4.513
  448SOL    HW1 1352   0.175   0.799   4.522
  448SOL    HW2 1353   0.052   0.906   4.534
  449SOL     OW 1354   0.865   0.348   3.919
  449SOL    HW1 1355   0.924   0.411   3.870
  449SOL    HW2 1356   0.884   0.254   3.890
  450SOL     OW 1357   1.362   1.144   4.269
  450SOL    HW1 1358   1.445   1.115   4.221
  450SOL    HW2 1359   1.313   1.211   4.213
  451SOL     OW 1360   1.008   1.456   4.201
  451SOL    HW1 1361   0.962   1.528   4.149
  451SOL    HW2 1362   1.004   1.476   4.299
  452SOL     OW 1363   0.351   1.801   4.577
  452SOL    HW1 1364   0.401   1.715   4.583
  452SOL    HW2 1365   0.416   1.878   4.574
  453SOL     OW 1366   1.795   1.066   4.597
  453SOL    HW1 1367   1.733   1.051   4.521
  453SOL    HW2 1368   1.743   1.077   4.682
  454SOL     OW 1369   0.321   0.943   3.966
  454SOL    HW1 1370   0.403   0.982   3.924
  454SOL    HW2 1371   0.294   0.861   3.917
  455SOL     OW 1372   1.111   1.776   3.961
  455SOL    HW1 1373   1.051   1.714   4.011
  455SOL    HW2 1374   1.142   1.732   3.876
  456SOL     OW 1375   1.632   1.377   3.805
  456SOL    HW1 1376   1.600   1.471   3.795
  456SOL    HW2 1377   1.556   1.314   3.793
  457SOL     OW 1378   0.464   1.743   4.047
  457SOL    HW1 1379   0.497   1.782   4.133
  457SOL    HW2 1380   0.540   1.736   3.982
  458SOL     OW 1381   1.400   0.107   4.150
  458SOL    HW1 1382   1.376   0.070   4.060
  458SOL    HW2 1383   1.499   0.123   4.154
  459SOL     OW 1384   0.940   1.698   4.628
  459SOL    HW1 1385   1.020   1.641   4.649
  459SOL    HW2 1386   0.891   1.658   4.551
  460SOL     OW 1387   0.382   0.700   4.204
  460SOL    HW1 1388   0.427   0.610   4.201
  460SOL    HW2 1389   0.288   0.689   4.237
  461SOL     OW 1390   0.614   0.122   3.841
  461SOL    HW1 1391   0.712   0.100   3.848
  461SOL    HW2 1392   0.583   0.105   3.748
  462SOL     OW 1393   0.539   0.064   4.236
  462SOL    HW1 1394   0.458   0.065   4.294
  462SOL    HW2 1395   0.542   0.147   4.181
  463SOL     OW 1396   1.434   1.188   3.765
  463SOL    HW1 1397   1.466   1.112   3.822
  463SOL    HW2 1398   1.342   1.215   3.795
  464SOL     OW 1399   0.297   0.035   3.895
  464SOL    HW1 1400   0.346   0.119   3.874
  464SOL    HW2 1401   0.359  -0.030   3.940
  465SOL     OW 1402   0.935   0.236   4.204
  465SOL    HW1 1403   0.887   0.277   4.126
  465SOL    HW2 1404   1.034   0.234   4.185
  466SOL     OW 1405   0.459   1.152   4.465
  466SOL    HW1 1406   0.388   1.125   4.530
  466SOL    HW2 1407   0.433   1.124   4.372
  467SOL     OW 1408   1.271   1.797   4.315
  467SOL    HW1 1409   1.315   1.861   4.251
  467SOL    HW2 1410   1.221   1.849   4.385
  468SOL     OW 1411   1.032   0.549   3.740
  468SOL    HW1 1412   0.991   0.631   3.701
  468SOL    HW2 1413   1.096   0.575   3.813
  469SOL     OW 1414   0.866   0.454   4.366
  469SOL    HW1 1415   0.834   0.526   4.304
  469SOL    HW2 1416   0.890   0.373   4.313
  470SOL     OW 1417   1.857   0.833   4.101
  470SOL    HW1 1418   1.899   0.769   4.165
  470SOL    HW2 1419   1.819   0.782   4.023
  471SOL     OW 1420   0.488   1.385   3.898
  471SOL    HW1 1421   0.401   1.370   3.945
  471SOL    HW2 1422   0.471   1.411   3.803
  472SOL     OW 1423   1.664   1.280   4.381
  472SOL    HW1 1424   1.763   1.288   4.395
  472SOL    HW2 1425   1.619   1.364   4.412
  473SOL     OW 1426   1.390   0.575   3.802
  473SOL    HW1 1427   1.336   0.554   3.883
  473SOL    HW2 1428   1.481   0.534   3.811
  474SOL     OW 1429   0.527   0.256   4.052
  474SOL    HW1 1430   0.554   0.197   3.977
  474SOL    HW2 1431   0.527   0.351   4.021
  475SOL     OW 1432   0.705   1.050   4.092
  475SOL    HW1 1433   0.691   1.057   4.191
  475SOL    HW2 1434   0.789   0.999   4.074
  476SOL     OW 1435   0.367   1.100   4.225
  476SOL    HW1 1436   0.360   1.183   4.169
  476SOL    HW2 1437   0.371   1.020   4.165
  477SOL     OW 1438   1.252   1.348   4.112
  477SOL    HW1 1439   1.302   1.425   4.152
  477SOL    HW2 1440   1.157   1.350   4.144
  478SOL     OW 1441   1.582   0.639   4.196
  478SOL    HW1 1442   1.551   0.700   4.269
  478SOL    HW2 1443   1.632   0.691   4.127
  479SOL     OW 1444   1.209   0.525   3.999
  479SOL    HW1 1445   1.222   0.441   4.053
  479SOL    HW2 1446   1.180   0.599   4.059
  480SOL     OW 1447   0.307   0.063   4.342
  480SOL    HW1 1448   0.296   0.157   4.375
  480SOL    HW2 1449   0.302   0.000   4.419
  481SOL     OW 1450   1.622   0.367   4.098
  481SOL    HW1 1451   1.624   0.291   4.162
  481SOL    HW2 1452   1.574   0.444   4.138
  482SOL     OW 1453   1.540   0.274   3.849
  482SOL    HW1 1454   1.479   0.199   3.872
  482SOL    HW2 1455   1.562   0.326   3.932
  483SOL     OW 1456   1.303   0.838   3.766
  483SOL    HW1 1457   1.337   0.745   3.781
  483SOL    HW2 1458   1.321   0.865   3.671
  484SOL     OW 1459   0.008   1.326   3.924
  484SOL    HW1 1460  -0.085   1.347   3.893
  484SOL    HW2 1461   0.018   1.227   3.937
  485SOL     OW 1462   0.040   0.544   4.838
  485SOL    HW1 1463   0.125   0.511   4.797
  485SOL    HW2 1464   0.053   0.559   4.936
  486SOL     OW 1465   0.815   0.572   4.049
  486SOL    HW1 1466   0.822   0.483   4.003
  486SOL    HW2 1467   0.721   0.606   4.041
  487SOL     OW 1468   0.473   0.500   3.915
  487SOL    HW1 1469   0.534   0.580   3.919
  487SOL    HW2 1470   0.378   0.531   3.922
  488SOL     OW 1471   1.302   0.855   4.033
  488SOL    HW1 1472   1.216   0.824   4.075
  488SOL    HW2 1473   1.298   0.841   3.934
  489SOL     OW 1474   1.726   0.135   4.247
  489SOL    HW1 1475   1.799   0.118   4.180
  489SOL    HW2 1476   1.695   0.048   4.285
  490SOL     OW 1477   1.388   1.573   4.201
  490SOL    HW1 1478   1.455   1.585   4.127
  490SOL    HW2 1479   1.348   1.662   4.224
  491SOL     OW 1480   0.672   1.616   3.878
  491SOL    HW1 1481   0.681   1.626   3.779
  491SOL    HW2 1482   0.632   1.527   3.899
  492SOL     OW 1483   1.841   0.175   4.687
  492SOL    HW1 1484   1.880   0.090   4.651
  492SOL    HW2 1485   1.743   0.177   4.668
  493SOL     OW 1486   0.263   0.326   4.444
  493SOL    HW1 1487   0.184   0.377   4.410
  493SOL    HW2 1488   0.254   0.311   4.542
  494SOL     OW 1489   1.194   1.612   3.755
  494SOL    HW1 1490   1.200   1.519   3.792
  494SOL    HW2 1491   1.135   1.612   3.675
  495SOL     OW 1492   0.916   0.910   4.015
  495SOL    HW1 1493   0.979   0.948   3.947
  495SOL    HW2 1494   0.956   0.827   4.054
  496SOL     OW 1495   1.504   1.607   3.768
  496SOL    HW1 1496   1.412   1.644   3.775
  496SOL    HW2 1497   1.542   1.627   3.678
  497SOL     OW 1498   0.590   1.487   4.215
  497SOL    HW1 1499   0.632   1.429   4.145
  497SOL    HW2 1500   0.546   1.566   4.171
  498SOL     OW 1501   0.255   1.348   4.014
  498SOL    HW1 1502   0.159   1.349   3.987
  498SOL    HW2 1503   0.267   1.401   4.098
  499SOL     OW 1504   0.075   0.345   3.757
  499SOL    HW1 1505  -0.017   0.317   3.728
  499SOL    HW2 1506   0.106   0.422   3.701
  500SOL     OW 1507   0.072   0.166   4.042
  500SOL    HW1 1508   0.055   0.249   3.988
  500SOL    HW2 1509   0.162   0.129   4.020
  501SOL     OW 1510   1.183   1.335   3.843
  501SOL    HW1 1511   1.084   1.324   3.845
  501SOL    HW2 1512   1.217   1.350   3.936
  502SOL     OW 1513   1.225   0.325   4.173
  502SOL    HW1 1514   1.290   0.251   4.162
  502SOL    HW2 1515   1.245   0.375   4.257
  503SOL     OW 1516   0.594   0.745   4.376
  503SOL    HW1 1517   0.644   0.830   4.357
  503SOL    HW2 1518   0.506   0.747   4.328
  504SOL     OW 1519   0.859   1.374   3.740
  504SOL    HW1 1520   0.813   1.389   3.828
  504SOL    HW2 1521   0.903   1.459   3.710
  505SOL     OW 1522   0.661   1.790   4.677
  505SOL    HW1 1523   0.615   1.878   4.664
  505SOL    HW2 1524   0.760   1.802   4.670
  506SOL     OW 1525   0.859   0.956   4.585
  506SOL    HW1 1526   0.913   0.887   4.633
  506SOL    HW2 1527   0.827   1.025   4.651
  507SOL     OW 1528   1.083   0.984   3.811
  507SOL    HW1 1529   1.060   1.037   3.729
  507SOL    HW2 1530   1.164   0.928   3.792
  508SOL     OW 1531   0.079   1.240   4.377
  508SOL    HW1 1532   0.078   1.193   4.465
  508SOL    HW2 1533   0.161   1.212   4.326
  509SOL     OW 1534   0.428   0.424   4.244
  509SOL    HW1 1535   0.458   0.352   4.182
  509SOL    HW2 1536   0.389   0.384   4.327
  510SOL     OW 1537   0.812   1.586   4.411
  510SOL    HW1 1538   0.844   1.596   4.317
  510SOL    HW2 1539   0.733   1.524   4.413
  511SOL     OW 1540   0.770   1.330   4.025
  511SOL    HW1 1541   0.724   1.243   4.042
  511SOL    HW2 1542   0.861   1.327   4.066
  512SOL     OW 1543   1.352   0.052   3.892
  512SOL    HW1 1544   1.387   0.011   3.808
  512SOL    HW2 1545   1.262   0.014   3.912
  513SOL     OW 1546   1.300   0.453   4.415
  513SOL    HW1 1547   1.241   0.533   4.419
  513SOL    HW2 1548   1.315   0.418   4.508
  514SOL     OW 1549   0.039   1.077   4.024
  514SOL    HW1 1550   0.138   1.066   4.015
  514SOL    HW2 1551  -0.001   0.991   4.056
  515SOL     OW 1552   0.875   1.646   4.061
  515SOL    HW1 1553   0.798   1.611   4.007
  515SOL    HW2 1554   0.843   1.717   4.123
  516SOL     OW 1555   0.230   2.490   0.113
  516SOL    HW1 1556   0.137   2.488   0.150
  516SOL    HW2 1557   0.231   2.451   0.021
  517SOL     OW 1558   0.225   2.137   0.996
  517SOL    HW1 1559   0.260   2.120   1.088
  517SOL    HW2 1560   0.137   2.092   0.984
  518SOL     OW 1561   0.019   2.230   0.647
  518SOL    HW1 1562  -0.063   2.273   0.686
  518SOL    HW2 1563  -0.009   2.157   0.584
  519SOL     OW 1564   0.569   3.137   1.165
  519SOL    HW1 1565   0.476   3.130   1.128
  519SOL    HW2 1566   0.580   3.226   1.209
  520SOL     OW 1567   1.555   3.373   0.703
  520SOL    HW1 1568   1.498   3.357   0.784
  520SOL    HW2 1569   1.496   3.383   0.623
  521SOL     OW 1570   1.135   2.565   0.717
  521SOL    HW1 1571   1.192   2.643   0.692
  521SOL    HW2 1572   1.075   2.591   0.793
  522SOL     OW 1573   1.755   2.469   0.231
  522SOL    HW1 1574   1.743   2.456   0.132
  522SOL    HW2 1575   1.725   2.388   0.280
  523SOL     OW 1576   0.768   3.006   1.023
  523SOL    HW1 1577   0.690   3.023   1.083
  523SOL    HW2 1578   0.802   3.093   0.987
  524SOL     OW 1579   0.850   2.660   1.823
  524SOL    HW1 1580   0.846   2.736   1.888
  524SOL    HW2 1581   0.872   2.696   1.732
  525SOL     OW 1582   0.685   2.874   0.665
  525SOL    HW1 1583   0.754   2.858   0.735
  525SOL    HW2 1584   0.612   2.931   0.703
  526SOL     OW 1585   0.686   3.023   1.803
  526SOL    HW1 1586   0.746   3.102   1.817
  526SOL    HW2 1587   0.600   3.054   1.762
  527SOL     OW 1588   0.335   3.297   1.061
  527SOL    HW1 1589   0.257   3.266   1.008
  527SOL    HW2 1590   0.393   3.355   1.004
  528SOL     OW 1591   1.460   3.367   1.339
  528SOL    HW1 1592   1.484   3.461   1.365
  528SOL    HW2 1593   1.444   3.313   1.421
  529SOL     OW 1594   0.438   2.254   1.499
  529SOL    HW1 1595   0.520   2.198   1.508
  529SOL    HW2 1596   0.357   2.196   1.503
  530SOL     OW 1597   1.603   2.309   0.737
  530SOL    HW1 1598   1.529   2.355   0.687
  530SOL    HW2 1599   1.654   2.377   0.790
  531SOL     OW 1600   0.231   3.575   0.483
  531SOL    HW1 1601   0.265   3.652   0.537
  531SOL    HW2 1602   0.275   3.575   0.393
  532SOL     OW 1603   1.127   3.203   1.690
  532SOL    HW1 1604   1.174   3.203   1.778
  532SOL    HW2 1605   1.079   3.116   1.679
  533SOL     OW 1606   0.230   3.296   0.538
  533SOL    HW1 1607   0.204   3.392   0.538
  533SOL    HW2 1608   0.159   3.242   0.583
  534SOL     OW 1609   0.240   2.953   0.886
  534SOL    HW1 1610   0.254   2.869   0.938
  534SOL    HW2 1611   0.185   3.017   0.941
  535SOL     OW 1612   0.620   3.648   1.439
  535SOL    HW1 1613   0.528   3.631   1.474
  535SOL    HW2 1614   0.648   3.740   1.465
  536SOL     OW 1615   0.606   2.826   0.123
  536SOL    HW1 1616   0.613   2.910   0.069
  536SOL    HW2 1617   0.652   2.839   0.211
  537SOL     OW 1618   1.594   1.976   1.480
  537SOL    HW1 1619   1.576   2.043   1.408
  537SOL    HW2 1620   1.591   2.022   1.569
  538SOL     OW 1621   0.122   2.505   0.563
  538SOL    HW1 1622   0.077   2.417   0.580
  538SOL    HW2 1623   0.121   2.559   0.647
  539SOL     OW 1624   1.842   3.629   0.359
  539SOL    HW1 1625   1.896   3.600   0.439
  539SOL    HW2 1626   1.872   3.719   0.330
  540SOL     OW 1627   0.027   3.458   0.117
  540SOL    HW1 1628   0.008   3.362   0.138
  540SOL    HW2 1629  -0.006   3.516   0.192
  541SOL     OW 1630   1.689   2.784   0.612
  541SOL    HW1 1631   1.784   2.755   0.620
  541SOL    HW2 1632   1.681   2.849   0.537
  542SOL     OW 1633   1.641   2.970   0.432
  542SOL    HW1 1634   1.727   2.972   0.380
  542SOL    HW2 1635   1.655   3.017   0.520
  543SOL     OW 1636   0.113   2.599   1.597
  543SOL    HW1 1637   0.201   2.586   1.642
  543SOL    HW2 1638   0.100   2.696   1.575
  544SOL     OW 1639   0.613   3.227   0.726
  544SOL    HW1 1640   0.564   3.140   0.735
  544SOL    HW2 1641   0.590   3.270   0.639
  545SOL     OW 1642   1.293   3.090   1.423
  545SOL    HW1 1643   1.330   3.017   1.365
  545SOL    HW2 1644   1.345   3.095   1.508
  546SOL     OW 1645   0.809   1.866   0.502
  546SOL    HW1 1646   0.849   1.957   0.493
  546SOL    HW2 1647   0.709   1.874   0.508
  547SOL     OW 1648   0.197   2.838   1.264
  547SOL    HW1 1649   0.286   2.793   1.250
  547SOL    HW2 1650   0.124   2.773   1.245
  548SOL     OW 1651   1.525   2.861   0.190
  548SOL    HW1 1652   1.462   2.785   0.203
  548SOL    HW2 1653   1.573   2.879   0.276
  549SOL     OW 1654   1.187   3.654   1.616
  549SOL    HW1 1655   1.211   3.714   1.540
  549SOL    HW2 1656   1.194   3.559   1.586
  550SOL     OW 1657   0.317   2.113   1.801
  550SOL    HW1 1658   0.388   2.184   1.807
  550SOL    HW2 1659   0.229   2.152   1.829
  551SOL     OW 1660   1.466   3.279   0.953
  551SOL    HW1 1661   1.407   3.285   1.033
  551SOL    HW2 1662   1.451   3.191   0.907
  552SOL     OW 1663   1.667   3.576   0.572
  552SOL    HW1 1664   1.626   3.553   0.484
  552SOL    HW2 1665   1.649   3.502   0.637
  553SOL     OW 1666   0.598   2.591   0.270
  553SOL    HW1 1667   0.622   2.660   0.202
  553SOL    HW2 1668   0.520   2.624   0.324
  554SOL     OW 1669   1.281   2.207   0.944
  554SOL    HW1 1670   1.195   2.157   0.931
  554SOL    HW2 1671   1.343   2.153   1.000
  555SOL     OW 1672   1.576   3.524   0.307
  555SOL    HW1 1673   1.665   3.570   0.310
  555SOL    HW2 1674   1.555   3.500   0.212
  556SOL     OW 1675   0.807   2.467   1.465
  556SOL    HW1 1676   0.760   2.464   1.554
  556SOL    HW2 1677   0.756   2.412   1.399
  557SOL     OW 1678   1.394   2.331   1.674
  557SOL    HW1 1679   1.374   2.374   1.762
  557SOL    HW2 1680   1.472   2.269   1.683
  558SOL     OW 1681   0.973   2.752   1.572
  558SOL    HW1 1682   1.019   2.668   1.543
  558SOL    HW2 1683   0.917   2.786   1.497
  559SOL     OW 1684   0.991   2.272   1.242
  559SOL    HW1 1685   0.914   2.306   1.296
  559SOL    HW2 1686   0.957   2.221   1.163
  560SOL     OW 1687   1.041   2.563   0.429
  560SOL    HW1 1688   1.067   2.559   0.525
  560SOL    HW2 1689   0.956   2.512   0.415
  561SOL     OW 1690   0.076   2.673   0.789
  561SOL    HW1 1691   0.175   2.661   0.798
  561SOL    HW2 1692   0.052   2.768   0.810
  562SOL     OW 1693   0.130   3.683   1.571
  562SOL    HW1 1694   0.120   3.668   1.670
  562SOL    HW2 1695   0.044   3.719   1.535
  563SOL     OW 1696   0.865   2.210   0.195
  563SOL    HW1 1697   0.924   2.273   0.146
  563SOL    HW2 1698   0.884   2.116   0.166
  564SOL     OW 1699   1.719   2.447   1.831
  564SOL    HW1 1700   1.693   2.536   1.795
  564SOL    HW2 1701   1.717   2.379   1.758
  565SOL     OW 1702   1.362   3.006   0.545
  565SOL    HW1 1703   1.445   2.977   0.497
  565SOL    HW2 1704   1.313   3.073   0.489
  566SOL     OW 1705   0.550   2.058   0.885
  566SOL    HW1 1706   0.545   2.053   0.985
  566SOL    HW2 1707   0.552   2.154   0.856
  567SOL     OW 1708   1.008   3.318   0.477
  567SOL    HW1 1709   0.962   3.390   0.425
  567SOL    HW2 1710   1.004   3.338   0.575
  568SOL     OW 1711   0.351   3.663   0.853
  568SOL    HW1 1712   0.401   3.577   0.859
  568SOL    HW2 1713   0.416   3.740   0.850
  569SOL     OW 1714   1.795   2.928   0.873
  569SOL    HW1 1715   1.733   2.913   0.797
  569SOL    HW2 1716   1.743   2.939   0.958
  570SOL     OW 1717   1.227   3.412   1.506
  570SOL    HW1 1718   1.233   3.335   1.570
  570SOL    HW2 1719   1.175   3.386   1.426
  571SOL     OW 1720   0.321   2.805   0.242
  571SOL    HW1 1721   0.403   2.844   0.200
  571SOL    HW2 1722   0.294   2.723   0.193
  572SOL     OW 1723   1.458   2.597   0.728
  572SOL    HW1 1724   1.453   2.532   0.803
  572SOL    HW2 1725   1.538   2.656   0.741
  573SOL     OW 1726   0.461   3.128   1.727
  573SOL    HW1 1727   0.411   3.129   1.641
  573SOL    HW2 1728   0.398   3.110   1.803
  574SOL     OW 1729   1.111   3.638   0.237
  574SOL    HW1 1730   1.051   3.576   0.287
  574SOL    HW2 1731   1.142   3.594   0.152
  575SOL     OW 1732   0.202   2.147   1.498
  575SOL    HW1 1733   0.122   2.207   1.485
  575SOL    HW2 1734   0.192   2.098   1.584
  576SOL     OW 1735   1.632   3.239   0.081
  576SOL    HW1 1736   1.600   3.333   0.071
  576SOL    HW2 1737   1.556   3.176   0.069
  577SOL     OW 1738   0.464   3.605   0.323
  577SOL    HW1 1739   0.497   3.644   0.409
  577SOL    HW2 1740   0.540   3.598   0.258
  578SOL     OW 1741   1.400   1.969   0.426
  578SOL    HW1 1742   1.376   1.932   0.336
  578SOL    HW2 1743   1.499   1.985   0.430
  579SOL     OW 1744   0.249   3.647   1.241
  579SOL    HW1 1745   0.306   3.582   1.291
  579SOL    HW2 1746   0.233   3.614   1.148
  580SOL     OW 1747   0.940   3.560   0.904
  580SOL    HW1 1748   1.020   3.503   0.925
  580SOL    HW2 1749   0.891   3.520   0.827
  581SOL     OW 1750   0.382   2.562   0.480
  581SOL    HW1 1751   0.427   2.472   0.477
  581SOL    HW2 1752   0.288   2.551   0.513
  582SOL     OW 1753   1.547   2.084   1.729
  582SOL    HW1 1754   1.542   2.121   1.821
  582SOL    HW2 1755   1.475   2.015   1.717
  583SOL     OW 1756   0.781   2.126   1.749
  583SOL    HW1 1757   0.848   2.065   1.792
  583SOL    HW2 1758   0.708   2.145   1.814
  584SOL     OW 1759   0.888   3.376   1.195
  584SOL    HW1 1760   0.865   3.351   1.101
  584SOL    HW2 1761   0.949   3.307   1.234
  585SOL     OW 1762   1.351   2.452   1.433
  585SOL    HW1 1763   1.379   2.409   1.518
  585SOL    HW2 1764   1.376   2.548   1.434
  586SOL     OW 1765   0.803   3.264   0.924
  586SOL    HW1 1766   0.893   3.278   0.882
  586SOL    HW2 1767   0.732   3.266   0.853
  587SOL     OW 1768   0.922   2.365   0.899
  587SOL    HW1 1769   0.897   2.356   0.803
  587SOL    HW2 1770   0.970   2.283   0.930
  588SOL     OW 1771   0.539   1.926   0.512
  588SOL    HW1 1772   0.458   1.927   0.570
  588SOL    HW2 1773   0.542   2.009   0.457
  589SOL     OW 1774   1.434   3.050   0.041
  589SOL    HW1 1775   1.466   2.974   0.098
  589SOL    HW2 1776   1.342   3.077   0.071
  590SOL     OW 1777   0.297   1.897   0.171
  590SOL    HW1 1778   0.346   1.981   0.150
  590SOL    HW2 1779   0.359   1.832   0.216
  591SOL     OW 1780   0.935   2.098   0.480
  591SOL    HW1 1781   0.887   2.139   0.402
  591SOL    HW2 1782   1.034   2.096   0.461
  592SOL     OW 1783   1.076   2.545   1.464
  592SOL    HW1 1784   0.996   2.484   1.467
  592SOL    HW2 1785   1.157   2.492   1.440
  593SOL     OW 1786   1.227   3.432   0.793
  593SOL    HW1 1787   1.248   3.506   0.728
  593SOL    HW2 1788   1.295   3.432   0.866
  594SOL     OW 1789   0.459   3.014   0.741
  594SOL    HW1 1790   0.388   2.987   0.806
  594SOL    HW2 1791   0.433   2.986   0.648
  595SOL     OW 1792   1.271   3.659   0.591
  595SOL    HW1 1793   1.315   3.723   0.527
  595SOL    HW2 1794   1.221   3.711   0.661
  596SOL     OW 1795   1.032   2.411   0.016
  596SOL    HW1 1796   0.991   2.493  -0.023
  596SOL    HW2 1797   1.096   2.437   0.089
  597SOL     OW 1798   0.078   2.418   1.386
  597SOL    HW1 1799   0.170   2.417   1.345
  597SOL    HW2 1800   0.072   2.492   1.453
  598SOL     OW 1801   0.561   2.084   1.147
  598SOL    HW1 1802   0.599   2.000   1.184
  598SOL    HW2 1803   0.473   2.103   1.191
  599SOL     OW 1804   0.866   2.316   0.642
  599SOL    HW1 1805   0.834   2.388   0.580
  599SOL    HW2 1806   0.890   2.235   0.589
  600SOL     OW 1807   1.017   1.901   0.753
  600SOL    HW1 1808   0.945   1.906   0.684
  600SOL    HW2 1809   0.993   1.832   0.822
  601SOL     OW 1810   1.429   3.035   0.867
  601SOL    HW1 1811   1.374   2.951   0.860
  601SOL    HW2 1812   1.455   3.064   0.775
  602SOL     OW 1813   1.466   2.452   0.992
  602SOL    HW1 1814   1.436   2.357   0.999
  602SOL    HW2 1815   1.539   2.468   1.058
  603SOL     OW 1816   1.857   2.695   0.377
  603SOL    HW1 1817   1.899   2.631   0.441
  603SOL    HW2 1818   1.819   2.644   0.299
  604SOL     OW 1819   0.488   3.247   0.174
  604SOL    HW1 1820   0.401   3.232   0.221
  604SOL    HW2 1821   0.471   3.273   0.079
  605SOL     OW 1822   1.664   3.142   0.657
  605SOL    HW1 1823   1.763   3.150   0.671
  605SOL    HW2 1824   1.619   3.226   0.688
  606SOL     OW 1825   1.390   2.437   0.078
  606SOL    HW1 1826   1.336   2.416   0.159
  606SOL    HW2 1827   1.481   2.396   0.087
  607SOL     OW 1828   0.527   2.118   0.328
  607SOL    HW1 1829   0.554   2.059   0.253
  607SOL    HW2 1830   0.527   2.213   0.297
  608SOL     OW 1831   1.754   3.085   1.588
  608SOL    HW1 1832   1.845   3.046   1.575
  608SOL    HW2 1833   1.762   3.181   1.612
  609SOL     OW 1834   1.064   3.209   1.340
  609SOL    HW1 1835   0.984   3.186   1.395
  609SOL    HW2 1836   1.147   3.183   1.389
  610SOL     OW 1837   1.592   3.491   1.625
  610SOL    HW1 1838   1.619   3.525   1.535
  610SOL    HW2 1839   1.671   3.453   1.671
  611SOL     OW 1840   1.111   3.057   1.100
  611SOL    HW1 1841   1.071   3.101   1.181
  611SOL    HW2 1842   1.070   3.094   1.017
  612SOL     OW 1843   1.638   2.961   1.079
  612SOL    HW1 1844   1.643   3.042   1.138
  612SOL    HW2 1845   1.552   2.963   1.028
  613SOL     OW 1846   0.915   1.951   1.402
  613SOL    HW1 1847   0.940   1.931   1.307
  613SOL    HW2 1848   0.987   2.007   1.444
  614SOL     OW 1849   0.980   2.978   1.719
  614SOL    HW1 1850   0.881   2.984   1.729
  614SOL    HW2 1851   1.003   2.898   1.663
  615SOL     OW 1852   0.705   2.912   0.368
  615SOL    HW1 1853   0.691   2.919   0.467
  615SOL    HW2 1854   0.789   2.861   0.350
  616SOL     OW 1855   0.410   2.675   1.251
  616SOL    HW1 1856   0.496   2.687   1.301
  616SOL    HW2 1857   0.368   2.588   1.278
  617SOL     OW 1858   1.274   2.248   1.262
  617SOL    HW1 1859   1.295   2.322   1.326
  617SOL    HW2 1860   1.185   2.265   1.219
  618SOL     OW 1861   0.064   3.426   1.331
  618SOL    HW1 1862   0.018   3.508   1.297
  618SOL    HW2 1863   0.162   3.445   1.340
  619SOL     OW 1864   0.367   2.962   0.501
  619SOL    HW1 1865   0.360   3.045   0.445
  619SOL    HW2 1866   0.371   2.882   0.441
  620SOL     OW 1867   0.566   2.399   0.865
  620SOL    HW1 1868   0.578   2.465   0.791
  620SOL    HW2 1869   0.612   2.433   0.948
  621SOL     OW 1870   1.252   3.210   0.388
  621SOL    HW1 1871   1.302   3.287   0.428
  621SOL    HW2 1872   1.157   3.212   0.420
  622SOL     OW 1873   1.272   3.307   1.142
  622SOL    HW1 1874   1.319   3.320   1.229
  622SOL    HW2 1875   1.206   3.233   1.151
  623SOL     OW 1876   1.582   2.501   0.472
  623SOL    HW1 1877   1.551   2.562   0.545
  623SOL    HW2 1878   1.632   2.553   0.403
  624SOL     OW 1879   0.354   3.372   1.329
  624SOL    HW1 1880   0.333   3.328   1.242
  624SOL    HW2 1881   0.451   3.398   1.332
  625SOL     OW 1882   0.402   2.613   1.598
  625SOL    HW1 1883   0.470   2.668   1.551
  625SOL    HW2 1884   0.442   2.525   1.625
  626SOL     OW 1885   1.587   2.641   1.670
  626SOL    HW1 1886   1.495   2.679   1.665
  626SOL    HW2 1887   1.647   2.688   1.605
  627SOL     OW 1888   1.013   1.967   1.770
  627SOL    HW1 1889   1.019   2.052   1.718
  627SOL    HW2 1890   1.045   1.891   1.713
  628SOL     OW 1891   0.504   1.912   1.740
  628SOL    HW1 1892   0.462   1.855   1.670
  628SOL    HW2 1893   0.438   1.981   1.772
  629SOL     OW 1894   0.573   2.732   1.029
  629SOL    HW1 1895   0.617   2.821   1.020
  629SOL    HW2 1896   0.510   2.732   1.106
  630SOL     OW 1897   1.360   2.724   1.045
  630SOL    HW1 1898   1.285   2.724   0.979
  630SOL    HW2 1899   1.397   2.632   1.054
  631SOL     OW 1900   1.209   2.387   0.275
  631SOL    HW1 1901   1.222   2.303   0.329
  631SOL    HW2 1902   1.180   2.461   0.335
  632SOL     OW 1903   0.307   2.075   1.231
  632SOL    HW1 1904   0.284   2.112   1.321
  632SOL    HW2 1905   0.277   1.980   1.225
  633SOL     OW 1906   0.037   3.172   1.282
  633SOL    HW1 1907   0.090   3.123   1.350
  633SOL    HW2 1908   0.059   3.270   1.287
  634SOL     OW 1909   0.732   2.496   1.064
  634SOL    HW1 1910   0.791   2.470   0.988
  634SOL    HW2 1911   0.704   2.592   1.053
  635SOL     OW 1912   1.728   2.797   1.854
  635SOL    HW1 1913   1.682   2.790   1.765
  635SOL    HW2 1914   1.666   2.841   1.920
  636SOL     OW 1915   0.307   1.925   0.618
  636SOL    HW1 1916   0.296   2.019   0.651
  636SOL    HW2 1917   0.302   1.862   0.695
  637SOL     OW 1918   1.622   2.229   0.374
  637SOL    HW1 1919   1.624   2.153   0.438
  637SOL    HW2 1920   1.574   2.306   0.414
  638SOL     OW 1921   1.023   2.628   0.966
  638SOL    HW1 1922   1.038   2.649   1.062
  638SOL    HW2 1923   0.993   2.533   0.957
  639SOL     OW 1924   0.980   3.435   1.700
  639SOL    HW1 1925   0.960   3.479   1.612
  639SOL    HW2 1926   1.019   3.344   1.684
  640SOL     OW 1927   1.859   3.380   1.605
  640SOL    HW1 1928   1.873   3.407   1.510
  640SOL    HW2 1929   1.942   3.402   1.658
  641SOL     OW 1930   0.350   2.760   1.804
  641SOL    HW1 1931   0.426   2.804   1.852
  641SOL    HW2 1932   0.385   2.713   1.722
  642SOL     OW 1933   1.540   2.136   0.125
  642SOL    HW1 1934   1.479   2.061   0.148
  642SOL    HW2 1935   1.562   2.188   0.208
  643SOL     OW 1936   1.303   2.700   0.042
  643SOL    HW1 1937   1.337   2.607   0.057
  643SOL    HW2 1938   1.321   2.727  -0.053
  644SOL     OW 1939   1.068   3.195   0.849
  644SOL    HW1 1940   1.075   3.111   0.794
  644SOL    HW2 1941   1.130   3.264   0.813
  645SOL     OW 1942   0.319   2.672   0.949
  645SOL    HW1 1943   0.412   2.708   0.954
  645SOL    HW2 1944   0.313   2.587   1.001
  646SOL     OW 1945   0.339   2.371   1.006
  646SOL    HW1 1946   0.287   2.288   0.989
  646SOL    HW2 1947   0.416   2.376   0.942
  647SOL     OW 1948   1.138   2.242   1.678
  647SOL    HW1 1949   1.093   2.305   1.742
  647SOL    HW2 1950   1.231   2.273   1.661
  648SOL     OW 1951   1.160   2.069   1.477
  648SOL    HW1 1952   1.160   2.133   1.554
  648SOL    HW2 1953   1.188   2.117   1.394
  649SOL     OW 1954   0.008   3.188   0.200
  649SOL    HW1 1955  -0.085   3.209   0.169
  649SOL    HW2 1956   0.018   3.089   0.213
  650SOL     OW 1957   0.088   3.663   0.927
  650SOL    HW1 1958   0.046   3.577   0.900
  650SOL    HW2 1959   0.182   3.666   0.893
  651SOL     OW 1960   0.504   3.430   0.910
  651SOL    HW1 1961   0.570   3.504   0.919
  651SOL    HW2 1962   0.548   3.351   0.868
  652SOL     OW 1963   1.002   2.658   1.238
  652SOL    HW1 1964   1.043   2.626   1.324
  652SOL    HW2 1965   0.906   2.631   1.235
  653SOL     OW 1966   0.040   2.406   1.114
  653SOL    HW1 1967   0.125   2.373   1.073
  653SOL    HW2 1968   0.053   2.421   1.212
  654SOL     OW 1969   0.189   2.382   1.722
  654SOL    HW1 1970   0.248   2.342   1.652
  654SOL    HW2 1971   0.131   2.453   1.681
  655SOL     OW 1972   1.369   2.812   1.660
  655SOL    HW1 1973   1.408   2.901   1.680
  655SOL    HW2 1974   1.379   2.792   1.563
  656SOL     OW 1975   0.815   2.434   0.325
  656SOL    HW1 1976   0.822   2.345   0.279
  656SOL    HW2 1977   0.721   2.468   0.317
  657SOL     OW 1978   1.657   2.466   1.206
  657SOL    HW1 1979   1.619   2.397   1.268
  657SOL    HW2 1980   1.739   2.430   1.162
  658SOL     OW 1981   0.252   3.426   1.744
  658SOL    HW1 1982   0.222   3.483   1.820
  658SOL    HW2 1983   0.245   3.329   1.770
  659SOL     OW 1984   0.671   2.326   1.269
  659SOL    HW1 1985   0.637   2.237   1.239
  659SOL    HW2 1986   0.697   2.380   1.189
  660SOL     OW 1987   0.930   3.540   1.465
  660SOL    HW1 1988   0.906   3.522   1.370
  660SOL    HW2 1989   0.960   3.634   1.475
  661SOL     OW 1990   0.473   2.362   0.191
  661SOL    HW1 1991   0.534   2.442   0.195
  661SOL    HW2 1992   0.378   2.393   0.198
  662SOL     OW 1993   0.159   2.999   1.466
  662SOL    HW1 1994   0.181   2.938   1.542
  662SOL    HW2 1995   0.169   2.950   1.380
  663SOL     OW 1996   1.347   2.921   1.234
  663SOL    HW1 1997   1.371   2.858   1.160
  663SOL    HW2 1998   1.257   2.961   1.216
  664SOL     OW 1999   1.302   2.717   0.309
  664SOL    HW1 2000   1.216   2.686   0.351
  664SOL    HW2 2001   1.298   2.703   0.210
  665SOL     OW 2002   1.759   3.609   1.154
  665SOL    HW1 2003   1.820   3.639   1.081
  665SOL    HW2 2004   1.721   3.520   1.132
  666SOL     OW 2005   1.252   3.593   1.128
  666SOL    HW1 2006   1.336   3.598   1.074
  666SOL    HW2 2007   1.229   3.497   1.146
  667SOL     OW 2008   0.083   3.120   1.022
  667SOL    HW1 2009   0.078   3.119   1.122
  667SOL    HW2 2010   0.000   3.079   0.984
  668SOL     OW 2011   0.688   3.524   1.716
  668SOL    HW1 2012   0.632   3.605   1.725
  668SOL    HW2 2013   0.740   3.528   1.630
  669SOL     OW 2014   0.903   1.948   0.133
  669SOL    HW1 2015   0.954   1.949   0.047
  669SOL    HW2 2016   0.959   1.906   0.204
  670SOL     OW 2017   1.726   1.997   0.523
  670SOL    HW1 2018   1.799   1.980   0.456
  670SOL    HW2 2019   1.695   1.910   0.561
  671SOL     OW 2020   1.388   3.435   0.477
  671SOL    HW1 2021   1.455   3.447   0.403
  671SOL    HW2 2022   1.348   3.524   0.500
  672SOL     OW 2023   0.130   3.656   1.851
  672SOL    HW1 2024   0.089   3.582   1.904
  672SOL    HW2 2025   0.194   3.707   1.909
  673SOL     OW 2026   1.280   2.789   0.672
  673SOL    HW1 2027   1.340   2.708   0.674
  673SOL    HW2 2028   1.320   2.858   0.612
  674SOL     OW 2029   0.830   3.135   1.422
  674SOL    HW1 2030   0.825   3.168   1.517
  674SOL    HW2 2031   0.744   3.154   1.376
  675SOL     OW 2032   0.672   3.478   0.154
  675SOL    HW1 2033   0.681   3.488   0.055
  675SOL    HW2 2034   0.632   3.389   0.175
  676SOL     OW 2035   1.650   3.582   1.394
  676SOL    HW1 2036   1.703   3.592   1.310
  676SOL    HW2 2037   1.623   3.672   1.428
  677SOL     OW 2038   1.841   2.037   0.963
  677SOL    HW1 2039   1.880   1.952   0.927
  677SOL    HW2 2040   1.743   2.039   0.944
  678SOL     OW 2041   0.263   2.188   0.720
  678SOL    HW1 2042   0.184   2.239   0.686
  678SOL    HW2 2043   0.254   2.173   0.818
  679SOL     OW 2044   1.194   3.474   0.031
  679SOL    HW1 2045   1.200   3.381   0.068
  679SOL    HW2 2046   1.135   3.474  -0.049
  680SOL     OW 2047   0.822   2.864   1.372
  680SOL    HW1 2048   0.862   2.863   1.280
  680SOL    HW2 2049   0.832   2.956   1.412
  681SOL     OW 2050   0.916   2.772   0.291
  681SOL    HW1 2051   0.979   2.810   0.223
  681SOL    HW2 2052   0.956   2.689   0.330
  682SOL     OW 2053   1.504   3.469   0.044
  682SOL    HW1 2054   1.412   3.506   0.051
  682SOL    HW2 2055   1.542   3.489  -0.046
  683SOL     OW 2056   0.372   3.150   1.490
  683SOL    HW1 2057   0.359   3.243   1.456
  683SOL    HW2 2058   0.288   3.098   1.477
  684SOL     OW 2059   1.614   3.154   1.289
  684SOL    HW1 2060   1.674   3.157   1.369
  684SOL    HW2 2061   1.539   3.218   1.302
  685SOL     OW 2062   1.039   2.960   0.696
  685SOL    HW1 2063   0.969   2.913   0.750
  685SOL    HW2 2064   1.098   2.892   0.653
  686SOL     OW 2065   1.014   2.098   0.971
  686SOL    HW1 2066   1.006   2.062   0.878
  686SOL    HW2 2067   1.012   2.022   1.036
  687SOL     OW 2068   0.590   3.349   0.491
  687SOL    HW1 2069   0.632   3.291   0.421
  687SOL    HW2 2070   0.546   3.428   0.447
  688SOL     OW 2071   1.709   2.247   1.381
  688SOL    HW1 2072   1.782   2.316   1.385
  688SOL    HW2 2073   1.737   2.172   1.322
  689SOL     OW 2074   0.255   3.210   0.290
  689SOL    HW1 2075   0.159   3.211   0.263
  689SOL    HW2 2076   0.267   3.263   0.374
  690SOL     OW 2077   0.105   2.875   1.726
  690SOL    HW1 2078   0.028   2.842   1.780
  690SOL    HW2 2079   0.190   2.845   1.768
  691SOL     OW 2080   0.672   2.065   1.489
  691SOL    HW1 2081   0.762   2.049   1.449
  691SOL    HW2 2082   0.680   2.070   1.588
  692SOL     OW 2083   0.075   2.207   0.033
  692SOL    HW1 2084  -0.017   2.179   0.004
  692SOL    HW2 2085   0.106   2.284  -0.023
  693SOL     OW 2086   1.440   2.718   1.398
  693SOL    HW1 2087   1.383   2.770   1.335
  693SOL    HW2 2088   1.536   2.730   1.374
  694SOL     OW 2089   0.072   2.028   0.318
  694SOL    HW1 2090   0.055   2.111   0.264
  694SOL    HW2 2091   0.162   1.991   0.296
  695SOL     OW 2092   1.183   3.197   0.119
  695SOL    HW1 2093   1.084   3.186   0.121
  695SOL    HW2 2094   1.217   3.212   0.212
  696SOL     OW 2095   0.613   2.704   1.431
  696SOL    HW1 2096   0.669   2.785   1.414
  696SOL    HW2 2097   0.672   2.624   1.434
  697SOL     OW 2098   1.493   3.629   0.959
  697SOL    HW1 2099   1.526   3.693   0.890
  697SOL    HW2 2100   1.559   3.623   1.034
  698SOL     OW 2101   0.716   2.427   1.708
  698SOL    HW1 2102   0.735   2.492   1.782
  698SOL    HW2 2103   0.776   2.347   1.717
  699SOL     OW 2104   1.450   3.082   1.633
  699SOL    HW1 2105   1.441   3.072   1.732
  699SOL    HW2 2106   1.546   3.075   1.607
  700SOL     OW 2107   0.390   3.603   1.560
  700SOL    HW1 2108   0.299   3.644   1.558
  700SOL    HW2 2109   0.383   3.509   1.592
  701SOL     OW 2110   1.674   2.745   1.254
  701SOL    HW1 2111   1.647   2.656   1.217
  701SOL    HW2 2112   1.675   2.813   1.181
  702SOL     OW 2113   1.225   2.187   0.449
  702SOL    HW1 2114   1.290   2.113   0.438
  702SOL    HW2 2115   1.245   2.237   0.533
  703SOL     OW 2116   0.594   2.607   0.652
  703SOL    HW1 2117   0.644   2.692   0.633
  703SOL    HW2 2118   0.506   2.609   0.604
  704SOL     OW 2119   1.777   2.204   1.642
  704SOL    HW1 2120   1.760   2.235   1.548
  704SOL    HW2 2121   1.693   2.167   1.680
  705SOL     OW 2122   1.730   2.796   1.517
  705SOL    HW1 2123   1.768   2.887   1.532
  705SOL    HW2 2124   1.722   2.779   1.418
  706SOL     OW 2125   0.859   3.236   0.016
  706SOL    HW1 2126   0.813   3.251   0.104
  706SOL    HW2 2127   0.903   3.321  -0.014
  707SOL     OW 2128   0.661   3.652   0.953
  707SOL    HW1 2129   0.615   3.740   0.940
  707SOL    HW2 2130   0.760   3.664   0.946
  708SOL     OW 2131   0.859   2.818   0.861
  708SOL    HW1 2132   0.913   2.749   0.909
  708SOL    HW2 2133   0.827   2.887   0.927
  709SOL     OW 2134   1.083   2.846   0.087
  709SOL    HW1 2135   1.060   2.899   0.005
  709SOL    HW2 2136   1.164   2.790   0.068
  710SOL     OW 2137   1.861   3.431   0.851
  710SOL    HW1 2138   1.790   3.419   0.781
  710SOL    HW2 2139   1.862   3.352   0.911
  711SOL     OW 2140   0.221   3.176   1.844
  711SOL    HW1 2141   0.156   3.103   1.823
  711SOL    HW2 2142   0.225   3.190   1.942
  712SOL     OW 2143   0.079   3.102   0.653
  712SOL    HW1 2144   0.078   3.055   0.741
  712SOL    HW2 2145   0.161   3.074   0.602
  713SOL     OW 2146   0.672   3.253   1.624
  713SOL    HW1 2147   0.594   3.203   1.662
  713SOL    HW2 2148   0.669   3.348   1.655
  714SOL     OW 2149   1.824   2.054   1.227
  714SOL    HW1 2150   1.820   1.964   1.271
  714SOL    HW2 2151   1.827   2.043   1.128
  715SOL     OW 2152   0.428   2.286   0.520
  715SOL    HW1 2153   0.458   2.214   0.458
  715SOL    HW2 2154   0.389   2.246   0.603
  716SOL     OW 2155   1.705   3.349   1.104
  716SOL    HW1 2156   1.612   3.324   1.077
  716SOL    HW2 2157   1.731   3.299   1.186
  717SOL     OW 2158   0.317   2.409   1.280
  717SOL    HW1 2159   0.355   2.350   1.352
  717SOL    HW2 2160   0.357   2.383   1.192
  718SOL     OW 2161   0.812   3.448   0.687
  718SOL    HW1 2162   0.844   3.458   0.593
  718SOL    HW2 2163   0.733   3.386   0.689
  719SOL     OW 2164   1.424   2.076   1.112
  719SOL    HW1 2165   1.476   2.011   1.167
  719SOL    HW2 2166   1.375   2.139   1.173
  720SOL     OW 2167   1.001   1.896   1.154
  720SOL    HW1 2168   0.938   1.824   1.123
  720SOL    HW2 2169   1.094   1.860   1.154
  721SOL     OW 2170   0.770   3.192   0.301
  721SOL    HW1 2171   0.724   3.105   0.318
  721SOL    HW2 2172   0.861   3.189   0.342
  722SOL     OW 2173   0.618   3.429   1.284
  722SOL    HW1 2174   0.613   3.511   1.341
  722SOL    HW2 2175   0.707   3.426   1.239
  723SOL     OW 2176   1.352   1.914   0.168
  723SOL    HW1 2177   1.387   1.873   0.084
  723SOL    HW2 2178   1.262   1.876   0.188
  724SOL     OW 2179   1.300   2.315   0.691
  724SOL    HW1 2180   1.241   2.395   0.695
  724SOL    HW2 2181   1.315   2.280   0.784
  725SOL     OW 2182   1.593   2.083   0.882
  725SOL    HW1 2183   1.509   2.082   0.936
  725SOL    HW2 2184   1.595   2.166   0.826
  726SOL     OW 2185   0.039   2.939   0.300
  726SOL    HW1 2186   0.138   2.928   0.291
  726SOL    HW2 2187  -0.001   2.853   0.332
  727SOL     OW 2188   0.875   3.508   0.337
  727SOL    HW1 2189   0.798   3.473   0.283
  727SOL    HW2 2190   0.843   3.579   0.399
  728SOL     OW 2191   0.230   2.490   1.975
  728SOL    HW1 2192   0.137   2.488   2.012
  728SOL    HW2 2193   0.231   2.451   1.883
  729SOL     OW 2194   0.225   2.137   2.858
  729SOL    HW1 2195   0.260   2.120   2.950
  729SOL    HW2 2196   0.137   2.092   2.846
  730SOL     OW 2197   0.019   2.230   2.509
  730SOL    HW1 2198  -0.063   2.273   2.548
  730SOL    HW2 2199  -0.009   2.157   2.446
  731SOL     OW 2200   0.569   3.137   3.027
  731SOL    HW1 2201   0.476   3.130   2.990
  731SOL    HW2 2202   0.580   3.226   3.071
  732SOL     OW 2203   1.555   3.373   2.565
  732SOL    HW1 2204   1.498   3.357   2.646
  732SOL    HW2 2205   1.496   3.383   2.485
  733SOL     OW 2206   1.135   2.565   2.579
  733SOL    HW1 2207   1.192   2.643   2.554
  733SOL    HW2 2208   1.075   2.591   2.655
  734SOL     OW 2209   1.755   2.469   2.093
  734SOL    HW1 2210   1.743   2.456   1.994
  734SOL    HW2 2211   1.725   2.388   2.142
  735SOL     OW 2212   0.768   3.006   2.885
  735SOL    HW1 2213   0.690   3.023   2.945
  735SOL    HW2 2214   0.802   3.093   2.849
  736SOL     OW 2215   0.850   2.660   3.685
  736SOL    HW1 2216   0.846   2.736   3.750
  736SOL    HW2 2217   0.872   2.696   3.594
  737SOL     OW 2218   0.685   2.874   2.527
  737SOL    HW1 2219   0.754   2.858   2.597
  737SOL    HW2 2220   0.612   2.931   2.565
  738SOL     OW 2221   0.686   3.023   3.665
  738SOL    HW1 2222   0.746   3.102   3.679
  738SOL    HW2 2223   0.600   3.054   3.624
  739SOL     OW 2224   0.335   3.297   2.923
  739SOL    HW1 2225   0.257   3.266   2.870
  739SOL    HW2 2226   0.393   3.355   2.866
  740SOL     OW 2227   1.460   3.367   3.201
  740SOL    HW1 2228   1.484   3.461   3.227
  740SOL    HW2 2229   1.444   3.313   3.283
  741SOL     OW 2230   0.438   2.254   3.361
  741SOL    HW1 2231   0.520   2.198   3.370
  741SOL    HW2 2232   0.357   2.196   3.365
  742SOL     OW 2233   1.603   2.309   2.599
  742SOL    HW1 2234   1.529   2.355   2.549
  742SOL    HW2 2235   1.654   2.377   2.652
  743SOL     OW 2236   0.231   3.575   2.345
  743SOL    HW1 2237   0.265   3.652   2.399
  743SOL    HW2 2238   0.275   3.575   2.255
  744SOL     OW 2239   1.127   3.203   3.552
  744SOL    HW1 2240   1.174   3.203   3.640
  744SOL    HW2 2241   1.079   3.116   3.541
  745SOL     OW 2242   0.230   3.296   2.400
  745SOL    HW1 2243   0.204   3.392   2.400
  745SOL    HW2 2244   0.159   3.242   2.445
  746SOL     OW 2245   0.240   2.953   2.748
  746SOL    HW1 2246   0.254   2.869   2.800
  746SOL    HW2 2247   0.185   3.017   2.803
  747SOL     OW 2248   0.620   3.648   3.301
  747SOL    HW1 2249   0.528   3.631   3.336
  747SOL    HW2 2250   0.648   3.740   3.327
  748SOL     OW 2251   0.606   2.826   1.985
  748SOL    HW1 2252   0.613   2.910   1.931
  748SOL    HW2 2253   0.652   2.839   2.073
  749SOL     OW 2254   1.594   1.976   3.342
  749SOL    HW1 2255   1.576   2.043   3.270
  749SOL    HW2 2256   1.591   2.022   3.431
  750SOL     OW 2257   0.122   2.505   2.425
  750SOL    HW1 2258   0.077   2.417   2.442
  750SOL    HW2 2259   0.121   2.559   2.509
  751SOL     OW 2260   1.842   3.629   2.221
  751SOL    HW1 2261   1.896   3.600   2.301
  751SOL    HW2 2262   1.872   3.719   2.192
  752SOL     OW 2263   0.027   3.458   1.979
  752SOL    HW1 2264   0.008   3.362   2.000
  752SOL    HW2 2265  -0.006   3.516   2.054
  753SOL     OW 2266   1.689   2.784   2.474
  753SOL    HW1 2267   1.784   2.755   2.482
  753SOL    HW2 2268   1.681   2.849   2.399
  754SOL     OW 2269   1.641   2.970   2.294
  754SOL    HW1 2270   1.727   2.972   2.242
  754SOL    HW2 2271   1.655   3.017   2.382
  755SOL     OW 2272   0.113   2.599   3.459
  755SOL    HW1 2273   0.201   2.586   3.504
  755SOL    HW2 2274   0.100   2.696   3.437
  756SOL     OW 2275   0.613   3.227   2.588
  756SOL    HW1 2276   0.564   3.140   2.597
  756SOL    HW2 2277   0.590   3.270   2.501
  757SOL     OW 2278   1.293   3.090   3.285
  757SOL    HW1 2279   1.330   3.017   3.227
  757SOL    HW2 2280   1.345   3.095   3.370
  758SOL     OW 2281   0.809   1.866   2.364
  758SOL    HW1 2282   0.849   1.957   2.355
  758SOL    HW2 2283   0.709   1.874   2.370
  759SOL     OW 2284   0.197   2.838   3.126
  759SOL    HW1 2285   0.286   2.793   3.112
  759SOL    HW2 2286   0.124   2.773   3.107
  760SOL     OW 2287   1.525   2.861   2.052
  760SOL    HW1 2288   1.462   2.785   2.065
  760SOL    HW2 2289   1.573   2.879   2.138
  761SOL     OW 2290   1.187   3.654   3.478
  761SOL    HW1 2291   1.211   3.714   3.402
  761SOL    HW2 2292   1.194   3.559   3.448
  762SOL     OW 2293   0.317   2.113   3.663
  762SOL    HW1 2294   0.388   2.184   3.669
  762SOL    HW2 2295   0.229   2.152   3.691
  763SOL     OW 2296   1.466   3.279   2.815
  763SOL    HW1 2297   1.407   3.285   2.895
  763SOL    HW2 2298   1.451   3.191   2.769
  764SOL     OW 2299   1.667   3.576   2.434
  764SOL    HW1 2300   1.626   3.553   2.346
  764SOL    HW2 2301   1.649   3.502   2.499
  765SOL     OW 2302   0.598   2.591   2.132
  765SOL    HW1 2303   0.622   2.660   2.064
  765SOL    HW2 2304   0.520   2.624   2.186
  766SOL     OW 2305   1.281   2.207   2.806
  766SOL    HW1 2306   1.195   2.157   2.793
  766SOL    HW2 2307   1.343   2.153   2.862
  767SOL     OW 2308   1.576   3.524   2.169
  767SOL    HW1 2309   1.665   3.570   2.172
  767SOL    HW2 2310   1.555   3.500   2.074
  768SOL     OW 2311   0.807   2.467   3.327
  768SOL    HW1 2312   0.760   2.464   3.416
  768SOL    HW2 2313   0.756   2.412   3.261
  769SOL     OW 2314   1.394   2.331   3.536
  769SOL    HW1 2315   1.374   2.374   3.624
  769SOL    HW2 2316   1.472   2.269   3.545
  770SOL     OW 2317   0.973   2.752   3.434
  770SOL    HW1 2318   1.019   2.668   3.405
  770SOL    HW2 2319   0.917   2.786   3.359
  771SOL     OW 2320   0.991   2.272   3.104
  771SOL    HW1 2321   0.914   2.306   3.158
  771SOL    HW2 2322   0.957   2.221   3.025
  772SOL     OW 2323   1.041   2.563   2.291
  772SOL    HW1 2324   1.067   2.559   2.387
  772SOL    HW2 2325   0.956   2.512   2.277
  773SOL     OW 2326   0.076   2.673   2.651
  773SOL    HW1 2327   0.175   2.661   2.660
  773SOL    HW2 2328   0.052   2.768   2.672
  774SOL     OW 2329   0.130   3.683   3.433
  774SOL    HW1 2330   0.120   3.668   3.532
  774SOL    HW2 2331   0.044   3.719   3.397
  775SOL     OW 2332   0.865   2.210   2.057
  775SOL    HW1 2333   0.924   2.273   2.008
  775SOL    HW2 2334   0.884   2.116   2.028
  776SOL     OW 2335   1.719   2.447   3.693
  776SOL    HW1 2336   1.693   2.536   3.657
  776SOL    HW2 2337   1.717   2.379   3.620
  777SOL     OW 2338   1.362   3.006   2.407
  777SOL    HW1 2339   1.445   2.977   2.359
  777SOL    HW2 2340   1.313   3.073   2.351
  778SOL     OW 2341   0.550   2.058   2.747
  778SOL    HW1 2342   0.545   2.053   2.847
  778SOL    HW2 2343   0.552   2.154   2.718
  779SOL     OW 2344   1.008   3.318   2.339
  779SOL    HW1 2345   0.962   3.390   2.287
  779SOL    HW2 2346   1.004   3.338   2.437
  780SOL     OW 2347   0.351   3.663   2.715
  780SOL    HW1 2348   0.401   3.577   2.721
  780SOL    HW2 2349   0.416   3.740   2.712
  781SOL     OW 2350   1.795   2.928   2.735
  781SOL    HW1 2351   1.733   2.913   2.659
  781SOL    HW2 2352   1.743   2.939   2.820
  782SOL     OW 2353   1.227   3.412   3.368
  782SOL    HW1 2354   1.233   3.335   3.432
  782SOL    HW2 2355   1.175   3.386   3.288
  783SOL     OW 2356   0.321   2.805   2.104
  783SOL    HW1 2357   0.403   2.844   2.062
  783SOL    HW2 2358   0.294   2.723   2.055
  784SOL     OW 2359   1.458   2.597   2.590
  784SOL    HW1 2360   1.453   2.532   2.665
  784SOL    HW2 2361   1.538   2.656   2.603
  785SOL     OW 2362   0.461   3.128   3.589
  785SOL    HW1 2363   0.411   3.129   3.503
  785SOL    HW2 2364   0.398   3.110   3.665
  786SOL     OW 2365   1.111   3.638   2.099
  786SOL    HW1 2366   1.051   3.576   2.149
  786SOL    HW2 2367   1.142   3.594   2.014
  787SOL     OW 2368   0.202   2.147   3.360
  787SOL    HW1 2369   0.122   2.207   3.347
  787SOL    HW2 2370   0.192   2.098   3.446
  788SOL     OW 2371   1.632   3.239   1.943
  788SOL    HW1 2372   1.600   3.333   1.933
  788SOL    HW2 2373   1.556   3.176   1.931
  789SOL     OW 2374   0.464   3.605   2.185
  789SOL    HW1 2375   0.497   3.644   2.271
  789SOL    HW2 2376   0.540   3.598   2.120
  790SOL     OW 2377   1.400   1.969   2.288
  790SOL    HW1 2378   1.376   1.932   2.198
  790SOL    HW2 2379   1.499   1.985   2.292
  791SOL     OW 2380   0.249   3.647   3.103
  791SOL    HW1 2381   0.306   3.582   3.153
  791SOL    HW2 2382   0.233   3.614   3.010
  792SOL     OW 2383   0.940   3.560   2.766
  792SOL    HW1 2384   1.020   3.503   2.787
  792SOL    HW2 2385   0.891   3.520   2.689
  793SOL     OW 2386   0.382   2.562   2.342
  793SOL    HW1 2387   0.427   2.472   2.339
  793SOL    HW2 2388   0.288   2.551   2.375
  794SOL     OW 2389   1.547   2.084   3.591
  794SOL    HW1 2390   1.542   2.121   3.683
  794SOL    HW2 2391   1.475   2.015   3.579
  795SOL     OW 2392   0.614   1.984   1.979
  795SOL    HW1 2393   0.712   1.962   1.986
  795SOL    HW2 2394   0.583   1.967   1.886
  796SOL     OW 2395   0.781   2.126   3.611
  796SOL    HW1 2396   0.848   2.065   3.654
  796SOL    HW2 2397   0.708   2.145   3.676
  797SOL     OW 2398   0.888   3.376   3.057
  797SOL    HW1 2399   0.865   3.351   2.963
  797SOL    HW2 2400   0.949   3.307   3.096
  798SOL     OW 2401   1.351   2.452   3.295
  798SOL    HW1 2402   1.379   2.409   3.380
  798SOL    HW2 2403   1.376   2.548   3.296
  799SOL     OW 2404   0.803   3.264   2.786
  799SOL    HW1 2405   0.893   3.278   2.744
  799SOL    HW2 2406   0.732   3.266   2.715
  800SOL     OW 2407   0.922   2.365   2.761
  800SOL    HW1 2408   0.897   2.356   2.665
  800SOL    HW2 2409   0.970   2.283   2.792
  801SOL     OW 2410   0.539   1.926   2.374
  801SOL    HW1 2411   0.458   1.927   2.432
  801SOL    HW2 2412   0.542   2.009   2.319
  802SOL     OW 2413   1.434   3.050   1.903
  802SOL    HW1 2414   1.466   2.974   1.960
  802SOL    HW2 2415   1.342   3.077   1.933
  803SOL     OW 2416   0.297   1.897   2.033
  803SOL    HW1 2417   0.346   1.981   2.012
  803SOL    HW2 2418   0.359   1.832   2.078
  804SOL     OW 2419   0.935   2.098   2.342
  804SOL    HW1 2420   0.887   2.139   2.264
  804SOL    HW2 2421   1.034   2.096   2.323
  805SOL     OW 2422   1.076   2.545   3.326
  805SOL    HW1 2423   0.996   2.484   3.329
  805SOL    HW2 2424   1.157   2.492   3.302
  806SOL     OW 2425   1.227   3.432   2.655
  806SOL    HW1 2426   1.248   3.506   2.590
  806SOL    HW2 2427   1.295   3.432   2.728
  807SOL     OW 2428   0.459   3.014   2.603
  807SOL    HW1 2429   0.388   2.987   2.668
  807SOL    HW2 2430   0.433   2.986   2.510
  808SOL     OW 2431   1.271   3.659   2.453
  808SOL    HW1 2432   1.315   3.723   2.389
  808SOL    HW2 2433   1.221   3.711   2.523
  809SOL     OW 2434   1.032   2.411   1.878
  809SOL    HW1 2435   0.991   2.493   1.839
  809SOL    HW2 2436   1.096   2.437   1.951
  810SOL     OW 2437   0.078   2.418   3.248
  810SOL    HW1 2438   0.170   2.417   3.207
  810SOL    HW2 2439   0.072   2.492   3.315
  811SOL     OW 2440   0.561   2.084   3.009
  811SOL    HW1 2441   0.599   2.000   3.046
  811SOL    HW2 2442   0.473   2.103   3.053
  812SOL     OW 2443   0.866   2.316   2.504
  812SOL    HW1 2444   0.834   2.388   2.442
  812SOL    HW2 2445   0.890   2.235   2.451
  813SOL     OW 2446   1.017   1.901   2.615
  813SOL    HW1 2447   0.945   1.906   2.546
  813SOL    HW2 2448   0.993   1.832   2.684
  814SOL     OW 2449   1.429   3.035   2.729
  814SOL    HW1 2450   1.374   2.951   2.722
  814SOL    HW2 2451   1.455   3.064   2.637
  815SOL     OW 2452   1.466   2.452   2.854
  815SOL    HW1 2453   1.436   2.357   2.861
  815SOL    HW2 2454   1.539   2.468   2.920
  816SOL     OW 2455   1.857   2.695   2.239
  816SOL    HW1 2456   1.899   2.631   2.303
  816SOL    HW2 2457   1.819   2.644   2.161
  817SOL     OW 2458   0.488   3.247   2.036
  817SOL    HW1 2459   0.401   3.232   2.083
  817SOL    HW2 2460   0.471   3.273   1.941
  818SOL     OW 2461   1.664   3.142   2.519
  818SOL    HW1 2462   1.763   3.150   2.533
  818SOL    HW2 2463   1.619   3.226   2.550
  819SOL     OW 2464   1.390   2.437   1.940
  819SOL    HW1 2465   1.336   2.416   2.021
  819SOL    HW2 2466   1.481   2.396   1.949
  820SOL     OW 2467   0.527   2.118   2.190
  820SOL    HW1 2468   0.554   2.059   2.115
  820SOL    HW2 2469   0.527   2.213   2.159
  821SOL     OW 2470   1.754   3.085   3.450
  821SOL    HW1 2471   1.845   3.046   3.437
  821SOL    HW2 2472   1.762   3.181   3.474
  822SOL     OW 2473   1.064   3.209   3.202
  822SOL    HW1 2474   0.984   3.186   3.257
  822SOL    HW2 2475   1.147   3.183   3.251
  823SOL     OW 2476   1.592   3.491   3.487
  823SOL    HW1 2477   1.619   3.525   3.397
  823SOL    HW2 2478   1.671   3.453   3.533
  824SOL     OW 2479   1.111   3.057   2.962
  824SOL    HW1 2480   1.071   3.101   3.043
  824SOL    HW2 2481   1.070   3.094   2.879
  825SOL     OW 2482   1.638   2.961   2.941
  825SOL    HW1 2483   1.643   3.042   3.000
  825SOL    HW2 2484   1.552   2.963   2.890
  826SOL     OW 2485   0.915   1.951   3.264
  826SOL    HW1 2486   0.940   1.931   3.169
  826SOL    HW2 2487   0.987   2.007   3.306
  827SOL     OW 2488   0.980   2.978   3.581
  827SOL    HW1 2489   0.881   2.984   3.591
  827SOL    HW2 2490   1.003   2.898   3.525
  828SOL     OW 2491   0.705   2.912   2.230
  828SOL    HW1 2492   0.691   2.919   2.329
  828SOL    HW2 2493   0.789   2.861   2.212
  829SOL     OW 2494   0.410   2.675   3.113
  829SOL    HW1 2495   0.496   2.687   3.163
  829SOL    HW2 2496   0.368   2.588   3.140
  830SOL     OW 2497   1.274   2.248   3.124
  830SOL    HW1 2498   1.295   2.322   3.188
  830SOL    HW2 2499   1.185   2.265   3.081
  831SOL     OW 2500   0.064   3.426   3.193
  831SOL    HW1 2501   0.018   3.508   3.159
  831SOL    HW2 2502   0.162   3.445   3.202
  832SOL     OW 2503   0.367   2.962   2.363
  832SOL    HW1 2504   0.360   3.045   2.307
  832SOL    HW2 2505   0.371   2.882   2.303
  833SOL     OW 2506   0.566   2.399   2.727
  833SOL    HW1 2507   0.578   2.465   2.653
  833SOL    HW2 2508   0.612   2.433   2.810
  834SOL     OW 2509   1.252   3.210   2.250
  834SOL    HW1 2510   1.302   3.287   2.290
  834SOL    HW2 2511   1.157   3.212   2.282
  835SOL     OW 2512   1.272   3.307   3.004
  835SOL    HW1 2513   1.319   3.320   3.091
  835SOL    HW2 2514   1.206   3.233   3.013
  836SOL     OW 2515   1.582   2.501   2.334
  836SOL    HW1 2516   1.551   2.562   2.407
  836SOL    HW2 2517   1.632   2.553   2.265
  837SOL     OW 2518   0.354   3.372   3.191
  837SOL    HW1 2519   0.333   3.328   3.104
  837SOL    HW2 2520   0.451   3.398   3.194
  838SOL     OW 2521   0.402   2.613   3.460
  838SOL    HW1 2522   0.470   2.668   3.413
  838SOL    HW2 2523   0.442   2.525   3.487
  839SOL     OW 2524   1.587   2.641   3.532
  839SOL    HW1 2525   1.495   2.679   3.527
  839SOL    HW2 2526   1.647   2.688   3.467
  840SOL     OW 2527   1.013   1.967   3.632
  840SOL    HW1 2528   1.019   2.052   3.580
  840SOL    HW2 2529   1.045   1.891   3.575
  841SOL     OW 2530   0.504   1.912   3.602
  841SOL    HW1 2531   0.462   1.855   3.532
  841SOL    HW2 2532   0.438   1.981   3.634
  842SOL     OW 2533   0.573   2.732   2.891
  842SOL    HW1 2534   0.617   2.821   2.882
  842SOL    HW2 2535   0.510   2.732   2.968
  843SOL     OW 2536   1.360   2.724   2.907
  843SOL    HW1 2537   1.285   2.724   2.841
  843SOL    HW2 2538   1.397   2.632   2.916
  844SOL     OW 2539   1.209   2.387   2.137
  844SOL    HW1 2540   1.222   2.303   2.191
  844SOL    HW2 2541   1.180   2.461   2.197
  845SOL     OW 2542   0.307   2.075   3.093
  845SOL    HW1 2543   0.284   2.112   3.183
  845SOL    HW2 2544   0.277   1.980   3.087
  846SOL     OW 2545   0.037   3.172   3.144
  846SOL    HW1 2546   0.090   3.123   3.212
  846SOL    HW2 2547   0.059   3.270   3.149
  847SOL     OW 2548   0.732   2.496   2.926
  847SOL    HW1 2549   0.791   2.470   2.850
  847SOL    HW2 2550   0.704   2.592   2.915
  848SOL     OW 2551   1.728   2.797   3.716
  848SOL    HW1 2552   1.682   2.790   3.627
  848SOL    HW2 2553   1.666   2.841   3.782
  849SOL     OW 2554   0.307   1.925   2.480
  849SOL    HW1 2555   0.296   2.019   2.513
  849SOL    HW2 2556   0.302   1.862   2.557
  850SOL     OW 2557   1.622   2.229   2.236
  850SOL    HW1 2558   1.624   2.153   2.300
  850SOL    HW2 2559   1.574   2.306   2.276
  851SOL     OW 2560   1.023   2.628   2.828
  851SOL    HW1 2561   1.038   2.649   2.924
  851SOL    HW2 2562   0.993   2.533   2.819
  852SOL     OW 2563   0.980   3.435   3.562
  852SOL    HW1 2564   0.960   3.479   3.474
  852SOL    HW2 2565   1.019   3.344   3.546
  853SOL     OW 2566   1.859   3.380   3.467
  853SOL    HW1 2567   1.873   3.407   3.372
  853SOL    HW2 2568   1.942   3.402   3.520
  854SOL     OW 2569   0.350   2.760   3.666
  854SOL    HW1 2570   0.426   2.804   3.714
  854SOL    HW2 2571   0.385   2.713   3.584
  855SOL     OW 2572   1.540   2.136   1.987
  855SOL    HW1 2573   1.479   2.061   2.010
  855SOL    HW2 2574   1.562   2.188   2.070
  856SOL     OW 2575   1.303   2.700   1.904
  856SOL    HW1 2576   1.337   2.607   1.919
  856SOL    HW2 2577   1.321   2.727   1.809
  857SOL     OW 2578   1.068   3.195   2.711
  857SOL    HW1 2579   1.075   3.111   2.656
  857SOL    HW2 2580   1.130   3.264   2.675
  858SOL     OW 2581   0.319   2.672   2.811
  858SOL    HW1 2582   0.412   2.708   2.816
  858SOL    HW2 2583   0.313   2.587   2.863
  859SOL     OW 2584   0.339   2.371   2.868
  859SOL    HW1 2585   0.287   2.288   2.851
  859SOL    HW2 2586   0.416   2.376   2.804
  860SOL     OW 2587   1.138   2.242   3.540
  860SOL    HW1 2588   1.093   2.305   3.604
  860SOL    HW2 2589   1.231   2.273   3.523
  861SOL     OW 2590   1.160   2.069   3.339
  861SOL    HW1 2591   1.160   2.133   3.416
  861SOL    HW2 2592   1.188   2.117   3.256
  862SOL     OW 2593   0.008   3.188   2.062
  862SOL    HW1 2594  -0.085   3.209   2.031
  862SOL    HW2 2595   0.018   3.089   2.075
  863SOL     OW 2596   0.088   3.663   2.789
  863SOL    HW1 2597   0.046   3.577   2.762
  863SOL    HW2 2598   0.182   3.666   2.755
  864SOL     OW 2599   0.504   3.430   2.772
  864SOL    HW1 2600   0.570   3.504   2.781
  864SOL    HW2 2601   0.548   3.351   2.730
  865SOL     OW 2602   1.002   2.658   3.100
  865SOL    HW1 2603   1.043   2.626   3.186
  865SOL    HW2 2604   0.906   2.631   3.097
  866SOL     OW 2605   0.040   2.406   2.976
  866SOL    HW1 2606   0.125   2.373   2.935
  866SOL    HW2 2607   0.053   2.421   3.074
  867SOL     OW 2608   0.189   2.382   3.584
  867SOL    HW1 2609   0.248   2.342   3.514
  867SOL    HW2 2610   0.131   2.453   3.543
  868SOL     OW 2611   1.369   2.812   3.522
  868SOL    HW1 2612   1.408   2.901   3.542
  868SOL    HW2 2613   1.379   2.792   3.425
  869SOL     OW 2614   0.815   2.434   2.187
  869SOL    HW1 2615   0.822   2.345   2.141
  869SOL    HW2 2616   0.721   2.468   2.179
  870SOL     OW 2617   1.657   2.466   3.068
  870SOL    HW1 2618   1.619   2.397   3.130
  870SOL    HW2 2619   1.739   2.430   3.024
  871SOL     OW 2620   0.252   3.426   3.606
  871SOL    HW1 2621   0.222   3.483   3.682
  871SOL    HW2 2622   0.245   3.329   3.632
  872SOL     OW 2623   0.671   2.326   3.131
  872SOL    HW1 2624   0.637   2.237   3.101
  872SOL    HW2 2625   0.697   2.380   3.051
  873SOL     OW 2626   0.930   3.540   3.327
  873SOL    HW1 2627   0.906   3.522   3.232
  873SOL    HW2 2628   0.960   3.634   3.337
  874SOL     OW 2629   0.473   2.362   2.053
  874SOL    HW1 2630   0.534   2.442   2.057
  874SOL    HW2 2631   0.378   2.393   2.060
  875SOL     OW 2632   0.159   2.999   3.328
  875SOL    HW1 2633   0.181   2.938   3.404
  875SOL    HW2 2634   0.169   2.950   3.242
  876SOL     OW 2635   1.347   2.921   3.096
  876SOL    HW1 2636   1.371   2.858   3.022
  876SOL    HW2 2637   1.257   2.961   3.078
  877SOL     OW 2638   1.302   2.717   2.171
  877SOL    HW1 2639   1.216   2.686   2.213
  877SOL    HW2 2640   1.298   2.703   2.072
  878SOL     OW 2641   1.759   3.609   3.016
  878SOL    HW1 2642   1.820   3.639   2.943
  878SOL    HW2 2643   1.721   3.520   2.994
  879SOL     OW 2644   1.252   3.593   2.990
  879SOL    HW1 2645   1.336   3.598   2.936
  879SOL    HW2 2646   1.229   3.497   3.008
  880SOL     OW 2647   0.083   3.120   2.884
  880SOL    HW1 2648   0.078   3.119   2.984
  880SOL    HW2 2649   0.000   3.079   2.846
  881SOL     OW 2650   0.688   3.524   3.578
  881SOL    HW1 2651   0.632   3.605   3.587
  881SOL    HW2 2652   0.740   3.528   3.492
  882SOL     OW 2653   1.726   1.997   2.385
  882SOL    HW1 2654   1.799   1.980   2.318
  882SOL    HW2 2655   1.695   1.910   2.423
  883SOL     OW 2656   1.388   3.435   2.339
  883SOL    HW1 2657   1.455   3.447   2.265
  883SOL    HW2 2658   1.348   3.524   2.362
  884SOL     OW 2659   0.130   3.656   3.713
  884SOL    HW1 2660   0.089   3.582   3.766
  884SOL    HW2 2661   0.194   3.707   3.771
  885SOL     OW 2662   1.280   2.789   2.534
  885SOL    HW1 2663   1.340   2.708   2.536
  885SOL    HW2 2664   1.320   2.858   2.474
  886SOL     OW 2665   0.830   3.135   3.284
  886SOL    HW1 2666   0.825   3.168   3.379
  886SOL    HW2 2667   0.744   3.154   3.238
  887SOL     OW 2668   0.672   3.478   2.016
  887SOL    HW1 2669   0.681   3.488   1.917
  887SOL    HW2 2670   0.632   3.389   2.037
  888SOL     OW 2671   1.650   3.582   3.256
  888SOL    HW1 2672   1.703   3.592   3.172
  888SOL    HW2 2673   1.623   3.672   3.290
  889SOL     OW 2674   1.841   2.037   2.825
  889SOL    HW1 2675   1.880   1.952   2.789
  889SOL    HW2 2676   1.743   2.039   2.806
  890SOL     OW 2677   0.263   2.188   2.582
  890SOL    HW1 2678   0.184   2.239   2.548
  890SOL    HW2 2679   0.254   2.173   2.680
  891SOL     OW 2680   1.194   3.474   1.893
  891SOL    HW1 2681   1.200   3.381   1.930
  891SOL    HW2 2682   1.135   3.474   1.813
  892SOL     OW 2683   0.822   2.864   3.234
  892SOL    HW1 2684   0.862   2.863   3.142
  892SOL    HW2 2685   0.832   2.956   3.274
  893SOL     OW 2686   0.916   2.772   2.153
  893SOL    HW1 2687   0.979   2.810   2.085
  893SOL    HW2 2688   0.956   2.689   2.192
  894SOL     OW 2689   1.504   3.469   1.906
  894SOL    HW1 2690   1.412   3.506   1.913
  894SOL    HW2 2691   1.542   3.489   1.816
  895SOL     OW 2692   0.372   3.150   3.352
  895SOL    HW1 2693   0.359   3.243   3.318
  895SOL    HW2 2694   0.288   3.098   3.339
  896SOL     OW 2695   1.614   3.154   3.151
  896SOL    HW1 2696   1.674   3.157   3.231
  896SOL    HW2 2697   1.539   3.218   3.164
  897SOL     OW 2698   1.039   2.960   2.558
  897SOL    HW1 2699   0.969   2.913   2.612
  897SOL    HW2 2700   1.098   2.892   2.515
  898SOL     OW 2701   1.014   2.098   2.833
  898SOL    HW1 2702   1.006   2.062   2.740
  898SOL    HW2 2703   1.012   2.022   2.898
  899SOL     OW 2704   0.590   3.349   2.353
  899SOL    HW1 2705   0.632   3.291   2.283
  899SOL    HW2 2706   0.546   3.428   2.309
  900SOL     OW 2707   1.709   2.247   3.243
  900SOL    HW1 2708   1.782   2.316   3.247
  900SOL    HW2 2709   1.737   2.172   3.184
  901SOL     OW 2710   0.255   3.210   2.152
  901SOL    HW1 2711   0.159   3.211   2.125
  901SOL    HW2 2712   0.267   3.263   2.236
  902SOL     OW 2713   0.105   2.875   3.588
  902SOL    HW1 2714   0.028   2.842   3.642
  902SOL    HW2 2715   0.190   2.845   3.630
  903SOL     OW 2716   0.672   2.065   3.351
  903SOL    HW1 2717   0.762   2.049   3.311
  903SOL    HW2 2718   0.680   2.070   3.450
  904SOL     OW 2719   0.075   2.207   1.895
  904SOL    HW1 2720  -0.017   2.179   1.866
  904SOL    HW2 2721   0.106   2.284   1.839
  905SOL     OW 2722   1.440   2.718   3.260
  905SOL    HW1 2723   1.383   2.770   3.197
  905SOL    HW2 2724   1.536   2.730   3.236
  906SOL     OW 2725   0.072   2.028   2.180
  906SOL    HW1 2726   0.055   2.111   2.126
  906SOL    HW2 2727   0.162   1.991   2.158
  907SOL     OW 2728   1.183   3.197   1.981
  907SOL    HW1 2729   1.084   3.186   1.983
  907SOL    HW2 2730   1.217   3.212   2.074
  908SOL     OW 2731   0.613   2.704   3.293
  908SOL    HW1 2732   0.669   2.785   3.276
  908SOL    HW2 2733   0.672   2.624   3.296
  909SOL     OW 2734   1.493   3.629   2.821
  909SOL    HW1 2735   1.526   3.693   2.752
  909SOL    HW2 2736   1.559   3.623   2.896
  910SOL     OW 2737   0.716   2.427   3.570
  910SOL    HW1 2738   0.735   2.492   3.644
  910SOL    HW2 2739   0.776   2.347   3.579
  911SOL     OW 2740   1.450   3.082   3.495
  911SOL    HW1 2741   1.441   3.072   3.594
  911SOL    HW2 2742   1.546   3.075   3.469
  912SOL     OW 2743   0.390   3.603   3.422
  912SOL    HW1 2744   0.299   3.644   3.420
  912SOL    HW2 2745   0.383   3.509   3.454
  913SOL     OW 2746   1.674   2.745   3.116
  913SOL    HW1 2747   1.647   2.656   3.079
  913SOL    HW2 2748   1.675   2.813   3.043
  914SOL     OW 2749   1.225   2.187   2.311
  914SOL    HW1 2750   1.290   2.113   2.300
  914SOL    HW2 2751   1.245   2.237   2.395
  915SOL     OW 2752   0.594   2.607   2.514
  915SOL    HW1 2753   0.644   2.692   2.495
  915SOL    HW2 2754   0.506   2.609   2.466
  916SOL     OW 2755   1.777   2.204   3.504
  916SOL    HW1 2756   1.760   2.235   3.410
  916SOL    HW2 2757   1.693   2.167   3.542
  917SOL     OW 2758   1.730   2.796   3.379
  917SOL    HW1 2759   1.768   2.887   3.394
  917SOL    HW2 2760   1.722   2.779   3.280
  918SOL     OW 2761   0.859   3.236   1.878
  918SOL    HW1 2762   0.813   3.251   1.966
  918SOL    HW2 2763   0.903   3.321   1.848
  919SOL     OW 2764   0.661   3.652   2.815
  919SOL    HW1 2765   0.615   3.740   2.802
  919SOL    HW2 2766   0.760   3.664   2.808
  920SOL     OW 2767   0.859   2.818   2.723
  920SOL    HW1 2768   0.913   2.749   2.771
  920SOL    HW2 2769   0.827   2.887   2.789
  921SOL     OW 2770   1.083   2.846   1.949
  921SOL    HW1 2771   1.060   2.899   1.867
  921SOL    HW2 2772   1.164   2.790   1.930
  922SOL     OW 2773   1.861   3.431   2.713
  922SOL    HW1 2774   1.790   3.419   2.643
  922SOL    HW2 2775   1.862   3.352   2.773
  923SOL     OW 2776   0.221   3.176   3.706
  923SOL    HW1 2777   0.156   3.103   3.685
  923SOL    HW2 2778   0.225   3.190   3.804
  924SOL     OW 2779   0.079   3.102   2.515
  924SOL    HW1 2780   0.078   3.055   2.603
  924SOL    HW2 2781   0.161   3.074   2.464
  925SOL     OW 2782   0.672   3.253   3.486
  925SOL    HW1 2783   0.594   3.203   3.524
  925SOL    HW2 2784   0.669   3.348   3.517
  926SOL     OW 2785   1.824   2.054   3.089
  926SOL    HW1 2786   1.820   1.964   3.133
  926SOL    HW2 2787   1.827   2.043   2.990
  927SOL     OW 2788   0.428   2.286   2.382
  927SOL    HW1 2789   0.458   2.214   2.320
  927SOL    HW2 2790   0.389   2.246   2.465
  928SOL     OW 2791   1.705   3.349   2.966
  928SOL    HW1 2792   1.612   3.324   2.939
  928SOL    HW2 2793   1.731   3.299   3.048
  929SOL     OW 2794   0.317   2.409   3.142
  929SOL    HW1 2795   0.355   2.350   3.214
  929SOL    HW2 2796   0.357   2.383   3.054
  930SOL     OW 2797   0.812   3.448   2.549
  930SOL    HW1 2798   0.844   3.458   2.455
  930SOL    HW2 2799   0.733   3.386   2.551
  931SOL     OW 2800   1.424   2.076   2.974
  931SOL    HW1 2801   1.476   2.011   3.029
  931SOL    HW2 2802   1.375   2.139   3.035
  932SOL     OW 2803   1.001   1.896   3.016
  932SOL    HW1 2804   0.938   1.824   2.985
  932SOL    HW2 2805   1.094   1.860   3.016
  933SOL     OW 2806   0.770   3.192   2.163
  933SOL    HW1 2807   0.724   3.105   2.180
  933SOL    HW2 2808   0.861   3.189   2.204
  934SOL     OW 2809   0.618   3.429   3.146
  934SOL    HW1 2810   0.613   3.511   3.203
  934SOL    HW2 2811   0.707   3.426   3.101
  935SOL     OW 2812   1.352   1.914   2.030
  935SOL    HW1 2813   1.387   1.873   1.946
  935SOL    HW2 2814   1.262   1.876   2.050
  936SOL     OW 2815   1.300   2.315   2.553
  936SOL    HW1 2816   1.241   2.395   2.557
  936SOL    HW2 2817   1.315   2.280   2.646
  937SOL     OW 2818   1.593   2.083   2.744
  937SOL    HW1 2819   1.509   2.082   2.798
  937SOL    HW2 2820   1.595   2.166   2.688
  938SOL     OW 2821   0.039   2.939   2.162
  938SOL    HW1 2822   0.138   2.928   2.153
  938SOL    HW2 2823  -0.001   2.853   2.194
  939SOL     OW 2824   0.875   3.508   2.199
  939SOL    HW1 2825   0.798   3.473   2.145
  939SOL    HW2 2826   0.843   3.579   2.261
  940SOL     OW 2827   0.230   2.490   3.837
  940SOL    HW1 2828   0.137   2.488   3.874
  940SOL    HW2 2829   0.231   2.451   3.745
  941SOL     OW 2830   0.019   2.230   4.371
  941SOL    HW1 2831  -0.063   2.273   4.410
  941SOL    HW2 2832  -0.009   2.157   4.308
  942SOL     OW 2833   1.755   2.469   3.955
  942SOL    HW1 2834   1.743   2.456   3.856
  942SOL    HW2 2835   1.725   2.388   4.004
  943SOL     OW 2836   0.685   2.874   4.389
  943SOL    HW1 2837   0.754   2.858   4.459
  943SOL    HW2 2838   0.612   2.931   4.427
  944SOL     OW 2839   1.603   2.309   4.461
  944SOL    HW1 2840   1.529   2.355   4.411
  944SOL    HW2 2841   1.654   2.377   4.514
  945SOL     OW 2842   0.231   3.575   4.207
  945SOL    HW1 2843   0.265   3.652   4.261
  945SOL    HW2 2844   0.275   3.575   4.117
  946SOL     OW 2845   0.230   3.296   4.262
  946SOL    HW1 2846   0.204   3.392   4.262
  946SOL    HW2 2847   0.159   3.242   4.307
  947SOL     OW 2848   0.606   2.826   3.847
  947SOL    HW1 2849   0.613   2.910   3.793
  947SOL    HW2 2850   0.652   2.839   3.935
  948SOL     OW 2851   0.122   2.505   4.287
  948SOL    HW1 2852   0.077   2.417   4.304
  948SOL    HW2 2853   0.121   2.559   4.371
  949SOL     OW 2854   1.842   3.629   4.083
  949SOL    HW1 2855   1.896   3.600   4.163
  949SOL    HW2 2856   1.872   3.719   4.054
  950SOL     OW 2857   0.027   3.458   3.841
  950SOL    HW1 2858   0.008   3.362   3.862
  950SOL    HW2 2859  -0.006   3.516   3.916
  951SOL     OW 2860   1.689   2.784   4.336
  951SOL    HW1 2861   1.784   2.755   4.344
  951SOL    HW2 2862   1.681   2.849   4.261
  952SOL     OW 2863   1.641   2.970   4.156
  952SOL    HW1 2864   1.727   2.972   4.104
  952SOL    HW2 2865   1.655   3.017   4.244
  953SOL     OW 2866   0.613   3.227   4.450
  953SOL    HW1 2867   0.564   3.140   4.459
  953SOL    HW2 2868   0.590   3.270   4.363
  954SOL     OW 2869   0.809   1.866   4.226
  954SOL    HW1 2870   0.849   1.957   4.217
  954SOL    HW2 2871   0.709   1.874   4.232
  955SOL     OW 2872   1.525   2.861   3.914
  955SOL    HW1 2873   1.462   2.785   3.927
  955SOL    HW2 2874   1.573   2.879   4.000
  956SOL     OW 2875   1.667   3.576   4.296
  956SOL    HW1 2876   1.626   3.553   4.208
  956SOL    HW2 2877   1.649   3.502   4.361
  957SOL     OW 2878   0.598   2.591   3.994
  957SOL    HW1 2879   0.622   2.660   3.926
  957SOL    HW2 2880   0.520   2.624   4.048
  958SOL     OW 2881   1.281   2.207   4.668
  958SOL    HW1 2882   1.195   2.157   4.655
  958SOL    HW2 2883   1.343   2.153   4.724
  959SOL     OW 2884   1.576   3.524   4.031
  959SOL    HW1 2885   1.665   3.570   4.034
  959SOL    HW2 2886   1.555   3.500   3.936
  960SOL     OW 2887   1.041   2.563   4.153
  960SOL    HW1 2888   1.067   2.559   4.249
  960SOL    HW2 2889   0.956   2.512   4.139
  961SOL     OW 2890   0.076   2.673   4.513
  961SOL    HW1 2891   0.175   2.661   4.522
  961SOL    HW2 2892   0.052   2.768   4.534
  962SOL     OW 2893   0.865   2.210   3.919
  962SOL    HW1 2894   0.924   2.273   3.870
  962SOL    HW2 2895   0.884   2.116   3.890
  963SOL     OW 2896   1.362   3.006   4.269
  963SOL    HW1 2897   1.445   2.977   4.221
  963SOL    HW2 2898   1.313   3.073   4.213
  964SOL     OW 2899   1.008   3.318   4.201
  964SOL    HW1 2900   0.962   3.390   4.149
  964SOL    HW2 2901   1.004   3.338   4.299
  965SOL     OW 2902   0.351   3.663   4.577
  965SOL    HW1 2903   0.401   3.577   4.583
  965SOL    HW2 2904   0.416   3.740   4.574
  966SOL     OW 2905   1.795   2.928   4.597
  966SOL    HW1 2906   1.733   2.913   4.521
  966SOL    HW2 2907   1.743   2.939   4.682
  967SOL     OW 2908   0.321   2.805   3.966
  967SOL    HW1 2909   0.403   2.844   3.924
  967SOL    HW2 2910   0.294   2.723   3.917
  968SOL     OW 2911   1.111   3.638   3.961
  968SOL    HW1 2912   1.051   3.576   4.011
  968SOL    HW2 2913   1.142   3.594   3.876
  969SOL     OW 2914   1.632   3.239   3.805
  969SOL    HW1 2915   1.600   3.333   3.795
  969SOL    HW2 2916   1.556   3.176   3.793
  970SOL     OW 2917   0.464   3.605   4.047
  970SOL    HW1 2918   0.497   3.644   4.133
  970SOL    HW2 2919   0.540   3.598   3.982
  971SOL     OW 2920   1.400   1.969   4.150
  971SOL    HW1 2921   1.376   1.932   4.060
  971SOL    HW2 2922   1.499   1.985   4.154
  972SOL     OW 2923   0.940   3.560   4.628
  972SOL    HW1 2924   1.020   3.503   4.649
  972SOL    HW2 2925   0.891   3.520   4.551
  973SOL     OW 2926   0.382   2.562   4.204
  973SOL    HW1 2927   0.427   2.472   4.201
  973SOL    HW2 2928   0.288   2.551   4.237
  974SOL     OW 2929   0.614   1.984   3.841
  974SOL    HW1 2930   0.712   1.962   3.848
  974SOL    HW2 2931   0.583   1.967   3.748
  975SOL     OW 2932   0.539   1.926   4.236
  975SOL    HW1 2933   0.458   1.927   4.294
  975SOL    HW2 2934   0.542   2.009   4.181
  976SOL     OW 2935   1.434   3.050   3.765
  976SOL    HW1 2936   1.466   2.974   3.822
  976SOL    HW2 2937   1.342   3.077   3.795
  977SOL     OW 2938   0.297   1.897   3.895
  977SOL    HW1 2939   0.346   1.981   3.874
  977SOL    HW2 2940   0.359   1.832   3.940
  978SOL     OW 2941   0.935   2.098   4.204
  978SOL    HW1 2942   0.887   2.139   4.126
  978SOL    HW2 2943   1.034   2.096   4.185
  979SOL     OW 2944   0.459   3.014   4.465
  979SOL    HW1 2945   0.388   2.987   4.530
  979SOL    HW2 2946   0.433   2.986   4.372
  980SOL     OW 2947   1.271   3.659   4.315
  980SOL    HW1 2948   1.315   3.723   4.251
  980SOL    HW2 2949   1.221   3.711   4.385
  981SOL     OW 2950   1.032   2.411   3.740
  981SOL    HW1 2951   0.991   2.493   3.701
  981SOL    HW2 2952   1.096   2.437   3.813
  982SOL     OW 2953   0.866   2.316   4.366
  982SOL    HW1 2954   0.834   2.388   4.304
  982SOL    HW2 2955   0.890   2.235   4.313
  983SOL     OW 2956   1.857   2.695   4.101
  983SOL    HW1 2957   1.899   2.631   4.165
  983SOL    HW2 2958   1.819   2.644   4.023
  984SOL     OW 2959   0.488   3.247   3.898
  984SOL    HW1 2960   0.401   3.232   3.945
  984SOL    HW2 2961   0.471   3.273   3.803
  985SOL     OW 2962   1.664   3.142   4.381
  985SOL    HW1 2963   1.763   3.150   4.395
  985SOL    HW2 2964   1.619   3.226   4.412
  986SOL     OW 2965   1.390   2.437   3.802
  986SOL    HW1 2966   1.336   2.416   3.883
  986SOL    HW2 2967   1.481   2.396   3.811
  987SOL     OW 2968   0.527   2.118   4.052
  987SOL    HW1 2969   0.554   2.059   3.977
  987SOL    HW2 2970   0.527   2.213   4.021
  988SOL     OW 2971   0.705   2.912   4.092
  988SOL    HW1 2972   0.691   2.919   4.191
  988SOL    HW2 2973   0.789   2.861   4.074
  989SOL     OW 2974   0.367   2.962   4.225
  989SOL    HW1 2975   0.360   3.045   4.169
  989SOL    HW2 2976   0.371   2.882   4.165
  990SOL     OW 2977   1.252   3.210   4.112
  990SOL    HW1 2978   1.302   3.287   4.152
  990SOL    HW2 2979   1.157   3.212   4.144
  991SOL     OW 2980   1.582   2.501   4.196
  991SOL    HW1 2981   1.551   2.562   4.269
  991SOL    HW2 2982   1.632   2.553   4.127
  992SOL     OW 2983   1.209   2.387   3.999
  992SOL    HW1 2984   1.222   2.303   4.053
  992SOL    HW2 2985   1.180   2.461   4.059
  993SOL     OW 2986   0.307   1.925   4.342
  993SOL    HW1 2987   0.296   2.019   4.375
  993SOL    HW2 2988   0.302   1.862   4.419
  994SOL     OW 2989   1.622   2.229   4.098
  994SOL    HW1 2990   1.624   2.153   4.162
  994SOL    HW2 2991   1.574   2.306   4.138
  995SOL     OW 2992   1.540   2.136   3.849
  995SOL    HW1 2993   1.479   2.061   3.872
  995SOL    HW2 2994   1.562   2.188   3.932
  996SOL     OW 2995   1.303   2.700   3.766
  996SOL    HW1 2996   1.337   2.607   3.781
  996SOL    HW2 2997   1.321   2.727   3.671
  997SOL     OW 2998   0.008   3.188   3.924
  997SOL    HW1 2999  -0.085   3.209   3.893
  997SOL    HW2 3000   0.018   3.089   3.937
  998SOL     OW 3001   0.040   2.406   4.838
  998SOL    HW1 3002   0.125   2.373   4.797
  998SOL    HW2 3003   0.053   2.421   4.936
  999SOL     OW 3004   0.815   2.434   4.049
  999SOL    HW1 3005   0.822   2.345   4.003
  999SOL    HW2 3006   0.721   2.468   4.041
 1000SOL     OW 3007   0.473   2.362   3.915
 1000SOL    HW1 3008   0.534   2.442   3.919
 1000SOL    HW2 3009   0.378   2.393   3.922
 1001SOL     OW 3010   1.302   2.717   4.033
 1001SOL    HW1 3011   1.216   2.686   4.075
 1001SOL    HW2 3012   1.298   2.703   3.934
 1002SOL     OW 3013   1.726   1.997   4.247
 1002SOL    HW1 3014   1.799   1.980   4.180
 1002SOL    HW2 3015   1.695   1.910   4.285
 1003SOL     OW 3016   1.388   3.435   4.201
 1003SOL    HW1 3017   1.455   3.447   4.127
 1003SOL    HW2 3018   1.348   3.524   4.224
 1004SOL     OW 3019   0.672   3.478   3.878
 1004SOL    HW1 3020   0.681   3.488   3.779
 1004SOL    HW2 3021   0.632   3.389   3.899
 1005SOL     OW 3022   1.841   2.037   4.687
 1005SOL    HW1 3023   1.880   1.952   4.651
 1005SOL    HW2 3024   1.743   2.039   4.668
 1006SOL     OW 3025   0.263   2.188   4.444
 1006SOL    HW1 3026   0.184   2.239   4.410
 1006SOL    HW2 3027   0.254   2.173   4.542
 1007SOL     OW 3028   1.194   3.474   3.755
 1007SOL    HW1 3029   1.200   3.381   3.792
 1007SOL    HW2 3030   1.135   3.474   3.675
 1008SOL     OW 3031   0.916   2.772   4.015
 1008SOL    HW1 3032   0.979   2.810   3.947
 1008SOL    HW2 3033   0.956   2.689   4.054
 1009SOL     OW 3034   1.504   3.469   3.768
 1009SOL    HW1 3035   1.412   3.506   3.775
 1009SOL    HW2 3036   1.542   3.489   3.678
 1010SOL     OW 3037   0.590   3.349   4.215
 1010SOL    HW1 3038   0.632   3.291   4.145
 1010SOL    HW2 3039   0.546   3.428   4.171
 1011SOL     OW 3040   0.255   3.210   4.014
 1011SOL    HW1 3041   0.159   3.211   3.987
 1011SOL    HW2 3042   0.267   3.263   4.098
 1012SOL     OW 3043   0.075   2.207   3.757
 1012SOL    HW1 3044  -0.017   2.179   3.728
 1012SOL    HW2 3045   0.106   2.284   3.701
 1013SOL     OW 3046   0.072   2.028   4.042
 1013SOL    HW1 3047   0.055   2.111   3.988
 1013SOL    HW2 3048   0.162   1.991   4.020
 1014SOL     OW 3049   1.183   3.197   3.843
 1014SOL    HW1 3050   1.084   3.186   3.845
 1014SOL    HW2 3051   1.217   3.212   3.936
 1015SOL     OW 3052   1.225   2.187   4.173
 1015SOL    HW1 3053   1.290   2.113   4.162
 1015SOL    HW2 3054   1.245   2.237   4.257
 1016SOL     OW 3055   0.594   2.607   4.376
 1016SOL    HW1 3056   0.644   2.692   4.357
 1016SOL    HW2 3057   0.506   2.609   4.328
 1017SOL     OW 3058   0.859   3.236   3.740
 1017SOL    HW1 3059   0.813   3.251   3.828
 1017SOL    HW2 3060   0.903   3.321   3.710
 1018SOL     OW 3061   0.661   3.652   4.677
 1018SOL    HW1 3062   0.615   3.740   4.664
 1018SOL    HW2 3063   0.760   3.664   4.670
 1019SOL     OW 3064   0.859   2.818   4.585
 1019SOL    HW1 3065   0.913   2.749   4.633
 1019SOL    HW2 3066   0.827   2.887   4.651
 1020SOL     OW 3067   1.083   2.846   3.811
 1020SOL    HW1 3068   1.060   2.899   3.729
 1020SOL    HW2 3069   1.164   2.790   3.792
 1021SOL     OW 3070   0.079   3.102   4.377
 1021SOL    HW1 3071   0.078   3.055   4.465
 1021SOL    HW2 3072   0.161   3.074   4.326
 1022SOL     OW 3073   0.428   2.286   4.244
 1022SOL    HW1 3074   0.458   2.214   4.182
 1022SOL    HW2 3075   0.389   2.246   4.327
 1023SOL     OW 3076   0.812   3.448   4.411
 1023SOL    HW1 3077   0.844   3.458   4.317
 1023SOL    HW2 3078   0.733   3.386   4.413
 1024SOL     OW 3079   0.770   3.192   4.025
 1024SOL    HW1 3080   0.724   3.105   4.042
 1024SOL    HW2 3081   0.861   3.189   4.066
 1025SOL     OW 3082   1.352   1.914   3.892
 1025SOL    HW1 3083   1.387   1.873   3.808
 1025SOL    HW2 3084   1.262   1.876   3.912
 1026SOL     OW 3085   1.300   2.315   4.415
 1026SOL    HW1 3086   1.241   2.395   4.419
 1026SOL    HW2 3087   1.315   2.280   4.508
 1027SOL     OW 3088   0.039   2.939   4.024
 1027SOL    HW1 3089   0.138   2.928   4.015
 1027SOL    HW2 3090  -0.001   2.853   4.056
 1028SOL     OW 3091   0.875   3.508   4.061
 1028SOL    HW1 3092   0.798   3.473   4.007
 1028SOL    HW2 3093   0.843   3.579   4.123
 1029SOL     OW 3094   0.230   4.352   0.113
 1029SOL    HW1 3095   0.137   4.350   0.150
 1029SOL    HW2 3096   0.231   4.313   0.021
 1030SOL     OW 3097   0.225   3.999   0.996
 1030SOL    HW1 3098   0.260   3.982   1.088
 1030SOL    HW2 3099   0.137   3.954   0.984
 1031SOL     OW 3100   0.019   4.092   0.647
 1031SOL    HW1 3101  -0.063   4.135   0.686
 1031SOL    HW2 3102  -0.009   4.019   0.584
 1032SOL     OW 3103   1.755   4.331   0.231
 1032SOL    HW1 3104   1.743   4.318   0.132
 1032SOL    HW2 3105   1.725   4.250   0.280
 1033SOL     OW 3106   0.850   4.522   1.823
 1033SOL    HW1 3107   0.846   4.598   1.888
 1033SOL    HW2 3108   0.872   4.558   1.732
 1034SOL     OW 3109   0.685   4.736   0.665
 1034SOL    HW1 3110   0.754   4.720   0.735
 1034SOL    HW2 3111   0.612   4.793   0.703
 1035SOL     OW 3112   0.438   4.116   1.499
 1035SOL    HW1 3113   0.520   4.060   1.508
 1035SOL    HW2 3114   0.357   4.058   1.503
 1036SOL     OW 3115   1.603   4.171   0.737
 1036SOL    HW1 3116   1.529   4.217   0.687
 1036SOL    HW2 3117   1.654   4.239   0.790
 1037SOL     OW 3118   1.594   3.838   1.480
 1037SOL    HW1 3119   1.576   3.905   1.408
 1037SOL    HW2 3120   1.591   3.884   1.569
 1038SOL     OW 3121   0.122   4.367   0.563
 1038SOL    HW1 3122   0.077   4.279   0.580
 1038SOL    HW2 3123   0.121   4.421   0.647
 1039SOL     OW 3124   0.113   4.461   1.597
 1039SOL    HW1 3125   0.201   4.448   1.642
 1039SOL    HW2 3126   0.100   4.558   1.575
 1040SOL     OW 3127   0.809   3.728   0.502
 1040SOL    HW1 3128   0.849   3.819   0.493
 1040SOL    HW2 3129   0.709   3.736   0.508
 1041SOL     OW 3130   0.317   3.975   1.801
 1041SOL    HW1 3131   0.388   4.046   1.807
 1041SOL    HW2 3132   0.229   4.014   1.829
 1042SOL     OW 3133   0.598   4.453   0.270
 1042SOL    HW1 3134   0.622   4.522   0.202
 1042SOL    HW2 3135   0.520   4.486   0.324
 1043SOL     OW 3136   1.281   4.069   0.944
 1043SOL    HW1 3137   1.195   4.019   0.931
 1043SOL    HW2 3138   1.343   4.015   1.000
 1044SOL     OW 3139   0.807   4.329   1.465
 1044SOL    HW1 3140   0.760   4.326   1.554
 1044SOL    HW2 3141   0.756   4.274   1.399
 1045SOL     OW 3142   1.394   4.193   1.674
 1045SOL    HW1 3143   1.374   4.236   1.762
 1045SOL    HW2 3144   1.472   4.131   1.683
 1046SOL     OW 3145   0.991   4.134   1.242
 1046SOL    HW1 3146   0.914   4.168   1.296
 1046SOL    HW2 3147   0.957   4.083   1.163
 1047SOL     OW 3148   1.041   4.425   0.429
 1047SOL    HW1 3149   1.067   4.421   0.525
 1047SOL    HW2 3150   0.956   4.374   0.415
 1048SOL     OW 3151   0.076   4.535   0.789
 1048SOL    HW1 3152   0.175   4.523   0.798
 1048SOL    HW2 3153   0.052   4.630   0.810
 1049SOL     OW 3154   0.865   4.072   0.195
 1049SOL    HW1 3155   0.924   4.135   0.146
 1049SOL    HW2 3156   0.884   3.978   0.166
 1050SOL     OW 3157   1.719   4.309   1.831
 1050SOL    HW1 3158   1.693   4.398   1.795
 1050SOL    HW2 3159   1.717   4.241   1.758
 1051SOL     OW 3160   0.550   3.920   0.885
 1051SOL    HW1 3161   0.545   3.915   0.985
 1051SOL    HW2 3162   0.552   4.016   0.856
 1052SOL     OW 3163   1.458   4.459   0.728
 1052SOL    HW1 3164   1.453   4.394   0.803
 1052SOL    HW2 3165   1.538   4.518   0.741
 1053SOL     OW 3166   0.202   4.009   1.498
 1053SOL    HW1 3167   0.122   4.069   1.485
 1053SOL    HW2 3168   0.192   3.960   1.584
 1054SOL     OW 3169   1.400   3.831   0.426
 1054SOL    HW1 3170   1.376   3.794   0.336
 1054SOL    HW2 3171   1.499   3.847   0.430
 1055SOL     OW 3172   0.382   4.424   0.480
 1055SOL    HW1 3173   0.427   4.334   0.477
 1055SOL    HW2 3174   0.288   4.413   0.513
 1056SOL     OW 3175   1.547   3.946   1.729
 1056SOL    HW1 3176   1.542   3.983   1.821
 1056SOL    HW2 3177   1.475   3.877   1.717
 1057SOL     OW 3178   0.781   3.988   1.749
 1057SOL    HW1 3179   0.848   3.927   1.792
 1057SOL    HW2 3180   0.708   4.007   1.814
 1058SOL     OW 3181   1.351   4.314   1.433
 1058SOL    HW1 3182   1.379   4.271   1.518
 1058SOL    HW2 3183   1.376   4.410   1.434
 1059SOL     OW 3184   0.922   4.227   0.899
 1059SOL    HW1 3185   0.897   4.218   0.803
 1059SOL    HW2 3186   0.970   4.145   0.930
 1060SOL     OW 3187   0.539   3.788   0.512
 1060SOL    HW1 3188   0.458   3.789   0.570
 1060SOL    HW2 3189   0.542   3.871   0.457
 1061SOL     OW 3190   0.297   3.759   0.171
 1061SOL    HW1 3191   0.346   3.843   0.150
 1061SOL    HW2 3192   0.359   3.694   0.216
 1062SOL     OW 3193   0.935   3.960   0.480
 1062SOL    HW1 3194   0.887   4.001   0.402
 1062SOL    HW2 3195   1.034   3.958   0.461
 1063SOL     OW 3196   1.076   4.407   1.464
 1063SOL    HW1 3197   0.996   4.346   1.467
 1063SOL    HW2 3198   1.157   4.354   1.440
 1064SOL     OW 3199   1.032   4.273   0.016
 1064SOL    HW1 3200   0.991   4.355  -0.023
 1064SOL    HW2 3201   1.096   4.299   0.089
 1065SOL     OW 3202   0.078   4.280   1.386
 1065SOL    HW1 3203   0.170   4.279   1.345
 1065SOL    HW2 3204   0.072   4.354   1.453
 1066SOL     OW 3205   0.561   3.946   1.147
 1066SOL    HW1 3206   0.599   3.862   1.184
 1066SOL    HW2 3207   0.473   3.965   1.191
 1067SOL     OW 3208   0.866   4.178   0.642
 1067SOL    HW1 3209   0.834   4.250   0.580
 1067SOL    HW2 3210   0.890   4.097   0.589
 1068SOL     OW 3211   1.017   3.763   0.753
 1068SOL    HW1 3212   0.945   3.768   0.684
 1068SOL    HW2 3213   0.993   3.694   0.822
 1069SOL     OW 3214   1.466   4.314   0.992
 1069SOL    HW1 3215   1.436   4.219   0.999
 1069SOL    HW2 3216   1.539   4.330   1.058
 1070SOL     OW 3217   1.390   4.299   0.078
 1070SOL    HW1 3218   1.336   4.278   0.159
 1070SOL    HW2 3219   1.481   4.258   0.087
 1071SOL     OW 3220   0.527   3.980   0.328
 1071SOL    HW1 3221   0.554   3.921   0.253
 1071SOL    HW2 3222   0.527   4.075   0.297
 1072SOL     OW 3223   0.915   3.813   1.402
 1072SOL    HW1 3224   0.940   3.793   1.307
 1072SOL    HW2 3225   0.987   3.869   1.444
 1073SOL     OW 3226   0.705   4.774   0.368
 1073SOL    HW1 3227   0.691   4.781   0.467
 1073SOL    HW2 3228   0.789   4.723   0.350
 1074SOL     OW 3229   0.410   4.537   1.251
 1074SOL    HW1 3230   0.496   4.549   1.301
 1074SOL    HW2 3231   0.368   4.450   1.278
 1075SOL     OW 3232   1.274   4.110   1.262
 1075SOL    HW1 3233   1.295   4.184   1.326
 1075SOL    HW2 3234   1.185   4.127   1.219
 1076SOL     OW 3235   0.566   4.261   0.865
 1076SOL    HW1 3236   0.578   4.327   0.791
 1076SOL    HW2 3237   0.612   4.295   0.948
 1077SOL     OW 3238   1.582   4.363   0.472
 1077SOL    HW1 3239   1.551   4.424   0.545
 1077SOL    HW2 3240   1.632   4.415   0.403
 1078SOL     OW 3241   1.587   4.503   1.670
 1078SOL    HW1 3242   1.495   4.541   1.665
 1078SOL    HW2 3243   1.647   4.550   1.605
 1079SOL     OW 3244   1.013   3.829   1.770
 1079SOL    HW1 3245   1.019   3.914   1.718
 1079SOL    HW2 3246   1.045   3.753   1.713
 1080SOL     OW 3247   0.504   3.774   1.740
 1080SOL    HW1 3248   0.462   3.717   1.670
 1080SOL    HW2 3249   0.438   3.843   1.772
 1081SOL     OW 3250   1.360   4.586   1.045
 1081SOL    HW1 3251   1.285   4.586   0.979
 1081SOL    HW2 3252   1.397   4.494   1.054
 1082SOL     OW 3253   1.209   4.249   0.275
 1082SOL    HW1 3254   1.222   4.165   0.329
 1082SOL    HW2 3255   1.180   4.323   0.335
 1083SOL     OW 3256   0.307   3.937   1.231
 1083SOL    HW1 3257   0.284   3.974   1.321
 1083SOL    HW2 3258   0.277   3.842   1.225
 1084SOL     OW 3259   0.732   4.358   1.064
 1084SOL    HW1 3260   0.791   4.332   0.988
 1084SOL    HW2 3261   0.704   4.454   1.053
 1085SOL     OW 3262   1.728   4.659   1.854
 1085SOL    HW1 3263   1.682   4.652   1.765
 1085SOL    HW2 3264   1.666   4.703   1.920
 1086SOL     OW 3265   0.307   3.787   0.618
 1086SOL    HW1 3266   0.296   3.881   0.651
 1086SOL    HW2 3267   0.302   3.724   0.695
 1087SOL     OW 3268   1.622   4.091   0.374
 1087SOL    HW1 3269   1.624   4.015   0.438
 1087SOL    HW2 3270   1.574   4.168   0.414
 1088SOL     OW 3271   1.540   3.998   0.125
 1088SOL    HW1 3272   1.479   3.923   0.148
 1088SOL    HW2 3273   1.562   4.050   0.208
 1089SOL     OW 3274   0.319   4.534   0.949
 1089SOL    HW1 3275   0.412   4.570   0.954
 1089SOL    HW2 3276   0.313   4.449   1.001
 1090SOL     OW 3277   0.339   4.233   1.006
 1090SOL    HW1 3278   0.287   4.150   0.989
 1090SOL    HW2 3279   0.416   4.238   0.942
 1091SOL     OW 3280   1.138   4.104   1.678
 1091SOL    HW1 3281   1.093   4.167   1.742
 1091SOL    HW2 3282   1.231   4.135   1.661
 1092SOL     OW 3283   1.160   3.931   1.477
 1092SOL    HW1 3284   1.160   3.995   1.554
 1092SOL    HW2 3285   1.188   3.979   1.394
 1093SOL     OW 3286   0.040   4.268   1.114
 1093SOL    HW1 3287   0.125   4.235   1.073
 1093SOL    HW2 3288   0.053   4.283   1.212
 1094SOL     OW 3289   0.189   4.244   1.722
 1094SOL    HW1 3290   0.248   4.204   1.652
 1094SOL    HW2 3291   0.131   4.315   1.681
 1095SOL     OW 3292   0.815   4.296   0.325
 1095SOL    HW1 3293   0.822   4.207   0.279
 1095SOL    HW2 3294   0.721   4.330   0.317
 1096SOL     OW 3295   1.657   4.328   1.206
 1096SOL    HW1 3296   1.619   4.259   1.268
 1096SOL    HW2 3297   1.739   4.292   1.162
 1097SOL     OW 3298   0.671   4.188   1.269
 1097SOL    HW1 3299   0.637   4.099   1.239
 1097SOL    HW2 3300   0.697   4.242   1.189
 1098SOL     OW 3301   0.473   4.224   0.191
 1098SOL    HW1 3302   0.534   4.304   0.195
 1098SOL    HW2 3303   0.378   4.255   0.198
 1099SOL     OW 3304   0.903   3.810   0.133
 1099SOL    HW1 3305   0.954   3.811   0.047
 1099SOL    HW2 3306   0.959   3.768   0.204
 1100SOL     OW 3307   1.726   3.859   0.523
 1100SOL    HW1 3308   1.799   3.842   0.456
 1100SOL    HW2 3309   1.695   3.772   0.561
 1101SOL     OW 3310   1.280   4.651   0.672
 1101SOL    HW1 3311   1.340   4.570   0.674
 1101SOL    HW2 3312   1.320   4.720   0.612
 1102SOL     OW 3313   1.841   3.899   0.963
 1102SOL    HW1 3314   1.880   3.814   0.927
 1102SOL    HW2 3315   1.743   3.901   0.944
 1103SOL     OW 3316   0.263   4.050   0.720
 1103SOL    HW1 3317   0.184   4.101   0.686
 1103SOL    HW2 3318   0.254   4.035   0.818
 1104SOL     OW 3319   1.039   4.822   0.696
 1104SOL    HW1 3320   0.969   4.775   0.750
 1104SOL    HW2 3321   1.098   4.754   0.653
 1105SOL     OW 3322   1.014   3.960   0.971
 1105SOL    HW1 3323   1.006   3.924   0.878
 1105SOL    HW2 3324   1.012   3.884   1.036
 1106SOL     OW 3325   1.709   4.109   1.381
 1106SOL    HW1 3326   1.782   4.178   1.385
 1106SOL    HW2 3327   1.737   4.034   1.322
 1107SOL     OW 3328   0.105   4.737   1.726
 1107SOL    HW1 3329   0.028   4.704   1.780
 1107SOL    HW2 3330   0.190   4.707   1.768
 1108SOL     OW 3331   0.672   3.927   1.489
 1108SOL    HW1 3332   0.762   3.911   1.449
 1108SOL    HW2 3333   0.680   3.932   1.588
 1109SOL     OW 3334   0.075   4.069   0.033
 1109SOL    HW1 3335  -0.017   4.041   0.004
 1109SOL    HW2 3336   0.106   4.146  -0.023
 1110SOL     OW 3337   0.072   3.890   0.318
 1110SOL    HW1 3338   0.055   3.973   0.264
 1110SOL    HW2 3339   0.162   3.853   0.296
 1111SOL     OW 3340   0.716   4.289   1.708
 1111SOL    HW1 3341   0.735   4.354   1.782
 1111SOL    HW2 3342   0.776   4.209   1.717
 1112SOL     OW 3343   1.225   4.049   0.449
 1112SOL    HW1 3344   1.290   3.975   0.438
 1112SOL    HW2 3345   1.245   4.099   0.533
 1113SOL     OW 3346   0.594   4.469   0.652
 1113SOL    HW1 3347   0.644   4.554   0.633
 1113SOL    HW2 3348   0.506   4.471   0.604
 1114SOL     OW 3349   1.777   4.066   1.642
 1114SOL    HW1 3350   1.760   4.097   1.548
 1114SOL    HW2 3351   1.693   4.029   1.680
 1115SOL     OW 3352   0.859   4.680   0.861
 1115SOL    HW1 3353   0.913   4.611   0.909
 1115SOL    HW2 3354   0.827   4.749   0.927
 1116SOL     OW 3355   1.083   4.708   0.087
 1116SOL    HW1 3356   1.060   4.761   0.005
 1116SOL    HW2 3357   1.164   4.652   0.068
 1117SOL     OW 3358   1.824   3.916   1.227
 1117SOL    HW1 3359   1.820   3.826   1.271
 1117SOL    HW2 3360   1.827   3.905   1.128
 1118SOL     OW 3361   0.428   4.148   0.520
 1118SOL    HW1 3362   0.458   4.076   0.458
 1118SOL    HW2 3363   0.389   4.108   0.603
 1119SOL     OW 3364   0.317   4.271   1.280
 1119SOL    HW1 3365   0.355   4.212   1.352
 1119SOL    HW2 3366   0.357   4.245   1.192
 1120SOL     OW 3367   1.424   3.938   1.112
 1120SOL    HW1 3368   1.476   3.873   1.167
 1120SOL    HW2 3369   1.375   4.001   1.173
 1121SOL     OW 3370   1.001   3.758   1.154
 1121SOL    HW1 3371   0.938   3.686   1.123
 1121SOL    HW2 3372   1.094   3.722   1.154
 1122SOL     OW 3373   1.352   3.776   0.168
 1122SOL    HW1 3374   1.387   3.735   0.084
 1122SOL    HW2 3375   1.262   3.738   0.188
 1123SOL     OW 3376   1.300   4.177   0.691
 1123SOL    HW1 3377   1.241   4.257   0.695
 1123SOL    HW2 3378   1.315   4.142   0.784
 1124SOL     OW 3379   1.593   3.945   0.882
 1124SOL    HW1 3380   1.509   3.944   0.936
 1124SOL    HW2 3381   1.595   4.028   0.826
 1125SOL     OW 3382   0.230   4.352   1.975
 1125SOL    HW1 3383   0.137   4.350   2.012
 1125SOL    HW2 3384   0.231   4.313   1.883
 1126SOL     OW 3385   0.225   3.999   2.858
 1126SOL    HW1 3386   0.260   3.982   2.950
 1126SOL    HW2 3387   0.137   3.954   2.846
 1127SOL     OW 3388   0.019   4.092   2.509
 1127SOL    HW1 3389  -0.063   4.135   2.548
 1127SOL    HW2 3390  -0.009   4.019   2.446
 1128SOL     OW 3391   1.755   4.331   2.093
 1128SOL    HW1 3392   1.743   4.318   1.994
 1128SOL    HW2 3393   1.725   4.250   2.142
 1129SOL     OW 3394   0.850   4.522   3.685
 1129SOL    HW1 3395   0.846   4.598   3.750
 1129SOL    HW2 3396   0.872   4.558   3.594
 1130SOL     OW 3397   0.685   4.736   2.527
 1130SOL    HW1 3398   0.754   4.720   2.597
 1130SOL    HW2 3399   0.612   4.793   2.565
 1131SOL     OW 3400   0.438   4.116   3.361
 1131SOL    HW1 3401   0.520   4.060   3.370
 1131SOL    HW2 3402   0.357   4.058   3.365
 1132SOL     OW 3403   1.603   4.171   2.599
 1132SOL    HW1 3404   1.529   4.217   2.549
 1132SOL    HW2 3405   1.654   4.239   2.652
 1133SOL     OW 3406   1.594   3.838   3.342
 1133SOL    HW1 3407   1.576   3.905   3.270
 1133SOL    HW2 3408   1.591   3.884   3.431
 1134SOL     OW 3409   0.122   4.367   2.425
 1134SOL    HW1 3410   0.077   4.279   2.442
 1134SOL    HW2 3411   0.121   4.421   2.509
 1135SOL     OW 3412   0.113   4.461   3.459
 1135SOL    HW1 3413   0.201   4.448   3.504
 1135SOL    HW2 3414   0.100   4.558   3.437
 1136SOL     OW 3415   0.809   3.728   2.364
 1136SOL    HW1 3416   0.849   3.819   2.355
 1136SOL    HW2 3417   0.709   3.736   2.370
 1137SOL     OW 3418   0.317   3.975   3.663
 1137SOL    HW1 3419   0.388   4.046   3.669
 1137SOL    HW2 3420   0.229   4.014   3.691
 1138SOL     OW 3421   0.598   4.453   2.132
 1138SOL    HW1 3422   0.622   4.522   2.064
 1138SOL    HW2 3423   0.520   4.486   2.186
 1139SOL     OW 3424   1.281   4.069   2.806
 1139SOL    HW1 3425   1.195   4.019   2.793
 1139SOL    HW2 3426   1.343   4.015   2.862
 1140SOL     OW 3427   0.807   4.329   3.327
 1140SOL    HW1 3428   0.760   4.326   3.416
 1140SOL    HW2 3429   0.756   4.274   3.261
 1141SOL     OW 3430   1.394   4.193   3.536
 1141SOL    HW1 3431   1.374   4.236   3.624
 1141SOL    HW2 3432   1.472   4.131   3.545
 1142SOL     OW 3433   0.991   4.134   3.104
 1142SOL    HW1 3434   0.914   4.168   3.158
 1142SOL    HW2 3435   0.957   4.083   3.025
 1143SOL     OW 3436   1.041   4.425   2.291
 1143SOL    HW1 3437   1.067   4.421   2.387
 1143SOL    HW2 3438   0.956   4.374   2.277
 1144SOL     OW 3439   0.076   4.535   2.651
 1144SOL    HW1 3440   0.175   4.523   2.660
 1144SOL    HW2 3441   0.052   4.630   2.672
 1145SOL     OW 3442   0.865   4.072   2.057
 1145SOL    HW1 3443   0.924   4.135   2.008
 1145SOL    HW2 3444   0.884   3.978   2.028
 1146SOL     OW 3445   1.719   4.309   3.693
 1146SOL    HW1 3446   1.693   4.398   3.657
 1146SOL    HW2 3447   1.717   4.241   3.620
 1147SOL     OW 3448   0.550   3.920   2.747
 1147SOL    HW1 3449   0.545   3.915   2.847
 1147SOL    HW2 3450   0.552   4.016   2.718
 1148SOL     OW 3451   1.458   4.459   2.590
 1148SOL    HW1 3452   1.453   4.394   2.665
 1148SOL    HW2 3453   1.538   4.518   2.603
 1149SOL     OW 3454   0.202   4.009   3.360
 1149SOL    HW1 3455   0.122   4.069   3.347
 1149SOL    HW2 3456   0.192   3.960   3.446
 1150SOL     OW 3457   1.400   3.831   2.288
 1150SOL    HW1 3458   1.376   3.794   2.198
 1150SOL    HW2 3459   1.499   3.847   2.292
 1151SOL     OW 3460   0.382   4.424   2.342
 1151SOL    HW1 3461   0.427   4.334   2.339
 1151SOL    HW2 3462   0.288   4.413   2.375
 1152SOL     OW 3463   1.547   3.946   3.591
 1152SOL    HW1 3464   1.542   3.983   3.683
 1152SOL    HW2 3465   1.475   3.877   3.579
 1153SOL     OW 3466   0.614   3.846   1.979
 1153SOL    HW1 3467   0.712   3.824   1.986
 1153SOL    HW2 3468   0.583   3.829   1.886
 1154SOL     OW 3469   0.781   3.988   3.611
 1154SOL    HW1 3470   0.848   3.927   3.654
 1154SOL    HW2 3471   0.708   4.007   3.676
 1155SOL     OW 3472   1.351   4.314   3.295
 1155SOL    HW1 3473   1.379   4.271   3.380
 1155SOL    HW2 3474   1.376   4.410   3.296
 1156SOL     OW 3475   0.922   4.227   2.761
 1156SOL    HW1 3476   0.897   4.218   2.665
 1156SOL    HW2 3477   0.970   4.145   2.792
 1157SOL     OW 3478   0.539   3.788   2.374
 1157SOL    HW1 3479   0.458   3.789   2.432
 1157SOL    HW2 3480   0.542   3.871   2.319
 1158SOL     OW 3481   0.297   3.759   2.033
 1158SOL    HW1 3482   0.346   3.843   2.012
 1158SOL    HW2 3483   0.359   3.694   2.078
 1159SOL     OW 3484   0.935   3.960   2.342
 1159SOL    HW1 3485   0.887   4.001   2.264
 1159SOL    HW2 3486   1.034   3.958   2.323
 1160SOL     OW 3487   1.076   4.407   3.326
 1160SOL    HW1 3488   0.996   4.346   3.329
 1160SOL    HW2 3489   1.157   4.354   3.302
 1161SOL     OW 3490   1.032   4.273   1.878
 1161SOL    HW1 3491   0.991   4.355   1.839
 1161SOL    HW2 3492   1.096   4.299   1.951
 1162SOL     OW 3493   0.078   4.280   3.248
 1162SOL    HW1 3494   0.170   4.279   3.207
 1162SOL    HW2 3495   0.072   4.354   3.315
 1163SOL     OW 3496   0.561   3.946   3.009
 1163SOL    HW1 3497   0.599   3.862   3.046
 1163SOL    HW2 3498   0.473   3.965   3.053
 1164SOL     OW 3499   0.866   4.178   2.504
 1164SOL    HW1 3500   0.834   4.250   2.442
 1164SOL    HW2 3501   0.890   4.097   2.451
 1165SOL     OW 3502   1.017   3.763   2.615
 1165SOL    HW1 3503   0.945   3.768   2.546
 1165SOL    HW2 3504   0.993   3.694   2.684
 1166SOL     OW 3505   1.466   4.314   2.854
 1166SOL    HW1 3506   1.436   4.219   2.861
 1166SOL    HW2 3507   1.539   4.330   2.920
 1167SOL     OW 3508   1.390   4.299   1.940
 1167SOL    HW1 3509   1.336   4.278   2.021
 1167SOL    HW2 3510   1.481   4.258   1.949
 1168SOL     OW 3511   0.527   3.980   2.190
 1168SOL    HW1 3512   0.554   3.921   2.115
 1168SOL    HW2 3513   0.527   4.075   2.159
 1169SOL     OW 3514   0.915   3.813   3.264
 1169SOL    HW1 3515   0.940   3.793   3.169
 1169SOL    HW2 3516   0.987   3.869   3.306
 1170SOL     OW 3517   0.705   4.774   2.230
 1170SOL    HW1 3518   0.691   4.781   2.329
 1170SOL    HW2 3519   0.789   4.723   2.212
 1171SOL     OW 3520   0.410   4.537   3.113
 1171SOL    HW1 3521   0.496   4.549   3.163
 1171SOL    HW2 3522   0.368   4.450   3.140
 1172SOL     OW 3523   1.274   4.110   3.124
 1172SOL    HW1 3524   1.295   4.184   3.188
 1172SOL    HW2 3525   1.185   4.127   3.081
 1173SOL     OW 3526   0.566   4.261   2.727
 1173SOL    HW1 3527   0.578   4.327   2.653
 1173SOL    HW2 3528   0.612   4.295   2.810
 1174SOL     OW 3529   1.582   4.363   2.334
 1174SOL    HW1 3530   1.551   4.424   2.407
 1174SOL    HW2 3531   1.632   4.415   2.265
 1175SOL     OW 3532   1.587   4.503   3.532
 1175SOL    HW1 3533   1.495   4.541   3.527
 1175SOL    HW2 3534   1.647   4.550   3.467
 1176SOL     OW 3535   1.013   3.829   3.632
 1176SOL    HW1 3536   1.019   3.914   3.580
 1176SOL    HW2 3537   1.045   3.753   3.575
 1177SOL     OW 3538   0.504   3.774   3.602
 1177SOL    HW1 3539   0.462   3.717   3.532
 1177SOL    HW2 3540   0.438   3.843   3.634
 1178SOL     OW 3541   1.360   4.586   2.907
 1178SOL    HW1 3542   1.285   4.586   2.841
 1178SOL    HW2 3543   1.397   4.494   2.916
 1179SOL     OW 3544   1.209   4.249   2.137
 1179SOL    HW1 3545   1.222   4.165   2.191
 1179SOL    HW2 3546   1.180   4.323   2.197
 1180SOL     OW 3547   0.307   3.937   3.093
 1180SOL    HW1 3548   0.284   3.974   3.183
 1180SOL    HW2 3549   0.277   3.842   3.087
 1181SOL     OW 3550   0.732   4.358   2.926
 1181SOL    HW1 3551   0.791   4.332   2.850
 1181SOL    HW2 3552   0.704   4.454   2.915
 1182SOL     OW 3553   1.728   4.659   3.716
 1182SOL    HW1 3554   1.682   4.652   3.627
 1182SOL    HW2 3555   1.666   4.703   3.782
 1183SOL     OW 3556   0.307   3.787   2.480
 1183SOL    HW1 3557   0.296   3.881   2.513
 1183SOL    HW2 3558   0.302   3.724   2.557
 1184SOL     OW 3559   1.622   4.091   2.236
 1184SOL    HW1 3560   1.624   4.015   2.300
 1184SOL    HW2 3561   1.574   4.168   2.276
 1185SOL     OW 3562   1.540   3.998   1.987
 1185SOL    HW1 3563   1.479   3.923   2.010
 1185SOL    HW2 3564   1.562   4.050   2.070
 1186SOL     OW 3565   0.319   4.534   2.811
 1186SOL    HW1 3566   0.412   4.570   2.816
 1186SOL    HW2 3567   0.313   4.449   2.863
 1187SOL     OW 3568   0.339   4.233   2.868
 1187SOL    HW1 3569   0.287   4.150   2.851
 1187SOL    HW2 3570   0.416   4.238   2.804
 1188SOL     OW 3571   1.138   4.104   3.540
 1188SOL    HW1 3572   1.093   4.167   3.604
 1188SOL    HW2 3573   1.231   4.135   3.523
 1189SOL     OW 3574   1.160   3.931   3.339
 1189SOL    HW1 3575   1.160   3.995   3.416
 1189SOL    HW2 3576   1.188   3.979   3.256
 1190SOL     OW 3577   0.040   4.268   2.976
 1190SOL    HW1 3578   0.125   4.235   2.935
 1190SOL    HW2 3579   0.053   4.283   3.074
 1191SOL     OW 3580   0.189   4.244   3.584
 1191SOL    HW1 3581   0.248   4.204   3.514
 1191SOL    HW2 3582   0.131   4.315   3.543
 1192SOL     OW 3583   0.815   4.296   2.187
 1192SOL    HW1 3584   0.822   4.207   2.141
 1192SOL    HW2 3585   0.721   4.330   2.179
 1193SOL     OW 3586   1.657   4.328   3.068
 1193SOL    HW1 3587   1.619   4.259   3.130
 1193SOL    HW2 3588   1.739   4.292   3.024
 1194SOL     OW 3589   0.671   4.188   3.131
 1194SOL    HW1 3590   0.637   4.099   3.101
 1194SOL    HW2 3591   0.697   4.242   3.051
 1195SOL     OW 3592   0.473   4.224   2.053
 1195SOL    HW1 3593   0.534   4.304   2.057
 1195SOL    HW2 3594   0.378   4.255   2.060
 1196SOL     OW 3595   1.726   3.859   2.385
 1196SOL    HW1 3596   1.799   3.842   2.318
 1196SOL    HW2 3597   1.695   3.772   2.423
 1197SOL     OW 3598   1.280   4.651   2.534
 1197SOL    HW1 3599   1.340   4.570   2.536
 1197SOL    HW2 3600   1.320   4.720   2.474
 1198SOL     OW 3601   1.841   3.899   2.825
 1198SOL    HW1 3602   1.880   3.814   2.789
 1198SOL    HW2 3603   1.743   3.901   2.806
 1199SOL     OW 3604   0.263   4.050   2.582
 1199SOL    HW1 3605   0.184   4.101   2.548
 1199SOL    HW2 3606   0.254   4.035   2.680
 1200SOL     OW 3607   0.916   4.634   2.153
 1200SOL    HW1 3608   0.979   4.672   2.085
 1200SOL    HW2 3609   0.956   4.551   2.192
 1201SOL     OW 3610   1.039   4.822   2.558
 1201SOL    HW1 3611   0.969   4.775   2.612
 1201SOL    HW2 3612   1.098   4.754   2.515
 1202SOL     OW 3613   1.014   3.960   2.833
 1202SOL    HW1 3614   1.006   3.924   2.740
 1202SOL    HW2 3615   1.012   3.884   2.898
 1203SOL     OW 3616   1.709   4.109   3.243
 1203SOL    HW1 3617   1.782   4.178   3.247
 1203SOL    HW2 3618   1.737   4.034   3.184
 1204SOL     OW 3619   0.105   4.737   3.588
 1204SOL    HW1 3620   0.028   4.704   3.642
 1204SOL    HW2 3621   0.190   4.707   3.630
 1205SOL     OW 3622   0.672   3.927   3.351
 1205SOL    HW1 3623   0.762   3.911   3.311
 1205SOL    HW2 3624   0.680   3.932   3.450
 1206SOL     OW 3625   0.075   4.069   1.895
 1206SOL    HW1 3626  -0.017   4.041   1.866
 1206SOL    HW2 3627   0.106   4.146   1.839
 1207SOL     OW 3628   0.072   3.890   2.180
 1207SOL    HW1 3629   0.055   3.973   2.126
 1207SOL    HW2 3630   0.162   3.853   2.158
 1208SOL     OW 3631   0.716   4.289   3.570
 1208SOL    HW1 3632   0.735   4.354   3.644
 1208SOL    HW2 3633   0.776   4.209   3.579
 1209SOL     OW 3634   1.225   4.049   2.311
 1209SOL    HW1 3635   1.290   3.975   2.300
 1209SOL    HW2 3636   1.245   4.099   2.395
 1210SOL     OW 3637   0.594   4.469   2.514
 1210SOL    HW1 3638   0.644   4.554   2.495
 1210SOL    HW2 3639   0.506   4.471   2.466
 1211SOL     OW 3640   1.777   4.066   3.504
 1211SOL    HW1 3641   1.760   4.097   3.410
 1211SOL    HW2 3642   1.693   4.029   3.542
 1212SOL     OW 3643   0.859   4.680   2.723
 1212SOL    HW1 3644   0.913   4.611   2.771
 1212SOL    HW2 3645   0.827   4.749   2.789
 1213SOL     OW 3646   1.083   4.708   1.949
 1213SOL    HW1 3647   1.060   4.761   1.867
 1213SOL    HW2 3648   1.164   4.652   1.930
 1214SOL     OW 3649   1.824   3.916   3.089
 1214SOL    HW1 3650   1.820   3.826   3.133
 1214SOL    HW2 3651   1.827   3.905   2.990
 1215SOL     OW 3652   0.428   4.148   2.382
 1215SOL    HW1 3653   0.458   4.076   2.320
 1215SOL    HW2 3654   0.389   4.108   2.465
 1216SOL     OW 3655   0.317   4.271   3.142
 1216SOL    HW1 3656   0.355   4.212   3.214
 1216SOL    HW2 3657   0.357   4.245   3.054
 1217SOL     OW 3658   1.424   3.938   2.974
 1217SOL    HW1 3659   1.476   3.873   3.029
 1217SOL    HW2 3660   1.375   4.001   3.035
 1218SOL     OW 3661   1.001   3.758   3.016
 1218SOL    HW1 3662   0.938   3.686   2.985
 1218SOL    HW2 3663   1.094   3.722   3.016
 1219SOL     OW 3664   1.352   3.776   2.030
 1219SOL    HW1 3665   1.387   3.735   1.946
 1219SOL    HW2 3666   1.262   3.738   2.050
 1220SOL     OW 3667   1.300   4.177   2.553
 1220SOL    HW1 3668   1.241   4.257   2.557
 1220SOL    HW2 3669   1.315   4.142   2.646
 1221SOL     OW 3670   1.593   3.945   2.744
 1221SOL    HW1 3671   1.509   3.944   2.798
 1221SOL    HW2 3672   1.595   4.028   2.688
 1222SOL     OW 3673   0.230   4.352   3.837
 1222SOL    HW1 3674   0.137   4.350   3.874
 1222SOL    HW2 3675   0.231   4.313   3.745
 1223SOL     OW 3676   0.019   4.092   4.371
 1223SOL    HW1 3677  -0.063   4.135   4.410
 1223SOL    HW2 3678  -0.009   4.019   4.308
 1224SOL     OW 3679   1.755   4.331   3.955
 1224SOL    HW1 3680   1.743   4.318   3.856
 1224SOL    HW2 3681   1.725   4.250   4.004
 1225SOL     OW 3682   0.685   4.736   4.389
 1225SOL    HW1 3683   0.754   4.720   4.459
 1225SOL    HW2 3684   0.612   4.793   4.427
 1226SOL     OW 3685   1.603   4.171   4.461
 1226SOL    HW1 3686   1.529   4.217   4.411
 1226SOL    HW2 3687   1.654   4.239   4.514
 1227SOL     OW 3688   0.122   4.367   4.287
 1227SOL    HW1 3689   0.077   4.279   4.304
 1227SOL    HW2 3690   0.121   4.421   4.371
 1228SOL     OW 3691   0.809   3.728   4.226
 1228SOL    HW1 3692   0.849   3.819   4.217
 1228SOL    HW2 3693   0.709   3.736   4.232
 1229SOL     OW 3694   0.598   4.453   3.994
 1229SOL    HW1 3695   0.622   4.522   3.926
 1229SOL    HW2 3696   0.520   4.486   4.048
 1230SOL     OW 3697   1.281   4.069   4.668
 1230SOL    HW1 3698   1.195   4.019   4.655
 1230SOL    HW2 3699   1.343   4.015   4.724
 1231SOL     OW 3700   1.041   4.425   4.153
 1231SOL    HW1 3701   1.067   4.421   4.249
 1231SOL    HW2 3702   0.956   4.374   4.139
 1232SOL     OW 3703   0.076   4.535   4.513
 1232SOL    HW1 3704   0.175   4.523   4.522
 1232SOL    HW2 3705   0.052   4.630   4.534
 1233SOL     OW 3706   0.865   4.072   3.919
 1233SOL    HW1 3707   0.924   4.135   3.870
 1233SOL    HW2 3708   0.884   3.978   3.890
 1234SOL     OW 3709   1.400   3.831   4.150
 1234SOL    HW1 3710   1.376   3.794   4.060
 1234SOL    HW2 3711   1.499   3.847   4.154
 1235SOL     OW 3712   0.382   4.424   4.204
 1235SOL    HW1 3713   0.427   4.334   4.201
 1235SOL    HW2 3714   0.288   4.413   4.237
 1236SOL     OW 3715   0.614   3.846   3.841
 1236SOL    HW1 3716   0.712   3.824   3.848
 1236SOL    HW2 3717   0.583   3.829   3.748
 1237SOL     OW 3718   0.539   3.788   4.236
 1237SOL    HW1 3719   0.458   3.789   4.294
 1237SOL    HW2 3720   0.542   3.871   4.181
 1238SOL     OW 3721   0.297   3.759   3.895
 1238SOL    HW1 3722   0.346   3.843   3.874
 1238SOL    HW2 3723   0.359   3.694   3.940
 1239SOL     OW 3724   0.935   3.960   4.204
 1239SOL    HW1 3725   0.887   4.001   4.126
 1239SOL    HW2 3726   1.034   3.958   4.185
 1240SOL     OW 3727   1.032   4.273   3.740
 1240SOL    HW1 3728   0.991   4.355   3.701
 1240SOL    HW2 3729   1.096   4.299   3.813
 1241SOL     OW 3730   0.866   4.178   4.366
 1241SOL    HW1 3731   0.834   4.250   4.304
 1241SOL    HW2 3732   0.890   4.097   4.313
 1242SOL     OW 3733   1.390   4.299   3.802
 1242SOL    HW1 3734   1.336   4.278   3.883
 1242SOL    HW2 3735   1.481   4.258   3.811
 1243SOL     OW 3736   0.527   3.980   4.052
 1243SOL    HW1 3737   0.554   3.921   3.977
 1243SOL    HW2 3738   0.527   4.075   4.021
 1244SOL     OW 3739   0.705   4.774   4.092
 1244SOL    HW1 3740   0.691   4.781   4.191
 1244SOL    HW2 3741   0.789   4.723   4.074
 1245SOL     OW 3742   1.582   4.363   4.196
 1245SOL    HW1 3743   1.551   4.424   4.269
 1245SOL    HW2 3744   1.632   4.415   4.127
 1246SOL     OW 3745   1.209   4.249   3.999
 1246SOL    HW1 3746   1.222   4.165   4.053
 1246SOL    HW2 3747   1.180   4.323   4.059
 1247SOL     OW 3748   0.307   3.787   4.342
 1247SOL    HW1 3749   0.296   3.881   4.375
 1247SOL    HW2 3750   0.302   3.724   4.419
 1248SOL     OW 3751   1.622   4.091   4.098
 1248SOL    HW1 3752   1.624   4.015   4.162
 1248SOL    HW2 3753   1.574   4.168   4.138
 1249SOL     OW 3754   1.540   3.998   3.849
 1249SOL    HW1 3755   1.479   3.923   3.872
 1249SOL    HW2 3756   1.562   4.050   3.932
 1250SOL     OW 3757   0.040   4.268   4.838
 1250SOL    HW1 3758   0.125   4.235   4.797
 1250SOL    HW2 3759   0.053   4.283   4.936
 1251SOL     OW 3760   0.815   4.296   4.049
 1251SOL    HW1 3761   0.822   4.207   4.003
 1251SOL    HW2 3762   0.721   4.330   4.041
 1252SOL     OW 3763   0.473   4.224   3.915
 1252SOL    HW1 3764   0.534   4.304   3.919
 1252SOL    HW2 3765   0.378   4.255   3.922
 1253SOL     OW 3766   1.726   3.859   4.247
 1253SOL    HW1 3767   1.799   3.842   4.180
 1253SOL    HW2 3768   1.695   3.772   4.285
 1254SOL     OW 3769   1.280   4.651   4.396
 1254SOL    HW1 3770   1.340   4.570   4.398
 1254SOL    HW2 3771   1.320   4.720   4.336
 1255SOL     OW 3772   1.841   3.899   4.687
 1255SOL    HW1 3773   1.880   3.814   4.651
 1255SOL    HW2 3774   1.743   3.901   4.668
 1256SOL     OW 3775   0.263   4.050   4.444
 1256SOL    HW1 3776   0.184   4.101   4.410
 1256SOL    HW2 3777   0.254   4.035   4.542
 1257SOL     OW 3778   0.916   4.634   4.015
 1257SOL    HW1 3779   0.979   4.672   3.947
 1257SOL    HW2 3780   0.956   4.551   4.054
 1258SOL     OW 3781   0.075   4.069   3.757
 1258SOL    HW1 3782  -0.017   4.041   3.728
 1258SOL    HW2 3783   0.106   4.146   3.701
 1259SOL     OW 3784   0.072   3.890   4.042
 1259SOL    HW1 3785   0.055   3.973   3.988
 1259SOL    HW2 3786   0.162   3.853   4.020
 1260SOL     OW 3787   1.225   4.049   4.173
 1260SOL    HW1 3788   1.290   3.975   4.162
 1260SOL    HW2 3789   1.245   4.099   4.257
 1261SOL     OW 3790   0.594   4.469   4.376
 1261SOL    HW1 3791   0.644   4.554   4.357
 1261SOL    HW2 3792   0.506   4.471   4.328
 1262SOL     OW 3793   1.083   4.708   3.811
 1262SOL    HW1 3794   1.060   4.761   3.729
 1262SOL    HW2 3795   1.164   4.652   3.792
 1263SOL     OW 3796   0.428   4.148   4.244
 1263SOL    HW1 3797   0.458   4.076   4.182
 1263SOL    HW2 3798   0.389   4.108   4.327
 1264SOL     OW 3799   1.352   3.776   3.892
 1264SOL    HW1 3800   1.387   3.735   3.808
 1264SOL    HW2 3801   1.262   3.738   3.912
 1265SOL     OW 3802   1.300   4.177   4.415
 1265SOL    HW1 3803   1.241   4.257   4.419
 1265SOL    HW2 3804   1.315   4.142   4.508
 1266SOL     OW 3805   2.092   0.628   0.113
 1266SOL    HW1 3806   1.999   0.626   0.150
 1266SOL    HW2 3807   2.093   0.589   0.021
 1267SOL     OW 3808   2.087   0.275   0.996
 1267SOL    HW1 3809   2.122   0.258   1.088
 1267SOL    HW2 3810   1.999   0.230   0.984
 1268SOL     OW 3811   1.881   0.368   0.647
 1268SOL    HW1 3812   1.799   0.411   0.686
 1268SOL    HW2 3813   1.853   0.295   0.584
 1269SOL     OW 3814   2.431   1.275   1.165
 1269SOL    HW1 3815   2.338   1.268   1.128
 1269SOL    HW2 3816   2.442   1.364   1.209
 1270SOL     OW 3817   3.417   1.511   0.703
 1270SOL    HW1 3818   3.360   1.495   0.784
 1270SOL    HW2 3819   3.358   1.521   0.623
 1271SOL     OW 3820   2.997   0.703   0.717
 1271SOL    HW1 3821   3.054   0.781   0.692
 1271SOL    HW2 3822   2.937   0.729   0.793
 1272SOL     OW 3823   3.617   0.607   0.231
 1272SOL    HW1 3824   3.605   0.594   0.132
 1272SOL    HW2 3825   3.587   0.526   0.280
 1273SOL     OW 3826   2.630   1.144   1.023
 1273SOL    HW1 3827   2.552   1.161   1.083
 1273SOL    HW2 3828   2.664   1.231   0.987
 1274SOL     OW 3829   2.712   0.798   1.823
 1274SOL    HW1 3830   2.708   0.874   1.888
 1274SOL    HW2 3831   2.734   0.834   1.732
 1275SOL     OW 3832   2.547   1.012   0.665
 1275SOL    HW1 3833   2.616   0.996   0.735
 1275SOL    HW2 3834   2.474   1.069   0.703
 1276SOL     OW 3835   2.548   1.161   1.803
 1276SOL    HW1 3836   2.608   1.240   1.817
 1276SOL    HW2 3837   2.462   1.192   1.762
 1277SOL     OW 3838   2.197   1.435   1.061
 1277SOL    HW1 3839   2.119   1.404   1.008
 1277SOL    HW2 3840   2.255   1.493   1.004
 1278SOL     OW 3841   3.322   1.505   1.339
 1278SOL    HW1 3842   3.346   1.599   1.365
 1278SOL    HW2 3843   3.306   1.451   1.421
 1279SOL     OW 3844   2.300   0.392   1.499
 1279SOL    HW1 3845   2.382   0.336   1.508
 1279SOL    HW2 3846   2.219   0.334   1.503
 1280SOL     OW 3847   3.465   0.447   0.737
 1280SOL    HW1 3848   3.391   0.493   0.687
 1280SOL    HW2 3849   3.516   0.515   0.790
 1281SOL     OW 3850   2.093   1.713   0.483
 1281SOL    HW1 3851   2.127   1.790   0.537
 1281SOL    HW2 3852   2.137   1.713   0.393
 1282SOL     OW 3853   2.989   1.341   1.690
 1282SOL    HW1 3854   3.036   1.341   1.778
 1282SOL    HW2 3855   2.941   1.254   1.679
 1283SOL     OW 3856   2.092   1.434   0.538
 1283SOL    HW1 3857   2.066   1.530   0.538
 1283SOL    HW2 3858   2.021   1.380   0.583
 1284SOL     OW 3859   2.102   1.091   0.886
 1284SOL    HW1 3860   2.116   1.007   0.938
 1284SOL    HW2 3861   2.047   1.155   0.941
 1285SOL     OW 3862   2.482   1.786   1.439
 1285SOL    HW1 3863   2.390   1.769   1.474
 1285SOL    HW2 3864   2.510   1.878   1.465
 1286SOL     OW 3865   2.468   0.964   0.123
 1286SOL    HW1 3866   2.475   1.048   0.069
 1286SOL    HW2 3867   2.514   0.977   0.211
 1287SOL     OW 3868   3.456   0.114   1.480
 1287SOL    HW1 3869   3.438   0.181   1.408
 1287SOL    HW2 3870   3.453   0.160   1.569
 1288SOL     OW 3871   1.984   0.643   0.563
 1288SOL    HW1 3872   1.939   0.555   0.580
 1288SOL    HW2 3873   1.983   0.697   0.647
 1289SOL     OW 3874   3.704   1.767   0.359
 1289SOL    HW1 3875   3.758   1.738   0.439
 1289SOL    HW2 3876   3.734   1.857   0.330
 1290SOL     OW 3877   1.889   1.596   0.117
 1290SOL    HW1 3878   1.870   1.500   0.138
 1290SOL    HW2 3879   1.856   1.654   0.192
 1291SOL     OW 3880   3.551   0.922   0.612
 1291SOL    HW1 3881   3.646   0.893   0.620
 1291SOL    HW2 3882   3.543   0.987   0.537
 1292SOL     OW 3883   3.503   1.108   0.432
 1292SOL    HW1 3884   3.589   1.110   0.380
 1292SOL    HW2 3885   3.517   1.155   0.520
 1293SOL     OW 3886   1.975   0.737   1.597
 1293SOL    HW1 3887   2.063   0.724   1.642
 1293SOL    HW2 3888   1.962   0.834   1.575
 1294SOL     OW 3889   2.475   1.365   0.726
 1294SOL    HW1 3890   2.426   1.278   0.735
 1294SOL    HW2 3891   2.452   1.408   0.639
 1295SOL     OW 3892   3.155   1.228   1.423
 1295SOL    HW1 3893   3.192   1.155   1.365
 1295SOL    HW2 3894   3.207   1.233   1.508
 1296SOL     OW 3895   2.671   0.004   0.502
 1296SOL    HW1 3896   2.711   0.095   0.493
 1296SOL    HW2 3897   2.571   0.012   0.508
 1297SOL     OW 3898   2.059   0.976   1.264
 1297SOL    HW1 3899   2.148   0.931   1.250
 1297SOL    HW2 3900   1.986   0.911   1.245
 1298SOL     OW 3901   3.387   0.999   0.190
 1298SOL    HW1 3902   3.324   0.923   0.203
 1298SOL    HW2 3903   3.435   1.017   0.276
 1299SOL     OW 3904   3.049   1.792   1.616
 1299SOL    HW1 3905   3.073   1.852   1.540
 1299SOL    HW2 3906   3.056   1.697   1.586
 1300SOL     OW 3907   2.179   0.251   1.801
 1300SOL    HW1 3908   2.250   0.322   1.807
 1300SOL    HW2 3909   2.091   0.290   1.829
 1301SOL     OW 3910   3.328   1.417   0.953
 1301SOL    HW1 3911   3.269   1.423   1.033
 1301SOL    HW2 3912   3.313   1.329   0.907
 1302SOL     OW 3913   3.529   1.714   0.572
 1302SOL    HW1 3914   3.488   1.691   0.484
 1302SOL    HW2 3915   3.511   1.640   0.637
 1303SOL     OW 3916   2.460   0.729   0.270
 1303SOL    HW1 3917   2.484   0.798   0.202
 1303SOL    HW2 3918   2.382   0.762   0.324
 1304SOL     OW 3919   3.143   0.345   0.944
 1304SOL    HW1 3920   3.057   0.295   0.931
 1304SOL    HW2 3921   3.205   0.291   1.000
 1305SOL     OW 3922   3.438   1.662   0.307
 1305SOL    HW1 3923   3.527   1.708   0.310
 1305SOL    HW2 3924   3.417   1.638   0.212
 1306SOL     OW 3925   2.669   0.605   1.465
 1306SOL    HW1 3926   2.622   0.602   1.554
 1306SOL    HW2 3927   2.618   0.550   1.399
 1307SOL     OW 3928   3.256   0.469   1.674
 1307SOL    HW1 3929   3.236   0.512   1.762
 1307SOL    HW2 3930   3.334   0.407   1.683
 1308SOL     OW 3931   2.835   0.890   1.572
 1308SOL    HW1 3932   2.881   0.806   1.543
 1308SOL    HW2 3933   2.779   0.924   1.497
 1309SOL     OW 3934   2.853   0.410   1.242
 1309SOL    HW1 3935   2.776   0.444   1.296
 1309SOL    HW2 3936   2.819   0.359   1.163
 1310SOL     OW 3937   2.903   0.701   0.429
 1310SOL    HW1 3938   2.929   0.697   0.525
 1310SOL    HW2 3939   2.818   0.650   0.415
 1311SOL     OW 3940   1.938   0.811   0.789
 1311SOL    HW1 3941   2.037   0.799   0.798
 1311SOL    HW2 3942   1.914   0.906   0.810
 1312SOL     OW 3943   1.992   1.821   1.571
 1312SOL    HW1 3944   1.982   1.806   1.670
 1312SOL    HW2 3945   1.906   1.857   1.535
 1313SOL     OW 3946   2.727   0.348   0.195
 1313SOL    HW1 3947   2.786   0.411   0.146
 1313SOL    HW2 3948   2.746   0.254   0.166
 1314SOL     OW 3949   3.581   0.585   1.831
 1314SOL    HW1 3950   3.555   0.674   1.795
 1314SOL    HW2 3951   3.579   0.517   1.758
 1315SOL     OW 3952   3.224   1.144   0.545
 1315SOL    HW1 3953   3.307   1.115   0.497
 1315SOL    HW2 3954   3.175   1.211   0.489
 1316SOL     OW 3955   2.412   0.196   0.885
 1316SOL    HW1 3956   2.407   0.191   0.985
 1316SOL    HW2 3957   2.414   0.292   0.856
 1317SOL     OW 3958   2.870   1.456   0.477
 1317SOL    HW1 3959   2.824   1.528   0.425
 1317SOL    HW2 3960   2.866   1.476   0.575
 1318SOL     OW 3961   2.213   1.801   0.853
 1318SOL    HW1 3962   2.263   1.715   0.859
 1318SOL    HW2 3963   2.278   1.878   0.850
 1319SOL     OW 3964   3.657   1.066   0.873
 1319SOL    HW1 3965   3.595   1.051   0.797
 1319SOL    HW2 3966   3.605   1.077   0.958
 1320SOL     OW 3967   3.089   1.550   1.506
 1320SOL    HW1 3968   3.095   1.473   1.570
 1320SOL    HW2 3969   3.037   1.524   1.426
 1321SOL     OW 3970   2.183   0.943   0.242
 1321SOL    HW1 3971   2.265   0.982   0.200
 1321SOL    HW2 3972   2.156   0.861   0.193
 1322SOL     OW 3973   3.320   0.735   0.728
 1322SOL    HW1 3974   3.315   0.670   0.803
 1322SOL    HW2 3975   3.400   0.794   0.741
 1323SOL     OW 3976   2.323   1.266   1.727
 1323SOL    HW1 3977   2.273   1.267   1.641
 1323SOL    HW2 3978   2.260   1.248   1.803
 1324SOL     OW 3979   2.973   1.776   0.237
 1324SOL    HW1 3980   2.913   1.714   0.287
 1324SOL    HW2 3981   3.004   1.732   0.152
 1325SOL     OW 3982   2.064   0.285   1.498
 1325SOL    HW1 3983   1.984   0.345   1.485
 1325SOL    HW2 3984   2.054   0.236   1.584
 1326SOL     OW 3985   3.494   1.377   0.081
 1326SOL    HW1 3986   3.462   1.471   0.071
 1326SOL    HW2 3987   3.418   1.314   0.069
 1327SOL     OW 3988   2.326   1.743   0.323
 1327SOL    HW1 3989   2.359   1.782   0.409
 1327SOL    HW2 3990   2.402   1.736   0.258
 1328SOL     OW 3991   3.262   0.107   0.426
 1328SOL    HW1 3992   3.238   0.070   0.336
 1328SOL    HW2 3993   3.361   0.123   0.430
 1329SOL     OW 3994   2.111   1.785   1.241
 1329SOL    HW1 3995   2.168   1.720   1.291
 1329SOL    HW2 3996   2.095   1.752   1.148
 1330SOL     OW 3997   2.802   1.698   0.904
 1330SOL    HW1 3998   2.882   1.641   0.925
 1330SOL    HW2 3999   2.753   1.658   0.827
 1331SOL     OW 4000   2.244   0.700   0.480
 1331SOL    HW1 4001   2.289   0.610   0.477
 1331SOL    HW2 4002   2.150   0.689   0.513
 1332SOL     OW 4003   3.409   0.222   1.729
 1332SOL    HW1 4004   3.404   0.259   1.821
 1332SOL    HW2 4005   3.337   0.153   1.717
 1333SOL     OW 4006   2.476   0.122   0.117
 1333SOL    HW1 4007   2.574   0.100   0.124
 1333SOL    HW2 4008   2.445   0.105   0.024
 1334SOL     OW 4009   2.643   0.264   1.749
 1334SOL    HW1 4010   2.710   0.203   1.792
 1334SOL    HW2 4011   2.570   0.283   1.814
 1335SOL     OW 4012   2.750   1.514   1.195
 1335SOL    HW1 4013   2.727   1.489   1.101
 1335SOL    HW2 4014   2.811   1.445   1.234
 1336SOL     OW 4015   3.213   0.590   1.433
 1336SOL    HW1 4016   3.241   0.547   1.518
 1336SOL    HW2 4017   3.238   0.686   1.434
 1337SOL     OW 4018   2.665   1.402   0.924
 1337SOL    HW1 4019   2.755   1.416   0.882
 1337SOL    HW2 4020   2.594   1.404   0.853
 1338SOL     OW 4021   2.784   0.503   0.899
 1338SOL    HW1 4022   2.759   0.494   0.803
 1338SOL    HW2 4023   2.832   0.421   0.930
 1339SOL     OW 4024   2.401   0.064   0.512
 1339SOL    HW1 4025   2.320   0.065   0.570
 1339SOL    HW2 4026   2.404   0.147   0.457
 1340SOL     OW 4027   3.296   1.188   0.041
 1340SOL    HW1 4028   3.328   1.112   0.098
 1340SOL    HW2 4029   3.204   1.215   0.071
 1341SOL     OW 4030   2.159   0.035   0.171
 1341SOL    HW1 4031   2.208   0.119   0.150
 1341SOL    HW2 4032   2.221  -0.030   0.216
 1342SOL     OW 4033   2.797   0.236   0.480
 1342SOL    HW1 4034   2.749   0.277   0.402
 1342SOL    HW2 4035   2.896   0.234   0.461
 1343SOL     OW 4036   2.938   0.683   1.464
 1343SOL    HW1 4037   2.858   0.622   1.467
 1343SOL    HW2 4038   3.019   0.630   1.440
 1344SOL     OW 4039   3.089   1.570   0.793
 1344SOL    HW1 4040   3.110   1.644   0.728
 1344SOL    HW2 4041   3.157   1.570   0.866
 1345SOL     OW 4042   2.321   1.152   0.741
 1345SOL    HW1 4043   2.250   1.125   0.806
 1345SOL    HW2 4044   2.295   1.124   0.648
 1346SOL     OW 4045   3.133   1.797   0.591
 1346SOL    HW1 4046   3.177   1.861   0.527
 1346SOL    HW2 4047   3.083   1.849   0.661
 1347SOL     OW 4048   2.894   0.549   0.016
 1347SOL    HW1 4049   2.853   0.631  -0.023
 1347SOL    HW2 4050   2.958   0.575   0.089
 1348SOL     OW 4051   1.940   0.556   1.386
 1348SOL    HW1 4052   2.032   0.555   1.345
 1348SOL    HW2 4053   1.934   0.630   1.453
 1349SOL     OW 4054   2.423   0.222   1.147
 1349SOL    HW1 4055   2.461   0.138   1.184
 1349SOL    HW2 4056   2.335   0.241   1.191
 1350SOL     OW 4057   2.728   0.454   0.642
 1350SOL    HW1 4058   2.696   0.526   0.580
 1350SOL    HW2 4059   2.752   0.373   0.589
 1351SOL     OW 4060   2.879   0.039   0.753
 1351SOL    HW1 4061   2.807   0.044   0.684
 1351SOL    HW2 4062   2.855  -0.030   0.822
 1352SOL     OW 4063   3.291   1.173   0.867
 1352SOL    HW1 4064   3.236   1.089   0.860
 1352SOL    HW2 4065   3.317   1.202   0.775
 1353SOL     OW 4066   3.328   0.590   0.992
 1353SOL    HW1 4067   3.298   0.495   0.999
 1353SOL    HW2 4068   3.401   0.606   1.058
 1354SOL     OW 4069   3.719   0.833   0.377
 1354SOL    HW1 4070   3.761   0.769   0.441
 1354SOL    HW2 4071   3.681   0.782   0.299
 1355SOL     OW 4072   2.350   1.385   0.174
 1355SOL    HW1 4073   2.263   1.370   0.221
 1355SOL    HW2 4074   2.333   1.411   0.079
 1356SOL     OW 4075   3.526   1.280   0.657
 1356SOL    HW1 4076   3.625   1.288   0.671
 1356SOL    HW2 4077   3.481   1.364   0.688
 1357SOL     OW 4078   3.252   0.575   0.078
 1357SOL    HW1 4079   3.198   0.554   0.159
 1357SOL    HW2 4080   3.343   0.534   0.087
 1358SOL     OW 4081   2.389   0.256   0.328
 1358SOL    HW1 4082   2.416   0.197   0.253
 1358SOL    HW2 4083   2.389   0.351   0.297
 1359SOL     OW 4084   3.616   1.223   1.588
 1359SOL    HW1 4085   3.707   1.184   1.575
 1359SOL    HW2 4086   3.624   1.319   1.612
 1360SOL     OW 4087   2.926   1.347   1.340
 1360SOL    HW1 4088   2.846   1.324   1.395
 1360SOL    HW2 4089   3.009   1.321   1.389
 1361SOL     OW 4090   3.454   1.629   1.625
 1361SOL    HW1 4091   3.481   1.663   1.535
 1361SOL    HW2 4092   3.533   1.591   1.671
 1362SOL     OW 4093   2.973   1.195   1.100
 1362SOL    HW1 4094   2.933   1.239   1.181
 1362SOL    HW2 4095   2.932   1.232   1.017
 1363SOL     OW 4096   3.500   1.099   1.079
 1363SOL    HW1 4097   3.505   1.180   1.138
 1363SOL    HW2 4098   3.414   1.101   1.028
 1364SOL     OW 4099   2.777   0.089   1.402
 1364SOL    HW1 4100   2.802   0.069   1.307
 1364SOL    HW2 4101   2.849   0.145   1.444
 1365SOL     OW 4102   2.842   1.116   1.719
 1365SOL    HW1 4103   2.743   1.122   1.729
 1365SOL    HW2 4104   2.865   1.036   1.663
 1366SOL     OW 4105   2.567   1.050   0.368
 1366SOL    HW1 4106   2.553   1.057   0.467
 1366SOL    HW2 4107   2.651   0.999   0.350
 1367SOL     OW 4108   2.272   0.813   1.251
 1367SOL    HW1 4109   2.358   0.825   1.301
 1367SOL    HW2 4110   2.230   0.726   1.278
 1368SOL     OW 4111   3.136   0.386   1.262
 1368SOL    HW1 4112   3.157   0.460   1.326
 1368SOL    HW2 4113   3.047   0.403   1.219
 1369SOL     OW 4114   1.926   1.564   1.331
 1369SOL    HW1 4115   1.880   1.646   1.297
 1369SOL    HW2 4116   2.024   1.583   1.340
 1370SOL     OW 4117   2.229   1.100   0.501
 1370SOL    HW1 4118   2.222   1.183   0.445
 1370SOL    HW2 4119   2.233   1.020   0.441
 1371SOL     OW 4120   2.428   0.537   0.865
 1371SOL    HW1 4121   2.440   0.603   0.791
 1371SOL    HW2 4122   2.474   0.571   0.948
 1372SOL     OW 4123   3.114   1.348   0.388
 1372SOL    HW1 4124   3.164   1.425   0.428
 1372SOL    HW2 4125   3.019   1.350   0.420
 1373SOL     OW 4126   3.134   1.445   1.142
 1373SOL    HW1 4127   3.181   1.458   1.229
 1373SOL    HW2 4128   3.068   1.371   1.151
 1374SOL     OW 4129   3.444   0.639   0.472
 1374SOL    HW1 4130   3.413   0.700   0.545
 1374SOL    HW2 4131   3.494   0.691   0.403
 1375SOL     OW 4132   2.216   1.510   1.329
 1375SOL    HW1 4133   2.195   1.466   1.242
 1375SOL    HW2 4134   2.313   1.536   1.332
 1376SOL     OW 4135   2.264   0.751   1.598
 1376SOL    HW1 4136   2.332   0.806   1.551
 1376SOL    HW2 4137   2.304   0.663   1.625
 1377SOL     OW 4138   3.449   0.779   1.670
 1377SOL    HW1 4139   3.357   0.817   1.665
 1377SOL    HW2 4140   3.509   0.826   1.605
 1378SOL     OW 4141   2.875   0.105   1.770
 1378SOL    HW1 4142   2.881   0.190   1.718
 1378SOL    HW2 4143   2.907   0.029   1.713
 1379SOL     OW 4144   2.366   0.050   1.740
 1379SOL    HW1 4145   2.324  -0.007   1.670
 1379SOL    HW2 4146   2.300   0.119   1.772
 1380SOL     OW 4147   2.435   0.870   1.029
 1380SOL    HW1 4148   2.479   0.959   1.020
 1380SOL    HW2 4149   2.372   0.870   1.106
 1381SOL     OW 4150   3.222   0.862   1.045
 1381SOL    HW1 4151   3.147   0.862   0.979
 1381SOL    HW2 4152   3.259   0.770   1.054
 1382SOL     OW 4153   3.071   0.525   0.275
 1382SOL    HW1 4154   3.084   0.441   0.329
 1382SOL    HW2 4155   3.042   0.599   0.335
 1383SOL     OW 4156   2.169   0.213   1.231
 1383SOL    HW1 4157   2.146   0.250   1.321
 1383SOL    HW2 4158   2.139   0.118   1.225
 1384SOL     OW 4159   1.899   1.310   1.282
 1384SOL    HW1 4160   1.952   1.261   1.350
 1384SOL    HW2 4161   1.921   1.408   1.287
 1385SOL     OW 4162   2.594   0.634   1.064
 1385SOL    HW1 4163   2.653   0.608   0.988
 1385SOL    HW2 4164   2.566   0.730   1.053
 1386SOL     OW 4165   3.590   0.935   1.854
 1386SOL    HW1 4166   3.544   0.928   1.765
 1386SOL    HW2 4167   3.528   0.979   1.920
 1387SOL     OW 4168   2.169   0.063   0.618
 1387SOL    HW1 4169   2.158   0.157   0.651
 1387SOL    HW2 4170   2.164   0.000   0.695
 1388SOL     OW 4171   3.484   0.367   0.374
 1388SOL    HW1 4172   3.486   0.291   0.438
 1388SOL    HW2 4173   3.436   0.444   0.414
 1389SOL     OW 4174   2.885   0.766   0.966
 1389SOL    HW1 4175   2.900   0.787   1.062
 1389SOL    HW2 4176   2.855   0.671   0.957
 1390SOL     OW 4177   2.842   1.573   1.700
 1390SOL    HW1 4178   2.822   1.617   1.612
 1390SOL    HW2 4179   2.881   1.482   1.684
 1391SOL     OW 4180   3.721   1.518   1.605
 1391SOL    HW1 4181   3.735   1.545   1.510
 1391SOL    HW2 4182   3.804   1.540   1.658
 1392SOL     OW 4183   2.212   0.898   1.804
 1392SOL    HW1 4184   2.288   0.942   1.852
 1392SOL    HW2 4185   2.247   0.851   1.722
 1393SOL     OW 4186   3.402   0.274   0.125
 1393SOL    HW1 4187   3.341   0.199   0.148
 1393SOL    HW2 4188   3.424   0.326   0.208
 1394SOL     OW 4189   3.165   0.838   0.042
 1394SOL    HW1 4190   3.199   0.745   0.057
 1394SOL    HW2 4191   3.183   0.865  -0.053
 1395SOL     OW 4192   2.930   1.333   0.849
 1395SOL    HW1 4193   2.937   1.249   0.794
 1395SOL    HW2 4194   2.992   1.402   0.813
 1396SOL     OW 4195   2.181   0.810   0.949
 1396SOL    HW1 4196   2.274   0.846   0.954
 1396SOL    HW2 4197   2.175   0.725   1.001
 1397SOL     OW 4198   2.201   0.509   1.006
 1397SOL    HW1 4199   2.149   0.426   0.989
 1397SOL    HW2 4200   2.278   0.514   0.942
 1398SOL     OW 4201   3.000   0.380   1.678
 1398SOL    HW1 4202   2.955   0.443   1.742
 1398SOL    HW2 4203   3.093   0.411   1.661
 1399SOL     OW 4204   3.022   0.207   1.477
 1399SOL    HW1 4205   3.022   0.271   1.554
 1399SOL    HW2 4206   3.050   0.255   1.394
 1400SOL     OW 4207   1.870   1.326   0.200
 1400SOL    HW1 4208   1.777   1.347   0.169
 1400SOL    HW2 4209   1.880   1.227   0.213
 1401SOL     OW 4210   1.950   1.801   0.927
 1401SOL    HW1 4211   1.908   1.715   0.900
 1401SOL    HW2 4212   2.044   1.804   0.893
 1402SOL     OW 4213   2.366   1.568   0.910
 1402SOL    HW1 4214   2.432   1.642   0.919
 1402SOL    HW2 4215   2.410   1.489   0.868
 1403SOL     OW 4216   2.864   0.796   1.238
 1403SOL    HW1 4217   2.905   0.764   1.324
 1403SOL    HW2 4218   2.768   0.769   1.235
 1404SOL     OW 4219   1.902   0.544   1.114
 1404SOL    HW1 4220   1.987   0.511   1.073
 1404SOL    HW2 4221   1.915   0.559   1.212
 1405SOL     OW 4222   2.051   0.520   1.722
 1405SOL    HW1 4223   2.110   0.480   1.652
 1405SOL    HW2 4224   1.993   0.591   1.681
 1406SOL     OW 4225   3.231   0.950   1.660
 1406SOL    HW1 4226   3.270   1.039   1.680
 1406SOL    HW2 4227   3.241   0.930   1.563
 1407SOL     OW 4228   2.677   0.572   0.325
 1407SOL    HW1 4229   2.684   0.483   0.279
 1407SOL    HW2 4230   2.583   0.606   0.317
 1408SOL     OW 4231   3.519   0.604   1.206
 1408SOL    HW1 4232   3.481   0.535   1.268
 1408SOL    HW2 4233   3.601   0.568   1.162
 1409SOL     OW 4234   2.114   1.564   1.744
 1409SOL    HW1 4235   2.084   1.621   1.820
 1409SOL    HW2 4236   2.107   1.467   1.770
 1410SOL     OW 4237   2.533   0.464   1.269
 1410SOL    HW1 4238   2.499   0.375   1.239
 1410SOL    HW2 4239   2.559   0.518   1.189
 1411SOL     OW 4240   2.792   1.678   1.465
 1411SOL    HW1 4241   2.768   1.660   1.370
 1411SOL    HW2 4242   2.822   1.772   1.475
 1412SOL     OW 4243   2.335   0.500   0.191
 1412SOL    HW1 4244   2.396   0.580   0.195
 1412SOL    HW2 4245   2.240   0.531   0.198
 1413SOL     OW 4246   2.021   1.137   1.466
 1413SOL    HW1 4247   2.043   1.076   1.542
 1413SOL    HW2 4248   2.031   1.088   1.380
 1414SOL     OW 4249   3.209   1.059   1.234
 1414SOL    HW1 4250   3.233   0.996   1.160
 1414SOL    HW2 4251   3.119   1.099   1.216
 1415SOL     OW 4252   3.164   0.855   0.309
 1415SOL    HW1 4253   3.078   0.824   0.351
 1415SOL    HW2 4254   3.160   0.841   0.210
 1416SOL     OW 4255   3.621   1.747   1.154
 1416SOL    HW1 4256   3.682   1.777   1.081
 1416SOL    HW2 4257   3.583   1.658   1.132
 1417SOL     OW 4258   3.114   1.731   1.128
 1417SOL    HW1 4259   3.198   1.736   1.074
 1417SOL    HW2 4260   3.091   1.635   1.146
 1418SOL     OW 4261   1.945   1.258   1.022
 1418SOL    HW1 4262   1.940   1.257   1.122
 1418SOL    HW2 4263   1.862   1.217   0.984
 1419SOL     OW 4264   2.550   1.662   1.716
 1419SOL    HW1 4265   2.494   1.743   1.725
 1419SOL    HW2 4266   2.602   1.666   1.630
 1420SOL     OW 4267   2.765   0.086   0.133
 1420SOL    HW1 4268   2.816   0.087   0.047
 1420SOL    HW2 4269   2.821   0.044   0.204
 1421SOL     OW 4270   3.588   0.135   0.523
 1421SOL    HW1 4271   3.661   0.118   0.456
 1421SOL    HW2 4272   3.557   0.048   0.561
 1422SOL     OW 4273   3.250   1.573   0.477
 1422SOL    HW1 4274   3.317   1.585   0.403
 1422SOL    HW2 4275   3.210   1.662   0.500
 1423SOL     OW 4276   1.992   1.794   1.851
 1423SOL    HW1 4277   1.951   1.720   1.904
 1423SOL    HW2 4278   2.056   1.845   1.909
 1424SOL     OW 4279   3.142   0.927   0.672
 1424SOL    HW1 4280   3.202   0.846   0.674
 1424SOL    HW2 4281   3.182   0.996   0.612
 1425SOL     OW 4282   2.692   1.273   1.422
 1425SOL    HW1 4283   2.687   1.306   1.517
 1425SOL    HW2 4284   2.606   1.292   1.376
 1426SOL     OW 4285   2.534   1.616   0.154
 1426SOL    HW1 4286   2.543   1.626   0.055
 1426SOL    HW2 4287   2.494   1.527   0.175
 1427SOL     OW 4288   3.512   1.720   1.394
 1427SOL    HW1 4289   3.565   1.730   1.310
 1427SOL    HW2 4290   3.485   1.810   1.428
 1428SOL     OW 4291   3.703   0.175   0.963
 1428SOL    HW1 4292   3.742   0.090   0.927
 1428SOL    HW2 4293   3.605   0.177   0.944
 1429SOL     OW 4294   2.125   0.326   0.720
 1429SOL    HW1 4295   2.046   0.377   0.686
 1429SOL    HW2 4296   2.116   0.311   0.818
 1430SOL     OW 4297   3.056   1.612   0.031
 1430SOL    HW1 4298   3.062   1.519   0.068
 1430SOL    HW2 4299   2.997   1.612  -0.049
 1431SOL     OW 4300   2.684   1.002   1.372
 1431SOL    HW1 4301   2.724   1.001   1.280
 1431SOL    HW2 4302   2.694   1.094   1.412
 1432SOL     OW 4303   2.778   0.910   0.291
 1432SOL    HW1 4304   2.841   0.948   0.223
 1432SOL    HW2 4305   2.818   0.827   0.330
 1433SOL     OW 4306   3.366   1.607   0.044
 1433SOL    HW1 4307   3.274   1.644   0.051
 1433SOL    HW2 4308   3.404   1.627  -0.046
 1434SOL     OW 4309   2.234   1.288   1.490
 1434SOL    HW1 4310   2.221   1.381   1.456
 1434SOL    HW2 4311   2.150   1.236   1.477
 1435SOL     OW 4312   3.476   1.292   1.289
 1435SOL    HW1 4313   3.536   1.295   1.369
 1435SOL    HW2 4314   3.401   1.356   1.302
 1436SOL     OW 4315   2.901   1.098   0.696
 1436SOL    HW1 4316   2.831   1.051   0.750
 1436SOL    HW2 4317   2.960   1.030   0.653
 1437SOL     OW 4318   2.876   0.236   0.971
 1437SOL    HW1 4319   2.868   0.200   0.878
 1437SOL    HW2 4320   2.874   0.160   1.036
 1438SOL     OW 4321   2.452   1.487   0.491
 1438SOL    HW1 4322   2.494   1.429   0.421
 1438SOL    HW2 4323   2.408   1.566   0.447
 1439SOL     OW 4324   3.571   0.385   1.381
 1439SOL    HW1 4325   3.644   0.454   1.385
 1439SOL    HW2 4326   3.599   0.310   1.322
 1440SOL     OW 4327   2.117   1.348   0.290
 1440SOL    HW1 4328   2.021   1.349   0.263
 1440SOL    HW2 4329   2.129   1.401   0.374
 1441SOL     OW 4330   1.967   1.013   1.726
 1441SOL    HW1 4331   1.890   0.980   1.780
 1441SOL    HW2 4332   2.052   0.983   1.768
 1442SOL     OW 4333   2.534   0.203   1.489
 1442SOL    HW1 4334   2.624   0.187   1.449
 1442SOL    HW2 4335   2.542   0.208   1.588
 1443SOL     OW 4336   1.937   0.345   0.033
 1443SOL    HW1 4337   1.845   0.317   0.004
 1443SOL    HW2 4338   1.968   0.422  -0.023
 1444SOL     OW 4339   3.302   0.856   1.398
 1444SOL    HW1 4340   3.245   0.908   1.335
 1444SOL    HW2 4341   3.398   0.868   1.374
 1445SOL     OW 4342   1.934   0.166   0.318
 1445SOL    HW1 4343   1.917   0.249   0.264
 1445SOL    HW2 4344   2.024   0.129   0.296
 1446SOL     OW 4345   3.045   1.335   0.119
 1446SOL    HW1 4346   2.946   1.324   0.121
 1446SOL    HW2 4347   3.079   1.350   0.212
 1447SOL     OW 4348   2.475   0.842   1.431
 1447SOL    HW1 4349   2.531   0.923   1.414
 1447SOL    HW2 4350   2.534   0.762   1.434
 1448SOL     OW 4351   3.355   1.767   0.959
 1448SOL    HW1 4352   3.388   1.831   0.890
 1448SOL    HW2 4353   3.421   1.761   1.034
 1449SOL     OW 4354   2.578   0.565   1.708
 1449SOL    HW1 4355   2.597   0.630   1.782
 1449SOL    HW2 4356   2.638   0.485   1.717
 1450SOL     OW 4357   3.312   1.220   1.633
 1450SOL    HW1 4358   3.303   1.210   1.732
 1450SOL    HW2 4359   3.408   1.213   1.607
 1451SOL     OW 4360   2.252   1.741   1.560
 1451SOL    HW1 4361   2.161   1.782   1.558
 1451SOL    HW2 4362   2.245   1.647   1.592
 1452SOL     OW 4363   3.536   0.883   1.254
 1452SOL    HW1 4364   3.509   0.794   1.217
 1452SOL    HW2 4365   3.537   0.951   1.181
 1453SOL     OW 4366   3.087   0.325   0.449
 1453SOL    HW1 4367   3.152   0.251   0.438
 1453SOL    HW2 4368   3.107   0.375   0.533
 1454SOL     OW 4369   2.456   0.745   0.652
 1454SOL    HW1 4370   2.506   0.830   0.633
 1454SOL    HW2 4371   2.368   0.747   0.604
 1455SOL     OW 4372   3.639   0.342   1.642
 1455SOL    HW1 4373   3.622   0.373   1.548
 1455SOL    HW2 4374   3.555   0.305   1.680
 1456SOL     OW 4375   3.592   0.934   1.517
 1456SOL    HW1 4376   3.630   1.025   1.532
 1456SOL    HW2 4377   3.584   0.917   1.418
 1457SOL     OW 4378   2.721   1.374   0.016
 1457SOL    HW1 4379   2.675   1.389   0.104
 1457SOL    HW2 4380   2.765   1.459  -0.014
 1458SOL     OW 4381   2.523   1.790   0.953
 1458SOL    HW1 4382   2.477   1.878   0.940
 1458SOL    HW2 4383   2.622   1.802   0.946
 1459SOL     OW 4384   2.721   0.956   0.861
 1459SOL    HW1 4385   2.775   0.887   0.909
 1459SOL    HW2 4386   2.689   1.025   0.927
 1460SOL     OW 4387   2.945   0.984   0.087
 1460SOL    HW1 4388   2.922   1.037   0.005
 1460SOL    HW2 4389   3.026   0.928   0.068
 1461SOL     OW 4390   3.723   1.569   0.851
 1461SOL    HW1 4391   3.652   1.557   0.781
 1461SOL    HW2 4392   3.724   1.490   0.911
 1462SOL     OW 4393   2.083   1.314   1.844
 1462SOL    HW1 4394   2.018   1.241   1.823
 1462SOL    HW2 4395   2.087   1.328   1.942
 1463SOL     OW 4396   1.941   1.240   0.653
 1463SOL    HW1 4397   1.940   1.193   0.741
 1463SOL    HW2 4398   2.023   1.212   0.602
 1464SOL     OW 4399   2.534   1.391   1.624
 1464SOL    HW1 4400   2.456   1.341   1.662
 1464SOL    HW2 4401   2.531   1.486   1.655
 1465SOL     OW 4402   3.686   0.192   1.227
 1465SOL    HW1 4403   3.682   0.102   1.271
 1465SOL    HW2 4404   3.689   0.181   1.128
 1466SOL     OW 4405   2.290   0.424   0.520
 1466SOL    HW1 4406   2.320   0.352   0.458
 1466SOL    HW2 4407   2.251   0.384   0.603
 1467SOL     OW 4408   3.567   1.487   1.104
 1467SOL    HW1 4409   3.474   1.462   1.077
 1467SOL    HW2 4410   3.593   1.437   1.186
 1468SOL     OW 4411   2.179   0.547   1.280
 1468SOL    HW1 4412   2.217   0.488   1.352
 1468SOL    HW2 4413   2.219   0.521   1.192
 1469SOL     OW 4414   2.674   1.586   0.687
 1469SOL    HW1 4415   2.706   1.596   0.593
 1469SOL    HW2 4416   2.595   1.524   0.689
 1470SOL     OW 4417   3.286   0.214   1.112
 1470SOL    HW1 4418   3.338   0.149   1.167
 1470SOL    HW2 4419   3.237   0.277   1.173
 1471SOL     OW 4420   2.863   0.034   1.154
 1471SOL    HW1 4421   2.800  -0.038   1.123
 1471SOL    HW2 4422   2.956  -0.002   1.154
 1472SOL     OW 4423   2.632   1.330   0.301
 1472SOL    HW1 4424   2.586   1.243   0.318
 1472SOL    HW2 4425   2.723   1.327   0.342
 1473SOL     OW 4426   2.480   1.567   1.284
 1473SOL    HW1 4427   2.475   1.649   1.341
 1473SOL    HW2 4428   2.569   1.564   1.239
 1474SOL     OW 4429   3.214   0.052   0.168
 1474SOL    HW1 4430   3.249   0.011   0.084
 1474SOL    HW2 4431   3.124   0.014   0.188
 1475SOL     OW 4432   3.162   0.453   0.691
 1475SOL    HW1 4433   3.103   0.533   0.695
 1475SOL    HW2 4434   3.177   0.418   0.784
 1476SOL     OW 4435   3.455   0.221   0.882
 1476SOL    HW1 4436   3.371   0.220   0.936
 1476SOL    HW2 4437   3.457   0.304   0.826
 1477SOL     OW 4438   1.901   1.077   0.300
 1477SOL    HW1 4439   2.000   1.066   0.291
 1477SOL    HW2 4440   1.861   0.991   0.332
 1478SOL     OW 4441   2.737   1.646   0.337
 1478SOL    HW1 4442   2.660   1.611   0.283
 1478SOL    HW2 4443   2.705   1.717   0.399
 1479SOL     OW 4444   2.092   0.628   1.975
 1479SOL    HW1 4445   1.999   0.626   2.012
 1479SOL    HW2 4446   2.093   0.589   1.883
 1480SOL     OW 4447   2.087   0.275   2.858
 1480SOL    HW1 4448   2.122   0.258   2.950
 1480SOL    HW2 4449   1.999   0.230   2.846
 1481SOL     OW 4450   1.881   0.368   2.509
 1481SOL    HW1 4451   1.799   0.411   2.548
 1481SOL    HW2 4452   1.853   0.295   2.446
 1482SOL     OW 4453   2.431   1.275   3.027
 1482SOL    HW1 4454   2.338   1.268   2.990
 1482SOL    HW2 4455   2.442   1.364   3.071
 1483SOL     OW 4456   3.417   1.511   2.565
 1483SOL    HW1 4457   3.360   1.495   2.646
 1483SOL    HW2 4458   3.358   1.521   2.485
 1484SOL     OW 4459   2.997   0.703   2.579
 1484SOL    HW1 4460   3.054   0.781   2.554
 1484SOL    HW2 4461   2.937   0.729   2.655
 1485SOL     OW 4462   3.617   0.607   2.093
 1485SOL    HW1 4463   3.605   0.594   1.994
 1485SOL    HW2 4464   3.587   0.526   2.142
 1486SOL     OW 4465   2.630   1.144   2.885
 1486SOL    HW1 4466   2.552   1.161   2.945
 1486SOL    HW2 4467   2.664   1.231   2.849
 1487SOL     OW 4468   2.712   0.798   3.685
 1487SOL    HW1 4469   2.708   0.874   3.750
 1487SOL    HW2 4470   2.734   0.834   3.594
 1488SOL     OW 4471   2.547   1.012   2.527
 1488SOL    HW1 4472   2.616   0.996   2.597
 1488SOL    HW2 4473   2.474   1.069   2.565
 1489SOL     OW 4474   2.548   1.161   3.665
 1489SOL    HW1 4475   2.608   1.240   3.679
 1489SOL    HW2 4476   2.462   1.192   3.624
 1490SOL     OW 4477   2.197   1.435   2.923
 1490SOL    HW1 4478   2.119   1.404   2.870
 1490SOL    HW2 4479   2.255   1.493   2.866
 1491SOL     OW 4480   3.322   1.505   3.201
 1491SOL    HW1 4481   3.346   1.599   3.227
 1491SOL    HW2 4482   3.306   1.451   3.283
 1492SOL     OW 4483   2.300   0.392   3.361
 1492SOL    HW1 4484   2.382   0.336   3.370
 1492SOL    HW2 4485   2.219   0.334   3.365
 1493SOL     OW 4486   3.465   0.447   2.599
 1493SOL    HW1 4487   3.391   0.493   2.549
 1493SOL    HW2 4488   3.516   0.515   2.652
 1494SOL     OW 4489   2.093   1.713   2.345
 1494SOL    HW1 4490   2.127   1.790   2.399
 1494SOL    HW2 4491   2.137   1.713   2.255
 1495SOL     OW 4492   2.989   1.341   3.552
 1495SOL    HW1 4493   3.036   1.341   3.640
 1495SOL    HW2 4494   2.941   1.254   3.541
 1496SOL     OW 4495   2.092   1.434   2.400
 1496SOL    HW1 4496   2.066   1.530   2.400
 1496SOL    HW2 4497   2.021   1.380   2.445
 1497SOL     OW 4498   2.102   1.091   2.748
 1497SOL    HW1 4499   2.116   1.007   2.800
 1497SOL    HW2 4500   2.047   1.155   2.803
 1498SOL     OW 4501   2.482   1.786   3.301
 1498SOL    HW1 4502   2.390   1.769   3.336
 1498SOL    HW2 4503   2.510   1.878   3.327
 1499SOL     OW 4504   2.468   0.964   1.985
 1499SOL    HW1 4505   2.475   1.048   1.931
 1499SOL    HW2 4506   2.514   0.977   2.073
 1500SOL     OW 4507   3.456   0.114   3.342
 1500SOL    HW1 4508   3.438   0.181   3.270
 1500SOL    HW2 4509   3.453   0.160   3.431
 1501SOL     OW 4510   1.984   0.643   2.425
 1501SOL    HW1 4511   1.939   0.555   2.442
 1501SOL    HW2 4512   1.983   0.697   2.509
 1502SOL     OW 4513   3.704   1.767   2.221
 1502SOL    HW1 4514   3.758   1.738   2.301
 1502SOL    HW2 4515   3.734   1.857   2.192
 1503SOL     OW 4516   1.889   1.596   1.979
 1503SOL    HW1 4517   1.870   1.500   2.000
 1503SOL    HW2 4518   1.856   1.654   2.054
 1504SOL     OW 4519   3.551   0.922   2.474
 1504SOL    HW1 4520   3.646   0.893   2.482
 1504SOL    HW2 4521   3.543   0.987   2.399
 1505SOL     OW 4522   3.503   1.108   2.294
 1505SOL    HW1 4523   3.589   1.110   2.242
 1505SOL    HW2 4524   3.517   1.155   2.382
 1506SOL     OW 4525   1.975   0.737   3.459
 1506SOL    HW1 4526   2.063   0.724   3.504
 1506SOL    HW2 4527   1.962   0.834   3.437
 1507SOL     OW 4528   2.475   1.365   2.588
 1507SOL    HW1 4529   2.426   1.278   2.597
 1507SOL    HW2 4530   2.452   1.408   2.501
 1508SOL     OW 4531   3.155   1.228   3.285
 1508SOL    HW1 4532   3.192   1.155   3.227
 1508SOL    HW2 4533   3.207   1.233   3.370
 1509SOL     OW 4534   2.671   0.004   2.364
 1509SOL    HW1 4535   2.711   0.095   2.355
 1509SOL    HW2 4536   2.571   0.012   2.370
 1510SOL     OW 4537   2.059   0.976   3.126
 1510SOL    HW1 4538   2.148   0.931   3.112
 1510SOL    HW2 4539   1.986   0.911   3.107
 1511SOL     OW 4540   3.387   0.999   2.052
 1511SOL    HW1 4541   3.324   0.923   2.065
 1511SOL    HW2 4542   3.435   1.017   2.138
 1512SOL     OW 4543   3.049   1.792   3.478
 1512SOL    HW1 4544   3.073   1.852   3.402
 1512SOL    HW2 4545   3.056   1.697   3.448
 1513SOL     OW 4546   2.179   0.251   3.663
 1513SOL    HW1 4547   2.250   0.322   3.669
 1513SOL    HW2 4548   2.091   0.290   3.691
 1514SOL     OW 4549   3.328   1.417   2.815
 1514SOL    HW1 4550   3.269   1.423   2.895
 1514SOL    HW2 4551   3.313   1.329   2.769
 1515SOL     OW 4552   3.529   1.714   2.434
 1515SOL    HW1 4553   3.488   1.691   2.346
 1515SOL    HW2 4554   3.511   1.640   2.499
 1516SOL     OW 4555   2.460   0.729   2.132
 1516SOL    HW1 4556   2.484   0.798   2.064
 1516SOL    HW2 4557   2.382   0.762   2.186
 1517SOL     OW 4558   3.143   0.345   2.806
 1517SOL    HW1 4559   3.057   0.295   2.793
 1517SOL    HW2 4560   3.205   0.291   2.862
 1518SOL     OW 4561   3.438   1.662   2.169
 1518SOL    HW1 4562   3.527   1.708   2.172
 1518SOL    HW2 4563   3.417   1.638   2.074
 1519SOL     OW 4564   2.669   0.605   3.327
 1519SOL    HW1 4565   2.622   0.602   3.416
 1519SOL    HW2 4566   2.618   0.550   3.261
 1520SOL     OW 4567   3.256   0.469   3.536
 1520SOL    HW1 4568   3.236   0.512   3.624
 1520SOL    HW2 4569   3.334   0.407   3.545
 1521SOL     OW 4570   2.835   0.890   3.434
 1521SOL    HW1 4571   2.881   0.806   3.405
 1521SOL    HW2 4572   2.779   0.924   3.359
 1522SOL     OW 4573   2.853   0.410   3.104
 1522SOL    HW1 4574   2.776   0.444   3.158
 1522SOL    HW2 4575   2.819   0.359   3.025
 1523SOL     OW 4576   2.903   0.701   2.291
 1523SOL    HW1 4577   2.929   0.697   2.387
 1523SOL    HW2 4578   2.818   0.650   2.277
 1524SOL     OW 4579   1.938   0.811   2.651
 1524SOL    HW1 4580   2.037   0.799   2.660
 1524SOL    HW2 4581   1.914   0.906   2.672
 1525SOL     OW 4582   1.992   1.821   3.433
 1525SOL    HW1 4583   1.982   1.806   3.532
 1525SOL    HW2 4584   1.906   1.857   3.397
 1526SOL     OW 4585   2.727   0.348   2.057
 1526SOL    HW1 4586   2.786   0.411   2.008
 1526SOL    HW2 4587   2.746   0.254   2.028
 1527SOL     OW 4588   3.581   0.585   3.693
 1527SOL    HW1 4589   3.555   0.674   3.657
 1527SOL    HW2 4590   3.579   0.517   3.620
 1528SOL     OW 4591   3.224   1.144   2.407
 1528SOL    HW1 4592   3.307   1.115   2.359
 1528SOL    HW2 4593   3.175   1.211   2.351
 1529SOL     OW 4594   2.412   0.196   2.747
 1529SOL    HW1 4595   2.407   0.191   2.847
 1529SOL    HW2 4596   2.414   0.292   2.718
 1530SOL     OW 4597   2.870   1.456   2.339
 1530SOL    HW1 4598   2.824   1.528   2.287
 1530SOL    HW2 4599   2.866   1.476   2.437
 1531SOL     OW 4600   2.213   1.801   2.715
 1531SOL    HW1 4601   2.263   1.715   2.721
 1531SOL    HW2 4602   2.278   1.878   2.712
 1532SOL     OW 4603   3.657   1.066   2.735
 1532SOL    HW1 4604   3.595   1.051   2.659
 1532SOL    HW2 4605   3.605   1.077   2.820
 1533SOL     OW 4606   3.089   1.550   3.368
 1533SOL    HW1 4607   3.095   1.473   3.432
 1533SOL    HW2 4608   3.037   1.524   3.288
 1534SOL     OW 4609   2.183   0.943   2.104
 1534SOL    HW1 4610   2.265   0.982   2.062
 1534SOL    HW2 4611   2.156   0.861   2.055
 1535SOL     OW 4612   3.320   0.735   2.590
 1535SOL    HW1 4613   3.315   0.670   2.665
 1535SOL    HW2 4614   3.400   0.794   2.603
 1536SOL     OW 4615   2.323   1.266   3.589
 1536SOL    HW1 4616   2.273   1.267   3.503
 1536SOL    HW2 4617   2.260   1.248   3.665
 1537SOL     OW 4618   2.973   1.776   2.099
 1537SOL    HW1 4619   2.913   1.714   2.149
 1537SOL    HW2 4620   3.004   1.732   2.014
 1538SOL     OW 4621   2.064   0.285   3.360
 1538SOL    HW1 4622   1.984   0.345   3.347
 1538SOL    HW2 4623   2.054   0.236   3.446
 1539SOL     OW 4624   3.494   1.377   1.943
 1539SOL    HW1 4625   3.462   1.471   1.933
 1539SOL    HW2 4626   3.418   1.314   1.931
 1540SOL     OW 4627   2.326   1.743   2.185
 1540SOL    HW1 4628   2.359   1.782   2.271
 1540SOL    HW2 4629   2.402   1.736   2.120
 1541SOL     OW 4630   3.262   0.107   2.288
 1541SOL    HW1 4631   3.238   0.070   2.198
 1541SOL    HW2 4632   3.361   0.123   2.292
 1542SOL     OW 4633   2.111   1.785   3.103
 1542SOL    HW1 4634   2.168   1.720   3.153
 1542SOL    HW2 4635   2.095   1.752   3.010
 1543SOL     OW 4636   2.802   1.698   2.766
 1543SOL    HW1 4637   2.882   1.641   2.787
 1543SOL    HW2 4638   2.753   1.658   2.689
 1544SOL     OW 4639   2.244   0.700   2.342
 1544SOL    HW1 4640   2.289   0.610   2.339
 1544SOL    HW2 4641   2.150   0.689   2.375
 1545SOL     OW 4642   3.409   0.222   3.591
 1545SOL    HW1 4643   3.404   0.259   3.683
 1545SOL    HW2 4644   3.337   0.153   3.579
 1546SOL     OW 4645   2.476   0.122   1.979
 1546SOL    HW1 4646   2.574   0.100   1.986
 1546SOL    HW2 4647   2.445   0.105   1.886
 1547SOL     OW 4648   2.643   0.264   3.611
 1547SOL    HW1 4649   2.710   0.203   3.654
 1547SOL    HW2 4650   2.570   0.283   3.676
 1548SOL     OW 4651   2.750   1.514   3.057
 1548SOL    HW1 4652   2.727   1.489   2.963
 1548SOL    HW2 4653   2.811   1.445   3.096
 1549SOL     OW 4654   3.213   0.590   3.295
 1549SOL    HW1 4655   3.241   0.547   3.380
 1549SOL    HW2 4656   3.238   0.686   3.296
 1550SOL     OW 4657   2.665   1.402   2.786
 1550SOL    HW1 4658   2.755   1.416   2.744
 1550SOL    HW2 4659   2.594   1.404   2.715
 1551SOL     OW 4660   2.784   0.503   2.761
 1551SOL    HW1 4661   2.759   0.494   2.665
 1551SOL    HW2 4662   2.832   0.421   2.792
 1552SOL     OW 4663   2.401   0.064   2.374
 1552SOL    HW1 4664   2.320   0.065   2.432
 1552SOL    HW2 4665   2.404   0.147   2.319
 1553SOL     OW 4666   3.296   1.188   1.903
 1553SOL    HW1 4667   3.328   1.112   1.960
 1553SOL    HW2 4668   3.204   1.215   1.933
 1554SOL     OW 4669   2.159   0.035   2.033
 1554SOL    HW1 4670   2.208   0.119   2.012
 1554SOL    HW2 4671   2.221  -0.030   2.078
 1555SOL     OW 4672   2.797   0.236   2.342
 1555SOL    HW1 4673   2.749   0.277   2.264
 1555SOL    HW2 4674   2.896   0.234   2.323
 1556SOL     OW 4675   2.938   0.683   3.326
 1556SOL    HW1 4676   2.858   0.622   3.329
 1556SOL    HW2 4677   3.019   0.630   3.302
 1557SOL     OW 4678   3.089   1.570   2.655
 1557SOL    HW1 4679   3.110   1.644   2.590
 1557SOL    HW2 4680   3.157   1.570   2.728
 1558SOL     OW 4681   2.321   1.152   2.603
 1558SOL    HW1 4682   2.250   1.125   2.668
 1558SOL    HW2 4683   2.295   1.124   2.510
 1559SOL     OW 4684   3.133   1.797   2.453
 1559SOL    HW1 4685   3.177   1.861   2.389
 1559SOL    HW2 4686   3.083   1.849   2.523
 1560SOL     OW 4687   2.894   0.549   1.878
 1560SOL    HW1 4688   2.853   0.631   1.839
 1560SOL    HW2 4689   2.958   0.575   1.951
 1561SOL     OW 4690   1.940   0.556   3.248
 1561SOL    HW1 4691   2.032   0.555   3.207
 1561SOL    HW2 4692   1.934   0.630   3.315
 1562SOL     OW 4693   2.423   0.222   3.009
 1562SOL    HW1 4694   2.461   0.138   3.046
 1562SOL    HW2 4695   2.335   0.241   3.053
 1563SOL     OW 4696   2.728   0.454   2.504
 1563SOL    HW1 4697   2.696   0.526   2.442
 1563SOL    HW2 4698   2.752   0.373   2.451
 1564SOL     OW 4699   2.879   0.039   2.615
 1564SOL    HW1 4700   2.807   0.044   2.546
 1564SOL    HW2 4701   2.855  -0.030   2.684
 1565SOL     OW 4702   3.291   1.173   2.729
 1565SOL    HW1 4703   3.236   1.089   2.722
 1565SOL    HW2 4704   3.317   1.202   2.637
 1566SOL     OW 4705   3.328   0.590   2.854
 1566SOL    HW1 4706   3.298   0.495   2.861
 1566SOL    HW2 4707   3.401   0.606   2.920
 1567SOL     OW 4708   3.719   0.833   2.239
 1567SOL    HW1 4709   3.761   0.769   2.303
 1567SOL    HW2 4710   3.681   0.782   2.161
 1568SOL     OW 4711   2.350   1.385   2.036
 1568SOL    HW1 4712   2.263   1.370   2.083
 1568SOL    HW2 4713   2.333   1.411   1.941
 1569SOL     OW 4714   3.526   1.280   2.519
 1569SOL    HW1 4715   3.625   1.288   2.533
 1569SOL    HW2 4716   3.481   1.364   2.550
 1570SOL     OW 4717   3.252   0.575   1.940
 1570SOL    HW1 4718   3.198   0.554   2.021
 1570SOL    HW2 4719   3.343   0.534   1.949
 1571SOL     OW 4720   2.389   0.256   2.190
 1571SOL    HW1 4721   2.416   0.197   2.115
 1571SOL    HW2 4722   2.389   0.351   2.159
 1572SOL     OW 4723   3.616   1.223   3.450
 1572SOL    HW1 4724   3.707   1.184   3.437
 1572SOL    HW2 4725   3.624   1.319   3.474
 1573SOL     OW 4726   2.926   1.347   3.202
 1573SOL    HW1 4727   2.846   1.324   3.257
 1573SOL    HW2 4728   3.009   1.321   3.251
 1574SOL     OW 4729   3.454   1.629   3.487
 1574SOL    HW1 4730   3.481   1.663   3.397
 1574SOL    HW2 4731   3.533   1.591   3.533
 1575SOL     OW 4732   2.973   1.195   2.962
 1575SOL    HW1 4733   2.933   1.239   3.043
 1575SOL    HW2 4734   2.932   1.232   2.879
 1576SOL     OW 4735   3.500   1.099   2.941
 1576SOL    HW1 4736   3.505   1.180   3.000
 1576SOL    HW2 4737   3.414   1.101   2.890
 1577SOL     OW 4738   2.777   0.089   3.264
 1577SOL    HW1 4739   2.802   0.069   3.169
 1577SOL    HW2 4740   2.849   0.145   3.306
 1578SOL     OW 4741   2.842   1.116   3.581
 1578SOL    HW1 4742   2.743   1.122   3.591
 1578SOL    HW2 4743   2.865   1.036   3.525
 1579SOL     OW 4744   2.567   1.050   2.230
 1579SOL    HW1 4745   2.553   1.057   2.329
 1579SOL    HW2 4746   2.651   0.999   2.212
 1580SOL     OW 4747   2.272   0.813   3.113
 1580SOL    HW1 4748   2.358   0.825   3.163
 1580SOL    HW2 4749   2.230   0.726   3.140
 1581SOL     OW 4750   3.136   0.386   3.124
 1581SOL    HW1 4751   3.157   0.460   3.188
 1581SOL    HW2 4752   3.047   0.403   3.081
 1582SOL     OW 4753   1.926   1.564   3.193
 1582SOL    HW1 4754   1.880   1.646   3.159
 1582SOL    HW2 4755   2.024   1.583   3.202
 1583SOL     OW 4756   2.229   1.100   2.363
 1583SOL    HW1 4757   2.222   1.183   2.307
 1583SOL    HW2 4758   2.233   1.020   2.303
 1584SOL     OW 4759   2.428   0.537   2.727
 1584SOL    HW1 4760   2.440   0.603   2.653
 1584SOL    HW2 4761   2.474   0.571   2.810
 1585SOL     OW 4762   3.114   1.348   2.250
 1585SOL    HW1 4763   3.164   1.425   2.290
 1585SOL    HW2 4764   3.019   1.350   2.282
 1586SOL     OW 4765   3.134   1.445   3.004
 1586SOL    HW1 4766   3.181   1.458   3.091
 1586SOL    HW2 4767   3.068   1.371   3.013
 1587SOL     OW 4768   3.444   0.639   2.334
 1587SOL    HW1 4769   3.413   0.700   2.407
 1587SOL    HW2 4770   3.494   0.691   2.265
 1588SOL     OW 4771   2.216   1.510   3.191
 1588SOL    HW1 4772   2.195   1.466   3.104
 1588SOL    HW2 4773   2.313   1.536   3.194
 1589SOL     OW 4774   2.264   0.751   3.460
 1589SOL    HW1 4775   2.332   0.806   3.413
 1589SOL    HW2 4776   2.304   0.663   3.487
 1590SOL     OW 4777   3.449   0.779   3.532
 1590SOL    HW1 4778   3.357   0.817   3.527
 1590SOL    HW2 4779   3.509   0.826   3.467
 1591SOL     OW 4780   2.875   0.105   3.632
 1591SOL    HW1 4781   2.881   0.190   3.580
 1591SOL    HW2 4782   2.907   0.029   3.575
 1592SOL     OW 4783   2.366   0.050   3.602
 1592SOL    HW1 4784   2.324  -0.007   3.532
 1592SOL    HW2 4785   2.300   0.119   3.634
 1593SOL     OW 4786   2.435   0.870   2.891
 1593SOL    HW1 4787   2.479   0.959   2.882
 1593SOL    HW2 4788   2.372   0.870   2.968
 1594SOL     OW 4789   3.222   0.862   2.907
 1594SOL    HW1 4790   3.147   0.862   2.841
 1594SOL    HW2 4791   3.259   0.770   2.916
 1595SOL     OW 4792   3.071   0.525   2.137
 1595SOL    HW1 4793   3.084   0.441   2.191
 1595SOL    HW2 4794   3.042   0.599   2.197
 1596SOL     OW 4795   2.169   0.213   3.093
 1596SOL    HW1 4796   2.146   0.250   3.183
 1596SOL    HW2 4797   2.139   0.118   3.087
 1597SOL     OW 4798   1.899   1.310   3.144
 1597SOL    HW1 4799   1.952   1.261   3.212
 1597SOL    HW2 4800   1.921   1.408   3.149
 1598SOL     OW 4801   2.594   0.634   2.926
 1598SOL    HW1 4802   2.653   0.608   2.850
 1598SOL    HW2 4803   2.566   0.730   2.915
 1599SOL     OW 4804   3.590   0.935   3.716
 1599SOL    HW1 4805   3.544   0.928   3.627
 1599SOL    HW2 4806   3.528   0.979   3.782
 1600SOL     OW 4807   2.169   0.063   2.480
 1600SOL    HW1 4808   2.158   0.157   2.513
 1600SOL    HW2 4809   2.164   0.000   2.557
 1601SOL     OW 4810   3.484   0.367   2.236
 1601SOL    HW1 4811   3.486   0.291   2.300
 1601SOL    HW2 4812   3.436   0.444   2.276
 1602SOL     OW 4813   2.885   0.766   2.828
 1602SOL    HW1 4814   2.900   0.787   2.924
 1602SOL    HW2 4815   2.855   0.671   2.819
 1603SOL     OW 4816   2.842   1.573   3.562
 1603SOL    HW1 4817   2.822   1.617   3.474
 1603SOL    HW2 4818   2.881   1.482   3.546
 1604SOL     OW 4819   3.721   1.518   3.467
 1604SOL    HW1 4820   3.735   1.545   3.372
 1604SOL    HW2 4821   3.804   1.540   3.520
 1605SOL     OW 4822   2.212   0.898   3.666
 1605SOL    HW1 4823   2.288   0.942   3.714
 1605SOL    HW2 4824   2.247   0.851   3.584
 1606SOL     OW 4825   3.402   0.274   1.987
 1606SOL    HW1 4826   3.341   0.199   2.010
 1606SOL    HW2 4827   3.424   0.326   2.070
 1607SOL     OW 4828   3.165   0.838   1.904
 1607SOL    HW1 4829   3.199   0.745   1.919
 1607SOL    HW2 4830   3.183   0.865   1.809
 1608SOL     OW 4831   2.930   1.333   2.711
 1608SOL    HW1 4832   2.937   1.249   2.656
 1608SOL    HW2 4833   2.992   1.402   2.675
 1609SOL     OW 4834   2.181   0.810   2.811
 1609SOL    HW1 4835   2.274   0.846   2.816
 1609SOL    HW2 4836   2.175   0.725   2.863
 1610SOL     OW 4837   2.201   0.509   2.868
 1610SOL    HW1 4838   2.149   0.426   2.851
 1610SOL    HW2 4839   2.278   0.514   2.804
 1611SOL     OW 4840   3.000   0.380   3.540
 1611SOL    HW1 4841   2.955   0.443   3.604
 1611SOL    HW2 4842   3.093   0.411   3.523
 1612SOL     OW 4843   3.022   0.207   3.339
 1612SOL    HW1 4844   3.022   0.271   3.416
 1612SOL    HW2 4845   3.050   0.255   3.256
 1613SOL     OW 4846   1.870   1.326   2.062
 1613SOL    HW1 4847   1.777   1.347   2.031
 1613SOL    HW2 4848   1.880   1.227   2.075
 1614SOL     OW 4849   1.950   1.801   2.789
 1614SOL    HW1 4850   1.908   1.715   2.762
 1614SOL    HW2 4851   2.044   1.804   2.755
 1615SOL     OW 4852   2.366   1.568   2.772
 1615SOL    HW1 4853   2.432   1.642   2.781
 1615SOL    HW2 4854   2.410   1.489   2.730
 1616SOL     OW 4855   2.864   0.796   3.100
 1616SOL    HW1 4856   2.905   0.764   3.186
 1616SOL    HW2 4857   2.768   0.769   3.097
 1617SOL     OW 4858   1.902   0.544   2.976
 1617SOL    HW1 4859   1.987   0.511   2.935
 1617SOL    HW2 4860   1.915   0.559   3.074
 1618SOL     OW 4861   2.051   0.520   3.584
 1618SOL    HW1 4862   2.110   0.480   3.514
 1618SOL    HW2 4863   1.993   0.591   3.543
 1619SOL     OW 4864   3.231   0.950   3.522
 1619SOL    HW1 4865   3.270   1.039   3.542
 1619SOL    HW2 4866   3.241   0.930   3.425
 1620SOL     OW 4867   2.677   0.572   2.187
 1620SOL    HW1 4868   2.684   0.483   2.141
 1620SOL    HW2 4869   2.583   0.606   2.179
 1621SOL     OW 4870   3.519   0.604   3.068
 1621SOL    HW1 4871   3.481   0.535   3.130
 1621SOL    HW2 4872   3.601   0.568   3.024
 1622SOL     OW 4873   2.114   1.564   3.606
 1622SOL    HW1 4874   2.084   1.621   3.682
 1622SOL    HW2 4875   2.107   1.467   3.632
 1623SOL     OW 4876   2.533   0.464   3.131
 1623SOL    HW1 4877   2.499   0.375   3.101
 1623SOL    HW2 4878   2.559   0.518   3.051
 1624SOL     OW 4879   2.792   1.678   3.327
 1624SOL    HW1 4880   2.768   1.660   3.232
 1624SOL    HW2 4881   2.822   1.772   3.337
 1625SOL     OW 4882   2.335   0.500   2.053
 1625SOL    HW1 4883   2.396   0.580   2.057
 1625SOL    HW2 4884   2.240   0.531   2.060
 1626SOL     OW 4885   2.021   1.137   3.328
 1626SOL    HW1 4886   2.043   1.076   3.404
 1626SOL    HW2 4887   2.031   1.088   3.242
 1627SOL     OW 4888   3.209   1.059   3.096
 1627SOL    HW1 4889   3.233   0.996   3.022
 1627SOL    HW2 4890   3.119   1.099   3.078
 1628SOL     OW 4891   3.164   0.855   2.171
 1628SOL    HW1 4892   3.078   0.824   2.213
 1628SOL    HW2 4893   3.160   0.841   2.072
 1629SOL     OW 4894   3.621   1.747   3.016
 1629SOL    HW1 4895   3.682   1.777   2.943
 1629SOL    HW2 4896   3.583   1.658   2.994
 1630SOL     OW 4897   3.114   1.731   2.990
 1630SOL    HW1 4898   3.198   1.736   2.936
 1630SOL    HW2 4899   3.091   1.635   3.008
 1631SOL     OW 4900   1.945   1.258   2.884
 1631SOL    HW1 4901   1.940   1.257   2.984
 1631SOL    HW2 4902   1.862   1.217   2.846
 1632SOL     OW 4903   2.550   1.662   3.578
 1632SOL    HW1 4904   2.494   1.743   3.587
 1632SOL    HW2 4905   2.602   1.666   3.492
 1633SOL     OW 4906   3.588   0.135   2.385
 1633SOL    HW1 4907   3.661   0.118   2.318
 1633SOL    HW2 4908   3.557   0.048   2.423
 1634SOL     OW 4909   3.250   1.573   2.339
 1634SOL    HW1 4910   3.317   1.585   2.265
 1634SOL    HW2 4911   3.210   1.662   2.362
 1635SOL     OW 4912   1.992   1.794   3.713
 1635SOL    HW1 4913   1.951   1.720   3.766
 1635SOL    HW2 4914   2.056   1.845   3.771
 1636SOL     OW 4915   3.142   0.927   2.534
 1636SOL    HW1 4916   3.202   0.846   2.536
 1636SOL    HW2 4917   3.182   0.996   2.474
 1637SOL     OW 4918   2.692   1.273   3.284
 1637SOL    HW1 4919   2.687   1.306   3.379
 1637SOL    HW2 4920   2.606   1.292   3.238
 1638SOL     OW 4921   2.534   1.616   2.016
 1638SOL    HW1 4922   2.543   1.626   1.917
 1638SOL    HW2 4923   2.494   1.527   2.037
 1639SOL     OW 4924   3.512   1.720   3.256
 1639SOL    HW1 4925   3.565   1.730   3.172
 1639SOL    HW2 4926   3.485   1.810   3.290
 1640SOL     OW 4927   3.703   0.175   2.825
 1640SOL    HW1 4928   3.742   0.090   2.789
 1640SOL    HW2 4929   3.605   0.177   2.806
 1641SOL     OW 4930   2.125   0.326   2.582
 1641SOL    HW1 4931   2.046   0.377   2.548
 1641SOL    HW2 4932   2.116   0.311   2.680
 1642SOL     OW 4933   3.056   1.612   1.893
 1642SOL    HW1 4934   3.062   1.519   1.930
 1642SOL    HW2 4935   2.997   1.612   1.813
 1643SOL     OW 4936   2.684   1.002   3.234
 1643SOL    HW1 4937   2.724   1.001   3.142
 1643SOL    HW2 4938   2.694   1.094   3.274
 1644SOL     OW 4939   2.778   0.910   2.153
 1644SOL    HW1 4940   2.841   0.948   2.085
 1644SOL    HW2 4941   2.818   0.827   2.192
 1645SOL     OW 4942   3.366   1.607   1.906
 1645SOL    HW1 4943   3.274   1.644   1.913
 1645SOL    HW2 4944   3.404   1.627   1.816
 1646SOL     OW 4945   2.234   1.288   3.352
 1646SOL    HW1 4946   2.221   1.381   3.318
 1646SOL    HW2 4947   2.150   1.236   3.339
 1647SOL     OW 4948   3.476   1.292   3.151
 1647SOL    HW1 4949   3.536   1.295   3.231
 1647SOL    HW2 4950   3.401   1.356   3.164
 1648SOL     OW 4951   2.901   1.098   2.558
 1648SOL    HW1 4952   2.831   1.051   2.612
 1648SOL    HW2 4953   2.960   1.030   2.515
 1649SOL     OW 4954   2.876   0.236   2.833
 1649SOL    HW1 4955   2.868   0.200   2.740
 1649SOL    HW2 4956   2.874   0.160   2.898
 1650SOL     OW 4957   2.452   1.487   2.353
 1650SOL    HW1 4958   2.494   1.429   2.283
 1650SOL    HW2 4959   2.408   1.566   2.309
 1651SOL     OW 4960   3.571   0.385   3.243
 1651SOL    HW1 4961   3.644   0.454   3.247
 1651SOL    HW2 4962   3.599   0.310   3.184
 1652SOL     OW 4963   2.117   1.348   2.152
 1652SOL    HW1 4964   2.021   1.349   2.125
 1652SOL    HW2 4965   2.129   1.401   2.236
 1653SOL     OW 4966   1.967   1.013   3.588
 1653SOL    HW1 4967   1.890   0.980   3.642
 1653SOL    HW2 4968   2.052   0.983   3.630
 1654SOL     OW 4969   2.534   0.203   3.351
 1654SOL    HW1 4970   2.624   0.187   3.311
 1654SOL    HW2 4971   2.542   0.208   3.450
 1655SOL     OW 4972   1.937   0.345   1.895
 1655SOL    HW1 4973   1.845   0.317   1.866
 1655SOL    HW2 4974   1.968   0.422   1.839
 1656SOL     OW 4975   3.302   0.856   3.260
 1656SOL    HW1 4976   3.245   0.908   3.197
 1656SOL    HW2 4977   3.398   0.868   3.236
 1657SOL     OW 4978   1.934   0.166   2.180
 1657SOL    HW1 4979   1.917   0.249   2.126
 1657SOL    HW2 4980   2.024   0.129   2.158
 1658SOL     OW 4981   3.045   1.335   1.981
 1658SOL    HW1 4982   2.946   1.324   1.983
 1658SOL    HW2 4983   3.079   1.350   2.074
 1659SOL     OW 4984   2.475   0.842   3.293
 1659SOL    HW1 4985   2.531   0.923   3.276
 1659SOL    HW2 4986   2.534   0.762   3.296
 1660SOL     OW 4987   3.355   1.767   2.821
 1660SOL    HW1 4988   3.388   1.831   2.752
 1660SOL    HW2 4989   3.421   1.761   2.896
 1661SOL     OW 4990   2.578   0.565   3.570
 1661SOL    HW1 4991   2.597   0.630   3.644
 1661SOL    HW2 4992   2.638   0.485   3.579
 1662SOL     OW 4993   3.312   1.220   3.495
 1662SOL    HW1 4994   3.303   1.210   3.594
 1662SOL    HW2 4995   3.408   1.213   3.469
 1663SOL     OW 4996   2.252   1.741   3.422
 1663SOL    HW1 4997   2.161   1.782   3.420
 1663SOL    HW2 4998   2.245   1.647   3.454
 1664SOL     OW 4999   3.536   0.883   3.116
 1664SOL    HW1 5000   3.509   0.794   3.079
 1664SOL    HW2 5001   3.537   0.951   3.043
 1665SOL     OW 5002   3.087   0.325   2.311
 1665SOL    HW1 5003   3.152   0.251   2.300
 1665SOL    HW2 5004   3.107   0.375   2.395
 1666SOL     OW 5005   2.456   0.745   2.514
 1666SOL    HW1 5006   2.506   0.830   2.495
 1666SOL    HW2 5007   2.368   0.747   2.466
 1667SOL     OW 5008   3.639   0.342   3.504
 1667SOL    HW1 5009   3.622   0.373   3.410
 1667SOL    HW2 5010   3.555   0.305   3.542
 1668SOL     OW 5011   3.592   0.934   3.379
 1668SOL    HW1 5012   3.630   1.025   3.394
 1668SOL    HW2 5013   3.584   0.917   3.280
 1669SOL     OW 5014   2.721   1.374   1.878
 1669SOL    HW1 5015   2.675   1.389   1.966
 1669SOL    HW2 5016   2.765   1.459   1.848
 1670SOL     OW 5017   2.523   1.790   2.815
 1670SOL    HW1 5018   2.477   1.878   2.802
 1670SOL    HW2 5019   2.622   1.802   2.808
 1671SOL     OW 5020   2.721   0.956   2.723
 1671SOL    HW1 5021   2.775   0.887   2.771
 1671SOL    HW2 5022   2.689   1.025   2.789
 1672SOL     OW 5023   2.945   0.984   1.949
 1672SOL    HW1 5024   2.922   1.037   1.867
 1672SOL    HW2 5025   3.026   0.928   1.930
 1673SOL     OW 5026   3.723   1.569   2.713
 1673SOL    HW1 5027   3.652   1.557   2.643
 1673SOL    HW2 5028   3.724   1.490   2.773
 1674SOL     OW 5029   2.083   1.314   3.706
 1674SOL    HW1 5030   2.018   1.241   3.685
 1674SOL    HW2 5031   2.087   1.328   3.804
 1675SOL     OW 5032   1.941   1.240   2.515
 1675SOL    HW1 5033   1.940   1.193   2.603
 1675SOL    HW2 5034   2.023   1.212   2.464
 1676SOL     OW 5035   2.534   1.391   3.486
 1676SOL    HW1 5036   2.456   1.341   3.524
 1676SOL    HW2 5037   2.531   1.486   3.517
 1677SOL     OW 5038   3.686   0.192   3.089
 1677SOL    HW1 5039   3.682   0.102   3.133
 1677SOL    HW2 5040   3.689   0.181   2.990
 1678SOL     OW 5041   2.290   0.424   2.382
 1678SOL    HW1 5042   2.320   0.352   2.320
 1678SOL    HW2 5043   2.251   0.384   2.465
 1679SOL     OW 5044   3.567   1.487   2.966
 1679SOL    HW1 5045   3.474   1.462   2.939
 1679SOL    HW2 5046   3.593   1.437   3.048
 1680SOL     OW 5047   2.179   0.547   3.142
 1680SOL    HW1 5048   2.217   0.488   3.214
 1680SOL    HW2 5049   2.219   0.521   3.054
 1681SOL     OW 5050   2.674   1.586   2.549
 1681SOL    HW1 5051   2.706   1.596   2.455
 1681SOL    HW2 5052   2.595   1.524   2.551
 1682SOL     OW 5053   3.286   0.214   2.974
 1682SOL    HW1 5054   3.338   0.149   3.029
 1682SOL    HW2 5055   3.237   0.277   3.035
 1683SOL     OW 5056   2.863   0.034   3.016
 1683SOL    HW1 5057   2.800  -0.038   2.985
 1683SOL    HW2 5058   2.956  -0.002   3.016
 1684SOL     OW 5059   2.632   1.330   2.163
 1684SOL    HW1 5060   2.586   1.243   2.180
 1684SOL    HW2 5061   2.723   1.327   2.204
 1685SOL     OW 5062   2.480   1.567   3.146
 1685SOL    HW1 5063   2.475   1.649   3.203
 1685SOL    HW2 5064   2.569   1.564   3.101
 1686SOL     OW 5065   3.214   0.052   2.030
 1686SOL    HW1 5066   3.249   0.011   1.946
 1686SOL    HW2 5067   3.124   0.014   2.050
 1687SOL     OW 5068   3.162   0.453   2.553
 1687SOL    HW1 5069   3.103   0.533   2.557
 1687SOL    HW2 5070   3.177   0.418   2.646
 1688SOL     OW 5071   3.455   0.221   2.744
 1688SOL    HW1 5072   3.371   0.220   2.798
 1688SOL    HW2 5073   3.457   0.304   2.688
 1689SOL     OW 5074   1.901   1.077   2.162
 1689SOL    HW1 5075   2.000   1.066   2.153
 1689SOL    HW2 5076   1.861   0.991   2.194
 1690SOL     OW 5077   2.737   1.646   2.199
 1690SOL    HW1 5078   2.660   1.611   2.145
 1690SOL    HW2 5079   2.705   1.717   2.261
 1691SOL     OW 5080   2.092   0.628   3.837
 1691SOL    HW1 5081   1.999   0.626   3.874
 1691SOL    HW2 5082   2.093   0.589   3.745
 1692SOL     OW 5083   1.881   0.368   4.371
 1692SOL    HW1 5084   1.799   0.411   4.410
 1692SOL    HW2 5085   1.853   0.295   4.308
 1693SOL     OW 5086   3.617   0.607   3.955
 1693SOL    HW1 5087   3.605   0.594   3.856
 1693SOL    HW2 5088   3.587   0.526   4.004
 1694SOL     OW 5089   2.547   1.012   4.389
 1694SOL    HW1 5090   2.616   0.996   4.459
 1694SOL    HW2 5091   2.474   1.069   4.427
 1695SOL     OW 5092   3.465   0.447   4.461
 1695SOL    HW1 5093   3.391   0.493   4.411
 1695SOL    HW2 5094   3.516   0.515   4.514
 1696SOL     OW 5095   2.093   1.713   4.207
 1696SOL    HW1 5096   2.127   1.790   4.261
 1696SOL    HW2 5097   2.137   1.713   4.117
 1697SOL     OW 5098   2.092   1.434   4.262
 1697SOL    HW1 5099   2.066   1.530   4.262
 1697SOL    HW2 5100   2.021   1.380   4.307
 1698SOL     OW 5101   2.468   0.964   3.847
 1698SOL    HW1 5102   2.475   1.048   3.793
 1698SOL    HW2 5103   2.514   0.977   3.935
 1699SOL     OW 5104   1.984   0.643   4.287
 1699SOL    HW1 5105   1.939   0.555   4.304
 1699SOL    HW2 5106   1.983   0.697   4.371
 1700SOL     OW 5107   3.704   1.767   4.083
 1700SOL    HW1 5108   3.758   1.738   4.163
 1700SOL    HW2 5109   3.734   1.857   4.054
 1701SOL     OW 5110   1.889   1.596   3.841
 1701SOL    HW1 5111   1.870   1.500   3.862
 1701SOL    HW2 5112   1.856   1.654   3.916
 1702SOL     OW 5113   3.551   0.922   4.336
 1702SOL    HW1 5114   3.646   0.893   4.344
 1702SOL    HW2 5115   3.543   0.987   4.261
 1703SOL     OW 5116   3.503   1.108   4.156
 1703SOL    HW1 5117   3.589   1.110   4.104
 1703SOL    HW2 5118   3.517   1.155   4.244
 1704SOL     OW 5119   2.475   1.365   4.450
 1704SOL    HW1 5120   2.426   1.278   4.459
 1704SOL    HW2 5121   2.452   1.408   4.363
 1705SOL     OW 5122   2.671   0.004   4.226
 1705SOL    HW1 5123   2.711   0.095   4.217
 1705SOL    HW2 5124   2.571   0.012   4.232
 1706SOL     OW 5125   3.387   0.999   3.914
 1706SOL    HW1 5126   3.324   0.923   3.927
 1706SOL    HW2 5127   3.435   1.017   4.000
 1707SOL     OW 5128   3.529   1.714   4.296
 1707SOL    HW1 5129   3.488   1.691   4.208
 1707SOL    HW2 5130   3.511   1.640   4.361
 1708SOL     OW 5131   2.460   0.729   3.994
 1708SOL    HW1 5132   2.484   0.798   3.926
 1708SOL    HW2 5133   2.382   0.762   4.048
 1709SOL     OW 5134   3.143   0.345   4.668
 1709SOL    HW1 5135   3.057   0.295   4.655
 1709SOL    HW2 5136   3.205   0.291   4.724
 1710SOL     OW 5137   3.438   1.662   4.031
 1710SOL    HW1 5138   3.527   1.708   4.034
 1710SOL    HW2 5139   3.417   1.638   3.936
 1711SOL     OW 5140   2.903   0.701   4.153
 1711SOL    HW1 5141   2.929   0.697   4.249
 1711SOL    HW2 5142   2.818   0.650   4.139
 1712SOL     OW 5143   1.938   0.811   4.513
 1712SOL    HW1 5144   2.037   0.799   4.522
 1712SOL    HW2 5145   1.914   0.906   4.534
 1713SOL     OW 5146   2.727   0.348   3.919
 1713SOL    HW1 5147   2.786   0.411   3.870
 1713SOL    HW2 5148   2.746   0.254   3.890
 1714SOL     OW 5149   3.224   1.144   4.269
 1714SOL    HW1 5150   3.307   1.115   4.221
 1714SOL    HW2 5151   3.175   1.211   4.213
 1715SOL     OW 5152   2.870   1.456   4.201
 1715SOL    HW1 5153   2.824   1.528   4.149
 1715SOL    HW2 5154   2.866   1.476   4.299
 1716SOL     OW 5155   2.213   1.801   4.577
 1716SOL    HW1 5156   2.263   1.715   4.583
 1716SOL    HW2 5157   2.278   1.878   4.574
 1717SOL     OW 5158   3.657   1.066   4.597
 1717SOL    HW1 5159   3.595   1.051   4.521
 1717SOL    HW2 5160   3.605   1.077   4.682
 1718SOL     OW 5161   2.183   0.943   3.966
 1718SOL    HW1 5162   2.265   0.982   3.924
 1718SOL    HW2 5163   2.156   0.861   3.917
 1719SOL     OW 5164   2.973   1.776   3.961
 1719SOL    HW1 5165   2.913   1.714   4.011
 1719SOL    HW2 5166   3.004   1.732   3.876
 1720SOL     OW 5167   3.494   1.377   3.805
 1720SOL    HW1 5168   3.462   1.471   3.795
 1720SOL    HW2 5169   3.418   1.314   3.793
 1721SOL     OW 5170   2.326   1.743   4.047
 1721SOL    HW1 5171   2.359   1.782   4.133
 1721SOL    HW2 5172   2.402   1.736   3.982
 1722SOL     OW 5173   3.262   0.107   4.150
 1722SOL    HW1 5174   3.238   0.070   4.060
 1722SOL    HW2 5175   3.361   0.123   4.154
 1723SOL     OW 5176   2.802   1.698   4.628
 1723SOL    HW1 5177   2.882   1.641   4.649
 1723SOL    HW2 5178   2.753   1.658   4.551
 1724SOL     OW 5179   2.244   0.700   4.204
 1724SOL    HW1 5180   2.289   0.610   4.201
 1724SOL    HW2 5181   2.150   0.689   4.237
 1725SOL     OW 5182   2.476   0.122   3.841
 1725SOL    HW1 5183   2.574   0.100   3.848
 1725SOL    HW2 5184   2.445   0.105   3.748
 1726SOL     OW 5185   2.401   0.064   4.236
 1726SOL    HW1 5186   2.320   0.065   4.294
 1726SOL    HW2 5187   2.404   0.147   4.181
 1727SOL     OW 5188   3.296   1.188   3.765
 1727SOL    HW1 5189   3.328   1.112   3.822
 1727SOL    HW2 5190   3.204   1.215   3.795
 1728SOL     OW 5191   2.159   0.035   3.895
 1728SOL    HW1 5192   2.208   0.119   3.874
 1728SOL    HW2 5193   2.221  -0.030   3.940
 1729SOL     OW 5194   2.797   0.236   4.204
 1729SOL    HW1 5195   2.749   0.277   4.126
 1729SOL    HW2 5196   2.896   0.234   4.185
 1730SOL     OW 5197   2.321   1.152   4.465
 1730SOL    HW1 5198   2.250   1.125   4.530
 1730SOL    HW2 5199   2.295   1.124   4.372
 1731SOL     OW 5200   3.133   1.797   4.315
 1731SOL    HW1 5201   3.177   1.861   4.251
 1731SOL    HW2 5202   3.083   1.849   4.385
 1732SOL     OW 5203   2.894   0.549   3.740
 1732SOL    HW1 5204   2.853   0.631   3.701
 1732SOL    HW2 5205   2.958   0.575   3.813
 1733SOL     OW 5206   2.728   0.454   4.366
 1733SOL    HW1 5207   2.696   0.526   4.304
 1733SOL    HW2 5208   2.752   0.373   4.313
 1734SOL     OW 5209   3.719   0.833   4.101
 1734SOL    HW1 5210   3.761   0.769   4.165
 1734SOL    HW2 5211   3.681   0.782   4.023
 1735SOL     OW 5212   2.350   1.385   3.898
 1735SOL    HW1 5213   2.263   1.370   3.945
 1735SOL    HW2 5214   2.333   1.411   3.803
 1736SOL     OW 5215   3.526   1.280   4.381
 1736SOL    HW1 5216   3.625   1.288   4.395
 1736SOL    HW2 5217   3.481   1.364   4.412
 1737SOL     OW 5218   3.252   0.575   3.802
 1737SOL    HW1 5219   3.198   0.554   3.883
 1737SOL    HW2 5220   3.343   0.534   3.811
 1738SOL     OW 5221   2.389   0.256   4.052
 1738SOL    HW1 5222   2.416   0.197   3.977
 1738SOL    HW2 5223   2.389   0.351   4.021
 1739SOL     OW 5224   2.567   1.050   4.092
 1739SOL    HW1 5225   2.553   1.057   4.191
 1739SOL    HW2 5226   2.651   0.999   4.074
 1740SOL     OW 5227   2.229   1.100   4.225
 1740SOL    HW1 5228   2.222   1.183   4.169
 1740SOL    HW2 5229   2.233   1.020   4.165
 1741SOL     OW 5230   3.114   1.348   4.112
 1741SOL    HW1 5231   3.164   1.425   4.152
 1741SOL    HW2 5232   3.019   1.350   4.144
 1742SOL     OW 5233   3.444   0.639   4.196
 1742SOL    HW1 5234   3.413   0.700   4.269
 1742SOL    HW2 5235   3.494   0.691   4.127
 1743SOL     OW 5236   3.071   0.525   3.999
 1743SOL    HW1 5237   3.084   0.441   4.053
 1743SOL    HW2 5238   3.042   0.599   4.059
 1744SOL     OW 5239   2.169   0.063   4.342
 1744SOL    HW1 5240   2.158   0.157   4.375
 1744SOL    HW2 5241   2.164   0.000   4.419
 1745SOL     OW 5242   3.484   0.367   4.098
 1745SOL    HW1 5243   3.486   0.291   4.162
 1745SOL    HW2 5244   3.436   0.444   4.138
 1746SOL     OW 5245   3.402   0.274   3.849
 1746SOL    HW1 5246   3.341   0.199   3.872
 1746SOL    HW2 5247   3.424   0.326   3.932
 1747SOL     OW 5248   3.165   0.838   3.766
 1747SOL    HW1 5249   3.199   0.745   3.781
 1747SOL    HW2 5250   3.183   0.865   3.671
 1748SOL     OW 5251   1.870   1.326   3.924
 1748SOL    HW1 5252   1.777   1.347   3.893
 1748SOL    HW2 5253   1.880   1.227   3.937
 1749SOL     OW 5254   1.902   0.544   4.838
 1749SOL    HW1 5255   1.987   0.511   4.797
 1749SOL    HW2 5256   1.915   0.559   4.936
 1750SOL     OW 5257   2.677   0.572   4.049
 1750SOL    HW1 5258   2.684   0.483   4.003
 1750SOL    HW2 5259   2.583   0.606   4.041
 1751SOL     OW 5260   2.335   0.500   3.915
 1751SOL    HW1 5261   2.396   0.580   3.919
 1751SOL    HW2 5262   2.240   0.531   3.922
 1752SOL     OW 5263   3.164   0.855   4.033
 1752SOL    HW1 5264   3.078   0.824   4.075
 1752SOL    HW2 5265   3.160   0.841   3.934
 1753SOL     OW 5266   3.588   0.135   4.247
 1753SOL    HW1 5267   3.661   0.118   4.180
 1753SOL    HW2 5268   3.557   0.048   4.285
 1754SOL     OW 5269   3.250   1.573   4.201
 1754SOL    HW1 5270   3.317   1.585   4.127
 1754SOL    HW2 5271   3.210   1.662   4.224
 1755SOL     OW 5272   2.534   1.616   3.878
 1755SOL    HW1 5273   2.543   1.626   3.779
 1755SOL    HW2 5274   2.494   1.527   3.899
 1756SOL     OW 5275   3.703   0.175   4.687
 1756SOL    HW1 5276   3.742   0.090   4.651
 1756SOL    HW2 5277   3.605   0.177   4.668
 1757SOL     OW 5278   2.125   0.326   4.444
 1757SOL    HW1 5279   2.046   0.377   4.410
 1757SOL    HW2 5280   2.116   0.311   4.542
 1758SOL     OW 5281   3.056   1.612   3.755
 1758SOL    HW1 5282   3.062   1.519   3.792
 1758SOL    HW2 5283   2.997   1.612   3.675
 1759SOL     OW 5284   2.778   0.910   4.015
 1759SOL    HW1 5285   2.841   0.948   3.947
 1759SOL    HW2 5286   2.818   0.827   4.054
 1760SOL     OW 5287   3.366   1.607   3.768
 1760SOL    HW1 5288   3.274   1.644   3.775
 1760SOL    HW2 5289   3.404   1.627   3.678
 1761SOL     OW 5290   2.452   1.487   4.215
 1761SOL    HW1 5291   2.494   1.429   4.145
 1761SOL    HW2 5292   2.408   1.566   4.171
 1762SOL     OW 5293   2.117   1.348   4.014
 1762SOL    HW1 5294   2.021   1.349   3.987
 1762SOL    HW2 5295   2.129   1.401   4.098
 1763SOL     OW 5296   1.937   0.345   3.757
 1763SOL    HW1 5297   1.845   0.317   3.728
 1763SOL    HW2 5298   1.968   0.422   3.701
 1764SOL     OW 5299   1.934   0.166   4.042
 1764SOL    HW1 5300   1.917   0.249   3.988
 1764SOL    HW2 5301   2.024   0.129   4.020
 1765SOL     OW 5302   3.045   1.335   3.843
 1765SOL    HW1 5303   2.946   1.324   3.845
 1765SOL    HW2 5304   3.079   1.350   3.936
 1766SOL     OW 5305   3.087   0.325   4.173
 1766SOL    HW1 5306   3.152   0.251   4.162
 1766SOL    HW2 5307   3.107   0.375   4.257
 1767SOL     OW 5308   2.456   0.745   4.376
 1767SOL    HW1 5309   2.506   0.830   4.357
 1767SOL    HW2 5310   2.368   0.747   4.328
 1768SOL     OW 5311   2.721   1.374   3.740
 1768SOL    HW1 5312   2.675   1.389   3.828
 1768SOL    HW2 5313   2.765   1.459   3.710
 1769SOL     OW 5314   2.523   1.790   4.677
 1769SOL    HW1 5315   2.477   1.878   4.664
 1769SOL    HW2 5316   2.622   1.802   4.670
 1770SOL     OW 5317   2.721   0.956   4.585
 1770SOL    HW1 5318   2.775   0.887   4.633
 1770SOL    HW2 5319   2.689   1.025   4.651
 1771SOL     OW 5320   2.945   0.984   3.811
 1771SOL    HW1 5321   2.922   1.037   3.729
 1771SOL    HW2 5322   3.026   0.928   3.792
 1772SOL     OW 5323   1.941   1.240   4.377
 1772SOL    HW1 5324   1.940   1.193   4.465
 1772SOL    HW2 5325   2.023   1.212   4.326
 1773SOL     OW 5326   2.290   0.424   4.244
 1773SOL    HW1 5327   2.320   0.352   4.182
 1773SOL    HW2 5328   2.251   0.384   4.327
 1774SOL     OW 5329   2.674   1.586   4.411
 1774SOL    HW1 5330   2.706   1.596   4.317
 1774SOL    HW2 5331   2.595   1.524   4.413
 1775SOL     OW 5332   2.632   1.330   4.025
 1775SOL    HW1 5333   2.586   1.243   4.042
 1775SOL    HW2 5334   2.723   1.327   4.066
 1776SOL     OW 5335   3.214   0.052   3.892
 1776SOL    HW1 5336   3.249   0.011   3.808
 1776SOL    HW2 5337   3.124   0.014   3.912
 1777SOL     OW 5338   3.162   0.453   4.415
 1777SOL    HW1 5339   3.103   0.533   4.419
 1777SOL    HW2 5340   3.177   0.418   4.508
 1778SOL     OW 5341   1.901   1.077   4.024
 1778SOL    HW1 5342   2.000   1.066   4.015
 1778SOL    HW2 5343   1.861   0.991   4.056
 1779SOL     OW 5344   2.737   1.646   4.061
 1779SOL    HW1 5345   2.660   1.611   4.007
 1779SOL    HW2 5346   2.705   1.717   4.123
 1780SOL     OW 5347   2.092   2.490   0.113
 1780SOL    HW1 5348   1.999   2.488   0.150
 1780SOL    HW2 5349   2.093   2.451   0.021
 1781SOL     OW 5350   2.087   2.137   0.996
 1781SOL    HW1 5351   2.122   2.120   1.088
 1781SOL    HW2 5352   1.999   2.092   0.984
 1782SOL     OW 5353   1.881   2.230   0.647
 1782SOL    HW1 5354   1.799   2.273   0.686
 1782SOL    HW2 5355   1.853   2.157   0.584
 1783SOL     OW 5356   2.431   3.137   1.165
 1783SOL    HW1 5357   2.338   3.130   1.128
 1783SOL    HW2 5358   2.442   3.226   1.209
 1784SOL     OW 5359   3.417   3.373   0.703
 1784SOL    HW1 5360   3.360   3.357   0.784
 1784SOL    HW2 5361   3.358   3.383   0.623
 1785SOL     OW 5362   2.997   2.565   0.717
 1785SOL    HW1 5363   3.054   2.643   0.692
 1785SOL    HW2 5364   2.937   2.591   0.793
 1786SOL     OW 5365   3.617   2.469   0.231
 1786SOL    HW1 5366   3.605   2.456   0.132
 1786SOL    HW2 5367   3.587   2.388   0.280
 1787SOL     OW 5368   2.630   3.006   1.023
 1787SOL    HW1 5369   2.552   3.023   1.083
 1787SOL    HW2 5370   2.664   3.093   0.987
 1788SOL     OW 5371   2.712   2.660   1.823
 1788SOL    HW1 5372   2.708   2.736   1.888
 1788SOL    HW2 5373   2.734   2.696   1.732
 1789SOL     OW 5374   2.547   2.874   0.665
 1789SOL    HW1 5375   2.616   2.858   0.735
 1789SOL    HW2 5376   2.474   2.931   0.703
 1790SOL     OW 5377   2.548   3.023   1.803
 1790SOL    HW1 5378   2.608   3.102   1.817
 1790SOL    HW2 5379   2.462   3.054   1.762
 1791SOL     OW 5380   2.197   3.297   1.061
 1791SOL    HW1 5381   2.119   3.266   1.008
 1791SOL    HW2 5382   2.255   3.355   1.004
 1792SOL     OW 5383   3.322   3.367   1.339
 1792SOL    HW1 5384   3.346   3.461   1.365
 1792SOL    HW2 5385   3.306   3.313   1.421
 1793SOL     OW 5386   2.300   2.254   1.499
 1793SOL    HW1 5387   2.382   2.198   1.508
 1793SOL    HW2 5388   2.219   2.196   1.503
 1794SOL     OW 5389   3.465   2.309   0.737
 1794SOL    HW1 5390   3.391   2.355   0.687
 1794SOL    HW2 5391   3.516   2.377   0.790
 1795SOL     OW 5392   2.093   3.575   0.483
 1795SOL    HW1 5393   2.127   3.652   0.537
 1795SOL    HW2 5394   2.137   3.575   0.393
 1796SOL     OW 5395   2.989   3.203   1.690
 1796SOL    HW1 5396   3.036   3.203   1.778
 1796SOL    HW2 5397   2.941   3.116   1.679
 1797SOL     OW 5398   2.092   3.296   0.538
 1797SOL    HW1 5399   2.066   3.392   0.538
 1797SOL    HW2 5400   2.021   3.242   0.583
 1798SOL     OW 5401   2.102   2.953   0.886
 1798SOL    HW1 5402   2.116   2.869   0.938
 1798SOL    HW2 5403   2.047   3.017   0.941
 1799SOL     OW 5404   2.482   3.648   1.439
 1799SOL    HW1 5405   2.390   3.631   1.474
 1799SOL    HW2 5406   2.510   3.740   1.465
 1800SOL     OW 5407   2.468   2.826   0.123
 1800SOL    HW1 5408   2.475   2.910   0.069
 1800SOL    HW2 5409   2.514   2.839   0.211
 1801SOL     OW 5410   3.456   1.976   1.480
 1801SOL    HW1 5411   3.438   2.043   1.408
 1801SOL    HW2 5412   3.453   2.022   1.569
 1802SOL     OW 5413   1.984   2.505   0.563
 1802SOL    HW1 5414   1.939   2.417   0.580
 1802SOL    HW2 5415   1.983   2.559   0.647
 1803SOL     OW 5416   3.704   3.629   0.359
 1803SOL    HW1 5417   3.758   3.600   0.439
 1803SOL    HW2 5418   3.734   3.719   0.330
 1804SOL     OW 5419   1.889   3.458   0.117
 1804SOL    HW1 5420   1.870   3.362   0.138
 1804SOL    HW2 5421   1.856   3.516   0.192
 1805SOL     OW 5422   3.551   2.784   0.612
 1805SOL    HW1 5423   3.646   2.755   0.620
 1805SOL    HW2 5424   3.543   2.849   0.537
 1806SOL     OW 5425   3.503   2.970   0.432
 1806SOL    HW1 5426   3.589   2.972   0.380
 1806SOL    HW2 5427   3.517   3.017   0.520
 1807SOL     OW 5428   1.975   2.599   1.597
 1807SOL    HW1 5429   2.063   2.586   1.642
 1807SOL    HW2 5430   1.962   2.696   1.575
 1808SOL     OW 5431   2.475   3.227   0.726
 1808SOL    HW1 5432   2.426   3.140   0.735
 1808SOL    HW2 5433   2.452   3.270   0.639
 1809SOL     OW 5434   3.155   3.090   1.423
 1809SOL    HW1 5435   3.192   3.017   1.365
 1809SOL    HW2 5436   3.207   3.095   1.508
 1810SOL     OW 5437   2.671   1.866   0.502
 1810SOL    HW1 5438   2.711   1.957   0.493
 1810SOL    HW2 5439   2.571   1.874   0.508
 1811SOL     OW 5440   2.059   2.838   1.264
 1811SOL    HW1 5441   2.148   2.793   1.250
 1811SOL    HW2 5442   1.986   2.773   1.245
 1812SOL     OW 5443   3.387   2.861   0.190
 1812SOL    HW1 5444   3.324   2.785   0.203
 1812SOL    HW2 5445   3.435   2.879   0.276
 1813SOL     OW 5446   3.049   3.654   1.616
 1813SOL    HW1 5447   3.073   3.714   1.540
 1813SOL    HW2 5448   3.056   3.559   1.586
 1814SOL     OW 5449   2.179   2.113   1.801
 1814SOL    HW1 5450   2.250   2.184   1.807
 1814SOL    HW2 5451   2.091   2.152   1.829
 1815SOL     OW 5452   3.328   3.279   0.953
 1815SOL    HW1 5453   3.269   3.285   1.033
 1815SOL    HW2 5454   3.313   3.191   0.907
 1816SOL     OW 5455   3.529   3.576   0.572
 1816SOL    HW1 5456   3.488   3.553   0.484
 1816SOL    HW2 5457   3.511   3.502   0.637
 1817SOL     OW 5458   2.460   2.591   0.270
 1817SOL    HW1 5459   2.484   2.660   0.202
 1817SOL    HW2 5460   2.382   2.624   0.324
 1818SOL     OW 5461   3.143   2.207   0.944
 1818SOL    HW1 5462   3.057   2.157   0.931
 1818SOL    HW2 5463   3.205   2.153   1.000
 1819SOL     OW 5464   3.438   3.524   0.307
 1819SOL    HW1 5465   3.527   3.570   0.310
 1819SOL    HW2 5466   3.417   3.500   0.212
 1820SOL     OW 5467   2.669   2.467   1.465
 1820SOL    HW1 5468   2.622   2.464   1.554
 1820SOL    HW2 5469   2.618   2.412   1.399
 1821SOL     OW 5470   3.256   2.331   1.674
 1821SOL    HW1 5471   3.236   2.374   1.762
 1821SOL    HW2 5472   3.334   2.269   1.683
 1822SOL     OW 5473   2.835   2.752   1.572
 1822SOL    HW1 5474   2.881   2.668   1.543
 1822SOL    HW2 5475   2.779   2.786   1.497
 1823SOL     OW 5476   2.853   2.272   1.242
 1823SOL    HW1 5477   2.776   2.306   1.296
 1823SOL    HW2 5478   2.819   2.221   1.163
 1824SOL     OW 5479   2.903   2.563   0.429
 1824SOL    HW1 5480   2.929   2.559   0.525
 1824SOL    HW2 5481   2.818   2.512   0.415
 1825SOL     OW 5482   1.938   2.673   0.789
 1825SOL    HW1 5483   2.037   2.661   0.798
 1825SOL    HW2 5484   1.914   2.768   0.810
 1826SOL     OW 5485   1.992   3.683   1.571
 1826SOL    HW1 5486   1.982   3.668   1.670
 1826SOL    HW2 5487   1.906   3.719   1.535
 1827SOL     OW 5488   2.727   2.210   0.195
 1827SOL    HW1 5489   2.786   2.273   0.146
 1827SOL    HW2 5490   2.746   2.116   0.166
 1828SOL     OW 5491   3.581   2.447   1.831
 1828SOL    HW1 5492   3.555   2.536   1.795
 1828SOL    HW2 5493   3.579   2.379   1.758
 1829SOL     OW 5494   3.224   3.006   0.545
 1829SOL    HW1 5495   3.307   2.977   0.497
 1829SOL    HW2 5496   3.175   3.073   0.489
 1830SOL     OW 5497   2.412   2.058   0.885
 1830SOL    HW1 5498   2.407   2.053   0.985
 1830SOL    HW2 5499   2.414   2.154   0.856
 1831SOL     OW 5500   2.870   3.318   0.477
 1831SOL    HW1 5501   2.824   3.390   0.425
 1831SOL    HW2 5502   2.866   3.338   0.575
 1832SOL     OW 5503   2.213   3.663   0.853
 1832SOL    HW1 5504   2.263   3.577   0.859
 1832SOL    HW2 5505   2.278   3.740   0.850
 1833SOL     OW 5506   3.657   2.928   0.873
 1833SOL    HW1 5507   3.595   2.913   0.797
 1833SOL    HW2 5508   3.605   2.939   0.958
 1834SOL     OW 5509   3.089   3.412   1.506
 1834SOL    HW1 5510   3.095   3.335   1.570
 1834SOL    HW2 5511   3.037   3.386   1.426
 1835SOL     OW 5512   2.183   2.805   0.242
 1835SOL    HW1 5513   2.265   2.844   0.200
 1835SOL    HW2 5514   2.156   2.723   0.193
 1836SOL     OW 5515   3.320   2.597   0.728
 1836SOL    HW1 5516   3.315   2.532   0.803
 1836SOL    HW2 5517   3.400   2.656   0.741
 1837SOL     OW 5518   2.323   3.128   1.727
 1837SOL    HW1 5519   2.273   3.129   1.641
 1837SOL    HW2 5520   2.260   3.110   1.803
 1838SOL     OW 5521   2.973   3.638   0.237
 1838SOL    HW1 5522   2.913   3.576   0.287
 1838SOL    HW2 5523   3.004   3.594   0.152
 1839SOL     OW 5524   2.064   2.147   1.498
 1839SOL    HW1 5525   1.984   2.207   1.485
 1839SOL    HW2 5526   2.054   2.098   1.584
 1840SOL     OW 5527   3.494   3.239   0.081
 1840SOL    HW1 5528   3.462   3.333   0.071
 1840SOL    HW2 5529   3.418   3.176   0.069
 1841SOL     OW 5530   2.326   3.605   0.323
 1841SOL    HW1 5531   2.359   3.644   0.409
 1841SOL    HW2 5532   2.402   3.598   0.258
 1842SOL     OW 5533   3.262   1.969   0.426
 1842SOL    HW1 5534   3.238   1.932   0.336
 1842SOL    HW2 5535   3.361   1.985   0.430
 1843SOL     OW 5536   2.111   3.647   1.241
 1843SOL    HW1 5537   2.168   3.582   1.291
 1843SOL    HW2 5538   2.095   3.614   1.148
 1844SOL     OW 5539   2.802   3.560   0.904
 1844SOL    HW1 5540   2.882   3.503   0.925
 1844SOL    HW2 5541   2.753   3.520   0.827
 1845SOL     OW 5542   2.244   2.562   0.480
 1845SOL    HW1 5543   2.289   2.472   0.477
 1845SOL    HW2 5544   2.150   2.551   0.513
 1846SOL     OW 5545   3.409   2.084   1.729
 1846SOL    HW1 5546   3.404   2.121   1.821
 1846SOL    HW2 5547   3.337   2.015   1.717
 1847SOL     OW 5548   2.643   2.126   1.749
 1847SOL    HW1 5549   2.710   2.065   1.792
 1847SOL    HW2 5550   2.570   2.145   1.814
 1848SOL     OW 5551   2.750   3.376   1.195
 1848SOL    HW1 5552   2.727   3.351   1.101
 1848SOL    HW2 5553   2.811   3.307   1.234
 1849SOL     OW 5554   3.213   2.452   1.433
 1849SOL    HW1 5555   3.241   2.409   1.518
 1849SOL    HW2 5556   3.238   2.548   1.434
 1850SOL     OW 5557   2.665   3.264   0.924
 1850SOL    HW1 5558   2.755   3.278   0.882
 1850SOL    HW2 5559   2.594   3.266   0.853
 1851SOL     OW 5560   2.784   2.365   0.899
 1851SOL    HW1 5561   2.759   2.356   0.803
 1851SOL    HW2 5562   2.832   2.283   0.930
 1852SOL     OW 5563   2.401   1.926   0.512
 1852SOL    HW1 5564   2.320   1.927   0.570
 1852SOL    HW2 5565   2.404   2.009   0.457
 1853SOL     OW 5566   3.296   3.050   0.041
 1853SOL    HW1 5567   3.328   2.974   0.098
 1853SOL    HW2 5568   3.204   3.077   0.071
 1854SOL     OW 5569   2.159   1.897   0.171
 1854SOL    HW1 5570   2.208   1.981   0.150
 1854SOL    HW2 5571   2.221   1.832   0.216
 1855SOL     OW 5572   2.797   2.098   0.480
 1855SOL    HW1 5573   2.749   2.139   0.402
 1855SOL    HW2 5574   2.896   2.096   0.461
 1856SOL     OW 5575   2.938   2.545   1.464
 1856SOL    HW1 5576   2.858   2.484   1.467
 1856SOL    HW2 5577   3.019   2.492   1.440
 1857SOL     OW 5578   3.089   3.432   0.793
 1857SOL    HW1 5579   3.110   3.506   0.728
 1857SOL    HW2 5580   3.157   3.432   0.866
 1858SOL     OW 5581   2.321   3.014   0.741
 1858SOL    HW1 5582   2.250   2.987   0.806
 1858SOL    HW2 5583   2.295   2.986   0.648
 1859SOL     OW 5584   3.133   3.659   0.591
 1859SOL    HW1 5585   3.177   3.723   0.527
 1859SOL    HW2 5586   3.083   3.711   0.661
 1860SOL     OW 5587   2.894   2.411   0.016
 1860SOL    HW1 5588   2.853   2.493  -0.023
 1860SOL    HW2 5589   2.958   2.437   0.089
 1861SOL     OW 5590   1.940   2.418   1.386
 1861SOL    HW1 5591   2.032   2.417   1.345
 1861SOL    HW2 5592   1.934   2.492   1.453
 1862SOL     OW 5593   2.423   2.084   1.147
 1862SOL    HW1 5594   2.461   2.000   1.184
 1862SOL    HW2 5595   2.335   2.103   1.191
 1863SOL     OW 5596   2.728   2.316   0.642
 1863SOL    HW1 5597   2.696   2.388   0.580
 1863SOL    HW2 5598   2.752   2.235   0.589
 1864SOL     OW 5599   2.879   1.901   0.753
 1864SOL    HW1 5600   2.807   1.906   0.684
 1864SOL    HW2 5601   2.855   1.832   0.822
 1865SOL     OW 5602   3.291   3.035   0.867
 1865SOL    HW1 5603   3.236   2.951   0.860
 1865SOL    HW2 5604   3.317   3.064   0.775
 1866SOL     OW 5605   3.328   2.452   0.992
 1866SOL    HW1 5606   3.298   2.357   0.999
 1866SOL    HW2 5607   3.401   2.468   1.058
 1867SOL     OW 5608   3.719   2.695   0.377
 1867SOL    HW1 5609   3.761   2.631   0.441
 1867SOL    HW2 5610   3.681   2.644   0.299
 1868SOL     OW 5611   2.350   3.247   0.174
 1868SOL    HW1 5612   2.263   3.232   0.221
 1868SOL    HW2 5613   2.333   3.273   0.079
 1869SOL     OW 5614   3.526   3.142   0.657
 1869SOL    HW1 5615   3.625   3.150   0.671
 1869SOL    HW2 5616   3.481   3.226   0.688
 1870SOL     OW 5617   3.252   2.437   0.078
 1870SOL    HW1 5618   3.198   2.416   0.159
 1870SOL    HW2 5619   3.343   2.396   0.087
 1871SOL     OW 5620   2.389   2.118   0.328
 1871SOL    HW1 5621   2.416   2.059   0.253
 1871SOL    HW2 5622   2.389   2.213   0.297
 1872SOL     OW 5623   3.616   3.085   1.588
 1872SOL    HW1 5624   3.707   3.046   1.575
 1872SOL    HW2 5625   3.624   3.181   1.612
 1873SOL     OW 5626   2.926   3.209   1.340
 1873SOL    HW1 5627   2.846   3.186   1.395
 1873SOL    HW2 5628   3.009   3.183   1.389
 1874SOL     OW 5629   3.454   3.491   1.625
 1874SOL    HW1 5630   3.481   3.525   1.535
 1874SOL    HW2 5631   3.533   3.453   1.671
 1875SOL     OW 5632   2.973   3.057   1.100
 1875SOL    HW1 5633   2.933   3.101   1.181
 1875SOL    HW2 5634   2.932   3.094   1.017
 1876SOL     OW 5635   3.500   2.961   1.079
 1876SOL    HW1 5636   3.505   3.042   1.138
 1876SOL    HW2 5637   3.414   2.963   1.028
 1877SOL     OW 5638   2.777   1.951   1.402
 1877SOL    HW1 5639   2.802   1.931   1.307
 1877SOL    HW2 5640   2.849   2.007   1.444
 1878SOL     OW 5641   2.842   2.978   1.719
 1878SOL    HW1 5642   2.743   2.984   1.729
 1878SOL    HW2 5643   2.865   2.898   1.663
 1879SOL     OW 5644   2.567   2.912   0.368
 1879SOL    HW1 5645   2.553   2.919   0.467
 1879SOL    HW2 5646   2.651   2.861   0.350
 1880SOL     OW 5647   2.272   2.675   1.251
 1880SOL    HW1 5648   2.358   2.687   1.301
 1880SOL    HW2 5649   2.230   2.588   1.278
 1881SOL     OW 5650   3.136   2.248   1.262
 1881SOL    HW1 5651   3.157   2.322   1.326
 1881SOL    HW2 5652   3.047   2.265   1.219
 1882SOL     OW 5653   1.926   3.426   1.331
 1882SOL    HW1 5654   1.880   3.508   1.297
 1882SOL    HW2 5655   2.024   3.445   1.340
 1883SOL     OW 5656   2.229   2.962   0.501
 1883SOL    HW1 5657   2.222   3.045   0.445
 1883SOL    HW2 5658   2.233   2.882   0.441
 1884SOL     OW 5659   2.428   2.399   0.865
 1884SOL    HW1 5660   2.440   2.465   0.791
 1884SOL    HW2 5661   2.474   2.433   0.948
 1885SOL     OW 5662   3.114   3.210   0.388
 1885SOL    HW1 5663   3.164   3.287   0.428
 1885SOL    HW2 5664   3.019   3.212   0.420
 1886SOL     OW 5665   3.134   3.307   1.142
 1886SOL    HW1 5666   3.181   3.320   1.229
 1886SOL    HW2 5667   3.068   3.233   1.151
 1887SOL     OW 5668   3.444   2.501   0.472
 1887SOL    HW1 5669   3.413   2.562   0.545
 1887SOL    HW2 5670   3.494   2.553   0.403
 1888SOL     OW 5671   2.216   3.372   1.329
 1888SOL    HW1 5672   2.195   3.328   1.242
 1888SOL    HW2 5673   2.313   3.398   1.332
 1889SOL     OW 5674   2.264   2.613   1.598
 1889SOL    HW1 5675   2.332   2.668   1.551
 1889SOL    HW2 5676   2.304   2.525   1.625
 1890SOL     OW 5677   3.449   2.641   1.670
 1890SOL    HW1 5678   3.357   2.679   1.665
 1890SOL    HW2 5679   3.509   2.688   1.605
 1891SOL     OW 5680   2.875   1.967   1.770
 1891SOL    HW1 5681   2.881   2.052   1.718
 1891SOL    HW2 5682   2.907   1.891   1.713
 1892SOL     OW 5683   2.366   1.912   1.740
 1892SOL    HW1 5684   2.324   1.855   1.670
 1892SOL    HW2 5685   2.300   1.981   1.772
 1893SOL     OW 5686   2.435   2.732   1.029
 1893SOL    HW1 5687   2.479   2.821   1.020
 1893SOL    HW2 5688   2.372   2.732   1.106
 1894SOL     OW 5689   3.222   2.724   1.045
 1894SOL    HW1 5690   3.147   2.724   0.979
 1894SOL    HW2 5691   3.259   2.632   1.054
 1895SOL     OW 5692   3.071   2.387   0.275
 1895SOL    HW1 5693   3.084   2.303   0.329
 1895SOL    HW2 5694   3.042   2.461   0.335
 1896SOL     OW 5695   2.169   2.075   1.231
 1896SOL    HW1 5696   2.146   2.112   1.321
 1896SOL    HW2 5697   2.139   1.980   1.225
 1897SOL     OW 5698   1.899   3.172   1.282
 1897SOL    HW1 5699   1.952   3.123   1.350
 1897SOL    HW2 5700   1.921   3.270   1.287
 1898SOL     OW 5701   2.594   2.496   1.064
 1898SOL    HW1 5702   2.653   2.470   0.988
 1898SOL    HW2 5703   2.566   2.592   1.053
 1899SOL     OW 5704   3.590   2.797   1.854
 1899SOL    HW1 5705   3.544   2.790   1.765
 1899SOL    HW2 5706   3.528   2.841   1.920
 1900SOL     OW 5707   2.169   1.925   0.618
 1900SOL    HW1 5708   2.158   2.019   0.651
 1900SOL    HW2 5709   2.164   1.862   0.695
 1901SOL     OW 5710   3.484   2.229   0.374
 1901SOL    HW1 5711   3.486   2.153   0.438
 1901SOL    HW2 5712   3.436   2.306   0.414
 1902SOL     OW 5713   2.885   2.628   0.966
 1902SOL    HW1 5714   2.900   2.649   1.062
 1902SOL    HW2 5715   2.855   2.533   0.957
 1903SOL     OW 5716   2.842   3.435   1.700
 1903SOL    HW1 5717   2.822   3.479   1.612
 1903SOL    HW2 5718   2.881   3.344   1.684
 1904SOL     OW 5719   3.721   3.380   1.605
 1904SOL    HW1 5720   3.735   3.407   1.510
 1904SOL    HW2 5721   3.804   3.402   1.658
 1905SOL     OW 5722   2.212   2.760   1.804
 1905SOL    HW1 5723   2.288   2.804   1.852
 1905SOL    HW2 5724   2.247   2.713   1.722
 1906SOL     OW 5725   3.402   2.136   0.125
 1906SOL    HW1 5726   3.341   2.061   0.148
 1906SOL    HW2 5727   3.424   2.188   0.208
 1907SOL     OW 5728   3.165   2.700   0.042
 1907SOL    HW1 5729   3.199   2.607   0.057
 1907SOL    HW2 5730   3.183   2.727  -0.053
 1908SOL     OW 5731   2.930   3.195   0.849
 1908SOL    HW1 5732   2.937   3.111   0.794
 1908SOL    HW2 5733   2.992   3.264   0.813
 1909SOL     OW 5734   2.181   2.672   0.949
 1909SOL    HW1 5735   2.274   2.708   0.954
 1909SOL    HW2 5736   2.175   2.587   1.001
 1910SOL     OW 5737   2.201   2.371   1.006
 1910SOL    HW1 5738   2.149   2.288   0.989
 1910SOL    HW2 5739   2.278   2.376   0.942
 1911SOL     OW 5740   3.000   2.242   1.678
 1911SOL    HW1 5741   2.955   2.305   1.742
 1911SOL    HW2 5742   3.093   2.273   1.661
 1912SOL     OW 5743   3.022   2.069   1.477
 1912SOL    HW1 5744   3.022   2.133   1.554
 1912SOL    HW2 5745   3.050   2.117   1.394
 1913SOL     OW 5746   1.870   3.188   0.200
 1913SOL    HW1 5747   1.777   3.209   0.169
 1913SOL    HW2 5748   1.880   3.089   0.213
 1914SOL     OW 5749   1.950   3.663   0.927
 1914SOL    HW1 5750   1.908   3.577   0.900
 1914SOL    HW2 5751   2.044   3.666   0.893
 1915SOL     OW 5752   2.366   3.430   0.910
 1915SOL    HW1 5753   2.432   3.504   0.919
 1915SOL    HW2 5754   2.410   3.351   0.868
 1916SOL     OW 5755   2.864   2.658   1.238
 1916SOL    HW1 5756   2.905   2.626   1.324
 1916SOL    HW2 5757   2.768   2.631   1.235
 1917SOL     OW 5758   1.902   2.406   1.114
 1917SOL    HW1 5759   1.987   2.373   1.073
 1917SOL    HW2 5760   1.915   2.421   1.212
 1918SOL     OW 5761   2.051   2.382   1.722
 1918SOL    HW1 5762   2.110   2.342   1.652
 1918SOL    HW2 5763   1.993   2.453   1.681
 1919SOL     OW 5764   3.231   2.812   1.660
 1919SOL    HW1 5765   3.270   2.901   1.680
 1919SOL    HW2 5766   3.241   2.792   1.563
 1920SOL     OW 5767   2.677   2.434   0.325
 1920SOL    HW1 5768   2.684   2.345   0.279
 1920SOL    HW2 5769   2.583   2.468   0.317
 1921SOL     OW 5770   3.519   2.466   1.206
 1921SOL    HW1 5771   3.481   2.397   1.268
 1921SOL    HW2 5772   3.601   2.430   1.162
 1922SOL     OW 5773   2.114   3.426   1.744
 1922SOL    HW1 5774   2.084   3.483   1.820
 1922SOL    HW2 5775   2.107   3.329   1.770
 1923SOL     OW 5776   2.533   2.326   1.269
 1923SOL    HW1 5777   2.499   2.237   1.239
 1923SOL    HW2 5778   2.559   2.380   1.189
 1924SOL     OW 5779   2.792   3.540   1.465
 1924SOL    HW1 5780   2.768   3.522   1.370
 1924SOL    HW2 5781   2.822   3.634   1.475
 1925SOL     OW 5782   2.335   2.362   0.191
 1925SOL    HW1 5783   2.396   2.442   0.195
 1925SOL    HW2 5784   2.240   2.393   0.198
 1926SOL     OW 5785   2.021   2.999   1.466
 1926SOL    HW1 5786   2.043   2.938   1.542
 1926SOL    HW2 5787   2.031   2.950   1.380
 1927SOL     OW 5788   3.209   2.921   1.234
 1927SOL    HW1 5789   3.233   2.858   1.160
 1927SOL    HW2 5790   3.119   2.961   1.216
 1928SOL     OW 5791   3.164   2.717   0.309
 1928SOL    HW1 5792   3.078   2.686   0.351
 1928SOL    HW2 5793   3.160   2.703   0.210
 1929SOL     OW 5794   3.621   3.609   1.154
 1929SOL    HW1 5795   3.682   3.639   1.081
 1929SOL    HW2 5796   3.583   3.520   1.132
 1930SOL     OW 5797   3.114   3.593   1.128
 1930SOL    HW1 5798   3.198   3.598   1.074
 1930SOL    HW2 5799   3.091   3.497   1.146
 1931SOL     OW 5800   1.945   3.120   1.022
 1931SOL    HW1 5801   1.940   3.119   1.122
 1931SOL    HW2 5802   1.862   3.079   0.984
 1932SOL     OW 5803   2.550   3.524   1.716
 1932SOL    HW1 5804   2.494   3.605   1.725
 1932SOL    HW2 5805   2.602   3.528   1.630
 1933SOL     OW 5806   2.765   1.948   0.133
 1933SOL    HW1 5807   2.816   1.949   0.047
 1933SOL    HW2 5808   2.821   1.906   0.204
 1934SOL     OW 5809   3.588   1.997   0.523
 1934SOL    HW1 5810   3.661   1.980   0.456
 1934SOL    HW2 5811   3.557   1.910   0.561
 1935SOL     OW 5812   3.250   3.435   0.477
 1935SOL    HW1 5813   3.317   3.447   0.403
 1935SOL    HW2 5814   3.210   3.524   0.500
 1936SOL     OW 5815   1.992   3.656   1.851
 1936SOL    HW1 5816   1.951   3.582   1.904
 1936SOL    HW2 5817   2.056   3.707   1.909
 1937SOL     OW 5818   3.142   2.789   0.672
 1937SOL    HW1 5819   3.202   2.708   0.674
 1937SOL    HW2 5820   3.182   2.858   0.612
 1938SOL     OW 5821   2.692   3.135   1.422
 1938SOL    HW1 5822   2.687   3.168   1.517
 1938SOL    HW2 5823   2.606   3.154   1.376
 1939SOL     OW 5824   2.534   3.478   0.154
 1939SOL    HW1 5825   2.543   3.488   0.055
 1939SOL    HW2 5826   2.494   3.389   0.175
 1940SOL     OW 5827   3.512   3.582   1.394
 1940SOL    HW1 5828   3.565   3.592   1.310
 1940SOL    HW2 5829   3.485   3.672   1.428
 1941SOL     OW 5830   3.703   2.037   0.963
 1941SOL    HW1 5831   3.742   1.952   0.927
 1941SOL    HW2 5832   3.605   2.039   0.944
 1942SOL     OW 5833   2.125   2.188   0.720
 1942SOL    HW1 5834   2.046   2.239   0.686
 1942SOL    HW2 5835   2.116   2.173   0.818
 1943SOL     OW 5836   3.056   3.474   0.031
 1943SOL    HW1 5837   3.062   3.381   0.068
 1943SOL    HW2 5838   2.997   3.474  -0.049
 1944SOL     OW 5839   2.684   2.864   1.372
 1944SOL    HW1 5840   2.724   2.863   1.280
 1944SOL    HW2 5841   2.694   2.956   1.412
 1945SOL     OW 5842   2.778   2.772   0.291
 1945SOL    HW1 5843   2.841   2.810   0.223
 1945SOL    HW2 5844   2.818   2.689   0.330
 1946SOL     OW 5845   3.366   3.469   0.044
 1946SOL    HW1 5846   3.274   3.506   0.051
 1946SOL    HW2 5847   3.404   3.489  -0.046
 1947SOL     OW 5848   2.234   3.150   1.490
 1947SOL    HW1 5849   2.221   3.243   1.456
 1947SOL    HW2 5850   2.150   3.098   1.477
 1948SOL     OW 5851   3.476   3.154   1.289
 1948SOL    HW1 5852   3.536   3.157   1.369
 1948SOL    HW2 5853   3.401   3.218   1.302
 1949SOL     OW 5854   2.901   2.960   0.696
 1949SOL    HW1 5855   2.831   2.913   0.750
 1949SOL    HW2 5856   2.960   2.892   0.653
 1950SOL     OW 5857   2.876   2.098   0.971
 1950SOL    HW1 5858   2.868   2.062   0.878
 1950SOL    HW2 5859   2.874   2.022   1.036
 1951SOL     OW 5860   2.452   3.349   0.491
 1951SOL    HW1 5861   2.494   3.291   0.421
 1951SOL    HW2 5862   2.408   3.428   0.447
 1952SOL     OW 5863   3.571   2.247   1.381
 1952SOL    HW1 5864   3.644   2.316   1.385
 1952SOL    HW2 5865   3.599   2.172   1.322
 1953SOL     OW 5866   2.117   3.210   0.290
 1953SOL    HW1 5867   2.021   3.211   0.263
 1953SOL    HW2 5868   2.129   3.263   0.374
 1954SOL     OW 5869   1.967   2.875   1.726
 1954SOL    HW1 5870   1.890   2.842   1.780
 1954SOL    HW2 5871   2.052   2.845   1.768
 1955SOL     OW 5872   2.534   2.065   1.489
 1955SOL    HW1 5873   2.624   2.049   1.449
 1955SOL    HW2 5874   2.542   2.070   1.588
 1956SOL     OW 5875   1.937   2.207   0.033
 1956SOL    HW1 5876   1.845   2.179   0.004
 1956SOL    HW2 5877   1.968   2.284  -0.023
 1957SOL     OW 5878   3.302   2.718   1.398
 1957SOL    HW1 5879   3.245   2.770   1.335
 1957SOL    HW2 5880   3.398   2.730   1.374
 1958SOL     OW 5881   1.934   2.028   0.318
 1958SOL    HW1 5882   1.917   2.111   0.264
 1958SOL    HW2 5883   2.024   1.991   0.296
 1959SOL     OW 5884   3.045   3.197   0.119
 1959SOL    HW1 5885   2.946   3.186   0.121
 1959SOL    HW2 5886   3.079   3.212   0.212
 1960SOL     OW 5887   2.475   2.704   1.431
 1960SOL    HW1 5888   2.531   2.785   1.414
 1960SOL    HW2 5889   2.534   2.624   1.434
 1961SOL     OW 5890   3.355   3.629   0.959
 1961SOL    HW1 5891   3.388   3.693   0.890
 1961SOL    HW2 5892   3.421   3.623   1.034
 1962SOL     OW 5893   2.578   2.427   1.708
 1962SOL    HW1 5894   2.597   2.492   1.782
 1962SOL    HW2 5895   2.638   2.347   1.717
 1963SOL     OW 5896   3.312   3.082   1.633
 1963SOL    HW1 5897   3.303   3.072   1.732
 1963SOL    HW2 5898   3.408   3.075   1.607
 1964SOL     OW 5899   2.252   3.603   1.560
 1964SOL    HW1 5900   2.161   3.644   1.558
 1964SOL    HW2 5901   2.245   3.509   1.592
 1965SOL     OW 5902   3.536   2.745   1.254
 1965SOL    HW1 5903   3.509   2.656   1.217
 1965SOL    HW2 5904   3.537   2.813   1.181
 1966SOL     OW 5905   3.087   2.187   0.449
 1966SOL    HW1 5906   3.152   2.113   0.438
 1966SOL    HW2 5907   3.107   2.237   0.533
 1967SOL     OW 5908   2.456   2.607   0.652
 1967SOL    HW1 5909   2.506   2.692   0.633
 1967SOL    HW2 5910   2.368   2.609   0.604
 1968SOL     OW 5911   3.639   2.204   1.642
 1968SOL    HW1 5912   3.622   2.235   1.548
 1968SOL    HW2 5913   3.555   2.167   1.680
 1969SOL     OW 5914   3.592   2.796   1.517
 1969SOL    HW1 5915   3.630   2.887   1.532
 1969SOL    HW2 5916   3.584   2.779   1.418
 1970SOL     OW 5917   2.721   3.236   0.016
 1970SOL    HW1 5918   2.675   3.251   0.104
 1970SOL    HW2 5919   2.765   3.321  -0.014
 1971SOL     OW 5920   2.523   3.652   0.953
 1971SOL    HW1 5921   2.477   3.740   0.940
 1971SOL    HW2 5922   2.622   3.664   0.946
 1972SOL     OW 5923   2.721   2.818   0.861
 1972SOL    HW1 5924   2.775   2.749   0.909
 1972SOL    HW2 5925   2.689   2.887   0.927
 1973SOL     OW 5926   2.945   2.846   0.087
 1973SOL    HW1 5927   2.922   2.899   0.005
 1973SOL    HW2 5928   3.026   2.790   0.068
 1974SOL     OW 5929   3.723   3.431   0.851
 1974SOL    HW1 5930   3.652   3.419   0.781
 1974SOL    HW2 5931   3.724   3.352   0.911
 1975SOL     OW 5932   2.083   3.176   1.844
 1975SOL    HW1 5933   2.018   3.103   1.823
 1975SOL    HW2 5934   2.087   3.190   1.942
 1976SOL     OW 5935   1.941   3.102   0.653
 1976SOL    HW1 5936   1.940   3.055   0.741
 1976SOL    HW2 5937   2.023   3.074   0.602
 1977SOL     OW 5938   2.534   3.253   1.624
 1977SOL    HW1 5939   2.456   3.203   1.662
 1977SOL    HW2 5940   2.531   3.348   1.655
 1978SOL     OW 5941   3.686   2.054   1.227
 1978SOL    HW1 5942   3.682   1.964   1.271
 1978SOL    HW2 5943   3.689   2.043   1.128
 1979SOL     OW 5944   2.290   2.286   0.520
 1979SOL    HW1 5945   2.320   2.214   0.458
 1979SOL    HW2 5946   2.251   2.246   0.603
 1980SOL     OW 5947   3.567   3.349   1.104
 1980SOL    HW1 5948   3.474   3.324   1.077
 1980SOL    HW2 5949   3.593   3.299   1.186
 1981SOL     OW 5950   2.179   2.409   1.280
 1981SOL    HW1 5951   2.217   2.350   1.352
 1981SOL    HW2 5952   2.219   2.383   1.192
 1982SOL     OW 5953   2.674   3.448   0.687
 1982SOL    HW1 5954   2.706   3.458   0.593
 1982SOL    HW2 5955   2.595   3.386   0.689
 1983SOL     OW 5956   3.286   2.076   1.112
 1983SOL    HW1 5957   3.338   2.011   1.167
 1983SOL    HW2 5958   3.237   2.139   1.173
 1984SOL     OW 5959   2.863   1.896   1.154
 1984SOL    HW1 5960   2.800   1.824   1.123
 1984SOL    HW2 5961   2.956   1.860   1.154
 1985SOL     OW 5962   2.632   3.192   0.301
 1985SOL    HW1 5963   2.586   3.105   0.318
 1985SOL    HW2 5964   2.723   3.189   0.342
 1986SOL     OW 5965   2.480   3.429   1.284
 1986SOL    HW1 5966   2.475   3.511   1.341
 1986SOL    HW2 5967   2.569   3.426   1.239
 1987SOL     OW 5968   3.214   1.914   0.168
 1987SOL    HW1 5969   3.249   1.873   0.084
 1987SOL    HW2 5970   3.124   1.876   0.188
 1988SOL     OW 5971   3.162   2.315   0.691
 1988SOL    HW1 5972   3.103   2.395   0.695
 1988SOL    HW2 5973   3.177   2.280   0.784
 1989SOL     OW 5974   3.455   2.083   0.882
 1989SOL    HW1 5975   3.371   2.082   0.936
 1989SOL    HW2 5976   3.457   2.166   0.826
 1990SOL     OW 5977   1.901   2.939   0.300
 1990SOL    HW1 5978   2.000   2.928   0.291
 1990SOL    HW2 5979   1.861   2.853   0.332
 1991SOL     OW 5980   2.737   3.508   0.337
 1991SOL    HW1 5981   2.660   3.473   0.283
 1991SOL    HW2 5982   2.705   3.579   0.399
 1992SOL     OW 5983   2.092   2.490   1.975
 1992SOL    HW1 5984   1.999   2.488   2.012
 1992SOL    HW2 5985   2.093   2.451   1.883
 1993SOL     OW 5986   2.087   2.137   2.858
 1993SOL    HW1 5987   2.122   2.120   2.950
 1993SOL    HW2 5988   1.999   2.092   2.846
 1994SOL     OW 5989   1.881   2.230   2.509
 1994SOL    HW1 5990   1.799   2.273   2.548
 1994SOL    HW2 5991   1.853   2.157   2.446
 1995SOL     OW 5992   2.431   3.137   3.027
 1995SOL    HW1 5993   2.338   3.130   2.990
 1995SOL    HW2 5994   2.442   3.226   3.071
 1996SOL     OW 5995   3.417   3.373   2.565
 1996SOL    HW1 5996   3.360   3.357   2.646
 1996SOL    HW2 5997   3.358   3.383   2.485
 1997SOL     OW 5998   2.997   2.565   2.579
 1997SOL    HW1 5999   3.054   2.643   2.554
 1997SOL    HW2 6000   2.937   2.591   2.655
 1998SOL     OW 6001   3.617   2.469   2.093
 1998SOL    HW1 6002   3.605   2.456   1.994
 1998SOL    HW2 6003   3.587   2.388   2.142
 1999SOL     OW 6004   2.630   3.006   2.885
 1999SOL    HW1 6005   2.552   3.023   2.945
 1999SOL    HW2 6006   2.664   3.093   2.849
 2000SOL     OW 6007   2.712   2.660   3.685
 2000SOL    HW1 6008   2.708   2.736   3.750
 2000SOL    HW2 6009   2.734   2.696   3.594
 2001SOL     OW 6010   2.547   2.874   2.527
 2001SOL    HW1 6011   2.616   2.858   2.597
 2001SOL    HW2 6012   2.474   2.931   2.565
 2002SOL     OW 6013   2.548   3.023   3.665
 2002SOL    HW1 6014   2.608   3.102   3.679
 2002SOL    HW2 6015   2.462   3.054   3.624
 2003SOL     OW 6016   2.197   3.297   2.923
 2003SOL    HW1 6017   2.119   3.266   2.870
 2003SOL    HW2 6018   2.255   3.355   2.866
 2004SOL     OW 6019   3.322   3.367   3.201
 2004SOL    HW1 6020   3.346   3.461   3.227
 2004SOL    HW2 6021   3.306   3.313   3.283
 2005SOL     OW 6022   2.300   2.254   3.361
 2005SOL    HW1 6023   2.382   2.198   3.370
 2005SOL    HW2 6024   2.219   2.196   3.365
 2006SOL     OW 6025   3.465   2.309   2.599
 2006SOL    HW1 6026   3.391   2.355   2.549
 2006SOL    HW2 6027   3.516   2.377   2.652
 2007SOL     OW 6028   2.093   3.575   2.345
 2007SOL    HW1 6029   2.127   3.652   2.399
 2007SOL    HW2 6030   2.137   3.575   2.255
 2008SOL     OW 6031   2.989   3.203   3.552
 2008SOL    HW1 6032   3.036   3.203   3.640
 2008SOL    HW2 6033   2.941   3.116   3.541
 2009SOL     OW 6034   2.092   3.296   2.400
 2009SOL    HW1 6035   2.066   3.392   2.400
 2009SOL    HW2 6036   2.021   3.242   2.445
 2010SOL     OW 6037   2.102   2.953   2.748
 2010SOL    HW1 6038   2.116   2.869   2.800
 2010SOL    HW2 6039   2.047   3.017   2.803
 2011SOL     OW 6040   2.482   3.648   3.301
 2011SOL    HW1 6041   2.390   3.631   3.336
 2011SOL    HW2 6042   2.510   3.740   3.327
 2012SOL     OW 6043   2.468   2.826   1.985
 2012SOL    HW1 6044   2.475   2.910   1.931
 2012SOL    HW2 6045   2.514   2.839   2.073
 2013SOL     OW 6046   3.456   1.976   3.342
 2013SOL    HW1 6047   3.438   2.043   3.270
 2013SOL    HW2 6048   3.453   2.022   3.431
 2014SOL     OW 6049   1.984   2.505   2.425
 2014SOL    HW1 6050   1.939   2.417   2.442
 2014SOL    HW2 6051   1.983   2.559   2.509
 2015SOL     OW 6052   3.704   3.629   2.221
 2015SOL    HW1 6053   3.758   3.600   2.301
 2015SOL    HW2 6054   3.734   3.719   2.192
 2016SOL     OW 6055   1.889   3.458   1.979
 2016SOL    HW1 6056   1.870   3.362   2.000
 2016SOL    HW2 6057   1.856   3.516   2.054
 2017SOL     OW 6058   3.551   2.784   2.474
 2017SOL    HW1 6059   3.646   2.755   2.482
 2017SOL    HW2 6060   3.543   2.849   2.399
 2018SOL     OW 6061   3.503   2.970   2.294
 2018SOL    HW1 6062   3.589   2.972   2.242
 2018SOL    HW2 6063   3.517   3.017   2.382
 2019SOL     OW 6064   1.975   2.599   3.459
 2019SOL    HW1 6065   2.063   2.586   3.504
 2019SOL    HW2 6066   1.962   2.696   3.437
 2020SOL     OW 6067   2.475   3.227   2.588
 2020SOL    HW1 6068   2.426   3.140   2.597
 2020SOL    HW2 6069   2.452   3.270   2.501
 2021SOL     OW 6070   3.155   3.090   3.285
 2021SOL    HW1 6071   3.192   3.017   3.227
 2021SOL    HW2 6072   3.207   3.095   3.370
 2022SOL     OW 6073   2.671   1.866   2.364
 2022SOL    HW1 6074   2.711   1.957   2.355
 2022SOL    HW2 6075   2.571   1.874   2.370
 2023SOL     OW 6076   2.059   2.838   3.126
 2023SOL    HW1 6077   2.148   2.793   3.112
 2023SOL    HW2 6078   1.986   2.773   3.107
 2024SOL     OW 6079   3.387   2.861   2.052
 2024SOL    HW1 6080   3.324   2.785   2.065
 2024SOL    HW2 6081   3.435   2.879   2.138
 2025SOL     OW 6082   3.049   3.654   3.478
 2025SOL    HW1 6083   3.073   3.714   3.402
 2025SOL    HW2 6084   3.056   3.559   3.448
 2026SOL     OW 6085   2.179   2.113   3.663
 2026SOL    HW1 6086   2.250   2.184   3.669
 2026SOL    HW2 6087   2.091   2.152   3.691
 2027SOL     OW 6088   3.328   3.279   2.815
 2027SOL    HW1 6089   3.269   3.285   2.895
 2027SOL    HW2 6090   3.313   3.191   2.769
 2028SOL     OW 6091   3.529   3.576   2.434
 2028SOL    HW1 6092   3.488   3.553   2.346
 2028SOL    HW2 6093   3.511   3.502   2.499
 2029SOL     OW 6094   2.460   2.591   2.132
 2029SOL    HW1 6095   2.484   2.660   2.064
 2029SOL    HW2 6096   2.382   2.624   2.186
 2030SOL     OW 6097   3.143   2.207   2.806
 2030SOL    HW1 6098   3.057   2.157   2.793
 2030SOL    HW2 6099   3.205   2.153   2.862
 2031SOL     OW 6100   3.438   3.524   2.169
 2031SOL    HW1 6101   3.527   3.570   2.172
 2031SOL    HW2 6102   3.417   3.500   2.074
 2032SOL     OW 6103   2.669   2.467   3.327
 2032SOL    HW1 6104   2.622   2.464   3.416
 2032SOL    HW2 6105   2.618   2.412   3.261
 2033SOL     OW 6106   3.256   2.331   3.536
 2033SOL    HW1 6107   3.236   2.374   3.624
 2033SOL    HW2 6108   3.334   2.269   3.545
 2034SOL     OW 6109   2.835   2.752   3.434
 2034SOL    HW1 6110   2.881   2.668   3.405
 2034SOL    HW2 6111   2.779   2.786   3.359
 2035SOL     OW 6112   2.853   2.272   3.104
 2035SOL    HW1 6113   2.776   2.306   3.158
 2035SOL    HW2 6114   2.819   2.221   3.025
 2036SOL     OW 6115   2.903   2.563   2.291
 2036SOL    HW1 6116   2.929   2.559   2.387
 2036SOL    HW2 6117   2.818   2.512   2.277
 2037SOL     OW 6118   1.938   2.673   2.651
 2037SOL    HW1 6119   2.037   2.661   2.660
 2037SOL    HW2 6120   1.914   2.768   2.672
 2038SOL     OW 6121   1.992   3.683   3.433
 2038SOL    HW1 6122   1.982   3.668   3.532
 2038SOL    HW2 6123   1.906   3.719   3.397
 2039SOL     OW 6124   2.727   2.210   2.057
 2039SOL    HW1 6125   2.786   2.273   2.008
 2039SOL    HW2 6126   2.746   2.116   2.028
 2040SOL     OW 6127   3.581   2.447   3.693
 2040SOL    HW1 6128   3.555   2.536   3.657
 2040SOL    HW2 6129   3.579   2.379   3.620
 2041SOL     OW 6130   3.224   3.006   2.407
 2041SOL    HW1 6131   3.307   2.977   2.359
 2041SOL    HW2 6132   3.175   3.073   2.351
 2042SOL     OW 6133   2.412   2.058   2.747
 2042SOL    HW1 6134   2.407   2.053   2.847
 2042SOL    HW2 6135   2.414   2.154   2.718
 2043SOL     OW 6136   2.870   3.318   2.339
 2043SOL    HW1 6137   2.824   3.390   2.287
 2043SOL    HW2 6138   2.866   3.338   2.437
 2044SOL     OW 6139   2.213   3.663   2.715
 2044SOL    HW1 6140   2.263   3.577   2.721
 2044SOL    HW2 6141   2.278   3.740   2.712
 2045SOL     OW 6142   3.657   2.928   2.735
 2045SOL    HW1 6143   3.595   2.913   2.659
 2045SOL    HW2 6144   3.605   2.939   2.820
 2046SOL     OW 6145   3.089   3.412   3.368
 2046SOL    HW1 6146   3.095   3.335   3.432
 2046SOL    HW2 6147   3.037   3.386   3.288
 2047SOL     OW 6148   2.183   2.805   2.104
 2047SOL    HW1 6149   2.265   2.844   2.062
 2047SOL    HW2 6150   2.156   2.723   2.055
 2048SOL     OW 6151   3.320   2.597   2.590
 2048SOL    HW1 6152   3.315   2.532   2.665
 2048SOL    HW2 6153   3.400   2.656   2.603
 2049SOL     OW 6154   2.323   3.128   3.589
 2049SOL    HW1 6155   2.273   3.129   3.503
 2049SOL    HW2 6156   2.260   3.110   3.665
 2050SOL     OW 6157   2.973   3.638   2.099
 2050SOL    HW1 6158   2.913   3.576   2.149
 2050SOL    HW2 6159   3.004   3.594   2.014
 2051SOL     OW 6160   2.064   2.147   3.360
 2051SOL    HW1 6161   1.984   2.207   3.347
 2051SOL    HW2 6162   2.054   2.098   3.446
 2052SOL     OW 6163   3.494   3.239   1.943
 2052SOL    HW1 6164   3.462   3.333   1.933
 2052SOL    HW2 6165   3.418   3.176   1.931
 2053SOL     OW 6166   2.326   3.605   2.185
 2053SOL    HW1 6167   2.359   3.644   2.271
 2053SOL    HW2 6168   2.402   3.598   2.120
 2054SOL     OW 6169   3.262   1.969   2.288
 2054SOL    HW1 6170   3.238   1.932   2.198
 2054SOL    HW2 6171   3.361   1.985   2.292
 2055SOL     OW 6172   2.111   3.647   3.103
 2055SOL    HW1 6173   2.168   3.582   3.153
 2055SOL    HW2 6174   2.095   3.614   3.010
 2056SOL     OW 6175   2.802   3.560   2.766
 2056SOL    HW1 6176   2.882   3.503   2.787
 2056SOL    HW2 6177   2.753   3.520   2.689
 2057SOL     OW 6178   3.409   2.084   3.591
 2057SOL    HW1 6179   3.404   2.121   3.683
 2057SOL    HW2 6180   3.337   2.015   3.579
 2058SOL     OW 6181   2.476   1.984   1.979
 2058SOL    HW1 6182   2.574   1.962   1.986
 2058SOL    HW2 6183   2.445   1.967   1.886
 2059SOL     OW 6184   2.643   2.126   3.611
 2059SOL    HW1 6185   2.710   2.065   3.654
 2059SOL    HW2 6186   2.570   2.145   3.676
 2060SOL     OW 6187   2.750   3.376   3.057
 2060SOL    HW1 6188   2.727   3.351   2.963
 2060SOL    HW2 6189   2.811   3.307   3.096
 2061SOL     OW 6190   3.213   2.452   3.295
 2061SOL    HW1 6191   3.241   2.409   3.380
 2061SOL    HW2 6192   3.238   2.548   3.296
 2062SOL     OW 6193   2.665   3.264   2.786
 2062SOL    HW1 6194   2.755   3.278   2.744
 2062SOL    HW2 6195   2.594   3.266   2.715
 2063SOL     OW 6196   2.784   2.365   2.761
 2063SOL    HW1 6197   2.759   2.356   2.665
 2063SOL    HW2 6198   2.832   2.283   2.792
 2064SOL     OW 6199   2.401   1.926   2.374
 2064SOL    HW1 6200   2.320   1.927   2.432
 2064SOL    HW2 6201   2.404   2.009   2.319
 2065SOL     OW 6202   3.296   3.050   1.903
 2065SOL    HW1 6203   3.328   2.974   1.960
 2065SOL    HW2 6204   3.204   3.077   1.933
 2066SOL     OW 6205   2.159   1.897   2.033
 2066SOL    HW1 6206   2.208   1.981   2.012
 2066SOL    HW2 6207   2.221   1.832   2.078
 2067SOL     OW 6208   2.797   2.098   2.342
 2067SOL    HW1 6209   2.749   2.139   2.264
 2067SOL    HW2 6210   2.896   2.096   2.323
 2068SOL     OW 6211   2.938   2.545   3.326
 2068SOL    HW1 6212   2.858   2.484   3.329
 2068SOL    HW2 6213   3.019   2.492   3.302
 2069SOL     OW 6214   3.089   3.432   2.655
 2069SOL    HW1 6215   3.110   3.506   2.590
 2069SOL    HW2 6216   3.157   3.432   2.728
 2070SOL     OW 6217   2.321   3.014   2.603
 2070SOL    HW1 6218   2.250   2.987   2.668
 2070SOL    HW2 6219   2.295   2.986   2.510
 2071SOL     OW 6220   3.133   3.659   2.453
 2071SOL    HW1 6221   3.177   3.723   2.389
 2071SOL    HW2 6222   3.083   3.711   2.523
 2072SOL     OW 6223   2.894   2.411   1.878
 2072SOL    HW1 6224   2.853   2.493   1.839
 2072SOL    HW2 6225   2.958   2.437   1.951
 2073SOL     OW 6226   1.940   2.418   3.248
 2073SOL    HW1 6227   2.032   2.417   3.207
 2073SOL    HW2 6228   1.934   2.492   3.315
 2074SOL     OW 6229   2.423   2.084   3.009
 2074SOL    HW1 6230   2.461   2.000   3.046
 2074SOL    HW2 6231   2.335   2.103   3.053
 2075SOL     OW 6232   2.728   2.316   2.504
 2075SOL    HW1 6233   2.696   2.388   2.442
 2075SOL    HW2 6234   2.752   2.235   2.451
 2076SOL     OW 6235   2.879   1.901   2.615
 2076SOL    HW1 6236   2.807   1.906   2.546
 2076SOL    HW2 6237   2.855   1.832   2.684
 2077SOL     OW 6238   3.291   3.035   2.729
 2077SOL    HW1 6239   3.236   2.951   2.722
 2077SOL    HW2 6240   3.317   3.064   2.637
 2078SOL     OW 6241   3.328   2.452   2.854
 2078SOL    HW1 6242   3.298   2.357   2.861
 2078SOL    HW2 6243   3.401   2.468   2.920
 2079SOL     OW 6244   3.719   2.695   2.239
 2079SOL    HW1 6245   3.761   2.631   2.303
 2079SOL    HW2 6246   3.681   2.644   2.161
 2080SOL     OW 6247   2.350   3.247   2.036
 2080SOL    HW1 6248   2.263   3.232   2.083
 2080SOL    HW2 6249   2.333   3.273   1.941
 2081SOL     OW 6250   3.526   3.142   2.519
 2081SOL    HW1 6251   3.625   3.150   2.533
 2081SOL    HW2 6252   3.481   3.226   2.550
 2082SOL     OW 6253   3.252   2.437   1.940
 2082SOL    HW1 6254   3.198   2.416   2.021
 2082SOL    HW2 6255   3.343   2.396   1.949
 2083SOL     OW 6256   3.616   3.085   3.450
 2083SOL    HW1 6257   3.707   3.046   3.437
 2083SOL    HW2 6258   3.624   3.181   3.474
 2084SOL     OW 6259   2.926   3.209   3.202
 2084SOL    HW1 6260   2.846   3.186   3.257
 2084SOL    HW2 6261   3.009   3.183   3.251
 2085SOL     OW 6262   3.454   3.491   3.487
 2085SOL    HW1 6263   3.481   3.525   3.397
 2085SOL    HW2 6264   3.533   3.453   3.533
 2086SOL     OW 6265   2.973   3.057   2.962
 2086SOL    HW1 6266   2.933   3.101   3.043
 2086SOL    HW2 6267   2.932   3.094   2.879
 2087SOL     OW 6268   3.500   2.961   2.941
 2087SOL    HW1 6269   3.505   3.042   3.000
 2087SOL    HW2 6270   3.414   2.963   2.890
 2088SOL     OW 6271   2.777   1.951   3.264
 2088SOL    HW1 6272   2.802   1.931   3.169
 2088SOL    HW2 6273   2.849   2.007   3.306
 2089SOL     OW 6274   2.842   2.978   3.581
 2089SOL    HW1 6275   2.743   2.984   3.591
 2089SOL    HW2 6276   2.865   2.898   3.525
 2090SOL     OW 6277   2.567   2.912   2.230
 2090SOL    HW1 6278   2.553   2.919   2.329
 2090SOL    HW2 6279   2.651   2.861   2.212
 2091SOL     OW 6280   2.272   2.675   3.113
 2091SOL    HW1 6281   2.358   2.687   3.163
 2091SOL    HW2 6282   2.230   2.588   3.140
 2092SOL     OW 6283   3.136   2.248   3.124
 2092SOL    HW1 6284   3.157   2.322   3.188
 2092SOL    HW2 6285   3.047   2.265   3.081
 2093SOL     OW 6286   1.926   3.426   3.193
 2093SOL    HW1 6287   1.880   3.508   3.159
 2093SOL    HW2 6288   2.024   3.445   3.202
 2094SOL     OW 6289   2.229   2.962   2.363
 2094SOL    HW1 6290   2.222   3.045   2.307
 2094SOL    HW2 6291   2.233   2.882   2.303
 2095SOL     OW 6292   2.428   2.399   2.727
 2095SOL    HW1 6293   2.440   2.465   2.653
 2095SOL    HW2 6294   2.474   2.433   2.810
 2096SOL     OW 6295   3.114   3.210   2.250
 2096SOL    HW1 6296   3.164   3.287   2.290
 2096SOL    HW2 6297   3.019   3.212   2.282
 2097SOL     OW 6298   3.134   3.307   3.004
 2097SOL    HW1 6299   3.181   3.320   3.091
 2097SOL    HW2 6300   3.068   3.233   3.013
 2098SOL     OW 6301   3.444   2.501   2.334
 2098SOL    HW1 6302   3.413   2.562   2.407
 2098SOL    HW2 6303   3.494   2.553   2.265
 2099SOL     OW 6304   2.216   3.372   3.191
 2099SOL    HW1 6305   2.195   3.328   3.104
 2099SOL    HW2 6306   2.313   3.398   3.194
 2100SOL     OW 6307   2.264   2.613   3.460
 2100SOL    HW1 6308   2.332   2.668   3.413
 2100SOL    HW2 6309   2.304   2.525   3.487
 2101SOL     OW 6310   3.449   2.641   3.532
 2101SOL    HW1 6311   3.357   2.679   3.527
 2101SOL    HW2 6312   3.509   2.688   3.467
 2102SOL     OW 6313   2.875   1.967   3.632
 2102SOL    HW1 6314   2.881   2.052   3.580
 2102SOL    HW2 6315   2.907   1.891   3.575
 2103SOL     OW 6316   2.366   1.912   3.602
 2103SOL    HW1 6317   2.324   1.855   3.532
 2103SOL    HW2 6318   2.300   1.981   3.634
 2104SOL     OW 6319   2.435   2.732   2.891
 2104SOL    HW1 6320   2.479   2.821   2.882
 2104SOL    HW2 6321   2.372   2.732   2.968
 2105SOL     OW 6322   3.222   2.724   2.907
 2105SOL    HW1 6323   3.147   2.724   2.841
 2105SOL    HW2 6324   3.259   2.632   2.916
 2106SOL     OW 6325   3.071   2.387   2.137
 2106SOL    HW1 6326   3.084   2.303   2.191
 2106SOL    HW2 6327   3.042   2.461   2.197
 2107SOL     OW 6328   2.169   2.075   3.093
 2107SOL    HW1 6329   2.146   2.112   3.183
 2107SOL    HW2 6330   2.139   1.980   3.087
 2108SOL     OW 6331   1.899   3.172   3.144
 2108SOL    HW1 6332   1.952   3.123   3.212
 2108SOL    HW2 6333   1.921   3.270   3.149
 2109SOL     OW 6334   2.594   2.496   2.926
 2109SOL    HW1 6335   2.653   2.470   2.850
 2109SOL    HW2 6336   2.566   2.592   2.915
 2110SOL     OW 6337   3.590   2.797   3.716
 2110SOL    HW1 6338   3.544   2.790   3.627
 2110SOL    HW2 6339   3.528   2.841   3.782
 2111SOL     OW 6340   2.169   1.925   2.480
 2111SOL    HW1 6341   2.158   2.019   2.513
 2111SOL    HW2 6342   2.164   1.862   2.557
 2112SOL     OW 6343   3.484   2.229   2.236
 2112SOL    HW1 6344   3.486   2.153   2.300
 2112SOL    HW2 6345   3.436   2.306   2.276
 2113SOL     OW 6346   2.885   2.628   2.828
 2113SOL    HW1 6347   2.900   2.649   2.924
 2113SOL    HW2 6348   2.855   2.533   2.819
 2114SOL     OW 6349   2.842   3.435   3.562
 2114SOL    HW1 6350   2.822   3.479   3.474
 2114SOL    HW2 6351   2.881   3.344   3.546
 2115SOL     OW 6352   3.721   3.380   3.467
 2115SOL    HW1 6353   3.735   3.407   3.372
 2115SOL    HW2 6354   3.804   3.402   3.520
 2116SOL     OW 6355   2.212   2.760   3.666
 2116SOL    HW1 6356   2.288   2.804   3.714
 2116SOL    HW2 6357   2.247   2.713   3.584
 2117SOL     OW 6358   3.402   2.136   1.987
 2117SOL    HW1 6359   3.341   2.061   2.010
 2117SOL    HW2 6360   3.424   2.188   2.070
 2118SOL     OW 6361   3.165   2.700   1.904
 2118SOL    HW1 6362   3.199   2.607   1.919
 2118SOL    HW2 6363   3.183   2.727   1.809
 2119SOL     OW 6364   2.930   3.195   2.711
 2119SOL    HW1 6365   2.937   3.111   2.656
 2119SOL    HW2 6366   2.992   3.264   2.675
 2120SOL     OW 6367   2.181   2.672   2.811
 2120SOL    HW1 6368   2.274   2.708   2.816
 2120SOL    HW2 6369   2.175   2.587   2.863
 2121SOL     OW 6370   2.201   2.371   2.868
 2121SOL    HW1 6371   2.149   2.288   2.851
 2121SOL    HW2 6372   2.278   2.376   2.804
 2122SOL     OW 6373   3.000   2.242   3.540
 2122SOL    HW1 6374   2.955   2.305   3.604
 2122SOL    HW2 6375   3.093   2.273   3.523
 2123SOL     OW 6376   3.022   2.069   3.339
 2123SOL    HW1 6377   3.022   2.133   3.416
 2123SOL    HW2 6378   3.050   2.117   3.256
 2124SOL     OW 6379   1.870   3.188   2.062
 2124SOL    HW1 6380   1.777   3.209   2.031
 2124SOL    HW2 6381   1.880   3.089   2.075
 2125SOL     OW 6382   1.950   3.663   2.789
 2125SOL    HW1 6383   1.908   3.577   2.762
 2125SOL    HW2 6384   2.044   3.666   2.755
 2126SOL     OW 6385   2.366   3.430   2.772
 2126SOL    HW1 6386   2.432   3.504   2.781
 2126SOL    HW2 6387   2.410   3.351   2.730
 2127SOL     OW 6388   2.864   2.658   3.100
 2127SOL    HW1 6389   2.905   2.626   3.186
 2127SOL    HW2 6390   2.768   2.631   3.097
 2128SOL     OW 6391   1.902   2.406   2.976
 2128SOL    HW1 6392   1.987   2.373   2.935
 2128SOL    HW2 6393   1.915   2.421   3.074
 2129SOL     OW 6394   2.051   2.382   3.584
 2129SOL    HW1 6395   2.110   2.342   3.514
 2129SOL    HW2 6396   1.993   2.453   3.543
 2130SOL     OW 6397   3.231   2.812   3.522
 2130SOL    HW1 6398   3.270   2.901   3.542
 2130SOL    HW2 6399   3.241   2.792   3.425
 2131SOL     OW 6400   2.677   2.434   2.187
 2131SOL    HW1 6401   2.684   2.345   2.141
 2131SOL    HW2 6402   2.583   2.468   2.179
 2132SOL     OW 6403   3.519   2.466   3.068
 2132SOL    HW1 6404   3.481   2.397   3.130
 2132SOL    HW2 6405   3.601   2.430   3.024
 2133SOL     OW 6406   2.114   3.426   3.606
 2133SOL    HW1 6407   2.084   3.483   3.682
 2133SOL    HW2 6408   2.107   3.329   3.632
 2134SOL     OW 6409   2.533   2.326   3.131
 2134SOL    HW1 6410   2.499   2.237   3.101
 2134SOL    HW2 6411   2.559   2.380   3.051
 2135SOL     OW 6412   2.792   3.540   3.327
 2135SOL    HW1 6413   2.768   3.522   3.232
 2135SOL    HW2 6414   2.822   3.634   3.337
 2136SOL     OW 6415   2.021   2.999   3.328
 2136SOL    HW1 6416   2.043   2.938   3.404
 2136SOL    HW2 6417   2.031   2.950   3.242
 2137SOL     OW 6418   3.209   2.921   3.096
 2137SOL    HW1 6419   3.233   2.858   3.022
 2137SOL    HW2 6420   3.119   2.961   3.078
 2138SOL     OW 6421   3.164   2.717   2.171
 2138SOL    HW1 6422   3.078   2.686   2.213
 2138SOL    HW2 6423   3.160   2.703   2.072
 2139SOL     OW 6424   3.621   3.609   3.016
 2139SOL    HW1 6425   3.682   3.639   2.943
 2139SOL    HW2 6426   3.583   3.520   2.994
 2140SOL     OW 6427   3.114   3.593   2.990
 2140SOL    HW1 6428   3.198   3.598   2.936
 2140SOL    HW2 6429   3.091   3.497   3.008
 2141SOL     OW 6430   1.945   3.120   2.884
 2141SOL    HW1 6431   1.940   3.119   2.984
 2141SOL    HW2 6432   1.862   3.079   2.846
 2142SOL     OW 6433   2.550   3.524   3.578
 2142SOL    HW1 6434   2.494   3.605   3.587
 2142SOL    HW2 6435   2.602   3.528   3.492
 2143SOL     OW 6436   3.588   1.997   2.385
 2143SOL    HW1 6437   3.661   1.980   2.318
 2143SOL    HW2 6438   3.557   1.910   2.423
 2144SOL     OW 6439   3.250   3.435   2.339
 2144SOL    HW1 6440   3.317   3.447   2.265
 2144SOL    HW2 6441   3.210   3.524   2.362
 2145SOL     OW 6442   1.992   3.656   3.713
 2145SOL    HW1 6443   1.951   3.582   3.766
 2145SOL    HW2 6444   2.056   3.707   3.771
 2146SOL     OW 6445   3.142   2.789   2.534
 2146SOL    HW1 6446   3.202   2.708   2.536
 2146SOL    HW2 6447   3.182   2.858   2.474
 2147SOL     OW 6448   2.692   3.135   3.284
 2147SOL    HW1 6449   2.687   3.168   3.379
 2147SOL    HW2 6450   2.606   3.154   3.238
 2148SOL     OW 6451   2.534   3.478   2.016
 2148SOL    HW1 6452   2.543   3.488   1.917
 2148SOL    HW2 6453   2.494   3.389   2.037
 2149SOL     OW 6454   3.512   3.582   3.256
 2149SOL    HW1 6455   3.565   3.592   3.172
 2149SOL    HW2 6456   3.485   3.672   3.290
 2150SOL     OW 6457   3.703   2.037   2.825
 2150SOL    HW1 6458   3.742   1.952   2.789
 2150SOL    HW2 6459   3.605   2.039   2.806
 2151SOL     OW 6460   3.056   3.474   1.893
 2151SOL    HW1 6461   3.062   3.381   1.930
 2151SOL    HW2 6462   2.997   3.474   1.813
 2152SOL     OW 6463   2.684   2.864   3.234
 2152SOL    HW1 6464   2.724   2.863   3.142
 2152SOL    HW2 6465   2.694   2.956   3.274
 2153SOL     OW 6466   2.778   2.772   2.153
 2153SOL    HW1 6467   2.841   2.810   2.085
 2153SOL    HW2 6468   2.818   2.689   2.192
 2154SOL     OW 6469   3.366   3.469   1.906
 2154SOL    HW1 6470   3.274   3.506   1.913
 2154SOL    HW2 6471   3.404   3.489   1.816
 2155SOL     OW 6472   2.234   3.150   3.352
 2155SOL    HW1 6473   2.221   3.243   3.318
 2155SOL    HW2 6474   2.150   3.098   3.339
 2156SOL     OW 6475   3.476   3.154   3.151
 2156SOL    HW1 6476   3.536   3.157   3.231
 2156SOL    HW2 6477   3.401   3.218   3.164
 2157SOL     OW 6478   2.901   2.960   2.558
 2157SOL    HW1 6479   2.831   2.913   2.612
 2157SOL    HW2 6480   2.960   2.892   2.515
 2158SOL     OW 6481   2.876   2.098   2.833
 2158SOL    HW1 6482   2.868   2.062   2.740
 2158SOL    HW2 6483   2.874   2.022   2.898
 2159SOL     OW 6484   2.452   3.349   2.353
 2159SOL    HW1 6485   2.494   3.291   2.283
 2159SOL    HW2 6486   2.408   3.428   2.309
 2160SOL     OW 6487   3.571   2.247   3.243
 2160SOL    HW1 6488   3.644   2.316   3.247
 2160SOL    HW2 6489   3.599   2.172   3.184
 2161SOL     OW 6490   2.117   3.210   2.152
 2161SOL    HW1 6491   2.021   3.211   2.125
 2161SOL    HW2 6492   2.129   3.263   2.236
 2162SOL     OW 6493   1.967   2.875   3.588
 2162SOL    HW1 6494   1.890   2.842   3.642
 2162SOL    HW2 6495   2.052   2.845   3.630
 2163SOL     OW 6496   2.534   2.065   3.351
 2163SOL    HW1 6497   2.624   2.049   3.311
 2163SOL    HW2 6498   2.542   2.070   3.450
 2164SOL     OW 6499   1.937   2.207   1.895
 2164SOL    HW1 6500   1.845   2.179   1.866
 2164SOL    HW2 6501   1.968   2.284   1.839
 2165SOL     OW 6502   3.302   2.718   3.260
 2165SOL    HW1 6503   3.245   2.770   3.197
 2165SOL    HW2 6504   3.398   2.730   3.236
 2166SOL     OW 6505   1.934   2.028   2.180
 2166SOL    HW1 6506   1.917   2.111   2.126
 2166SOL    HW2 6507   2.024   1.991   2.158
 2167SOL     OW 6508   3.045   3.197   1.981
 2167SOL    HW1 6509   2.946   3.186   1.983
 2167SOL    HW2 6510   3.079   3.212   2.074
 2168SOL     OW 6511   2.475   2.704   3.293
 2168SOL    HW1 6512   2.531   2.785   3.276
 2168SOL    HW2 6513   2.534   2.624   3.296
 2169SOL     OW 6514   3.355   3.629   2.821
 2169SOL    HW1 6515   3.388   3.693   2.752
 2169SOL    HW2 6516   3.421   3.623   2.896
 2170SOL     OW 6517   2.578   2.427   3.570
 2170SOL    HW1 6518   2.597   2.492   3.644
 2170SOL    HW2 6519   2.638   2.347   3.579
 2171SOL     OW 6520   3.312   3.082   3.495
 2171SOL    HW1 6521   3.303   3.072   3.594
 2171SOL    HW2 6522   3.408   3.075   3.469
 2172SOL     OW 6523   2.252   3.603   3.422
 2172SOL    HW1 6524   2.161   3.644   3.420
 2172SOL    HW2 6525   2.245   3.509   3.454
 2173SOL     OW 6526   3.536   2.745   3.116
 2173SOL    HW1 6527   3.509   2.656   3.079
 2173SOL    HW2 6528   3.537   2.813   3.043
 2174SOL     OW 6529   3.087   2.187   2.311
 2174SOL    HW1 6530   3.152   2.113   2.300
 2174SOL    HW2 6531   3.107   2.237   2.395
 2175SOL     OW 6532   2.456   2.607   2.514
 2175SOL    HW1 6533   2.506   2.692   2.495
 2175SOL    HW2 6534   2.368   2.609   2.466
 2176SOL     OW 6535   3.639   2.204   3.504
 2176SOL    HW1 6536   3.622   2.235   3.410
 2176SOL    HW2 6537   3.555   2.167   3.542
 2177SOL     OW 6538   3.592   2.796   3.379
 2177SOL    HW1 6539   3.630   2.887   3.394
 2177SOL    HW2 6540   3.584   2.779   3.280
 2178SOL     OW 6541   2.721   3.236   1.878
 2178SOL    HW1 6542   2.675   3.251   1.966
 2178SOL    HW2 6543   2.765   3.321   1.848
 2179SOL     OW 6544   2.523   3.652   2.815
 2179SOL    HW1 6545   2.477   3.740   2.802
 2179SOL    HW2 6546   2.622   3.664   2.808
 2180SOL     OW 6547   2.721   2.818   2.723
 2180SOL    HW1 6548   2.775   2.749   2.771
 2180SOL    HW2 6549   2.689   2.887   2.789
 2181SOL     OW 6550   2.945   2.846   1.949
 2181SOL    HW1 6551   2.922   2.899   1.867
 2181SOL    HW2 6552   3.026   2.790   1.930
 2182SOL     OW 6553   3.723   3.431   2.713
 2182SOL    HW1 6554   3.652   3.419   2.643
 2182SOL    HW2 6555   3.724   3.352   2.773
 2183SOL     OW 6556   2.083   3.176   3.706
 2183SOL    HW1 6557   2.018   3.103   3.685
 2183SOL    HW2 6558   2.087   3.190   3.804
 2184SOL     OW 6559   1.941   3.102   2.515
 2184SOL    HW1 6560   1.940   3.055   2.603
 2184SOL    HW2 6561   2.023   3.074   2.464
 2185SOL     OW 6562   2.534   3.253   3.486
 2185SOL    HW1 6563   2.456   3.203   3.524
 2185SOL    HW2 6564   2.531   3.348   3.517
 2186SOL     OW 6565   3.686   2.054   3.089
 2186SOL    HW1 6566   3.682   1.964   3.133
 2186SOL    HW2 6567   3.689   2.043   2.990
 2187SOL     OW 6568   3.567   3.349   2.966
 2187SOL    HW1 6569   3.474   3.324   2.939
 2187SOL    HW2 6570   3.593   3.299   3.048
 2188SOL     OW 6571   2.179   2.409   3.142
 2188SOL    HW1 6572   2.217   2.350   3.214
 2188SOL    HW2 6573   2.219   2.383   3.054
 2189SOL     OW 6574   2.674   3.448   2.549
 2189SOL    HW1 6575   2.706   3.458   2.455
 2189SOL    HW2 6576   2.595   3.386   2.551
 2190SOL     OW 6577   3.286   2.076   2.974
 2190SOL    HW1 6578   3.338   2.011   3.029
 2190SOL    HW2 6579   3.237   2.139   3.035
 2191SOL     OW 6580   2.863   1.896   3.016
 2191SOL    HW1 6581   2.800   1.824   2.985
 2191SOL    HW2 6582   2.956   1.860   3.016
 2192SOL     OW 6583   2.632   3.192   2.163
 2192SOL    HW1 6584   2.586   3.105   2.180
 2192SOL    HW2 6585   2.723   3.189   2.204
 2193SOL     OW 6586   2.480   3.429   3.146
 2193SOL    HW1 6587   2.475   3.511   3.203
 2193SOL    HW2 6588   2.569   3.426   3.101
 2194SOL     OW 6589   3.214   1.914   2.030
 2194SOL    HW1 6590   3.249   1.873   1.946
 2194SOL    HW2 6591   3.124   1.876   2.050
 2195SOL     OW 6592   3.162   2.315   2.553
 2195SOL    HW1 6593   3.103   2.395   2.557
 2195SOL    HW2 6594   3.177   2.280   2.646
 2196SOL     OW 6595   3.455   2.083   2.744
 2196SOL    HW1 6596   3.371   2.082   2.798
 2196SOL    HW2 6597   3.457   2.166   2.688
 2197SOL     OW 6598   1.901   2.939   2.162
 2197SOL    HW1 6599   2.000   2.928   2.153
 2197SOL    HW2 6600   1.861   2.853   2.194
 2198SOL     OW 6601   2.737   3.508   2.199
 2198SOL    HW1 6602   2.660   3.473   2.145
 2198SOL    HW2 6603   2.705   3.579   2.261
 2199SOL     OW 6604   2.092   2.490   3.837
 2199SOL    HW1 6605   1.999   2.488   3.874
 2199SOL    HW2 6606   2.093   2.451   3.745
 2200SOL     OW 6607   1.881   2.230   4.371
 2200SOL    HW1 6608   1.799   2.273   4.410
 2200SOL    HW2 6609   1.853   2.157   4.308
 2201SOL     OW 6610   3.617   2.469   3.955
 2201SOL    HW1 6611   3.605   2.456   3.856
 2201SOL    HW2 6612   3.587   2.388   4.004
 2202SOL     OW 6613   2.547   2.874   4.389
 2202SOL    HW1 6614   2.616   2.858   4.459
 2202SOL    HW2 6615   2.474   2.931   4.427
 2203SOL     OW 6616   3.465   2.309   4.461
 2203SOL    HW1 6617   3.391   2.355   4.411
 2203SOL    HW2 6618   3.516   2.377   4.514
 2204SOL     OW 6619   2.093   3.575   4.207
 2204SOL    HW1 6620   2.127   3.652   4.261
 2204SOL    HW2 6621   2.137   3.575   4.117
 2205SOL     OW 6622   2.092   3.296   4.262
 2205SOL    HW1 6623   2.066   3.392   4.262
 2205SOL    HW2 6624   2.021   3.242   4.307
 2206SOL     OW 6625   2.468   2.826   3.847
 2206SOL    HW1 6626   2.475   2.910   3.793
 2206SOL    HW2 6627   2.514   2.839   3.935
 2207SOL     OW 6628   1.984   2.505   4.287
 2207SOL    HW1 6629   1.939   2.417   4.304
 2207SOL    HW2 6630   1.983   2.559   4.371
 2208SOL     OW 6631   3.704   3.629   4.083
 2208SOL    HW1 6632   3.758   3.600   4.163
 2208SOL    HW2 6633   3.734   3.719   4.054
 2209SOL     OW 6634   1.889   3.458   3.841
 2209SOL    HW1 6635   1.870   3.362   3.862
 2209SOL    HW2 6636   1.856   3.516   3.916
 2210SOL     OW 6637   3.551   2.784   4.336
 2210SOL    HW1 6638   3.646   2.755   4.344
 2210SOL    HW2 6639   3.543   2.849   4.261
 2211SOL     OW 6640   3.503   2.970   4.156
 2211SOL    HW1 6641   3.589   2.972   4.104
 2211SOL    HW2 6642   3.517   3.017   4.244
 2212SOL     OW 6643   2.475   3.227   4.450
 2212SOL    HW1 6644   2.426   3.140   4.459
 2212SOL    HW2 6645   2.452   3.270   4.363
 2213SOL     OW 6646   2.671   1.866   4.226
 2213SOL    HW1 6647   2.711   1.957   4.217
 2213SOL    HW2 6648   2.571   1.874   4.232
 2214SOL     OW 6649   3.387   2.861   3.914
 2214SOL    HW1 6650   3.324   2.785   3.927
 2214SOL    HW2 6651   3.435   2.879   4.000
 2215SOL     OW 6652   3.529   3.576   4.296
 2215SOL    HW1 6653   3.488   3.553   4.208
 2215SOL    HW2 6654   3.511   3.502   4.361
 2216SOL     OW 6655   2.460   2.591   3.994
 2216SOL    HW1 6656   2.484   2.660   3.926
 2216SOL    HW2 6657   2.382   2.624   4.048
 2217SOL     OW 6658   3.143   2.207   4.668
 2217SOL    HW1 6659   3.057   2.157   4.655
 2217SOL    HW2 6660   3.205   2.153   4.724
 2218SOL     OW 6661   3.438   3.524   4.031
 2218SOL    HW1 6662   3.527   3.570   4.034
 2218SOL    HW2 6663   3.417   3.500   3.936
 2219SOL     OW 6664   2.903   2.563   4.153
 2219SOL    HW1 6665   2.929   2.559   4.249
 2219SOL    HW2 6666   2.818   2.512   4.139
 2220SOL     OW 6667   1.938   2.673   4.513
 2220SOL    HW1 6668   2.037   2.661   4.522
 2220SOL    HW2 6669   1.914   2.768   4.534
 2221SOL     OW 6670   2.727   2.210   3.919
 2221SOL    HW1 6671   2.786   2.273   3.870
 2221SOL    HW2 6672   2.746   2.116   3.890
 2222SOL     OW 6673   3.224   3.006   4.269
 2222SOL    HW1 6674   3.307   2.977   4.221
 2222SOL    HW2 6675   3.175   3.073   4.213
 2223SOL     OW 6676   2.870   3.318   4.201
 2223SOL    HW1 6677   2.824   3.390   4.149
 2223SOL    HW2 6678   2.866   3.338   4.299
 2224SOL     OW 6679   2.213   3.663   4.577
 2224SOL    HW1 6680   2.263   3.577   4.583
 2224SOL    HW2 6681   2.278   3.740   4.574
 2225SOL     OW 6682   3.657   2.928   4.597
 2225SOL    HW1 6683   3.595   2.913   4.521
 2225SOL    HW2 6684   3.605   2.939   4.682
 2226SOL     OW 6685   2.183   2.805   3.966
 2226SOL    HW1 6686   2.265   2.844   3.924
 2226SOL    HW2 6687   2.156   2.723   3.917
 2227SOL     OW 6688   2.973   3.638   3.961
 2227SOL    HW1 6689   2.913   3.576   4.011
 2227SOL    HW2 6690   3.004   3.594   3.876
 2228SOL     OW 6691   3.494   3.239   3.805
 2228SOL    HW1 6692   3.462   3.333   3.795
 2228SOL    HW2 6693   3.418   3.176   3.793
 2229SOL     OW 6694   2.326   3.605   4.047
 2229SOL    HW1 6695   2.359   3.644   4.133
 2229SOL    HW2 6696   2.402   3.598   3.982
 2230SOL     OW 6697   3.262   1.969   4.150
 2230SOL    HW1 6698   3.238   1.932   4.060
 2230SOL    HW2 6699   3.361   1.985   4.154
 2231SOL     OW 6700   2.802   3.560   4.628
 2231SOL    HW1 6701   2.882   3.503   4.649
 2231SOL    HW2 6702   2.753   3.520   4.551
 2232SOL     OW 6703   2.244   2.562   4.204
 2232SOL    HW1 6704   2.289   2.472   4.201
 2232SOL    HW2 6705   2.150   2.551   4.237
 2233SOL     OW 6706   2.476   1.984   3.841
 2233SOL    HW1 6707   2.574   1.962   3.848
 2233SOL    HW2 6708   2.445   1.967   3.748
 2234SOL     OW 6709   2.401   1.926   4.236
 2234SOL    HW1 6710   2.320   1.927   4.294
 2234SOL    HW2 6711   2.404   2.009   4.181
 2235SOL     OW 6712   3.296   3.050   3.765
 2235SOL    HW1 6713   3.328   2.974   3.822
 2235SOL    HW2 6714   3.204   3.077   3.795
 2236SOL     OW 6715   2.159   1.897   3.895
 2236SOL    HW1 6716   2.208   1.981   3.874
 2236SOL    HW2 6717   2.221   1.832   3.940
 2237SOL     OW 6718   2.797   2.098   4.204
 2237SOL    HW1 6719   2.749   2.139   4.126
 2237SOL    HW2 6720   2.896   2.096   4.185
 2238SOL     OW 6721   2.321   3.014   4.465
 2238SOL    HW1 6722   2.250   2.987   4.530
 2238SOL    HW2 6723   2.295   2.986   4.372
 2239SOL     OW 6724   3.133   3.659   4.315
 2239SOL    HW1 6725   3.177   3.723   4.251
 2239SOL    HW2 6726   3.083   3.711   4.385
 2240SOL     OW 6727   2.894   2.411   3.740
 2240SOL    HW1 6728   2.853   2.493   3.701
 2240SOL    HW2 6729   2.958   2.437   3.813
 2241SOL     OW 6730   2.728   2.316   4.366
 2241SOL    HW1 6731   2.696   2.388   4.304
 2241SOL    HW2 6732   2.752   2.235   4.313
 2242SOL     OW 6733   3.719   2.695   4.101
 2242SOL    HW1 6734   3.761   2.631   4.165
 2242SOL    HW2 6735   3.681   2.644   4.023
 2243SOL     OW 6736   2.350   3.247   3.898
 2243SOL    HW1 6737   2.263   3.232   3.945
 2243SOL    HW2 6738   2.333   3.273   3.803
 2244SOL     OW 6739   3.526   3.142   4.381
 2244SOL    HW1 6740   3.625   3.150   4.395
 2244SOL    HW2 6741   3.481   3.226   4.412
 2245SOL     OW 6742   3.252   2.437   3.802
 2245SOL    HW1 6743   3.198   2.416   3.883
 2245SOL    HW2 6744   3.343   2.396   3.811
 2246SOL     OW 6745   2.389   2.118   4.052
 2246SOL    HW1 6746   2.416   2.059   3.977
 2246SOL    HW2 6747   2.389   2.213   4.021
 2247SOL     OW 6748   2.567   2.912   4.092
 2247SOL    HW1 6749   2.553   2.919   4.191
 2247SOL    HW2 6750   2.651   2.861   4.074
 2248SOL     OW 6751   2.229   2.962   4.225
 2248SOL    HW1 6752   2.222   3.045   4.169
 2248SOL    HW2 6753   2.233   2.882   4.165
 2249SOL     OW 6754   3.114   3.210   4.112
 2249SOL    HW1 6755   3.164   3.287   4.152
 2249SOL    HW2 6756   3.019   3.212   4.144
 2250SOL     OW 6757   3.444   2.501   4.196
 2250SOL    HW1 6758   3.413   2.562   4.269
 2250SOL    HW2 6759   3.494   2.553   4.127
 2251SOL     OW 6760   3.071   2.387   3.999
 2251SOL    HW1 6761   3.084   2.303   4.053
 2251SOL    HW2 6762   3.042   2.461   4.059
 2252SOL     OW 6763   2.169   1.925   4.342
 2252SOL    HW1 6764   2.158   2.019   4.375
 2252SOL    HW2 6765   2.164   1.862   4.419
 2253SOL     OW 6766   3.484   2.229   4.098
 2253SOL    HW1 6767   3.486   2.153   4.162
 2253SOL    HW2 6768   3.436   2.306   4.138
 2254SOL     OW 6769   3.402   2.136   3.849
 2254SOL    HW1 6770   3.341   2.061   3.872
 2254SOL    HW2 6771   3.424   2.188   3.932
 2255SOL     OW 6772   3.165   2.700   3.766
 2255SOL    HW1 6773   3.199   2.607   3.781
 2255SOL    HW2 6774   3.183   2.727   3.671
 2256SOL     OW 6775   1.870   3.188   3.924
 2256SOL    HW1 6776   1.777   3.209   3.893
 2256SOL    HW2 6777   1.880   3.089   3.937
 2257SOL     OW 6778   1.902   2.406   4.838
 2257SOL    HW1 6779   1.987   2.373   4.797
 2257SOL    HW2 6780   1.915   2.421   4.936
 2258SOL     OW 6781   2.677   2.434   4.049
 2258SOL    HW1 6782   2.684   2.345   4.003
 2258SOL    HW2 6783   2.583   2.468   4.041
 2259SOL     OW 6784   2.335   2.362   3.915
 2259SOL    HW1 6785   2.396   2.442   3.919
 2259SOL    HW2 6786   2.240   2.393   3.922
 2260SOL     OW 6787   3.164   2.717   4.033
 2260SOL    HW1 6788   3.078   2.686   4.075
 2260SOL    HW2 6789   3.160   2.703   3.934
 2261SOL     OW 6790   3.588   1.997   4.247
 2261SOL    HW1 6791   3.661   1.980   4.180
 2261SOL    HW2 6792   3.557   1.910   4.285
 2262SOL     OW 6793   3.250   3.435   4.201
 2262SOL    HW1 6794   3.317   3.447   4.127
 2262SOL    HW2 6795   3.210   3.524   4.224
 2263SOL     OW 6796   2.534   3.478   3.878
 2263SOL    HW1 6797   2.543   3.488   3.779
 2263SOL    HW2 6798   2.494   3.389   3.899
 2264SOL     OW 6799   3.703   2.037   4.687
 2264SOL    HW1 6800   3.742   1.952   4.651
 2264SOL    HW2 6801   3.605   2.039   4.668
 2265SOL     OW 6802   2.125   2.188   4.444
 2265SOL    HW1 6803   2.046   2.239   4.410
 2265SOL    HW2 6804   2.116   2.173   4.542
 2266SOL     OW 6805   3.056   3.474   3.755
 2266SOL    HW1 6806   3.062   3.381   3.792
 2266SOL    HW2 6807   2.997   3.474   3.675
 2267SOL     OW 6808   2.778   2.772   4.015
 2267SOL    HW1 6809   2.841   2.810   3.947
 2267SOL    HW2 6810   2.818   2.689   4.054
 2268SOL     OW 6811   3.366   3.469   3.768
 2268SOL    HW1 6812   3.274   3.506   3.775
 2268SOL    HW2 6813   3.404   3.489   3.678
 2269SOL     OW 6814   2.452   3.349   4.215
 2269SOL    HW1 6815   2.494   3.291   4.145
 2269SOL    HW2 6816   2.408   3.428   4.171
 2270SOL     OW 6817   2.117   3.210   4.014
 2270SOL    HW1 6818   2.021   3.211   3.987
 2270SOL    HW2 6819   2.129   3.263   4.098
 2271SOL     OW 6820   1.937   2.207   3.757
 2271SOL    HW1 6821   1.845   2.179   3.728
 2271SOL    HW2 6822   1.968   2.284   3.701
 2272SOL     OW 6823   1.934   2.028   4.042
 2272SOL    HW1 6824   1.917   2.111   3.988
 2272SOL    HW2 6825   2.024   1.991   4.020
 2273SOL     OW 6826   3.045   3.197   3.843
 2273SOL    HW1 6827   2.946   3.186   3.845
 2273SOL    HW2 6828   3.079   3.212   3.936
 2274SOL     OW 6829   3.087   2.187   4.173
 2274SOL    HW1 6830   3.152   2.113   4.162
 2274SOL    HW2 6831   3.107   2.237   4.257
 2275SOL     OW 6832   2.456   2.607   4.376
 2275SOL    HW1 6833   2.506   2.692   4.357
 2275SOL    HW2 6834   2.368   2.609   4.328
 2276SOL     OW 6835   2.721   3.236   3.740
 2276SOL    HW1 6836   2.675   3.251   3.828
 2276SOL    HW2 6837   2.765   3.321   3.710
 2277SOL     OW 6838   2.523   3.652   4.677
 2277SOL    HW1 6839   2.477   3.740   4.664
 2277SOL    HW2 6840   2.622   3.664   4.670
 2278SOL     OW 6841   2.721   2.818   4.585
 2278SOL    HW1 6842   2.775   2.749   4.633
 2278SOL    HW2 6843   2.689   2.887   4.651
 2279SOL     OW 6844   2.945   2.846   3.811
 2279SOL    HW1 6845   2.922   2.899   3.729
 2279SOL    HW2 6846   3.026   2.790   3.792
 2280SOL     OW 6847   1.941   3.102   4.377
 2280SOL    HW1 6848   1.940   3.055   4.465
 2280SOL    HW2 6849   2.023   3.074   4.326
 2281SOL     OW 6850   2.290   2.286   4.244
 2281SOL    HW1 6851   2.320   2.214   4.182
 2281SOL    HW2 6852   2.251   2.246   4.327
 2282SOL     OW 6853   2.674   3.448   4.411
 2282SOL    HW1 6854   2.706   3.458   4.317
 2282SOL    HW2 6855   2.595   3.386   4.413
 2283SOL     OW 6856   2.632   3.192   4.025
 2283SOL    HW1 6857   2.586   3.105   4.042
 2283SOL    HW2 6858   2.723   3.189   4.066
 2284SOL     OW 6859   3.214   1.914   3.892
 2284SOL    HW1 6860   3.249   1.873   3.808
 2284SOL    HW2 6861   3.124   1.876   3.912
 2285SOL     OW 6862   3.162   2.315   4.415
 2285SOL    HW1 6863   3.103   2.395   4.419
 2285SOL    HW2 6864   3.177   2.280   4.508
 2286SOL     OW 6865   1.901   2.939   4.024
 2286SOL    HW1 6866   2.000   2.928   4.015
 2286SOL    HW2 6867   1.861   2.853   4.056
 2287SOL     OW 6868   2.737   3.508   4.061
 2287SOL    HW1 6869   2.660   3.473   4.007
 2287SOL    HW2 6870   2.705   3.579   4.123
 2288SOL     OW 6871   2.092   4.352   0.113
 2288SOL    HW1 6872   1.999   4.350   0.150
 2288SOL    HW2 6873   2.093   4.313   0.021
 2289SOL     OW 6874   2.087   3.999   0.996
 2289SOL    HW1 6875   2.122   3.982   1.088
 2289SOL    HW2 6876   1.999   3.954   0.984
 2290SOL     OW 6877   1.881   4.092   0.647
 2290SOL    HW1 6878   1.799   4.135   0.686
 2290SOL    HW2 6879   1.853   4.019   0.584
 2291SOL     OW 6880   3.617   4.331   0.231
 2291SOL    HW1 6881   3.605   4.318   0.132
 2291SOL    HW2 6882   3.587   4.250   0.280
 2292SOL     OW 6883   2.712   4.522   1.823
 2292SOL    HW1 6884   2.708   4.598   1.888
 2292SOL    HW2 6885   2.734   4.558   1.732
 2293SOL     OW 6886   2.547   4.736   0.665
 2293SOL    HW1 6887   2.616   4.720   0.735
 2293SOL    HW2 6888   2.474   4.793   0.703
 2294SOL     OW 6889   2.300   4.116   1.499
 2294SOL    HW1 6890   2.382   4.060   1.508
 2294SOL    HW2 6891   2.219   4.058   1.503
 2295SOL     OW 6892   3.465   4.171   0.737
 2295SOL    HW1 6893   3.391   4.217   0.687
 2295SOL    HW2 6894   3.516   4.239   0.790
 2296SOL     OW 6895   3.456   3.838   1.480
 2296SOL    HW1 6896   3.438   3.905   1.408
 2296SOL    HW2 6897   3.453   3.884   1.569
 2297SOL     OW 6898   1.984   4.367   0.563
 2297SOL    HW1 6899   1.939   4.279   0.580
 2297SOL    HW2 6900   1.983   4.421   0.647
 2298SOL     OW 6901   1.975   4.461   1.597
 2298SOL    HW1 6902   2.063   4.448   1.642
 2298SOL    HW2 6903   1.962   4.558   1.575
 2299SOL     OW 6904   2.671   3.728   0.502
 2299SOL    HW1 6905   2.711   3.819   0.493
 2299SOL    HW2 6906   2.571   3.736   0.508
 2300SOL     OW 6907   2.179   3.975   1.801
 2300SOL    HW1 6908   2.250   4.046   1.807
 2300SOL    HW2 6909   2.091   4.014   1.829
 2301SOL     OW 6910   2.460   4.453   0.270
 2301SOL    HW1 6911   2.484   4.522   0.202
 2301SOL    HW2 6912   2.382   4.486   0.324
 2302SOL     OW 6913   3.143   4.069   0.944
 2302SOL    HW1 6914   3.057   4.019   0.931
 2302SOL    HW2 6915   3.205   4.015   1.000
 2303SOL     OW 6916   2.669   4.329   1.465
 2303SOL    HW1 6917   2.622   4.326   1.554
 2303SOL    HW2 6918   2.618   4.274   1.399
 2304SOL     OW 6919   3.256   4.193   1.674
 2304SOL    HW1 6920   3.236   4.236   1.762
 2304SOL    HW2 6921   3.334   4.131   1.683
 2305SOL     OW 6922   2.853   4.134   1.242
 2305SOL    HW1 6923   2.776   4.168   1.296
 2305SOL    HW2 6924   2.819   4.083   1.163
 2306SOL     OW 6925   2.903   4.425   0.429
 2306SOL    HW1 6926   2.929   4.421   0.525
 2306SOL    HW2 6927   2.818   4.374   0.415
 2307SOL     OW 6928   2.727   4.072   0.195
 2307SOL    HW1 6929   2.786   4.135   0.146
 2307SOL    HW2 6930   2.746   3.978   0.166
 2308SOL     OW 6931   3.581   4.309   1.831
 2308SOL    HW1 6932   3.555   4.398   1.795
 2308SOL    HW2 6933   3.579   4.241   1.758
 2309SOL     OW 6934   2.412   3.920   0.885
 2309SOL    HW1 6935   2.407   3.915   0.985
 2309SOL    HW2 6936   2.414   4.016   0.856
 2310SOL     OW 6937   3.320   4.459   0.728
 2310SOL    HW1 6938   3.315   4.394   0.803
 2310SOL    HW2 6939   3.400   4.518   0.741
 2311SOL     OW 6940   2.064   4.009   1.498
 2311SOL    HW1 6941   1.984   4.069   1.485
 2311SOL    HW2 6942   2.054   3.960   1.584
 2312SOL     OW 6943   3.262   3.831   0.426
 2312SOL    HW1 6944   3.238   3.794   0.336
 2312SOL    HW2 6945   3.361   3.847   0.430
 2313SOL     OW 6946   2.244   4.424   0.480
 2313SOL    HW1 6947   2.289   4.334   0.477
 2313SOL    HW2 6948   2.150   4.413   0.513
 2314SOL     OW 6949   3.409   3.946   1.729
 2314SOL    HW1 6950   3.404   3.983   1.821
 2314SOL    HW2 6951   3.337   3.877   1.717
 2315SOL     OW 6952   2.643   3.988   1.749
 2315SOL    HW1 6953   2.710   3.927   1.792
 2315SOL    HW2 6954   2.570   4.007   1.814
 2316SOL     OW 6955   3.213   4.314   1.433
 2316SOL    HW1 6956   3.241   4.271   1.518
 2316SOL    HW2 6957   3.238   4.410   1.434
 2317SOL     OW 6958   2.784   4.227   0.899
 2317SOL    HW1 6959   2.759   4.218   0.803
 2317SOL    HW2 6960   2.832   4.145   0.930
 2318SOL     OW 6961   2.401   3.788   0.512
 2318SOL    HW1 6962   2.320   3.789   0.570
 2318SOL    HW2 6963   2.404   3.871   0.457
 2319SOL     OW 6964   2.159   3.759   0.171
 2319SOL    HW1 6965   2.208   3.843   0.150
 2319SOL    HW2 6966   2.221   3.694   0.216
 2320SOL     OW 6967   2.797   3.960   0.480
 2320SOL    HW1 6968   2.749   4.001   0.402
 2320SOL    HW2 6969   2.896   3.958   0.461
 2321SOL     OW 6970   2.938   4.407   1.464
 2321SOL    HW1 6971   2.858   4.346   1.467
 2321SOL    HW2 6972   3.019   4.354   1.440
 2322SOL     OW 6973   2.894   4.273   0.016
 2322SOL    HW1 6974   2.853   4.355  -0.023
 2322SOL    HW2 6975   2.958   4.299   0.089
 2323SOL     OW 6976   1.940   4.280   1.386
 2323SOL    HW1 6977   2.032   4.279   1.345
 2323SOL    HW2 6978   1.934   4.354   1.453
 2324SOL     OW 6979   2.423   3.946   1.147
 2324SOL    HW1 6980   2.461   3.862   1.184
 2324SOL    HW2 6981   2.335   3.965   1.191
 2325SOL     OW 6982   2.728   4.178   0.642
 2325SOL    HW1 6983   2.696   4.250   0.580
 2325SOL    HW2 6984   2.752   4.097   0.589
 2326SOL     OW 6985   2.879   3.763   0.753
 2326SOL    HW1 6986   2.807   3.768   0.684
 2326SOL    HW2 6987   2.855   3.694   0.822
 2327SOL     OW 6988   3.328   4.314   0.992
 2327SOL    HW1 6989   3.298   4.219   0.999
 2327SOL    HW2 6990   3.401   4.330   1.058
 2328SOL     OW 6991   3.252   4.299   0.078
 2328SOL    HW1 6992   3.198   4.278   0.159
 2328SOL    HW2 6993   3.343   4.258   0.087
 2329SOL     OW 6994   2.389   3.980   0.328
 2329SOL    HW1 6995   2.416   3.921   0.253
 2329SOL    HW2 6996   2.389   4.075   0.297
 2330SOL     OW 6997   2.777   3.813   1.402
 2330SOL    HW1 6998   2.802   3.793   1.307
 2330SOL    HW2 6999   2.849   3.869   1.444
 2331SOL     OW 7000   2.567   4.774   0.368
 2331SOL    HW1 7001   2.553   4.781   0.467
 2331SOL    HW2 7002   2.651   4.723   0.350
 2332SOL     OW 7003   2.272   4.537   1.251
 2332SOL    HW1 7004   2.358   4.549   1.301
 2332SOL    HW2 7005   2.230   4.450   1.278
 2333SOL     OW 7006   3.136   4.110   1.262
 2333SOL    HW1 7007   3.157   4.184   1.326
 2333SOL    HW2 7008   3.047   4.127   1.219
 2334SOL     OW 7009   2.428   4.261   0.865
 2334SOL    HW1 7010   2.440   4.327   0.791
 2334SOL    HW2 7011   2.474   4.295   0.948
 2335SOL     OW 7012   3.444   4.363   0.472
 2335SOL    HW1 7013   3.413   4.424   0.545
 2335SOL    HW2 7014   3.494   4.415   0.403
 2336SOL     OW 7015   3.449   4.503   1.670
 2336SOL    HW1 7016   3.357   4.541   1.665
 2336SOL    HW2 7017   3.509   4.550   1.605
 2337SOL     OW 7018   2.875   3.829   1.770
 2337SOL    HW1 7019   2.881   3.914   1.718
 2337SOL    HW2 7020   2.907   3.753   1.713
 2338SOL     OW 7021   2.366   3.774   1.740
 2338SOL    HW1 7022   2.324   3.717   1.670
 2338SOL    HW2 7023   2.300   3.843   1.772
 2339SOL     OW 7024   3.222   4.586   1.045
 2339SOL    HW1 7025   3.147   4.586   0.979
 2339SOL    HW2 7026   3.259   4.494   1.054
 2340SOL     OW 7027   3.071   4.249   0.275
 2340SOL    HW1 7028   3.084   4.165   0.329
 2340SOL    HW2 7029   3.042   4.323   0.335
 2341SOL     OW 7030   2.169   3.937   1.231
 2341SOL    HW1 7031   2.146   3.974   1.321
 2341SOL    HW2 7032   2.139   3.842   1.225
 2342SOL     OW 7033   2.594   4.358   1.064
 2342SOL    HW1 7034   2.653   4.332   0.988
 2342SOL    HW2 7035   2.566   4.454   1.053
 2343SOL     OW 7036   3.590   4.659   1.854
 2343SOL    HW1 7037   3.544   4.652   1.765
 2343SOL    HW2 7038   3.528   4.703   1.920
 2344SOL     OW 7039   2.169   3.787   0.618
 2344SOL    HW1 7040   2.158   3.881   0.651
 2344SOL    HW2 7041   2.164   3.724   0.695
 2345SOL     OW 7042   3.484   4.091   0.374
 2345SOL    HW1 7043   3.486   4.015   0.438
 2345SOL    HW2 7044   3.436   4.168   0.414
 2346SOL     OW 7045   3.402   3.998   0.125
 2346SOL    HW1 7046   3.341   3.923   0.148
 2346SOL    HW2 7047   3.424   4.050   0.208
 2347SOL     OW 7048   2.181   4.534   0.949
 2347SOL    HW1 7049   2.274   4.570   0.954
 2347SOL    HW2 7050   2.175   4.449   1.001
 2348SOL     OW 7051   2.201   4.233   1.006
 2348SOL    HW1 7052   2.149   4.150   0.989
 2348SOL    HW2 7053   2.278   4.238   0.942
 2349SOL     OW 7054   3.000   4.104   1.678
 2349SOL    HW1 7055   2.955   4.167   1.742
 2349SOL    HW2 7056   3.093   4.135   1.661
 2350SOL     OW 7057   3.022   3.931   1.477
 2350SOL    HW1 7058   3.022   3.995   1.554
 2350SOL    HW2 7059   3.050   3.979   1.394
 2351SOL     OW 7060   1.902   4.268   1.114
 2351SOL    HW1 7061   1.987   4.235   1.073
 2351SOL    HW2 7062   1.915   4.283   1.212
 2352SOL     OW 7063   2.051   4.244   1.722
 2352SOL    HW1 7064   2.110   4.204   1.652
 2352SOL    HW2 7065   1.993   4.315   1.681
 2353SOL     OW 7066   2.677   4.296   0.325
 2353SOL    HW1 7067   2.684   4.207   0.279
 2353SOL    HW2 7068   2.583   4.330   0.317
 2354SOL     OW 7069   3.519   4.328   1.206
 2354SOL    HW1 7070   3.481   4.259   1.268
 2354SOL    HW2 7071   3.601   4.292   1.162
 2355SOL     OW 7072   2.533   4.188   1.269
 2355SOL    HW1 7073   2.499   4.099   1.239
 2355SOL    HW2 7074   2.559   4.242   1.189
 2356SOL     OW 7075   2.335   4.224   0.191
 2356SOL    HW1 7076   2.396   4.304   0.195
 2356SOL    HW2 7077   2.240   4.255   0.198
 2357SOL     OW 7078   2.765   3.810   0.133
 2357SOL    HW1 7079   2.816   3.811   0.047
 2357SOL    HW2 7080   2.821   3.768   0.204
 2358SOL     OW 7081   3.588   3.859   0.523
 2358SOL    HW1 7082   3.661   3.842   0.456
 2358SOL    HW2 7083   3.557   3.772   0.561
 2359SOL     OW 7084   3.142   4.651   0.672
 2359SOL    HW1 7085   3.202   4.570   0.674
 2359SOL    HW2 7086   3.182   4.720   0.612
 2360SOL     OW 7087   3.703   3.899   0.963
 2360SOL    HW1 7088   3.742   3.814   0.927
 2360SOL    HW2 7089   3.605   3.901   0.944
 2361SOL     OW 7090   2.125   4.050   0.720
 2361SOL    HW1 7091   2.046   4.101   0.686
 2361SOL    HW2 7092   2.116   4.035   0.818
 2362SOL     OW 7093   2.901   4.822   0.696
 2362SOL    HW1 7094   2.831   4.775   0.750
 2362SOL    HW2 7095   2.960   4.754   0.653
 2363SOL     OW 7096   2.876   3.960   0.971
 2363SOL    HW1 7097   2.868   3.924   0.878
 2363SOL    HW2 7098   2.874   3.884   1.036
 2364SOL     OW 7099   3.571   4.109   1.381
 2364SOL    HW1 7100   3.644   4.178   1.385
 2364SOL    HW2 7101   3.599   4.034   1.322
 2365SOL     OW 7102   1.967   4.737   1.726
 2365SOL    HW1 7103   1.890   4.704   1.780
 2365SOL    HW2 7104   2.052   4.707   1.768
 2366SOL     OW 7105   2.534   3.927   1.489
 2366SOL    HW1 7106   2.624   3.911   1.449
 2366SOL    HW2 7107   2.542   3.932   1.588
 2367SOL     OW 7108   1.937   4.069   0.033
 2367SOL    HW1 7109   1.845   4.041   0.004
 2367SOL    HW2 7110   1.968   4.146  -0.023
 2368SOL     OW 7111   1.934   3.890   0.318
 2368SOL    HW1 7112   1.917   3.973   0.264
 2368SOL    HW2 7113   2.024   3.853   0.296
 2369SOL     OW 7114   2.578   4.289   1.708
 2369SOL    HW1 7115   2.597   4.354   1.782
 2369SOL    HW2 7116   2.638   4.209   1.717
 2370SOL     OW 7117   3.087   4.049   0.449
 2370SOL    HW1 7118   3.152   3.975   0.438
 2370SOL    HW2 7119   3.107   4.099   0.533
 2371SOL     OW 7120   2.456   4.469   0.652
 2371SOL    HW1 7121   2.506   4.554   0.633
 2371SOL    HW2 7122   2.368   4.471   0.604
 2372SOL     OW 7123   3.639   4.066   1.642
 2372SOL    HW1 7124   3.622   4.097   1.548
 2372SOL    HW2 7125   3.555   4.029   1.680
 2373SOL     OW 7126   2.721   4.680   0.861
 2373SOL    HW1 7127   2.775   4.611   0.909
 2373SOL    HW2 7128   2.689   4.749   0.927
 2374SOL     OW 7129   2.945   4.708   0.087
 2374SOL    HW1 7130   2.922   4.761   0.005
 2374SOL    HW2 7131   3.026   4.652   0.068
 2375SOL     OW 7132   3.686   3.916   1.227
 2375SOL    HW1 7133   3.682   3.826   1.271
 2375SOL    HW2 7134   3.689   3.905   1.128
 2376SOL     OW 7135   2.290   4.148   0.520
 2376SOL    HW1 7136   2.320   4.076   0.458
 2376SOL    HW2 7137   2.251   4.108   0.603
 2377SOL     OW 7138   2.179   4.271   1.280
 2377SOL    HW1 7139   2.217   4.212   1.352
 2377SOL    HW2 7140   2.219   4.245   1.192
 2378SOL     OW 7141   3.286   3.938   1.112
 2378SOL    HW1 7142   3.338   3.873   1.167
 2378SOL    HW2 7143   3.237   4.001   1.173
 2379SOL     OW 7144   2.863   3.758   1.154
 2379SOL    HW1 7145   2.800   3.686   1.123
 2379SOL    HW2 7146   2.956   3.722   1.154
 2380SOL     OW 7147   3.214   3.776   0.168
 2380SOL    HW1 7148   3.249   3.735   0.084
 2380SOL    HW2 7149   3.124   3.738   0.188
 2381SOL     OW 7150   3.162   4.177   0.691
 2381SOL    HW1 7151   3.103   4.257   0.695
 2381SOL    HW2 7152   3.177   4.142   0.784
 2382SOL     OW 7153   3.455   3.945   0.882
 2382SOL    HW1 7154   3.371   3.944   0.936
 2382SOL    HW2 7155   3.457   4.028   0.826
 2383SOL     OW 7156   2.092   4.352   1.975
 2383SOL    HW1 7157   1.999   4.350   2.012
 2383SOL    HW2 7158   2.093   4.313   1.883
 2384SOL     OW 7159   2.087   3.999   2.858
 2384SOL    HW1 7160   2.122   3.982   2.950
 2384SOL    HW2 7161   1.999   3.954   2.846
 2385SOL     OW 7162   1.881   4.092   2.509
 2385SOL    HW1 7163   1.799   4.135   2.548
 2385SOL    HW2 7164   1.853   4.019   2.446
 2386SOL     OW 7165   3.617   4.331   2.093
 2386SOL    HW1 7166   3.605   4.318   1.994
 2386SOL    HW2 7167   3.587   4.250   2.142
 2387SOL     OW 7168   2.712   4.522   3.685
 2387SOL    HW1 7169   2.708   4.598   3.750
 2387SOL    HW2 7170   2.734   4.558   3.594
 2388SOL     OW 7171   2.547   4.736   2.527
 2388SOL    HW1 7172   2.616   4.720   2.597
 2388SOL    HW2 7173   2.474   4.793   2.565
 2389SOL     OW 7174   2.300   4.116   3.361
 2389SOL    HW1 7175   2.382   4.060   3.370
 2389SOL    HW2 7176   2.219   4.058   3.365
 2390SOL     OW 7177   3.465   4.171   2.599
 2390SOL    HW1 7178   3.391   4.217   2.549
 2390SOL    HW2 7179   3.516   4.239   2.652
 2391SOL     OW 7180   3.456   3.838   3.342
 2391SOL    HW1 7181   3.438   3.905   3.270
 2391SOL    HW2 7182   3.453   3.884   3.431
 2392SOL     OW 7183   1.984   4.367   2.425
 2392SOL    HW1 7184   1.939   4.279   2.442
 2392SOL    HW2 7185   1.983   4.421   2.509
 2393SOL     OW 7186   1.975   4.461   3.459
 2393SOL    HW1 7187   2.063   4.448   3.504
 2393SOL    HW2 7188   1.962   4.558   3.437
 2394SOL     OW 7189   2.671   3.728   2.364
 2394SOL    HW1 7190   2.711   3.819   2.355
 2394SOL    HW2 7191   2.571   3.736   2.370
 2395SOL     OW 7192   2.179   3.975   3.663
 2395SOL    HW1 7193   2.250   4.046   3.669
 2395SOL    HW2 7194   2.091   4.014   3.691
 2396SOL     OW 7195   2.460   4.453   2.132
 2396SOL    HW1 7196   2.484   4.522   2.064
 2396SOL    HW2 7197   2.382   4.486   2.186
 2397SOL     OW 7198   3.143   4.069   2.806
 2397SOL    HW1 7199   3.057   4.019   2.793
 2397SOL    HW2 7200   3.205   4.015   2.862
 2398SOL     OW 7201   2.669   4.329   3.327
 2398SOL    HW1 7202   2.622   4.326   3.416
 2398SOL    HW2 7203   2.618   4.274   3.261
 2399SOL     OW 7204   3.256   4.193   3.536
 2399SOL    HW1 7205   3.236   4.236   3.624
 2399SOL    HW2 7206   3.334   4.131   3.545
 2400SOL     OW 7207   2.853   4.134   3.104
 2400SOL    HW1 7208   2.776   4.168   3.158
 2400SOL    HW2 7209   2.819   4.083   3.025
 2401SOL     OW 7210   2.903   4.425   2.291
 2401SOL    HW1 7211   2.929   4.421   2.387
 2401SOL    HW2 7212   2.818   4.374   2.277
 2402SOL     OW 7213   2.727   4.072   2.057
 2402SOL    HW1 7214   2.786   4.135   2.008
 2402SOL    HW2 7215   2.746   3.978   2.028
 2403SOL     OW 7216   3.581   4.309   3.693
 2403SOL    HW1 7217   3.555   4.398   3.657
 2403SOL    HW2 7218   3.579   4.241   3.620
 2404SOL     OW 7219   2.412   3.920   2.747
 2404SOL    HW1 7220   2.407   3.915   2.847
 2404SOL    HW2 7221   2.414   4.016   2.718
 2405SOL     OW 7222   3.320   4.459   2.590
 2405SOL    HW1 7223   3.315   4.394   2.665
 2405SOL    HW2 7224   3.400   4.518   2.603
 2406SOL     OW 7225   2.064   4.009   3.360
 2406SOL    HW1 7226   1.984   4.069   3.347
 2406SOL    HW2 7227   2.054   3.960   3.446
 2407SOL     OW 7228   3.262   3.831   2.288
 2407SOL    HW1 7229   3.238   3.794   2.198
 2407SOL    HW2 7230   3.361   3.847   2.292
 2408SOL     OW 7231   2.244   4.424   2.342
 2408SOL    HW1 7232   2.289   4.334   2.339
 2408SOL    HW2 7233   2.150   4.413   2.375
 2409SOL     OW 7234   3.409   3.946   3.591
 2409SOL    HW1 7235   3.404   3.983   3.683
 2409SOL    HW2 7236   3.337   3.877   3.579
 2410SOL     OW 7237   2.476   3.846   1.979
 2410SOL    HW1 7238   2.574   3.824   1.986
 2410SOL    HW2 7239   2.445   3.829   1.886
 2411SOL     OW 7240   2.643   3.988   3.611
 2411SOL    HW1 7241   2.710   3.927   3.654
 2411SOL    HW2 7242   2.570   4.007   3.676
 2412SOL     OW 7243   3.213   4.314   3.295
 2412SOL    HW1 7244   3.241   4.271   3.380
 2412SOL    HW2 7245   3.238   4.410   3.296
 2413SOL     OW 7246   2.784   4.227   2.761
 2413SOL    HW1 7247   2.759   4.218   2.665
 2413SOL    HW2 7248   2.832   4.145   2.792
 2414SOL     OW 7249   2.401   3.788   2.374
 2414SOL    HW1 7250   2.320   3.789   2.432
 2414SOL    HW2 7251   2.404   3.871   2.319
 2415SOL     OW 7252   2.159   3.759   2.033
 2415SOL    HW1 7253   2.208   3.843   2.012
 2415SOL    HW2 7254   2.221   3.694   2.078
 2416SOL     OW 7255   2.797   3.960   2.342
 2416SOL    HW1 7256   2.749   4.001   2.264
 2416SOL    HW2 7257   2.896   3.958   2.323
 2417SOL     OW 7258   2.938   4.407   3.326
 2417SOL    HW1 7259   2.858   4.346   3.329
 2417SOL    HW2 7260   3.019   4.354   3.302
 2418SOL     OW 7261   2.894   4.273   1.878
 2418SOL    HW1 7262   2.853   4.355   1.839
 2418SOL    HW2 7263   2.958   4.299   1.951
 2419SOL     OW 7264   1.940   4.280   3.248
 2419SOL    HW1 7265   2.032   4.279   3.207
 2419SOL    HW2 7266   1.934   4.354   3.315
 2420SOL     OW 7267   2.423   3.946   3.009
 2420SOL    HW1 7268   2.461   3.862   3.046
 2420SOL    HW2 7269   2.335   3.965   3.053
 2421SOL     OW 7270   2.728   4.178   2.504
 2421SOL    HW1 7271   2.696   4.250   2.442
 2421SOL    HW2 7272   2.752   4.097   2.451
 2422SOL     OW 7273   2.879   3.763   2.615
 2422SOL    HW1 7274   2.807   3.768   2.546
 2422SOL    HW2 7275   2.855   3.694   2.684
 2423SOL     OW 7276   3.328   4.314   2.854
 2423SOL    HW1 7277   3.298   4.219   2.861
 2423SOL    HW2 7278   3.401   4.330   2.920
 2424SOL     OW 7279   3.252   4.299   1.940
 2424SOL    HW1 7280   3.198   4.278   2.021
 2424SOL    HW2 7281   3.343   4.258   1.949
 2425SOL     OW 7282   2.389   3.980   2.190
 2425SOL    HW1 7283   2.416   3.921   2.115
 2425SOL    HW2 7284   2.389   4.075   2.159
 2426SOL     OW 7285   2.777   3.813   3.264
 2426SOL    HW1 7286   2.802   3.793   3.169
 2426SOL    HW2 7287   2.849   3.869   3.306
 2427SOL     OW 7288   2.567   4.774   2.230
 2427SOL    HW1 7289   2.553   4.781   2.329
 2427SOL    HW2 7290   2.651   4.723   2.212
 2428SOL     OW 7291   2.272   4.537   3.113
 2428SOL    HW1 7292   2.358   4.549   3.163
 2428SOL    HW2 7293   2.230   4.450   3.140
 2429SOL     OW 7294   3.136   4.110   3.124
 2429SOL    HW1 7295   3.157   4.184   3.188
 2429SOL    HW2 7296   3.047   4.127   3.081
 2430SOL     OW 7297   2.428   4.261   2.727
 2430SOL    HW1 7298   2.440   4.327   2.653
 2430SOL    HW2 7299   2.474   4.295   2.810
 2431SOL     OW 7300   3.444   4.363   2.334
 2431SOL    HW1 7301   3.413   4.424   2.407
 2431SOL    HW2 7302   3.494   4.415   2.265
 2432SOL     OW 7303   3.449   4.503   3.532
 2432SOL    HW1 7304   3.357   4.541   3.527
 2432SOL    HW2 7305   3.509   4.550   3.467
 2433SOL     OW 7306   2.875   3.829   3.632
 2433SOL    HW1 7307   2.881   3.914   3.580
 2433SOL    HW2 7308   2.907   3.753   3.575
 2434SOL     OW 7309   2.366   3.774   3.602
 2434SOL    HW1 7310   2.324   3.717   3.532
 2434SOL    HW2 7311   2.300   3.843   3.634
 2435SOL     OW 7312   3.222   4.586   2.907
 2435SOL    HW1 7313   3.147   4.586   2.841
 2435SOL    HW2 7314   3.259   4.494   2.916
 2436SOL     OW 7315   3.071   4.249   2.137
 2436SOL    HW1 7316   3.084   4.165   2.191
 2436SOL    HW2 7317   3.042   4.323   2.197
 2437SOL     OW 7318   2.169   3.937   3.093
 2437SOL    HW1 7319   2.146   3.974   3.183
 2437SOL    HW2 7320   2.139   3.842   3.087
 2438SOL     OW 7321   2.594   4.358   2.926
 2438SOL    HW1 7322   2.653   4.332   2.850
 2438SOL    HW2 7323   2.566   4.454   2.915
 2439SOL     OW 7324   3.590   4.659   3.716
 2439SOL    HW1 7325   3.544   4.652   3.627
 2439SOL    HW2 7326   3.528   4.703   3.782
 2440SOL     OW 7327   2.169   3.787   2.480
 2440SOL    HW1 7328   2.158   3.881   2.513
 2440SOL    HW2 7329   2.164   3.724   2.557
 2441SOL     OW 7330   3.484   4.091   2.236
 2441SOL    HW1 7331   3.486   4.015   2.300
 2441SOL    HW2 7332   3.436   4.168   2.276
 2442SOL     OW 7333   3.402   3.998   1.987
 2442SOL    HW1 7334   3.341   3.923   2.010
 2442SOL    HW2 7335   3.424   4.050   2.070
 2443SOL     OW 7336   2.181   4.534   2.811
 2443SOL    HW1 7337   2.274   4.570   2.816
 2443SOL    HW2 7338   2.175   4.449   2.863
 2444SOL     OW 7339   2.201   4.233   2.868
 2444SOL    HW1 7340   2.149   4.150   2.851
 2444SOL    HW2 7341   2.278   4.238   2.804
 2445SOL     OW 7342   3.000   4.104   3.540
 2445SOL    HW1 7343   2.955   4.167   3.604
 2445SOL    HW2 7344   3.093   4.135   3.523
 2446SOL     OW 7345   3.022   3.931   3.339
 2446SOL    HW1 7346   3.022   3.995   3.416
 2446SOL    HW2 7347   3.050   3.979   3.256
 2447SOL     OW 7348   1.902   4.268   2.976
 2447SOL    HW1 7349   1.987   4.235   2.935
 2447SOL    HW2 7350   1.915   4.283   3.074
 2448SOL     OW 7351   2.051   4.244   3.584
 2448SOL    HW1 7352   2.110   4.204   3.514
 2448SOL    HW2 7353   1.993   4.315   3.543
 2449SOL     OW 7354   2.677   4.296   2.187
 2449SOL    HW1 7355   2.684   4.207   2.141
 2449SOL    HW2 7356   2.583   4.330   2.179
 2450SOL     OW 7357   3.519   4.328   3.068
 2450SOL    HW1 7358   3.481   4.259   3.130
 2450SOL    HW2 7359   3.601   4.292   3.024
 2451SOL     OW 7360   2.533   4.188   3.131
 2451SOL    HW1 7361   2.499   4.099   3.101
 2451SOL    HW2 7362   2.559   4.242   3.051
 2452SOL     OW 7363   2.335   4.224   2.053
 2452SOL    HW1 7364   2.396   4.304   2.057
 2452SOL    HW2 7365   2.240   4.255   2.060
 2453SOL     OW 7366   3.588   3.859   2.385
 2453SOL    HW1 7367   3.661   3.842   2.318
 2453SOL    HW2 7368   3.557   3.772   2.423
 2454SOL     OW 7369   3.142   4.651   2.534
 2454SOL    HW1 7370   3.202   4.570   2.536
 2454SOL    HW2 7371   3.182   4.720   2.474
 2455SOL     OW 7372   3.703   3.899   2.825
 2455SOL    HW1 7373   3.742   3.814   2.789
 2455SOL    HW2 7374   3.605   3.901   2.806
 2456SOL     OW 7375   2.125   4.050   2.582
 2456SOL    HW1 7376   2.046   4.101   2.548
 2456SOL    HW2 7377   2.116   4.035   2.680
 2457SOL     OW 7378   2.778   4.634   2.153
 2457SOL    HW1 7379   2.841   4.672   2.085
 2457SOL    HW2 7380   2.818   4.551   2.192
 2458SOL     OW 7381   2.901   4.822   2.558
 2458SOL    HW1 7382   2.831   4.775   2.612
 2458SOL    HW2 7383   2.960   4.754   2.515
 2459SOL     OW 7384   2.876   3.960   2.833
 2459SOL    HW1 7385   2.868   3.924   2.740
 2459SOL    HW2 7386   2.874   3.884   2.898
 2460SOL     OW 7387   3.571   4.109   3.243
 2460SOL    HW1 7388   3.644   4.178   3.247
 2460SOL    HW2 7389   3.599   4.034   3.184
 2461SOL     OW 7390   1.967   4.737   3.588
 2461SOL    HW1 7391   1.890   4.704   3.642
 2461SOL    HW2 7392   2.052   4.707   3.630
 2462SOL     OW 7393   2.534   3.927   3.351
 2462SOL    HW1 7394   2.624   3.911   3.311
 2462SOL    HW2 7395   2.542   3.932   3.450
 2463SOL     OW 7396   1.937   4.069   1.895
 2463SOL    HW1 7397   1.845   4.041   1.866
 2463SOL    HW2 7398   1.968   4.146   1.839
 2464SOL     OW 7399   1.934   3.890   2.180
 2464SOL    HW1 7400   1.917   3.973   2.126
 2464SOL    HW2 7401   2.024   3.853   2.158
 2465SOL     OW 7402   2.578   4.289   3.570
 2465SOL    HW1 7403   2.597   4.354   3.644
 2465SOL    HW2 7404   2.638   4.209   3.579
 2466SOL     OW 7405   3.087   4.049   2.311
 2466SOL    HW1 7406   3.152   3.975   2.300
 2466SOL    HW2 7407   3.107   4.099   2.395
 2467SOL     OW 7408   2.456   4.469   2.514
 2467SOL    HW1 7409   2.506   4.554   2.495
 2467SOL    HW2 7410   2.368   4.471   2.466
 2468SOL     OW 7411   3.639   4.066   3.504
 2468SOL    HW1 7412   3.622   4.097   3.410
 2468SOL    HW2 7413   3.555   4.029   3.542
 2469SOL     OW 7414   2.721   4.680   2.723
 2469SOL    HW1 7415   2.775   4.611   2.771
 2469SOL    HW2 7416   2.689   4.749   2.789
 2470SOL     OW 7417   2.945   4.708   1.949
 2470SOL    HW1 7418   2.922   4.761   1.867
 2470SOL    HW2 7419   3.026   4.652   1.930
 2471SOL     OW 7420   3.686   3.916   3.089
 2471SOL    HW1 7421   3.682   3.826   3.133
 2471SOL    HW2 7422   3.689   3.905   2.990
 2472SOL     OW 7423   2.290   4.148   2.382
 2472SOL    HW1 7424   2.320   4.076   2.320
 2472SOL    HW2 7425   2.251   4.108   2.465
 2473SOL     OW 7426   2.179   4.271   3.142
 2473SOL    HW1 7427   2.217   4.212   3.214
 2473SOL    HW2 7428   2.219   4.245   3.054
 2474SOL     OW 7429   3.286   3.938   2.974
 2474SOL    HW1 7430   3.338   3.873   3.029
 2474SOL    HW2 7431   3.237   4.001   3.035
 2475SOL     OW 7432   2.863   3.758   3.016
 2475SOL    HW1 7433   2.800   3.686   2.985
 2475SOL    HW2 7434   2.956   3.722   3.016
 2476SOL     OW 7435   3.214   3.776   2.030
 2476SOL    HW1 7436   3.249   3.735   1.946
 2476SOL    HW2 7437   3.124   3.738   2.050
 2477SOL     OW 7438   3.162   4.177   2.553
 2477SOL    HW1 7439   3.103   4.257   2.557
 2477SOL    HW2 7440   3.177   4.142   2.646
 2478SOL     OW 7441   3.455   3.945   2.744
 2478SOL    HW1 7442   3.371   3.944   2.798
 2478SOL    HW2 7443   3.457   4.028   2.688
 2479SOL     OW 7444   2.092   4.352   3.837
 2479SOL    HW1 7445   1.999   4.350   3.874
 2479SOL    HW2 7446   2.093   4.313   3.745
 2480SOL     OW 7447   1.881   4.092   4.371
 2480SOL    HW1 7448   1.799   4.135   4.410
 2480SOL    HW2 7449   1.853   4.019   4.308
 2481SOL     OW 7450   3.617   4.331   3.955
 2481SOL    HW1 7451   3.605   4.318   3.856
 2481SOL    HW2 7452   3.587   4.250   4.004
 2482SOL     OW 7453   2.547   4.736   4.389
 2482SOL    HW1 7454   2.616   4.720   4.459
 2482SOL    HW2 7455   2.474   4.793   4.427
 2483SOL     OW 7456   3.465   4.171   4.461
 2483SOL    HW1 7457   3.391   4.217   4.411
 2483SOL    HW2 7458   3.516   4.239   4.514
 2484SOL     OW 7459   1.984   4.367   4.287
 2484SOL    HW1 7460   1.939   4.279   4.304
 2484SOL    HW2 7461   1.983   4.421   4.371
 2485SOL     OW 7462   2.671   3.728   4.226
 2485SOL    HW1 7463   2.711   3.819   4.217
 2485SOL    HW2 7464   2.571   3.736   4.232
 2486SOL     OW 7465   2.460   4.453   3.994
 2486SOL    HW1 7466   2.484   4.522   3.926
 2486SOL    HW2 7467   2.382   4.486   4.048
 2487SOL     OW 7468   3.143   4.069   4.668
 2487SOL    HW1 7469   3.057   4.019   4.655
 2487SOL    HW2 7470   3.205   4.015   4.724
 2488SOL     OW 7471   2.903   4.425   4.153
 2488SOL    HW1 7472   2.929   4.421   4.249
 2488SOL    HW2 7473   2.818   4.374   4.139
 2489SOL     OW 7474   2.727   4.072   3.919
 2489SOL    HW1 7475   2.786   4.135   3.870
 2489SOL    HW2 7476   2.746   3.978   3.890
 2490SOL     OW 7477   3.262   3.831   4.150
 2490SOL    HW1 7478   3.238   3.794   4.060
 2490SOL    HW2 7479   3.361   3.847   4.154
 2491SOL     OW 7480   2.244   4.424   4.204
 2491SOL    HW1 7481   2.289   4.334   4.201
 2491SOL    HW2 7482   2.150   4.413   4.237
 2492SOL     OW 7483   2.476   3.846   3.841
 2492SOL    HW1 7484   2.574   3.824   3.848
 2492SOL    HW2 7485   2.445   3.829   3.748
 2493SOL     OW 7486   2.401   3.788   4.236
 2493SOL    HW1 7487   2.320   3.789   4.294
 2493SOL    HW2 7488   2.404   3.871   4.181
 2494SOL     OW 7489   2.159   3.759   3.895
 2494SOL    HW1 7490   2.208   3.843   3.874
 2494SOL    HW2 7491   2.221   3.694   3.940
 2495SOL     OW 7492   2.797   3.960   4.204
 2495SOL    HW1 7493   2.749   4.001   4.126
 2495SOL    HW2 7494   2.896   3.958   4.185
 2496SOL     OW 7495   2.894   4.273   3.740
 2496SOL    HW1 7496   2.853   4.355   3.701
 2496SOL    HW2 7497   2.958   4.299   3.813
 2497SOL     OW 7498   2.728   4.178   4.366
 2497SOL    HW1 7499   2.696   4.250   4.304
 2497SOL    HW2 7500   2.752   4.097   4.313
 2498SOL     OW 7501   3.252   4.299   3.802
 2498SOL    HW1 7502   3.198   4.278   3.883
 2498SOL    HW2 7503   3.343   4.258   3.811
 2499SOL     OW 7504   2.389   3.980   4.052
 2499SOL    HW1 7505   2.416   3.921   3.977
 2499SOL    HW2 7506   2.389   4.075   4.021
 2500SOL     OW 7507   2.567   4.774   4.092
 2500SOL    HW1 7508   2.553   4.781   4.191
 2500SOL    HW2 7509   2.651   4.723   4.074
 2501SOL     OW 7510   3.444   4.363   4.196
 2501SOL    HW1 7511   3.413   4.424   4.269
 2501SOL    HW2 7512   3.494   4.415   4.127
 2502SOL     OW 7513   3.071   4.249   3.999
 2502SOL    HW1 7514   3.084   4.165   4.053
 2502SOL    HW2 7515   3.042   4.323   4.059
 2503SOL     OW 7516   2.169   3.787   4.342
 2503SOL    HW1 7517   2.158   3.881   4.375
 2503SOL    HW2 7518   2.164   3.724   4.419
 2504SOL     OW 7519   3.484   4.091   4.098
 2504SOL    HW1 7520   3.486   4.015   4.162
 2504SOL    HW2 7521   3.436   4.168   4.138
 2505SOL     OW 7522   3.402   3.998   3.849
 2505SOL    HW1 7523   3.341   3.923   3.872
 2505SOL    HW2 7524   3.424   4.050   3.932
 2506SOL     OW 7525   1.902   4.268   4.838
 2506SOL    HW1 7526   1.987   4.235   4.797
 2506SOL    HW2 7527   1.915   4.283   4.936
 2507SOL     OW 7528   2.677   4.296   4.049
 2507SOL    HW1 7529   2.684   4.207   4.003
 2507SOL    HW2 7530   2.583   4.330   4.041
 2508SOL     OW 7531   2.335   4.224   3.915
 2508SOL    HW1 7532   2.396   4.304   3.919
 2508SOL    HW2 7533   2.240   4.255   3.922
 2509SOL     OW 7534   3.588   3.859   4.247
 2509SOL    HW1 7535   3.661   3.842   4.180
 2509SOL    HW2 7536   3.557   3.772   4.285
 2510SOL     OW 7537   3.142   4.651   4.396
 2510SOL    HW1 7538   3.202   4.570   4.398
 2510SOL    HW2 7539   3.182   4.720   4.336
 2511SOL     OW 7540   3.703   3.899   4.687
 2511SOL    HW1 7541   3.742   3.814   4.651
 2511SOL    HW2 7542   3.605   3.901   4.668
 2512SOL     OW 7543   2.125   4.050   4.444
 2512SOL    HW1 7544   2.046   4.101   4.410
 2512SOL    HW2 7545   2.116   4.035   4.542
 2513SOL     OW 7546   2.778   4.634   4.015
 2513SOL    HW1 7547   2.841   4.672   3.947
 2513SOL    HW2 7548   2.818   4.551   4.054
 2514SOL     OW 7549   1.937   4.069   3.757
 2514SOL    HW1 7550   1.845   4.041   3.728
 2514SOL    HW2 7551   1.968   4.146   3.701
 2515SOL     OW 7552   1.934   3.890   4.042
 2515SOL    HW1 7553   1.917   3.973   3.988
 2515SOL    HW2 7554   2.024   3.853   4.020
 2516SOL     OW 7555   3.087   4.049   4.173
 2516SOL    HW1 7556   3.152   3.975   4.162
 2516SOL    HW2 7557   3.107   4.099   4.257
 2517SOL     OW 7558   2.456   4.469   4.376
 2517SOL    HW1 7559   2.506   4.554   4.357
 2517SOL    HW2 7560   2.368   4.471   4.328
 2518SOL     OW 7561   2.945   4.708   3.811
 2518SOL    HW1 7562   2.922   4.761   3.729
 2518SOL    HW2 7563   3.026   4.652   3.792
 2519SOL     OW 7564   2.290   4.148   4.244
 2519SOL    HW1 7565   2.320   4.076   4.182
 2519SOL    HW2 7566   2.251   4.108   4.327
 2520SOL     OW 7567   3.214   3.776   3.892
 2520SOL    HW1 7568   3.249   3.735   3.808
 2520SOL    HW2 7569   3.124   3.738   3.912
 2521SOL     OW 7570   3.162   4.177   4.415
 2521SOL    HW1 7571   3.103   4.257   4.419
 2521SOL    HW2 7572   3.177   4.142   4.508
 2522SOL     OW 7573   3.954   0.628   0.113
 2522SOL    HW1 7574   3.861   0.626   0.150
 2522SOL    HW2 7575   3.955   0.589   0.021
 2523SOL     OW 7576   3.949   0.275   0.996
 2523SOL    HW1 7577   3.984   0.258   1.088
 2523SOL    HW2 7578   3.861   0.230   0.984
 2524SOL     OW 7579   3.743   0.368   0.647
 2524SOL    HW1 7580   3.661   0.411   0.686
 2524SOL    HW2 7581   3.715   0.295   0.584
 2525SOL     OW 7582   4.293   1.275   1.165
 2525SOL    HW1 7583   4.200   1.268   1.128
 2525SOL    HW2 7584   4.304   1.364   1.209
 2526SOL     OW 7585   4.574   0.798   1.823
 2526SOL    HW1 7586   4.570   0.874   1.888
 2526SOL    HW2 7587   4.596   0.834   1.732
 2527SOL     OW 7588   4.409   1.012   0.665
 2527SOL    HW1 7589   4.478   0.996   0.735
 2527SOL    HW2 7590   4.336   1.069   0.703
 2528SOL     OW 7591   4.410   1.161   1.803
 2528SOL    HW1 7592   4.470   1.240   1.817
 2528SOL    HW2 7593   4.324   1.192   1.762
 2529SOL     OW 7594   4.059   1.435   1.061
 2529SOL    HW1 7595   3.981   1.404   1.008
 2529SOL    HW2 7596   4.117   1.493   1.004
 2530SOL     OW 7597   4.162   0.392   1.499
 2530SOL    HW1 7598   4.244   0.336   1.508
 2530SOL    HW2 7599   4.081   0.334   1.503
 2531SOL     OW 7600   3.955   1.713   0.483
 2531SOL    HW1 7601   3.989   1.790   0.537
 2531SOL    HW2 7602   3.999   1.713   0.393
 2532SOL     OW 7603   3.954   1.434   0.538
 2532SOL    HW1 7604   3.928   1.530   0.538
 2532SOL    HW2 7605   3.883   1.380   0.583
 2533SOL     OW 7606   3.964   1.091   0.886
 2533SOL    HW1 7607   3.978   1.007   0.938
 2533SOL    HW2 7608   3.909   1.155   0.941
 2534SOL     OW 7609   4.344   1.786   1.439
 2534SOL    HW1 7610   4.252   1.769   1.474
 2534SOL    HW2 7611   4.372   1.878   1.465
 2535SOL     OW 7612   4.330   0.964   0.123
 2535SOL    HW1 7613   4.337   1.048   0.069
 2535SOL    HW2 7614   4.376   0.977   0.211
 2536SOL     OW 7615   3.846   0.643   0.563
 2536SOL    HW1 7616   3.801   0.555   0.580
 2536SOL    HW2 7617   3.845   0.697   0.647
 2537SOL     OW 7618   3.751   1.596   0.117
 2537SOL    HW1 7619   3.732   1.500   0.138
 2537SOL    HW2 7620   3.718   1.654   0.192
 2538SOL     OW 7621   3.837   0.737   1.597
 2538SOL    HW1 7622   3.925   0.724   1.642
 2538SOL    HW2 7623   3.824   0.834   1.575
 2539SOL     OW 7624   4.337   1.365   0.726
 2539SOL    HW1 7625   4.288   1.278   0.735
 2539SOL    HW2 7626   4.314   1.408   0.639
 2540SOL     OW 7627   4.533   0.004   0.502
 2540SOL    HW1 7628   4.573   0.095   0.493
 2540SOL    HW2 7629   4.433   0.012   0.508
 2541SOL     OW 7630   3.921   0.976   1.264
 2541SOL    HW1 7631   4.010   0.931   1.250
 2541SOL    HW2 7632   3.848   0.911   1.245
 2542SOL     OW 7633   4.041   0.251   1.801
 2542SOL    HW1 7634   4.112   0.322   1.807
 2542SOL    HW2 7635   3.953   0.290   1.829
 2543SOL     OW 7636   4.322   0.729   0.270
 2543SOL    HW1 7637   4.346   0.798   0.202
 2543SOL    HW2 7638   4.244   0.762   0.324
 2544SOL     OW 7639   3.800   0.811   0.789
 2544SOL    HW1 7640   3.899   0.799   0.798
 2544SOL    HW2 7641   3.776   0.906   0.810
 2545SOL     OW 7642   3.854   1.821   1.571
 2545SOL    HW1 7643   3.844   1.806   1.670
 2545SOL    HW2 7644   3.768   1.857   1.535
 2546SOL     OW 7645   4.274   0.196   0.885
 2546SOL    HW1 7646   4.269   0.191   0.985
 2546SOL    HW2 7647   4.276   0.292   0.856
 2547SOL     OW 7648   4.075   1.801   0.853
 2547SOL    HW1 7649   4.125   1.715   0.859
 2547SOL    HW2 7650   4.140   1.878   0.850
 2548SOL     OW 7651   4.045   0.943   0.242
 2548SOL    HW1 7652   4.127   0.982   0.200
 2548SOL    HW2 7653   4.018   0.861   0.193
 2549SOL     OW 7654   4.185   1.266   1.727
 2549SOL    HW1 7655   4.135   1.267   1.641
 2549SOL    HW2 7656   4.122   1.248   1.803
 2550SOL     OW 7657   3.926   0.285   1.498
 2550SOL    HW1 7658   3.846   0.345   1.485
 2550SOL    HW2 7659   3.916   0.236   1.584
 2551SOL     OW 7660   4.188   1.743   0.323
 2551SOL    HW1 7661   4.221   1.782   0.409
 2551SOL    HW2 7662   4.264   1.736   0.258
 2552SOL     OW 7663   3.973   1.785   1.241
 2552SOL    HW1 7664   4.030   1.720   1.291
 2552SOL    HW2 7665   3.957   1.752   1.148
 2553SOL     OW 7666   4.106   0.700   0.480
 2553SOL    HW1 7667   4.151   0.610   0.477
 2553SOL    HW2 7668   4.012   0.689   0.513
 2554SOL     OW 7669   4.338   0.122   0.117
 2554SOL    HW1 7670   4.436   0.100   0.124
 2554SOL    HW2 7671   4.307   0.105   0.024
 2555SOL     OW 7672   4.527   1.402   0.924
 2555SOL    HW1 7673   4.617   1.416   0.882
 2555SOL    HW2 7674   4.456   1.404   0.853
 2556SOL     OW 7675   4.646   0.503   0.899
 2556SOL    HW1 7676   4.621   0.494   0.803
 2556SOL    HW2 7677   4.694   0.421   0.930
 2557SOL     OW 7678   4.263   0.064   0.512
 2557SOL    HW1 7679   4.182   0.065   0.570
 2557SOL    HW2 7680   4.266   0.147   0.457
 2558SOL     OW 7681   4.021   0.035   0.171
 2558SOL    HW1 7682   4.070   0.119   0.150
 2558SOL    HW2 7683   4.083  -0.030   0.216
 2559SOL     OW 7684   4.183   1.152   0.741
 2559SOL    HW1 7685   4.112   1.125   0.806
 2559SOL    HW2 7686   4.157   1.124   0.648
 2560SOL     OW 7687   3.802   0.556   1.386
 2560SOL    HW1 7688   3.894   0.555   1.345
 2560SOL    HW2 7689   3.796   0.630   1.453
 2561SOL     OW 7690   4.285   0.222   1.147
 2561SOL    HW1 7691   4.323   0.138   1.184
 2561SOL    HW2 7692   4.197   0.241   1.191
 2562SOL     OW 7693   4.212   1.385   0.174
 2562SOL    HW1 7694   4.125   1.370   0.221
 2562SOL    HW2 7695   4.195   1.411   0.079
 2563SOL     OW 7696   4.251   0.256   0.328
 2563SOL    HW1 7697   4.278   0.197   0.253
 2563SOL    HW2 7698   4.251   0.351   0.297
 2564SOL     OW 7699   4.134   0.813   1.251
 2564SOL    HW1 7700   4.220   0.825   1.301
 2564SOL    HW2 7701   4.092   0.726   1.278
 2565SOL     OW 7702   3.788   1.564   1.331
 2565SOL    HW1 7703   3.742   1.646   1.297
 2565SOL    HW2 7704   3.886   1.583   1.340
 2566SOL     OW 7705   4.091   1.100   0.501
 2566SOL    HW1 7706   4.084   1.183   0.445
 2566SOL    HW2 7707   4.095   1.020   0.441
 2567SOL     OW 7708   4.290   0.537   0.865
 2567SOL    HW1 7709   4.302   0.603   0.791
 2567SOL    HW2 7710   4.336   0.571   0.948
 2568SOL     OW 7711   4.078   1.510   1.329
 2568SOL    HW1 7712   4.057   1.466   1.242
 2568SOL    HW2 7713   4.175   1.536   1.332
 2569SOL     OW 7714   4.126   0.751   1.598
 2569SOL    HW1 7715   4.194   0.806   1.551
 2569SOL    HW2 7716   4.166   0.663   1.625
 2570SOL     OW 7717   4.228   0.050   1.740
 2570SOL    HW1 7718   4.186  -0.007   1.670
 2570SOL    HW2 7719   4.162   0.119   1.772
 2571SOL     OW 7720   4.297   0.870   1.029
 2571SOL    HW1 7721   4.341   0.959   1.020
 2571SOL    HW2 7722   4.234   0.870   1.106
 2572SOL     OW 7723   4.031   0.213   1.231
 2572SOL    HW1 7724   4.008   0.250   1.321
 2572SOL    HW2 7725   4.001   0.118   1.225
 2573SOL     OW 7726   3.761   1.310   1.282
 2573SOL    HW1 7727   3.814   1.261   1.350
 2573SOL    HW2 7728   3.783   1.408   1.287
 2574SOL     OW 7729   4.031   0.063   0.618
 2574SOL    HW1 7730   4.020   0.157   0.651
 2574SOL    HW2 7731   4.026   0.000   0.695
 2575SOL     OW 7732   4.074   0.898   1.804
 2575SOL    HW1 7733   4.150   0.942   1.852
 2575SOL    HW2 7734   4.109   0.851   1.722
 2576SOL     OW 7735   4.792   1.333   0.849
 2576SOL    HW1 7736   4.799   1.249   0.794
 2576SOL    HW2 7737   4.854   1.402   0.813
 2577SOL     OW 7738   4.043   0.810   0.949
 2577SOL    HW1 7739   4.136   0.846   0.954
 2577SOL    HW2 7740   4.037   0.725   1.001
 2578SOL     OW 7741   4.063   0.509   1.006
 2578SOL    HW1 7742   4.011   0.426   0.989
 2578SOL    HW2 7743   4.140   0.514   0.942
 2579SOL     OW 7744   3.732   1.326   0.200
 2579SOL    HW1 7745   3.639   1.347   0.169
 2579SOL    HW2 7746   3.742   1.227   0.213
 2580SOL     OW 7747   3.812   1.801   0.927
 2580SOL    HW1 7748   3.770   1.715   0.900
 2580SOL    HW2 7749   3.906   1.804   0.893
 2581SOL     OW 7750   4.228   1.568   0.910
 2581SOL    HW1 7751   4.294   1.642   0.919
 2581SOL    HW2 7752   4.272   1.489   0.868
 2582SOL     OW 7753   3.764   0.544   1.114
 2582SOL    HW1 7754   3.849   0.511   1.073
 2582SOL    HW2 7755   3.777   0.559   1.212
 2583SOL     OW 7756   3.913   0.520   1.722
 2583SOL    HW1 7757   3.972   0.480   1.652
 2583SOL    HW2 7758   3.855   0.591   1.681
 2584SOL     OW 7759   3.976   1.564   1.744
 2584SOL    HW1 7760   3.946   1.621   1.820
 2584SOL    HW2 7761   3.969   1.467   1.770
 2585SOL     OW 7762   4.395   0.464   1.269
 2585SOL    HW1 7763   4.361   0.375   1.239
 2585SOL    HW2 7764   4.421   0.518   1.189
 2586SOL     OW 7765   4.197   0.500   0.191
 2586SOL    HW1 7766   4.258   0.580   0.195
 2586SOL    HW2 7767   4.102   0.531   0.198
 2587SOL     OW 7768   3.883   1.137   1.466
 2587SOL    HW1 7769   3.905   1.076   1.542
 2587SOL    HW2 7770   3.893   1.088   1.380
 2588SOL     OW 7771   3.807   1.258   1.022
 2588SOL    HW1 7772   3.802   1.257   1.122
 2588SOL    HW2 7773   3.724   1.217   0.984
 2589SOL     OW 7774   4.412   1.662   1.716
 2589SOL    HW1 7775   4.356   1.743   1.725
 2589SOL    HW2 7776   4.464   1.666   1.630
 2590SOL     OW 7777   3.854   1.794   1.851
 2590SOL    HW1 7778   3.813   1.720   1.904
 2590SOL    HW2 7779   3.918   1.845   1.909
 2591SOL     OW 7780   3.987   0.326   0.720
 2591SOL    HW1 7781   3.908   0.377   0.686
 2591SOL    HW2 7782   3.978   0.311   0.818
 2592SOL     OW 7783   4.096   1.288   1.490
 2592SOL    HW1 7784   4.083   1.381   1.456
 2592SOL    HW2 7785   4.012   1.236   1.477
 2593SOL     OW 7786   4.763   1.098   0.696
 2593SOL    HW1 7787   4.693   1.051   0.750
 2593SOL    HW2 7788   4.822   1.030   0.653
 2594SOL     OW 7789   4.314   1.487   0.491
 2594SOL    HW1 7790   4.356   1.429   0.421
 2594SOL    HW2 7791   4.270   1.566   0.447
 2595SOL     OW 7792   3.979   1.348   0.290
 2595SOL    HW1 7793   3.883   1.349   0.263
 2595SOL    HW2 7794   3.991   1.401   0.374
 2596SOL     OW 7795   3.829   1.013   1.726
 2596SOL    HW1 7796   3.752   0.980   1.780
 2596SOL    HW2 7797   3.914   0.983   1.768
 2597SOL     OW 7798   4.396   0.203   1.489
 2597SOL    HW1 7799   4.486   0.187   1.449
 2597SOL    HW2 7800   4.404   0.208   1.588
 2598SOL     OW 7801   3.799   0.345   0.033
 2598SOL    HW1 7802   3.707   0.317   0.004
 2598SOL    HW2 7803   3.830   0.422  -0.023
 2599SOL     OW 7804   3.796   0.166   0.318
 2599SOL    HW1 7805   3.779   0.249   0.264
 2599SOL    HW2 7806   3.886   0.129   0.296
 2600SOL     OW 7807   4.337   0.842   1.431
 2600SOL    HW1 7808   4.393   0.923   1.414
 2600SOL    HW2 7809   4.396   0.762   1.434
 2601SOL     OW 7810   4.440   0.565   1.708
 2601SOL    HW1 7811   4.459   0.630   1.782
 2601SOL    HW2 7812   4.500   0.485   1.717
 2602SOL     OW 7813   4.114   1.741   1.560
 2602SOL    HW1 7814   4.023   1.782   1.558
 2602SOL    HW2 7815   4.107   1.647   1.592
 2603SOL     OW 7816   4.318   0.745   0.652
 2603SOL    HW1 7817   4.368   0.830   0.633
 2603SOL    HW2 7818   4.230   0.747   0.604
 2604SOL     OW 7819   3.945   1.314   1.844
 2604SOL    HW1 7820   3.880   1.241   1.823
 2604SOL    HW2 7821   3.949   1.328   1.942
 2605SOL     OW 7822   3.803   1.240   0.653
 2605SOL    HW1 7823   3.802   1.193   0.741
 2605SOL    HW2 7824   3.885   1.212   0.602
 2606SOL     OW 7825   4.396   1.391   1.624
 2606SOL    HW1 7826   4.318   1.341   1.662
 2606SOL    HW2 7827   4.393   1.486   1.655
 2607SOL     OW 7828   4.152   0.424   0.520
 2607SOL    HW1 7829   4.182   0.352   0.458
 2607SOL    HW2 7830   4.113   0.384   0.603
 2608SOL     OW 7831   4.041   0.547   1.280
 2608SOL    HW1 7832   4.079   0.488   1.352
 2608SOL    HW2 7833   4.081   0.521   1.192
 2609SOL     OW 7834   4.536   1.586   0.687
 2609SOL    HW1 7835   4.568   1.596   0.593
 2609SOL    HW2 7836   4.457   1.524   0.689
 2610SOL     OW 7837   4.342   1.567   1.284
 2610SOL    HW1 7838   4.337   1.649   1.341
 2610SOL    HW2 7839   4.431   1.564   1.239
 2611SOL     OW 7840   3.763   1.077   0.300
 2611SOL    HW1 7841   3.862   1.066   0.291
 2611SOL    HW2 7842   3.723   0.991   0.332
 2612SOL     OW 7843   3.954   0.628   1.975
 2612SOL    HW1 7844   3.861   0.626   2.012
 2612SOL    HW2 7845   3.955   0.589   1.883
 2613SOL     OW 7846   3.949   0.275   2.858
 2613SOL    HW1 7847   3.984   0.258   2.950
 2613SOL    HW2 7848   3.861   0.230   2.846
 2614SOL     OW 7849   3.743   0.368   2.509
 2614SOL    HW1 7850   3.661   0.411   2.548
 2614SOL    HW2 7851   3.715   0.295   2.446
 2615SOL     OW 7852   4.293   1.275   3.027
 2615SOL    HW1 7853   4.200   1.268   2.990
 2615SOL    HW2 7854   4.304   1.364   3.071
 2616SOL     OW 7855   4.574   0.798   3.685
 2616SOL    HW1 7856   4.570   0.874   3.750
 2616SOL    HW2 7857   4.596   0.834   3.594
 2617SOL     OW 7858   4.409   1.012   2.527
 2617SOL    HW1 7859   4.478   0.996   2.597
 2617SOL    HW2 7860   4.336   1.069   2.565
 2618SOL     OW 7861   4.410   1.161   3.665
 2618SOL    HW1 7862   4.470   1.240   3.679
 2618SOL    HW2 7863   4.324   1.192   3.624
 2619SOL     OW 7864   4.059   1.435   2.923
 2619SOL    HW1 7865   3.981   1.404   2.870
 2619SOL    HW2 7866   4.117   1.493   2.866
 2620SOL     OW 7867   4.162   0.392   3.361
 2620SOL    HW1 7868   4.244   0.336   3.370
 2620SOL    HW2 7869   4.081   0.334   3.365
 2621SOL     OW 7870   3.955   1.713   2.345
 2621SOL    HW1 7871   3.989   1.790   2.399
 2621SOL    HW2 7872   3.999   1.713   2.255
 2622SOL     OW 7873   3.954   1.434   2.400
 2622SOL    HW1 7874   3.928   1.530   2.400
 2622SOL    HW2 7875   3.883   1.380   2.445
 2623SOL     OW 7876   3.964   1.091   2.748
 2623SOL    HW1 7877   3.978   1.007   2.800
 2623SOL    HW2 7878   3.909   1.155   2.803
 2624SOL     OW 7879   4.344   1.786   3.301
 2624SOL    HW1 7880   4.252   1.769   3.336
 2624SOL    HW2 7881   4.372   1.878   3.327
 2625SOL     OW 7882   4.330   0.964   1.985
 2625SOL    HW1 7883   4.337   1.048   1.931
 2625SOL    HW2 7884   4.376   0.977   2.073
 2626SOL     OW 7885   3.846   0.643   2.425
 2626SOL    HW1 7886   3.801   0.555   2.442
 2626SOL    HW2 7887   3.845   0.697   2.509
 2627SOL     OW 7888   3.751   1.596   1.979
 2627SOL    HW1 7889   3.732   1.500   2.000
 2627SOL    HW2 7890   3.718   1.654   2.054
 2628SOL     OW 7891   3.837   0.737   3.459
 2628SOL    HW1 7892   3.925   0.724   3.504
 2628SOL    HW2 7893   3.824   0.834   3.437
 2629SOL     OW 7894   4.337   1.365   2.588
 2629SOL    HW1 7895   4.288   1.278   2.597
 2629SOL    HW2 7896   4.314   1.408   2.501
 2630SOL     OW 7897   4.533   0.004   2.364
 2630SOL    HW1 7898   4.573   0.095   2.355
 2630SOL    HW2 7899   4.433   0.012   2.370
 2631SOL     OW 7900   3.921   0.976   3.126
 2631SOL    HW1 7901   4.010   0.931   3.112
 2631SOL    HW2 7902   3.848   0.911   3.107
 2632SOL     OW 7903   4.041   0.251   3.663
 2632SOL    HW1 7904   4.112   0.322   3.669
 2632SOL    HW2 7905   3.953   0.290   3.691
 2633SOL     OW 7906   4.322   0.729   2.132
 2633SOL    HW1 7907   4.346   0.798   2.064
 2633SOL    HW2 7908   4.244   0.762   2.186
 2634SOL     OW 7909   3.800   0.811   2.651
 2634SOL    HW1 7910   3.899   0.799   2.660
 2634SOL    HW2 7911   3.776   0.906   2.672
 2635SOL     OW 7912   3.854   1.821   3.433
 2635SOL    HW1 7913   3.844   1.806   3.532
 2635SOL    HW2 7914   3.768   1.857   3.397
 2636SOL     OW 7915   4.274   0.196   2.747
 2636SOL    HW1 7916   4.269   0.191   2.847
 2636SOL    HW2 7917   4.276   0.292   2.718
 2637SOL     OW 7918   4.075   1.801   2.715
 2637SOL    HW1 7919   4.125   1.715   2.721
 2637SOL    HW2 7920   4.140   1.878   2.712
 2638SOL     OW 7921   4.045   0.943   2.104
 2638SOL    HW1 7922   4.127   0.982   2.062
 2638SOL    HW2 7923   4.018   0.861   2.055
 2639SOL     OW 7924   4.185   1.266   3.589
 2639SOL    HW1 7925   4.135   1.267   3.503
 2639SOL    HW2 7926   4.122   1.248   3.665
 2640SOL     OW 7927   3.926   0.285   3.360
 2640SOL    HW1 7928   3.846   0.345   3.347
 2640SOL    HW2 7929   3.916   0.236   3.446
 2641SOL     OW 7930   4.188   1.743   2.185
 2641SOL    HW1 7931   4.221   1.782   2.271
 2641SOL    HW2 7932   4.264   1.736   2.120
 2642SOL     OW 7933   3.973   1.785   3.103
 2642SOL    HW1 7934   4.030   1.720   3.153
 2642SOL    HW2 7935   3.957   1.752   3.010
 2643SOL     OW 7936   4.106   0.700   2.342
 2643SOL    HW1 7937   4.151   0.610   2.339
 2643SOL    HW2 7938   4.012   0.689   2.375
 2644SOL     OW 7939   4.338   0.122   1.979
 2644SOL    HW1 7940   4.436   0.100   1.986
 2644SOL    HW2 7941   4.307   0.105   1.886
 2645SOL     OW 7942   4.527   1.402   2.786
 2645SOL    HW1 7943   4.617   1.416   2.744
 2645SOL    HW2 7944   4.456   1.404   2.715
 2646SOL     OW 7945   4.646   0.503   2.761
 2646SOL    HW1 7946   4.621   0.494   2.665
 2646SOL    HW2 7947   4.694   0.421   2.792
 2647SOL     OW 7948   4.263   0.064   2.374
 2647SOL    HW1 7949   4.182   0.065   2.432
 2647SOL    HW2 7950   4.266   0.147   2.319
 2648SOL     OW 7951   4.021   0.035   2.033
 2648SOL    HW1 7952   4.070   0.119   2.012
 2648SOL    HW2 7953   4.083  -0.030   2.078
 2649SOL     OW 7954   4.183   1.152   2.603
 2649SOL    HW1 7955   4.112   1.125   2.668
 2649SOL    HW2 7956   4.157   1.124   2.510
 2650SOL     OW 7957   3.802   0.556   3.248
 2650SOL    HW1 7958   3.894   0.555   3.207
 2650SOL    HW2 7959   3.796   0.630   3.315
 2651SOL     OW 7960   4.285   0.222   3.009
 2651SOL    HW1 7961   4.323   0.138   3.046
 2651SOL    HW2 7962   4.197   0.241   3.053
 2652SOL     OW 7963   4.212   1.385   2.036
 2652SOL    HW1 7964   4.125   1.370   2.083
 2652SOL    HW2 7965   4.195   1.411   1.941
 2653SOL     OW 7966   4.251   0.256   2.190
 2653SOL    HW1 7967   4.278   0.197   2.115
 2653SOL    HW2 7968   4.251   0.351   2.159
 2654SOL     OW 7969   4.134   0.813   3.113
 2654SOL    HW1 7970   4.220   0.825   3.163
 2654SOL    HW2 7971   4.092   0.726   3.140
 2655SOL     OW 7972   3.788   1.564   3.193
 2655SOL    HW1 7973   3.742   1.646   3.159
 2655SOL    HW2 7974   3.886   1.583   3.202
 2656SOL     OW 7975   4.091   1.100   2.363
 2656SOL    HW1 7976   4.084   1.183   2.307
 2656SOL    HW2 7977   4.095   1.020   2.303
 2657SOL     OW 7978   4.290   0.537   2.727
 2657SOL    HW1 7979   4.302   0.603   2.653
 2657SOL    HW2 7980   4.336   0.571   2.810
 2658SOL     OW 7981   4.078   1.510   3.191
 2658SOL    HW1 7982   4.057   1.466   3.104
 2658SOL    HW2 7983   4.175   1.536   3.194
 2659SOL     OW 7984   4.126   0.751   3.460
 2659SOL    HW1 7985   4.194   0.806   3.413
 2659SOL    HW2 7986   4.166   0.663   3.487
 2660SOL     OW 7987   4.228   0.050   3.602
 2660SOL    HW1 7988   4.186  -0.007   3.532
 2660SOL    HW2 7989   4.162   0.119   3.634
 2661SOL     OW 7990   4.297   0.870   2.891
 2661SOL    HW1 7991   4.341   0.959   2.882
 2661SOL    HW2 7992   4.234   0.870   2.968
 2662SOL     OW 7993   4.031   0.213   3.093
 2662SOL    HW1 7994   4.008   0.250   3.183
 2662SOL    HW2 7995   4.001   0.118   3.087
 2663SOL     OW 7996   3.761   1.310   3.144
 2663SOL    HW1 7997   3.814   1.261   3.212
 2663SOL    HW2 7998   3.783   1.408   3.149
 2664SOL     OW 7999   4.031   0.063   2.480
 2664SOL    HW1 8000   4.020   0.157   2.513
 2664SOL    HW2 8001   4.026   0.000   2.557
 2665SOL     OW 8002   4.074   0.898   3.666
 2665SOL    HW1 8003   4.150   0.942   3.714
 2665SOL    HW2 8004   4.109   0.851   3.584
 2666SOL     OW 8005   4.792   1.333   2.711
 2666SOL    HW1 8006   4.799   1.249   2.656
 2666SOL    HW2 8007   4.854   1.402   2.675
 2667SOL     OW 8008   4.043   0.810   2.811
 2667SOL    HW1 8009   4.136   0.846   2.816
 2667SOL    HW2 8010   4.037   0.725   2.863
 2668SOL     OW 8011   4.063   0.509   2.868
 2668SOL    HW1 8012   4.011   0.426   2.851
 2668SOL    HW2 8013   4.140   0.514   2.804
 2669SOL     OW 8014   3.732   1.326   2.062
 2669SOL    HW1 8015   3.639   1.347   2.031
 2669SOL    HW2 8016   3.742   1.227   2.075
 2670SOL     OW 8017   3.812   1.801   2.789
 2670SOL    HW1 8018   3.770   1.715   2.762
 2670SOL    HW2 8019   3.906   1.804   2.755
 2671SOL     OW 8020   4.228   1.568   2.772
 2671SOL    HW1 8021   4.294   1.642   2.781
 2671SOL    HW2 8022   4.272   1.489   2.730
 2672SOL     OW 8023   3.764   0.544   2.976
 2672SOL    HW1 8024   3.849   0.511   2.935
 2672SOL    HW2 8025   3.777   0.559   3.074
 2673SOL     OW 8026   3.913   0.520   3.584
 2673SOL    HW1 8027   3.972   0.480   3.514
 2673SOL    HW2 8028   3.855   0.591   3.543
 2674SOL     OW 8029   4.539   0.572   2.187
 2674SOL    HW1 8030   4.546   0.483   2.141
 2674SOL    HW2 8031   4.445   0.606   2.179
 2675SOL     OW 8032   3.976   1.564   3.606
 2675SOL    HW1 8033   3.946   1.621   3.682
 2675SOL    HW2 8034   3.969   1.467   3.632
 2676SOL     OW 8035   4.395   0.464   3.131
 2676SOL    HW1 8036   4.361   0.375   3.101
 2676SOL    HW2 8037   4.421   0.518   3.051
 2677SOL     OW 8038   4.197   0.500   2.053
 2677SOL    HW1 8039   4.258   0.580   2.057
 2677SOL    HW2 8040   4.102   0.531   2.060
 2678SOL     OW 8041   3.883   1.137   3.328
 2678SOL    HW1 8042   3.905   1.076   3.404
 2678SOL    HW2 8043   3.893   1.088   3.242
 2679SOL     OW 8044   3.807   1.258   2.884
 2679SOL    HW1 8045   3.802   1.257   2.984
 2679SOL    HW2 8046   3.724   1.217   2.846
 2680SOL     OW 8047   4.412   1.662   3.578
 2680SOL    HW1 8048   4.356   1.743   3.587
 2680SOL    HW2 8049   4.464   1.666   3.492
 2681SOL     OW 8050   3.854   1.794   3.713
 2681SOL    HW1 8051   3.813   1.720   3.766
 2681SOL    HW2 8052   3.918   1.845   3.771
 2682SOL     OW 8053   3.987   0.326   2.582
 2682SOL    HW1 8054   3.908   0.377   2.548
 2682SOL    HW2 8055   3.978   0.311   2.680
 2683SOL     OW 8056   4.096   1.288   3.352
 2683SOL    HW1 8057   4.083   1.381   3.318
 2683SOL    HW2 8058   4.012   1.236   3.339
 2684SOL     OW 8059   4.763   1.098   2.558
 2684SOL    HW1 8060   4.693   1.051   2.612
 2684SOL    HW2 8061   4.822   1.030   2.515
 2685SOL     OW 8062   4.314   1.487   2.353
 2685SOL    HW1 8063   4.356   1.429   2.283
 2685SOL    HW2 8064   4.270   1.566   2.309
 2686SOL     OW 8065   3.979   1.348   2.152
 2686SOL    HW1 8066   3.883   1.349   2.125
 2686SOL    HW2 8067   3.991   1.401   2.236
 2687SOL     OW 8068   3.829   1.013   3.588
 2687SOL    HW1 8069   3.752   0.980   3.642
 2687SOL    HW2 8070   3.914   0.983   3.630
 2688SOL     OW 8071   4.396   0.203   3.351
 2688SOL    HW1 8072   4.486   0.187   3.311
 2688SOL    HW2 8073   4.404   0.208   3.450
 2689SOL     OW 8074   3.799   0.345   1.895
 2689SOL    HW1 8075   3.707   0.317   1.866
 2689SOL    HW2 8076   3.830   0.422   1.839
 2690SOL     OW 8077   3.796   0.166   2.180
 2690SOL    HW1 8078   3.779   0.249   2.126
 2690SOL    HW2 8079   3.886   0.129   2.158
 2691SOL     OW 8080   4.337   0.842   3.293
 2691SOL    HW1 8081   4.393   0.923   3.276
 2691SOL    HW2 8082   4.396   0.762   3.296
 2692SOL     OW 8083   4.440   0.565   3.570
 2692SOL    HW1 8084   4.459   0.630   3.644
 2692SOL    HW2 8085   4.500   0.485   3.579
 2693SOL     OW 8086   4.114   1.741   3.422
 2693SOL    HW1 8087   4.023   1.782   3.420
 2693SOL    HW2 8088   4.107   1.647   3.454
 2694SOL     OW 8089   4.318   0.745   2.514
 2694SOL    HW1 8090   4.368   0.830   2.495
 2694SOL    HW2 8091   4.230   0.747   2.466
 2695SOL     OW 8092   3.945   1.314   3.706
 2695SOL    HW1 8093   3.880   1.241   3.685
 2695SOL    HW2 8094   3.949   1.328   3.804
 2696SOL     OW 8095   3.803   1.240   2.515
 2696SOL    HW1 8096   3.802   1.193   2.603
 2696SOL    HW2 8097   3.885   1.212   2.464
 2697SOL     OW 8098   4.396   1.391   3.486
 2697SOL    HW1 8099   4.318   1.341   3.524
 2697SOL    HW2 8100   4.393   1.486   3.517
 2698SOL     OW 8101   4.152   0.424   2.382
 2698SOL    HW1 8102   4.182   0.352   2.320
 2698SOL    HW2 8103   4.113   0.384   2.465
 2699SOL     OW 8104   4.041   0.547   3.142
 2699SOL    HW1 8105   4.079   0.488   3.214
 2699SOL    HW2 8106   4.081   0.521   3.054
 2700SOL     OW 8107   4.536   1.586   2.549
 2700SOL    HW1 8108   4.568   1.596   2.455
 2700SOL    HW2 8109   4.457   1.524   2.551
 2701SOL     OW 8110   4.342   1.567   3.146
 2701SOL    HW1 8111   4.337   1.649   3.203
 2701SOL    HW2 8112   4.431   1.564   3.101
 2702SOL     OW 8113   3.763   1.077   2.162
 2702SOL    HW1 8114   3.862   1.066   2.153
 2702SOL    HW2 8115   3.723   0.991   2.194
 2703SOL     OW 8116   3.954   0.628   3.837
 2703SOL    HW1 8117   3.861   0.626   3.874
 2703SOL    HW2 8118   3.955   0.589   3.745
 2704SOL     OW 8119   3.743   0.368   4.371
 2704SOL    HW1 8120   3.661   0.411   4.410
 2704SOL    HW2 8121   3.715   0.295   4.308
 2705SOL     OW 8122   4.409   1.012   4.389
 2705SOL    HW1 8123   4.478   0.996   4.459
 2705SOL    HW2 8124   4.336   1.069   4.427
 2706SOL     OW 8125   3.955   1.713   4.207
 2706SOL    HW1 8126   3.989   1.790   4.261
 2706SOL    HW2 8127   3.999   1.713   4.117
 2707SOL     OW 8128   3.954   1.434   4.262
 2707SOL    HW1 8129   3.928   1.530   4.262
 2707SOL    HW2 8130   3.883   1.380   4.307
 2708SOL     OW 8131   4.330   0.964   3.847
 2708SOL    HW1 8132   4.337   1.048   3.793
 2708SOL    HW2 8133   4.376   0.977   3.935
 2709SOL     OW 8134   3.846   0.643   4.287
 2709SOL    HW1 8135   3.801   0.555   4.304
 2709SOL    HW2 8136   3.845   0.697   4.371
 2710SOL     OW 8137   3.751   1.596   3.841
 2710SOL    HW1 8138   3.732   1.500   3.862
 2710SOL    HW2 8139   3.718   1.654   3.916
 2711SOL     OW 8140   4.337   1.365   4.450
 2711SOL    HW1 8141   4.288   1.278   4.459
 2711SOL    HW2 8142   4.314   1.408   4.363
 2712SOL     OW 8143   4.533   0.004   4.226
 2712SOL    HW1 8144   4.573   0.095   4.217
 2712SOL    HW2 8145   4.433   0.012   4.232
 2713SOL     OW 8146   4.322   0.729   3.994
 2713SOL    HW1 8147   4.346   0.798   3.926
 2713SOL    HW2 8148   4.244   0.762   4.048
 2714SOL     OW 8149   3.800   0.811   4.513
 2714SOL    HW1 8150   3.899   0.799   4.522
 2714SOL    HW2 8151   3.776   0.906   4.534
 2715SOL     OW 8152   4.075   1.801   4.577
 2715SOL    HW1 8153   4.125   1.715   4.583
 2715SOL    HW2 8154   4.140   1.878   4.574
 2716SOL     OW 8155   4.045   0.943   3.966
 2716SOL    HW1 8156   4.127   0.982   3.924
 2716SOL    HW2 8157   4.018   0.861   3.917
 2717SOL     OW 8158   4.188   1.743   4.047
 2717SOL    HW1 8159   4.221   1.782   4.133
 2717SOL    HW2 8160   4.264   1.736   3.982
 2718SOL     OW 8161   4.106   0.700   4.204
 2718SOL    HW1 8162   4.151   0.610   4.201
 2718SOL    HW2 8163   4.012   0.689   4.237
 2719SOL     OW 8164   4.338   0.122   3.841
 2719SOL    HW1 8165   4.436   0.100   3.848
 2719SOL    HW2 8166   4.307   0.105   3.748
 2720SOL     OW 8167   4.263   0.064   4.236
 2720SOL    HW1 8168   4.182   0.065   4.294
 2720SOL    HW2 8169   4.266   0.147   4.181
 2721SOL     OW 8170   4.021   0.035   3.895
 2721SOL    HW1 8171   4.070   0.119   3.874
 2721SOL    HW2 8172   4.083  -0.030   3.940
 2722SOL     OW 8173   4.183   1.152   4.465
 2722SOL    HW1 8174   4.112   1.125   4.530
 2722SOL    HW2 8175   4.157   1.124   4.372
 2723SOL     OW 8176   4.212   1.385   3.898
 2723SOL    HW1 8177   4.125   1.370   3.945
 2723SOL    HW2 8178   4.195   1.411   3.803
 2724SOL     OW 8179   4.251   0.256   4.052
 2724SOL    HW1 8180   4.278   0.197   3.977
 2724SOL    HW2 8181   4.251   0.351   4.021
 2725SOL     OW 8182   4.091   1.100   4.225
 2725SOL    HW1 8183   4.084   1.183   4.169
 2725SOL    HW2 8184   4.095   1.020   4.165
 2726SOL     OW 8185   4.031   0.063   4.342
 2726SOL    HW1 8186   4.020   0.157   4.375
 2726SOL    HW2 8187   4.026   0.000   4.419
 2727SOL     OW 8188   4.792   1.333   4.573
 2727SOL    HW1 8189   4.799   1.249   4.518
 2727SOL    HW2 8190   4.854   1.402   4.537
 2728SOL     OW 8191   3.732   1.326   3.924
 2728SOL    HW1 8192   3.639   1.347   3.893
 2728SOL    HW2 8193   3.742   1.227   3.937
 2729SOL     OW 8194   3.764   0.544   4.838
 2729SOL    HW1 8195   3.849   0.511   4.797
 2729SOL    HW2 8196   3.777   0.559   4.936
 2730SOL     OW 8197   4.539   0.572   4.049
 2730SOL    HW1 8198   4.546   0.483   4.003
 2730SOL    HW2 8199   4.445   0.606   4.041
 2731SOL     OW 8200   4.197   0.500   3.915
 2731SOL    HW1 8201   4.258   0.580   3.919
 2731SOL    HW2 8202   4.102   0.531   3.922
 2732SOL     OW 8203   3.987   0.326   4.444
 2732SOL    HW1 8204   3.908   0.377   4.410
 2732SOL    HW2 8205   3.978   0.311   4.542
 2733SOL     OW 8206   4.763   1.098   4.420
 2733SOL    HW1 8207   4.693   1.051   4.474
 2733SOL    HW2 8208   4.822   1.030   4.377
 2734SOL     OW 8209   4.314   1.487   4.215
 2734SOL    HW1 8210   4.356   1.429   4.145
 2734SOL    HW2 8211   4.270   1.566   4.171
 2735SOL     OW 8212   3.979   1.348   4.014
 2735SOL    HW1 8213   3.883   1.349   3.987
 2735SOL    HW2 8214   3.991   1.401   4.098
 2736SOL     OW 8215   3.799   0.345   3.757
 2736SOL    HW1 8216   3.707   0.317   3.728
 2736SOL    HW2 8217   3.830   0.422   3.701
 2737SOL     OW 8218   3.796   0.166   4.042
 2737SOL    HW1 8219   3.779   0.249   3.988
 2737SOL    HW2 8220   3.886   0.129   4.020
 2738SOL     OW 8221   4.318   0.745   4.376
 2738SOL    HW1 8222   4.368   0.830   4.357
 2738SOL    HW2 8223   4.230   0.747   4.328
 2739SOL     OW 8224   4.385   1.790   4.677
 2739SOL    HW1 8225   4.339   1.878   4.664
 2739SOL    HW2 8226   4.484   1.802   4.670
 2740SOL     OW 8227   3.803   1.240   4.377
 2740SOL    HW1 8228   3.802   1.193   4.465
 2740SOL    HW2 8229   3.885   1.212   4.326
 2741SOL     OW 8230   4.152   0.424   4.244
 2741SOL    HW1 8231   4.182   0.352   4.182
 2741SOL    HW2 8232   4.113   0.384   4.327
 2742SOL     OW 8233   4.536   1.586   4.411
 2742SOL    HW1 8234   4.568   1.596   4.317
 2742SOL    HW2 8235   4.457   1.524   4.413
 2743SOL     OW 8236   3.763   1.077   4.024
 2743SOL    HW1 8237   3.862   1.066   4.015
 2743SOL    HW2 8238   3.723   0.991   4.056
 2744SOL     OW 8239   3.954   2.490   0.113
 2744SOL    HW1 8240   3.861   2.488   0.150
 2744SOL    HW2 8241   3.955   2.451   0.021
 2745SOL     OW 8242   3.949   2.137   0.996
 2745SOL    HW1 8243   3.984   2.120   1.088
 2745SOL    HW2 8244   3.861   2.092   0.984
 2746SOL     OW 8245   3.743   2.230   0.647
 2746SOL    HW1 8246   3.661   2.273   0.686
 2746SOL    HW2 8247   3.715   2.157   0.584
 2747SOL     OW 8248   4.293   3.137   1.165
 2747SOL    HW1 8249   4.200   3.130   1.128
 2747SOL    HW2 8250   4.304   3.226   1.209
 2748SOL     OW 8251   4.574   2.660   1.823
 2748SOL    HW1 8252   4.570   2.736   1.888
 2748SOL    HW2 8253   4.596   2.696   1.732
 2749SOL     OW 8254   4.409   2.874   0.665
 2749SOL    HW1 8255   4.478   2.858   0.735
 2749SOL    HW2 8256   4.336   2.931   0.703
 2750SOL     OW 8257   4.410   3.023   1.803
 2750SOL    HW1 8258   4.470   3.102   1.817
 2750SOL    HW2 8259   4.324   3.054   1.762
 2751SOL     OW 8260   4.059   3.297   1.061
 2751SOL    HW1 8261   3.981   3.266   1.008
 2751SOL    HW2 8262   4.117   3.355   1.004
 2752SOL     OW 8263   4.162   2.254   1.499
 2752SOL    HW1 8264   4.244   2.198   1.508
 2752SOL    HW2 8265   4.081   2.196   1.503
 2753SOL     OW 8266   3.955   3.575   0.483
 2753SOL    HW1 8267   3.989   3.652   0.537
 2753SOL    HW2 8268   3.999   3.575   0.393
 2754SOL     OW 8269   3.954   3.296   0.538
 2754SOL    HW1 8270   3.928   3.392   0.538
 2754SOL    HW2 8271   3.883   3.242   0.583
 2755SOL     OW 8272   3.964   2.953   0.886
 2755SOL    HW1 8273   3.978   2.869   0.938
 2755SOL    HW2 8274   3.909   3.017   0.941
 2756SOL     OW 8275   4.344   3.648   1.439
 2756SOL    HW1 8276   4.252   3.631   1.474
 2756SOL    HW2 8277   4.372   3.740   1.465
 2757SOL     OW 8278   4.330   2.826   0.123
 2757SOL    HW1 8279   4.337   2.910   0.069
 2757SOL    HW2 8280   4.376   2.839   0.211
 2758SOL     OW 8281   3.846   2.505   0.563
 2758SOL    HW1 8282   3.801   2.417   0.580
 2758SOL    HW2 8283   3.845   2.559   0.647
 2759SOL     OW 8284   3.751   3.458   0.117
 2759SOL    HW1 8285   3.732   3.362   0.138
 2759SOL    HW2 8286   3.718   3.516   0.192
 2760SOL     OW 8287   3.837   2.599   1.597
 2760SOL    HW1 8288   3.925   2.586   1.642
 2760SOL    HW2 8289   3.824   2.696   1.575
 2761SOL     OW 8290   4.337   3.227   0.726
 2761SOL    HW1 8291   4.288   3.140   0.735
 2761SOL    HW2 8292   4.314   3.270   0.639
 2762SOL     OW 8293   4.533   1.866   0.502
 2762SOL    HW1 8294   4.573   1.957   0.493
 2762SOL    HW2 8295   4.433   1.874   0.508
 2763SOL     OW 8296   3.921   2.838   1.264
 2763SOL    HW1 8297   4.010   2.793   1.250
 2763SOL    HW2 8298   3.848   2.773   1.245
 2764SOL     OW 8299   4.041   2.113   1.801
 2764SOL    HW1 8300   4.112   2.184   1.807
 2764SOL    HW2 8301   3.953   2.152   1.829
 2765SOL     OW 8302   4.322   2.591   0.270
 2765SOL    HW1 8303   4.346   2.660   0.202
 2765SOL    HW2 8304   4.244   2.624   0.324
 2766SOL     OW 8305   3.800   2.673   0.789
 2766SOL    HW1 8306   3.899   2.661   0.798
 2766SOL    HW2 8307   3.776   2.768   0.810
 2767SOL     OW 8308   3.854   3.683   1.571
 2767SOL    HW1 8309   3.844   3.668   1.670
 2767SOL    HW2 8310   3.768   3.719   1.535
 2768SOL     OW 8311   4.274   2.058   0.885
 2768SOL    HW1 8312   4.269   2.053   0.985
 2768SOL    HW2 8313   4.276   2.154   0.856
 2769SOL     OW 8314   4.075   3.663   0.853
 2769SOL    HW1 8315   4.125   3.577   0.859
 2769SOL    HW2 8316   4.140   3.740   0.850
 2770SOL     OW 8317   4.045   2.805   0.242
 2770SOL    HW1 8318   4.127   2.844   0.200
 2770SOL    HW2 8319   4.018   2.723   0.193
 2771SOL     OW 8320   4.185   3.128   1.727
 2771SOL    HW1 8321   4.135   3.129   1.641
 2771SOL    HW2 8322   4.122   3.110   1.803
 2772SOL     OW 8323   3.926   2.147   1.498
 2772SOL    HW1 8324   3.846   2.207   1.485
 2772SOL    HW2 8325   3.916   2.098   1.584
 2773SOL     OW 8326   4.188   3.605   0.323
 2773SOL    HW1 8327   4.221   3.644   0.409
 2773SOL    HW2 8328   4.264   3.598   0.258
 2774SOL     OW 8329   3.973   3.647   1.241
 2774SOL    HW1 8330   4.030   3.582   1.291
 2774SOL    HW2 8331   3.957   3.614   1.148
 2775SOL     OW 8332   4.106   2.562   0.480
 2775SOL    HW1 8333   4.151   2.472   0.477
 2775SOL    HW2 8334   4.012   2.551   0.513
 2776SOL     OW 8335   4.527   3.264   0.924
 2776SOL    HW1 8336   4.617   3.278   0.882
 2776SOL    HW2 8337   4.456   3.266   0.853
 2777SOL     OW 8338   4.646   2.365   0.899
 2777SOL    HW1 8339   4.621   2.356   0.803
 2777SOL    HW2 8340   4.694   2.283   0.930
 2778SOL     OW 8341   4.263   1.926   0.512
 2778SOL    HW1 8342   4.182   1.927   0.570
 2778SOL    HW2 8343   4.266   2.009   0.457
 2779SOL     OW 8344   4.021   1.897   0.171
 2779SOL    HW1 8345   4.070   1.981   0.150
 2779SOL    HW2 8346   4.083   1.832   0.216
 2780SOL     OW 8347   4.183   3.014   0.741
 2780SOL    HW1 8348   4.112   2.987   0.806
 2780SOL    HW2 8349   4.157   2.986   0.648
 2781SOL     OW 8350   3.802   2.418   1.386
 2781SOL    HW1 8351   3.894   2.417   1.345
 2781SOL    HW2 8352   3.796   2.492   1.453
 2782SOL     OW 8353   4.285   2.084   1.147
 2782SOL    HW1 8354   4.323   2.000   1.184
 2782SOL    HW2 8355   4.197   2.103   1.191
 2783SOL     OW 8356   4.212   3.247   0.174
 2783SOL    HW1 8357   4.125   3.232   0.221
 2783SOL    HW2 8358   4.195   3.273   0.079
 2784SOL     OW 8359   4.251   2.118   0.328
 2784SOL    HW1 8360   4.278   2.059   0.253
 2784SOL    HW2 8361   4.251   2.213   0.297
 2785SOL     OW 8362   4.134   2.675   1.251
 2785SOL    HW1 8363   4.220   2.687   1.301
 2785SOL    HW2 8364   4.092   2.588   1.278
 2786SOL     OW 8365   3.788   3.426   1.331
 2786SOL    HW1 8366   3.742   3.508   1.297
 2786SOL    HW2 8367   3.886   3.445   1.340
 2787SOL     OW 8368   4.091   2.962   0.501
 2787SOL    HW1 8369   4.084   3.045   0.445
 2787SOL    HW2 8370   4.095   2.882   0.441
 2788SOL     OW 8371   4.290   2.399   0.865
 2788SOL    HW1 8372   4.302   2.465   0.791
 2788SOL    HW2 8373   4.336   2.433   0.948
 2789SOL     OW 8374   4.078   3.372   1.329
 2789SOL    HW1 8375   4.057   3.328   1.242
 2789SOL    HW2 8376   4.175   3.398   1.332
 2790SOL     OW 8377   4.126   2.613   1.598
 2790SOL    HW1 8378   4.194   2.668   1.551
 2790SOL    HW2 8379   4.166   2.525   1.625
 2791SOL     OW 8380   4.228   1.912   1.740
 2791SOL    HW1 8381   4.186   1.855   1.670
 2791SOL    HW2 8382   4.162   1.981   1.772
 2792SOL     OW 8383   4.297   2.732   1.029
 2792SOL    HW1 8384   4.341   2.821   1.020
 2792SOL    HW2 8385   4.234   2.732   1.106
 2793SOL     OW 8386   4.031   2.075   1.231
 2793SOL    HW1 8387   4.008   2.112   1.321
 2793SOL    HW2 8388   4.001   1.980   1.225
 2794SOL     OW 8389   3.761   3.172   1.282
 2794SOL    HW1 8390   3.814   3.123   1.350
 2794SOL    HW2 8391   3.783   3.270   1.287
 2795SOL     OW 8392   4.031   1.925   0.618
 2795SOL    HW1 8393   4.020   2.019   0.651
 2795SOL    HW2 8394   4.026   1.862   0.695
 2796SOL     OW 8395   4.074   2.760   1.804
 2796SOL    HW1 8396   4.150   2.804   1.852
 2796SOL    HW2 8397   4.109   2.713   1.722
 2797SOL     OW 8398   4.792   3.195   0.849
 2797SOL    HW1 8399   4.799   3.111   0.794
 2797SOL    HW2 8400   4.854   3.264   0.813
 2798SOL     OW 8401   4.043   2.672   0.949
 2798SOL    HW1 8402   4.136   2.708   0.954
 2798SOL    HW2 8403   4.037   2.587   1.001
 2799SOL     OW 8404   4.063   2.371   1.006
 2799SOL    HW1 8405   4.011   2.288   0.989
 2799SOL    HW2 8406   4.140   2.376   0.942
 2800SOL     OW 8407   3.732   3.188   0.200
 2800SOL    HW1 8408   3.639   3.209   0.169
 2800SOL    HW2 8409   3.742   3.089   0.213
 2801SOL     OW 8410   3.812   3.663   0.927
 2801SOL    HW1 8411   3.770   3.577   0.900
 2801SOL    HW2 8412   3.906   3.666   0.893
 2802SOL     OW 8413   4.228   3.430   0.910
 2802SOL    HW1 8414   4.294   3.504   0.919
 2802SOL    HW2 8415   4.272   3.351   0.868
 2803SOL     OW 8416   3.764   2.406   1.114
 2803SOL    HW1 8417   3.849   2.373   1.073
 2803SOL    HW2 8418   3.777   2.421   1.212
 2804SOL     OW 8419   3.913   2.382   1.722
 2804SOL    HW1 8420   3.972   2.342   1.652
 2804SOL    HW2 8421   3.855   2.453   1.681
 2805SOL     OW 8422   3.976   3.426   1.744
 2805SOL    HW1 8423   3.946   3.483   1.820
 2805SOL    HW2 8424   3.969   3.329   1.770
 2806SOL     OW 8425   4.395   2.326   1.269
 2806SOL    HW1 8426   4.361   2.237   1.239
 2806SOL    HW2 8427   4.421   2.380   1.189
 2807SOL     OW 8428   4.197   2.362   0.191
 2807SOL    HW1 8429   4.258   2.442   0.195
 2807SOL    HW2 8430   4.102   2.393   0.198
 2808SOL     OW 8431   3.883   2.999   1.466
 2808SOL    HW1 8432   3.905   2.938   1.542
 2808SOL    HW2 8433   3.893   2.950   1.380
 2809SOL     OW 8434   3.807   3.120   1.022
 2809SOL    HW1 8435   3.802   3.119   1.122
 2809SOL    HW2 8436   3.724   3.079   0.984
 2810SOL     OW 8437   4.412   3.524   1.716
 2810SOL    HW1 8438   4.356   3.605   1.725
 2810SOL    HW2 8439   4.464   3.528   1.630
 2811SOL     OW 8440   3.854   3.656   1.851
 2811SOL    HW1 8441   3.813   3.582   1.904
 2811SOL    HW2 8442   3.918   3.707   1.909
 2812SOL     OW 8443   3.987   2.188   0.720
 2812SOL    HW1 8444   3.908   2.239   0.686
 2812SOL    HW2 8445   3.978   2.173   0.818
 2813SOL     OW 8446   4.096   3.150   1.490
 2813SOL    HW1 8447   4.083   3.243   1.456
 2813SOL    HW2 8448   4.012   3.098   1.477
 2814SOL     OW 8449   4.763   2.960   0.696
 2814SOL    HW1 8450   4.693   2.913   0.750
 2814SOL    HW2 8451   4.822   2.892   0.653
 2815SOL     OW 8452   4.314   3.349   0.491
 2815SOL    HW1 8453   4.356   3.291   0.421
 2815SOL    HW2 8454   4.270   3.428   0.447
 2816SOL     OW 8455   3.979   3.210   0.290
 2816SOL    HW1 8456   3.883   3.211   0.263
 2816SOL    HW2 8457   3.991   3.263   0.374
 2817SOL     OW 8458   3.829   2.875   1.726
 2817SOL    HW1 8459   3.752   2.842   1.780
 2817SOL    HW2 8460   3.914   2.845   1.768
 2818SOL     OW 8461   4.396   2.065   1.489
 2818SOL    HW1 8462   4.486   2.049   1.449
 2818SOL    HW2 8463   4.404   2.070   1.588
 2819SOL     OW 8464   3.799   2.207   0.033
 2819SOL    HW1 8465   3.707   2.179   0.004
 2819SOL    HW2 8466   3.830   2.284  -0.023
 2820SOL     OW 8467   3.796   2.028   0.318
 2820SOL    HW1 8468   3.779   2.111   0.264
 2820SOL    HW2 8469   3.886   1.991   0.296
 2821SOL     OW 8470   4.337   2.704   1.431
 2821SOL    HW1 8471   4.393   2.785   1.414
 2821SOL    HW2 8472   4.396   2.624   1.434
 2822SOL     OW 8473   4.440   2.427   1.708
 2822SOL    HW1 8474   4.459   2.492   1.782
 2822SOL    HW2 8475   4.500   2.347   1.717
 2823SOL     OW 8476   4.114   3.603   1.560
 2823SOL    HW1 8477   4.023   3.644   1.558
 2823SOL    HW2 8478   4.107   3.509   1.592
 2824SOL     OW 8479   4.318   2.607   0.652
 2824SOL    HW1 8480   4.368   2.692   0.633
 2824SOL    HW2 8481   4.230   2.609   0.604
 2825SOL     OW 8482   3.945   3.176   1.844
 2825SOL    HW1 8483   3.880   3.103   1.823
 2825SOL    HW2 8484   3.949   3.190   1.942
 2826SOL     OW 8485   3.803   3.102   0.653
 2826SOL    HW1 8486   3.802   3.055   0.741
 2826SOL    HW2 8487   3.885   3.074   0.602
 2827SOL     OW 8488   4.396   3.253   1.624
 2827SOL    HW1 8489   4.318   3.203   1.662
 2827SOL    HW2 8490   4.393   3.348   1.655
 2828SOL     OW 8491   4.152   2.286   0.520
 2828SOL    HW1 8492   4.182   2.214   0.458
 2828SOL    HW2 8493   4.113   2.246   0.603
 2829SOL     OW 8494   4.041   2.409   1.280
 2829SOL    HW1 8495   4.079   2.350   1.352
 2829SOL    HW2 8496   4.081   2.383   1.192
 2830SOL     OW 8497   4.536   3.448   0.687
 2830SOL    HW1 8498   4.568   3.458   0.593
 2830SOL    HW2 8499   4.457   3.386   0.689
 2831SOL     OW 8500   4.342   3.429   1.284
 2831SOL    HW1 8501   4.337   3.511   1.341
 2831SOL    HW2 8502   4.431   3.426   1.239
 2832SOL     OW 8503   3.763   2.939   0.300
 2832SOL    HW1 8504   3.862   2.928   0.291
 2832SOL    HW2 8505   3.723   2.853   0.332
 2833SOL     OW 8506   3.954   2.490   1.975
 2833SOL    HW1 8507   3.861   2.488   2.012
 2833SOL    HW2 8508   3.955   2.451   1.883
 2834SOL     OW 8509   3.949   2.137   2.858
 2834SOL    HW1 8510   3.984   2.120   2.950
 2834SOL    HW2 8511   3.861   2.092   2.846
 2835SOL     OW 8512   3.743   2.230   2.509
 2835SOL    HW1 8513   3.661   2.273   2.548
 2835SOL    HW2 8514   3.715   2.157   2.446
 2836SOL     OW 8515   4.293   3.137   3.027
 2836SOL    HW1 8516   4.200   3.130   2.990
 2836SOL    HW2 8517   4.304   3.226   3.071
 2837SOL     OW 8518   4.574   2.660   3.685
 2837SOL    HW1 8519   4.570   2.736   3.750
 2837SOL    HW2 8520   4.596   2.696   3.594
 2838SOL     OW 8521   4.409   2.874   2.527
 2838SOL    HW1 8522   4.478   2.858   2.597
 2838SOL    HW2 8523   4.336   2.931   2.565
 2839SOL     OW 8524   4.410   3.023   3.665
 2839SOL    HW1 8525   4.470   3.102   3.679
 2839SOL    HW2 8526   4.324   3.054   3.624
 2840SOL     OW 8527   4.059   3.297   2.923
 2840SOL    HW1 8528   3.981   3.266   2.870
 2840SOL    HW2 8529   4.117   3.355   2.866
 2841SOL     OW 8530   4.162   2.254   3.361
 2841SOL    HW1 8531   4.244   2.198   3.370
 2841SOL    HW2 8532   4.081   2.196   3.365
 2842SOL     OW 8533   3.955   3.575   2.345
 2842SOL    HW1 8534   3.989   3.652   2.399
 2842SOL    HW2 8535   3.999   3.575   2.255
 2843SOL     OW 8536   3.954   3.296   2.400
 2843SOL    HW1 8537   3.928   3.392   2.400
 2843SOL    HW2 8538   3.883   3.242   2.445
 2844SOL     OW 8539   3.964   2.953   2.748
 2844SOL    HW1 8540   3.978   2.869   2.800
 2844SOL    HW2 8541   3.909   3.017   2.803
 2845SOL     OW 8542   4.344   3.648   3.301
 2845SOL    HW1 8543   4.252   3.631   3.336
 2845SOL    HW2 8544   4.372   3.740   3.327
 2846SOL     OW 8545   4.330   2.826   1.985
 2846SOL    HW1 8546   4.337   2.910   1.931
 2846SOL    HW2 8547   4.376   2.839   2.073
 2847SOL     OW 8548   3.846   2.505   2.425
 2847SOL    HW1 8549   3.801   2.417   2.442
 2847SOL    HW2 8550   3.845   2.559   2.509
 2848SOL     OW 8551   3.751   3.458   1.979
 2848SOL    HW1 8552   3.732   3.362   2.000
 2848SOL    HW2 8553   3.718   3.516   2.054
 2849SOL     OW 8554   3.837   2.599   3.459
 2849SOL    HW1 8555   3.925   2.586   3.504
 2849SOL    HW2 8556   3.824   2.696   3.437
 2850SOL     OW 8557   4.337   3.227   2.588
 2850SOL    HW1 8558   4.288   3.140   2.597
 2850SOL    HW2 8559   4.314   3.270   2.501
 2851SOL     OW 8560   4.533   1.866   2.364
 2851SOL    HW1 8561   4.573   1.957   2.355
 2851SOL    HW2 8562   4.433   1.874   2.370
 2852SOL     OW 8563   3.921   2.838   3.126
 2852SOL    HW1 8564   4.010   2.793   3.112
 2852SOL    HW2 8565   3.848   2.773   3.107
 2853SOL     OW 8566   4.041   2.113   3.663
 2853SOL    HW1 8567   4.112   2.184   3.669
 2853SOL    HW2 8568   3.953   2.152   3.691
 2854SOL     OW 8569   4.322   2.591   2.132
 2854SOL    HW1 8570   4.346   2.660   2.064
 2854SOL    HW2 8571   4.244   2.624   2.186
 2855SOL     OW 8572   3.800   2.673   2.651
 2855SOL    HW1 8573   3.899   2.661   2.660
 2855SOL    HW2 8574   3.776   2.768   2.672
 2856SOL     OW 8575   3.854   3.683   3.433
 2856SOL    HW1 8576   3.844   3.668   3.532
 2856SOL    HW2 8577   3.768   3.719   3.397
 2857SOL     OW 8578   4.274   2.058   2.747
 2857SOL    HW1 8579   4.269   2.053   2.847
 2857SOL    HW2 8580   4.276   2.154   2.718
 2858SOL     OW 8581   4.075   3.663   2.715
 2858SOL    HW1 8582   4.125   3.577   2.721
 2858SOL    HW2 8583   4.140   3.740   2.712
 2859SOL     OW 8584   4.045   2.805   2.104
 2859SOL    HW1 8585   4.127   2.844   2.062
 2859SOL    HW2 8586   4.018   2.723   2.055
 2860SOL     OW 8587   4.185   3.128   3.589
 2860SOL    HW1 8588   4.135   3.129   3.503
 2860SOL    HW2 8589   4.122   3.110   3.665
 2861SOL     OW 8590   3.926   2.147   3.360
 2861SOL    HW1 8591   3.846   2.207   3.347
 2861SOL    HW2 8592   3.916   2.098   3.446
 2862SOL     OW 8593   4.188   3.605   2.185
 2862SOL    HW1 8594   4.221   3.644   2.271
 2862SOL    HW2 8595   4.264   3.598   2.120
 2863SOL     OW 8596   3.973   3.647   3.103
 2863SOL    HW1 8597   4.030   3.582   3.153
 2863SOL    HW2 8598   3.957   3.614   3.010
 2864SOL     OW 8599   4.106   2.562   2.342
 2864SOL    HW1 8600   4.151   2.472   2.339
 2864SOL    HW2 8601   4.012   2.551   2.375
 2865SOL     OW 8602   4.338   1.984   1.979
 2865SOL    HW1 8603   4.436   1.962   1.986
 2865SOL    HW2 8604   4.307   1.967   1.886
 2866SOL     OW 8605   4.527   3.264   2.786
 2866SOL    HW1 8606   4.617   3.278   2.744
 2866SOL    HW2 8607   4.456   3.266   2.715
 2867SOL     OW 8608   4.646   2.365   2.761
 2867SOL    HW1 8609   4.621   2.356   2.665
 2867SOL    HW2 8610   4.694   2.283   2.792
 2868SOL     OW 8611   4.263   1.926   2.374
 2868SOL    HW1 8612   4.182   1.927   2.432
 2868SOL    HW2 8613   4.266   2.009   2.319
 2869SOL     OW 8614   4.021   1.897   2.033
 2869SOL    HW1 8615   4.070   1.981   2.012
 2869SOL    HW2 8616   4.083   1.832   2.078
 2870SOL     OW 8617   4.183   3.014   2.603
 2870SOL    HW1 8618   4.112   2.987   2.668
 2870SOL    HW2 8619   4.157   2.986   2.510
 2871SOL     OW 8620   3.802   2.418   3.248
 2871SOL    HW1 8621   3.894   2.417   3.207
 2871SOL    HW2 8622   3.796   2.492   3.315
 2872SOL     OW 8623   4.285   2.084   3.009
 2872SOL    HW1 8624   4.323   2.000   3.046
 2872SOL    HW2 8625   4.197   2.103   3.053
 2873SOL     OW 8626   4.212   3.247   2.036
 2873SOL    HW1 8627   4.125   3.232   2.083
 2873SOL    HW2 8628   4.195   3.273   1.941
 2874SOL     OW 8629   4.251   2.118   2.190
 2874SOL    HW1 8630   4.278   2.059   2.115
 2874SOL    HW2 8631   4.251   2.213   2.159
 2875SOL     OW 8632   4.134   2.675   3.113
 2875SOL    HW1 8633   4.220   2.687   3.163
 2875SOL    HW2 8634   4.092   2.588   3.140
 2876SOL     OW 8635   3.788   3.426   3.193
 2876SOL    HW1 8636   3.742   3.508   3.159
 2876SOL    HW2 8637   3.886   3.445   3.202
 2877SOL     OW 8638   4.091   2.962   2.363
 2877SOL    HW1 8639   4.084   3.045   2.307
 2877SOL    HW2 8640   4.095   2.882   2.303
 2878SOL     OW 8641   4.290   2.399   2.727
 2878SOL    HW1 8642   4.302   2.465   2.653
 2878SOL    HW2 8643   4.336   2.433   2.810
 2879SOL     OW 8644   4.078   3.372   3.191
 2879SOL    HW1 8645   4.057   3.328   3.104
 2879SOL    HW2 8646   4.175   3.398   3.194
 2880SOL     OW 8647   4.126   2.613   3.460
 2880SOL    HW1 8648   4.194   2.668   3.413
 2880SOL    HW2 8649   4.166   2.525   3.487
 2881SOL     OW 8650   4.228   1.912   3.602
 2881SOL    HW1 8651   4.186   1.855   3.532
 2881SOL    HW2 8652   4.162   1.981   3.634
 2882SOL     OW 8653   4.297   2.732   2.891
 2882SOL    HW1 8654   4.341   2.821   2.882
 2882SOL    HW2 8655   4.234   2.732   2.968
 2883SOL     OW 8656   4.031   2.075   3.093
 2883SOL    HW1 8657   4.008   2.112   3.183
 2883SOL    HW2 8658   4.001   1.980   3.087
 2884SOL     OW 8659   3.761   3.172   3.144
 2884SOL    HW1 8660   3.814   3.123   3.212
 2884SOL    HW2 8661   3.783   3.270   3.149
 2885SOL     OW 8662   4.031   1.925   2.480
 2885SOL    HW1 8663   4.020   2.019   2.513
 2885SOL    HW2 8664   4.026   1.862   2.557
 2886SOL     OW 8665   4.074   2.760   3.666
 2886SOL    HW1 8666   4.150   2.804   3.714
 2886SOL    HW2 8667   4.109   2.713   3.584
 2887SOL     OW 8668   4.792   3.195   2.711
 2887SOL    HW1 8669   4.799   3.111   2.656
 2887SOL    HW2 8670   4.854   3.264   2.675
 2888SOL     OW 8671   4.043   2.672   2.811
 2888SOL    HW1 8672   4.136   2.708   2.816
 2888SOL    HW2 8673   4.037   2.587   2.863
 2889SOL     OW 8674   4.063   2.371   2.868
 2889SOL    HW1 8675   4.011   2.288   2.851
 2889SOL    HW2 8676   4.140   2.376   2.804
 2890SOL     OW 8677   3.732   3.188   2.062
 2890SOL    HW1 8678   3.639   3.209   2.031
 2890SOL    HW2 8679   3.742   3.089   2.075
 2891SOL     OW 8680   3.812   3.663   2.789
 2891SOL    HW1 8681   3.770   3.577   2.762
 2891SOL    HW2 8682   3.906   3.666   2.755
 2892SOL     OW 8683   4.228   3.430   2.772
 2892SOL    HW1 8684   4.294   3.504   2.781
 2892SOL    HW2 8685   4.272   3.351   2.730
 2893SOL     OW 8686   3.764   2.406   2.976
 2893SOL    HW1 8687   3.849   2.373   2.935
 2893SOL    HW2 8688   3.777   2.421   3.074
 2894SOL     OW 8689   3.913   2.382   3.584
 2894SOL    HW1 8690   3.972   2.342   3.514
 2894SOL    HW2 8691   3.855   2.453   3.543
 2895SOL     OW 8692   4.539   2.434   2.187
 2895SOL    HW1 8693   4.546   2.345   2.141
 2895SOL    HW2 8694   4.445   2.468   2.179
 2896SOL     OW 8695   3.976   3.426   3.606
 2896SOL    HW1 8696   3.946   3.483   3.682
 2896SOL    HW2 8697   3.969   3.329   3.632
 2897SOL     OW 8698   4.395   2.326   3.131
 2897SOL    HW1 8699   4.361   2.237   3.101
 2897SOL    HW2 8700   4.421   2.380   3.051
 2898SOL     OW 8701   4.197   2.362   2.053
 2898SOL    HW1 8702   4.258   2.442   2.057
 2898SOL    HW2 8703   4.102   2.393   2.060
 2899SOL     OW 8704   3.883   2.999   3.328
 2899SOL    HW1 8705   3.905   2.938   3.404
 2899SOL    HW2 8706   3.893   2.950   3.242
 2900SOL     OW 8707   3.807   3.120   2.884
 2900SOL    HW1 8708   3.802   3.119   2.984
 2900SOL    HW2 8709   3.724   3.079   2.846
 2901SOL     OW 8710   4.412   3.524   3.578
 2901SOL    HW1 8711   4.356   3.605   3.587
 2901SOL    HW2 8712   4.464   3.528   3.492
 2902SOL     OW 8713   3.854   3.656   3.713
 2902SOL    HW1 8714   3.813   3.582   3.766
 2902SOL    HW2 8715   3.918   3.707   3.771
 2903SOL     OW 8716   3.987   2.188   2.582
 2903SOL    HW1 8717   3.908   2.239   2.548
 2903SOL    HW2 8718   3.978   2.173   2.680
 2904SOL     OW 8719   4.096   3.150   3.352
 2904SOL    HW1 8720   4.083   3.243   3.318
 2904SOL    HW2 8721   4.012   3.098   3.339
 2905SOL     OW 8722   4.763   2.960   2.558
 2905SOL    HW1 8723   4.693   2.913   2.612
 2905SOL    HW2 8724   4.822   2.892   2.515
 2906SOL     OW 8725   4.314   3.349   2.353
 2906SOL    HW1 8726   4.356   3.291   2.283
 2906SOL    HW2 8727   4.270   3.428   2.309
 2907SOL     OW 8728   3.979   3.210   2.152
 2907SOL    HW1 8729   3.883   3.211   2.125
 2907SOL    HW2 8730   3.991   3.263   2.236
 2908SOL     OW 8731   3.829   2.875   3.588
 2908SOL    HW1 8732   3.752   2.842   3.642
 2908SOL    HW2 8733   3.914   2.845   3.630
 2909SOL     OW 8734   4.396   2.065   3.351
 2909SOL    HW1 8735   4.486   2.049   3.311
 2909SOL    HW2 8736   4.404   2.070   3.450
 2910SOL     OW 8737   3.799   2.207   1.895
 2910SOL    HW1 8738   3.707   2.179   1.866
 2910SOL    HW2 8739   3.830   2.284   1.839
 2911SOL     OW 8740   3.796   2.028   2.180
 2911SOL    HW1 8741   3.779   2.111   2.126
 2911SOL    HW2 8742   3.886   1.991   2.158
 2912SOL     OW 8743   4.337   2.704   3.293
 2912SOL    HW1 8744   4.393   2.785   3.276
 2912SOL    HW2 8745   4.396   2.624   3.296
 2913SOL     OW 8746   4.440   2.427   3.570
 2913SOL    HW1 8747   4.459   2.492   3.644
 2913SOL    HW2 8748   4.500   2.347   3.579
 2914SOL     OW 8749   4.114   3.603   3.422
 2914SOL    HW1 8750   4.023   3.644   3.420
 2914SOL    HW2 8751   4.107   3.509   3.454
 2915SOL     OW 8752   4.318   2.607   2.514
 2915SOL    HW1 8753   4.368   2.692   2.495
 2915SOL    HW2 8754   4.230   2.609   2.466
 2916SOL     OW 8755   3.945   3.176   3.706
 2916SOL    HW1 8756   3.880   3.103   3.685
 2916SOL    HW2 8757   3.949   3.190   3.804
 2917SOL     OW 8758   3.803   3.102   2.515
 2917SOL    HW1 8759   3.802   3.055   2.603
 2917SOL    HW2 8760   3.885   3.074   2.464
 2918SOL     OW 8761   4.396   3.253   3.486
 2918SOL    HW1 8762   4.318   3.203   3.524
 2918SOL    HW2 8763   4.393   3.348   3.517
 2919SOL     OW 8764   4.152   2.286   2.382
 2919SOL    HW1 8765   4.182   2.214   2.320
 2919SOL    HW2 8766   4.113   2.246   2.465
 2920SOL     OW 8767   4.041   2.409   3.142
 2920SOL    HW1 8768   4.079   2.350   3.214
 2920SOL    HW2 8769   4.081   2.383   3.054
 2921SOL     OW 8770   4.536   3.448   2.549
 2921SOL    HW1 8771   4.568   3.458   2.455
 2921SOL    HW2 8772   4.457   3.386   2.551
 2922SOL     OW 8773   4.342   3.429   3.146
 2922SOL    HW1 8774   4.337   3.511   3.203
 2922SOL    HW2 8775   4.431   3.426   3.101
 2923SOL     OW 8776   3.763   2.939   2.162
 2923SOL    HW1 8777   3.862   2.928   2.153
 2923SOL    HW2 8778   3.723   2.853   2.194
 2924SOL     OW 8779   3.954   2.490   3.837
 2924SOL    HW1 8780   3.861   2.488   3.874
 2924SOL    HW2 8781   3.955   2.451   3.745
 2925SOL     OW 8782   3.743   2.230   4.371
 2925SOL    HW1 8783   3.661   2.273   4.410
 2925SOL    HW2 8784   3.715   2.157   4.308
 2926SOL     OW 8785   4.409   2.874   4.389
 2926SOL    HW1 8786   4.478   2.858   4.459
 2926SOL    HW2 8787   4.336   2.931   4.427
 2927SOL     OW 8788   3.955   3.575   4.207
 2927SOL    HW1 8789   3.989   3.652   4.261
 2927SOL    HW2 8790   3.999   3.575   4.117
 2928SOL     OW 8791   3.954   3.296   4.262
 2928SOL    HW1 8792   3.928   3.392   4.262
 2928SOL    HW2 8793   3.883   3.242   4.307
 2929SOL     OW 8794   4.330   2.826   3.847
 2929SOL    HW1 8795   4.337   2.910   3.793
 2929SOL    HW2 8796   4.376   2.839   3.935
 2930SOL     OW 8797   3.846   2.505   4.287
 2930SOL    HW1 8798   3.801   2.417   4.304
 2930SOL    HW2 8799   3.845   2.559   4.371
 2931SOL     OW 8800   3.751   3.458   3.841
 2931SOL    HW1 8801   3.732   3.362   3.862
 2931SOL    HW2 8802   3.718   3.516   3.916
 2932SOL     OW 8803   4.337   3.227   4.450
 2932SOL    HW1 8804   4.288   3.140   4.459
 2932SOL    HW2 8805   4.314   3.270   4.363
 2933SOL     OW 8806   4.533   1.866   4.226
 2933SOL    HW1 8807   4.573   1.957   4.217
 2933SOL    HW2 8808   4.433   1.874   4.232
 2934SOL     OW 8809   4.322   2.591   3.994
 2934SOL    HW1 8810   4.346   2.660   3.926
 2934SOL    HW2 8811   4.244   2.624   4.048
 2935SOL     OW 8812   3.800   2.673   4.513
 2935SOL    HW1 8813   3.899   2.661   4.522
 2935SOL    HW2 8814   3.776   2.768   4.534
 2936SOL     OW 8815   4.075   3.663   4.577
 2936SOL    HW1 8816   4.125   3.577   4.583
 2936SOL    HW2 8817   4.140   3.740   4.574
 2937SOL     OW 8818   4.045   2.805   3.966
 2937SOL    HW1 8819   4.127   2.844   3.924
 2937SOL    HW2 8820   4.018   2.723   3.917
 2938SOL     OW 8821   4.188   3.605   4.047
 2938SOL    HW1 8822   4.221   3.644   4.133
 2938SOL    HW2 8823   4.264   3.598   3.982
 2939SOL     OW 8824   4.106   2.562   4.204
 2939SOL    HW1 8825   4.151   2.472   4.201
 2939SOL    HW2 8826   4.012   2.551   4.237
 2940SOL     OW 8827   4.338   1.984   3.841
 2940SOL    HW1 8828   4.436   1.962   3.848
 2940SOL    HW2 8829   4.307   1.967   3.748
 2941SOL     OW 8830   4.263   1.926   4.236
 2941SOL    HW1 8831   4.182   1.927   4.294
 2941SOL    HW2 8832   4.266   2.009   4.181
 2942SOL     OW 8833   4.021   1.897   3.895
 2942SOL    HW1 8834   4.070   1.981   3.874
 2942SOL    HW2 8835   4.083   1.832   3.940
 2943SOL     OW 8836   4.183   3.014   4.465
 2943SOL    HW1 8837   4.112   2.987   4.530
 2943SOL    HW2 8838   4.157   2.986   4.372
 2944SOL     OW 8839   4.212   3.247   3.898
 2944SOL    HW1 8840   4.125   3.232   3.945
 2944SOL    HW2 8841   4.195   3.273   3.803
 2945SOL     OW 8842   4.251   2.118   4.052
 2945SOL    HW1 8843   4.278   2.059   3.977
 2945SOL    HW2 8844   4.251   2.213   4.021
 2946SOL     OW 8845   4.091   2.962   4.225
 2946SOL    HW1 8846   4.084   3.045   4.169
 2946SOL    HW2 8847   4.095   2.882   4.165
 2947SOL     OW 8848   4.031   1.925   4.342
 2947SOL    HW1 8849   4.020   2.019   4.375
 2947SOL    HW2 8850   4.026   1.862   4.419
 2948SOL     OW 8851   4.792   3.195   4.573
 2948SOL    HW1 8852   4.799   3.111   4.518
 2948SOL    HW2 8853   4.854   3.264   4.537
 2949SOL     OW 8854   3.732   3.188   3.924
 2949SOL    HW1 8855   3.639   3.209   3.893
 2949SOL    HW2 8856   3.742   3.089   3.937
 2950SOL     OW 8857   3.764   2.406   4.838
 2950SOL    HW1 8858   3.849   2.373   4.797
 2950SOL    HW2 8859   3.777   2.421   4.936
 2951SOL     OW 8860   4.539   2.434   4.049
 2951SOL    HW1 8861   4.546   2.345   4.003
 2951SOL    HW2 8862   4.445   2.468   4.041
 2952SOL     OW 8863   4.197   2.362   3.915
 2952SOL    HW1 8864   4.258   2.442   3.919
 2952SOL    HW2 8865   4.102   2.393   3.922
 2953SOL     OW 8866   3.987   2.188   4.444
 2953SOL    HW1 8867   3.908   2.239   4.410
 2953SOL    HW2 8868   3.978   2.173   4.542
 2954SOL     OW 8869   4.763   2.960   4.420
 2954SOL    HW1 8870   4.693   2.913   4.474
 2954SOL    HW2 8871   4.822   2.892   4.377
 2955SOL     OW 8872   4.314   3.349   4.215
 2955SOL    HW1 8873   4.356   3.291   4.145
 2955SOL    HW2 8874   4.270   3.428   4.171
 2956SOL     OW 8875   3.979   3.210   4.014
 2956SOL    HW1 8876   3.883   3.211   3.987
 2956SOL    HW2 8877   3.991   3.263   4.098
 2957SOL     OW 8878   3.799   2.207   3.757
 2957SOL    HW1 8879   3.707   2.179   3.728
 2957SOL    HW2 8880   3.830   2.284   3.701
 2958SOL     OW 8881   3.796   2.028   4.042
 2958SOL    HW1 8882   3.779   2.111   3.988
 2958SOL    HW2 8883   3.886   1.991   4.020
 2959SOL     OW 8884   4.318   2.607   4.376
 2959SOL    HW1 8885   4.368   2.692   4.357
 2959SOL    HW2 8886   4.230   2.609   4.328
 2960SOL     OW 8887   4.385   3.652   4.677
 2960SOL    HW1 8888   4.339   3.740   4.664
 2960SOL    HW2 8889   4.484   3.664   4.670
 2961SOL     OW 8890   3.803   3.102   4.377
 2961SOL    HW1 8891   3.802   3.055   4.465
 2961SOL    HW2 8892   3.885   3.074   4.326
 2962SOL     OW 8893   4.152   2.286   4.244
 2962SOL    HW1 8894   4.182   2.214   4.182
 2962SOL    HW2 8895   4.113   2.246   4.327
 2963SOL     OW 8896   4.536   3.448   4.411
 2963SOL    HW1 8897   4.568   3.458   4.317
 2963SOL    HW2 8898   4.457   3.386   4.413
 2964SOL     OW 8899   3.763   2.939   4.024
 2964SOL    HW1 8900   3.862   2.928   4.015
 2964SOL    HW2 8901   3.723   2.853   4.056
 2965SOL     OW 8902   3.954   4.352   0.113
 2965SOL    HW1 8903   3.861   4.350   0.150
 2965SOL    HW2 8904   3.955   4.313   0.021
 2966SOL     OW 8905   3.949   3.999   0.996
 2966SOL    HW1 8906   3.984   3.982   1.088
 2966SOL    HW2 8907   3.861   3.954   0.984
 2967SOL     OW 8908   3.743   4.092   0.647
 2967SOL    HW1 8909   3.661   4.135   0.686
 2967SOL    HW2 8910   3.715   4.019   0.584
 2968SOL     OW 8911   4.574   4.522   1.823
 2968SOL    HW1 8912   4.570   4.598   1.888
 2968SOL    HW2 8913   4.596   4.558   1.732
 2969SOL     OW 8914   4.409   4.736   0.665
 2969SOL    HW1 8915   4.478   4.720   0.735
 2969SOL    HW2 8916   4.336   4.793   0.703
 2970SOL     OW 8917   4.162   4.116   1.499
 2970SOL    HW1 8918   4.244   4.060   1.508
 2970SOL    HW2 8919   4.081   4.058   1.503
 2971SOL     OW 8920   3.846   4.367   0.563
 2971SOL    HW1 8921   3.801   4.279   0.580
 2971SOL    HW2 8922   3.845   4.421   0.647
 2972SOL     OW 8923   3.837   4.461   1.597
 2972SOL    HW1 8924   3.925   4.448   1.642
 2972SOL    HW2 8925   3.824   4.558   1.575
 2973SOL     OW 8926   4.533   3.728   0.502
 2973SOL    HW1 8927   4.573   3.819   0.493
 2973SOL    HW2 8928   4.433   3.736   0.508
 2974SOL     OW 8929   4.041   3.975   1.801
 2974SOL    HW1 8930   4.112   4.046   1.807
 2974SOL    HW2 8931   3.953   4.014   1.829
 2975SOL     OW 8932   4.322   4.453   0.270
 2975SOL    HW1 8933   4.346   4.522   0.202
 2975SOL    HW2 8934   4.244   4.486   0.324
 2976SOL     OW 8935   4.274   3.920   0.885
 2976SOL    HW1 8936   4.269   3.915   0.985
 2976SOL    HW2 8937   4.276   4.016   0.856
 2977SOL     OW 8938   3.926   4.009   1.498
 2977SOL    HW1 8939   3.846   4.069   1.485
 2977SOL    HW2 8940   3.916   3.960   1.584
 2978SOL     OW 8941   4.106   4.424   0.480
 2978SOL    HW1 8942   4.151   4.334   0.477
 2978SOL    HW2 8943   4.012   4.413   0.513
 2979SOL     OW 8944   4.646   4.227   0.899
 2979SOL    HW1 8945   4.621   4.218   0.803
 2979SOL    HW2 8946   4.694   4.145   0.930
 2980SOL     OW 8947   4.263   3.788   0.512
 2980SOL    HW1 8948   4.182   3.789   0.570
 2980SOL    HW2 8949   4.266   3.871   0.457
 2981SOL     OW 8950   4.021   3.759   0.171
 2981SOL    HW1 8951   4.070   3.843   0.150
 2981SOL    HW2 8952   4.083   3.694   0.216
 2982SOL     OW 8953   3.802   4.280   1.386
 2982SOL    HW1 8954   3.894   4.279   1.345
 2982SOL    HW2 8955   3.796   4.354   1.453
 2983SOL     OW 8956   4.285   3.946   1.147
 2983SOL    HW1 8957   4.323   3.862   1.184
 2983SOL    HW2 8958   4.197   3.965   1.191
 2984SOL     OW 8959   4.251   3.980   0.328
 2984SOL    HW1 8960   4.278   3.921   0.253
 2984SOL    HW2 8961   4.251   4.075   0.297
 2985SOL     OW 8962   4.134   4.537   1.251
 2985SOL    HW1 8963   4.220   4.549   1.301
 2985SOL    HW2 8964   4.092   4.450   1.278
 2986SOL     OW 8965   4.290   4.261   0.865
 2986SOL    HW1 8966   4.302   4.327   0.791
 2986SOL    HW2 8967   4.336   4.295   0.948
 2987SOL     OW 8968   4.228   3.774   1.740
 2987SOL    HW1 8969   4.186   3.717   1.670
 2987SOL    HW2 8970   4.162   3.843   1.772
 2988SOL     OW 8971   4.031   3.937   1.231
 2988SOL    HW1 8972   4.008   3.974   1.321
 2988SOL    HW2 8973   4.001   3.842   1.225
 2989SOL     OW 8974   4.031   3.787   0.618
 2989SOL    HW1 8975   4.020   3.881   0.651
 2989SOL    HW2 8976   4.026   3.724   0.695
 2990SOL     OW 8977   4.043   4.534   0.949
 2990SOL    HW1 8978   4.136   4.570   0.954
 2990SOL    HW2 8979   4.037   4.449   1.001
 2991SOL     OW 8980   4.063   4.233   1.006
 2991SOL    HW1 8981   4.011   4.150   0.989
 2991SOL    HW2 8982   4.140   4.238   0.942
 2992SOL     OW 8983   4.726   4.520   1.238
 2992SOL    HW1 8984   4.767   4.488   1.324
 2992SOL    HW2 8985   4.630   4.493   1.235
 2993SOL     OW 8986   3.764   4.268   1.114
 2993SOL    HW1 8987   3.849   4.235   1.073
 2993SOL    HW2 8988   3.777   4.283   1.212
 2994SOL     OW 8989   3.913   4.244   1.722
 2994SOL    HW1 8990   3.972   4.204   1.652
 2994SOL    HW2 8991   3.855   4.315   1.681
 2995SOL     OW 8992   4.395   4.188   1.269
 2995SOL    HW1 8993   4.361   4.099   1.239
 2995SOL    HW2 8994   4.421   4.242   1.189
 2996SOL     OW 8995   4.197   4.224   0.191
 2996SOL    HW1 8996   4.258   4.304   0.195
 2996SOL    HW2 8997   4.102   4.255   0.198
 2997SOL     OW 8998   3.987   4.050   0.720
 2997SOL    HW1 8999   3.908   4.101   0.686
 2997SOL    HW2 9000   3.978   4.035   0.818
 2998SOL     OW 9001   3.829   4.737   1.726
 2998SOL    HW1 9002   3.752   4.704   1.780
 2998SOL    HW2 9003   3.914   4.707   1.768
 2999SOL     OW 9004   4.396   3.927   1.489
 2999SOL    HW1 9005   4.486   3.911   1.449
 2999SOL    HW2 9006   4.404   3.932   1.588
 3000SOL     OW 9007   3.799   4.069   0.033
 3000SOL    HW1 9008   3.707   4.041   0.004
 3000SOL    HW2 9009   3.830   4.146  -0.023
 3001SOL     OW 9010   3.796   3.890   0.318
 3001SOL    HW1 9011   3.779   3.973   0.264
 3001SOL    HW2 9012   3.886   3.853   0.296
 3002SOL     OW 9013   4.440   4.289   1.708
 3002SOL    HW1 9014   4.459   4.354   1.782
 3002SOL    HW2 9015   4.500   4.209   1.717
 3003SOL     OW 9016   4.318   4.469   0.652
 3003SOL    HW1 9017   4.368   4.554   0.633
 3003SOL    HW2 9018   4.230   4.471   0.604
 3004SOL     OW 9019   4.152   4.148   0.520
 3004SOL    HW1 9020   4.182   4.076   0.458
 3004SOL    HW2 9021   4.113   4.108   0.603
 3005SOL     OW 9022   4.041   4.271   1.280
 3005SOL    HW1 9023   4.079   4.212   1.352
 3005SOL    HW2 9024   4.081   4.245   1.192
 3006SOL     OW 9025   3.954   4.352   1.975
 3006SOL    HW1 9026   3.861   4.350   2.012
 3006SOL    HW2 9027   3.955   4.313   1.883
 3007SOL     OW 9028   3.949   3.999   2.858
 3007SOL    HW1 9029   3.984   3.982   2.950
 3007SOL    HW2 9030   3.861   3.954   2.846
 3008SOL     OW 9031   3.743   4.092   2.509
 3008SOL    HW1 9032   3.661   4.135   2.548
 3008SOL    HW2 9033   3.715   4.019   2.446
 3009SOL     OW 9034   4.574   4.522   3.685
 3009SOL    HW1 9035   4.570   4.598   3.750
 3009SOL    HW2 9036   4.596   4.558   3.594
 3010SOL     OW 9037   4.409   4.736   2.527
 3010SOL    HW1 9038   4.478   4.720   2.597
 3010SOL    HW2 9039   4.336   4.793   2.565
 3011SOL     OW 9040   4.162   4.116   3.361
 3011SOL    HW1 9041   4.244   4.060   3.370
 3011SOL    HW2 9042   4.081   4.058   3.365
 3012SOL     OW 9043   3.846   4.367   2.425
 3012SOL    HW1 9044   3.801   4.279   2.442
 3012SOL    HW2 9045   3.845   4.421   2.509
 3013SOL     OW 9046   3.837   4.461   3.459
 3013SOL    HW1 9047   3.925   4.448   3.504
 3013SOL    HW2 9048   3.824   4.558   3.437
 3014SOL     OW 9049   4.533   3.728   2.364
 3014SOL    HW1 9050   4.573   3.819   2.355
 3014SOL    HW2 9051   4.433   3.736   2.370
 3015SOL     OW 9052   4.041   3.975   3.663
 3015SOL    HW1 9053   4.112   4.046   3.669
 3015SOL    HW2 9054   3.953   4.014   3.691
 3016SOL     OW 9055   4.322   4.453   2.132
 3016SOL    HW1 9056   4.346   4.522   2.064
 3016SOL    HW2 9057   4.244   4.486   2.186
 3017SOL     OW 9058   4.274   3.920   2.747
 3017SOL    HW1 9059   4.269   3.915   2.847
 3017SOL    HW2 9060   4.276   4.016   2.718
 3018SOL     OW 9061   3.926   4.009   3.360
 3018SOL    HW1 9062   3.846   4.069   3.347
 3018SOL    HW2 9063   3.916   3.960   3.446
 3019SOL     OW 9064   4.106   4.424   2.342
 3019SOL    HW1 9065   4.151   4.334   2.339
 3019SOL    HW2 9066   4.012   4.413   2.375
 3020SOL     OW 9067   4.338   3.846   1.979
 3020SOL    HW1 9068   4.436   3.824   1.986
 3020SOL    HW2 9069   4.307   3.829   1.886
 3021SOL     OW 9070   4.646   4.227   2.761
 3021SOL    HW1 9071   4.621   4.218   2.665
 3021SOL    HW2 9072   4.694   4.145   2.792
 3022SOL     OW 9073   4.263   3.788   2.374
 3022SOL    HW1 9074   4.182   3.789   2.432
 3022SOL    HW2 9075   4.266   3.871   2.319
 3023SOL     OW 9076   4.021   3.759   2.033
 3023SOL    HW1 9077   4.070   3.843   2.012
 3023SOL    HW2 9078   4.083   3.694   2.078
 3024SOL     OW 9079   3.802   4.280   3.248
 3024SOL    HW1 9080   3.894   4.279   3.207
 3024SOL    HW2 9081   3.796   4.354   3.315
 3025SOL     OW 9082   4.285   3.946   3.009
 3025SOL    HW1 9083   4.323   3.862   3.046
 3025SOL    HW2 9084   4.197   3.965   3.053
 3026SOL     OW 9085   4.251   3.980   2.190
 3026SOL    HW1 9086   4.278   3.921   2.115
 3026SOL    HW2 9087   4.251   4.075   2.159
 3027SOL     OW 9088   4.134   4.537   3.113
 3027SOL    HW1 9089   4.220   4.549   3.163
 3027SOL    HW2 9090   4.092   4.450   3.140
 3028SOL     OW 9091   4.290   4.261   2.727
 3028SOL    HW1 9092   4.302   4.327   2.653
 3028SOL    HW2 9093   4.336   4.295   2.810
 3029SOL     OW 9094   4.228   3.774   3.602
 3029SOL    HW1 9095   4.186   3.717   3.532
 3029SOL    HW2 9096   4.162   3.843   3.634
 3030SOL     OW 9097   4.031   3.937   3.093
 3030SOL    HW1 9098   4.008   3.974   3.183
 3030SOL    HW2 9099   4.001   3.842   3.087
 3031SOL     OW 9100   4.031   3.787   2.480
 3031SOL    HW1 9101   4.020   3.881   2.513
 3031SOL    HW2 9102   4.026   3.724   2.557
 3032SOL     OW 9103   4.043   4.534   2.811
 3032SOL    HW1 9104   4.136   4.570   2.816
 3032SOL    HW2 9105   4.037   4.449   2.863
 3033SOL     OW 9106   4.063   4.233   2.868
 3033SOL    HW1 9107   4.011   4.150   2.851
 3033SOL    HW2 9108   4.140   4.238   2.804
 3034SOL     OW 9109   4.726   4.520   3.100
 3034SOL    HW1 9110   4.767   4.488   3.186
 3034SOL    HW2 9111   4.630   4.493   3.097
 3035SOL     OW 9112   3.764   4.268   2.976
 3035SOL    HW1 9113   3.849   4.235   2.935
 3035SOL    HW2 9114   3.777   4.283   3.074
 3036SOL     OW 9115   3.913   4.244   3.584
 3036SOL    HW1 9116   3.972   4.204   3.514
 3036SOL    HW2 9117   3.855   4.315   3.543
 3037SOL     OW 9118   4.539   4.296   2.187
 3037SOL    HW1 9119   4.546   4.207   2.141
 3037SOL    HW2 9120   4.445   4.330   2.179
 3038SOL     OW 9121   4.395   4.188   3.131
 3038SOL    HW1 9122   4.361   4.099   3.101
 3038SOL    HW2 9123   4.421   4.242   3.051
 3039SOL     OW 9124   4.197   4.224   2.053
 3039SOL    HW1 9125   4.258   4.304   2.057
 3039SOL    HW2 9126   4.102   4.255   2.060
 3040SOL     OW 9127   3.987   4.050   2.582
 3040SOL    HW1 9128   3.908   4.101   2.548
 3040SOL    HW2 9129   3.978   4.035   2.680
 3041SOL     OW 9130   3.829   4.737   3.588
 3041SOL    HW1 9131   3.752   4.704   3.642
 3041SOL    HW2 9132   3.914   4.707   3.630
 3042SOL     OW 9133   4.396   3.927   3.351
 3042SOL    HW1 9134   4.486   3.911   3.311
 3042SOL    HW2 9135   4.404   3.932   3.450
 3043SOL     OW 9136   3.799   4.069   1.895
 3043SOL    HW1 9137   3.707   4.041   1.866
 3043SOL    HW2 9138   3.830   4.146   1.839
 3044SOL     OW 9139   3.796   3.890   2.180
 3044SOL    HW1 9140   3.779   3.973   2.126
 3044SOL    HW2 9141   3.886   3.853   2.158
 3045SOL     OW 9142   4.440   4.289   3.570
 3045SOL    HW1 9143   4.459   4.354   3.644
 3045SOL    HW2 9144   4.500   4.209   3.579
 3046SOL     OW 9145   4.318   4.469   2.514
 3046SOL    HW1 9146   4.368   4.554   2.495
 3046SOL    HW2 9147   4.230   4.471   2.466
 3047SOL     OW 9148   4.152   4.148   2.382
 3047SOL    HW1 9149   4.182   4.076   2.320
 3047SOL    HW2 9150   4.113   4.108   2.465
 3048SOL     OW 9151   4.041   4.271   3.142
 3048SOL    HW1 9152   4.079   4.212   3.214
 3048SOL    HW2 9153   4.081   4.245   3.054
 3049SOL     OW 9154   3.954   4.352   3.837
 3049SOL    HW1 9155   3.861   4.350   3.874
 3049SOL    HW2 9156   3.955   4.313   3.745
 3050SOL     OW 9157   3.743   4.092   4.371
 3050SOL    HW1 9158   3.661   4.135   4.410
 3050SOL    HW2 9159   3.715   4.019   4.308
 3051SOL     OW 9160   4.409   4.736   4.389
 3051SOL    HW1 9161   4.478   4.720   4.459
 3051SOL    HW2 9162   4.336   4.793   4.427
 3052SOL     OW 9163   3.846   4.367   4.287
 3052SOL    HW1 9164   3.801   4.279   4.304
 3052SOL    HW2 9165   3.845   4.421   4.371
 3053SOL     OW 9166   4.533   3.728   4.226
 3053SOL    HW1 9167   4.573   3.819   4.217
 3053SOL    HW2 9168   4.433   3.736   4.232
 3054SOL     OW 9169   4.322   4.453   3.994
 3054SOL    HW1 9170   4.346   4.522   3.926
 3054SOL    HW2 9171   4.244   4.486   4.048
 3055SOL     OW 9172   4.106   4.424   4.204
 3055SOL    HW1 9173   4.151   4.334   4.201
 3055SOL    HW2 9174   4.012   4.413   4.237
 3056SOL     OW 9175   4.338   3.846   3.841
 3056SOL    HW1 9176   4.436   3.824   3.848
 3056SOL    HW2 9177   4.307   3.829   3.748
 3057SOL     OW 9178   4.263   3.788   4.236
 3057SOL    HW1 9179   4.182   3.789   4.294
 3057SOL    HW2 9180   4.266   3.871   4.181
 3058SOL     OW 9181   4.021   3.759   3.895
 3058SOL    HW1 9182   4.070   3.843   3.874
 3058SOL    HW2 9183   4.083   3.694   3.940
 3059SOL     OW 9184   4.251   3.980   4.052
 3059SOL    HW1 9185   4.278   3.921   3.977
 3059SOL    HW2 9186   4.251   4.075   4.021
 3060SOL     OW 9187   4.031   3.787   4.342
 3060SOL    HW1 9188   4.020   3.881   4.375
 3060SOL    HW2 9189   4.026   3.724   4.419
 3061SOL     OW 9190   3.764   4.268   4.838
 3061SOL    HW1 9191   3.849   4.235   4.797
 3061SOL    HW2 9192   3.777   4.283   4.936
 3062SOL     OW 9193   4.539   4.296   4.049
 3062SOL    HW1 9194   4.546   4.207   4.003
 3062SOL    HW2 9195   4.445   4.330   4.041
 3063SOL     OW 9196   4.197   4.224   3.915
 3063SOL    HW1 9197   4.258   4.304   3.919
 3063SOL    HW2 9198   4.102   4.255   3.922
 3064SOL     OW 9199   3.987   4.050   4.444
 3064SOL    HW1 9200   3.908   4.101   4.410
 3064SOL    HW2 9201   3.978   4.035   4.542
 3065SOL     OW 9202   3.799   4.069   3.757
 3065SOL    HW1 9203   3.707   4.041   3.728
 3065SOL    HW2 9204   3.830   4.146   3.701
 3066SOL     OW 9205   3.796   3.890   4.042
 3066SOL    HW1 9206   3.779   3.973   3.988
 3066SOL    HW2 9207   3.886   3.853   4.020
 3067SOL     OW 9208   4.318   4.469   4.376
 3067SOL    HW1 9209   4.368   4.554   4.357
 3067SOL    HW2 9210   4.230   4.471   4.328
 3068SOL     OW 9211   4.152   4.148   4.244
 3068SOL    HW1 9212   4.182   4.076   4.182
 3068SOL    HW2 9213   4.113   4.108   4.327
   4.54006   4.54006   4.54006
