mobley_337666_GMX.gro created by acpype (v: 2023.10.27) on Wed May 20 23:59:20 2026
   12
    1MOL     C1    1   2.318   2.398   2.284
    1MOL     C2    2   2.232   2.351   2.374
    1MOL     C3    3   2.177   2.214   2.364
    1MOL     C4    4   2.315   2.191   2.157
    1MOL     N1    5   2.359   2.321   2.179
    1MOL     N2    6   2.225   2.144   2.253
    1MOL     O1    7   2.098   2.170   2.446
    1MOL     O2    8   2.353   2.122   2.062
    1MOL     F1    9   2.190   2.424   2.479
    1MOL     H1   10   2.360   2.497   2.289
    1MOL     H2   11   2.425   2.361   2.112
    1MOL     H3   12   2.190   2.049   2.241
   4.54006   4.54006   4.54006
