mobley_5003962_GMX.gro created by acpype (v: 2023.10.27) on Thu May 21 00:02:55 2026
 26
    1  MOL   C1    1   0.129  -0.169  -0.035
    1  MOL   C2    2   0.096  -0.046   0.023
    1  MOL   C3    3   0.252  -0.228  -0.006
    1  MOL   C4    4   0.185   0.017   0.109
    1  MOL   C5    5   0.689  -0.221   0.232
    1  MOL   C6    6   0.778  -0.158   0.318
    1  MOL   C7    7   0.622   0.024   0.347
    1  MOL   C8    8   0.342  -0.165   0.081
    1  MOL   C9    9   0.308  -0.043   0.138
    1  MOL  C10   10   0.565  -0.162   0.202
    1  MOL  C11   11   0.532  -0.039   0.260
    1  MOL  C12   12   0.744  -0.036   0.376
    1  MOL  C13   13   0.471  -0.229   0.110
    1  MOL  C14   14   0.402   0.025   0.230
    1  MOL   N1   15   0.835   0.028   0.464
    1  MOL   O1   16   0.501  -0.337   0.060
    1  MOL   O2   17   0.373   0.132   0.281
    1  MOL   H1   18   0.059  -0.218  -0.102
    1  MOL   H2   19  -0.000  -0.000   0.000
    1  MOL   H3   20   0.276  -0.324  -0.053
    1  MOL   H4   21   0.157   0.112   0.153
    1  MOL   H5   22   0.717  -0.317   0.188
    1  MOL   H6   23   0.873  -0.206   0.340
    1  MOL   H7   24   0.597   0.119   0.393
    1  MOL   H8   25   0.920  -0.018   0.487
    1  MOL   H9   26   0.808   0.113   0.508
   18.40800     9.38400    12.21200
