; mobley_5003962_GMX_OPLS.itp created by acpype (v: 2023.10.27) on Thu May 21 00:02:55 2026

; For OPLS atomtypes manual fine tuning
; AC_at:OPLS_at:OPLScode: Possible_Alternatives (see ffoplsaa.atp and ffoplsaanb.itp)
; ca:CA:opls_145: ['166', '501', '502']
; c:C:opls_235: ['271']
; nv:x:opls_x: []
; o:O:opls_236: ['272']
; ha:HA:opls_146: []
; hn:H:opls_240: ['241', '290', '301', '304', '310', '504', '513']

[ moleculetype ]
;name            nrexcl
 mobley_5003962   3

[ atoms ]
;   nr  type  resi  res  atom  cgnr     charge      mass       ; qtot   bond_type
     1 opls_145     1   MOL    C1    1    -0.116000     12.01100 ; qtot -0.116  CA  
     2 opls_145     1   MOL    C2    2    -0.120000     12.01100 ; qtot -0.236  CA  
     3 opls_145     1   MOL    C3    3    -0.089000     12.01100 ; qtot -0.325  CA  
     4 opls_145     1   MOL    C4    4    -0.087000     12.01100 ; qtot -0.412  CA  
     5 opls_145     1   MOL    C5    5    -0.041000     12.01100 ; qtot -0.453  CA  
     6 opls_145     1   MOL    C6    6    -0.195000     12.01100 ; qtot -0.648  CA  
     7 opls_145     1   MOL    C7    7    -0.161000     12.01100 ; qtot -0.809  CA  
     8 opls_145     1   MOL    C8    8    -0.123600     12.01100 ; qtot -0.933  CA  
     9 opls_145     1   MOL    C9    9    -0.130600     12.01100 ; qtot -1.063  CA  
    10 opls_145     1   MOL   C10   10    -0.184600     12.01100 ; qtot -1.248  CA  
    11 opls_145     1   MOL   C11   11    -0.081600     12.01100 ; qtot -1.329  CA  
    12 opls_145     1   MOL   C12   12     0.176600     12.01100 ; qtot -1.153  CA  
    13 opls_235     1   MOL   C13   13     0.592300     12.01100 ; qtot -0.560  C   
    14 opls_235     1   MOL   C14   14     0.584300     12.01100 ; qtot  0.024  C   
    15 opls_x     1   MOL    N1   15    -0.834200      0.00000 ; qtot -0.810  x   
    16 opls_236     1   MOL    O1   16    -0.537100     15.99940 ; qtot -1.347  O   
    17 opls_236     1   MOL    O2   17    -0.527100     15.99940 ; qtot -1.875  O   
    18 opls_146     1   MOL    H1   18     0.141000      1.00800 ; qtot -1.734  HA  
    19 opls_146     1   MOL    H2   19     0.141000      1.00800 ; qtot -1.593  HA  
    20 opls_146     1   MOL    H3   20     0.160000      1.00800 ; qtot -1.433  HA  
    21 opls_146     1   MOL    H4   21     0.159000      1.00800 ; qtot -1.274  HA  
    22 opls_146     1   MOL    H5   22     0.159000      1.00800 ; qtot -1.115  HA  
    23 opls_146     1   MOL    H6   23     0.140000      1.00800 ; qtot -0.975  HA  
    24 opls_146     1   MOL    H7   24     0.159000      1.00800 ; qtot -0.816  HA  
    25 opls_240     1   MOL    H8   25     0.407800      1.00800 ; qtot -0.408  H   
    26 opls_240     1   MOL    H9   26     0.407800      1.00800 ; qtot  0.000  H   

[ bonds ]
;   ai     aj funct   r             k
     1      2   1 ;    1.3986e-01    2.9644e+05 ;     C1 - C2         CA - CA    
     1      3   1 ;    1.3986e-01    2.9644e+05 ;     C1 - C3         CA - CA    
     1     18   1 ;    1.0860e-01    3.0183e+05 ;     C1 - H1         CA - HA    
     2      4   1 ;    1.3986e-01    2.9644e+05 ;     C2 - C4         CA - CA    
     2     19   1 ;    1.0860e-01    3.0183e+05 ;     C2 - H2         CA - HA    
     3      8   1 ;    1.3986e-01    2.9644e+05 ;     C3 - C8         CA - CA    
     3     20   1 ;    1.0860e-01    3.0183e+05 ;     C3 - H3         CA - HA    
     4      9   1 ;    1.3986e-01    2.9644e+05 ;     C4 - C9         CA - CA    
     4     21   1 ;    1.0860e-01    3.0183e+05 ;     C4 - H4         CA - HA    
     5      6   1 ;    1.3986e-01    2.9644e+05 ;     C5 - C6         CA - CA    
     5     10   1 ;    1.3986e-01    2.9644e+05 ;     C5 - C10        CA - CA    
     5     22   1 ;    1.0860e-01    3.0183e+05 ;     C5 - H5         CA - HA    
     6     12   1 ;    1.3986e-01    2.9644e+05 ;     C6 - C12        CA - CA    
     6     23   1 ;    1.0860e-01    3.0183e+05 ;     C6 - H6         CA - HA    
     7     11   1 ;    1.3986e-01    2.9644e+05 ;     C7 - C11        CA - CA    
     7     12   1 ;    1.3986e-01    2.9644e+05 ;     C7 - C12        CA - CA    
     7     24   1 ;    1.0860e-01    3.0183e+05 ;     C7 - H7         CA - HA    
     8      9   1 ;    1.3986e-01    2.9644e+05 ;     C8 - C9         CA - CA    
     8     13   1 ;    1.4907e-01    2.1994e+05 ;     C8 - C13        CA - C     
     9     14   1 ;    1.4907e-01    2.1994e+05 ;     C9 - C14        CA - C     
    10     11   1 ;    1.3986e-01    2.9644e+05 ;    C10 - C11        CA - CA    
    10     13   1 ;    1.4907e-01    2.1994e+05 ;    C10 - C13        CA - C     
    11     14   1 ;    1.4907e-01    2.1994e+05 ;    C11 - C14        CA - C     
    12     15   1 ;    1.3744e-01    2.8644e+05 ;    C12 - N1         CA - x     
    13     16   1 ;    1.2190e-01    4.9421e+05 ;    C13 - O1          C - O     
    14     17   1 ;    1.2190e-01    4.9421e+05 ;    C14 - O2          C - O     
    15     25   1 ;    1.0114e-01    3.9961e+05 ;     N1 - H8          x - H     
    15     26   1 ;    1.0114e-01    3.9961e+05 ;     N1 - H9          x - H     

[ pairs ]
;   ai     aj    funct
     1      9      1 ;     C1 - C9    
     1     13      1 ;     C1 - C13   
     1     21      1 ;     C1 - H4    
     2      8      1 ;     C2 - C8    
     2     14      1 ;     C2 - C14   
     2     20      1 ;     C2 - H3    
     3      4      1 ;     C3 - C4    
     3     10      1 ;     C3 - C10   
     3     14      1 ;     C3 - C14   
     3     16      1 ;     C3 - O1    
     3     19      1 ;     C3 - H2    
     4     11      1 ;     C4 - C11   
     4     13      1 ;     C4 - C13   
     4     17      1 ;     C4 - O2    
     5      7      1 ;     C5 - C7    
     5      8      1 ;     C5 - C8    
     5     14      1 ;     C5 - C14   
     5     15      1 ;     C5 - N1    
     5     16      1 ;     C5 - O1    
     6     11      1 ;     C6 - C11   
     6     13      1 ;     C6 - C13   
     6     24      1 ;     C6 - H7    
     6     25      1 ;     C6 - H8    
     6     26      1 ;     C6 - H9    
     7      9      1 ;     C7 - C9    
     7     13      1 ;     C7 - C13   
     7     17      1 ;     C7 - O2    
     7     23      1 ;     C7 - H6    
     7     25      1 ;     C7 - H8    
     7     26      1 ;     C7 - H9    
     8     11      1 ;     C8 - C11   
     8     17      1 ;     C8 - O2    
     8     21      1 ;     C8 - H4    
     9     10      1 ;     C9 - C10   
     9     16      1 ;     C9 - O1    
     9     19      1 ;     C9 - H2    
     9     20      1 ;     C9 - H3    
    10     12      1 ;    C10 - C12   
    10     17      1 ;    C10 - O2    
    10     23      1 ;    C10 - H6    
    10     24      1 ;    C10 - H7    
    11     15      1 ;    C11 - N1    
    11     16      1 ;    C11 - O1    
    11     22      1 ;    C11 - H5    
    12     14      1 ;    C12 - C14   
    12     22      1 ;    C12 - H5    
    13     14      1 ;    C13 - C14   
    13     20      1 ;    C13 - H3    
    13     22      1 ;    C13 - H5    
    14     21      1 ;    C14 - H4    
    14     24      1 ;    C14 - H7    
    15     23      1 ;     N1 - H6    
    15     24      1 ;     N1 - H7    
    18      4      1 ;     H1 - C4    
    18      8      1 ;     H1 - C8    
    18     19      1 ;     H1 - H2    
    18     20      1 ;     H1 - H3    
    19     21      1 ;     H2 - H4    
    22     23      1 ;     H5 - H6    

[ angles ]
;   ai     aj     ak    funct   theta         cth
     1      2      4      1 ;    1.2002e+02    5.3279e+02 ;     C1 - C2   - C4       CA -   CA - CA  
     1      2     19      1 ;    1.1988e+02    3.7572e+02 ;     C1 - C2   - H2       CA -   CA - HA  
     1      3      8      1 ;    1.2002e+02    5.3279e+02 ;     C1 - C3   - C8       CA -   CA - CA  
     1      3     20      1 ;    1.1988e+02    3.7572e+02 ;     C1 - C3   - H3       CA -   CA - HA  
     2      1      3      1 ;    1.2002e+02    5.3279e+02 ;     C2 - C1   - C3       CA -   CA - CA  
     2      1     18      1 ;    1.1988e+02    3.7572e+02 ;     C2 - C1   - H1       CA -   CA - HA  
     2      4      9      1 ;    1.2002e+02    5.3279e+02 ;     C2 - C4   - C9       CA -   CA - CA  
     2      4     21      1 ;    1.1988e+02    3.7572e+02 ;     C2 - C4   - H4       CA -   CA - HA  
     3      1     18      1 ;    1.1988e+02    3.7572e+02 ;     C3 - C1   - H1       CA -   CA - HA  
     3      8      9      1 ;    1.2002e+02    5.3279e+02 ;     C3 - C8   - C9       CA -   CA - CA  
     3      8     13      1 ;    1.2033e+02    5.1413e+02 ;     C3 - C8   - C13      CA -   CA - C   
     4      2     19      1 ;    1.1988e+02    3.7572e+02 ;     C4 - C2   - H2       CA -   CA - HA  
     4      9      8      1 ;    1.2002e+02    5.3279e+02 ;     C4 - C9   - C8       CA -   CA - CA  
     4      9     14      1 ;    1.2033e+02    5.1413e+02 ;     C4 - C9   - C14      CA -   CA - C   
     5      6     12      1 ;    1.2002e+02    5.3279e+02 ;     C5 - C6   - C12      CA -   CA - CA  
     5      6     23      1 ;    1.1988e+02    3.7572e+02 ;     C5 - C6   - H6       CA -   CA - HA  
     5     10     11      1 ;    1.2002e+02    5.3279e+02 ;     C5 - C10  - C11      CA -   CA - CA  
     5     10     13      1 ;    1.2033e+02    5.1413e+02 ;     C5 - C10  - C13      CA -   CA - C   
     6      5     10      1 ;    1.2002e+02    5.3279e+02 ;     C6 - C5   - C10      CA -   CA - CA  
     6      5     22      1 ;    1.1988e+02    3.7572e+02 ;     C6 - C5   - H5       CA -   CA - HA  
     6     12      7      1 ;    1.2002e+02    5.3279e+02 ;     C6 - C12  - C7       CA -   CA - CA  
     6     12     15      1 ;    1.2094e+02    5.6827e+02 ;     C6 - C12  - N1       CA -   CA - x   
     7     11     10      1 ;    1.2002e+02    5.3279e+02 ;     C7 - C11  - C10      CA -   CA - CA  
     7     11     14      1 ;    1.2033e+02    5.1413e+02 ;     C7 - C11  - C14      CA -   CA - C   
     7     12     15      1 ;    1.2094e+02    5.6827e+02 ;     C7 - C12  - N1       CA -   CA - x   
     8      3     20      1 ;    1.1988e+02    3.7572e+02 ;     C8 - C3   - H3       CA -   CA - HA  
     8      9     14      1 ;    1.2033e+02    5.1413e+02 ;     C8 - C9   - C14      CA -   CA - C   
     8     13     10      1 ;    1.1793e+02    5.0434e+02 ;     C8 - C13  - C10      CA -    C - CA  
     8     13     16      1 ;    1.2260e+02    6.5237e+02 ;     C8 - C13  - O1       CA -    C - O   
     9      4     21      1 ;    1.1988e+02    3.7572e+02 ;     C9 - C4   - H4       CA -   CA - HA  
     9      8     13      1 ;    1.2033e+02    5.1413e+02 ;     C9 - C8   - C13      CA -   CA - C   
     9     14     11      1 ;    1.1793e+02    5.0434e+02 ;     C9 - C14  - C11      CA -    C - CA  
     9     14     17      1 ;    1.2260e+02    6.5237e+02 ;     C9 - C14  - O2       CA -    C - O   
    10      5     22      1 ;    1.1988e+02    3.7572e+02 ;    C10 - C5   - H5       CA -   CA - HA  
    10     11     14      1 ;    1.2033e+02    5.1413e+02 ;    C10 - C11  - C14      CA -   CA - C   
    10     13     16      1 ;    1.2260e+02    6.5237e+02 ;    C10 - C13  - O1       CA -    C - O   
    11      7     12      1 ;    1.2002e+02    5.3279e+02 ;    C11 - C7   - C12      CA -   CA - CA  
    11      7     24      1 ;    1.1988e+02    3.7572e+02 ;    C11 - C7   - H7       CA -   CA - HA  
    11     10     13      1 ;    1.2033e+02    5.1413e+02 ;    C11 - C10  - C13      CA -   CA - C   
    11     14     17      1 ;    1.2260e+02    6.5237e+02 ;    C11 - C14  - O2       CA -    C - O   
    12      6     23      1 ;    1.1988e+02    3.7572e+02 ;    C12 - C6   - H6       CA -   CA - HA  
    12      7     24      1 ;    1.1988e+02    3.7572e+02 ;    C12 - C7   - H7       CA -   CA - HA  
    12     15     25      1 ;    1.1673e+02    4.8292e+02 ;    C12 - N1   - H8       CA -    x - H   
    12     15     26      1 ;    1.1673e+02    4.8292e+02 ;    C12 - N1   - H9       CA -    x - H   
    25     15     26      1 ;    1.1528e+02    3.8794e+02 ;     H8 - N1   - H9        H -    x - H   

[ dihedrals ] ; propers
; for gromacs 4.5 or higher, using funct 9
;    i      j      k      l   func   phase     kd      pn
     1      2      4      9      9 ;   180.00  15.16700   2 ;     C1-    C2-    C4-    C9
     1      2      4     21      9 ;   180.00  15.16700   2 ;     C1-    C2-    C4-    H4
     1      3      8      9      9 ;   180.00  15.16700   2 ;     C1-    C3-    C8-    C9
     1      3      8     13      9 ;   180.00  15.16700   2 ;     C1-    C3-    C8-   C13
     2      1      3      8      9 ;   180.00  15.16700   2 ;     C2-    C1-    C3-    C8
     2      1      3     20      9 ;   180.00  15.16700   2 ;     C2-    C1-    C3-    H3
     2      4      9      8      9 ;   180.00  15.16700   2 ;     C2-    C4-    C9-    C8
     2      4      9     14      9 ;   180.00  15.16700   2 ;     C2-    C4-    C9-   C14
     3      1      2      4      9 ;   180.00  15.16700   2 ;     C3-    C1-    C2-    C4
     3      1      2     19      9 ;   180.00  15.16700   2 ;     C3-    C1-    C2-    H2
     3      8      9      4      9 ;   180.00  15.16700   2 ;     C3-    C8-    C9-    C4
     3      8      9     14      9 ;   180.00  15.16700   2 ;     C3-    C8-    C9-   C14
     3      8     13     10      9 ;   180.00   5.23000   2 ;     C3-    C8-   C13-   C10
     3      8     13     16      9 ;   180.00   2.42672   2 ;     C3-    C8-   C13-    O1
     4      9      8     13      9 ;   180.00  15.16700   2 ;     C4-    C9-    C8-   C13
     4      9     14     11      9 ;   180.00   5.23000   2 ;     C4-    C9-   C14-   C11
     4      9     14     17      9 ;   180.00   2.42672   2 ;     C4-    C9-   C14-    O2
     5      6     12      7      9 ;   180.00  15.16700   2 ;     C5-    C6-   C12-    C7
     5      6     12     15      9 ;   180.00  15.16700   2 ;     C5-    C6-   C12-    N1
     5     10     11      7      9 ;   180.00  15.16700   2 ;     C5-   C10-   C11-    C7
     5     10     11     14      9 ;   180.00  15.16700   2 ;     C5-   C10-   C11-   C14
     5     10     13      8      9 ;   180.00   5.23000   2 ;     C5-   C10-   C13-    C8
     5     10     13     16      9 ;   180.00   2.42672   2 ;     C5-   C10-   C13-    O1
     6      5     10     11      9 ;   180.00  15.16700   2 ;     C6-    C5-   C10-   C11
     6      5     10     13      9 ;   180.00  15.16700   2 ;     C6-    C5-   C10-   C13
     6     12      7     11      9 ;   180.00  15.16700   2 ;     C6-   C12-    C7-   C11
     6     12      7     24      9 ;   180.00  15.16700   2 ;     C6-   C12-    C7-    H7
     6     12     15     25      9 ;   180.00   4.39320   2 ;     C6-   C12-    N1-    H8
     6     12     15     26      9 ;   180.00   4.39320   2 ;     C6-   C12-    N1-    H9
     7     11     10     13      9 ;   180.00  15.16700   2 ;     C7-   C11-   C10-   C13
     7     11     14      9      9 ;   180.00   5.23000   2 ;     C7-   C11-   C14-    C9
     7     11     14     17      9 ;   180.00   2.42672   2 ;     C7-   C11-   C14-    O2
     7     12      6     23      9 ;   180.00  15.16700   2 ;     C7-   C12-    C6-    H6
     7     12     15     25      9 ;   180.00   4.39320   2 ;     C7-   C12-    N1-    H8
     7     12     15     26      9 ;   180.00   4.39320   2 ;     C7-   C12-    N1-    H9
     8      9      4     21      9 ;   180.00  15.16700   2 ;     C8-    C9-    C4-    H4
     8      9     14     11      9 ;   180.00   5.23000   2 ;     C8-    C9-   C14-   C11
     8      9     14     17      9 ;   180.00   2.42672   2 ;     C8-    C9-   C14-    O2
     8     13     10     11      9 ;   180.00   5.23000   2 ;     C8-   C13-   C10-   C11
     9      4      2     19      9 ;   180.00  15.16700   2 ;     C9-    C4-    C2-    H2
     9      8      3     20      9 ;   180.00  15.16700   2 ;     C9-    C8-    C3-    H3
     9      8     13     10      9 ;   180.00   5.23000   2 ;     C9-    C8-   C13-   C10
     9      8     13     16      9 ;   180.00   2.42672   2 ;     C9-    C8-   C13-    O1
     9     14     11     10      9 ;   180.00   5.23000   2 ;     C9-   C14-   C11-   C10
    10      5      6     12      9 ;   180.00  15.16700   2 ;    C10-    C5-    C6-   C12
    10      5      6     23      9 ;   180.00  15.16700   2 ;    C10-    C5-    C6-    H6
    10     11      7     12      9 ;   180.00  15.16700   2 ;    C10-   C11-    C7-   C12
    10     11      7     24      9 ;   180.00  15.16700   2 ;    C10-   C11-    C7-    H7
    10     11     14     17      9 ;   180.00   2.42672   2 ;    C10-   C11-   C14-    O2
    11      7     12     15      9 ;   180.00  15.16700   2 ;    C11-    C7-   C12-    N1
    11     10      5     22      9 ;   180.00  15.16700   2 ;    C11-   C10-    C5-    H5
    11     10     13     16      9 ;   180.00   2.42672   2 ;    C11-   C10-   C13-    O1
    12      6      5     22      9 ;   180.00  15.16700   2 ;    C12-    C6-    C5-    H5
    12      7     11     14      9 ;   180.00  15.16700   2 ;    C12-    C7-   C11-   C14
    13      8      3     20      9 ;   180.00  15.16700   2 ;    C13-    C8-    C3-    H3
    13      8      9     14      9 ;   180.00  15.16700   2 ;    C13-    C8-    C9-   C14
    13     10      5     22      9 ;   180.00  15.16700   2 ;    C13-   C10-    C5-    H5
    13     10     11     14      9 ;   180.00  15.16700   2 ;    C13-   C10-   C11-   C14
    14      9      4     21      9 ;   180.00  15.16700   2 ;    C14-    C9-    C4-    H4
    14     11      7     24      9 ;   180.00  15.16700   2 ;    C14-   C11-    C7-    H7
    15     12      6     23      9 ;   180.00  15.16700   2 ;     N1-   C12-    C6-    H6
    15     12      7     24      9 ;   180.00  15.16700   2 ;     N1-   C12-    C7-    H7
    18      1      2      4      9 ;   180.00  15.16700   2 ;     H1-    C1-    C2-    C4
    18      1      2     19      9 ;   180.00  15.16700   2 ;     H1-    C1-    C2-    H2
    18      1      3      8      9 ;   180.00  15.16700   2 ;     H1-    C1-    C3-    C8
    18      1      3     20      9 ;   180.00  15.16700   2 ;     H1-    C1-    C3-    H3
    19      2      4     21      9 ;   180.00  15.16700   2 ;     H2-    C2-    C4-    H4
    22      5      6     23      9 ;   180.00  15.16700   2 ;     H5-    C5-    C6-    H6

[ dihedrals ] ; impropers
; treated as propers in GROMACS to use correct AMBER analytical function
;    i      j      k      l   func   phase     kd      pn
     1      4      2     19      4 ;   180.00   4.60240   2 ;     C1-    C4-    C2-    H2
     1      8      3     20      4 ;   180.00   4.60240   2 ;     C1-    C8-    C3-    H3
     2      9      4     21      4 ;   180.00   4.60240   2 ;     C2-    C9-    C4-    H4
     5     12      6     23      4 ;   180.00   4.60240   2 ;     C5-   C12-    C6-    H6
     6      7     12     15      4 ;   180.00   4.60240   2 ;     C6-    C7-   C12-    N1
     6     10      5     22      4 ;   180.00   4.60240   2 ;     C6-   C10-    C5-    H5
     8     10     13     16      4 ;   180.00  43.93200   2 ;     C8-   C10-   C13-    O1
     9     11     14     17      4 ;   180.00  43.93200   2 ;     C9-   C11-   C14-    O2
    11     12      7     24      4 ;   180.00   4.60240   2 ;    C11-   C12-    C7-    H7
    12     25     15     26      4 ;   180.00   4.60240   2 ;    C12-    H8-    N1-    H9
    13      3      8      9      4 ;   180.00   4.60240   2 ;    C13-    C3-    C8-    C9
    13      5     10     11      4 ;   180.00   4.60240   2 ;    C13-    C5-   C10-   C11
    14      4      9      8      4 ;   180.00   4.60240   2 ;    C14-    C4-    C9-    C8
    14      7     11     10      4 ;   180.00   4.60240   2 ;    C14-    C7-   C11-   C10
    18      1      3      2      4 ;   180.00   4.60240   2 ;     H1-    C1-    C3-    C2
