; mobley_5003962_GMX_OPLS.top created by acpype (v: 2023.10.27) on Thu May 21 00:02:55 2026

; Include forcefield parameters
#include "ffoplsaa.itp"

; Include mobley_5003962_GMX.itp topology
#include "mobley_5003962_GMX.itp"

; Ligand position restraints
#ifdef POSRES_LIG
#include "posre_mobley_5003962.itp"
#endif

[ system ]
 mobley_5003962

[ molecules ]
; Compound        nmols
 mobley_5003962   1     
