%VERSION  VERSION_STAMP = V0001.000  DATE = 05/21/26  00:03:00                  
%FLAG TITLE                                                                     
%FORMAT(20a4)                                                                   
SAMPL4_045                                                                      
%FLAG POINTERS                                                                  
%FORMAT(10I8)                                                                   
      26       5       9      19      17      28      36      47       0       0
     139       1      19      28      47       6       8       6       6       0
       0       0       0       0       0       0       0       0      26       0
       0
%FLAG ATOM_NAME                                                                 
%FORMAT(20a4)                                                                   
C1  C2  C3  C4  C5  C6  C7  C8  C9  C10 C11 C12 C13 C14 N1  O1  O2  H1  H2  H3  
H4  H5  H6  H7  H8  H9  
%FLAG CHARGE                                                                    
%FORMAT(5E16.8)                                                                 
 -2.11378680E+00 -2.18667600E+00 -1.62178470E+00 -1.58534010E+00 -7.47114300E-01
 -3.55334850E+00 -2.93379030E+00 -2.25227628E+00 -2.37983238E+00 -3.36383658E+00
 -1.48693968E+00  3.21805818E+00  1.07930683E+01  1.06472899E+01 -1.51828204E+01
 -9.78719733E+00 -9.60497433E+00  2.56934430E+00  2.56934430E+00  2.91556800E+00
  2.89734570E+00  2.89734570E+00  2.55112200E+00  2.89734570E+00  7.43105394E+00
  7.43105394E+00
%FLAG ATOMIC_NUMBER                                                             
%FORMAT(10I8)                                                                   
       6       6       6       6       6       6       6       6       6       6
       6       6       6       6       7       8       8       1       1       1
       1       1       1       1       1       1
%FLAG MASS                                                                      
%FORMAT(5E16.8)                                                                 
  1.20100000E+01  1.20100000E+01  1.20100000E+01  1.20100000E+01  1.20100000E+01
  1.20100000E+01  1.20100000E+01  1.20100000E+01  1.20100000E+01  1.20100000E+01
  1.20100000E+01  1.20100000E+01  1.20100000E+01  1.20100000E+01  1.40100000E+01
  1.60000000E+01  1.60000000E+01  1.00800000E+00  1.00800000E+00  1.00800000E+00
  1.00800000E+00  1.00800000E+00  1.00800000E+00  1.00800000E+00  1.00800000E+00
  1.00800000E+00
%FLAG ATOM_TYPE_INDEX                                                           
%FORMAT(10I8)                                                                   
       1       1       1       1       1       1       1       1       1       1
       1       1       1       1       2       3       3       4       4       4
       4       4       4       4       5       5
%FLAG NUMBER_EXCLUDED_ATOMS                                                     
%FORMAT(10I8)                                                                   
      10       9      10       9      12      11      12      10       9       9
       8       7       4       3       4       1       1       2       1       1
       1       1       1       1       1       1
%FLAG NONBONDED_PARM_INDEX                                                      
%FORMAT(10I8)                                                                   
       1       2       4       7      11       2       3       5       8      12
       4       5       6       9      13       7       8       9      10      14
      11      12      13      14      15
%FLAG RESIDUE_LABEL                                                             
%FORMAT(20a4)                                                                   
MOL 
%FLAG RESIDUE_POINTER                                                           
%FORMAT(10I8)                                                                   
       1
%FLAG BOND_FORCE_CONSTANT                                                       
%FORMAT(5E16.8)                                                                 
  3.54250000E+02  3.60690000E+02  2.62840000E+02  3.42300000E+02  5.90600000E+02
  4.77540000E+02
%FLAG BOND_EQUIL_VALUE                                                          
%FORMAT(5E16.8)                                                                 
  1.39860000E+00  1.08600000E+00  1.49070000E+00  1.37440000E+00  1.21900000E+00
  1.01140000E+00
%FLAG ANGLE_FORCE_CONSTANT                                                      
%FORMAT(5E16.8)                                                                 
  6.36700000E+01  4.49000000E+01  6.14400000E+01  6.79100000E+01  6.02700000E+01
  7.79600000E+01  5.77100000E+01  4.63600000E+01
%FLAG ANGLE_EQUIL_VALUE                                                         
%FORMAT(5E16.8)                                                                 
  2.09474507E+00  2.09230160E+00  2.10015559E+00  2.11080210E+00  2.05826767E+00
  2.13977458E+00  2.03732371E+00  2.01201642E+00
%FLAG DIHEDRAL_FORCE_CONSTANT                                                   
%FORMAT(5E16.8)                                                                 
  3.62500000E+00  1.25000000E+00  5.80000000E-01  1.05000000E+00  1.10000000E+00
  1.05000000E+01
%FLAG DIHEDRAL_PERIODICITY                                                      
%FORMAT(5E16.8)                                                                 
  2.00000000E+00  2.00000000E+00  2.00000000E+00  2.00000000E+00  2.00000000E+00
  2.00000000E+00
%FLAG DIHEDRAL_PHASE                                                            
%FORMAT(5E16.8)                                                                 
  3.14159400E+00  3.14159400E+00  3.14159400E+00  3.14159400E+00  3.14159400E+00
  3.14159400E+00
%FLAG SCEE_SCALE_FACTOR                                                         
%FORMAT(5E16.8)                                                                 
  1.20000000E+00  1.20000000E+00  1.20000000E+00  1.20000000E+00  0.00000000E+00
  0.00000000E+00
%FLAG SCNB_SCALE_FACTOR                                                         
%FORMAT(5E16.8)                                                                 
  2.00000000E+00  2.00000000E+00  2.00000000E+00  2.00000000E+00  0.00000000E+00
  0.00000000E+00
%FLAG SOLTY                                                                     
%FORMAT(5E16.8)                                                                 
  0.00000000E+00  0.00000000E+00  0.00000000E+00  0.00000000E+00  0.00000000E+00
  0.00000000E+00
%FLAG LENNARD_JONES_ACOEF                                                       
%FORMAT(5E16.8)                                                                 
  6.96551276E+05  8.15855629E+05  9.54875571E+05  5.17507491E+05  6.08567325E+05
  3.76435470E+05  7.52549148E+04  8.91217989E+04  5.27277400E+04  6.90855956E+03
  1.71458823E+03  2.10567903E+03  9.87857350E+02  9.04434904E+01  1.34728399E-01
%FLAG LENNARD_JONES_BCOEF                                                       
%FORMAT(5E16.8)                                                                 
  5.24668528E+02  5.85909304E+02  6.54052181E+02  4.98871431E+02  5.58212938E+02
  4.69350655E+02  1.09570372E+02  1.23036209E+02  1.01173582E+02  2.10929191E+01
  1.46824710E+01  1.67892226E+01  1.22938581E+01  2.14252117E+00  7.34107347E-02
%FLAG BONDS_INC_HYDROGEN                                                        
%FORMAT(10I8)                                                                   
       0      51       2       3      54       2       6      57       2       9
      60       2      12      63       2      15      66       2      18      69
       2      42      72       6      42      75       6
%FLAG BONDS_WITHOUT_HYDROGEN                                                    
%FORMAT(10I8)                                                                   
       0       3       1       0       6       1       3       9       1       6
      21       1       9      24       1      12      15       1      12      27
       1      15      33       1      18      30       1      18      33       1
      21      24       1      21      36       3      24      39       3      27
      30       1      27      36       3      30      39       3      33      42
       4      36      45       5      39      48       5
%FLAG ANGLES_INC_HYDROGEN                                                       
%FORMAT(10I8)                                                                   
       0       3      54       2       0       6      57       2       3       0
      51       2       3       9      60       2       6       0      51       2
       9       3      54       2      12      15      66       2      15      12
      63       2      21       6      57       2      24       9      60       2
      27      12      63       2      30      18      69       2      33      15
      66       2      33      18      69       2      33      42      72       7
      33      42      75       7      72      42      75       8
%FLAG ANGLES_WITHOUT_HYDROGEN                                                   
%FORMAT(10I8)                                                                   
       0       3       9       1       0       6      21       1       3       0
       6       1       3       9      24       1       6      21      24       1
       6      21      36       3       9      24      21       1       9      24
      39       3      12      15      33       1      12      27      30       1
      12      27      36       3      15      12      27       1      15      33
      18       1      15      33      42       4      18      30      27       1
      18      30      39       3      18      33      42       4      21      24
      39       3      21      36      27       5      21      36      45       6
      24      21      36       3      24      39      30       5      24      39
      48       6      27      30      39       3      27      36      45       6
      30      18      33       1      30      27      36       3      30      39
      48       6
%FLAG DIHEDRALS_INC_HYDROGEN                                                    
%FORMAT(10I8)                                                                   
       0       3       9      60       1       3       0       6      57       1
       6       0       3      54       1      51       0       3       9       1
      15      33      18      69       1      15      33      42      72       4
      15      33      42      75       4      18      33      15      66       1
      18      33      42      72       4      18      33      42      75       4
      51       0       6      21       1      21      24       9      60       1
      24       9       3      54       1      24      21       6      57       1
      27      12      15      66       1      27      30      18      69       1
      30      27      12      63       1      33      15      12      63       1
      36      21       6      57       1      36      27      12      63       1
      39      24       9      60       1      39      30      18      69       1
      42      33      15      66       1      42      33      18      69       1
      51       0       3      54       1      51       0       6      57       1
      54       3       9      60       1      63      12      15      66       1
      51       0      -6      -3       5       0       9      -3     -54       5
       0      21      -6     -57       5       3      24      -9     -60       5
      15      27     -12     -63       5      12      33     -15     -66       5
      30      33     -18     -69       5      33      72     -42     -75       5
%FLAG DIHEDRALS_WITHOUT_HYDROGEN                                                
%FORMAT(10I8)                                                                   
       0       3       9      24       1       0       6     -21      24       1
       0       6      21      36       1       3       0       6      21       1
       3       9     -24      21       1       3       9      24      39       1
       6       0       3       9       1       6      21     -24       9       1
       6      21      24      39       1       6      21      36      27       2
       6      21      36      45       3       9      24      21      36       1
       9      24      39      30       2       9      24      39      48       3
      12      15      33      18       1      12      15      33      42       1
      12      27     -30      18       1      12      27      30      39       1
      12      27      36      21       2      12      27      36      45       3
      15      12      27      30       1      15      12      27      36       1
      15      33     -18      30       1      18      30      27      36       1
      18      30      39      24       2      18      30      39      48       3
      21      24      39      30       2      21      24      39      48       3
      21      36     -27      30       2      24      21      36      27       2
      24      21      36      45       3      24      39     -30      27       2
      27      12      15      33       1      27      30     -18      33       1
      27      30      39      48       3      30      18      33      42       1
      30      27      36      45       3      33      18      30      39       1
      36      21      24      39       1      36      27     -30      39       1
      36       6     -21     -24       5      39       9     -24     -21       5
      36      12     -27     -30       5      39      18     -30     -27       5
      15      18     -33     -42       5      21      27     -36     -45       6
      24      30     -39     -48       6
%FLAG EXCLUDED_ATOMS_LIST                                                       
%FORMAT(10I8)                                                                   
       2       3       4       8       9      13      18      19      20      21
       3       4       8       9      14      18      19      20      21       4
       8       9      10      13      14      16      18      19      20       8
       9      11      13      14      17      18      19      21       6       7
       8      10      11      12      13      14      15      16      22      23
       7      10      11      12      13      15      22      23      24      25
      26       9      10      11      12      13      14      15      17      23
      24      25      26       9      10      11      13      14      16      17
      18      20      21      10      11      13      14      16      17      19
      20      21      11      12      13      14      16      17      22      23
      24      12      13      14      15      16      17      22      24      14
      15      22      23      24      25      26      14      16      20      22
      17      21      24      23      24      25      26       0       0      19
      20      21       0       0      23       0       0      26       0
%FLAG HBOND_ACOEF                                                               
%FORMAT(5E16.8)                                                                 

%FLAG HBOND_BCOEF                                                               
%FORMAT(5E16.8)                                                                 

%FLAG HBCUT                                                                     
%FORMAT(5E16.8)                                                                 

%FLAG AMBER_ATOM_TYPE                                                           
%FORMAT(20a4)                                                                   
ca  ca  ca  ca  ca  ca  ca  ca  ca  ca  ca  ca  c   c   nv  o   o   ha  ha  ha  
ha  ha  ha  ha  hn  hn  
%FLAG TREE_CHAIN_CLASSIFICATION                                                 
%FORMAT(20a4)                                                                   
BLA BLA BLA BLA BLA BLA BLA BLA BLA BLA BLA BLA BLA BLA BLA BLA BLA BLA BLA BLA 
BLA BLA BLA BLA BLA BLA 
%FLAG JOIN_ARRAY                                                                
%FORMAT(10I8)                                                                   
       0       0       0       0       0       0       0       0       0       0
       0       0       0       0       0       0       0       0       0       0
       0       0       0       0       0       0
%FLAG IROTAT                                                                    
%FORMAT(10I8)                                                                   
       0       0       0       0       0       0       0       0       0       0
       0       0       0       0       0       0       0       0       0       0
       0       0       0       0       0       0
%FLAG RADIUS_SET                                                                
%FORMAT(1a80)                                                                   
modified Bondi radii (mbondi)                                                   
%FLAG RADII                                                                     
%FORMAT(5E16.8)                                                                 
  1.70000000E+00  1.70000000E+00  1.70000000E+00  1.70000000E+00  1.70000000E+00
  1.70000000E+00  1.70000000E+00  1.70000000E+00  1.70000000E+00  1.70000000E+00
  1.70000000E+00  1.70000000E+00  1.70000000E+00  1.70000000E+00  1.55000000E+00
  1.50000000E+00  1.50000000E+00  1.30000000E+00  1.30000000E+00  1.30000000E+00
  1.30000000E+00  1.30000000E+00  1.30000000E+00  1.30000000E+00  1.30000000E+00
  1.30000000E+00
%FLAG SCREEN                                                                    
%FORMAT(5E16.8)                                                                 
  7.20000000E-01  7.20000000E-01  7.20000000E-01  7.20000000E-01  7.20000000E-01
  7.20000000E-01  7.20000000E-01  7.20000000E-01  7.20000000E-01  7.20000000E-01
  7.20000000E-01  7.20000000E-01  7.20000000E-01  7.20000000E-01  7.90000000E-01
  8.50000000E-01  8.50000000E-01  8.50000000E-01  8.50000000E-01  8.50000000E-01
  8.50000000E-01  8.50000000E-01  8.50000000E-01  8.50000000E-01  8.50000000E-01
  8.50000000E-01
%FLAG IPOL                                                                      
%FORMAT(1I8)                                                                    
       0
