; mobley_8221999_GMX_OPLS.itp created by acpype (v: 2023.10.27) on Wed May 20 23:52:53 2026

; For OPLS atomtypes manual fine tuning
; AC_at:OPLS_at:OPLScode: Possible_Alternatives (see ffoplsaa.atp and ffoplsaanb.itp)
; c1:x:opls_x: []
; c3:CT:opls_135: ['136', '137', '149', '157', '158', '206', '209', '210', '223B', '224B', '245', '246', '274', '283', '284', '285', '292', '292B', '293B', '296', '307', '308', '505']
; n1:x:opls_x: []
; hc:HC:opls_140: []

[ moleculetype ]
;name            nrexcl
 mobley_8221999   3

[ atoms ]
;   nr  type  resi  res  atom  cgnr     charge      mass       ; qtot   bond_type
     1 opls_x     1   MOL    C1    1     0.210700      0.00000 ; qtot  0.211  x   
     2 opls_135     1   MOL    C2    2    -0.096100     12.01100 ; qtot  0.115  CT  
     3 opls_135     1   MOL    C3    3    -0.024300     12.01100 ; qtot  0.090  CT  
     4 opls_135     1   MOL    C4    4    -0.078400     12.01100 ; qtot  0.012  CT  
     5 opls_x     1   MOL    N1    5    -0.378800      0.00000 ; qtot -0.367  x   
     6 opls_140     1   MOL    H1    6     0.038700      1.00800 ; qtot -0.328  HC  
     7 opls_140     1   MOL    H2    7     0.038700      1.00800 ; qtot -0.289  HC  
     8 opls_140     1   MOL    H3    8     0.038700      1.00800 ; qtot -0.251  HC  
     9 opls_140     1   MOL    H4    9     0.072700      1.00800 ; qtot -0.178  HC  
    10 opls_140     1   MOL    H5   10     0.072700      1.00800 ; qtot -0.105  HC  
    11 opls_140     1   MOL    H6   11     0.052700      1.00800 ; qtot -0.053  HC  
    12 opls_140     1   MOL    H7   12     0.052700      1.00800 ; qtot  0.000  HC  

[ bonds ]
;   ai     aj funct   r             k
     1      3   1 ;    1.4656e-01    2.3814e+05 ;     C1 - C3          x - CT    
     1      5   1 ;    1.1619e-01    6.2865e+05 ;     C1 - N1          x - x     
     2      4   1 ;    1.5354e-01    1.9154e+05 ;     C2 - C4         CT - CT    
     2      6   1 ;    1.0962e-01    2.8891e+05 ;     C2 - H1         CT - HC    
     2      7   1 ;    1.0962e-01    2.8891e+05 ;     C2 - H2         CT - HC    
     2      8   1 ;    1.0962e-01    2.8891e+05 ;     C2 - H3         CT - HC    
     3      4   1 ;    1.5354e-01    1.9154e+05 ;     C3 - C4         CT - CT    
     3      9   1 ;    1.0962e-01    2.8891e+05 ;     C3 - H4         CT - HC    
     3     10   1 ;    1.0962e-01    2.8891e+05 ;     C3 - H5         CT - HC    
     4     11   1 ;    1.0962e-01    2.8891e+05 ;     C4 - H6         CT - HC    
     4     12   1 ;    1.0962e-01    2.8891e+05 ;     C4 - H7         CT - HC    

[ pairs ]
;   ai     aj    funct
     1      2      1 ;     C1 - C2    
     1     11      1 ;     C1 - H6    
     1     12      1 ;     C1 - H7    
     2      9      1 ;     C2 - H4    
     2     10      1 ;     C2 - H5    
     3      6      1 ;     C3 - H1    
     3      7      1 ;     C3 - H2    
     3      8      1 ;     C3 - H3    
     5      4      1 ;     N1 - C4    
     5      9      1 ;     N1 - H4    
     5     10      1 ;     N1 - H5    
     6     11      1 ;     H1 - H6    
     6     12      1 ;     H1 - H7    
     7     11      1 ;     H2 - H6    
     7     12      1 ;     H2 - H7    
     8     11      1 ;     H3 - H6    
     8     12      1 ;     H3 - H7    
     9     11      1 ;     H4 - H6    
     9     12      1 ;     H4 - H7    
    10     11      1 ;     H5 - H6    
    10     12      1 ;     H5 - H7    

[ angles ]
;   ai     aj     ak    funct   theta         cth
     1      3      4      1 ;    1.1202e+02    5.1354e+02 ;     C1 - C3   - C4        x -   CT - CT  
     1      3      9      1 ;    1.0945e+02    3.7765e+02 ;     C1 - C3   - H4        x -   CT - HC  
     1      3     10      1 ;    1.0945e+02    3.7765e+02 ;     C1 - C3   - H5        x -   CT - HC  
     2      4      3      1 ;    1.1263e+02    5.0099e+02 ;     C2 - C4   - C3       CT -   CT - CT  
     2      4     11      1 ;    1.0968e+02    3.6208e+02 ;     C2 - C4   - H6       CT -   CT - HC  
     2      4     12      1 ;    1.0968e+02    3.6208e+02 ;     C2 - C4   - H7       CT -   CT - HC  
     3      1      5      1 ;    1.7866e+02    4.8049e+02 ;     C3 - C1   - N1       CT -    x - x   
     3      4     11      1 ;    1.0968e+02    3.6208e+02 ;     C3 - C4   - H6       CT -   CT - HC  
     3      4     12      1 ;    1.0968e+02    3.6208e+02 ;     C3 - C4   - H7       CT -   CT - HC  
     4      2      6      1 ;    1.0968e+02    3.6208e+02 ;     C4 - C2   - H1       CT -   CT - HC  
     4      2      7      1 ;    1.0968e+02    3.6208e+02 ;     C4 - C2   - H2       CT -   CT - HC  
     4      2      8      1 ;    1.0968e+02    3.6208e+02 ;     C4 - C2   - H3       CT -   CT - HC  
     4      3      9      1 ;    1.0968e+02    3.6208e+02 ;     C4 - C3   - H4       CT -   CT - HC  
     4      3     10      1 ;    1.0968e+02    3.6208e+02 ;     C4 - C3   - H5       CT -   CT - HC  
     6      2      7      1 ;    1.0773e+02    2.9957e+02 ;     H1 - C2   - H2       HC -   CT - HC  
     6      2      8      1 ;    1.0773e+02    2.9957e+02 ;     H1 - C2   - H3       HC -   CT - HC  
     7      2      8      1 ;    1.0773e+02    2.9957e+02 ;     H2 - C2   - H3       HC -   CT - HC  
     9      3     10      1 ;    1.0773e+02    2.9957e+02 ;     H4 - C3   - H5       HC -   CT - HC  
    11      4     12      1 ;    1.0773e+02    2.9957e+02 ;     H6 - C4   - H7       HC -   CT - HC  

[ dihedrals ] ; propers
; for gromacs 4.5 or higher, using funct 9
;    i      j      k      l   func   phase     kd      pn
     1      3      4      2      9 ;     0.00   0.65084   3 ;     C1-    C3-    C4-    C2
     1      3      4     11      9 ;     0.00   0.65084   3 ;     C1-    C3-    C4-    H6
     1      3      4     12      9 ;     0.00   0.65084   3 ;     C1-    C3-    C4-    H7
     2      4      3      9      9 ;     0.00   0.54392   3 ;     C2-    C4-    C3-    H4
     2      4      3     10      9 ;     0.00   0.54392   3 ;     C2-    C4-    C3-    H5
     3      4      2      6      9 ;     0.00   0.54392   3 ;     C3-    C4-    C2-    H1
     3      4      2      7      9 ;     0.00   0.54392   3 ;     C3-    C4-    C2-    H2
     3      4      2      8      9 ;     0.00   0.54392   3 ;     C3-    C4-    C2-    H3
     5      1      3      4      9 ;   180.00   0.00000   2 ;     N1-    C1-    C3-    C4
     5      1      3      9      9 ;   180.00   0.00000   2 ;     N1-    C1-    C3-    H4
     5      1      3     10      9 ;   180.00   0.00000   2 ;     N1-    C1-    C3-    H5
     6      2      4     11      9 ;     0.00   0.50208   3 ;     H1-    C2-    C4-    H6
     6      2      4     12      9 ;     0.00   0.50208   3 ;     H1-    C2-    C4-    H7
     7      2      4     11      9 ;     0.00   0.50208   3 ;     H2-    C2-    C4-    H6
     7      2      4     12      9 ;     0.00   0.50208   3 ;     H2-    C2-    C4-    H7
     8      2      4     11      9 ;     0.00   0.50208   3 ;     H3-    C2-    C4-    H6
     8      2      4     12      9 ;     0.00   0.50208   3 ;     H3-    C2-    C4-    H7
     9      3      4     11      9 ;     0.00   0.50208   3 ;     H4-    C3-    C4-    H6
     9      3      4     12      9 ;     0.00   0.50208   3 ;     H4-    C3-    C4-    H7
    10      3      4     11      9 ;     0.00   0.50208   3 ;     H5-    C3-    C4-    H6
    10      3      4     12      9 ;     0.00   0.50208   3 ;     H5-    C3-    C4-    H7
