; mobley_8221999_GMX_OPLS.top created by acpype (v: 2023.10.27) on Wed May 20 23:52:53 2026

; Include forcefield parameters
#include "ffoplsaa.itp"

; Include mobley_8221999_GMX.itp topology
#include "mobley_8221999_GMX.itp"

; Ligand position restraints
#ifdef POSRES_LIG
#include "posre_mobley_8221999.itp"
#endif

[ system ]
 mobley_8221999

[ molecules ]
; Compound        nmols
 mobley_8221999   1     
