mobley_8221999_GMX.gro created by acpype (v: 2023.10.27) on Wed May 20 23:52:53 2026
 12
    1  MOL   C1    1  -0.224   0.330  -0.106
    1  MOL   C2    2  -0.002   0.020  -0.108
    1  MOL   C3    3  -0.110   0.245  -0.073
    1  MOL   C4    4  -0.118   0.111  -0.144
    1  MOL   N1    5  -0.315   0.398  -0.133
    1  MOL   H1    6   0.094   0.066  -0.136
    1  MOL   H2    7  -0.000   0.000   0.000
    1  MOL   H3    8  -0.010  -0.076  -0.160
    1  MOL   H4    9  -0.017   0.296  -0.101
    1  MOL   H5   10  -0.106   0.230   0.036
    1  MOL   H6   11  -0.120   0.126  -0.253
    1  MOL   H7   12  -0.212   0.060  -0.118
    8.17200     9.47200     5.77200
