; mobley_1963873_GMX_OPLS.itp created by acpype (v: 2023.10.27) on Wed May 20 23:59:28 2026

; For OPLS atomtypes manual fine tuning
; AC_at:OPLS_at:OPLScode: Possible_Alternatives (see ffoplsaa.atp and ffoplsaanb.itp)
; c:C:opls_235: ['271']
; c3:CT:opls_135: ['136', '137', '149', '157', '158', '206', '209', '210', '223B', '224B', '245', '246', '274', '283', '284', '285', '292', '292B', '293B', '296', '307', '308', '505']
; ns:x:opls_x: []
; o:O:opls_236: ['272']
; hc:HC:opls_140: []
; h1:HC:opls_140: []
; hn:H:opls_240: ['241', '290', '301', '304', '310', '504', '513']

[ moleculetype ]
;name            nrexcl
 mobley_1963873   3

[ atoms ]
;   nr  type  resi  res  atom  cgnr     charge      mass       ; qtot   bond_type
     1 opls_235     1   MOL    C1    1     0.657099     12.01100 ; qtot  0.657  C   
     2 opls_135     1   MOL    C2    2    -0.175100     12.01100 ; qtot  0.482  CT  
     3 opls_135     1   MOL    C3    3     0.080300     12.01100 ; qtot  0.562  CT  
     4 opls_x     1   MOL    N1    4    -0.582900      0.00000 ; qtot -0.021  x   
     5 opls_236     1   MOL    O1    5    -0.610100     15.99940 ; qtot -0.631  O   
     6 opls_140     1   MOL    H1    6     0.064700      1.00800 ; qtot -0.566  HC  
     7 opls_140     1   MOL    H2    7     0.064700      1.00800 ; qtot -0.501  HC  
     8 opls_140     1   MOL    H3    8     0.064700      1.00800 ; qtot -0.437  HC  
     9 opls_140     1   MOL    H4    9     0.043367      1.00800 ; qtot -0.393  HC  
    10 opls_140     1   MOL    H5   10     0.043367      1.00800 ; qtot -0.350  HC  
    11 opls_140     1   MOL    H6   11     0.043367      1.00800 ; qtot -0.307  HC  
    12 opls_240     1   MOL    H7   12     0.306500      1.00800 ; qtot -0.000  H   

[ bonds ]
;   ai     aj funct   r             k
     1      2   1 ;    1.5270e-01    1.9652e+05 ;     C1 - C2          C - CT    
     1      4   1 ;    1.3798e-01    2.8122e+05 ;     C1 - N1          C - x     
     1      5   1 ;    1.2190e-01    4.9421e+05 ;     C1 - O1          C - O     
     2      6   1 ;    1.0962e-01    2.8891e+05 ;     C2 - H1         CT - HC    
     2      7   1 ;    1.0962e-01    2.8891e+05 ;     C2 - H2         CT - HC    
     2      8   1 ;    1.0962e-01    2.8891e+05 ;     C2 - H3         CT - HC    
     3      4   1 ;    1.4556e-01    2.1896e+05 ;     C3 - N1         CT - x     
     3      9   1 ;    1.0969e-01    2.8804e+05 ;     C3 - H4         CT - HC    
     3     10   1 ;    1.0969e-01    2.8804e+05 ;     C3 - H5         CT - HC    
     3     11   1 ;    1.0969e-01    2.8804e+05 ;     C3 - H6         CT - HC    
     4     12   1 ;    1.0132e-01    3.9630e+05 ;     N1 - H7          x - H     

[ pairs ]
;   ai     aj    funct
     1      9      1 ;     C1 - H4    
     1     10      1 ;     C1 - H5    
     1     11      1 ;     C1 - H6    
     2      3      1 ;     C2 - C3    
     2     12      1 ;     C2 - H7    
     4      6      1 ;     N1 - H1    
     4      7      1 ;     N1 - H2    
     4      8      1 ;     N1 - H3    
     5      3      1 ;     O1 - C3    
     5      6      1 ;     O1 - H1    
     5      7      1 ;     O1 - H2    
     5      8      1 ;     O1 - H3    
     5     12      1 ;     O1 - H7    
     9     12      1 ;     H4 - H7    
    10     12      1 ;     H5 - H7    
    11     12      1 ;     H6 - H7    

[ angles ]
;   ai     aj     ak    funct   theta         cth
     1      2      6      1 ;    1.0895e+02    3.6510e+02 ;     C1 - C2   - H1        C -   CT - HC  
     1      2      7      1 ;    1.0895e+02    3.6510e+02 ;     C1 - C2   - H2        C -   CT - HC  
     1      2      8      1 ;    1.0895e+02    3.6510e+02 ;     C1 - C2   - H3        C -   CT - HC  
     1      4      3      1 ;    1.2196e+02    6.4350e+02 ;     C1 - N1   - C3        C -    x - CT  
     1      4     12      1 ;    1.1726e+02    4.8007e+02 ;     C1 - N1   - H7        C -    x - H   
     2      1      4      1 ;    1.1503e+02    5.5312e+02 ;     C2 - C1   - N1       CT -    C - x   
     2      1      5      1 ;    1.2290e+02    6.3973e+02 ;     C2 - C1   - O1       CT -    C - O   
     3      4     12      1 ;    1.1742e+02    4.5706e+02 ;     C3 - N1   - H7       CT -    x - H   
     4      1      5      1 ;    1.2305e+02    7.2977e+02 ;     N1 - C1   - O1        x -    C - O   
     4      3      9      1 ;    1.0849e+02    4.0493e+02 ;     N1 - C3   - H4        x -   CT - HC  
     4      3     10      1 ;    1.0849e+02    4.0493e+02 ;     N1 - C3   - H5        x -   CT - HC  
     4      3     11      1 ;    1.0849e+02    4.0493e+02 ;     N1 - C3   - H6        x -   CT - HC  
     6      2      7      1 ;    1.0773e+02    2.9957e+02 ;     H1 - C2   - H2       HC -   CT - HC  
     6      2      8      1 ;    1.0773e+02    2.9957e+02 ;     H1 - C2   - H3       HC -   CT - HC  
     7      2      8      1 ;    1.0773e+02    2.9957e+02 ;     H2 - C2   - H3       HC -   CT - HC  
     9      3     10      1 ;    1.0855e+02    2.9824e+02 ;     H4 - C3   - H5       HC -   CT - HC  
     9      3     11      1 ;    1.0855e+02    2.9824e+02 ;     H4 - C3   - H6       HC -   CT - HC  
    10      3     11      1 ;    1.0855e+02    2.9824e+02 ;     H5 - C3   - H6       HC -   CT - HC  

[ dihedrals ] ; propers
; for gromacs 4.5 or higher, using funct 9
;    i      j      k      l   func   phase     kd      pn
     1      4      3      9      9 ;     0.00   0.00000   0 ;     C1-    N1-    C3-    H4
     1      4      3     10      9 ;     0.00   0.00000   0 ;     C1-    N1-    C3-    H5
     1      4      3     11      9 ;     0.00   0.00000   0 ;     C1-    N1-    C3-    H6
     2      1      4      3      9 ;     0.00   3.89112   3 ;     C2-    C1-    N1-    C3
     2      1      4      3      9 ;   180.00   2.42672   1 ;     C2-    C1-    N1-    C3
     2      1      4      3      9 ;   180.00   3.80744   2 ;     C2-    C1-    N1-    C3
     2      1      4     12      9 ;   180.00  10.46000   2 ;     C2-    C1-    N1-    H7
     4      1      2      6      9 ;   180.00   0.00000   2 ;     N1-    C1-    C2-    H1
     4      1      2      7      9 ;   180.00   0.00000   2 ;     N1-    C1-    C2-    H2
     4      1      2      8      9 ;   180.00   0.00000   2 ;     N1-    C1-    C2-    H3
     5      1      2      6      9 ;     0.00  16.86152   1 ;     O1-    C1-    C2-    H1
     5      1      2      6      9 ;   180.00  15.31344   2 ;     O1-    C1-    C2-    H1
     5      1      2      7      9 ;     0.00  16.86152   1 ;     O1-    C1-    C2-    H2
     5      1      2      7      9 ;   180.00  15.31344   2 ;     O1-    C1-    C2-    H2
     5      1      2      8      9 ;     0.00  16.86152   1 ;     O1-    C1-    C2-    H3
     5      1      2      8      9 ;   180.00  15.31344   2 ;     O1-    C1-    C2-    H3
     5      1      4      3      9 ;   180.00  10.46000   2 ;     O1-    C1-    N1-    C3
     5      1      4     12      9 ;     0.00   8.36800   1 ;     O1-    C1-    N1-    H7
     5      1      4     12      9 ;   180.00  10.46000   2 ;     O1-    C1-    N1-    H7
     9      3      4     12      9 ;     0.00   0.00000   0 ;     H4-    C3-    N1-    H7
    10      3      4     12      9 ;     0.00   0.00000   0 ;     H5-    C3-    N1-    H7
    11      3      4     12      9 ;     0.00   0.00000   0 ;     H6-    C3-    N1-    H7

[ dihedrals ] ; impropers
; treated as propers in GROMACS to use correct AMBER analytical function
;    i      j      k      l   func   phase     kd      pn
     1      3      4     12      4 ;   180.00   4.60240   2 ;     C1-    C3-    N1-    H7
     5      1      4      2      4 ;   180.00  43.93200   2 ;     O1-    C1-    N1-    C2
