; mobley_1963873_GMX_OPLS.top created by acpype (v: 2023.10.27) on Wed May 20 23:59:28 2026

; Include forcefield parameters
#include "ffoplsaa.itp"

; Include mobley_1963873_GMX.itp topology
#include "mobley_1963873_GMX.itp"

; Ligand position restraints
#ifdef POSRES_LIG
#include "posre_mobley_1963873.itp"
#endif

[ system ]
 mobley_1963873

[ molecules ]
; Compound        nmols
 mobley_1963873   1     
