mobley_1963873_GMX.gro created by acpype (v: 2023.10.27) on Wed May 20 23:59:28 2026
 12
    1  MOL   C1    1   0.127  -0.081   0.151
    1  MOL   C2    2   0.014   0.009   0.108
    1  MOL   C3    3   0.182  -0.321   0.186
    1  MOL   N1    4   0.091  -0.214   0.151
    1  MOL   O1    5   0.238  -0.036   0.181
    1  MOL   H1    6   0.038   0.113   0.133
    1  MOL   H2    7   0.000   0.000   0.000
    1  MOL   H3    8  -0.078  -0.019   0.159
    1  MOL   H4    9   0.181  -0.333   0.295
    1  MOL   H5   10   0.283  -0.294   0.153
    1  MOL   H6   11   0.150  -0.413   0.138
    1  MOL   H7   12  -0.004  -0.239   0.125
    7.22400    10.50800     5.89800
