%VERSION  VERSION_STAMP = V0001.000  DATE = 05/20/26  23:59:29                  
%FLAG TITLE                                                                     
%FORMAT(20a4)                                                                   
N_methylacetamide                                                               
%FLAG POINTERS                                                                  
%FORMAT(10I8)                                                                   
      12       7       7       4      14       4      19       5       0       0
      47       1       4       4       5       7      10      12       7       0
       0       0       0       0       0       0       0       0      12       0
       0
%FLAG ATOM_NAME                                                                 
%FORMAT(20a4)                                                                   
C1  C2  C3  N1  O1  H1  H2  H3  H4  H5  H6  H7  
%FLAG CHARGE                                                                    
%FORMAT(5E16.8)                                                                 
  1.19738733E+01 -3.19072473E+00  1.46325069E+00 -1.06217787E+01 -1.11174252E+01
  1.17898281E+00  1.17898281E+00  1.17898281E+00  7.90246484E-01  7.90246484E-01
  7.90246484E-01  5.58513495E+00
%FLAG ATOMIC_NUMBER                                                             
%FORMAT(10I8)                                                                   
       6       6       6       7       8       1       1       1       1       1
       1       1
%FLAG MASS                                                                      
%FORMAT(5E16.8)                                                                 
  1.20100000E+01  1.20100000E+01  1.20100000E+01  1.40100000E+01  1.60000000E+01
  1.00800000E+00  1.00800000E+00  1.00800000E+00  1.00800000E+00  1.00800000E+00
  1.00800000E+00  1.00800000E+00
%FLAG ATOM_TYPE_INDEX                                                           
%FORMAT(10I8)                                                                   
       1       2       2       3       4       5       5       5       6       6
       6       7
%FLAG NUMBER_EXCLUDED_ATOMS                                                     
%FORMAT(10I8)                                                                   
      11       7       6       8       4       2       1       1       3       2
       1       1
%FLAG NONBONDED_PARM_INDEX                                                      
%FORMAT(10I8)                                                                   
       1       2       4       7      11      16      22       2       3       5
       8      12      17      23       4       5       6       9      13      18
      24       7       8       9      10      14      19      25      11      12
      13      14      15      20      26      16      17      18      19      20
      21      27      22      23      24      25      26      27      28
%FLAG RESIDUE_LABEL                                                             
%FORMAT(20a4)                                                                   
MOL 
%FLAG RESIDUE_POINTER                                                           
%FORMAT(10I8)                                                                   
       1
%FLAG BOND_FORCE_CONSTANT                                                       
%FORMAT(5E16.8)                                                                 
  2.34850000E+02  3.36070000E+02  5.90600000E+02  3.45250000E+02  2.61660000E+02
  3.44220000E+02  4.73590000E+02
%FLAG BOND_EQUIL_VALUE                                                          
%FORMAT(5E16.8)                                                                 
  1.52700000E+00  1.37980000E+00  1.21900000E+00  1.09620000E+00  1.45560000E+00
  1.09690000E+00  1.01320000E+00
%FLAG ANGLE_FORCE_CONSTANT                                                      
%FORMAT(5E16.8)                                                                 
  4.36300000E+01  7.69000000E+01  5.73700000E+01  6.61000000E+01  7.64500000E+01
  5.46200000E+01  8.72100000E+01  4.83900000E+01  3.58000000E+01  3.56400000E+01
%FLAG ANGLE_EQUIL_VALUE                                                         
%FORMAT(5E16.8)                                                                 
  1.90153704E+00  2.12860447E+00  2.04657396E+00  2.00765310E+00  2.14501057E+00
  2.04936649E+00  2.14762857E+00  1.89350852E+00  1.88024401E+00  1.89455572E+00
%FLAG DIHEDRAL_FORCE_CONSTANT                                                   
%FORMAT(5E16.8)                                                                 
  0.00000000E+00  5.80000000E-01  9.10000000E-01  9.30000000E-01  2.50000000E+00
  0.00000000E+00  4.03000000E+00  3.66000000E+00  2.00000000E+00  0.00000000E+00
  1.05000000E+01  1.10000000E+00
%FLAG DIHEDRAL_PERIODICITY                                                      
%FORMAT(5E16.8)                                                                 
  1.00000000E+00  1.00000000E+00  2.00000000E+00  3.00000000E+00  2.00000000E+00
  2.00000000E+00  1.00000000E+00  2.00000000E+00  1.00000000E+00  2.00000000E+00
  2.00000000E+00  2.00000000E+00
%FLAG DIHEDRAL_PHASE                                                            
%FORMAT(5E16.8)                                                                 
  0.00000000E+00  3.14159400E+00  3.14159400E+00  0.00000000E+00  3.14159400E+00
  3.14159400E+00  0.00000000E+00  3.14159400E+00  0.00000000E+00  0.00000000E+00
  3.14159400E+00  3.14159400E+00
%FLAG SCEE_SCALE_FACTOR                                                         
%FORMAT(5E16.8)                                                                 
  1.20000000E+00  1.20000000E+00  1.20000000E+00  1.20000000E+00  1.20000000E+00
  1.20000000E+00  1.20000000E+00  1.20000000E+00  1.20000000E+00  1.20000000E+00
  0.00000000E+00  0.00000000E+00
%FLAG SCNB_SCALE_FACTOR                                                         
%FORMAT(5E16.8)                                                                 
  2.00000000E+00  2.00000000E+00  2.00000000E+00  2.00000000E+00  2.00000000E+00
  2.00000000E+00  2.00000000E+00  2.00000000E+00  2.00000000E+00  2.00000000E+00
  0.00000000E+00  0.00000000E+00
%FLAG SOLTY                                                                     
%FORMAT(5E16.8)                                                                 
  0.00000000E+00  0.00000000E+00  0.00000000E+00  0.00000000E+00  0.00000000E+00
  0.00000000E+00  0.00000000E+00
%FLAG LENNARD_JONES_ACOEF                                                       
%FORMAT(5E16.8)                                                                 
  6.96551276E+05  8.43969952E+05  1.02073671E+06  6.99381362E+05  8.48258258E+05
  7.01825028E+05  5.17507491E+05  6.30925504E+05  5.17814271E+05  3.76435470E+05
  8.12662403E+04  1.00235148E+05  8.07866982E+04  5.68021765E+04  7.94617769E+03
  5.63013422E+04  6.97998263E+04  5.58085097E+04  3.86646725E+04  5.22955465E+03
  3.39005767E+03  1.71458823E+03  2.23577481E+03  1.65195713E+03  9.87857350E+02
  9.47421632E+01  5.24570081E+01  1.34728399E-01
%FLAG LENNARD_JONES_BCOEF                                                       
%FORMAT(5E16.8)                                                                 
  5.24668528E+02  5.90251928E+02  6.63431737E+02  5.48900066E+02  6.17825399E+02
  5.74088001E+02  4.98871431E+02  5.62969425E+02  5.21008860E+02  4.69350655E+02
  1.21392023E+02  1.37787728E+02  1.26366740E+02  1.11953944E+02  2.57122925E+01
  1.01040256E+02  1.14981426E+02  1.05029928E+02  9.23664132E+01  2.08590256E+01
  1.67944276E+01  1.46824710E+01  1.71355763E+01  1.50468782E+01  1.22938581E+01
  2.33785449E+00  1.73959275E+00  7.34107347E-02
%FLAG BONDS_INC_HYDROGEN                                                        
%FORMAT(10I8)                                                                   
       3      15       4       3      18       4       3      21       4       6
      24       6       6      27       6       6      30       6       9      33
       7
%FLAG BONDS_WITHOUT_HYDROGEN                                                    
%FORMAT(10I8)                                                                   
       0       3       1       0       9       2       0      12       3       6
       9       5
%FLAG ANGLES_INC_HYDROGEN                                                       
%FORMAT(10I8)                                                                   
       0       3      15       1       0       3      18       1       0       3
      21       1       0       9      33       3       6       9      33       6
       9       6      24       8       9       6      27       8       9       6
      30       8      15       3      18       9      15       3      21       9
      18       3      21       9      24       6      27      10      24       6
      30      10      27       6      30      10
%FLAG ANGLES_WITHOUT_HYDROGEN                                                   
%FORMAT(10I8)                                                                   
       0       9       6       2       3       0       9       4       3       0
      12       5       9       0      12       7
%FLAG DIHEDRALS_INC_HYDROGEN                                                    
%FORMAT(10I8)                                                                   
       0       9       6      24       1       0       9       6      27       1
       0       9       6      30       1       3       0       9      33       5
       9       0       3      15       6       9       0       3      18       6
       9       0       3      21       6      12       0       3      15       7
      12       0      -3      15       8      12       0       3      18       7
      12       0      -3      18       8      12       0       3      21       7
      12       0      -3      21       8      12       0       9      33       9
      12       0      -9      33       5      24       6       9      33      10
      27       6       9      33      10      30       6       9      33      10
       0       6      -9     -33      12
%FLAG DIHEDRALS_WITHOUT_HYDROGEN                                                
%FORMAT(10I8)                                                                   
       3       0       9       6       2       3       0      -9       6       3
       3       0      -9       6       4      12       0       9       6       5
      12       0      -9      -3      11
%FLAG EXCLUDED_ATOMS_LIST                                                       
%FORMAT(10I8)                                                                   
       2       3       4       5       6       7       8       9      10      11
      12       3       4       5       6       7       8      12       4       5
       9      10      11      12       5       6       7       8       9      10
      11      12       6       7       8      12       7       8       8       0
      10      11      12      11      12      12       0
%FLAG HBOND_ACOEF                                                               
%FORMAT(5E16.8)                                                                 

%FLAG HBOND_BCOEF                                                               
%FORMAT(5E16.8)                                                                 

%FLAG HBCUT                                                                     
%FORMAT(5E16.8)                                                                 

%FLAG AMBER_ATOM_TYPE                                                           
%FORMAT(20a4)                                                                   
c   c3  c3  ns  o   hc  hc  hc  h1  h1  h1  hn  
%FLAG TREE_CHAIN_CLASSIFICATION                                                 
%FORMAT(20a4)                                                                   
BLA BLA BLA BLA BLA BLA BLA BLA BLA BLA BLA BLA 
%FLAG JOIN_ARRAY                                                                
%FORMAT(10I8)                                                                   
       0       0       0       0       0       0       0       0       0       0
       0       0
%FLAG IROTAT                                                                    
%FORMAT(10I8)                                                                   
       0       0       0       0       0       0       0       0       0       0
       0       0
%FLAG RADIUS_SET                                                                
%FORMAT(1a80)                                                                   
modified Bondi radii (mbondi)                                                   
%FLAG RADII                                                                     
%FORMAT(5E16.8)                                                                 
  1.70000000E+00  1.70000000E+00  1.70000000E+00  1.55000000E+00  1.50000000E+00
  1.30000000E+00  1.30000000E+00  1.30000000E+00  1.30000000E+00  1.30000000E+00
  1.30000000E+00  1.30000000E+00
%FLAG SCREEN                                                                    
%FORMAT(5E16.8)                                                                 
  7.20000000E-01  7.20000000E-01  7.20000000E-01  7.90000000E-01  8.50000000E-01
  8.50000000E-01  8.50000000E-01  8.50000000E-01  8.50000000E-01  8.50000000E-01
  8.50000000E-01  8.50000000E-01
%FLAG IPOL                                                                      
%FORMAT(1I8)                                                                    
       0
