; mobley_6497672_GMX.itp created by acpype (v: 2023.10.27) on Thu May 14 13:56:35 2026

[ atomtypes ]
;name   bond_type     mass     charge   ptype   sigma         epsilon       Amb
 ce       ce          0.00000  0.00000   A     3.31521e-01   4.13379e-01 ; 1.86  0.0988
 c2       c2          0.00000  0.00000   A     3.31521e-01   4.13379e-01 ; 1.86  0.0988
 c        c           0.00000  0.00000   A     3.31521e-01   4.13379e-01 ; 1.86  0.0988
 c3       c3          0.00000  0.00000   A     3.39771e-01   4.51035e-01 ; 1.91  0.1078
 o        o           0.00000  0.00000   A     3.04812e-01   6.12119e-01 ; 1.71  0.1463
 ha       ha          0.00000  0.00000   A     2.62548e-01   6.73624e-02 ; 1.47  0.0161
 h4       h4          0.00000  0.00000   A     2.53639e-01   6.73624e-02 ; 1.42  0.0161
 hc       hc          0.00000  0.00000   A     2.60018e-01   8.70272e-02 ; 1.46  0.0208

[ moleculetype ]
;name            nrexcl
 mobley_6497672   3

[ atoms ]
;   nr  type  resi  res  atom  cgnr     charge      mass       ; qtot   bond_type
     1   ce     1   MOL    C1    1    -0.279200     12.01000 ; qtot -0.279
     2   c2     1   MOL    C2    2    -0.092200     12.01000 ; qtot -0.371
     3    c     1   MOL    C3    3     0.560099     12.01000 ; qtot 0.189
     4   c3     1   MOL    C4    4    -0.080900     12.01000 ; qtot 0.108
     5    o     1   MOL    O1    5    -0.526100     16.00000 ; qtot -0.418
     6   ha     1   MOL    H1    6     0.149000      1.00800 ; qtot -0.269
     7   ha     1   MOL    H2    7     0.122000      1.00800 ; qtot -0.147
     8   h4     1   MOL    H3    8    -0.009800      1.00800 ; qtot -0.157
     9   hc     1   MOL    H4    9     0.052367      1.00800 ; qtot -0.105
    10   hc     1   MOL    H5   10     0.052367      1.00800 ; qtot -0.052
    11   hc     1   MOL    H6   11     0.052367      1.00800 ; qtot -0.000

[ bonds ]
;   ai     aj funct   r             k
     1      2   1    1.3457e-01    3.5505e+05 ;     C1 - C2    
     1      3   1    1.4848e-01    2.2406e+05 ;     C1 - C3    
     1      6   1    1.0880e-01    2.9923e+05 ;     C1 - H1    
     2      4   1    1.5088e-01    2.0786e+05 ;     C2 - C4    
     2      7   1    1.0882e-01    2.9898e+05 ;     C2 - H2    
     3      5   1    1.2190e-01    4.9421e+05 ;     C3 - O1    
     3      8   1    1.1123e-01    2.6984e+05 ;     C3 - H3    
     4      9   1    1.0962e-01    2.8891e+05 ;     C4 - H4    
     4     10   1    1.0962e-01    2.8891e+05 ;     C4 - H5    
     4     11   1    1.0962e-01    2.8891e+05 ;     C4 - H6    

[ pairs ]
;   ai     aj    funct
     1      9      1 ;     C1 - H4    
     1     10      1 ;     C1 - H5    
     1     11      1 ;     C1 - H6    
     2      5      1 ;     C2 - O1    
     2      8      1 ;     C2 - H3    
     3      4      1 ;     C3 - C4    
     3      7      1 ;     C3 - H2    
     6      4      1 ;     H1 - C4    
     6      5      1 ;     H1 - O1    
     6      7      1 ;     H1 - H2    
     6      8      1 ;     H1 - H3    
     7      9      1 ;     H2 - H4    
     7     10      1 ;     H2 - H5    
     7     11      1 ;     H2 - H6    

[ angles ]
;   ai     aj     ak    funct   theta         cth
     1      2      4      1    1.2558e+02    5.0710e+02 ;     C1 - C2     - C4    
     1      2      7      1    1.2049e+02    3.8618e+02 ;     C1 - C2     - H2    
     1      3      5      1    1.2324e+02    6.5262e+02 ;     C1 - C3     - O1    
     1      3      8      1    1.1489e+02    3.6376e+02 ;     C1 - C3     - H3    
     2      1      3      1    1.2200e+02    5.1974e+02 ;     C2 - C1     - C3    
     2      1      6      1    1.2000e+02    3.8694e+02 ;     C2 - C1     - H1    
     2      4      9      1    1.1065e+02    3.6618e+02 ;     C2 - C4     - H4    
     2      4     10      1    1.1065e+02    3.6618e+02 ;     C2 - C4     - H5    
     2      4     11      1    1.1065e+02    3.6618e+02 ;     C2 - C4     - H6    
     3      1      6      1    1.1641e+02    3.6242e+02 ;     C3 - C1     - H1    
     4      2      7      1    1.1505e+02    3.5941e+02 ;     C4 - C2     - H2    
     5      3      8      1    1.2062e+02    5.0191e+02 ;     O1 - C3     - H3    
     9      4     10      1    1.0773e+02    2.9957e+02 ;     H4 - C4     - H5    
     9      4     11      1    1.0773e+02    2.9957e+02 ;     H4 - C4     - H6    
    10      4     11      1    1.0773e+02    2.9957e+02 ;     H5 - C4     - H6    

[ dihedrals ] ; propers
; for gromacs 4.5 or higher, using funct 9
;    i      j      k      l   func   phase     kd      pn
     1      2      4      9      9     0.00   0.00000   0 ;     C1-    C2-    C4-    H4
     1      2      4     10      9     0.00   0.00000   0 ;     C1-    C2-    C4-    H5
     1      2      4     11      9     0.00   0.00000   0 ;     C1-    C2-    C4-    H6
     2      1      3      5      9   180.00   9.10020   2 ;     C2-    C1-    C3-    O1
     2      1      3      8      9   180.00   9.10020   2 ;     C2-    C1-    C3-    H3
     3      1      2      4      9   180.00  27.82360   2 ;     C3-    C1-    C2-    C4
     3      1      2      7      9   180.00  27.82360   2 ;     C3-    C1-    C2-    H2
     6      1      2      4      9   180.00  27.82360   2 ;     H1-    C1-    C2-    C4
     6      1      2      7      9   180.00  27.82360   2 ;     H1-    C1-    C2-    H2
     6      1      3      5      9   180.00   9.10020   2 ;     H1-    C1-    C3-    O1
     6      1      3      8      9   180.00   9.10020   2 ;     H1-    C1-    C3-    H3
     7      2      4      9      9     0.00   0.00000   0 ;     H2-    C2-    C4-    H4
     7      2      4     10      9     0.00   0.00000   0 ;     H2-    C2-    C4-    H5
     7      2      4     11      9     0.00   0.00000   0 ;     H2-    C2-    C4-    H6

[ dihedrals ] ; impropers
; treated as propers in GROMACS to use correct AMBER analytical function
;    i      j      k      l   func   phase     kd      pn
     1      8      3      5      4   180.00  43.93200   2 ;     C1-    H3-    C3-    O1
     4      1      2      7      4   180.00   4.60240   2 ;     C4-    C1-    C2-    H2
     6      1      2      3      4   180.00   4.60240   2 ;     H1-    C1-    C2-    C3
