; mobley_3727287_GMX.itp created by acpype (v: 2023.10.27) on Thu May 14 14:01:33 2026

[ atomtypes ]
;name   bond_type     mass     charge   ptype   sigma         epsilon       Amb
 cc       cc          0.00000  0.00000   A     3.31521e-01   4.13379e-01 ; 1.86  0.0988
 cd       cd          0.00000  0.00000   A     3.31521e-01   4.13379e-01 ; 1.86  0.0988
 c        c           0.00000  0.00000   A     3.31521e-01   4.13379e-01 ; 1.86  0.0988
 o        o           0.00000  0.00000   A     3.04812e-01   6.12119e-01 ; 1.71  0.1463
 ha       ha          0.00000  0.00000   A     2.62548e-01   6.73624e-02 ; 1.47  0.0161

[ moleculetype ]
;name            nrexcl
 mobley_3727287   3

[ atoms ]
;   nr  type  resi  res  atom  cgnr     charge      mass       ; qtot   bond_type
     1   cc     1   MOL    C1    1    -0.184200     12.01000 ; qtot -0.184
     2   cd     1   MOL    C3    2    -0.184200     12.01000 ; qtot -0.368
     3    c     1   MOL    C2    3     0.538500     12.01000 ; qtot 0.170
     4    o     1   MOL    O3    4    -0.490100     16.00000 ; qtot -0.320
     5   cc     1   MOL    C8    5    -0.184200     12.01000 ; qtot -0.504
     6   cd     1   MOL    C6    6    -0.184200     12.01000 ; qtot -0.688
     7    c     1   MOL    C4    7     0.538500     12.01000 ; qtot -0.150
     8    o     1   MOL    O4    8    -0.490100     16.00000 ; qtot -0.640
     9   ha     1   MOL    H0    9     0.160000      1.00800 ; qtot -0.480
    10   ha     1   MOL    H1   10     0.160000      1.00800 ; qtot -0.320
    11   ha     1   MOL    H2   11     0.160000      1.00800 ; qtot -0.160
    12   ha     1   MOL    H3   12     0.160000      1.00800 ; qtot 0.000

[ bonds ]
;   ai     aj funct   r             k
     1      2   1    1.3730e-01    3.2321e+05 ;     C1 - C3    
     1      7   1    1.4687e-01    2.3579e+05 ;     C1 - C4    
     1      9   1    1.0838e-01    3.0470e+05 ;     C1 - H0    
     2      3   1    1.4728e-01    2.3273e+05 ;     C3 - C2    
     2     10   1    1.0835e-01    3.0510e+05 ;     C3 - H1    
     3      4   1    1.2190e-01    4.9421e+05 ;     C2 - O3    
     3      5   1    1.4687e-01    2.3579e+05 ;     C2 - C8    
     5      6   1    1.3730e-01    3.2321e+05 ;     C8 - C6    
     5     11   1    1.0838e-01    3.0470e+05 ;     C8 - H2    
     6      7   1    1.4728e-01    2.3273e+05 ;     C6 - C4    
     6     12   1    1.0835e-01    3.0510e+05 ;     C6 - H3    
     7      8   1    1.2190e-01    4.9421e+05 ;     C4 - O4    

[ pairs ]
;   ai     aj    funct
     1      4      1 ;     C1 - O3    
     1      5      1 ;     C1 - C8    
     1     12      1 ;     C1 - H3    
     2      6      1 ;     C3 - C6    
     2      8      1 ;     C3 - O4    
     2     11      1 ;     C3 - H2    
     3     12      1 ;     C2 - H3    
     4      6      1 ;     O3 - C6    
     4     10      1 ;     O3 - H1    
     4     11      1 ;     O3 - H2    
     5      8      1 ;     C8 - O4    
     5     10      1 ;     C8 - H1    
     7      3      1 ;     C4 - C2    
     7     10      1 ;     C4 - H1    
     7     11      1 ;     C4 - H2    
     8     12      1 ;     O4 - H3    
     9      3      1 ;     H0 - C2    
     9      6      1 ;     H0 - C6    
     9      8      1 ;     H0 - O4    
     9     10      1 ;     H0 - H1    
    11     12      1 ;     H2 - H3    

[ angles ]
;   ai     aj     ak    funct   theta         cth
     1      2      3      1    1.2132e+02    5.1965e+02 ;     C1 - C3     - C2    
     1      2     10      1    1.2170e+02    3.7865e+02 ;     C1 - C3     - H1    
     1      7      6      1    1.1738e+02    5.1237e+02 ;     C1 - C4     - C6    
     1      7      8      1    1.2406e+02    6.5572e+02 ;     C1 - C4     - O4    
     2      1      7      1    1.2132e+02    5.2049e+02 ;     C3 - C1     - C4    
     2      1      9      1    1.2140e+02    3.7907e+02 ;     C3 - C1     - H0    
     2      3      4      1    1.2371e+02    6.5530e+02 ;     C3 - C2     - O3    
     2      3      5      1    1.1738e+02    5.1237e+02 ;     C3 - C2     - C8    
     3      2     10      1    1.1638e+02    3.6526e+02 ;     C2 - C3     - H1    
     3      5      6      1    1.2132e+02    5.2049e+02 ;     C2 - C8     - C6    
     3      5     11      1    1.1681e+02    3.6543e+02 ;     C2 - C8     - H2    
     4      3      5      1    1.2406e+02    6.5572e+02 ;     O3 - C2     - C8    
     5      6      7      1    1.2132e+02    5.1965e+02 ;     C8 - C6     - C4    
     5      6     12      1    1.2170e+02    3.7865e+02 ;     C8 - C6     - H3    
     6      5     11      1    1.2140e+02    3.7907e+02 ;     C6 - C8     - H2    
     6      7      8      1    1.2371e+02    6.5530e+02 ;     C6 - C4     - O4    
     7      1      9      1    1.1681e+02    3.6543e+02 ;     C4 - C1     - H0    
     7      6     12      1    1.1638e+02    3.6526e+02 ;     C4 - C6     - H3    

[ dihedrals ] ; propers
; for gromacs 4.5 or higher, using funct 9
;    i      j      k      l   func   phase     kd      pn
     1      2      3      4      9   180.00  12.02900   2 ;     C1-    C3-    C2-    O3
     1      2      3      5      9   180.00  12.02900   2 ;     C1-    C3-    C2-    C8
     1      7      6      5      9   180.00  12.02900   2 ;     C1-    C4-    C6-    C8
     1      7      6     12      9   180.00  12.02900   2 ;     C1-    C4-    C6-    H3
     2      1      7      6      9   180.00  12.02900   2 ;     C3-    C1-    C4-    C6
     2      1      7      8      9   180.00  12.02900   2 ;     C3-    C1-    C4-    O4
     2      3      5      6      9   180.00  12.02900   2 ;     C3-    C2-    C8-    C6
     2      3      5     11      9   180.00  12.02900   2 ;     C3-    C2-    C8-    H2
     3      5      6      7      9   180.00  16.73600   2 ;     C2-    C8-    C6-    C4
     3      5      6     12      9   180.00  16.73600   2 ;     C2-    C8-    C6-    H3
     4      3      2     10      9   180.00  12.02900   2 ;     O3-    C2-    C3-    H1
     4      3      5      6      9   180.00  12.02900   2 ;     O3-    C2-    C8-    C6
     4      3      5     11      9   180.00  12.02900   2 ;     O3-    C2-    C8-    H2
     5      3      2     10      9   180.00  12.02900   2 ;     C8-    C2-    C3-    H1
     5      6      7      8      9   180.00  12.02900   2 ;     C8-    C6-    C4-    O4
     7      1      2      3      9   180.00  16.73600   2 ;     C4-    C1-    C3-    C2
     7      1      2     10      9   180.00  16.73600   2 ;     C4-    C1-    C3-    H1
     7      6      5     11      9   180.00  16.73600   2 ;     C4-    C6-    C8-    H2
     8      7      6     12      9   180.00  12.02900   2 ;     O4-    C4-    C6-    H3
     9      1      2      3      9   180.00  16.73600   2 ;     H0-    C1-    C3-    C2
     9      1      2     10      9   180.00  16.73600   2 ;     H0-    C1-    C3-    H1
     9      1      7      6      9   180.00  12.02900   2 ;     H0-    C1-    C4-    C6
     9      1      7      8      9   180.00  12.02900   2 ;     H0-    C1-    C4-    O4
    11      5      6     12      9   180.00  16.73600   2 ;     H2-    C8-    C6-    H3

[ dihedrals ] ; impropers
; treated as propers in GROMACS to use correct AMBER analytical function
;    i      j      k      l   func   phase     kd      pn
     1      6      7      8      4   180.00  43.93200   2 ;     C1-    C6-    C4-    O4
     3      1      2     10      4   180.00   4.60240   2 ;     C2-    C1-    C3-    H1
     3      6      5     11      4   180.00   4.60240   2 ;     C2-    C6-    C8-    H2
     5      2      3      4      4   180.00  43.93200   2 ;     C8-    C3-    C2-    O3
     7      5      6     12      4   180.00   4.60240   2 ;     C4-    C8-    C6-    H3
     9      1      2      7      4   180.00   4.60240   2 ;     H0-    C1-    C3-    C4
