; mobley_3318135_GMX.itp created by acpype (v: 2023.10.27) on Thu May 14 13:34:35 2026

[ atomtypes ]
;name   bond_type     mass     charge   ptype   sigma         epsilon       Amb
 c        c           0.00000  0.00000   A     3.31521e-01   4.13379e-01 ; 1.86  0.0988
 c3       c3          0.00000  0.00000   A     3.39771e-01   4.51035e-01 ; 1.91  0.1078
 o        o           0.00000  0.00000   A     3.04812e-01   6.12119e-01 ; 1.71  0.1463
 hc       hc          0.00000  0.00000   A     2.60018e-01   8.70272e-02 ; 1.46  0.0208

[ moleculetype ]
;name            nrexcl
 mobley_3318135   3

[ atoms ]
;   nr  type  resi  res  atom  cgnr     charge      mass       ; qtot   bond_type
     1    c     1   MOL    C1    1     0.563098     12.01000 ; qtot 0.563
     2   c3     1   MOL    C2    2    -0.092100     12.01000 ; qtot 0.471
     3   c3     1   MOL    C3    3    -0.092100     12.01000 ; qtot 0.379
     4   c3     1   MOL    C4    4    -0.182400     12.01000 ; qtot 0.196
     5   c3     1   MOL    C5    5    -0.182400     12.01000 ; qtot 0.014
     6   c3     1   MOL    C6    6    -0.079400     12.01000 ; qtot -0.065
     7   c3     1   MOL    C7    7    -0.079400     12.01000 ; qtot -0.145
     8   c3     1   MOL    C8    8    -0.075400     12.01000 ; qtot -0.220
     9   c3     1   MOL    C9    9    -0.075400     12.01000 ; qtot -0.296
    10    o     1   MOL    O1   10    -0.529100     16.00000 ; qtot -0.825
    11   hc     1   MOL    H1   11     0.034367      1.00800 ; qtot -0.790
    12   hc     1   MOL    H2   12     0.034367      1.00800 ; qtot -0.756
    13   hc     1   MOL    H3   13     0.034367      1.00800 ; qtot -0.722
    14   hc     1   MOL    H4   14     0.034367      1.00800 ; qtot -0.687
    15   hc     1   MOL    H5   15     0.034367      1.00800 ; qtot -0.653
    16   hc     1   MOL    H6   16     0.034367      1.00800 ; qtot -0.618
    17   hc     1   MOL    H7   17     0.063200      1.00800 ; qtot -0.555
    18   hc     1   MOL    H8   18     0.063200      1.00800 ; qtot -0.492
    19   hc     1   MOL    H9   19     0.063200      1.00800 ; qtot -0.429
    20   hc     1   MOL   H10   20     0.063200      1.00800 ; qtot -0.366
    21   hc     1   MOL   H11   21     0.036200      1.00800 ; qtot -0.329
    22   hc     1   MOL   H12   22     0.036200      1.00800 ; qtot -0.293
    23   hc     1   MOL   H13   23     0.036200      1.00800 ; qtot -0.257
    24   hc     1   MOL   H14   24     0.036200      1.00800 ; qtot -0.221
    25   hc     1   MOL   H15   25     0.055200      1.00800 ; qtot -0.166
    26   hc     1   MOL   H16   26     0.055200      1.00800 ; qtot -0.110
    27   hc     1   MOL   H17   27     0.055200      1.00800 ; qtot -0.055
    28   hc     1   MOL   H18   28     0.055200      1.00800 ; qtot -0.000

[ bonds ]
;   ai     aj funct   r             k
     1      4   1    1.5270e-01    1.9652e+05 ;     C1 - C4    
     1      5   1    1.5270e-01    1.9652e+05 ;     C1 - C5    
     1     10   1    1.2190e-01    4.9421e+05 ;     C1 - O1    
     2      6   1    1.5354e-01    1.9154e+05 ;     C2 - C6    
     2     11   1    1.0962e-01    2.8891e+05 ;     C2 - H1    
     2     12   1    1.0962e-01    2.8891e+05 ;     C2 - H2    
     2     13   1    1.0962e-01    2.8891e+05 ;     C2 - H3    
     3      7   1    1.5354e-01    1.9154e+05 ;     C3 - C7    
     3     14   1    1.0962e-01    2.8891e+05 ;     C3 - H4    
     3     15   1    1.0962e-01    2.8891e+05 ;     C3 - H5    
     3     16   1    1.0962e-01    2.8891e+05 ;     C3 - H6    
     4      8   1    1.5354e-01    1.9154e+05 ;     C4 - C8    
     4     17   1    1.0962e-01    2.8891e+05 ;     C4 - H7    
     4     18   1    1.0962e-01    2.8891e+05 ;     C4 - H8    
     5      9   1    1.5354e-01    1.9154e+05 ;     C5 - C9    
     5     19   1    1.0962e-01    2.8891e+05 ;     C5 - H9    
     5     20   1    1.0962e-01    2.8891e+05 ;     C5 - H10   
     6      8   1    1.5354e-01    1.9154e+05 ;     C6 - C8    
     6     21   1    1.0962e-01    2.8891e+05 ;     C6 - H11   
     6     22   1    1.0962e-01    2.8891e+05 ;     C6 - H12   
     7      9   1    1.5354e-01    1.9154e+05 ;     C7 - C9    
     7     23   1    1.0962e-01    2.8891e+05 ;     C7 - H13   
     7     24   1    1.0962e-01    2.8891e+05 ;     C7 - H14   
     8     25   1    1.0962e-01    2.8891e+05 ;     C8 - H15   
     8     26   1    1.0962e-01    2.8891e+05 ;     C8 - H16   
     9     27   1    1.0962e-01    2.8891e+05 ;     C9 - H17   
     9     28   1    1.0962e-01    2.8891e+05 ;     C9 - H18   

[ pairs ]
;   ai     aj    funct
     1      6      1 ;     C1 - C6    
     1      7      1 ;     C1 - C7    
     1     25      1 ;     C1 - H15   
     1     26      1 ;     C1 - H16   
     1     27      1 ;     C1 - H17   
     1     28      1 ;     C1 - H18   
     2      4      1 ;     C2 - C4    
     2     25      1 ;     C2 - H15   
     2     26      1 ;     C2 - H16   
     3      5      1 ;     C3 - C5    
     3     27      1 ;     C3 - H17   
     3     28      1 ;     C3 - H18   
     4      9      1 ;     C4 - C9    
     4     19      1 ;     C4 - H9    
     4     20      1 ;     C4 - H10   
     4     21      1 ;     C4 - H11   
     4     22      1 ;     C4 - H12   
     5      8      1 ;     C5 - C8    
     5     17      1 ;     C5 - H7    
     5     18      1 ;     C5 - H8    
     5     23      1 ;     C5 - H13   
     5     24      1 ;     C5 - H14   
     6     17      1 ;     C6 - H7    
     6     18      1 ;     C6 - H8    
     7     19      1 ;     C7 - H9    
     7     20      1 ;     C7 - H10   
     8     11      1 ;     C8 - H1    
     8     12      1 ;     C8 - H2    
     8     13      1 ;     C8 - H3    
     9     14      1 ;     C9 - H4    
     9     15      1 ;     C9 - H5    
     9     16      1 ;     C9 - H6    
    10      8      1 ;     O1 - C8    
    10      9      1 ;     O1 - C9    
    10     17      1 ;     O1 - H7    
    10     18      1 ;     O1 - H8    
    10     19      1 ;     O1 - H9    
    10     20      1 ;     O1 - H10   
    11     21      1 ;     H1 - H11   
    11     22      1 ;     H1 - H12   
    12     21      1 ;     H2 - H11   
    12     22      1 ;     H2 - H12   
    13     21      1 ;     H3 - H11   
    13     22      1 ;     H3 - H12   
    14     23      1 ;     H4 - H13   
    14     24      1 ;     H4 - H14   
    15     23      1 ;     H5 - H13   
    15     24      1 ;     H5 - H14   
    16     23      1 ;     H6 - H13   
    16     24      1 ;     H6 - H14   
    17     25      1 ;     H7 - H15   
    17     26      1 ;     H7 - H16   
    18     25      1 ;     H8 - H15   
    18     26      1 ;     H8 - H16   
    19     27      1 ;     H9 - H17   
    19     28      1 ;     H9 - H18   
    20     27      1 ;    H10 - H17   
    20     28      1 ;    H10 - H18   
    21     25      1 ;    H11 - H15   
    21     26      1 ;    H11 - H16   
    22     25      1 ;    H12 - H15   
    22     26      1 ;    H12 - H16   
    23     27      1 ;    H13 - H17   
    23     28      1 ;    H13 - H18   
    24     27      1 ;    H14 - H17   
    24     28      1 ;    H14 - H18   

[ angles ]
;   ai     aj     ak    funct   theta         cth
     1      4      8      1    1.1143e+02    5.0509e+02 ;     C1 - C4     - C8    
     1      4     17      1    1.0895e+02    3.6510e+02 ;     C1 - C4     - H7    
     1      4     18      1    1.0895e+02    3.6510e+02 ;     C1 - C4     - H8    
     1      5      9      1    1.1143e+02    5.0509e+02 ;     C1 - C5     - C9    
     1      5     19      1    1.0895e+02    3.6510e+02 ;     C1 - C5     - H9    
     1      5     20      1    1.0895e+02    3.6510e+02 ;     C1 - C5     - H10   
     2      6      8      1    1.1263e+02    5.0099e+02 ;     C2 - C6     - C8    
     2      6     21      1    1.0968e+02    3.6208e+02 ;     C2 - C6     - H11   
     2      6     22      1    1.0968e+02    3.6208e+02 ;     C2 - C6     - H12   
     3      7      9      1    1.1263e+02    5.0099e+02 ;     C3 - C7     - C9    
     3      7     23      1    1.0968e+02    3.6208e+02 ;     C3 - C7     - H13   
     3      7     24      1    1.0968e+02    3.6208e+02 ;     C3 - C7     - H14   
     4      1      5      1    1.1668e+02    4.9497e+02 ;     C4 - C1     - C5    
     4      1     10      1    1.2290e+02    6.3973e+02 ;     C4 - C1     - O1    
     4      8      6      1    1.1263e+02    5.0099e+02 ;     C4 - C8     - C6    
     4      8     25      1    1.0968e+02    3.6208e+02 ;     C4 - C8     - H15   
     4      8     26      1    1.0968e+02    3.6208e+02 ;     C4 - C8     - H16   
     5      1     10      1    1.2290e+02    6.3973e+02 ;     C5 - C1     - O1    
     5      9      7      1    1.1263e+02    5.0099e+02 ;     C5 - C9     - C7    
     5      9     27      1    1.0968e+02    3.6208e+02 ;     C5 - C9     - H17   
     5      9     28      1    1.0968e+02    3.6208e+02 ;     C5 - C9     - H18   
     6      2     11      1    1.0968e+02    3.6208e+02 ;     C6 - C2     - H1    
     6      2     12      1    1.0968e+02    3.6208e+02 ;     C6 - C2     - H2    
     6      2     13      1    1.0968e+02    3.6208e+02 ;     C6 - C2     - H3    
     6      8     25      1    1.0968e+02    3.6208e+02 ;     C6 - C8     - H15   
     6      8     26      1    1.0968e+02    3.6208e+02 ;     C6 - C8     - H16   
     7      3     14      1    1.0968e+02    3.6208e+02 ;     C7 - C3     - H4    
     7      3     15      1    1.0968e+02    3.6208e+02 ;     C7 - C3     - H5    
     7      3     16      1    1.0968e+02    3.6208e+02 ;     C7 - C3     - H6    
     7      9     27      1    1.0968e+02    3.6208e+02 ;     C7 - C9     - H17   
     7      9     28      1    1.0968e+02    3.6208e+02 ;     C7 - C9     - H18   
     8      4     17      1    1.0968e+02    3.6208e+02 ;     C8 - C4     - H7    
     8      4     18      1    1.0968e+02    3.6208e+02 ;     C8 - C4     - H8    
     8      6     21      1    1.0968e+02    3.6208e+02 ;     C8 - C6     - H11   
     8      6     22      1    1.0968e+02    3.6208e+02 ;     C8 - C6     - H12   
     9      5     19      1    1.0968e+02    3.6208e+02 ;     C9 - C5     - H9    
     9      5     20      1    1.0968e+02    3.6208e+02 ;     C9 - C5     - H10   
     9      7     23      1    1.0968e+02    3.6208e+02 ;     C9 - C7     - H13   
     9      7     24      1    1.0968e+02    3.6208e+02 ;     C9 - C7     - H14   
    11      2     12      1    1.0773e+02    2.9957e+02 ;     H1 - C2     - H2    
    11      2     13      1    1.0773e+02    2.9957e+02 ;     H1 - C2     - H3    
    12      2     13      1    1.0773e+02    2.9957e+02 ;     H2 - C2     - H3    
    14      3     15      1    1.0773e+02    2.9957e+02 ;     H4 - C3     - H5    
    14      3     16      1    1.0773e+02    2.9957e+02 ;     H4 - C3     - H6    
    15      3     16      1    1.0773e+02    2.9957e+02 ;     H5 - C3     - H6    
    17      4     18      1    1.0773e+02    2.9957e+02 ;     H7 - C4     - H8    
    19      5     20      1    1.0773e+02    2.9957e+02 ;     H9 - C5     - H10   
    21      6     22      1    1.0773e+02    2.9957e+02 ;    H11 - C6     - H12   
    23      7     24      1    1.0773e+02    2.9957e+02 ;    H13 - C7     - H14   
    25      8     26      1    1.0773e+02    2.9957e+02 ;    H15 - C8     - H16   
    27      9     28      1    1.0773e+02    2.9957e+02 ;    H17 - C9     - H18   

[ dihedrals ] ; propers
; for gromacs 4.5 or higher, using funct 9
;    i      j      k      l   func   phase     kd      pn
     1      4      8      6      9     0.00   0.00000   0 ;     C1-    C4-    C8-    C6
     1      4      8      6      9     0.00   0.16736   2 ;     C1-    C4-    C8-    C6
     1      4      8      6      9   180.00   1.92464   1 ;     C1-    C4-    C8-    C6
     1      4      8     25      9     0.00   0.65084   3 ;     C1-    C4-    C8-   H15
     1      4      8     26      9     0.00   0.65084   3 ;     C1-    C4-    C8-   H16
     1      5      9      7      9     0.00   0.00000   0 ;     C1-    C5-    C9-    C7
     1      5      9      7      9     0.00   0.16736   2 ;     C1-    C5-    C9-    C7
     1      5      9      7      9   180.00   1.92464   1 ;     C1-    C5-    C9-    C7
     1      5      9     27      9     0.00   0.65084   3 ;     C1-    C5-    C9-   H17
     1      5      9     28      9     0.00   0.65084   3 ;     C1-    C5-    C9-   H18
     2      6      8      4      9     0.00   2.17568   3 ;     C2-    C6-    C8-    C4
     2      6      8     25      9     0.00   0.54392   3 ;     C2-    C6-    C8-   H15
     2      6      8     26      9     0.00   0.54392   3 ;     C2-    C6-    C8-   H16
     3      7      9      5      9     0.00   2.17568   3 ;     C3-    C7-    C9-    C5
     3      7      9     27      9     0.00   0.54392   3 ;     C3-    C7-    C9-   H17
     3      7      9     28      9     0.00   0.54392   3 ;     C3-    C7-    C9-   H18
     4      1      5      9      9   180.00   1.09621   2 ;     C4-    C1-    C5-    C9
     4      1      5     19      9   180.00   0.00000   3 ;     C4-    C1-    C5-    H9
     4      1      5     20      9   180.00   0.00000   3 ;     C4-    C1-    C5-   H10
     4      8      6     21      9     0.00   0.54392   3 ;     C4-    C8-    C6-   H11
     4      8      6     22      9     0.00   0.54392   3 ;     C4-    C8-    C6-   H12
     5      1      4      8      9   180.00   1.09621   2 ;     C5-    C1-    C4-    C8
     5      1      4     17      9   180.00   0.00000   3 ;     C5-    C1-    C4-    H7
     5      1      4     18      9   180.00   0.00000   3 ;     C5-    C1-    C4-    H8
     5      9      7     23      9     0.00   0.54392   3 ;     C5-    C9-    C7-   H13
     5      9      7     24      9     0.00   0.54392   3 ;     C5-    C9-    C7-   H14
     6      8      4     17      9     0.00   0.54392   3 ;     C6-    C8-    C4-    H7
     6      8      4     18      9     0.00   0.54392   3 ;     C6-    C8-    C4-    H8
     7      9      5     19      9     0.00   0.54392   3 ;     C7-    C9-    C5-    H9
     7      9      5     20      9     0.00   0.54392   3 ;     C7-    C9-    C5-   H10
     8      6      2     11      9     0.00   0.54392   3 ;     C8-    C6-    C2-    H1
     8      6      2     12      9     0.00   0.54392   3 ;     C8-    C6-    C2-    H2
     8      6      2     13      9     0.00   0.54392   3 ;     C8-    C6-    C2-    H3
     9      7      3     14      9     0.00   0.54392   3 ;     C9-    C7-    C3-    H4
     9      7      3     15      9     0.00   0.54392   3 ;     C9-    C7-    C3-    H5
     9      7      3     16      9     0.00   0.54392   3 ;     C9-    C7-    C3-    H6
    10      1      4      8      9     0.00   2.84512   1 ;     O1-    C1-    C4-    C8
    10      1      4      8      9   180.00   0.83680   2 ;     O1-    C1-    C4-    C8
    10      1      4      8      9   180.00   1.84096   3 ;     O1-    C1-    C4-    C8
    10      1      4     17      9     0.00  16.86152   1 ;     O1-    C1-    C4-    H7
    10      1      4     17      9   180.00  15.31344   2 ;     O1-    C1-    C4-    H7
    10      1      4     18      9     0.00  16.86152   1 ;     O1-    C1-    C4-    H8
    10      1      4     18      9   180.00  15.31344   2 ;     O1-    C1-    C4-    H8
    10      1      5      9      9     0.00   2.84512   1 ;     O1-    C1-    C5-    C9
    10      1      5      9      9   180.00   0.83680   2 ;     O1-    C1-    C5-    C9
    10      1      5      9      9   180.00   1.84096   3 ;     O1-    C1-    C5-    C9
    10      1      5     19      9     0.00  16.86152   1 ;     O1-    C1-    C5-    H9
    10      1      5     19      9   180.00  15.31344   2 ;     O1-    C1-    C5-    H9
    10      1      5     20      9     0.00  16.86152   1 ;     O1-    C1-    C5-   H10
    10      1      5     20      9   180.00  15.31344   2 ;     O1-    C1-    C5-   H10
    11      2      6     21      9     0.00   0.50208   3 ;     H1-    C2-    C6-   H11
    11      2      6     22      9     0.00   0.50208   3 ;     H1-    C2-    C6-   H12
    12      2      6     21      9     0.00   0.50208   3 ;     H2-    C2-    C6-   H11
    12      2      6     22      9     0.00   0.50208   3 ;     H2-    C2-    C6-   H12
    13      2      6     21      9     0.00   0.50208   3 ;     H3-    C2-    C6-   H11
    13      2      6     22      9     0.00   0.50208   3 ;     H3-    C2-    C6-   H12
    14      3      7     23      9     0.00   0.50208   3 ;     H4-    C3-    C7-   H13
    14      3      7     24      9     0.00   0.50208   3 ;     H4-    C3-    C7-   H14
    15      3      7     23      9     0.00   0.50208   3 ;     H5-    C3-    C7-   H13
    15      3      7     24      9     0.00   0.50208   3 ;     H5-    C3-    C7-   H14
    16      3      7     23      9     0.00   0.50208   3 ;     H6-    C3-    C7-   H13
    16      3      7     24      9     0.00   0.50208   3 ;     H6-    C3-    C7-   H14
    17      4      8     25      9     0.00   0.50208   3 ;     H7-    C4-    C8-   H15
    17      4      8     26      9     0.00   0.50208   3 ;     H7-    C4-    C8-   H16
    18      4      8     25      9     0.00   0.50208   3 ;     H8-    C4-    C8-   H15
    18      4      8     26      9     0.00   0.50208   3 ;     H8-    C4-    C8-   H16
    19      5      9     27      9     0.00   0.50208   3 ;     H9-    C5-    C9-   H17
    19      5      9     28      9     0.00   0.50208   3 ;     H9-    C5-    C9-   H18
    20      5      9     27      9     0.00   0.50208   3 ;    H10-    C5-    C9-   H17
    20      5      9     28      9     0.00   0.50208   3 ;    H10-    C5-    C9-   H18
    21      6      8     25      9     0.00   0.50208   3 ;    H11-    C6-    C8-   H15
    21      6      8     26      9     0.00   0.50208   3 ;    H11-    C6-    C8-   H16
    22      6      8     25      9     0.00   0.50208   3 ;    H12-    C6-    C8-   H15
    22      6      8     26      9     0.00   0.50208   3 ;    H12-    C6-    C8-   H16
    23      7      9     27      9     0.00   0.50208   3 ;    H13-    C7-    C9-   H17
    23      7      9     28      9     0.00   0.50208   3 ;    H13-    C7-    C9-   H18
    24      7      9     27      9     0.00   0.50208   3 ;    H14-    C7-    C9-   H17
    24      7      9     28      9     0.00   0.50208   3 ;    H14-    C7-    C9-   H18

[ dihedrals ] ; impropers
; treated as propers in GROMACS to use correct AMBER analytical function
;    i      j      k      l   func   phase     kd      pn
    10      1      5      4      4   180.00   4.60240   2 ;     O1-    C1-    C5-    C4
