; mobley_8573194_GMX.itp created by acpype (v: 2023.10.27) on Thu May 14 13:28:53 2026

[ atomtypes ]
;name   bond_type     mass     charge   ptype   sigma         epsilon       Amb
 c        c           0.00000  0.00000   A     3.31521e-01   4.13379e-01 ; 1.86  0.0988
 c3       c3          0.00000  0.00000   A     3.39771e-01   4.51035e-01 ; 1.91  0.1078
 o        o           0.00000  0.00000   A     3.04812e-01   6.12119e-01 ; 1.71  0.1463
 h4       h4          0.00000  0.00000   A     2.53639e-01   6.73624e-02 ; 1.42  0.0161
 hc       hc          0.00000  0.00000   A     2.60018e-01   8.70272e-02 ; 1.46  0.0208

[ moleculetype ]
;name            nrexcl
 mobley_8573194   3

[ atoms ]
;   nr  type  resi  res  atom  cgnr     charge      mass       ; qtot   bond_type
     1    c     1   MOL    C1    1     0.562901     12.01000 ; qtot 0.563
     2   c3     1   MOL    C2    2    -0.094100     12.01000 ; qtot 0.469
     3   c3     1   MOL    C3    3    -0.199400     12.01000 ; qtot 0.269
     4   c3     1   MOL    C4    4    -0.076400     12.01000 ; qtot 0.193
     5    o     1   MOL    O1    5    -0.525100     16.00000 ; qtot -0.332
     6   h4     1   MOL    H1    6    -0.010800      1.00800 ; qtot -0.343
     7   hc     1   MOL    H2    7     0.034033      1.00800 ; qtot -0.309
     8   hc     1   MOL    H3    8     0.034033      1.00800 ; qtot -0.275
     9   hc     1   MOL    H4    9     0.034033      1.00800 ; qtot -0.241
    10   hc     1   MOL    H5   10     0.066700      1.00800 ; qtot -0.174
    11   hc     1   MOL    H6   11     0.066700      1.00800 ; qtot -0.107
    12   hc     1   MOL    H7   12     0.053700      1.00800 ; qtot -0.054
    13   hc     1   MOL    H8   13     0.053700      1.00800 ; qtot -0.000

[ bonds ]
;   ai     aj funct   r             k
     1      3   1    1.5270e-01    1.9652e+05 ;     C1 - C3    
     1      5   1    1.2190e-01    4.9421e+05 ;     C1 - O1    
     1      6   1    1.1123e-01    2.6984e+05 ;     C1 - H1    
     2      4   1    1.5354e-01    1.9154e+05 ;     C2 - C4    
     2      7   1    1.0962e-01    2.8891e+05 ;     C2 - H2    
     2      8   1    1.0962e-01    2.8891e+05 ;     C2 - H3    
     2      9   1    1.0962e-01    2.8891e+05 ;     C2 - H4    
     3      4   1    1.5354e-01    1.9154e+05 ;     C3 - C4    
     3     10   1    1.0962e-01    2.8891e+05 ;     C3 - H5    
     3     11   1    1.0962e-01    2.8891e+05 ;     C3 - H6    
     4     12   1    1.0962e-01    2.8891e+05 ;     C4 - H7    
     4     13   1    1.0962e-01    2.8891e+05 ;     C4 - H8    

[ pairs ]
;   ai     aj    funct
     1      2      1 ;     C1 - C2    
     1     12      1 ;     C1 - H7    
     1     13      1 ;     C1 - H8    
     2     10      1 ;     C2 - H5    
     2     11      1 ;     C2 - H6    
     3      7      1 ;     C3 - H2    
     3      8      1 ;     C3 - H3    
     3      9      1 ;     C3 - H4    
     5      4      1 ;     O1 - C4    
     5     10      1 ;     O1 - H5    
     5     11      1 ;     O1 - H6    
     6      4      1 ;     H1 - C4    
     6     10      1 ;     H1 - H5    
     6     11      1 ;     H1 - H6    
     7     12      1 ;     H2 - H7    
     7     13      1 ;     H2 - H8    
     8     12      1 ;     H3 - H7    
     8     13      1 ;     H3 - H8    
     9     12      1 ;     H4 - H7    
     9     13      1 ;     H4 - H8    
    10     12      1 ;     H5 - H7    
    10     13      1 ;     H5 - H8    
    11     12      1 ;     H6 - H7    
    11     13      1 ;     H6 - H8    

[ angles ]
;   ai     aj     ak    funct   theta         cth
     1      3      4      1    1.1143e+02    5.0509e+02 ;     C1 - C3     - C4    
     1      3     10      1    1.0895e+02    3.6510e+02 ;     C1 - C3     - H5    
     1      3     11      1    1.0895e+02    3.6510e+02 ;     C1 - C3     - H6    
     2      4      3      1    1.1263e+02    5.0099e+02 ;     C2 - C4     - C3    
     2      4     12      1    1.0968e+02    3.6208e+02 ;     C2 - C4     - H7    
     2      4     13      1    1.0968e+02    3.6208e+02 ;     C2 - C4     - H8    
     3      1      5      1    1.2290e+02    6.3973e+02 ;     C3 - C1     - O1    
     3      1      6      1    1.1471e+02    3.5522e+02 ;     C3 - C1     - H1    
     3      4     12      1    1.0968e+02    3.6208e+02 ;     C3 - C4     - H7    
     3      4     13      1    1.0968e+02    3.6208e+02 ;     C3 - C4     - H8    
     4      2      7      1    1.0968e+02    3.6208e+02 ;     C4 - C2     - H2    
     4      2      8      1    1.0968e+02    3.6208e+02 ;     C4 - C2     - H3    
     4      2      9      1    1.0968e+02    3.6208e+02 ;     C4 - C2     - H4    
     4      3     10      1    1.0968e+02    3.6208e+02 ;     C4 - C3     - H5    
     4      3     11      1    1.0968e+02    3.6208e+02 ;     C4 - C3     - H6    
     5      1      6      1    1.2062e+02    5.0191e+02 ;     O1 - C1     - H1    
     7      2      8      1    1.0773e+02    2.9957e+02 ;     H2 - C2     - H3    
     7      2      9      1    1.0773e+02    2.9957e+02 ;     H2 - C2     - H4    
     8      2      9      1    1.0773e+02    2.9957e+02 ;     H3 - C2     - H4    
    10      3     11      1    1.0773e+02    2.9957e+02 ;     H5 - C3     - H6    
    12      4     13      1    1.0773e+02    2.9957e+02 ;     H7 - C4     - H8    

[ dihedrals ] ; propers
; for gromacs 4.5 or higher, using funct 9
;    i      j      k      l   func   phase     kd      pn
     1      3      4      2      9     0.00   0.00000   0 ;     C1-    C3-    C4-    C2
     1      3      4      2      9     0.00   0.16736   2 ;     C1-    C3-    C4-    C2
     1      3      4      2      9   180.00   1.92464   1 ;     C1-    C3-    C4-    C2
     1      3      4     12      9     0.00   0.65084   3 ;     C1-    C3-    C4-    H7
     1      3      4     13      9     0.00   0.65084   3 ;     C1-    C3-    C4-    H8
     2      4      3     10      9     0.00   0.54392   3 ;     C2-    C4-    C3-    H5
     2      4      3     11      9     0.00   0.54392   3 ;     C2-    C4-    C3-    H6
     3      4      2      7      9     0.00   0.54392   3 ;     C3-    C4-    C2-    H2
     3      4      2      8      9     0.00   0.54392   3 ;     C3-    C4-    C2-    H3
     3      4      2      9      9     0.00   0.54392   3 ;     C3-    C4-    C2-    H4
     5      1      3      4      9     0.00   2.84512   1 ;     O1-    C1-    C3-    C4
     5      1      3      4      9   180.00   0.83680   2 ;     O1-    C1-    C3-    C4
     5      1      3      4      9   180.00   1.84096   3 ;     O1-    C1-    C3-    C4
     5      1      3     10      9     0.00  16.86152   1 ;     O1-    C1-    C3-    H5
     5      1      3     10      9   180.00  15.31344   2 ;     O1-    C1-    C3-    H5
     5      1      3     11      9     0.00  16.86152   1 ;     O1-    C1-    C3-    H6
     5      1      3     11      9   180.00  15.31344   2 ;     O1-    C1-    C3-    H6
     6      1      3      4      9   180.00   0.00000   2 ;     H1-    C1-    C3-    C4
     6      1      3     10      9   180.00   0.00000   2 ;     H1-    C1-    C3-    H5
     6      1      3     11      9   180.00   0.00000   2 ;     H1-    C1-    C3-    H6
     7      2      4     12      9     0.00   0.50208   3 ;     H2-    C2-    C4-    H7
     7      2      4     13      9     0.00   0.50208   3 ;     H2-    C2-    C4-    H8
     8      2      4     12      9     0.00   0.50208   3 ;     H3-    C2-    C4-    H7
     8      2      4     13      9     0.00   0.50208   3 ;     H3-    C2-    C4-    H8
     9      2      4     12      9     0.00   0.50208   3 ;     H4-    C2-    C4-    H7
     9      2      4     13      9     0.00   0.50208   3 ;     H4-    C2-    C4-    H8
    10      3      4     12      9     0.00   0.50208   3 ;     H5-    C3-    C4-    H7
    10      3      4     13      9     0.00   0.50208   3 ;     H5-    C3-    C4-    H8
    11      3      4     12      9     0.00   0.50208   3 ;     H6-    C3-    C4-    H7
    11      3      4     13      9     0.00   0.50208   3 ;     H6-    C3-    C4-    H8

[ dihedrals ] ; impropers
; treated as propers in GROMACS to use correct AMBER analytical function
;    i      j      k      l   func   phase     kd      pn
     5      1      6      3      4   180.00   4.60240   2 ;     O1-    C1-    H1-    C3
