mobley_3167746_GMX.gro created by acpype (v: 2023.10.27) on Thu May 14 14:00:51 2026
 2867
    1MOL     C1    1   1.502   1.215   1.222
    1MOL     C2    2   1.566   1.846   1.846
    1MOL     C3    3   1.473   1.267   1.362
    1MOL     C4    4   1.597   1.793   1.707
    1MOL     C5    5   1.528   1.409   1.381
    1MOL     C6    6   1.533   1.657   1.683
    1MOL     C7    7   1.500   1.466   1.520
    1MOL     C8    8   1.562   1.605   1.542
    1MOL     H1    9   1.456   1.279   1.146
    1MOL     H2   10   1.610   1.212   1.203
    1MOL     H3   11   1.462   1.114   1.210
    1MOL     H4   12   1.613   1.944   1.860
    1MOL     H5   13   1.604   1.779   1.923
    1MOL     H6   14   1.458   1.858   1.860
    1MOL     H7   15   1.365   1.266   1.377
    1MOL     H8   16   1.518   1.200   1.435
    1MOL     H9   17   1.561   1.865   1.632
    1MOL    H10   18   1.706   1.786   1.694
    1MOL    H11   19   1.637   1.407   1.366
    1MOL    H12   20   1.486   1.476   1.304
    1MOL    H13   21   1.571   1.585   1.757
    1MOL    H14   22   1.424   1.664   1.698
    1MOL    H15   23   1.392   1.471   1.537
    1MOL    H16   24   1.541   1.397   1.594
    1MOL    H17   25   1.521   1.676   1.469
    1MOL    H18   26   1.670   1.600   1.526
    2SOL     OW   27   0.230   0.628   0.113
    2SOL    HW1   28   0.137   0.626   0.150
    2SOL    HW2   29   0.231   0.589   0.021
    3SOL     OW   30   0.225   0.275   0.996
    3SOL    HW1   31   0.260   0.258   1.088
    3SOL    HW2   32   0.137   0.230   0.984
    4SOL     OW   33   0.019   0.368   0.647
    4SOL    HW1   34  -0.063   0.411   0.686
    4SOL    HW2   35  -0.009   0.295   0.584
    5SOL     OW   36   0.569   1.275   1.165
    5SOL    HW1   37   0.476   1.268   1.128
    5SOL    HW2   38   0.580   1.364   1.209
    6SOL     OW   39   1.555   1.511   0.703
    6SOL    HW1   40   1.498   1.495   0.784
    6SOL    HW2   41   1.496   1.521   0.623
    7SOL     OW   42   1.135   0.703   0.717
    7SOL    HW1   43   1.192   0.781   0.692
    7SOL    HW2   44   1.075   0.729   0.793
    8SOL     OW   45   1.755   0.607   0.231
    8SOL    HW1   46   1.743   0.594   0.132
    8SOL    HW2   47   1.725   0.526   0.280
    9SOL     OW   48   0.768   1.144   1.023
    9SOL    HW1   49   0.690   1.161   1.083
    9SOL    HW2   50   0.802   1.231   0.987
   10SOL     OW   51   0.850   0.798   1.823
   10SOL    HW1   52   0.846   0.874   1.888
   10SOL    HW2   53   0.872   0.834   1.732
   11SOL     OW   54   0.685   1.012   0.665
   11SOL    HW1   55   0.754   0.996   0.735
   11SOL    HW2   56   0.612   1.069   0.703
   12SOL     OW   57   0.686   1.161   1.803
   12SOL    HW1   58   0.746   1.240   1.817
   12SOL    HW2   59   0.600   1.192   1.762
   13SOL     OW   60   0.335   1.435   1.061
   13SOL    HW1   61   0.257   1.404   1.008
   13SOL    HW2   62   0.393   1.493   1.004
   14SOL     OW   63   0.438   0.392   1.499
   14SOL    HW1   64   0.520   0.336   1.508
   14SOL    HW2   65   0.357   0.334   1.503
   15SOL     OW   66   1.603   0.447   0.737
   15SOL    HW1   67   1.529   0.493   0.687
   15SOL    HW2   68   1.654   0.515   0.790
   16SOL     OW   69   0.231   1.713   0.483
   16SOL    HW1   70   0.265   1.790   0.537
   16SOL    HW2   71   0.275   1.713   0.393
   17SOL     OW   72   1.127   1.341   1.690
   17SOL    HW1   73   1.174   1.341   1.778
   17SOL    HW2   74   1.079   1.254   1.679
   18SOL     OW   75   0.230   1.434   0.538
   18SOL    HW1   76   0.204   1.530   0.538
   18SOL    HW2   77   0.159   1.380   0.583
   19SOL     OW   78   0.240   1.091   0.886
   19SOL    HW1   79   0.254   1.007   0.938
   19SOL    HW2   80   0.185   1.155   0.941
   20SOL     OW   81   0.620   1.786   1.439
   20SOL    HW1   82   0.528   1.769   1.474
   20SOL    HW2   83   0.648   1.878   1.465
   21SOL     OW   84   0.606   0.964   0.123
   21SOL    HW1   85   0.613   1.048   0.069
   21SOL    HW2   86   0.652   0.977   0.211
   22SOL     OW   87   1.594   0.114   1.480
   22SOL    HW1   88   1.576   0.181   1.408
   22SOL    HW2   89   1.591   0.160   1.569
   23SOL     OW   90   0.122   0.643   0.563
   23SOL    HW1   91   0.077   0.555   0.580
   23SOL    HW2   92   0.121   0.697   0.647
   24SOL     OW   93   1.842   1.767   0.359
   24SOL    HW1   94   1.896   1.738   0.439
   24SOL    HW2   95   1.872   1.857   0.330
   25SOL     OW   96   0.027   1.596   0.117
   25SOL    HW1   97   0.008   1.500   0.138
   25SOL    HW2   98  -0.006   1.654   0.192
   26SOL     OW   99   1.689   0.922   0.612
   26SOL    HW1  100   1.784   0.893   0.620
   26SOL    HW2  101   1.681   0.987   0.537
   27SOL     OW  102   1.641   1.108   0.432
   27SOL    HW1  103   1.727   1.110   0.380
   27SOL    HW2  104   1.655   1.155   0.520
   28SOL     OW  105   0.113   0.737   1.597
   28SOL    HW1  106   0.201   0.724   1.642
   28SOL    HW2  107   0.100   0.834   1.575
   29SOL     OW  108   0.613   1.365   0.726
   29SOL    HW1  109   0.564   1.278   0.735
   29SOL    HW2  110   0.590   1.408   0.639
   30SOL     OW  111   0.809   0.004   0.502
   30SOL    HW1  112   0.849   0.095   0.493
   30SOL    HW2  113   0.709   0.012   0.508
   31SOL     OW  114   0.197   0.976   1.264
   31SOL    HW1  115   0.286   0.931   1.250
   31SOL    HW2  116   0.124   0.911   1.245
   32SOL     OW  117   1.525   0.999   0.190
   32SOL    HW1  118   1.462   0.923   0.203
   32SOL    HW2  119   1.573   1.017   0.276
   33SOL     OW  120   1.187   1.792   1.616
   33SOL    HW1  121   1.211   1.852   1.540
   33SOL    HW2  122   1.194   1.697   1.586
   34SOL     OW  123   0.317   0.251   1.801
   34SOL    HW1  124   0.388   0.322   1.807
   34SOL    HW2  125   0.229   0.290   1.829
   35SOL     OW  126   1.466   1.417   0.953
   35SOL    HW1  127   1.407   1.423   1.033
   35SOL    HW2  128   1.451   1.329   0.907
   36SOL     OW  129   1.667   1.714   0.572
   36SOL    HW1  130   1.626   1.691   0.484
   36SOL    HW2  131   1.649   1.640   0.637
   37SOL     OW  132   0.598   0.729   0.270
   37SOL    HW1  133   0.622   0.798   0.202
   37SOL    HW2  134   0.520   0.762   0.324
   38SOL     OW  135   1.281   0.345   0.944
   38SOL    HW1  136   1.195   0.295   0.931
   38SOL    HW2  137   1.343   0.291   1.000
   39SOL     OW  138   1.576   1.662   0.307
   39SOL    HW1  139   1.665   1.708   0.310
   39SOL    HW2  140   1.555   1.638   0.212
   40SOL     OW  141   0.807   0.605   1.465
   40SOL    HW1  142   0.760   0.602   1.554
   40SOL    HW2  143   0.756   0.550   1.399
   41SOL     OW  144   1.394   0.469   1.674
   41SOL    HW1  145   1.374   0.512   1.762
   41SOL    HW2  146   1.472   0.407   1.683
   42SOL     OW  147   0.973   0.890   1.572
   42SOL    HW1  148   1.019   0.806   1.543
   42SOL    HW2  149   0.917   0.924   1.497
   43SOL     OW  150   0.991   0.410   1.242
   43SOL    HW1  151   0.914   0.444   1.296
   43SOL    HW2  152   0.957   0.359   1.163
   44SOL     OW  153   1.041   0.701   0.429
   44SOL    HW1  154   1.067   0.697   0.525
   44SOL    HW2  155   0.956   0.650   0.415
   45SOL     OW  156   0.076   0.811   0.789
   45SOL    HW1  157   0.175   0.799   0.798
   45SOL    HW2  158   0.052   0.906   0.810
   46SOL     OW  159   0.130   1.821   1.571
   46SOL    HW1  160   0.120   1.806   1.670
   46SOL    HW2  161   0.044   1.857   1.535
   47SOL     OW  162   0.865   0.348   0.195
   47SOL    HW1  163   0.924   0.411   0.146
   47SOL    HW2  164   0.884   0.254   0.166
   48SOL     OW  165   1.719   0.585   1.831
   48SOL    HW1  166   1.693   0.674   1.795
   48SOL    HW2  167   1.717   0.517   1.758
   49SOL     OW  168   1.362   1.144   0.545
   49SOL    HW1  169   1.445   1.115   0.497
   49SOL    HW2  170   1.313   1.211   0.489
   50SOL     OW  171   0.550   0.196   0.885
   50SOL    HW1  172   0.545   0.191   0.985
   50SOL    HW2  173   0.552   0.292   0.856
   51SOL     OW  174   1.008   1.456   0.477
   51SOL    HW1  175   0.962   1.528   0.425
   51SOL    HW2  176   1.004   1.476   0.575
   52SOL     OW  177   0.351   1.801   0.853
   52SOL    HW1  178   0.401   1.715   0.859
   52SOL    HW2  179   0.416   1.878   0.850
   53SOL     OW  180   1.795   1.066   0.873
   53SOL    HW1  181   1.733   1.051   0.797
   53SOL    HW2  182   1.743   1.077   0.958
   54SOL     OW  183   1.227   1.550   1.506
   54SOL    HW1  184   1.233   1.473   1.570
   54SOL    HW2  185   1.175   1.524   1.426
   55SOL     OW  186   0.321   0.943   0.242
   55SOL    HW1  187   0.403   0.982   0.200
   55SOL    HW2  188   0.294   0.861   0.193
   56SOL     OW  189   1.458   0.735   0.728
   56SOL    HW1  190   1.453   0.670   0.803
   56SOL    HW2  191   1.538   0.794   0.741
   57SOL     OW  192   0.461   1.266   1.727
   57SOL    HW1  193   0.411   1.267   1.641
   57SOL    HW2  194   0.398   1.248   1.803
   58SOL     OW  195   1.111   1.776   0.237
   58SOL    HW1  196   1.051   1.714   0.287
   58SOL    HW2  197   1.142   1.732   0.152
   59SOL     OW  198   0.202   0.285   1.498
   59SOL    HW1  199   0.122   0.345   1.485
   59SOL    HW2  200   0.192   0.236   1.584
   60SOL     OW  201   1.632   1.377   0.081
   60SOL    HW1  202   1.600   1.471   0.071
   60SOL    HW2  203   1.556   1.314   0.069
   61SOL     OW  204   0.464   1.743   0.323
   61SOL    HW1  205   0.497   1.782   0.409
   61SOL    HW2  206   0.540   1.736   0.258
   62SOL     OW  207   1.400   0.107   0.426
   62SOL    HW1  208   1.376   0.070   0.336
   62SOL    HW2  209   1.499   0.123   0.430
   63SOL     OW  210   0.249   1.785   1.241
   63SOL    HW1  211   0.306   1.720   1.291
   63SOL    HW2  212   0.233   1.752   1.148
   64SOL     OW  213   0.940   1.698   0.904
   64SOL    HW1  214   1.020   1.641   0.925
   64SOL    HW2  215   0.891   1.658   0.827
   65SOL     OW  216   0.382   0.700   0.480
   65SOL    HW1  217   0.427   0.610   0.477
   65SOL    HW2  218   0.288   0.689   0.513
   66SOL     OW  219   1.547   0.222   1.729
   66SOL    HW1  220   1.542   0.259   1.821
   66SOL    HW2  221   1.475   0.153   1.717
   67SOL     OW  222   0.614   0.122   0.117
   67SOL    HW1  223   0.712   0.100   0.124
   67SOL    HW2  224   0.583   0.105   0.024
   68SOL     OW  225   0.781   0.264   1.749
   68SOL    HW1  226   0.848   0.203   1.792
   68SOL    HW2  227   0.708   0.283   1.814
   69SOL     OW  228   0.888   1.514   1.195
   69SOL    HW1  229   0.865   1.489   1.101
   69SOL    HW2  230   0.949   1.445   1.234
   70SOL     OW  231   1.351   0.590   1.433
   70SOL    HW1  232   1.379   0.547   1.518
   70SOL    HW2  233   1.376   0.686   1.434
   71SOL     OW  234   0.803   1.402   0.924
   71SOL    HW1  235   0.893   1.416   0.882
   71SOL    HW2  236   0.732   1.404   0.853
   72SOL     OW  237   0.922   0.503   0.899
   72SOL    HW1  238   0.897   0.494   0.803
   72SOL    HW2  239   0.970   0.421   0.930
   73SOL     OW  240   0.539   0.064   0.512
   73SOL    HW1  241   0.458   0.065   0.570
   73SOL    HW2  242   0.542   0.147   0.457
   74SOL     OW  243   1.434   1.188   0.041
   74SOL    HW1  244   1.466   1.112   0.098
   74SOL    HW2  245   1.342   1.215   0.071
   75SOL     OW  246   0.297   0.035   0.171
   75SOL    HW1  247   0.346   0.119   0.150
   75SOL    HW2  248   0.359  -0.030   0.216
   76SOL     OW  249   0.935   0.236   0.480
   76SOL    HW1  250   0.887   0.277   0.402
   76SOL    HW2  251   1.034   0.234   0.461
   77SOL     OW  252   1.076   0.683   1.464
   77SOL    HW1  253   0.996   0.622   1.467
   77SOL    HW2  254   1.157   0.630   1.440
   78SOL     OW  255   1.227   1.570   0.793
   78SOL    HW1  256   1.248   1.644   0.728
   78SOL    HW2  257   1.295   1.570   0.866
   79SOL     OW  258   0.459   1.152   0.741
   79SOL    HW1  259   0.388   1.125   0.806
   79SOL    HW2  260   0.433   1.124   0.648
   80SOL     OW  261   1.271   1.797   0.591
   80SOL    HW1  262   1.315   1.861   0.527
   80SOL    HW2  263   1.221   1.849   0.661
   81SOL     OW  264   1.032   0.549   0.016
   81SOL    HW1  265   0.991   0.631  -0.023
   81SOL    HW2  266   1.096   0.575   0.089
   82SOL     OW  267   0.078   0.556   1.386
   82SOL    HW1  268   0.170   0.555   1.345
   82SOL    HW2  269   0.072   0.630   1.453
   83SOL     OW  270   0.561   0.222   1.147
   83SOL    HW1  271   0.599   0.138   1.184
   83SOL    HW2  272   0.473   0.241   1.191
   84SOL     OW  273   0.866   0.454   0.642
   84SOL    HW1  274   0.834   0.526   0.580
   84SOL    HW2  275   0.890   0.373   0.589
   85SOL     OW  276   1.017   0.039   0.753
   85SOL    HW1  277   0.945   0.044   0.684
   85SOL    HW2  278   0.993  -0.030   0.822
   86SOL     OW  279   1.429   1.173   0.867
   86SOL    HW1  280   1.374   1.089   0.860
   86SOL    HW2  281   1.455   1.202   0.775
   87SOL     OW  282   1.466   0.590   0.992
   87SOL    HW1  283   1.436   0.495   0.999
   87SOL    HW2  284   1.539   0.606   1.058
   88SOL     OW  285   1.857   0.833   0.377
   88SOL    HW1  286   1.899   0.769   0.441
   88SOL    HW2  287   1.819   0.782   0.299
   89SOL     OW  288   0.488   1.385   0.174
   89SOL    HW1  289   0.401   1.370   0.221
   89SOL    HW2  290   0.471   1.411   0.079
   90SOL     OW  291   1.664   1.280   0.657
   90SOL    HW1  292   1.763   1.288   0.671
   90SOL    HW2  293   1.619   1.364   0.688
   91SOL     OW  294   1.390   0.575   0.078
   91SOL    HW1  295   1.336   0.554   0.159
   91SOL    HW2  296   1.481   0.534   0.087
   92SOL     OW  297   0.527   0.256   0.328
   92SOL    HW1  298   0.554   0.197   0.253
   92SOL    HW2  299   0.527   0.351   0.297
   93SOL     OW  300   1.754   1.223   1.588
   93SOL    HW1  301   1.845   1.184   1.575
   93SOL    HW2  302   1.762   1.319   1.612
   94SOL     OW  303   1.064   1.347   1.340
   94SOL    HW1  304   0.984   1.324   1.395
   94SOL    HW2  305   1.147   1.321   1.389
   95SOL     OW  306   1.111   1.195   1.100
   95SOL    HW1  307   1.071   1.239   1.181
   95SOL    HW2  308   1.070   1.232   1.017
   96SOL     OW  309   0.915   0.089   1.402
   96SOL    HW1  310   0.940   0.069   1.307
   96SOL    HW2  311   0.987   0.145   1.444
   97SOL     OW  312   0.980   1.116   1.719
   97SOL    HW1  313   0.881   1.122   1.729
   97SOL    HW2  314   1.003   1.036   1.663
   98SOL     OW  315   0.705   1.050   0.368
   98SOL    HW1  316   0.691   1.057   0.467
   98SOL    HW2  317   0.789   0.999   0.350
   99SOL     OW  318   0.410   0.813   1.251
   99SOL    HW1  319   0.496   0.825   1.301
   99SOL    HW2  320   0.368   0.726   1.278
  100SOL     OW  321   1.274   0.386   1.262
  100SOL    HW1  322   1.295   0.460   1.326
  100SOL    HW2  323   1.185   0.403   1.219
  101SOL     OW  324   0.064   1.564   1.331
  101SOL    HW1  325   0.018   1.646   1.297
  101SOL    HW2  326   0.162   1.583   1.340
  102SOL     OW  327   0.367   1.100   0.501
  102SOL    HW1  328   0.360   1.183   0.445
  102SOL    HW2  329   0.371   1.020   0.441
  103SOL     OW  330   0.566   0.537   0.865
  103SOL    HW1  331   0.578   0.603   0.791
  103SOL    HW2  332   0.612   0.571   0.948
  104SOL     OW  333   1.252   1.348   0.388
  104SOL    HW1  334   1.302   1.425   0.428
  104SOL    HW2  335   1.157   1.350   0.420
  105SOL     OW  336   1.272   1.445   1.142
  105SOL    HW1  337   1.319   1.458   1.229
  105SOL    HW2  338   1.206   1.371   1.151
  106SOL     OW  339   1.582   0.639   0.472
  106SOL    HW1  340   1.551   0.700   0.545
  106SOL    HW2  341   1.632   0.691   0.403
  107SOL     OW  342   0.354   1.510   1.329
  107SOL    HW1  343   0.333   1.466   1.242
  107SOL    HW2  344   0.451   1.536   1.332
  108SOL     OW  345   0.402   0.751   1.598
  108SOL    HW1  346   0.470   0.806   1.551
  108SOL    HW2  347   0.442   0.663   1.625
  109SOL     OW  348   1.587   0.779   1.670
  109SOL    HW1  349   1.495   0.817   1.665
  109SOL    HW2  350   1.647   0.826   1.605
  110SOL     OW  351   1.013   0.105   1.770
  110SOL    HW1  352   1.019   0.190   1.718
  110SOL    HW2  353   1.045   0.029   1.713
  111SOL     OW  354   0.504   0.050   1.740
  111SOL    HW1  355   0.462  -0.007   1.670
  111SOL    HW2  356   0.438   0.119   1.772
  112SOL     OW  357   0.573   0.870   1.029
  112SOL    HW1  358   0.617   0.959   1.020
  112SOL    HW2  359   0.510   0.870   1.106
  113SOL     OW  360   1.360   0.862   1.045
  113SOL    HW1  361   1.285   0.862   0.979
  113SOL    HW2  362   1.397   0.770   1.054
  114SOL     OW  363   1.209   0.525   0.275
  114SOL    HW1  364   1.222   0.441   0.329
  114SOL    HW2  365   1.180   0.599   0.335
  115SOL     OW  366   0.307   0.213   1.231
  115SOL    HW1  367   0.284   0.250   1.321
  115SOL    HW2  368   0.277   0.118   1.225
  116SOL     OW  369   0.037   1.310   1.282
  116SOL    HW1  370   0.090   1.261   1.350
  116SOL    HW2  371   0.059   1.408   1.287
  117SOL     OW  372   0.732   0.634   1.064
  117SOL    HW1  373   0.791   0.608   0.988
  117SOL    HW2  374   0.704   0.730   1.053
  118SOL     OW  375   1.728   0.935   1.854
  118SOL    HW1  376   1.682   0.928   1.765
  118SOL    HW2  377   1.666   0.979   1.920
  119SOL     OW  378   0.307   0.063   0.618
  119SOL    HW1  379   0.296   0.157   0.651
  119SOL    HW2  380   0.302   0.000   0.695
  120SOL     OW  381   1.622   0.367   0.374
  120SOL    HW1  382   1.624   0.291   0.438
  120SOL    HW2  383   1.574   0.444   0.414
  121SOL     OW  384   1.023   0.766   0.966
  121SOL    HW1  385   1.038   0.787   1.062
  121SOL    HW2  386   0.993   0.671   0.957
  122SOL     OW  387   0.980   1.573   1.700
  122SOL    HW1  388   0.960   1.617   1.612
  122SOL    HW2  389   1.019   1.482   1.684
  123SOL     OW  390   1.859   1.518   1.605
  123SOL    HW1  391   1.873   1.545   1.510
  123SOL    HW2  392   1.942   1.540   1.658
  124SOL     OW  393   0.350   0.898   1.804
  124SOL    HW1  394   0.426   0.942   1.852
  124SOL    HW2  395   0.385   0.851   1.722
  125SOL     OW  396   1.540   0.274   0.125
  125SOL    HW1  397   1.479   0.199   0.148
  125SOL    HW2  398   1.562   0.326   0.208
  126SOL     OW  399   1.303   0.838   0.042
  126SOL    HW1  400   1.337   0.745   0.057
  126SOL    HW2  401   1.321   0.865  -0.053
  127SOL     OW  402   1.068   1.333   0.849
  127SOL    HW1  403   1.075   1.249   0.794
  127SOL    HW2  404   1.130   1.402   0.813
  128SOL     OW  405   0.319   0.810   0.949
  128SOL    HW1  406   0.412   0.846   0.954
  128SOL    HW2  407   0.313   0.725   1.001
  129SOL     OW  408   0.339   0.509   1.006
  129SOL    HW1  409   0.287   0.426   0.989
  129SOL    HW2  410   0.416   0.514   0.942
  130SOL     OW  411   1.138   0.380   1.678
  130SOL    HW1  412   1.093   0.443   1.742
  130SOL    HW2  413   1.231   0.411   1.661
  131SOL     OW  414   1.160   0.207   1.477
  131SOL    HW1  415   1.160   0.271   1.554
  131SOL    HW2  416   1.188   0.255   1.394
  132SOL     OW  417   0.008   1.326   0.200
  132SOL    HW1  418  -0.085   1.347   0.169
  132SOL    HW2  419   0.018   1.227   0.213
  133SOL     OW  420   0.088   1.801   0.927
  133SOL    HW1  421   0.046   1.715   0.900
  133SOL    HW2  422   0.182   1.804   0.893
  134SOL     OW  423   0.504   1.568   0.910
  134SOL    HW1  424   0.570   1.642   0.919
  134SOL    HW2  425   0.548   1.489   0.868
  135SOL     OW  426   1.002   0.796   1.238
  135SOL    HW1  427   1.043   0.764   1.324
  135SOL    HW2  428   0.906   0.769   1.235
  136SOL     OW  429   0.040   0.544   1.114
  136SOL    HW1  430   0.125   0.511   1.073
  136SOL    HW2  431   0.053   0.559   1.212
  137SOL     OW  432   0.189   0.520   1.722
  137SOL    HW1  433   0.248   0.480   1.652
  137SOL    HW2  434   0.131   0.591   1.681
  138SOL     OW  435   1.369   0.950   1.660
  138SOL    HW1  436   1.408   1.039   1.680
  138SOL    HW2  437   1.379   0.930   1.563
  139SOL     OW  438   0.815   0.572   0.325
  139SOL    HW1  439   0.822   0.483   0.279
  139SOL    HW2  440   0.721   0.606   0.317
  140SOL     OW  441   1.657   0.604   1.206
  140SOL    HW1  442   1.619   0.535   1.268
  140SOL    HW2  443   1.739   0.568   1.162
  141SOL     OW  444   0.252   1.564   1.744
  141SOL    HW1  445   0.222   1.621   1.820
  141SOL    HW2  446   0.245   1.467   1.770
  142SOL     OW  447   0.671   0.464   1.269
  142SOL    HW1  448   0.637   0.375   1.239
  142SOL    HW2  449   0.697   0.518   1.189
  143SOL     OW  450   0.930   1.678   1.465
  143SOL    HW1  451   0.906   1.660   1.370
  143SOL    HW2  452   0.960   1.772   1.475
  144SOL     OW  453   0.473   0.500   0.191
  144SOL    HW1  454   0.534   0.580   0.195
  144SOL    HW2  455   0.378   0.531   0.198
  145SOL     OW  456   0.159   1.137   1.466
  145SOL    HW1  457   0.181   1.076   1.542
  145SOL    HW2  458   0.169   1.088   1.380
  146SOL     OW  459   1.302   0.855   0.309
  146SOL    HW1  460   1.216   0.824   0.351
  146SOL    HW2  461   1.298   0.841   0.210
  147SOL     OW  462   1.759   1.747   1.154
  147SOL    HW1  463   1.820   1.777   1.081
  147SOL    HW2  464   1.721   1.658   1.132
  148SOL     OW  465   1.252   1.731   1.128
  148SOL    HW1  466   1.336   1.736   1.074
  148SOL    HW2  467   1.229   1.635   1.146
  149SOL     OW  468   0.083   1.258   1.022
  149SOL    HW1  469   0.078   1.257   1.122
  149SOL    HW2  470   0.000   1.217   0.984
  150SOL     OW  471   0.688   1.662   1.716
  150SOL    HW1  472   0.632   1.743   1.725
  150SOL    HW2  473   0.740   1.666   1.630
  151SOL     OW  474   0.903   0.086   0.133
  151SOL    HW1  475   0.954   0.087   0.047
  151SOL    HW2  476   0.959   0.044   0.204
  152SOL     OW  477   1.726   0.135   0.523
  152SOL    HW1  478   1.799   0.118   0.456
  152SOL    HW2  479   1.695   0.048   0.561
  153SOL     OW  480   1.388   1.573   0.477
  153SOL    HW1  481   1.455   1.585   0.403
  153SOL    HW2  482   1.348   1.662   0.500
  154SOL     OW  483   0.130   1.794   1.851
  154SOL    HW1  484   0.089   1.720   1.904
  154SOL    HW2  485   0.194   1.845   1.909
  155SOL     OW  486   1.280   0.927   0.672
  155SOL    HW1  487   1.340   0.846   0.674
  155SOL    HW2  488   1.320   0.996   0.612
  156SOL     OW  489   0.830   1.273   1.422
  156SOL    HW1  490   0.825   1.306   1.517
  156SOL    HW2  491   0.744   1.292   1.376
  157SOL     OW  492   0.672   1.616   0.154
  157SOL    HW1  493   0.681   1.626   0.055
  157SOL    HW2  494   0.632   1.527   0.175
  158SOL     OW  495   1.650   1.720   1.394
  158SOL    HW1  496   1.703   1.730   1.310
  158SOL    HW2  497   1.623   1.810   1.428
  159SOL     OW  498   1.841   0.175   0.963
  159SOL    HW1  499   1.880   0.090   0.927
  159SOL    HW2  500   1.743   0.177   0.944
  160SOL     OW  501   0.263   0.326   0.720
  160SOL    HW1  502   0.184   0.377   0.686
  160SOL    HW2  503   0.254   0.311   0.818
  161SOL     OW  504   1.194   1.612   0.031
  161SOL    HW1  505   1.200   1.519   0.068
  161SOL    HW2  506   1.135   1.612  -0.049
  162SOL     OW  507   0.822   1.002   1.372
  162SOL    HW1  508   0.862   1.001   1.280
  162SOL    HW2  509   0.832   1.094   1.412
  163SOL     OW  510   0.916   0.910   0.291
  163SOL    HW1  511   0.979   0.948   0.223
  163SOL    HW2  512   0.956   0.827   0.330
  164SOL     OW  513   1.504   1.607   0.044
  164SOL    HW1  514   1.412   1.644   0.051
  164SOL    HW2  515   1.542   1.627  -0.046
  165SOL     OW  516   0.372   1.288   1.490
  165SOL    HW1  517   0.359   1.381   1.456
  165SOL    HW2  518   0.288   1.236   1.477
  166SOL     OW  519   1.039   1.098   0.696
  166SOL    HW1  520   0.969   1.051   0.750
  166SOL    HW2  521   1.098   1.030   0.653
  167SOL     OW  522   1.014   0.236   0.971
  167SOL    HW1  523   1.006   0.200   0.878
  167SOL    HW2  524   1.012   0.160   1.036
  168SOL     OW  525   0.590   1.487   0.491
  168SOL    HW1  526   0.632   1.429   0.421
  168SOL    HW2  527   0.546   1.566   0.447
  169SOL     OW  528   1.709   0.385   1.381
  169SOL    HW1  529   1.782   0.454   1.385
  169SOL    HW2  530   1.737   0.310   1.322
  170SOL     OW  531   0.255   1.348   0.290
  170SOL    HW1  532   0.159   1.349   0.263
  170SOL    HW2  533   0.267   1.401   0.374
  171SOL     OW  534   0.105   1.013   1.726
  171SOL    HW1  535   0.028   0.980   1.780
  171SOL    HW2  536   0.190   0.983   1.768
  172SOL     OW  537   0.672   0.203   1.489
  172SOL    HW1  538   0.762   0.187   1.449
  172SOL    HW2  539   0.680   0.208   1.588
  173SOL     OW  540   0.075   0.345   0.033
  173SOL    HW1  541  -0.017   0.317   0.004
  173SOL    HW2  542   0.106   0.422  -0.023
  174SOL     OW  543   1.440   0.856   1.398
  174SOL    HW1  544   1.383   0.908   1.335
  174SOL    HW2  545   1.536   0.868   1.374
  175SOL     OW  546   0.072   0.166   0.318
  175SOL    HW1  547   0.055   0.249   0.264
  175SOL    HW2  548   0.162   0.129   0.296
  176SOL     OW  549   1.183   1.335   0.119
  176SOL    HW1  550   1.084   1.324   0.121
  176SOL    HW2  551   1.217   1.350   0.212
  177SOL     OW  552   0.613   0.842   1.431
  177SOL    HW1  553   0.669   0.923   1.414
  177SOL    HW2  554   0.672   0.762   1.434
  178SOL     OW  555   1.493   1.767   0.959
  178SOL    HW1  556   1.526   1.831   0.890
  178SOL    HW2  557   1.559   1.761   1.034
  179SOL     OW  558   0.716   0.565   1.708
  179SOL    HW1  559   0.735   0.630   1.782
  179SOL    HW2  560   0.776   0.485   1.717
  180SOL     OW  561   1.450   1.220   1.633
  180SOL    HW1  562   1.441   1.210   1.732
  180SOL    HW2  563   1.546   1.213   1.607
  181SOL     OW  564   0.390   1.741   1.560
  181SOL    HW1  565   0.299   1.782   1.558
  181SOL    HW2  566   0.383   1.647   1.592
  182SOL     OW  567   1.674   0.883   1.254
  182SOL    HW1  568   1.647   0.794   1.217
  182SOL    HW2  569   1.675   0.951   1.181
  183SOL     OW  570   1.225   0.325   0.449
  183SOL    HW1  571   1.290   0.251   0.438
  183SOL    HW2  572   1.245   0.375   0.533
  184SOL     OW  573   0.594   0.745   0.652
  184SOL    HW1  574   0.644   0.830   0.633
  184SOL    HW2  575   0.506   0.747   0.604
  185SOL     OW  576   1.777   0.342   1.642
  185SOL    HW1  577   1.760   0.373   1.548
  185SOL    HW2  578   1.693   0.305   1.680
  186SOL     OW  579   1.730   0.934   1.517
  186SOL    HW1  580   1.768   1.025   1.532
  186SOL    HW2  581   1.722   0.917   1.418
  187SOL     OW  582   0.859   1.374   0.016
  187SOL    HW1  583   0.813   1.389   0.104
  187SOL    HW2  584   0.903   1.459  -0.014
  188SOL     OW  585   0.661   1.790   0.953
  188SOL    HW1  586   0.615   1.878   0.940
  188SOL    HW2  587   0.760   1.802   0.946
  189SOL     OW  588   0.859   0.956   0.861
  189SOL    HW1  589   0.913   0.887   0.909
  189SOL    HW2  590   0.827   1.025   0.927
  190SOL     OW  591   1.083   0.984   0.087
  190SOL    HW1  592   1.060   1.037   0.005
  190SOL    HW2  593   1.164   0.928   0.068
  191SOL     OW  594   1.861   1.569   0.851
  191SOL    HW1  595   1.790   1.557   0.781
  191SOL    HW2  596   1.862   1.490   0.911
  192SOL     OW  597   0.221   1.314   1.844
  192SOL    HW1  598   0.156   1.241   1.823
  192SOL    HW2  599   0.225   1.328   1.942
  193SOL     OW  600   0.079   1.240   0.653
  193SOL    HW1  601   0.078   1.193   0.741
  193SOL    HW2  602   0.161   1.212   0.602
  194SOL     OW  603   0.672   1.391   1.624
  194SOL    HW1  604   0.594   1.341   1.662
  194SOL    HW2  605   0.669   1.486   1.655
  195SOL     OW  606   1.824   0.192   1.227
  195SOL    HW1  607   1.820   0.102   1.271
  195SOL    HW2  608   1.827   0.181   1.128
  196SOL     OW  609   0.428   0.424   0.520
  196SOL    HW1  610   0.458   0.352   0.458
  196SOL    HW2  611   0.389   0.384   0.603
  197SOL     OW  612   1.705   1.487   1.104
  197SOL    HW1  613   1.612   1.462   1.077
  197SOL    HW2  614   1.731   1.437   1.186
  198SOL     OW  615   0.317   0.547   1.280
  198SOL    HW1  616   0.355   0.488   1.352
  198SOL    HW2  617   0.357   0.521   1.192
  199SOL     OW  618   0.812   1.586   0.687
  199SOL    HW1  619   0.844   1.596   0.593
  199SOL    HW2  620   0.733   1.524   0.689
  200SOL     OW  621   1.424   0.214   1.112
  200SOL    HW1  622   1.476   0.149   1.167
  200SOL    HW2  623   1.375   0.277   1.173
  201SOL     OW  624   1.001   0.034   1.154
  201SOL    HW1  625   0.938  -0.038   1.123
  201SOL    HW2  626   1.094  -0.002   1.154
  202SOL     OW  627   0.770   1.330   0.301
  202SOL    HW1  628   0.724   1.243   0.318
  202SOL    HW2  629   0.861   1.327   0.342
  203SOL     OW  630   0.618   1.567   1.284
  203SOL    HW1  631   0.613   1.649   1.341
  203SOL    HW2  632   0.707   1.564   1.239
  204SOL     OW  633   1.352   0.052   0.168
  204SOL    HW1  634   1.387   0.011   0.084
  204SOL    HW2  635   1.262   0.014   0.188
  205SOL     OW  636   1.300   0.453   0.691
  205SOL    HW1  637   1.241   0.533   0.695
  205SOL    HW2  638   1.315   0.418   0.784
  206SOL     OW  639   1.593   0.221   0.882
  206SOL    HW1  640   1.509   0.220   0.936
  206SOL    HW2  641   1.595   0.304   0.826
  207SOL     OW  642   0.039   1.077   0.300
  207SOL    HW1  643   0.138   1.066   0.291
  207SOL    HW2  644  -0.001   0.991   0.332
  208SOL     OW  645   0.875   1.646   0.337
  208SOL    HW1  646   0.798   1.611   0.283
  208SOL    HW2  647   0.843   1.717   0.399
  209SOL     OW  648   0.230   0.628   1.975
  209SOL    HW1  649   0.137   0.626   2.012
  209SOL    HW2  650   0.231   0.589   1.883
  210SOL     OW  651   0.225   0.275   2.858
  210SOL    HW1  652   0.260   0.258   2.950
  210SOL    HW2  653   0.137   0.230   2.846
  211SOL     OW  654   0.019   0.368   2.509
  211SOL    HW1  655  -0.063   0.411   2.548
  211SOL    HW2  656  -0.009   0.295   2.446
  212SOL     OW  657   0.569   1.275   3.027
  212SOL    HW1  658   0.476   1.268   2.990
  212SOL    HW2  659   0.580   1.364   3.071
  213SOL     OW  660   1.555   1.511   2.565
  213SOL    HW1  661   1.498   1.495   2.646
  213SOL    HW2  662   1.496   1.521   2.485
  214SOL     OW  663   1.135   0.703   2.579
  214SOL    HW1  664   1.192   0.781   2.554
  214SOL    HW2  665   1.075   0.729   2.655
  215SOL     OW  666   1.755   0.607   2.093
  215SOL    HW1  667   1.743   0.594   1.994
  215SOL    HW2  668   1.725   0.526   2.142
  216SOL     OW  669   0.768   1.144   2.885
  216SOL    HW1  670   0.690   1.161   2.945
  216SOL    HW2  671   0.802   1.231   2.849
  217SOL     OW  672   0.685   1.012   2.527
  217SOL    HW1  673   0.754   0.996   2.597
  217SOL    HW2  674   0.612   1.069   2.565
  218SOL     OW  675   0.335   1.435   2.923
  218SOL    HW1  676   0.257   1.404   2.870
  218SOL    HW2  677   0.393   1.493   2.866
  219SOL     OW  678   1.603   0.447   2.599
  219SOL    HW1  679   1.529   0.493   2.549
  219SOL    HW2  680   1.654   0.515   2.652
  220SOL     OW  681   0.231   1.713   2.345
  220SOL    HW1  682   0.265   1.790   2.399
  220SOL    HW2  683   0.275   1.713   2.255
  221SOL     OW  684   0.230   1.434   2.400
  221SOL    HW1  685   0.204   1.530   2.400
  221SOL    HW2  686   0.159   1.380   2.445
  222SOL     OW  687   0.240   1.091   2.748
  222SOL    HW1  688   0.254   1.007   2.800
  222SOL    HW2  689   0.185   1.155   2.803
  223SOL     OW  690   0.606   0.964   1.985
  223SOL    HW1  691   0.613   1.048   1.931
  223SOL    HW2  692   0.652   0.977   2.073
  224SOL     OW  693   0.122   0.643   2.425
  224SOL    HW1  694   0.077   0.555   2.442
  224SOL    HW2  695   0.121   0.697   2.509
  225SOL     OW  696   1.842   1.767   2.221
  225SOL    HW1  697   1.896   1.738   2.301
  225SOL    HW2  698   1.872   1.857   2.192
  226SOL     OW  699   0.027   1.596   1.979
  226SOL    HW1  700   0.008   1.500   2.000
  226SOL    HW2  701  -0.006   1.654   2.054
  227SOL     OW  702   1.689   0.922   2.474
  227SOL    HW1  703   1.784   0.893   2.482
  227SOL    HW2  704   1.681   0.987   2.399
  228SOL     OW  705   1.641   1.108   2.294
  228SOL    HW1  706   1.727   1.110   2.242
  228SOL    HW2  707   1.655   1.155   2.382
  229SOL     OW  708   0.613   1.365   2.588
  229SOL    HW1  709   0.564   1.278   2.597
  229SOL    HW2  710   0.590   1.408   2.501
  230SOL     OW  711   0.809   0.004   2.364
  230SOL    HW1  712   0.849   0.095   2.355
  230SOL    HW2  713   0.709   0.012   2.370
  231SOL     OW  714   0.197   0.976   3.126
  231SOL    HW1  715   0.286   0.931   3.112
  231SOL    HW2  716   0.124   0.911   3.107
  232SOL     OW  717   1.525   0.999   2.052
  232SOL    HW1  718   1.462   0.923   2.065
  232SOL    HW2  719   1.573   1.017   2.138
  233SOL     OW  720   1.466   1.417   2.815
  233SOL    HW1  721   1.407   1.423   2.895
  233SOL    HW2  722   1.451   1.329   2.769
  234SOL     OW  723   1.667   1.714   2.434
  234SOL    HW1  724   1.626   1.691   2.346
  234SOL    HW2  725   1.649   1.640   2.499
  235SOL     OW  726   0.598   0.729   2.132
  235SOL    HW1  727   0.622   0.798   2.064
  235SOL    HW2  728   0.520   0.762   2.186
  236SOL     OW  729   1.281   0.345   2.806
  236SOL    HW1  730   1.195   0.295   2.793
  236SOL    HW2  731   1.343   0.291   2.862
  237SOL     OW  732   1.576   1.662   2.169
  237SOL    HW1  733   1.665   1.708   2.172
  237SOL    HW2  734   1.555   1.638   2.074
  238SOL     OW  735   1.041   0.701   2.291
  238SOL    HW1  736   1.067   0.697   2.387
  238SOL    HW2  737   0.956   0.650   2.277
  239SOL     OW  738   0.076   0.811   2.651
  239SOL    HW1  739   0.175   0.799   2.660
  239SOL    HW2  740   0.052   0.906   2.672
  240SOL     OW  741   0.865   0.348   2.057
  240SOL    HW1  742   0.924   0.411   2.008
  240SOL    HW2  743   0.884   0.254   2.028
  241SOL     OW  744   1.362   1.144   2.407
  241SOL    HW1  745   1.445   1.115   2.359
  241SOL    HW2  746   1.313   1.211   2.351
  242SOL     OW  747   0.550   0.196   2.747
  242SOL    HW1  748   0.545   0.191   2.847
  242SOL    HW2  749   0.552   0.292   2.718
  243SOL     OW  750   1.008   1.456   2.339
  243SOL    HW1  751   0.962   1.528   2.287
  243SOL    HW2  752   1.004   1.476   2.437
  244SOL     OW  753   0.351   1.801   2.715
  244SOL    HW1  754   0.401   1.715   2.721
  244SOL    HW2  755   0.416   1.878   2.712
  245SOL     OW  756   1.795   1.066   2.735
  245SOL    HW1  757   1.733   1.051   2.659
  245SOL    HW2  758   1.743   1.077   2.820
  246SOL     OW  759   0.321   0.943   2.104
  246SOL    HW1  760   0.403   0.982   2.062
  246SOL    HW2  761   0.294   0.861   2.055
  247SOL     OW  762   1.458   0.735   2.590
  247SOL    HW1  763   1.453   0.670   2.665
  247SOL    HW2  764   1.538   0.794   2.603
  248SOL     OW  765   1.111   1.776   2.099
  248SOL    HW1  766   1.051   1.714   2.149
  248SOL    HW2  767   1.142   1.732   2.014
  249SOL     OW  768   1.632   1.377   1.943
  249SOL    HW1  769   1.600   1.471   1.933
  249SOL    HW2  770   1.556   1.314   1.931
  250SOL     OW  771   0.464   1.743   2.185
  250SOL    HW1  772   0.497   1.782   2.271
  250SOL    HW2  773   0.540   1.736   2.120
  251SOL     OW  774   1.400   0.107   2.288
  251SOL    HW1  775   1.376   0.070   2.198
  251SOL    HW2  776   1.499   0.123   2.292
  252SOL     OW  777   0.249   1.785   3.103
  252SOL    HW1  778   0.306   1.720   3.153
  252SOL    HW2  779   0.233   1.752   3.010
  253SOL     OW  780   0.940   1.698   2.766
  253SOL    HW1  781   1.020   1.641   2.787
  253SOL    HW2  782   0.891   1.658   2.689
  254SOL     OW  783   0.382   0.700   2.342
  254SOL    HW1  784   0.427   0.610   2.339
  254SOL    HW2  785   0.288   0.689   2.375
  255SOL     OW  786   0.614   0.122   1.979
  255SOL    HW1  787   0.712   0.100   1.986
  255SOL    HW2  788   0.583   0.105   1.886
  256SOL     OW  789   0.803   1.402   2.786
  256SOL    HW1  790   0.893   1.416   2.744
  256SOL    HW2  791   0.732   1.404   2.715
  257SOL     OW  792   0.922   0.503   2.761
  257SOL    HW1  793   0.897   0.494   2.665
  257SOL    HW2  794   0.970   0.421   2.792
  258SOL     OW  795   0.539   0.064   2.374
  258SOL    HW1  796   0.458   0.065   2.432
  258SOL    HW2  797   0.542   0.147   2.319
  259SOL     OW  798   1.434   1.188   1.903
  259SOL    HW1  799   1.466   1.112   1.960
  259SOL    HW2  800   1.342   1.215   1.933
  260SOL     OW  801   0.297   0.035   2.033
  260SOL    HW1  802   0.346   0.119   2.012
  260SOL    HW2  803   0.359  -0.030   2.078
  261SOL     OW  804   0.935   0.236   2.342
  261SOL    HW1  805   0.887   0.277   2.264
  261SOL    HW2  806   1.034   0.234   2.323
  262SOL     OW  807   1.227   1.570   2.655
  262SOL    HW1  808   1.248   1.644   2.590
  262SOL    HW2  809   1.295   1.570   2.728
  263SOL     OW  810   0.459   1.152   2.603
  263SOL    HW1  811   0.388   1.125   2.668
  263SOL    HW2  812   0.433   1.124   2.510
  264SOL     OW  813   1.271   1.797   2.453
  264SOL    HW1  814   1.315   1.861   2.389
  264SOL    HW2  815   1.221   1.849   2.523
  265SOL     OW  816   1.032   0.549   1.878
  265SOL    HW1  817   0.991   0.631   1.839
  265SOL    HW2  818   1.096   0.575   1.951
  266SOL     OW  819   0.866   0.454   2.504
  266SOL    HW1  820   0.834   0.526   2.442
  266SOL    HW2  821   0.890   0.373   2.451
  267SOL     OW  822   1.017   0.039   2.615
  267SOL    HW1  823   0.945   0.044   2.546
  267SOL    HW2  824   0.993  -0.030   2.684
  268SOL     OW  825   1.429   1.173   2.729
  268SOL    HW1  826   1.374   1.089   2.722
  268SOL    HW2  827   1.455   1.202   2.637
  269SOL     OW  828   1.466   0.590   2.854
  269SOL    HW1  829   1.436   0.495   2.861
  269SOL    HW2  830   1.539   0.606   2.920
  270SOL     OW  831   1.857   0.833   2.239
  270SOL    HW1  832   1.899   0.769   2.303
  270SOL    HW2  833   1.819   0.782   2.161
  271SOL     OW  834   0.488   1.385   2.036
  271SOL    HW1  835   0.401   1.370   2.083
  271SOL    HW2  836   0.471   1.411   1.941
  272SOL     OW  837   1.664   1.280   2.519
  272SOL    HW1  838   1.763   1.288   2.533
  272SOL    HW2  839   1.619   1.364   2.550
  273SOL     OW  840   1.390   0.575   1.940
  273SOL    HW1  841   1.336   0.554   2.021
  273SOL    HW2  842   1.481   0.534   1.949
  274SOL     OW  843   0.527   0.256   2.190
  274SOL    HW1  844   0.554   0.197   2.115
  274SOL    HW2  845   0.527   0.351   2.159
  275SOL     OW  846   1.111   1.195   2.962
  275SOL    HW1  847   1.071   1.239   3.043
  275SOL    HW2  848   1.070   1.232   2.879
  276SOL     OW  849   1.638   1.099   2.941
  276SOL    HW1  850   1.643   1.180   3.000
  276SOL    HW2  851   1.552   1.101   2.890
  277SOL     OW  852   0.705   1.050   2.230
  277SOL    HW1  853   0.691   1.057   2.329
  277SOL    HW2  854   0.789   0.999   2.212
  278SOL     OW  855   0.410   0.813   3.113
  278SOL    HW1  856   0.496   0.825   3.163
  278SOL    HW2  857   0.368   0.726   3.140
  279SOL     OW  858   0.367   1.100   2.363
  279SOL    HW1  859   0.360   1.183   2.307
  279SOL    HW2  860   0.371   1.020   2.303
  280SOL     OW  861   0.566   0.537   2.727
  280SOL    HW1  862   0.578   0.603   2.653
  280SOL    HW2  863   0.612   0.571   2.810
  281SOL     OW  864   1.252   1.348   2.250
  281SOL    HW1  865   1.302   1.425   2.290
  281SOL    HW2  866   1.157   1.350   2.282
  282SOL     OW  867   1.272   1.445   3.004
  282SOL    HW1  868   1.319   1.458   3.091
  282SOL    HW2  869   1.206   1.371   3.013
  283SOL     OW  870   1.582   0.639   2.334
  283SOL    HW1  871   1.551   0.700   2.407
  283SOL    HW2  872   1.632   0.691   2.265
  284SOL     OW  873   0.573   0.870   2.891
  284SOL    HW1  874   0.617   0.959   2.882
  284SOL    HW2  875   0.510   0.870   2.968
  285SOL     OW  876   1.209   0.525   2.137
  285SOL    HW1  877   1.222   0.441   2.191
  285SOL    HW2  878   1.180   0.599   2.197
  286SOL     OW  879   0.307   0.213   3.093
  286SOL    HW1  880   0.284   0.250   3.183
  286SOL    HW2  881   0.277   0.118   3.087
  287SOL     OW  882   0.732   0.634   2.926
  287SOL    HW1  883   0.791   0.608   2.850
  287SOL    HW2  884   0.704   0.730   2.915
  288SOL     OW  885   0.307   0.063   2.480
  288SOL    HW1  886   0.296   0.157   2.513
  288SOL    HW2  887   0.302   0.000   2.557
  289SOL     OW  888   1.622   0.367   2.236
  289SOL    HW1  889   1.624   0.291   2.300
  289SOL    HW2  890   1.574   0.444   2.276
  290SOL     OW  891   1.023   0.766   2.828
  290SOL    HW1  892   1.038   0.787   2.924
  290SOL    HW2  893   0.993   0.671   2.819
  291SOL     OW  894   1.540   0.274   1.987
  291SOL    HW1  895   1.479   0.199   2.010
  291SOL    HW2  896   1.562   0.326   2.070
  292SOL     OW  897   1.303   0.838   1.904
  292SOL    HW1  898   1.337   0.745   1.919
  292SOL    HW2  899   1.321   0.865   1.809
  293SOL     OW  900   1.068   1.333   2.711
  293SOL    HW1  901   1.075   1.249   2.656
  293SOL    HW2  902   1.130   1.402   2.675
  294SOL     OW  903   0.319   0.810   2.811
  294SOL    HW1  904   0.412   0.846   2.816
  294SOL    HW2  905   0.313   0.725   2.863
  295SOL     OW  906   0.339   0.509   2.868
  295SOL    HW1  907   0.287   0.426   2.851
  295SOL    HW2  908   0.416   0.514   2.804
  296SOL     OW  909   0.008   1.326   2.062
  296SOL    HW1  910  -0.085   1.347   2.031
  296SOL    HW2  911   0.018   1.227   2.075
  297SOL     OW  912   0.088   1.801   2.789
  297SOL    HW1  913   0.046   1.715   2.762
  297SOL    HW2  914   0.182   1.804   2.755
  298SOL     OW  915   0.504   1.568   2.772
  298SOL    HW1  916   0.570   1.642   2.781
  298SOL    HW2  917   0.548   1.489   2.730
  299SOL     OW  918   1.002   0.796   3.100
  299SOL    HW1  919   1.043   0.764   3.186
  299SOL    HW2  920   0.906   0.769   3.097
  300SOL     OW  921   0.815   0.572   2.187
  300SOL    HW1  922   0.822   0.483   2.141
  300SOL    HW2  923   0.721   0.606   2.179
  301SOL     OW  924   1.657   0.604   3.068
  301SOL    HW1  925   1.619   0.535   3.130
  301SOL    HW2  926   1.739   0.568   3.024
  302SOL     OW  927   0.671   0.464   3.131
  302SOL    HW1  928   0.637   0.375   3.101
  302SOL    HW2  929   0.697   0.518   3.051
  303SOL     OW  930   0.473   0.500   2.053
  303SOL    HW1  931   0.534   0.580   2.057
  303SOL    HW2  932   0.378   0.531   2.060
  304SOL     OW  933   1.302   0.855   2.171
  304SOL    HW1  934   1.216   0.824   2.213
  304SOL    HW2  935   1.298   0.841   2.072
  305SOL     OW  936   1.759   1.747   3.016
  305SOL    HW1  937   1.820   1.777   2.943
  305SOL    HW2  938   1.721   1.658   2.994
  306SOL     OW  939   0.083   1.258   2.884
  306SOL    HW1  940   0.078   1.257   2.984
  306SOL    HW2  941   0.000   1.217   2.846
  307SOL     OW  942   1.726   0.135   2.385
  307SOL    HW1  943   1.799   0.118   2.318
  307SOL    HW2  944   1.695   0.048   2.423
  308SOL     OW  945   1.388   1.573   2.339
  308SOL    HW1  946   1.455   1.585   2.265
  308SOL    HW2  947   1.348   1.662   2.362
  309SOL     OW  948   1.280   0.927   2.534
  309SOL    HW1  949   1.340   0.846   2.536
  309SOL    HW2  950   1.320   0.996   2.474
  310SOL     OW  951   0.672   1.616   2.016
  310SOL    HW1  952   0.681   1.626   1.917
  310SOL    HW2  953   0.632   1.527   2.037
  311SOL     OW  954   1.841   0.175   2.825
  311SOL    HW1  955   1.880   0.090   2.789
  311SOL    HW2  956   1.743   0.177   2.806
  312SOL     OW  957   0.263   0.326   2.582
  312SOL    HW1  958   0.184   0.377   2.548
  312SOL    HW2  959   0.254   0.311   2.680
  313SOL     OW  960   1.194   1.612   1.893
  313SOL    HW1  961   1.200   1.519   1.930
  313SOL    HW2  962   1.135   1.612   1.813
  314SOL     OW  963   0.822   1.002   3.234
  314SOL    HW1  964   0.862   1.001   3.142
  314SOL    HW2  965   0.832   1.094   3.274
  315SOL     OW  966   0.916   0.910   2.153
  315SOL    HW1  967   0.979   0.948   2.085
  315SOL    HW2  968   0.956   0.827   2.192
  316SOL     OW  969   1.039   1.098   2.558
  316SOL    HW1  970   0.969   1.051   2.612
  316SOL    HW2  971   1.098   1.030   2.515
  317SOL     OW  972   1.014   0.236   2.833
  317SOL    HW1  973   1.006   0.200   2.740
  317SOL    HW2  974   1.012   0.160   2.898
  318SOL     OW  975   0.590   1.487   2.353
  318SOL    HW1  976   0.632   1.429   2.283
  318SOL    HW2  977   0.546   1.566   2.309
  319SOL     OW  978   0.255   1.348   2.152
  319SOL    HW1  979   0.159   1.349   2.125
  319SOL    HW2  980   0.267   1.401   2.236
  320SOL     OW  981   0.075   0.345   1.895
  320SOL    HW1  982  -0.017   0.317   1.866
  320SOL    HW2  983   0.106   0.422   1.839
  321SOL     OW  984   0.072   0.166   2.180
  321SOL    HW1  985   0.055   0.249   2.126
  321SOL    HW2  986   0.162   0.129   2.158
  322SOL     OW  987   1.183   1.335   1.981
  322SOL    HW1  988   1.084   1.324   1.983
  322SOL    HW2  989   1.217   1.350   2.074
  323SOL     OW  990   1.493   1.767   2.821
  323SOL    HW1  991   1.526   1.831   2.752
  323SOL    HW2  992   1.559   1.761   2.896
  324SOL     OW  993   1.674   0.883   3.116
  324SOL    HW1  994   1.647   0.794   3.079
  324SOL    HW2  995   1.675   0.951   3.043
  325SOL     OW  996   1.225   0.325   2.311
  325SOL    HW1  997   1.290   0.251   2.300
  325SOL    HW2  998   1.245   0.375   2.395
  326SOL     OW  999   0.594   0.745   2.514
  326SOL    HW1 1000   0.644   0.830   2.495
  326SOL    HW2 1001   0.506   0.747   2.466
  327SOL     OW 1002   0.859   1.374   1.878
  327SOL    HW1 1003   0.813   1.389   1.966
  327SOL    HW2 1004   0.903   1.459   1.848
  328SOL     OW 1005   0.661   1.790   2.815
  328SOL    HW1 1006   0.615   1.878   2.802
  328SOL    HW2 1007   0.760   1.802   2.808
  329SOL     OW 1008   0.859   0.956   2.723
  329SOL    HW1 1009   0.913   0.887   2.771
  329SOL    HW2 1010   0.827   1.025   2.789
  330SOL     OW 1011   1.083   0.984   1.949
  330SOL    HW1 1012   1.060   1.037   1.867
  330SOL    HW2 1013   1.164   0.928   1.930
  331SOL     OW 1014   1.861   1.569   2.713
  331SOL    HW1 1015   1.790   1.557   2.643
  331SOL    HW2 1016   1.862   1.490   2.773
  332SOL     OW 1017   0.079   1.240   2.515
  332SOL    HW1 1018   0.078   1.193   2.603
  332SOL    HW2 1019   0.161   1.212   2.464
  333SOL     OW 1020   1.824   0.192   3.089
  333SOL    HW1 1021   1.820   0.102   3.133
  333SOL    HW2 1022   1.827   0.181   2.990
  334SOL     OW 1023   0.428   0.424   2.382
  334SOL    HW1 1024   0.458   0.352   2.320
  334SOL    HW2 1025   0.389   0.384   2.465
  335SOL     OW 1026   0.812   1.586   2.549
  335SOL    HW1 1027   0.844   1.596   2.455
  335SOL    HW2 1028   0.733   1.524   2.551
  336SOL     OW 1029   1.424   0.214   2.974
  336SOL    HW1 1030   1.476   0.149   3.029
  336SOL    HW2 1031   1.375   0.277   3.035
  337SOL     OW 1032   0.770   1.330   2.163
  337SOL    HW1 1033   0.724   1.243   2.180
  337SOL    HW2 1034   0.861   1.327   2.204
  338SOL     OW 1035   1.352   0.052   2.030
  338SOL    HW1 1036   1.387   0.011   1.946
  338SOL    HW2 1037   1.262   0.014   2.050
  339SOL     OW 1038   1.300   0.453   2.553
  339SOL    HW1 1039   1.241   0.533   2.557
  339SOL    HW2 1040   1.315   0.418   2.646
  340SOL     OW 1041   1.593   0.221   2.744
  340SOL    HW1 1042   1.509   0.220   2.798
  340SOL    HW2 1043   1.595   0.304   2.688
  341SOL     OW 1044   0.039   1.077   2.162
  341SOL    HW1 1045   0.138   1.066   2.153
  341SOL    HW2 1046  -0.001   0.991   2.194
  342SOL     OW 1047   0.875   1.646   2.199
  342SOL    HW1 1048   0.798   1.611   2.145
  342SOL    HW2 1049   0.843   1.717   2.261
  343SOL     OW 1050   0.230   2.490   0.113
  343SOL    HW1 1051   0.137   2.488   0.150
  343SOL    HW2 1052   0.231   2.451   0.021
  344SOL     OW 1053   0.225   2.137   0.996
  344SOL    HW1 1054   0.260   2.120   1.088
  344SOL    HW2 1055   0.137   2.092   0.984
  345SOL     OW 1056   0.019   2.230   0.647
  345SOL    HW1 1057  -0.063   2.273   0.686
  345SOL    HW2 1058  -0.009   2.157   0.584
  346SOL     OW 1059   1.135   2.565   0.717
  346SOL    HW1 1060   1.192   2.643   0.692
  346SOL    HW2 1061   1.075   2.591   0.793
  347SOL     OW 1062   1.755   2.469   0.231
  347SOL    HW1 1063   1.743   2.456   0.132
  347SOL    HW2 1064   1.725   2.388   0.280
  348SOL     OW 1065   0.768   3.006   1.023
  348SOL    HW1 1066   0.690   3.023   1.083
  348SOL    HW2 1067   0.802   3.093   0.987
  349SOL     OW 1068   0.850   2.660   1.823
  349SOL    HW1 1069   0.846   2.736   1.888
  349SOL    HW2 1070   0.872   2.696   1.732
  350SOL     OW 1071   0.685   2.874   0.665
  350SOL    HW1 1072   0.754   2.858   0.735
  350SOL    HW2 1073   0.612   2.931   0.703
  351SOL     OW 1074   1.460   3.367   1.339
  351SOL    HW1 1075   1.484   3.461   1.365
  351SOL    HW2 1076   1.444   3.313   1.421
  352SOL     OW 1077   0.438   2.254   1.499
  352SOL    HW1 1078   0.520   2.198   1.508
  352SOL    HW2 1079   0.357   2.196   1.503
  353SOL     OW 1080   1.603   2.309   0.737
  353SOL    HW1 1081   1.529   2.355   0.687
  353SOL    HW2 1082   1.654   2.377   0.790
  354SOL     OW 1083   0.240   2.953   0.886
  354SOL    HW1 1084   0.254   2.869   0.938
  354SOL    HW2 1085   0.185   3.017   0.941
  355SOL     OW 1086   0.606   2.826   0.123
  355SOL    HW1 1087   0.613   2.910   0.069
  355SOL    HW2 1088   0.652   2.839   0.211
  356SOL     OW 1089   1.594   1.976   1.480
  356SOL    HW1 1090   1.576   2.043   1.408
  356SOL    HW2 1091   1.591   2.022   1.569
  357SOL     OW 1092   0.122   2.505   0.563
  357SOL    HW1 1093   0.077   2.417   0.580
  357SOL    HW2 1094   0.121   2.559   0.647
  358SOL     OW 1095   1.689   2.784   0.612
  358SOL    HW1 1096   1.784   2.755   0.620
  358SOL    HW2 1097   1.681   2.849   0.537
  359SOL     OW 1098   0.113   2.599   1.597
  359SOL    HW1 1099   0.201   2.586   1.642
  359SOL    HW2 1100   0.100   2.696   1.575
  360SOL     OW 1101   0.613   3.227   0.726
  360SOL    HW1 1102   0.564   3.140   0.735
  360SOL    HW2 1103   0.590   3.270   0.639
  361SOL     OW 1104   1.293   3.090   1.423
  361SOL    HW1 1105   1.330   3.017   1.365
  361SOL    HW2 1106   1.345   3.095   1.508
  362SOL     OW 1107   0.809   1.866   0.502
  362SOL    HW1 1108   0.849   1.957   0.493
  362SOL    HW2 1109   0.709   1.874   0.508
  363SOL     OW 1110   0.197   2.838   1.264
  363SOL    HW1 1111   0.286   2.793   1.250
  363SOL    HW2 1112   0.124   2.773   1.245
  364SOL     OW 1113   1.525   2.861   0.190
  364SOL    HW1 1114   1.462   2.785   0.203
  364SOL    HW2 1115   1.573   2.879   0.276
  365SOL     OW 1116   0.317   2.113   1.801
  365SOL    HW1 1117   0.388   2.184   1.807
  365SOL    HW2 1118   0.229   2.152   1.829
  366SOL     OW 1119   0.598   2.591   0.270
  366SOL    HW1 1120   0.622   2.660   0.202
  366SOL    HW2 1121   0.520   2.624   0.324
  367SOL     OW 1122   1.281   2.207   0.944
  367SOL    HW1 1123   1.195   2.157   0.931
  367SOL    HW2 1124   1.343   2.153   1.000
  368SOL     OW 1125   0.807   2.467   1.465
  368SOL    HW1 1126   0.760   2.464   1.554
  368SOL    HW2 1127   0.756   2.412   1.399
  369SOL     OW 1128   1.394   2.331   1.674
  369SOL    HW1 1129   1.374   2.374   1.762
  369SOL    HW2 1130   1.472   2.269   1.683
  370SOL     OW 1131   0.973   2.752   1.572
  370SOL    HW1 1132   1.019   2.668   1.543
  370SOL    HW2 1133   0.917   2.786   1.497
  371SOL     OW 1134   0.991   2.272   1.242
  371SOL    HW1 1135   0.914   2.306   1.296
  371SOL    HW2 1136   0.957   2.221   1.163
  372SOL     OW 1137   1.041   2.563   0.429
  372SOL    HW1 1138   1.067   2.559   0.525
  372SOL    HW2 1139   0.956   2.512   0.415
  373SOL     OW 1140   0.076   2.673   0.789
  373SOL    HW1 1141   0.175   2.661   0.798
  373SOL    HW2 1142   0.052   2.768   0.810
  374SOL     OW 1143   0.865   2.210   0.195
  374SOL    HW1 1144   0.924   2.273   0.146
  374SOL    HW2 1145   0.884   2.116   0.166
  375SOL     OW 1146   1.719   2.447   1.831
  375SOL    HW1 1147   1.693   2.536   1.795
  375SOL    HW2 1148   1.717   2.379   1.758
  376SOL     OW 1149   0.550   2.058   0.885
  376SOL    HW1 1150   0.545   2.053   0.985
  376SOL    HW2 1151   0.552   2.154   0.856
  377SOL     OW 1152   1.795   2.928   0.873
  377SOL    HW1 1153   1.733   2.913   0.797
  377SOL    HW2 1154   1.743   2.939   0.958
  378SOL     OW 1155   0.321   2.805   0.242
  378SOL    HW1 1156   0.403   2.844   0.200
  378SOL    HW2 1157   0.294   2.723   0.193
  379SOL     OW 1158   1.458   2.597   0.728
  379SOL    HW1 1159   1.453   2.532   0.803
  379SOL    HW2 1160   1.538   2.656   0.741
  380SOL     OW 1161   0.202   2.147   1.498
  380SOL    HW1 1162   0.122   2.207   1.485
  380SOL    HW2 1163   0.192   2.098   1.584
  381SOL     OW 1164   1.400   1.969   0.426
  381SOL    HW1 1165   1.376   1.932   0.336
  381SOL    HW2 1166   1.499   1.985   0.430
  382SOL     OW 1167   0.382   2.562   0.480
  382SOL    HW1 1168   0.427   2.472   0.477
  382SOL    HW2 1169   0.288   2.551   0.513
  383SOL     OW 1170   1.547   2.084   1.729
  383SOL    HW1 1171   1.542   2.121   1.821
  383SOL    HW2 1172   1.475   2.015   1.717
  384SOL     OW 1173   0.614   1.984   0.117
  384SOL    HW1 1174   0.712   1.962   0.124
  384SOL    HW2 1175   0.583   1.967   0.024
  385SOL     OW 1176   0.781   2.126   1.749
  385SOL    HW1 1177   0.848   2.065   1.792
  385SOL    HW2 1178   0.708   2.145   1.814
  386SOL     OW 1179   1.351   2.452   1.433
  386SOL    HW1 1180   1.379   2.409   1.518
  386SOL    HW2 1181   1.376   2.548   1.434
  387SOL     OW 1182   0.922   2.365   0.899
  387SOL    HW1 1183   0.897   2.356   0.803
  387SOL    HW2 1184   0.970   2.283   0.930
  388SOL     OW 1185   0.539   1.926   0.512
  388SOL    HW1 1186   0.458   1.927   0.570
  388SOL    HW2 1187   0.542   2.009   0.457
  389SOL     OW 1188   0.297   1.897   0.171
  389SOL    HW1 1189   0.346   1.981   0.150
  389SOL    HW2 1190   0.359   1.832   0.216
  390SOL     OW 1191   0.935   2.098   0.480
  390SOL    HW1 1192   0.887   2.139   0.402
  390SOL    HW2 1193   1.034   2.096   0.461
  391SOL     OW 1194   1.076   2.545   1.464
  391SOL    HW1 1195   0.996   2.484   1.467
  391SOL    HW2 1196   1.157   2.492   1.440
  392SOL     OW 1197   0.459   3.014   0.741
  392SOL    HW1 1198   0.388   2.987   0.806
  392SOL    HW2 1199   0.433   2.986   0.648
  393SOL     OW 1200   1.032   2.411   0.016
  393SOL    HW1 1201   0.991   2.493  -0.023
  393SOL    HW2 1202   1.096   2.437   0.089
  394SOL     OW 1203   0.078   2.418   1.386
  394SOL    HW1 1204   0.170   2.417   1.345
  394SOL    HW2 1205   0.072   2.492   1.453
  395SOL     OW 1206   0.561   2.084   1.147
  395SOL    HW1 1207   0.599   2.000   1.184
  395SOL    HW2 1208   0.473   2.103   1.191
  396SOL     OW 1209   0.866   2.316   0.642
  396SOL    HW1 1210   0.834   2.388   0.580
  396SOL    HW2 1211   0.890   2.235   0.589
  397SOL     OW 1212   1.017   1.901   0.753
  397SOL    HW1 1213   0.945   1.906   0.684
  397SOL    HW2 1214   0.993   1.832   0.822
  398SOL     OW 1215   1.429   3.035   0.867
  398SOL    HW1 1216   1.374   2.951   0.860
  398SOL    HW2 1217   1.455   3.064   0.775
  399SOL     OW 1218   1.466   2.452   0.992
  399SOL    HW1 1219   1.436   2.357   0.999
  399SOL    HW2 1220   1.539   2.468   1.058
  400SOL     OW 1221   1.857   2.695   0.377
  400SOL    HW1 1222   1.899   2.631   0.441
  400SOL    HW2 1223   1.819   2.644   0.299
  401SOL     OW 1224   1.390   2.437   0.078
  401SOL    HW1 1225   1.336   2.416   0.159
  401SOL    HW2 1226   1.481   2.396   0.087
  402SOL     OW 1227   0.527   2.118   0.328
  402SOL    HW1 1228   0.554   2.059   0.253
  402SOL    HW2 1229   0.527   2.213   0.297
  403SOL     OW 1230   1.754   3.085   1.588
  403SOL    HW1 1231   1.845   3.046   1.575
  403SOL    HW2 1232   1.762   3.181   1.612
  404SOL     OW 1233   1.638   2.961   1.079
  404SOL    HW1 1234   1.643   3.042   1.138
  404SOL    HW2 1235   1.552   2.963   1.028
  405SOL     OW 1236   0.915   1.951   1.402
  405SOL    HW1 1237   0.940   1.931   1.307
  405SOL    HW2 1238   0.987   2.007   1.444
  406SOL     OW 1239   0.705   2.912   0.368
  406SOL    HW1 1240   0.691   2.919   0.467
  406SOL    HW2 1241   0.789   2.861   0.350
  407SOL     OW 1242   0.410   2.675   1.251
  407SOL    HW1 1243   0.496   2.687   1.301
  407SOL    HW2 1244   0.368   2.588   1.278
  408SOL     OW 1245   1.274   2.248   1.262
  408SOL    HW1 1246   1.295   2.322   1.326
  408SOL    HW2 1247   1.185   2.265   1.219
  409SOL     OW 1248   0.367   2.962   0.501
  409SOL    HW1 1249   0.360   3.045   0.445
  409SOL    HW2 1250   0.371   2.882   0.441
  410SOL     OW 1251   0.566   2.399   0.865
  410SOL    HW1 1252   0.578   2.465   0.791
  410SOL    HW2 1253   0.612   2.433   0.948
  411SOL     OW 1254   1.582   2.501   0.472
  411SOL    HW1 1255   1.551   2.562   0.545
  411SOL    HW2 1256   1.632   2.553   0.403
  412SOL     OW 1257   0.402   2.613   1.598
  412SOL    HW1 1258   0.470   2.668   1.551
  412SOL    HW2 1259   0.442   2.525   1.625
  413SOL     OW 1260   1.587   2.641   1.670
  413SOL    HW1 1261   1.495   2.679   1.665
  413SOL    HW2 1262   1.647   2.688   1.605
  414SOL     OW 1263   1.013   1.967   1.770
  414SOL    HW1 1264   1.019   2.052   1.718
  414SOL    HW2 1265   1.045   1.891   1.713
  415SOL     OW 1266   0.504   1.912   1.740
  415SOL    HW1 1267   0.462   1.855   1.670
  415SOL    HW2 1268   0.438   1.981   1.772
  416SOL     OW 1269   0.573   2.732   1.029
  416SOL    HW1 1270   0.617   2.821   1.020
  416SOL    HW2 1271   0.510   2.732   1.106
  417SOL     OW 1272   1.360   2.724   1.045
  417SOL    HW1 1273   1.285   2.724   0.979
  417SOL    HW2 1274   1.397   2.632   1.054
  418SOL     OW 1275   1.209   2.387   0.275
  418SOL    HW1 1276   1.222   2.303   0.329
  418SOL    HW2 1277   1.180   2.461   0.335
  419SOL     OW 1278   0.307   2.075   1.231
  419SOL    HW1 1279   0.284   2.112   1.321
  419SOL    HW2 1280   0.277   1.980   1.225
  420SOL     OW 1281   0.037   3.172   1.282
  420SOL    HW1 1282   0.090   3.123   1.350
  420SOL    HW2 1283   0.059   3.270   1.287
  421SOL     OW 1284   0.732   2.496   1.064
  421SOL    HW1 1285   0.791   2.470   0.988
  421SOL    HW2 1286   0.704   2.592   1.053
  422SOL     OW 1287   1.728   2.797   1.854
  422SOL    HW1 1288   1.682   2.790   1.765
  422SOL    HW2 1289   1.666   2.841   1.920
  423SOL     OW 1290   0.307   1.925   0.618
  423SOL    HW1 1291   0.296   2.019   0.651
  423SOL    HW2 1292   0.302   1.862   0.695
  424SOL     OW 1293   1.622   2.229   0.374
  424SOL    HW1 1294   1.624   2.153   0.438
  424SOL    HW2 1295   1.574   2.306   0.414
  425SOL     OW 1296   1.023   2.628   0.966
  425SOL    HW1 1297   1.038   2.649   1.062
  425SOL    HW2 1298   0.993   2.533   0.957
  426SOL     OW 1299   0.350   2.760   1.804
  426SOL    HW1 1300   0.426   2.804   1.852
  426SOL    HW2 1301   0.385   2.713   1.722
  427SOL     OW 1302   1.540   2.136   0.125
  427SOL    HW1 1303   1.479   2.061   0.148
  427SOL    HW2 1304   1.562   2.188   0.208
  428SOL     OW 1305   1.303   2.700   0.042
  428SOL    HW1 1306   1.337   2.607   0.057
  428SOL    HW2 1307   1.321   2.727  -0.053
  429SOL     OW 1308   0.319   2.672   0.949
  429SOL    HW1 1309   0.412   2.708   0.954
  429SOL    HW2 1310   0.313   2.587   1.001
  430SOL     OW 1311   0.339   2.371   1.006
  430SOL    HW1 1312   0.287   2.288   0.989
  430SOL    HW2 1313   0.416   2.376   0.942
  431SOL     OW 1314   1.138   2.242   1.678
  431SOL    HW1 1315   1.093   2.305   1.742
  431SOL    HW2 1316   1.231   2.273   1.661
  432SOL     OW 1317   1.160   2.069   1.477
  432SOL    HW1 1318   1.160   2.133   1.554
  432SOL    HW2 1319   1.188   2.117   1.394
  433SOL     OW 1320   1.002   2.658   1.238
  433SOL    HW1 1321   1.043   2.626   1.324
  433SOL    HW2 1322   0.906   2.631   1.235
  434SOL     OW 1323   0.040   2.406   1.114
  434SOL    HW1 1324   0.125   2.373   1.073
  434SOL    HW2 1325   0.053   2.421   1.212
  435SOL     OW 1326   0.189   2.382   1.722
  435SOL    HW1 1327   0.248   2.342   1.652
  435SOL    HW2 1328   0.131   2.453   1.681
  436SOL     OW 1329   1.369   2.812   1.660
  436SOL    HW1 1330   1.408   2.901   1.680
  436SOL    HW2 1331   1.379   2.792   1.563
  437SOL     OW 1332   0.815   2.434   0.325
  437SOL    HW1 1333   0.822   2.345   0.279
  437SOL    HW2 1334   0.721   2.468   0.317
  438SOL     OW 1335   1.657   2.466   1.206
  438SOL    HW1 1336   1.619   2.397   1.268
  438SOL    HW2 1337   1.739   2.430   1.162
  439SOL     OW 1338   0.671   2.326   1.269
  439SOL    HW1 1339   0.637   2.237   1.239
  439SOL    HW2 1340   0.697   2.380   1.189
  440SOL     OW 1341   0.473   2.362   0.191
  440SOL    HW1 1342   0.534   2.442   0.195
  440SOL    HW2 1343   0.378   2.393   0.198
  441SOL     OW 1344   0.159   2.999   1.466
  441SOL    HW1 1345   0.181   2.938   1.542
  441SOL    HW2 1346   0.169   2.950   1.380
  442SOL     OW 1347   1.347   2.921   1.234
  442SOL    HW1 1348   1.371   2.858   1.160
  442SOL    HW2 1349   1.257   2.961   1.216
  443SOL     OW 1350   1.302   2.717   0.309
  443SOL    HW1 1351   1.216   2.686   0.351
  443SOL    HW2 1352   1.298   2.703   0.210
  444SOL     OW 1353   0.083   3.120   1.022
  444SOL    HW1 1354   0.078   3.119   1.122
  444SOL    HW2 1355   0.000   3.079   0.984
  445SOL     OW 1356   0.903   1.948   0.133
  445SOL    HW1 1357   0.954   1.949   0.047
  445SOL    HW2 1358   0.959   1.906   0.204
  446SOL     OW 1359   1.726   1.997   0.523
  446SOL    HW1 1360   1.799   1.980   0.456
  446SOL    HW2 1361   1.695   1.910   0.561
  447SOL     OW 1362   1.280   2.789   0.672
  447SOL    HW1 1363   1.340   2.708   0.674
  447SOL    HW2 1364   1.320   2.858   0.612
  448SOL     OW 1365   1.841   2.037   0.963
  448SOL    HW1 1366   1.880   1.952   0.927
  448SOL    HW2 1367   1.743   2.039   0.944
  449SOL     OW 1368   0.263   2.188   0.720
  449SOL    HW1 1369   0.184   2.239   0.686
  449SOL    HW2 1370   0.254   2.173   0.818
  450SOL     OW 1371   0.822   2.864   1.372
  450SOL    HW1 1372   0.862   2.863   1.280
  450SOL    HW2 1373   0.832   2.956   1.412
  451SOL     OW 1374   0.916   2.772   0.291
  451SOL    HW1 1375   0.979   2.810   0.223
  451SOL    HW2 1376   0.956   2.689   0.330
  452SOL     OW 1377   0.372   3.150   1.490
  452SOL    HW1 1378   0.359   3.243   1.456
  452SOL    HW2 1379   0.288   3.098   1.477
  453SOL     OW 1380   1.014   2.098   0.971
  453SOL    HW1 1381   1.006   2.062   0.878
  453SOL    HW2 1382   1.012   2.022   1.036
  454SOL     OW 1383   1.709   2.247   1.381
  454SOL    HW1 1384   1.782   2.316   1.385
  454SOL    HW2 1385   1.737   2.172   1.322
  455SOL     OW 1386   0.105   2.875   1.726
  455SOL    HW1 1387   0.028   2.842   1.780
  455SOL    HW2 1388   0.190   2.845   1.768
  456SOL     OW 1389   0.672   2.065   1.489
  456SOL    HW1 1390   0.762   2.049   1.449
  456SOL    HW2 1391   0.680   2.070   1.588
  457SOL     OW 1392   0.075   2.207   0.033
  457SOL    HW1 1393  -0.017   2.179   0.004
  457SOL    HW2 1394   0.106   2.284  -0.023
  458SOL     OW 1395   1.440   2.718   1.398
  458SOL    HW1 1396   1.383   2.770   1.335
  458SOL    HW2 1397   1.536   2.730   1.374
  459SOL     OW 1398   0.072   2.028   0.318
  459SOL    HW1 1399   0.055   2.111   0.264
  459SOL    HW2 1400   0.162   1.991   0.296
  460SOL     OW 1401   1.183   3.197   0.119
  460SOL    HW1 1402   1.084   3.186   0.121
  460SOL    HW2 1403   1.217   3.212   0.212
  461SOL     OW 1404   0.613   2.704   1.431
  461SOL    HW1 1405   0.669   2.785   1.414
  461SOL    HW2 1406   0.672   2.624   1.434
  462SOL     OW 1407   0.716   2.427   1.708
  462SOL    HW1 1408   0.735   2.492   1.782
  462SOL    HW2 1409   0.776   2.347   1.717
  463SOL     OW 1410   1.450   3.082   1.633
  463SOL    HW1 1411   1.441   3.072   1.732
  463SOL    HW2 1412   1.546   3.075   1.607
  464SOL     OW 1413   1.674   2.745   1.254
  464SOL    HW1 1414   1.647   2.656   1.217
  464SOL    HW2 1415   1.675   2.813   1.181
  465SOL     OW 1416   1.225   2.187   0.449
  465SOL    HW1 1417   1.290   2.113   0.438
  465SOL    HW2 1418   1.245   2.237   0.533
  466SOL     OW 1419   0.594   2.607   0.652
  466SOL    HW1 1420   0.644   2.692   0.633
  466SOL    HW2 1421   0.506   2.609   0.604
  467SOL     OW 1422   1.777   2.204   1.642
  467SOL    HW1 1423   1.760   2.235   1.548
  467SOL    HW2 1424   1.693   2.167   1.680
  468SOL     OW 1425   1.730   2.796   1.517
  468SOL    HW1 1426   1.768   2.887   1.532
  468SOL    HW2 1427   1.722   2.779   1.418
  469SOL     OW 1428   0.859   2.818   0.861
  469SOL    HW1 1429   0.913   2.749   0.909
  469SOL    HW2 1430   0.827   2.887   0.927
  470SOL     OW 1431   1.083   2.846   0.087
  470SOL    HW1 1432   1.060   2.899   0.005
  470SOL    HW2 1433   1.164   2.790   0.068
  471SOL     OW 1434   0.079   3.102   0.653
  471SOL    HW1 1435   0.078   3.055   0.741
  471SOL    HW2 1436   0.161   3.074   0.602
  472SOL     OW 1437   1.824   2.054   1.227
  472SOL    HW1 1438   1.820   1.964   1.271
  472SOL    HW2 1439   1.827   2.043   1.128
  473SOL     OW 1440   0.428   2.286   0.520
  473SOL    HW1 1441   0.458   2.214   0.458
  473SOL    HW2 1442   0.389   2.246   0.603
  474SOL     OW 1443   0.317   2.409   1.280
  474SOL    HW1 1444   0.355   2.350   1.352
  474SOL    HW2 1445   0.357   2.383   1.192
  475SOL     OW 1446   1.424   2.076   1.112
  475SOL    HW1 1447   1.476   2.011   1.167
  475SOL    HW2 1448   1.375   2.139   1.173
  476SOL     OW 1449   1.001   1.896   1.154
  476SOL    HW1 1450   0.938   1.824   1.123
  476SOL    HW2 1451   1.094   1.860   1.154
  477SOL     OW 1452   0.770   3.192   0.301
  477SOL    HW1 1453   0.724   3.105   0.318
  477SOL    HW2 1454   0.861   3.189   0.342
  478SOL     OW 1455   1.352   1.914   0.168
  478SOL    HW1 1456   1.387   1.873   0.084
  478SOL    HW2 1457   1.262   1.876   0.188
  479SOL     OW 1458   1.300   2.315   0.691
  479SOL    HW1 1459   1.241   2.395   0.695
  479SOL    HW2 1460   1.315   2.280   0.784
  480SOL     OW 1461   1.593   2.083   0.882
  480SOL    HW1 1462   1.509   2.082   0.936
  480SOL    HW2 1463   1.595   2.166   0.826
  481SOL     OW 1464   0.039   2.939   0.300
  481SOL    HW1 1465   0.138   2.928   0.291
  481SOL    HW2 1466  -0.001   2.853   0.332
  482SOL     OW 1467   0.230   2.490   1.975
  482SOL    HW1 1468   0.137   2.488   2.012
  482SOL    HW2 1469   0.231   2.451   1.883
  483SOL     OW 1470   0.225   2.137   2.858
  483SOL    HW1 1471   0.260   2.120   2.950
  483SOL    HW2 1472   0.137   2.092   2.846
  484SOL     OW 1473   0.019   2.230   2.509
  484SOL    HW1 1474  -0.063   2.273   2.548
  484SOL    HW2 1475  -0.009   2.157   2.446
  485SOL     OW 1476   1.135   2.565   2.579
  485SOL    HW1 1477   1.192   2.643   2.554
  485SOL    HW2 1478   1.075   2.591   2.655
  486SOL     OW 1479   1.755   2.469   2.093
  486SOL    HW1 1480   1.743   2.456   1.994
  486SOL    HW2 1481   1.725   2.388   2.142
  487SOL     OW 1482   0.768   3.006   2.885
  487SOL    HW1 1483   0.690   3.023   2.945
  487SOL    HW2 1484   0.802   3.093   2.849
  488SOL     OW 1485   0.685   2.874   2.527
  488SOL    HW1 1486   0.754   2.858   2.597
  488SOL    HW2 1487   0.612   2.931   2.565
  489SOL     OW 1488   1.603   2.309   2.599
  489SOL    HW1 1489   1.529   2.355   2.549
  489SOL    HW2 1490   1.654   2.377   2.652
  490SOL     OW 1491   0.240   2.953   2.748
  490SOL    HW1 1492   0.254   2.869   2.800
  490SOL    HW2 1493   0.185   3.017   2.803
  491SOL     OW 1494   0.606   2.826   1.985
  491SOL    HW1 1495   0.613   2.910   1.931
  491SOL    HW2 1496   0.652   2.839   2.073
  492SOL     OW 1497   0.122   2.505   2.425
  492SOL    HW1 1498   0.077   2.417   2.442
  492SOL    HW2 1499   0.121   2.559   2.509
  493SOL     OW 1500   1.689   2.784   2.474
  493SOL    HW1 1501   1.784   2.755   2.482
  493SOL    HW2 1502   1.681   2.849   2.399
  494SOL     OW 1503   0.613   3.227   2.588
  494SOL    HW1 1504   0.564   3.140   2.597
  494SOL    HW2 1505   0.590   3.270   2.501
  495SOL     OW 1506   0.809   1.866   2.364
  495SOL    HW1 1507   0.849   1.957   2.355
  495SOL    HW2 1508   0.709   1.874   2.370
  496SOL     OW 1509   0.197   2.838   3.126
  496SOL    HW1 1510   0.286   2.793   3.112
  496SOL    HW2 1511   0.124   2.773   3.107
  497SOL     OW 1512   1.525   2.861   2.052
  497SOL    HW1 1513   1.462   2.785   2.065
  497SOL    HW2 1514   1.573   2.879   2.138
  498SOL     OW 1515   0.598   2.591   2.132
  498SOL    HW1 1516   0.622   2.660   2.064
  498SOL    HW2 1517   0.520   2.624   2.186
  499SOL     OW 1518   1.281   2.207   2.806
  499SOL    HW1 1519   1.195   2.157   2.793
  499SOL    HW2 1520   1.343   2.153   2.862
  500SOL     OW 1521   1.041   2.563   2.291
  500SOL    HW1 1522   1.067   2.559   2.387
  500SOL    HW2 1523   0.956   2.512   2.277
  501SOL     OW 1524   0.076   2.673   2.651
  501SOL    HW1 1525   0.175   2.661   2.660
  501SOL    HW2 1526   0.052   2.768   2.672
  502SOL     OW 1527   0.865   2.210   2.057
  502SOL    HW1 1528   0.924   2.273   2.008
  502SOL    HW2 1529   0.884   2.116   2.028
  503SOL     OW 1530   0.550   2.058   2.747
  503SOL    HW1 1531   0.545   2.053   2.847
  503SOL    HW2 1532   0.552   2.154   2.718
  504SOL     OW 1533   1.795   2.928   2.735
  504SOL    HW1 1534   1.733   2.913   2.659
  504SOL    HW2 1535   1.743   2.939   2.820
  505SOL     OW 1536   0.321   2.805   2.104
  505SOL    HW1 1537   0.403   2.844   2.062
  505SOL    HW2 1538   0.294   2.723   2.055
  506SOL     OW 1539   1.458   2.597   2.590
  506SOL    HW1 1540   1.453   2.532   2.665
  506SOL    HW2 1541   1.538   2.656   2.603
  507SOL     OW 1542   1.400   1.969   2.288
  507SOL    HW1 1543   1.376   1.932   2.198
  507SOL    HW2 1544   1.499   1.985   2.292
  508SOL     OW 1545   0.382   2.562   2.342
  508SOL    HW1 1546   0.427   2.472   2.339
  508SOL    HW2 1547   0.288   2.551   2.375
  509SOL     OW 1548   0.614   1.984   1.979
  509SOL    HW1 1549   0.712   1.962   1.986
  509SOL    HW2 1550   0.583   1.967   1.886
  510SOL     OW 1551   0.888   3.376   3.057
  510SOL    HW1 1552   0.865   3.351   2.963
  510SOL    HW2 1553   0.949   3.307   3.096
  511SOL     OW 1554   0.922   2.365   2.761
  511SOL    HW1 1555   0.897   2.356   2.665
  511SOL    HW2 1556   0.970   2.283   2.792
  512SOL     OW 1557   0.539   1.926   2.374
  512SOL    HW1 1558   0.458   1.927   2.432
  512SOL    HW2 1559   0.542   2.009   2.319
  513SOL     OW 1560   0.297   1.897   2.033
  513SOL    HW1 1561   0.346   1.981   2.012
  513SOL    HW2 1562   0.359   1.832   2.078
  514SOL     OW 1563   0.935   2.098   2.342
  514SOL    HW1 1564   0.887   2.139   2.264
  514SOL    HW2 1565   1.034   2.096   2.323
  515SOL     OW 1566   0.459   3.014   2.603
  515SOL    HW1 1567   0.388   2.987   2.668
  515SOL    HW2 1568   0.433   2.986   2.510
  516SOL     OW 1569   1.032   2.411   1.878
  516SOL    HW1 1570   0.991   2.493   1.839
  516SOL    HW2 1571   1.096   2.437   1.951
  517SOL     OW 1572   0.866   2.316   2.504
  517SOL    HW1 1573   0.834   2.388   2.442
  517SOL    HW2 1574   0.890   2.235   2.451
  518SOL     OW 1575   1.017   1.901   2.615
  518SOL    HW1 1576   0.945   1.906   2.546
  518SOL    HW2 1577   0.993   1.832   2.684
  519SOL     OW 1578   1.429   3.035   2.729
  519SOL    HW1 1579   1.374   2.951   2.722
  519SOL    HW2 1580   1.455   3.064   2.637
  520SOL     OW 1581   1.466   2.452   2.854
  520SOL    HW1 1582   1.436   2.357   2.861
  520SOL    HW2 1583   1.539   2.468   2.920
  521SOL     OW 1584   1.857   2.695   2.239
  521SOL    HW1 1585   1.899   2.631   2.303
  521SOL    HW2 1586   1.819   2.644   2.161
  522SOL     OW 1587   1.390   2.437   1.940
  522SOL    HW1 1588   1.336   2.416   2.021
  522SOL    HW2 1589   1.481   2.396   1.949
  523SOL     OW 1590   0.527   2.118   2.190
  523SOL    HW1 1591   0.554   2.059   2.115
  523SOL    HW2 1592   0.527   2.213   2.159
  524SOL     OW 1593   1.111   3.057   2.962
  524SOL    HW1 1594   1.071   3.101   3.043
  524SOL    HW2 1595   1.070   3.094   2.879
  525SOL     OW 1596   1.638   2.961   2.941
  525SOL    HW1 1597   1.643   3.042   3.000
  525SOL    HW2 1598   1.552   2.963   2.890
  526SOL     OW 1599   0.705   2.912   2.230
  526SOL    HW1 1600   0.691   2.919   2.329
  526SOL    HW2 1601   0.789   2.861   2.212
  527SOL     OW 1602   0.410   2.675   3.113
  527SOL    HW1 1603   0.496   2.687   3.163
  527SOL    HW2 1604   0.368   2.588   3.140
  528SOL     OW 1605   0.367   2.962   2.363
  528SOL    HW1 1606   0.360   3.045   2.307
  528SOL    HW2 1607   0.371   2.882   2.303
  529SOL     OW 1608   0.566   2.399   2.727
  529SOL    HW1 1609   0.578   2.465   2.653
  529SOL    HW2 1610   0.612   2.433   2.810
  530SOL     OW 1611   1.582   2.501   2.334
  530SOL    HW1 1612   1.551   2.562   2.407
  530SOL    HW2 1613   1.632   2.553   2.265
  531SOL     OW 1614   0.573   2.732   2.891
  531SOL    HW1 1615   0.617   2.821   2.882
  531SOL    HW2 1616   0.510   2.732   2.968
  532SOL     OW 1617   1.209   2.387   2.137
  532SOL    HW1 1618   1.222   2.303   2.191
  532SOL    HW2 1619   1.180   2.461   2.197
  533SOL     OW 1620   0.307   2.075   3.093
  533SOL    HW1 1621   0.284   2.112   3.183
  533SOL    HW2 1622   0.277   1.980   3.087
  534SOL     OW 1623   0.732   2.496   2.926
  534SOL    HW1 1624   0.791   2.470   2.850
  534SOL    HW2 1625   0.704   2.592   2.915
  535SOL     OW 1626   0.307   1.925   2.480
  535SOL    HW1 1627   0.296   2.019   2.513
  535SOL    HW2 1628   0.302   1.862   2.557
  536SOL     OW 1629   1.622   2.229   2.236
  536SOL    HW1 1630   1.624   2.153   2.300
  536SOL    HW2 1631   1.574   2.306   2.276
  537SOL     OW 1632   1.023   2.628   2.828
  537SOL    HW1 1633   1.038   2.649   2.924
  537SOL    HW2 1634   0.993   2.533   2.819
  538SOL     OW 1635   1.540   2.136   1.987
  538SOL    HW1 1636   1.479   2.061   2.010
  538SOL    HW2 1637   1.562   2.188   2.070
  539SOL     OW 1638   1.303   2.700   1.904
  539SOL    HW1 1639   1.337   2.607   1.919
  539SOL    HW2 1640   1.321   2.727   1.809
  540SOL     OW 1641   0.319   2.672   2.811
  540SOL    HW1 1642   0.412   2.708   2.816
  540SOL    HW2 1643   0.313   2.587   2.863
  541SOL     OW 1644   0.339   2.371   2.868
  541SOL    HW1 1645   0.287   2.288   2.851
  541SOL    HW2 1646   0.416   2.376   2.804
  542SOL     OW 1647   1.002   2.658   3.100
  542SOL    HW1 1648   1.043   2.626   3.186
  542SOL    HW2 1649   0.906   2.631   3.097
  543SOL     OW 1650   0.815   2.434   2.187
  543SOL    HW1 1651   0.822   2.345   2.141
  543SOL    HW2 1652   0.721   2.468   2.179
  544SOL     OW 1653   1.657   2.466   3.068
  544SOL    HW1 1654   1.619   2.397   3.130
  544SOL    HW2 1655   1.739   2.430   3.024
  545SOL     OW 1656   0.671   2.326   3.131
  545SOL    HW1 1657   0.637   2.237   3.101
  545SOL    HW2 1658   0.697   2.380   3.051
  546SOL     OW 1659   0.473   2.362   2.053
  546SOL    HW1 1660   0.534   2.442   2.057
  546SOL    HW2 1661   0.378   2.393   2.060
  547SOL     OW 1662   1.347   2.921   3.096
  547SOL    HW1 1663   1.371   2.858   3.022
  547SOL    HW2 1664   1.257   2.961   3.078
  548SOL     OW 1665   1.302   2.717   2.171
  548SOL    HW1 1666   1.216   2.686   2.213
  548SOL    HW2 1667   1.298   2.703   2.072
  549SOL     OW 1668   0.083   3.120   2.884
  549SOL    HW1 1669   0.078   3.119   2.984
  549SOL    HW2 1670   0.000   3.079   2.846
  550SOL     OW 1671   1.726   1.997   2.385
  550SOL    HW1 1672   1.799   1.980   2.318
  550SOL    HW2 1673   1.695   1.910   2.423
  551SOL     OW 1674   1.280   2.789   2.534
  551SOL    HW1 1675   1.340   2.708   2.536
  551SOL    HW2 1676   1.320   2.858   2.474
  552SOL     OW 1677   1.841   2.037   2.825
  552SOL    HW1 1678   1.880   1.952   2.789
  552SOL    HW2 1679   1.743   2.039   2.806
  553SOL     OW 1680   0.263   2.188   2.582
  553SOL    HW1 1681   0.184   2.239   2.548
  553SOL    HW2 1682   0.254   2.173   2.680
  554SOL     OW 1683   0.822   2.864   3.234
  554SOL    HW1 1684   0.862   2.863   3.142
  554SOL    HW2 1685   0.832   2.956   3.274
  555SOL     OW 1686   0.916   2.772   2.153
  555SOL    HW1 1687   0.979   2.810   2.085
  555SOL    HW2 1688   0.956   2.689   2.192
  556SOL     OW 1689   1.014   2.098   2.833
  556SOL    HW1 1690   1.006   2.062   2.740
  556SOL    HW2 1691   1.012   2.022   2.898
  557SOL     OW 1692   0.075   2.207   1.895
  557SOL    HW1 1693  -0.017   2.179   1.866
  557SOL    HW2 1694   0.106   2.284   1.839
  558SOL     OW 1695   0.072   2.028   2.180
  558SOL    HW1 1696   0.055   2.111   2.126
  558SOL    HW2 1697   0.162   1.991   2.158
  559SOL     OW 1698   1.183   3.197   1.981
  559SOL    HW1 1699   1.084   3.186   1.983
  559SOL    HW2 1700   1.217   3.212   2.074
  560SOL     OW 1701   1.674   2.745   3.116
  560SOL    HW1 1702   1.647   2.656   3.079
  560SOL    HW2 1703   1.675   2.813   3.043
  561SOL     OW 1704   1.225   2.187   2.311
  561SOL    HW1 1705   1.290   2.113   2.300
  561SOL    HW2 1706   1.245   2.237   2.395
  562SOL     OW 1707   0.594   2.607   2.514
  562SOL    HW1 1708   0.644   2.692   2.495
  562SOL    HW2 1709   0.506   2.609   2.466
  563SOL     OW 1710   1.730   2.796   3.379
  563SOL    HW1 1711   1.768   2.887   3.394
  563SOL    HW2 1712   1.722   2.779   3.280
  564SOL     OW 1713   0.859   2.818   2.723
  564SOL    HW1 1714   0.913   2.749   2.771
  564SOL    HW2 1715   0.827   2.887   2.789
  565SOL     OW 1716   1.083   2.846   1.949
  565SOL    HW1 1717   1.060   2.899   1.867
  565SOL    HW2 1718   1.164   2.790   1.930
  566SOL     OW 1719   0.079   3.102   2.515
  566SOL    HW1 1720   0.078   3.055   2.603
  566SOL    HW2 1721   0.161   3.074   2.464
  567SOL     OW 1722   1.824   2.054   3.089
  567SOL    HW1 1723   1.820   1.964   3.133
  567SOL    HW2 1724   1.827   2.043   2.990
  568SOL     OW 1725   0.428   2.286   2.382
  568SOL    HW1 1726   0.458   2.214   2.320
  568SOL    HW2 1727   0.389   2.246   2.465
  569SOL     OW 1728   1.424   2.076   2.974
  569SOL    HW1 1729   1.476   2.011   3.029
  569SOL    HW2 1730   1.375   2.139   3.035
  570SOL     OW 1731   0.770   3.192   2.163
  570SOL    HW1 1732   0.724   3.105   2.180
  570SOL    HW2 1733   0.861   3.189   2.204
  571SOL     OW 1734   1.300   2.315   2.553
  571SOL    HW1 1735   1.241   2.395   2.557
  571SOL    HW2 1736   1.315   2.280   2.646
  572SOL     OW 1737   1.593   2.083   2.744
  572SOL    HW1 1738   1.509   2.082   2.798
  572SOL    HW2 1739   1.595   2.166   2.688
  573SOL     OW 1740   0.039   2.939   2.162
  573SOL    HW1 1741   0.138   2.928   2.153
  573SOL    HW2 1742  -0.001   2.853   2.194
  574SOL     OW 1743   2.092   0.628   0.113
  574SOL    HW1 1744   1.999   0.626   0.150
  574SOL    HW2 1745   2.093   0.589   0.021
  575SOL     OW 1746   2.087   0.275   0.996
  575SOL    HW1 1747   2.122   0.258   1.088
  575SOL    HW2 1748   1.999   0.230   0.984
  576SOL     OW 1749   1.881   0.368   0.647
  576SOL    HW1 1750   1.799   0.411   0.686
  576SOL    HW2 1751   1.853   0.295   0.584
  577SOL     OW 1752   2.431   1.275   1.165
  577SOL    HW1 1753   2.338   1.268   1.128
  577SOL    HW2 1754   2.442   1.364   1.209
  578SOL     OW 1755   2.630   1.144   1.023
  578SOL    HW1 1756   2.552   1.161   1.083
  578SOL    HW2 1757   2.664   1.231   0.987
  579SOL     OW 1758   2.712   0.798   1.823
  579SOL    HW1 1759   2.708   0.874   1.888
  579SOL    HW2 1760   2.734   0.834   1.732
  580SOL     OW 1761   2.547   1.012   0.665
  580SOL    HW1 1762   2.616   0.996   0.735
  580SOL    HW2 1763   2.474   1.069   0.703
  581SOL     OW 1764   2.548   1.161   1.803
  581SOL    HW1 1765   2.608   1.240   1.817
  581SOL    HW2 1766   2.462   1.192   1.762
  582SOL     OW 1767   2.197   1.435   1.061
  582SOL    HW1 1768   2.119   1.404   1.008
  582SOL    HW2 1769   2.255   1.493   1.004
  583SOL     OW 1770   2.300   0.392   1.499
  583SOL    HW1 1771   2.382   0.336   1.508
  583SOL    HW2 1772   2.219   0.334   1.503
  584SOL     OW 1773   2.093   1.713   0.483
  584SOL    HW1 1774   2.127   1.790   0.537
  584SOL    HW2 1775   2.137   1.713   0.393
  585SOL     OW 1776   2.989   1.341   1.690
  585SOL    HW1 1777   3.036   1.341   1.778
  585SOL    HW2 1778   2.941   1.254   1.679
  586SOL     OW 1779   2.092   1.434   0.538
  586SOL    HW1 1780   2.066   1.530   0.538
  586SOL    HW2 1781   2.021   1.380   0.583
  587SOL     OW 1782   2.102   1.091   0.886
  587SOL    HW1 1783   2.116   1.007   0.938
  587SOL    HW2 1784   2.047   1.155   0.941
  588SOL     OW 1785   2.482   1.786   1.439
  588SOL    HW1 1786   2.390   1.769   1.474
  588SOL    HW2 1787   2.510   1.878   1.465
  589SOL     OW 1788   2.468   0.964   0.123
  589SOL    HW1 1789   2.475   1.048   0.069
  589SOL    HW2 1790   2.514   0.977   0.211
  590SOL     OW 1791   1.984   0.643   0.563
  590SOL    HW1 1792   1.939   0.555   0.580
  590SOL    HW2 1793   1.983   0.697   0.647
  591SOL     OW 1794   1.889   1.596   0.117
  591SOL    HW1 1795   1.870   1.500   0.138
  591SOL    HW2 1796   1.856   1.654   0.192
  592SOL     OW 1797   1.975   0.737   1.597
  592SOL    HW1 1798   2.063   0.724   1.642
  592SOL    HW2 1799   1.962   0.834   1.575
  593SOL     OW 1800   2.475   1.365   0.726
  593SOL    HW1 1801   2.426   1.278   0.735
  593SOL    HW2 1802   2.452   1.408   0.639
  594SOL     OW 1803   2.671   0.004   0.502
  594SOL    HW1 1804   2.711   0.095   0.493
  594SOL    HW2 1805   2.571   0.012   0.508
  595SOL     OW 1806   2.059   0.976   1.264
  595SOL    HW1 1807   2.148   0.931   1.250
  595SOL    HW2 1808   1.986   0.911   1.245
  596SOL     OW 1809   2.179   0.251   1.801
  596SOL    HW1 1810   2.250   0.322   1.807
  596SOL    HW2 1811   2.091   0.290   1.829
  597SOL     OW 1812   2.460   0.729   0.270
  597SOL    HW1 1813   2.484   0.798   0.202
  597SOL    HW2 1814   2.382   0.762   0.324
  598SOL     OW 1815   2.669   0.605   1.465
  598SOL    HW1 1816   2.622   0.602   1.554
  598SOL    HW2 1817   2.618   0.550   1.399
  599SOL     OW 1818   2.835   0.890   1.572
  599SOL    HW1 1819   2.881   0.806   1.543
  599SOL    HW2 1820   2.779   0.924   1.497
  600SOL     OW 1821   2.853   0.410   1.242
  600SOL    HW1 1822   2.776   0.444   1.296
  600SOL    HW2 1823   2.819   0.359   1.163
  601SOL     OW 1824   2.903   0.701   0.429
  601SOL    HW1 1825   2.929   0.697   0.525
  601SOL    HW2 1826   2.818   0.650   0.415
  602SOL     OW 1827   1.938   0.811   0.789
  602SOL    HW1 1828   2.037   0.799   0.798
  602SOL    HW2 1829   1.914   0.906   0.810
  603SOL     OW 1830   1.992   1.821   1.571
  603SOL    HW1 1831   1.982   1.806   1.670
  603SOL    HW2 1832   1.906   1.857   1.535
  604SOL     OW 1833   2.727   0.348   0.195
  604SOL    HW1 1834   2.786   0.411   0.146
  604SOL    HW2 1835   2.746   0.254   0.166
  605SOL     OW 1836   2.412   0.196   0.885
  605SOL    HW1 1837   2.407   0.191   0.985
  605SOL    HW2 1838   2.414   0.292   0.856
  606SOL     OW 1839   2.870   1.456   0.477
  606SOL    HW1 1840   2.824   1.528   0.425
  606SOL    HW2 1841   2.866   1.476   0.575
  607SOL     OW 1842   2.213   1.801   0.853
  607SOL    HW1 1843   2.263   1.715   0.859
  607SOL    HW2 1844   2.278   1.878   0.850
  608SOL     OW 1845   2.183   0.943   0.242
  608SOL    HW1 1846   2.265   0.982   0.200
  608SOL    HW2 1847   2.156   0.861   0.193
  609SOL     OW 1848   2.323   1.266   1.727
  609SOL    HW1 1849   2.273   1.267   1.641
  609SOL    HW2 1850   2.260   1.248   1.803
  610SOL     OW 1851   2.064   0.285   1.498
  610SOL    HW1 1852   1.984   0.345   1.485
  610SOL    HW2 1853   2.054   0.236   1.584
  611SOL     OW 1854   2.326   1.743   0.323
  611SOL    HW1 1855   2.359   1.782   0.409
  611SOL    HW2 1856   2.402   1.736   0.258
  612SOL     OW 1857   2.111   1.785   1.241
  612SOL    HW1 1858   2.168   1.720   1.291
  612SOL    HW2 1859   2.095   1.752   1.148
  613SOL     OW 1860   2.802   1.698   0.904
  613SOL    HW1 1861   2.882   1.641   0.925
  613SOL    HW2 1862   2.753   1.658   0.827
  614SOL     OW 1863   2.244   0.700   0.480
  614SOL    HW1 1864   2.289   0.610   0.477
  614SOL    HW2 1865   2.150   0.689   0.513
  615SOL     OW 1866   2.476   0.122   0.117
  615SOL    HW1 1867   2.574   0.100   0.124
  615SOL    HW2 1868   2.445   0.105   0.024
  616SOL     OW 1869   2.643   0.264   1.749
  616SOL    HW1 1870   2.710   0.203   1.792
  616SOL    HW2 1871   2.570   0.283   1.814
  617SOL     OW 1872   2.750   1.514   1.195
  617SOL    HW1 1873   2.727   1.489   1.101
  617SOL    HW2 1874   2.811   1.445   1.234
  618SOL     OW 1875   2.665   1.402   0.924
  618SOL    HW1 1876   2.755   1.416   0.882
  618SOL    HW2 1877   2.594   1.404   0.853
  619SOL     OW 1878   2.784   0.503   0.899
  619SOL    HW1 1879   2.759   0.494   0.803
  619SOL    HW2 1880   2.832   0.421   0.930
  620SOL     OW 1881   2.401   0.064   0.512
  620SOL    HW1 1882   2.320   0.065   0.570
  620SOL    HW2 1883   2.404   0.147   0.457
  621SOL     OW 1884   3.296   1.188   0.041
  621SOL    HW1 1885   3.328   1.112   0.098
  621SOL    HW2 1886   3.204   1.215   0.071
  622SOL     OW 1887   2.159   0.035   0.171
  622SOL    HW1 1888   2.208   0.119   0.150
  622SOL    HW2 1889   2.221  -0.030   0.216
  623SOL     OW 1890   2.797   0.236   0.480
  623SOL    HW1 1891   2.749   0.277   0.402
  623SOL    HW2 1892   2.896   0.234   0.461
  624SOL     OW 1893   3.089   1.570   0.793
  624SOL    HW1 1894   3.110   1.644   0.728
  624SOL    HW2 1895   3.157   1.570   0.866
  625SOL     OW 1896   2.321   1.152   0.741
  625SOL    HW1 1897   2.250   1.125   0.806
  625SOL    HW2 1898   2.295   1.124   0.648
  626SOL     OW 1899   3.133   1.797   0.591
  626SOL    HW1 1900   3.177   1.861   0.527
  626SOL    HW2 1901   3.083   1.849   0.661
  627SOL     OW 1902   2.894   0.549   0.016
  627SOL    HW1 1903   2.853   0.631  -0.023
  627SOL    HW2 1904   2.958   0.575   0.089
  628SOL     OW 1905   1.940   0.556   1.386
  628SOL    HW1 1906   2.032   0.555   1.345
  628SOL    HW2 1907   1.934   0.630   1.453
  629SOL     OW 1908   2.423   0.222   1.147
  629SOL    HW1 1909   2.461   0.138   1.184
  629SOL    HW2 1910   2.335   0.241   1.191
  630SOL     OW 1911   2.728   0.454   0.642
  630SOL    HW1 1912   2.696   0.526   0.580
  630SOL    HW2 1913   2.752   0.373   0.589
  631SOL     OW 1914   2.879   0.039   0.753
  631SOL    HW1 1915   2.807   0.044   0.684
  631SOL    HW2 1916   2.855  -0.030   0.822
  632SOL     OW 1917   2.350   1.385   0.174
  632SOL    HW1 1918   2.263   1.370   0.221
  632SOL    HW2 1919   2.333   1.411   0.079
  633SOL     OW 1920   2.389   0.256   0.328
  633SOL    HW1 1921   2.416   0.197   0.253
  633SOL    HW2 1922   2.389   0.351   0.297
  634SOL     OW 1923   2.777   0.089   1.402
  634SOL    HW1 1924   2.802   0.069   1.307
  634SOL    HW2 1925   2.849   0.145   1.444
  635SOL     OW 1926   2.842   1.116   1.719
  635SOL    HW1 1927   2.743   1.122   1.729
  635SOL    HW2 1928   2.865   1.036   1.663
  636SOL     OW 1929   2.567   1.050   0.368
  636SOL    HW1 1930   2.553   1.057   0.467
  636SOL    HW2 1931   2.651   0.999   0.350
  637SOL     OW 1932   2.272   0.813   1.251
  637SOL    HW1 1933   2.358   0.825   1.301
  637SOL    HW2 1934   2.230   0.726   1.278
  638SOL     OW 1935   1.926   1.564   1.331
  638SOL    HW1 1936   1.880   1.646   1.297
  638SOL    HW2 1937   2.024   1.583   1.340
  639SOL     OW 1938   2.229   1.100   0.501
  639SOL    HW1 1939   2.222   1.183   0.445
  639SOL    HW2 1940   2.233   1.020   0.441
  640SOL     OW 1941   2.428   0.537   0.865
  640SOL    HW1 1942   2.440   0.603   0.791
  640SOL    HW2 1943   2.474   0.571   0.948
  641SOL     OW 1944   3.114   1.348   0.388
  641SOL    HW1 1945   3.164   1.425   0.428
  641SOL    HW2 1946   3.019   1.350   0.420
  642SOL     OW 1947   2.216   1.510   1.329
  642SOL    HW1 1948   2.195   1.466   1.242
  642SOL    HW2 1949   2.313   1.536   1.332
  643SOL     OW 1950   2.264   0.751   1.598
  643SOL    HW1 1951   2.332   0.806   1.551
  643SOL    HW2 1952   2.304   0.663   1.625
  644SOL     OW 1953   2.875   0.105   1.770
  644SOL    HW1 1954   2.881   0.190   1.718
  644SOL    HW2 1955   2.907   0.029   1.713
  645SOL     OW 1956   2.366   0.050   1.740
  645SOL    HW1 1957   2.324  -0.007   1.670
  645SOL    HW2 1958   2.300   0.119   1.772
  646SOL     OW 1959   2.435   0.870   1.029
  646SOL    HW1 1960   2.479   0.959   1.020
  646SOL    HW2 1961   2.372   0.870   1.106
  647SOL     OW 1962   3.222   0.862   1.045
  647SOL    HW1 1963   3.147   0.862   0.979
  647SOL    HW2 1964   3.259   0.770   1.054
  648SOL     OW 1965   3.071   0.525   0.275
  648SOL    HW1 1966   3.084   0.441   0.329
  648SOL    HW2 1967   3.042   0.599   0.335
  649SOL     OW 1968   2.169   0.213   1.231
  649SOL    HW1 1969   2.146   0.250   1.321
  649SOL    HW2 1970   2.139   0.118   1.225
  650SOL     OW 1971   1.899   1.310   1.282
  650SOL    HW1 1972   1.952   1.261   1.350
  650SOL    HW2 1973   1.921   1.408   1.287
  651SOL     OW 1974   2.594   0.634   1.064
  651SOL    HW1 1975   2.653   0.608   0.988
  651SOL    HW2 1976   2.566   0.730   1.053
  652SOL     OW 1977   2.169   0.063   0.618
  652SOL    HW1 1978   2.158   0.157   0.651
  652SOL    HW2 1979   2.164   0.000   0.695
  653SOL     OW 1980   2.885   0.766   0.966
  653SOL    HW1 1981   2.900   0.787   1.062
  653SOL    HW2 1982   2.855   0.671   0.957
  654SOL     OW 1983   2.842   1.573   1.700
  654SOL    HW1 1984   2.822   1.617   1.612
  654SOL    HW2 1985   2.881   1.482   1.684
  655SOL     OW 1986   2.212   0.898   1.804
  655SOL    HW1 1987   2.288   0.942   1.852
  655SOL    HW2 1988   2.247   0.851   1.722
  656SOL     OW 1989   2.930   1.333   0.849
  656SOL    HW1 1990   2.937   1.249   0.794
  656SOL    HW2 1991   2.992   1.402   0.813
  657SOL     OW 1992   2.181   0.810   0.949
  657SOL    HW1 1993   2.274   0.846   0.954
  657SOL    HW2 1994   2.175   0.725   1.001
  658SOL     OW 1995   2.201   0.509   1.006
  658SOL    HW1 1996   2.149   0.426   0.989
  658SOL    HW2 1997   2.278   0.514   0.942
  659SOL     OW 1998   3.000   0.380   1.678
  659SOL    HW1 1999   2.955   0.443   1.742
  659SOL    HW2 2000   3.093   0.411   1.661
  660SOL     OW 2001   3.022   0.207   1.477
  660SOL    HW1 2002   3.022   0.271   1.554
  660SOL    HW2 2003   3.050   0.255   1.394
  661SOL     OW 2004   1.870   1.326   0.200
  661SOL    HW1 2005   1.777   1.347   0.169
  661SOL    HW2 2006   1.880   1.227   0.213
  662SOL     OW 2007   1.950   1.801   0.927
  662SOL    HW1 2008   1.908   1.715   0.900
  662SOL    HW2 2009   2.044   1.804   0.893
  663SOL     OW 2010   2.366   1.568   0.910
  663SOL    HW1 2011   2.432   1.642   0.919
  663SOL    HW2 2012   2.410   1.489   0.868
  664SOL     OW 2013   2.864   0.796   1.238
  664SOL    HW1 2014   2.905   0.764   1.324
  664SOL    HW2 2015   2.768   0.769   1.235
  665SOL     OW 2016   1.902   0.544   1.114
  665SOL    HW1 2017   1.987   0.511   1.073
  665SOL    HW2 2018   1.915   0.559   1.212
  666SOL     OW 2019   2.051   0.520   1.722
  666SOL    HW1 2020   2.110   0.480   1.652
  666SOL    HW2 2021   1.993   0.591   1.681
  667SOL     OW 2022   2.677   0.572   0.325
  667SOL    HW1 2023   2.684   0.483   0.279
  667SOL    HW2 2024   2.583   0.606   0.317
  668SOL     OW 2025   2.114   1.564   1.744
  668SOL    HW1 2026   2.084   1.621   1.820
  668SOL    HW2 2027   2.107   1.467   1.770
  669SOL     OW 2028   2.533   0.464   1.269
  669SOL    HW1 2029   2.499   0.375   1.239
  669SOL    HW2 2030   2.559   0.518   1.189
  670SOL     OW 2031   2.792   1.678   1.465
  670SOL    HW1 2032   2.768   1.660   1.370
  670SOL    HW2 2033   2.822   1.772   1.475
  671SOL     OW 2034   2.335   0.500   0.191
  671SOL    HW1 2035   2.396   0.580   0.195
  671SOL    HW2 2036   2.240   0.531   0.198
  672SOL     OW 2037   2.021   1.137   1.466
  672SOL    HW1 2038   2.043   1.076   1.542
  672SOL    HW2 2039   2.031   1.088   1.380
  673SOL     OW 2040   3.164   0.855   0.309
  673SOL    HW1 2041   3.078   0.824   0.351
  673SOL    HW2 2042   3.160   0.841   0.210
  674SOL     OW 2043   1.945   1.258   1.022
  674SOL    HW1 2044   1.940   1.257   1.122
  674SOL    HW2 2045   1.862   1.217   0.984
  675SOL     OW 2046   2.550   1.662   1.716
  675SOL    HW1 2047   2.494   1.743   1.725
  675SOL    HW2 2048   2.602   1.666   1.630
  676SOL     OW 2049   2.765   0.086   0.133
  676SOL    HW1 2050   2.816   0.087   0.047
  676SOL    HW2 2051   2.821   0.044   0.204
  677SOL     OW 2052   1.992   1.794   1.851
  677SOL    HW1 2053   1.951   1.720   1.904
  677SOL    HW2 2054   2.056   1.845   1.909
  678SOL     OW 2055   2.692   1.273   1.422
  678SOL    HW1 2056   2.687   1.306   1.517
  678SOL    HW2 2057   2.606   1.292   1.376
  679SOL     OW 2058   2.534   1.616   0.154
  679SOL    HW1 2059   2.543   1.626   0.055
  679SOL    HW2 2060   2.494   1.527   0.175
  680SOL     OW 2061   2.125   0.326   0.720
  680SOL    HW1 2062   2.046   0.377   0.686
  680SOL    HW2 2063   2.116   0.311   0.818
  681SOL     OW 2064   2.684   1.002   1.372
  681SOL    HW1 2065   2.724   1.001   1.280
  681SOL    HW2 2066   2.694   1.094   1.412
  682SOL     OW 2067   2.778   0.910   0.291
  682SOL    HW1 2068   2.841   0.948   0.223
  682SOL    HW2 2069   2.818   0.827   0.330
  683SOL     OW 2070   2.234   1.288   1.490
  683SOL    HW1 2071   2.221   1.381   1.456
  683SOL    HW2 2072   2.150   1.236   1.477
  684SOL     OW 2073   2.901   1.098   0.696
  684SOL    HW1 2074   2.831   1.051   0.750
  684SOL    HW2 2075   2.960   1.030   0.653
  685SOL     OW 2076   2.876   0.236   0.971
  685SOL    HW1 2077   2.868   0.200   0.878
  685SOL    HW2 2078   2.874   0.160   1.036
  686SOL     OW 2079   2.452   1.487   0.491
  686SOL    HW1 2080   2.494   1.429   0.421
  686SOL    HW2 2081   2.408   1.566   0.447
  687SOL     OW 2082   2.117   1.348   0.290
  687SOL    HW1 2083   2.021   1.349   0.263
  687SOL    HW2 2084   2.129   1.401   0.374
  688SOL     OW 2085   1.967   1.013   1.726
  688SOL    HW1 2086   1.890   0.980   1.780
  688SOL    HW2 2087   2.052   0.983   1.768
  689SOL     OW 2088   2.534   0.203   1.489
  689SOL    HW1 2089   2.624   0.187   1.449
  689SOL    HW2 2090   2.542   0.208   1.588
  690SOL     OW 2091   1.934   0.166   0.318
  690SOL    HW1 2092   1.917   0.249   0.264
  690SOL    HW2 2093   2.024   0.129   0.296
  691SOL     OW 2094   2.475   0.842   1.431
  691SOL    HW1 2095   2.531   0.923   1.414
  691SOL    HW2 2096   2.534   0.762   1.434
  692SOL     OW 2097   2.578   0.565   1.708
  692SOL    HW1 2098   2.597   0.630   1.782
  692SOL    HW2 2099   2.638   0.485   1.717
  693SOL     OW 2100   2.252   1.741   1.560
  693SOL    HW1 2101   2.161   1.782   1.558
  693SOL    HW2 2102   2.245   1.647   1.592
  694SOL     OW 2103   2.456   0.745   0.652
  694SOL    HW1 2104   2.506   0.830   0.633
  694SOL    HW2 2105   2.368   0.747   0.604
  695SOL     OW 2106   2.721   1.374   0.016
  695SOL    HW1 2107   2.675   1.389   0.104
  695SOL    HW2 2108   2.765   1.459  -0.014
  696SOL     OW 2109   2.523   1.790   0.953
  696SOL    HW1 2110   2.477   1.878   0.940
  696SOL    HW2 2111   2.622   1.802   0.946
  697SOL     OW 2112   2.721   0.956   0.861
  697SOL    HW1 2113   2.775   0.887   0.909
  697SOL    HW2 2114   2.689   1.025   0.927
  698SOL     OW 2115   2.945   0.984   0.087
  698SOL    HW1 2116   2.922   1.037   0.005
  698SOL    HW2 2117   3.026   0.928   0.068
  699SOL     OW 2118   2.083   1.314   1.844
  699SOL    HW1 2119   2.018   1.241   1.823
  699SOL    HW2 2120   2.087   1.328   1.942
  700SOL     OW 2121   1.941   1.240   0.653
  700SOL    HW1 2122   1.940   1.193   0.741
  700SOL    HW2 2123   2.023   1.212   0.602
  701SOL     OW 2124   2.534   1.391   1.624
  701SOL    HW1 2125   2.456   1.341   1.662
  701SOL    HW2 2126   2.531   1.486   1.655
  702SOL     OW 2127   2.290   0.424   0.520
  702SOL    HW1 2128   2.320   0.352   0.458
  702SOL    HW2 2129   2.251   0.384   0.603
  703SOL     OW 2130   2.179   0.547   1.280
  703SOL    HW1 2131   2.217   0.488   1.352
  703SOL    HW2 2132   2.219   0.521   1.192
  704SOL     OW 2133   2.674   1.586   0.687
  704SOL    HW1 2134   2.706   1.596   0.593
  704SOL    HW2 2135   2.595   1.524   0.689
  705SOL     OW 2136   2.863   0.034   1.154
  705SOL    HW1 2137   2.800  -0.038   1.123
  705SOL    HW2 2138   2.956  -0.002   1.154
  706SOL     OW 2139   2.632   1.330   0.301
  706SOL    HW1 2140   2.586   1.243   0.318
  706SOL    HW2 2141   2.723   1.327   0.342
  707SOL     OW 2142   2.480   1.567   1.284
  707SOL    HW1 2143   2.475   1.649   1.341
  707SOL    HW2 2144   2.569   1.564   1.239
  708SOL     OW 2145   1.901   1.077   0.300
  708SOL    HW1 2146   2.000   1.066   0.291
  708SOL    HW2 2147   1.861   0.991   0.332
  709SOL     OW 2148   2.737   1.646   0.337
  709SOL    HW1 2149   2.660   1.611   0.283
  709SOL    HW2 2150   2.705   1.717   0.399
  710SOL     OW 2151   2.092   0.628   1.975
  710SOL    HW1 2152   1.999   0.626   2.012
  710SOL    HW2 2153   2.093   0.589   1.883
  711SOL     OW 2154   2.087   0.275   2.858
  711SOL    HW1 2155   2.122   0.258   2.950
  711SOL    HW2 2156   1.999   0.230   2.846
  712SOL     OW 2157   1.881   0.368   2.509
  712SOL    HW1 2158   1.799   0.411   2.548
  712SOL    HW2 2159   1.853   0.295   2.446
  713SOL     OW 2160   2.431   1.275   3.027
  713SOL    HW1 2161   2.338   1.268   2.990
  713SOL    HW2 2162   2.442   1.364   3.071
  714SOL     OW 2163   2.630   1.144   2.885
  714SOL    HW1 2164   2.552   1.161   2.945
  714SOL    HW2 2165   2.664   1.231   2.849
  715SOL     OW 2166   2.547   1.012   2.527
  715SOL    HW1 2167   2.616   0.996   2.597
  715SOL    HW2 2168   2.474   1.069   2.565
  716SOL     OW 2169   2.197   1.435   2.923
  716SOL    HW1 2170   2.119   1.404   2.870
  716SOL    HW2 2171   2.255   1.493   2.866
  717SOL     OW 2172   2.093   1.713   2.345
  717SOL    HW1 2173   2.127   1.790   2.399
  717SOL    HW2 2174   2.137   1.713   2.255
  718SOL     OW 2175   2.092   1.434   2.400
  718SOL    HW1 2176   2.066   1.530   2.400
  718SOL    HW2 2177   2.021   1.380   2.445
  719SOL     OW 2178   2.102   1.091   2.748
  719SOL    HW1 2179   2.116   1.007   2.800
  719SOL    HW2 2180   2.047   1.155   2.803
  720SOL     OW 2181   2.468   0.964   1.985
  720SOL    HW1 2182   2.475   1.048   1.931
  720SOL    HW2 2183   2.514   0.977   2.073
  721SOL     OW 2184   1.984   0.643   2.425
  721SOL    HW1 2185   1.939   0.555   2.442
  721SOL    HW2 2186   1.983   0.697   2.509
  722SOL     OW 2187   1.889   1.596   1.979
  722SOL    HW1 2188   1.870   1.500   2.000
  722SOL    HW2 2189   1.856   1.654   2.054
  723SOL     OW 2190   2.475   1.365   2.588
  723SOL    HW1 2191   2.426   1.278   2.597
  723SOL    HW2 2192   2.452   1.408   2.501
  724SOL     OW 2193   2.671   0.004   2.364
  724SOL    HW1 2194   2.711   0.095   2.355
  724SOL    HW2 2195   2.571   0.012   2.370
  725SOL     OW 2196   2.059   0.976   3.126
  725SOL    HW1 2197   2.148   0.931   3.112
  725SOL    HW2 2198   1.986   0.911   3.107
  726SOL     OW 2199   2.460   0.729   2.132
  726SOL    HW1 2200   2.484   0.798   2.064
  726SOL    HW2 2201   2.382   0.762   2.186
  727SOL     OW 2202   2.903   0.701   2.291
  727SOL    HW1 2203   2.929   0.697   2.387
  727SOL    HW2 2204   2.818   0.650   2.277
  728SOL     OW 2205   1.938   0.811   2.651
  728SOL    HW1 2206   2.037   0.799   2.660
  728SOL    HW2 2207   1.914   0.906   2.672
  729SOL     OW 2208   2.727   0.348   2.057
  729SOL    HW1 2209   2.786   0.411   2.008
  729SOL    HW2 2210   2.746   0.254   2.028
  730SOL     OW 2211   2.412   0.196   2.747
  730SOL    HW1 2212   2.407   0.191   2.847
  730SOL    HW2 2213   2.414   0.292   2.718
  731SOL     OW 2214   2.870   1.456   2.339
  731SOL    HW1 2215   2.824   1.528   2.287
  731SOL    HW2 2216   2.866   1.476   2.437
  732SOL     OW 2217   2.213   1.801   2.715
  732SOL    HW1 2218   2.263   1.715   2.721
  732SOL    HW2 2219   2.278   1.878   2.712
  733SOL     OW 2220   2.183   0.943   2.104
  733SOL    HW1 2221   2.265   0.982   2.062
  733SOL    HW2 2222   2.156   0.861   2.055
  734SOL     OW 2223   2.326   1.743   2.185
  734SOL    HW1 2224   2.359   1.782   2.271
  734SOL    HW2 2225   2.402   1.736   2.120
  735SOL     OW 2226   2.111   1.785   3.103
  735SOL    HW1 2227   2.168   1.720   3.153
  735SOL    HW2 2228   2.095   1.752   3.010
  736SOL     OW 2229   2.802   1.698   2.766
  736SOL    HW1 2230   2.882   1.641   2.787
  736SOL    HW2 2231   2.753   1.658   2.689
  737SOL     OW 2232   2.244   0.700   2.342
  737SOL    HW1 2233   2.289   0.610   2.339
  737SOL    HW2 2234   2.150   0.689   2.375
  738SOL     OW 2235   2.476   0.122   1.979
  738SOL    HW1 2236   2.574   0.100   1.986
  738SOL    HW2 2237   2.445   0.105   1.886
  739SOL     OW 2238   2.665   1.402   2.786
  739SOL    HW1 2239   2.755   1.416   2.744
  739SOL    HW2 2240   2.594   1.404   2.715
  740SOL     OW 2241   2.784   0.503   2.761
  740SOL    HW1 2242   2.759   0.494   2.665
  740SOL    HW2 2243   2.832   0.421   2.792
  741SOL     OW 2244   2.401   0.064   2.374
  741SOL    HW1 2245   2.320   0.065   2.432
  741SOL    HW2 2246   2.404   0.147   2.319
  742SOL     OW 2247   2.159   0.035   2.033
  742SOL    HW1 2248   2.208   0.119   2.012
  742SOL    HW2 2249   2.221  -0.030   2.078
  743SOL     OW 2250   2.797   0.236   2.342
  743SOL    HW1 2251   2.749   0.277   2.264
  743SOL    HW2 2252   2.896   0.234   2.323
  744SOL     OW 2253   3.089   1.570   2.655
  744SOL    HW1 2254   3.110   1.644   2.590
  744SOL    HW2 2255   3.157   1.570   2.728
  745SOL     OW 2256   2.321   1.152   2.603
  745SOL    HW1 2257   2.250   1.125   2.668
  745SOL    HW2 2258   2.295   1.124   2.510
  746SOL     OW 2259   3.133   1.797   2.453
  746SOL    HW1 2260   3.177   1.861   2.389
  746SOL    HW2 2261   3.083   1.849   2.523
  747SOL     OW 2262   2.894   0.549   1.878
  747SOL    HW1 2263   2.853   0.631   1.839
  747SOL    HW2 2264   2.958   0.575   1.951
  748SOL     OW 2265   2.728   0.454   2.504
  748SOL    HW1 2266   2.696   0.526   2.442
  748SOL    HW2 2267   2.752   0.373   2.451
  749SOL     OW 2268   2.879   0.039   2.615
  749SOL    HW1 2269   2.807   0.044   2.546
  749SOL    HW2 2270   2.855  -0.030   2.684
  750SOL     OW 2271   2.350   1.385   2.036
  750SOL    HW1 2272   2.263   1.370   2.083
  750SOL    HW2 2273   2.333   1.411   1.941
  751SOL     OW 2274   2.389   0.256   2.190
  751SOL    HW1 2275   2.416   0.197   2.115
  751SOL    HW2 2276   2.389   0.351   2.159
  752SOL     OW 2277   2.567   1.050   2.230
  752SOL    HW1 2278   2.553   1.057   2.329
  752SOL    HW2 2279   2.651   0.999   2.212
  753SOL     OW 2280   2.272   0.813   3.113
  753SOL    HW1 2281   2.358   0.825   3.163
  753SOL    HW2 2282   2.230   0.726   3.140
  754SOL     OW 2283   2.229   1.100   2.363
  754SOL    HW1 2284   2.222   1.183   2.307
  754SOL    HW2 2285   2.233   1.020   2.303
  755SOL     OW 2286   2.428   0.537   2.727
  755SOL    HW1 2287   2.440   0.603   2.653
  755SOL    HW2 2288   2.474   0.571   2.810
  756SOL     OW 2289   3.114   1.348   2.250
  756SOL    HW1 2290   3.164   1.425   2.290
  756SOL    HW2 2291   3.019   1.350   2.282
  757SOL     OW 2292   3.134   1.445   3.004
  757SOL    HW1 2293   3.181   1.458   3.091
  757SOL    HW2 2294   3.068   1.371   3.013
  758SOL     OW 2295   2.435   0.870   2.891
  758SOL    HW1 2296   2.479   0.959   2.882
  758SOL    HW2 2297   2.372   0.870   2.968
  759SOL     OW 2298   3.222   0.862   2.907
  759SOL    HW1 2299   3.147   0.862   2.841
  759SOL    HW2 2300   3.259   0.770   2.916
  760SOL     OW 2301   3.071   0.525   2.137
  760SOL    HW1 2302   3.084   0.441   2.191
  760SOL    HW2 2303   3.042   0.599   2.197
  761SOL     OW 2304   2.169   0.213   3.093
  761SOL    HW1 2305   2.146   0.250   3.183
  761SOL    HW2 2306   2.139   0.118   3.087
  762SOL     OW 2307   2.594   0.634   2.926
  762SOL    HW1 2308   2.653   0.608   2.850
  762SOL    HW2 2309   2.566   0.730   2.915
  763SOL     OW 2310   2.169   0.063   2.480
  763SOL    HW1 2311   2.158   0.157   2.513
  763SOL    HW2 2312   2.164   0.000   2.557
  764SOL     OW 2313   2.885   0.766   2.828
  764SOL    HW1 2314   2.900   0.787   2.924
  764SOL    HW2 2315   2.855   0.671   2.819
  765SOL     OW 2316   3.165   0.838   1.904
  765SOL    HW1 2317   3.199   0.745   1.919
  765SOL    HW2 2318   3.183   0.865   1.809
  766SOL     OW 2319   2.930   1.333   2.711
  766SOL    HW1 2320   2.937   1.249   2.656
  766SOL    HW2 2321   2.992   1.402   2.675
  767SOL     OW 2322   2.181   0.810   2.811
  767SOL    HW1 2323   2.274   0.846   2.816
  767SOL    HW2 2324   2.175   0.725   2.863
  768SOL     OW 2325   2.201   0.509   2.868
  768SOL    HW1 2326   2.149   0.426   2.851
  768SOL    HW2 2327   2.278   0.514   2.804
  769SOL     OW 2328   1.870   1.326   2.062
  769SOL    HW1 2329   1.777   1.347   2.031
  769SOL    HW2 2330   1.880   1.227   2.075
  770SOL     OW 2331   1.950   1.801   2.789
  770SOL    HW1 2332   1.908   1.715   2.762
  770SOL    HW2 2333   2.044   1.804   2.755
  771SOL     OW 2334   2.366   1.568   2.772
  771SOL    HW1 2335   2.432   1.642   2.781
  771SOL    HW2 2336   2.410   1.489   2.730
  772SOL     OW 2337   2.864   0.796   3.100
  772SOL    HW1 2338   2.905   0.764   3.186
  772SOL    HW2 2339   2.768   0.769   3.097
  773SOL     OW 2340   1.902   0.544   2.976
  773SOL    HW1 2341   1.987   0.511   2.935
  773SOL    HW2 2342   1.915   0.559   3.074
  774SOL     OW 2343   2.677   0.572   2.187
  774SOL    HW1 2344   2.684   0.483   2.141
  774SOL    HW2 2345   2.583   0.606   2.179
  775SOL     OW 2346   2.533   0.464   3.131
  775SOL    HW1 2347   2.499   0.375   3.101
  775SOL    HW2 2348   2.559   0.518   3.051
  776SOL     OW 2349   2.335   0.500   2.053
  776SOL    HW1 2350   2.396   0.580   2.057
  776SOL    HW2 2351   2.240   0.531   2.060
  777SOL     OW 2352   3.164   0.855   2.171
  777SOL    HW1 2353   3.078   0.824   2.213
  777SOL    HW2 2354   3.160   0.841   2.072
  778SOL     OW 2355   1.945   1.258   2.884
  778SOL    HW1 2356   1.940   1.257   2.984
  778SOL    HW2 2357   1.862   1.217   2.846
  779SOL     OW 2358   2.534   1.616   2.016
  779SOL    HW1 2359   2.543   1.626   1.917
  779SOL    HW2 2360   2.494   1.527   2.037
  780SOL     OW 2361   2.125   0.326   2.582
  780SOL    HW1 2362   2.046   0.377   2.548
  780SOL    HW2 2363   2.116   0.311   2.680
  781SOL     OW 2364   2.684   1.002   3.234
  781SOL    HW1 2365   2.724   1.001   3.142
  781SOL    HW2 2366   2.694   1.094   3.274
  782SOL     OW 2367   2.778   0.910   2.153
  782SOL    HW1 2368   2.841   0.948   2.085
  782SOL    HW2 2369   2.818   0.827   2.192
  783SOL     OW 2370   2.901   1.098   2.558
  783SOL    HW1 2371   2.831   1.051   2.612
  783SOL    HW2 2372   2.960   1.030   2.515
  784SOL     OW 2373   2.876   0.236   2.833
  784SOL    HW1 2374   2.868   0.200   2.740
  784SOL    HW2 2375   2.874   0.160   2.898
  785SOL     OW 2376   2.452   1.487   2.353
  785SOL    HW1 2377   2.494   1.429   2.283
  785SOL    HW2 2378   2.408   1.566   2.309
  786SOL     OW 2379   2.117   1.348   2.152
  786SOL    HW1 2380   2.021   1.349   2.125
  786SOL    HW2 2381   2.129   1.401   2.236
  787SOL     OW 2382   1.937   0.345   1.895
  787SOL    HW1 2383   1.845   0.317   1.866
  787SOL    HW2 2384   1.968   0.422   1.839
  788SOL     OW 2385   1.934   0.166   2.180
  788SOL    HW1 2386   1.917   0.249   2.126
  788SOL    HW2 2387   2.024   0.129   2.158
  789SOL     OW 2388   2.456   0.745   2.514
  789SOL    HW1 2389   2.506   0.830   2.495
  789SOL    HW2 2390   2.368   0.747   2.466
  790SOL     OW 2391   2.721   1.374   1.878
  790SOL    HW1 2392   2.675   1.389   1.966
  790SOL    HW2 2393   2.765   1.459   1.848
  791SOL     OW 2394   2.523   1.790   2.815
  791SOL    HW1 2395   2.477   1.878   2.802
  791SOL    HW2 2396   2.622   1.802   2.808
  792SOL     OW 2397   2.721   0.956   2.723
  792SOL    HW1 2398   2.775   0.887   2.771
  792SOL    HW2 2399   2.689   1.025   2.789
  793SOL     OW 2400   2.945   0.984   1.949
  793SOL    HW1 2401   2.922   1.037   1.867
  793SOL    HW2 2402   3.026   0.928   1.930
  794SOL     OW 2403   1.941   1.240   2.515
  794SOL    HW1 2404   1.940   1.193   2.603
  794SOL    HW2 2405   2.023   1.212   2.464
  795SOL     OW 2406   2.290   0.424   2.382
  795SOL    HW1 2407   2.320   0.352   2.320
  795SOL    HW2 2408   2.251   0.384   2.465
  796SOL     OW 2409   2.674   1.586   2.549
  796SOL    HW1 2410   2.706   1.596   2.455
  796SOL    HW2 2411   2.595   1.524   2.551
  797SOL     OW 2412   2.632   1.330   2.163
  797SOL    HW1 2413   2.586   1.243   2.180
  797SOL    HW2 2414   2.723   1.327   2.204
  798SOL     OW 2415   1.901   1.077   2.162
  798SOL    HW1 2416   2.000   1.066   2.153
  798SOL    HW2 2417   1.861   0.991   2.194
  799SOL     OW 2418   2.737   1.646   2.199
  799SOL    HW1 2419   2.660   1.611   2.145
  799SOL    HW2 2420   2.705   1.717   2.261
  800SOL     OW 2421   2.092   2.490   0.113
  800SOL    HW1 2422   1.999   2.488   0.150
  800SOL    HW2 2423   2.093   2.451   0.021
  801SOL     OW 2424   2.087   2.137   0.996
  801SOL    HW1 2425   2.122   2.120   1.088
  801SOL    HW2 2426   1.999   2.092   0.984
  802SOL     OW 2427   1.881   2.230   0.647
  802SOL    HW1 2428   1.799   2.273   0.686
  802SOL    HW2 2429   1.853   2.157   0.584
  803SOL     OW 2430   2.630   3.006   1.023
  803SOL    HW1 2431   2.552   3.023   1.083
  803SOL    HW2 2432   2.664   3.093   0.987
  804SOL     OW 2433   2.712   2.660   1.823
  804SOL    HW1 2434   2.708   2.736   1.888
  804SOL    HW2 2435   2.734   2.696   1.732
  805SOL     OW 2436   2.547   2.874   0.665
  805SOL    HW1 2437   2.616   2.858   0.735
  805SOL    HW2 2438   2.474   2.931   0.703
  806SOL     OW 2439   2.300   2.254   1.499
  806SOL    HW1 2440   2.382   2.198   1.508
  806SOL    HW2 2441   2.219   2.196   1.503
  807SOL     OW 2442   2.102   2.953   0.886
  807SOL    HW1 2443   2.116   2.869   0.938
  807SOL    HW2 2444   2.047   3.017   0.941
  808SOL     OW 2445   2.468   2.826   0.123
  808SOL    HW1 2446   2.475   2.910   0.069
  808SOL    HW2 2447   2.514   2.839   0.211
  809SOL     OW 2448   1.984   2.505   0.563
  809SOL    HW1 2449   1.939   2.417   0.580
  809SOL    HW2 2450   1.983   2.559   0.647
  810SOL     OW 2451   1.975   2.599   1.597
  810SOL    HW1 2452   2.063   2.586   1.642
  810SOL    HW2 2453   1.962   2.696   1.575
  811SOL     OW 2454   2.475   3.227   0.726
  811SOL    HW1 2455   2.426   3.140   0.735
  811SOL    HW2 2456   2.452   3.270   0.639
  812SOL     OW 2457   2.671   1.866   0.502
  812SOL    HW1 2458   2.711   1.957   0.493
  812SOL    HW2 2459   2.571   1.874   0.508
  813SOL     OW 2460   2.059   2.838   1.264
  813SOL    HW1 2461   2.148   2.793   1.250
  813SOL    HW2 2462   1.986   2.773   1.245
  814SOL     OW 2463   2.179   2.113   1.801
  814SOL    HW1 2464   2.250   2.184   1.807
  814SOL    HW2 2465   2.091   2.152   1.829
  815SOL     OW 2466   2.460   2.591   0.270
  815SOL    HW1 2467   2.484   2.660   0.202
  815SOL    HW2 2468   2.382   2.624   0.324
  816SOL     OW 2469   2.669   2.467   1.465
  816SOL    HW1 2470   2.622   2.464   1.554
  816SOL    HW2 2471   2.618   2.412   1.399
  817SOL     OW 2472   2.835   2.752   1.572
  817SOL    HW1 2473   2.881   2.668   1.543
  817SOL    HW2 2474   2.779   2.786   1.497
  818SOL     OW 2475   2.853   2.272   1.242
  818SOL    HW1 2476   2.776   2.306   1.296
  818SOL    HW2 2477   2.819   2.221   1.163
  819SOL     OW 2478   2.903   2.563   0.429
  819SOL    HW1 2479   2.929   2.559   0.525
  819SOL    HW2 2480   2.818   2.512   0.415
  820SOL     OW 2481   1.938   2.673   0.789
  820SOL    HW1 2482   2.037   2.661   0.798
  820SOL    HW2 2483   1.914   2.768   0.810
  821SOL     OW 2484   2.727   2.210   0.195
  821SOL    HW1 2485   2.786   2.273   0.146
  821SOL    HW2 2486   2.746   2.116   0.166
  822SOL     OW 2487   2.412   2.058   0.885
  822SOL    HW1 2488   2.407   2.053   0.985
  822SOL    HW2 2489   2.414   2.154   0.856
  823SOL     OW 2490   2.183   2.805   0.242
  823SOL    HW1 2491   2.265   2.844   0.200
  823SOL    HW2 2492   2.156   2.723   0.193
  824SOL     OW 2493   2.064   2.147   1.498
  824SOL    HW1 2494   1.984   2.207   1.485
  824SOL    HW2 2495   2.054   2.098   1.584
  825SOL     OW 2496   2.244   2.562   0.480
  825SOL    HW1 2497   2.289   2.472   0.477
  825SOL    HW2 2498   2.150   2.551   0.513
  826SOL     OW 2499   2.476   1.984   0.117
  826SOL    HW1 2500   2.574   1.962   0.124
  826SOL    HW2 2501   2.445   1.967   0.024
  827SOL     OW 2502   2.643   2.126   1.749
  827SOL    HW1 2503   2.710   2.065   1.792
  827SOL    HW2 2504   2.570   2.145   1.814
  828SOL     OW 2505   2.784   2.365   0.899
  828SOL    HW1 2506   2.759   2.356   0.803
  828SOL    HW2 2507   2.832   2.283   0.930
  829SOL     OW 2508   2.401   1.926   0.512
  829SOL    HW1 2509   2.320   1.927   0.570
  829SOL    HW2 2510   2.404   2.009   0.457
  830SOL     OW 2511   2.159   1.897   0.171
  830SOL    HW1 2512   2.208   1.981   0.150
  830SOL    HW2 2513   2.221   1.832   0.216
  831SOL     OW 2514   2.797   2.098   0.480
  831SOL    HW1 2515   2.749   2.139   0.402
  831SOL    HW2 2516   2.896   2.096   0.461
  832SOL     OW 2517   2.321   3.014   0.741
  832SOL    HW1 2518   2.250   2.987   0.806
  832SOL    HW2 2519   2.295   2.986   0.648
  833SOL     OW 2520   2.894   2.411   0.016
  833SOL    HW1 2521   2.853   2.493  -0.023
  833SOL    HW2 2522   2.958   2.437   0.089
  834SOL     OW 2523   1.940   2.418   1.386
  834SOL    HW1 2524   2.032   2.417   1.345
  834SOL    HW2 2525   1.934   2.492   1.453
  835SOL     OW 2526   2.423   2.084   1.147
  835SOL    HW1 2527   2.461   2.000   1.184
  835SOL    HW2 2528   2.335   2.103   1.191
  836SOL     OW 2529   2.728   2.316   0.642
  836SOL    HW1 2530   2.696   2.388   0.580
  836SOL    HW2 2531   2.752   2.235   0.589
  837SOL     OW 2532   2.879   1.901   0.753
  837SOL    HW1 2533   2.807   1.906   0.684
  837SOL    HW2 2534   2.855   1.832   0.822
  838SOL     OW 2535   2.389   2.118   0.328
  838SOL    HW1 2536   2.416   2.059   0.253
  838SOL    HW2 2537   2.389   2.213   0.297
  839SOL     OW 2538   2.777   1.951   1.402
  839SOL    HW1 2539   2.802   1.931   1.307
  839SOL    HW2 2540   2.849   2.007   1.444
  840SOL     OW 2541   2.567   2.912   0.368
  840SOL    HW1 2542   2.553   2.919   0.467
  840SOL    HW2 2543   2.651   2.861   0.350
  841SOL     OW 2544   2.272   2.675   1.251
  841SOL    HW1 2545   2.358   2.687   1.301
  841SOL    HW2 2546   2.230   2.588   1.278
  842SOL     OW 2547   2.229   2.962   0.501
  842SOL    HW1 2548   2.222   3.045   0.445
  842SOL    HW2 2549   2.233   2.882   0.441
  843SOL     OW 2550   2.428   2.399   0.865
  843SOL    HW1 2551   2.440   2.465   0.791
  843SOL    HW2 2552   2.474   2.433   0.948
  844SOL     OW 2553   2.264   2.613   1.598
  844SOL    HW1 2554   2.332   2.668   1.551
  844SOL    HW2 2555   2.304   2.525   1.625
  845SOL     OW 2556   2.875   1.967   1.770
  845SOL    HW1 2557   2.881   2.052   1.718
  845SOL    HW2 2558   2.907   1.891   1.713
  846SOL     OW 2559   2.366   1.912   1.740
  846SOL    HW1 2560   2.324   1.855   1.670
  846SOL    HW2 2561   2.300   1.981   1.772
  847SOL     OW 2562   2.435   2.732   1.029
  847SOL    HW1 2563   2.479   2.821   1.020
  847SOL    HW2 2564   2.372   2.732   1.106
  848SOL     OW 2565   3.222   2.724   1.045
  848SOL    HW1 2566   3.147   2.724   0.979
  848SOL    HW2 2567   3.259   2.632   1.054
  849SOL     OW 2568   3.071   2.387   0.275
  849SOL    HW1 2569   3.084   2.303   0.329
  849SOL    HW2 2570   3.042   2.461   0.335
  850SOL     OW 2571   2.169   2.075   1.231
  850SOL    HW1 2572   2.146   2.112   1.321
  850SOL    HW2 2573   2.139   1.980   1.225
  851SOL     OW 2574   2.594   2.496   1.064
  851SOL    HW1 2575   2.653   2.470   0.988
  851SOL    HW2 2576   2.566   2.592   1.053
  852SOL     OW 2577   2.169   1.925   0.618
  852SOL    HW1 2578   2.158   2.019   0.651
  852SOL    HW2 2579   2.164   1.862   0.695
  853SOL     OW 2580   2.885   2.628   0.966
  853SOL    HW1 2581   2.900   2.649   1.062
  853SOL    HW2 2582   2.855   2.533   0.957
  854SOL     OW 2583   2.212   2.760   1.804
  854SOL    HW1 2584   2.288   2.804   1.852
  854SOL    HW2 2585   2.247   2.713   1.722
  855SOL     OW 2586   2.181   2.672   0.949
  855SOL    HW1 2587   2.274   2.708   0.954
  855SOL    HW2 2588   2.175   2.587   1.001
  856SOL     OW 2589   2.201   2.371   1.006
  856SOL    HW1 2590   2.149   2.288   0.989
  856SOL    HW2 2591   2.278   2.376   0.942
  857SOL     OW 2592   3.000   2.242   1.678
  857SOL    HW1 2593   2.955   2.305   1.742
  857SOL    HW2 2594   3.093   2.273   1.661
  858SOL     OW 2595   3.022   2.069   1.477
  858SOL    HW1 2596   3.022   2.133   1.554
  858SOL    HW2 2597   3.050   2.117   1.394
  859SOL     OW 2598   2.864   2.658   1.238
  859SOL    HW1 2599   2.905   2.626   1.324
  859SOL    HW2 2600   2.768   2.631   1.235
  860SOL     OW 2601   1.902   2.406   1.114
  860SOL    HW1 2602   1.987   2.373   1.073
  860SOL    HW2 2603   1.915   2.421   1.212
  861SOL     OW 2604   2.051   2.382   1.722
  861SOL    HW1 2605   2.110   2.342   1.652
  861SOL    HW2 2606   1.993   2.453   1.681
  862SOL     OW 2607   2.677   2.434   0.325
  862SOL    HW1 2608   2.684   2.345   0.279
  862SOL    HW2 2609   2.583   2.468   0.317
  863SOL     OW 2610   2.533   2.326   1.269
  863SOL    HW1 2611   2.499   2.237   1.239
  863SOL    HW2 2612   2.559   2.380   1.189
  864SOL     OW 2613   2.335   2.362   0.191
  864SOL    HW1 2614   2.396   2.442   0.195
  864SOL    HW2 2615   2.240   2.393   0.198
  865SOL     OW 2616   2.021   2.999   1.466
  865SOL    HW1 2617   2.043   2.938   1.542
  865SOL    HW2 2618   2.031   2.950   1.380
  866SOL     OW 2619   3.164   2.717   0.309
  866SOL    HW1 2620   3.078   2.686   0.351
  866SOL    HW2 2621   3.160   2.703   0.210
  867SOL     OW 2622   2.765   1.948   0.133
  867SOL    HW1 2623   2.816   1.949   0.047
  867SOL    HW2 2624   2.821   1.906   0.204
  868SOL     OW 2625   2.125   2.188   0.720
  868SOL    HW1 2626   2.046   2.239   0.686
  868SOL    HW2 2627   2.116   2.173   0.818
  869SOL     OW 2628   2.684   2.864   1.372
  869SOL    HW1 2629   2.724   2.863   1.280
  869SOL    HW2 2630   2.694   2.956   1.412
  870SOL     OW 2631   2.778   2.772   0.291
  870SOL    HW1 2632   2.841   2.810   0.223
  870SOL    HW2 2633   2.818   2.689   0.330
  871SOL     OW 2634   2.234   3.150   1.490
  871SOL    HW1 2635   2.221   3.243   1.456
  871SOL    HW2 2636   2.150   3.098   1.477
  872SOL     OW 2637   2.876   2.098   0.971
  872SOL    HW1 2638   2.868   2.062   0.878
  872SOL    HW2 2639   2.874   2.022   1.036
  873SOL     OW 2640   1.967   2.875   1.726
  873SOL    HW1 2641   1.890   2.842   1.780
  873SOL    HW2 2642   2.052   2.845   1.768
  874SOL     OW 2643   2.534   2.065   1.489
  874SOL    HW1 2644   2.624   2.049   1.449
  874SOL    HW2 2645   2.542   2.070   1.588
  875SOL     OW 2646   1.934   2.028   0.318
  875SOL    HW1 2647   1.917   2.111   0.264
  875SOL    HW2 2648   2.024   1.991   0.296
  876SOL     OW 2649   2.475   2.704   1.431
  876SOL    HW1 2650   2.531   2.785   1.414
  876SOL    HW2 2651   2.534   2.624   1.434
  877SOL     OW 2652   2.578   2.427   1.708
  877SOL    HW1 2653   2.597   2.492   1.782
  877SOL    HW2 2654   2.638   2.347   1.717
  878SOL     OW 2655   2.456   2.607   0.652
  878SOL    HW1 2656   2.506   2.692   0.633
  878SOL    HW2 2657   2.368   2.609   0.604
  879SOL     OW 2658   2.721   2.818   0.861
  879SOL    HW1 2659   2.775   2.749   0.909
  879SOL    HW2 2660   2.689   2.887   0.927
  880SOL     OW 2661   2.945   2.846   0.087
  880SOL    HW1 2662   2.922   2.899   0.005
  880SOL    HW2 2663   3.026   2.790   0.068
  881SOL     OW 2664   1.941   3.102   0.653
  881SOL    HW1 2665   1.940   3.055   0.741
  881SOL    HW2 2666   2.023   3.074   0.602
  882SOL     OW 2667   2.290   2.286   0.520
  882SOL    HW1 2668   2.320   2.214   0.458
  882SOL    HW2 2669   2.251   2.246   0.603
  883SOL     OW 2670   2.179   2.409   1.280
  883SOL    HW1 2671   2.217   2.350   1.352
  883SOL    HW2 2672   2.219   2.383   1.192
  884SOL     OW 2673   2.863   1.896   1.154
  884SOL    HW1 2674   2.800   1.824   1.123
  884SOL    HW2 2675   2.956   1.860   1.154
  885SOL     OW 2676   2.632   3.192   0.301
  885SOL    HW1 2677   2.586   3.105   0.318
  885SOL    HW2 2678   2.723   3.189   0.342
  886SOL     OW 2679   2.092   2.490   1.975
  886SOL    HW1 2680   1.999   2.488   2.012
  886SOL    HW2 2681   2.093   2.451   1.883
  887SOL     OW 2682   2.087   2.137   2.858
  887SOL    HW1 2683   2.122   2.120   2.950
  887SOL    HW2 2684   1.999   2.092   2.846
  888SOL     OW 2685   1.881   2.230   2.509
  888SOL    HW1 2686   1.799   2.273   2.548
  888SOL    HW2 2687   1.853   2.157   2.446
  889SOL     OW 2688   2.630   3.006   2.885
  889SOL    HW1 2689   2.552   3.023   2.945
  889SOL    HW2 2690   2.664   3.093   2.849
  890SOL     OW 2691   2.547   2.874   2.527
  890SOL    HW1 2692   2.616   2.858   2.597
  890SOL    HW2 2693   2.474   2.931   2.565
  891SOL     OW 2694   2.102   2.953   2.748
  891SOL    HW1 2695   2.116   2.869   2.800
  891SOL    HW2 2696   2.047   3.017   2.803
  892SOL     OW 2697   2.468   2.826   1.985
  892SOL    HW1 2698   2.475   2.910   1.931
  892SOL    HW2 2699   2.514   2.839   2.073
  893SOL     OW 2700   1.984   2.505   2.425
  893SOL    HW1 2701   1.939   2.417   2.442
  893SOL    HW2 2702   1.983   2.559   2.509
  894SOL     OW 2703   2.475   3.227   2.588
  894SOL    HW1 2704   2.426   3.140   2.597
  894SOL    HW2 2705   2.452   3.270   2.501
  895SOL     OW 2706   2.671   1.866   2.364
  895SOL    HW1 2707   2.711   1.957   2.355
  895SOL    HW2 2708   2.571   1.874   2.370
  896SOL     OW 2709   2.059   2.838   3.126
  896SOL    HW1 2710   2.148   2.793   3.112
  896SOL    HW2 2711   1.986   2.773   3.107
  897SOL     OW 2712   2.460   2.591   2.132
  897SOL    HW1 2713   2.484   2.660   2.064
  897SOL    HW2 2714   2.382   2.624   2.186
  898SOL     OW 2715   2.903   2.563   2.291
  898SOL    HW1 2716   2.929   2.559   2.387
  898SOL    HW2 2717   2.818   2.512   2.277
  899SOL     OW 2718   1.938   2.673   2.651
  899SOL    HW1 2719   2.037   2.661   2.660
  899SOL    HW2 2720   1.914   2.768   2.672
  900SOL     OW 2721   2.727   2.210   2.057
  900SOL    HW1 2722   2.786   2.273   2.008
  900SOL    HW2 2723   2.746   2.116   2.028
  901SOL     OW 2724   2.412   2.058   2.747
  901SOL    HW1 2725   2.407   2.053   2.847
  901SOL    HW2 2726   2.414   2.154   2.718
  902SOL     OW 2727   2.183   2.805   2.104
  902SOL    HW1 2728   2.265   2.844   2.062
  902SOL    HW2 2729   2.156   2.723   2.055
  903SOL     OW 2730   2.244   2.562   2.342
  903SOL    HW1 2731   2.289   2.472   2.339
  903SOL    HW2 2732   2.150   2.551   2.375
  904SOL     OW 2733   2.476   1.984   1.979
  904SOL    HW1 2734   2.574   1.962   1.986
  904SOL    HW2 2735   2.445   1.967   1.886
  905SOL     OW 2736   2.750   3.376   3.057
  905SOL    HW1 2737   2.727   3.351   2.963
  905SOL    HW2 2738   2.811   3.307   3.096
  906SOL     OW 2739   2.784   2.365   2.761
  906SOL    HW1 2740   2.759   2.356   2.665
  906SOL    HW2 2741   2.832   2.283   2.792
  907SOL     OW 2742   2.401   1.926   2.374
  907SOL    HW1 2743   2.320   1.927   2.432
  907SOL    HW2 2744   2.404   2.009   2.319
  908SOL     OW 2745   2.159   1.897   2.033
  908SOL    HW1 2746   2.208   1.981   2.012
  908SOL    HW2 2747   2.221   1.832   2.078
  909SOL     OW 2748   2.797   2.098   2.342
  909SOL    HW1 2749   2.749   2.139   2.264
  909SOL    HW2 2750   2.896   2.096   2.323
  910SOL     OW 2751   2.321   3.014   2.603
  910SOL    HW1 2752   2.250   2.987   2.668
  910SOL    HW2 2753   2.295   2.986   2.510
  911SOL     OW 2754   2.894   2.411   1.878
  911SOL    HW1 2755   2.853   2.493   1.839
  911SOL    HW2 2756   2.958   2.437   1.951
  912SOL     OW 2757   2.728   2.316   2.504
  912SOL    HW1 2758   2.696   2.388   2.442
  912SOL    HW2 2759   2.752   2.235   2.451
  913SOL     OW 2760   2.879   1.901   2.615
  913SOL    HW1 2761   2.807   1.906   2.546
  913SOL    HW2 2762   2.855   1.832   2.684
  914SOL     OW 2763   2.389   2.118   2.190
  914SOL    HW1 2764   2.416   2.059   2.115
  914SOL    HW2 2765   2.389   2.213   2.159
  915SOL     OW 2766   2.567   2.912   2.230
  915SOL    HW1 2767   2.553   2.919   2.329
  915SOL    HW2 2768   2.651   2.861   2.212
  916SOL     OW 2769   2.272   2.675   3.113
  916SOL    HW1 2770   2.358   2.687   3.163
  916SOL    HW2 2771   2.230   2.588   3.140
  917SOL     OW 2772   2.229   2.962   2.363
  917SOL    HW1 2773   2.222   3.045   2.307
  917SOL    HW2 2774   2.233   2.882   2.303
  918SOL     OW 2775   2.428   2.399   2.727
  918SOL    HW1 2776   2.440   2.465   2.653
  918SOL    HW2 2777   2.474   2.433   2.810
  919SOL     OW 2778   2.435   2.732   2.891
  919SOL    HW1 2779   2.479   2.821   2.882
  919SOL    HW2 2780   2.372   2.732   2.968
  920SOL     OW 2781   3.222   2.724   2.907
  920SOL    HW1 2782   3.147   2.724   2.841
  920SOL    HW2 2783   3.259   2.632   2.916
  921SOL     OW 2784   3.071   2.387   2.137
  921SOL    HW1 2785   3.084   2.303   2.191
  921SOL    HW2 2786   3.042   2.461   2.197
  922SOL     OW 2787   2.169   2.075   3.093
  922SOL    HW1 2788   2.146   2.112   3.183
  922SOL    HW2 2789   2.139   1.980   3.087
  923SOL     OW 2790   2.594   2.496   2.926
  923SOL    HW1 2791   2.653   2.470   2.850
  923SOL    HW2 2792   2.566   2.592   2.915
  924SOL     OW 2793   2.169   1.925   2.480
  924SOL    HW1 2794   2.158   2.019   2.513
  924SOL    HW2 2795   2.164   1.862   2.557
  925SOL     OW 2796   2.885   2.628   2.828
  925SOL    HW1 2797   2.900   2.649   2.924
  925SOL    HW2 2798   2.855   2.533   2.819
  926SOL     OW 2799   3.165   2.700   1.904
  926SOL    HW1 2800   3.199   2.607   1.919
  926SOL    HW2 2801   3.183   2.727   1.809
  927SOL     OW 2802   2.181   2.672   2.811
  927SOL    HW1 2803   2.274   2.708   2.816
  927SOL    HW2 2804   2.175   2.587   2.863
  928SOL     OW 2805   2.201   2.371   2.868
  928SOL    HW1 2806   2.149   2.288   2.851
  928SOL    HW2 2807   2.278   2.376   2.804
  929SOL     OW 2808   2.864   2.658   3.100
  929SOL    HW1 2809   2.905   2.626   3.186
  929SOL    HW2 2810   2.768   2.631   3.097
  930SOL     OW 2811   1.902   2.406   2.976
  930SOL    HW1 2812   1.987   2.373   2.935
  930SOL    HW2 2813   1.915   2.421   3.074
  931SOL     OW 2814   2.677   2.434   2.187
  931SOL    HW1 2815   2.684   2.345   2.141
  931SOL    HW2 2816   2.583   2.468   2.179
  932SOL     OW 2817   2.533   2.326   3.131
  932SOL    HW1 2818   2.499   2.237   3.101
  932SOL    HW2 2819   2.559   2.380   3.051
  933SOL     OW 2820   2.335   2.362   2.053
  933SOL    HW1 2821   2.396   2.442   2.057
  933SOL    HW2 2822   2.240   2.393   2.060
  934SOL     OW 2823   2.021   2.999   3.328
  934SOL    HW1 2824   2.043   2.938   3.404
  934SOL    HW2 2825   2.031   2.950   3.242
  935SOL     OW 2826   3.164   2.717   2.171
  935SOL    HW1 2827   3.078   2.686   2.213
  935SOL    HW2 2828   3.160   2.703   2.072
  936SOL     OW 2829   2.125   2.188   2.582
  936SOL    HW1 2830   2.046   2.239   2.548
  936SOL    HW2 2831   2.116   2.173   2.680
  937SOL     OW 2832   2.684   2.864   3.234
  937SOL    HW1 2833   2.724   2.863   3.142
  937SOL    HW2 2834   2.694   2.956   3.274
  938SOL     OW 2835   2.778   2.772   2.153
  938SOL    HW1 2836   2.841   2.810   2.085
  938SOL    HW2 2837   2.818   2.689   2.192
  939SOL     OW 2838   2.876   2.098   2.833
  939SOL    HW1 2839   2.868   2.062   2.740
  939SOL    HW2 2840   2.874   2.022   2.898
  940SOL     OW 2841   1.937   2.207   1.895
  940SOL    HW1 2842   1.845   2.179   1.866
  940SOL    HW2 2843   1.968   2.284   1.839
  941SOL     OW 2844   1.934   2.028   2.180
  941SOL    HW1 2845   1.917   2.111   2.126
  941SOL    HW2 2846   2.024   1.991   2.158
  942SOL     OW 2847   2.456   2.607   2.514
  942SOL    HW1 2848   2.506   2.692   2.495
  942SOL    HW2 2849   2.368   2.609   2.466
  943SOL     OW 2850   2.721   2.818   2.723
  943SOL    HW1 2851   2.775   2.749   2.771
  943SOL    HW2 2852   2.689   2.887   2.789
  944SOL     OW 2853   2.945   2.846   1.949
  944SOL    HW1 2854   2.922   2.899   1.867
  944SOL    HW2 2855   3.026   2.790   1.930
  945SOL     OW 2856   1.941   3.102   2.515
  945SOL    HW1 2857   1.940   3.055   2.603
  945SOL    HW2 2858   2.023   3.074   2.464
  946SOL     OW 2859   2.290   2.286   2.382
  946SOL    HW1 2860   2.320   2.214   2.320
  946SOL    HW2 2861   2.251   2.246   2.465
  947SOL     OW 2862   2.632   3.192   2.163
  947SOL    HW1 2863   2.586   3.105   2.180
  947SOL    HW2 2864   2.723   3.189   2.204
  948SOL     OW 2865   1.901   2.939   2.162
  948SOL    HW1 2866   2.000   2.928   2.153
  948SOL    HW2 2867   1.861   2.853   2.194
   3.06499   3.06499   3.06499
