; mobley_5393242_GMX.itp created by acpype (v: 2023.10.27) on Thu May 14 13:27:56 2026

[ atomtypes ]
;name   bond_type     mass     charge   ptype   sigma         epsilon       Amb
 ca       ca          0.00000  0.00000   A     3.31521e-01   4.13379e-01 ; 1.86  0.0988
 c3       c3          0.00000  0.00000   A     3.39771e-01   4.51035e-01 ; 1.91  0.1078
 nb       nb          0.00000  0.00000   A     3.38417e-01   3.93714e-01 ; 1.90  0.0941
 os       os          0.00000  0.00000   A     3.15610e-01   3.03758e-01 ; 1.77  0.0726
 p5       p5          0.00000  0.00000   A     3.69402e-01   9.60228e-01 ; 2.07  0.2295
 s        s           0.00000  0.00000   A     3.53241e-01   1.18156e+00 ; 1.98  0.2824
 ha       ha          0.00000  0.00000   A     2.62548e-01   6.73624e-02 ; 1.47  0.0161
 hc       hc          0.00000  0.00000   A     2.60018e-01   8.70272e-02 ; 1.46  0.0208
 h1       h1          0.00000  0.00000   A     2.42200e-01   8.70272e-02 ; 1.36  0.0208

[ moleculetype ]
;name            nrexcl
 mobley_5393242   3

[ atoms ]
;   nr  type  resi  res  atom  cgnr     charge      mass       ; qtot   bond_type
     1   ca     1   MOL    C1    1    -0.360600     12.01000 ; qtot -0.361
     2   ca     1   MOL    C2    2     0.482600     12.01000 ; qtot 0.122
     3   ca     1   MOL    C3    3     0.675600     12.01000 ; qtot 0.798
     4   ca     1   MOL    C4    4     0.725300     12.01000 ; qtot 1.523
     5   c3     1   MOL    C5    5    -0.159400     12.01000 ; qtot 1.364
     6   c3     1   MOL    C6    6    -0.109100     12.01000 ; qtot 1.254
     7   c3     1   MOL    C7    7    -0.109100     12.01000 ; qtot 1.145
     8   c3     1   MOL    C8    8    -0.099100     12.01000 ; qtot 1.046
     9   c3     1   MOL    C9    9    -0.099100     12.01000 ; qtot 0.947
    10   c3     1   MOL   C10   10     0.151900     12.01000 ; qtot 1.099
    11   c3     1   MOL   C11   11     0.151900     12.01000 ; qtot 1.251
    12   c3     1   MOL   C12   12    -0.099000     12.01000 ; qtot 1.152
    13   nb     1   MOL    N1   13    -0.718000     14.01000 ; qtot 0.434
    14   nb     1   MOL    N2   14    -0.829000     14.01000 ; qtot -0.395
    15   os     1   MOL    O1   15    -0.524700     16.00000 ; qtot -0.920
    16   os     1   MOL    O2   16    -0.527200     16.00000 ; qtot -1.447
    17   os     1   MOL    O3   17    -0.527200     16.00000 ; qtot -1.974
    18   p5     1   MOL    P1   18     1.252199     30.97000 ; qtot -0.722
    19    s     1   MOL    S1   19    -0.602000     32.06000 ; qtot -1.324
    20   ha     1   MOL    H1   20     0.175000      1.00800 ; qtot -1.149
    21   hc     1   MOL    H2   21     0.064367      1.00800 ; qtot -1.085
    22   hc     1   MOL    H3   22     0.064367      1.00800 ; qtot -1.020
    23   hc     1   MOL    H4   23     0.064367      1.00800 ; qtot -0.956
    24   hc     1   MOL    H5   24     0.052200      1.00800 ; qtot -0.904
    25   hc     1   MOL    H6   25     0.052200      1.00800 ; qtot -0.852
    26   hc     1   MOL    H7   26     0.052200      1.00800 ; qtot -0.799
    27   hc     1   MOL    H8   27     0.052200      1.00800 ; qtot -0.747
    28   hc     1   MOL    H9   28     0.052200      1.00800 ; qtot -0.695
    29   hc     1   MOL   H10   29     0.052200      1.00800 ; qtot -0.643
    30   hc     1   MOL   H11   30     0.049200      1.00800 ; qtot -0.594
    31   hc     1   MOL   H12   31     0.049200      1.00800 ; qtot -0.544
    32   hc     1   MOL   H13   32     0.049200      1.00800 ; qtot -0.495
    33   hc     1   MOL   H14   33     0.049200      1.00800 ; qtot -0.446
    34   hc     1   MOL   H15   34     0.049200      1.00800 ; qtot -0.397
    35   hc     1   MOL   H16   35     0.049200      1.00800 ; qtot -0.348
    36   h1     1   MOL   H17   36     0.067950      1.00800 ; qtot -0.280
    37   h1     1   MOL   H18   37     0.067950      1.00800 ; qtot -0.212
    38   h1     1   MOL   H19   38     0.067950      1.00800 ; qtot -0.144
    39   h1     1   MOL   H20   39     0.067950      1.00800 ; qtot -0.076
    40   hc     1   MOL   H21   40     0.075700      1.00800 ; qtot 0.000

[ bonds ]
;   ai     aj funct   r             k
     1      2   1    1.3986e-01    2.9644e+05 ;     C1 - C2    
     1      3   1    1.3986e-01    2.9644e+05 ;     C1 - C3    
     1     20   1    1.0860e-01    3.0183e+05 ;     C1 - H1    
     2      5   1    1.5147e-01    2.0410e+05 ;     C2 - C5    
     2     13   1    1.3392e-01    3.2341e+05 ;     C2 - N1    
     3     14   1    1.3392e-01    3.2341e+05 ;     C3 - N2    
     3     15   1    1.3688e-01    2.8731e+05 ;     C3 - O1    
     4     12   1    1.5147e-01    2.0410e+05 ;     C4 - C12   
     4     13   1    1.3392e-01    3.2341e+05 ;     C4 - N1    
     4     14   1    1.3392e-01    3.2341e+05 ;     C4 - N2    
     5     21   1    1.0962e-01    2.8891e+05 ;     C5 - H2    
     5     22   1    1.0962e-01    2.8891e+05 ;     C5 - H3    
     5     23   1    1.0962e-01    2.8891e+05 ;     C5 - H4    
     6     10   1    1.5354e-01    1.9154e+05 ;     C6 - C10   
     6     24   1    1.0962e-01    2.8891e+05 ;     C6 - H5    
     6     25   1    1.0962e-01    2.8891e+05 ;     C6 - H6    
     6     26   1    1.0962e-01    2.8891e+05 ;     C6 - H7    
     7     11   1    1.5354e-01    1.9154e+05 ;     C7 - C11   
     7     27   1    1.0962e-01    2.8891e+05 ;     C7 - H8    
     7     28   1    1.0962e-01    2.8891e+05 ;     C7 - H9    
     7     29   1    1.0962e-01    2.8891e+05 ;     C7 - H10   
     8     12   1    1.5354e-01    1.9154e+05 ;     C8 - C12   
     8     30   1    1.0962e-01    2.8891e+05 ;     C8 - H11   
     8     31   1    1.0962e-01    2.8891e+05 ;     C8 - H12   
     8     32   1    1.0962e-01    2.8891e+05 ;     C8 - H13   
     9     12   1    1.5354e-01    1.9154e+05 ;     C9 - C12   
     9     33   1    1.0962e-01    2.8891e+05 ;     C9 - H14   
     9     34   1    1.0962e-01    2.8891e+05 ;     C9 - H15   
     9     35   1    1.0962e-01    2.8891e+05 ;     C9 - H16   
    10     16   1    1.4273e-01    2.3620e+05 ;    C10 - O2    
    10     36   1    1.0969e-01    2.8804e+05 ;    C10 - H17   
    10     37   1    1.0969e-01    2.8804e+05 ;    C10 - H18   
    11     17   1    1.4273e-01    2.3620e+05 ;    C11 - O3    
    11     38   1    1.0969e-01    2.8804e+05 ;    C11 - H19   
    11     39   1    1.0969e-01    2.8804e+05 ;    C11 - H20   
    12     40   1    1.0962e-01    2.8891e+05 ;    C12 - H21   
    15     18   1    1.6182e-01    3.2434e+05 ;     O1 - P1    
    16     18   1    1.6182e-01    3.2434e+05 ;     O2 - P1    
    17     18   1    1.6182e-01    3.2434e+05 ;     O3 - P1    
    18     19   1    1.9473e-01    2.2085e+05 ;     P1 - S1    

[ pairs ]
;   ai     aj    funct
     1      4      1 ;     C1 - C4    
     1     18      1 ;     C1 - P1    
     1     21      1 ;     C1 - H2    
     1     22      1 ;     C1 - H3    
     1     23      1 ;     C1 - H4    
     2     12      1 ;     C2 - C12   
     2     14      1 ;     C2 - N2    
     2     15      1 ;     C2 - O1    
     3      5      1 ;     C3 - C5    
     3     12      1 ;     C3 - C12   
     3     13      1 ;     C3 - N1    
     3     16      1 ;     C3 - O2    
     3     17      1 ;     C3 - O3    
     3     19      1 ;     C3 - S1    
     4      5      1 ;     C4 - C5    
     4     15      1 ;     C4 - O1    
     4     30      1 ;     C4 - H11   
     4     31      1 ;     C4 - H12   
     4     32      1 ;     C4 - H13   
     4     33      1 ;     C4 - H14   
     4     34      1 ;     C4 - H15   
     4     35      1 ;     C4 - H16   
     6     18      1 ;     C6 - P1    
     7     18      1 ;     C7 - P1    
     8     13      1 ;     C8 - N1    
     8     14      1 ;     C8 - N2    
     8     33      1 ;     C8 - H14   
     8     34      1 ;     C8 - H15   
     8     35      1 ;     C8 - H16   
     9     13      1 ;     C9 - N1    
     9     14      1 ;     C9 - N2    
     9     30      1 ;     C9 - H11   
     9     31      1 ;     C9 - H12   
     9     32      1 ;     C9 - H13   
    10     15      1 ;    C10 - O1    
    10     17      1 ;    C10 - O3    
    10     19      1 ;    C10 - S1    
    11     15      1 ;    C11 - O1    
    11     16      1 ;    C11 - O2    
    11     19      1 ;    C11 - S1    
    13     21      1 ;     N1 - H2    
    13     22      1 ;     N1 - H3    
    13     23      1 ;     N1 - H4    
    13     40      1 ;     N1 - H21   
    14     18      1 ;     N2 - P1    
    14     40      1 ;     N2 - H21   
    16     24      1 ;     O2 - H5    
    16     25      1 ;     O2 - H6    
    16     26      1 ;     O2 - H7    
    17     27      1 ;     O3 - H8    
    17     28      1 ;     O3 - H9    
    17     29      1 ;     O3 - H10   
    18     36      1 ;     P1 - H17   
    18     37      1 ;     P1 - H18   
    18     38      1 ;     P1 - H19   
    18     39      1 ;     P1 - H20   
    20      5      1 ;     H1 - C5    
    20     13      1 ;     H1 - N1    
    20     14      1 ;     H1 - N2    
    20     15      1 ;     H1 - O1    
    24     36      1 ;     H5 - H17   
    24     37      1 ;     H5 - H18   
    25     36      1 ;     H6 - H17   
    25     37      1 ;     H6 - H18   
    26     36      1 ;     H7 - H17   
    26     37      1 ;     H7 - H18   
    27     38      1 ;     H8 - H19   
    27     39      1 ;     H8 - H20   
    28     38      1 ;     H9 - H19   
    28     39      1 ;     H9 - H20   
    29     38      1 ;    H10 - H19   
    29     39      1 ;    H10 - H20   
    30     40      1 ;    H11 - H21   
    31     40      1 ;    H12 - H21   
    32     40      1 ;    H13 - H21   
    33     40      1 ;    H14 - H21   
    34     40      1 ;    H15 - H21   
    35     40      1 ;    H16 - H21   

[ angles ]
;   ai     aj     ak    funct   theta         cth
     1      2      5      1    1.2083e+02    5.0827e+02 ;     C1 - C2     - C5    
     1      2     13      1    1.2294e+02    5.7045e+02 ;     C1 - C2     - N1    
     1      3     14      1    1.2294e+02    5.7045e+02 ;     C1 - C3     - N2    
     1      3     15      1    1.1911e+02    6.6107e+02 ;     C1 - C3     - O1    
     2      1      3      1    1.2002e+02    5.3279e+02 ;     C2 - C1     - C3    
     2      1     20      1    1.1988e+02    3.7572e+02 ;     C2 - C1     - H1    
     2      5     21      1    1.1063e+02    3.6493e+02 ;     C2 - C5     - H2    
     2      5     22      1    1.1063e+02    3.6493e+02 ;     C2 - C5     - H3    
     2      5     23      1    1.1063e+02    3.6493e+02 ;     C2 - C5     - H4    
     2     13      4      1    1.1724e+02    6.9580e+02 ;     C2 - N1     - C4    
     3      1     20      1    1.1988e+02    3.7572e+02 ;     C3 - C1     - H1    
     3     14      4      1    1.1724e+02    6.9580e+02 ;     C3 - N2     - C4    
     3     15     18      1    1.2302e+02    4.7371e+02 ;     C3 - O1     - P1    
     4     12      8      1    1.1242e+02    5.0484e+02 ;     C4 - C12    - C8    
     4     12      9      1    1.1242e+02    5.0484e+02 ;     C4 - C12    - C9    
     4     12     40      1    1.1063e+02    3.6493e+02 ;     C4 - C12    - H21   
     5      2     13      1    1.1664e+02    5.5815e+02 ;     C5 - C2     - N1    
     6     10     16      1    1.0762e+02    6.4802e+02 ;     C6 - C10    - O2    
     6     10     36      1    1.0959e+02    3.6217e+02 ;     C6 - C10    - H17   
     6     10     37      1    1.0959e+02    3.6217e+02 ;     C6 - C10    - H18   
     7     11     17      1    1.0762e+02    6.4802e+02 ;     C7 - C11    - O3    
     7     11     38      1    1.0959e+02    3.6217e+02 ;     C7 - C11    - H19   
     7     11     39      1    1.0959e+02    3.6217e+02 ;     C7 - C11    - H20   
     8     12      9      1    1.1263e+02    5.0099e+02 ;     C8 - C12    - C9    
     8     12     40      1    1.0968e+02    3.6208e+02 ;     C8 - C12    - H21   
     9     12     40      1    1.0968e+02    3.6208e+02 ;     C9 - C12    - H21   
    10      6     24      1    1.0968e+02    3.6208e+02 ;    C10 - C6     - H5    
    10      6     25      1    1.0968e+02    3.6208e+02 ;    C10 - C6     - H6    
    10      6     26      1    1.0968e+02    3.6208e+02 ;    C10 - C6     - H7    
    10     16     18      1    1.1970e+02    4.7396e+02 ;    C10 - O2     - P1    
    11      7     27      1    1.0968e+02    3.6208e+02 ;    C11 - C7     - H8    
    11      7     28      1    1.0968e+02    3.6208e+02 ;    C11 - C7     - H9    
    11      7     29      1    1.0968e+02    3.6208e+02 ;    C11 - C7     - H10   
    11     17     18      1    1.1970e+02    4.7396e+02 ;    C11 - O3     - P1    
    12      4     13      1    1.1664e+02    5.5815e+02 ;    C12 - C4     - N1    
    12      4     14      1    1.1664e+02    5.5815e+02 ;    C12 - C4     - N2    
    12      8     30      1    1.0968e+02    3.6208e+02 ;    C12 - C8     - H11   
    12      8     31      1    1.0968e+02    3.6208e+02 ;    C12 - C8     - H12   
    12      8     32      1    1.0968e+02    3.6208e+02 ;    C12 - C8     - H13   
    12      9     33      1    1.0968e+02    3.6208e+02 ;    C12 - C9     - H14   
    12      9     34      1    1.0968e+02    3.6208e+02 ;    C12 - C9     - H15   
    12      9     35      1    1.0968e+02    3.6208e+02 ;    C12 - C9     - H16   
    13      4     14      1    1.2730e+02    6.0886e+02 ;     N1 - C4     - N2    
    14      3     15      1    1.1976e+02    7.1521e+02 ;     N2 - C3     - O1    
    15     18     16      1    1.0172e+02    8.6123e+02 ;     O1 - P1     - O2    
    15     18     17      1    1.0172e+02    8.6123e+02 ;     O1 - P1     - O3    
    15     18     19      1    1.1704e+02    6.8040e+02 ;     O1 - P1     - S1    
    16     10     36      1    1.1034e+02    4.7028e+02 ;     O2 - C10    - H17   
    16     10     37      1    1.1034e+02    4.7028e+02 ;     O2 - C10    - H18   
    16     18     17      1    1.0172e+02    8.6123e+02 ;     O2 - P1     - O3    
    16     18     19      1    1.1704e+02    6.8040e+02 ;     O2 - P1     - S1    
    17     11     38      1    1.1034e+02    4.7028e+02 ;     O3 - C11    - H19   
    17     11     39      1    1.1034e+02    4.7028e+02 ;     O3 - C11    - H20   
    17     18     19      1    1.1704e+02    6.8040e+02 ;     O3 - P1     - S1    
    21      5     22      1    1.0773e+02    2.9957e+02 ;     H2 - C5     - H3    
    21      5     23      1    1.0773e+02    2.9957e+02 ;     H2 - C5     - H4    
    22      5     23      1    1.0773e+02    2.9957e+02 ;     H3 - C5     - H4    
    24      6     25      1    1.0773e+02    2.9957e+02 ;     H5 - C6     - H6    
    24      6     26      1    1.0773e+02    2.9957e+02 ;     H5 - C6     - H7    
    25      6     26      1    1.0773e+02    2.9957e+02 ;     H6 - C6     - H7    
    27      7     28      1    1.0773e+02    2.9957e+02 ;     H8 - C7     - H9    
    27      7     29      1    1.0773e+02    2.9957e+02 ;     H8 - C7     - H10   
    28      7     29      1    1.0773e+02    2.9957e+02 ;     H9 - C7     - H10   
    30      8     31      1    1.0773e+02    2.9957e+02 ;    H11 - C8     - H12   
    30      8     32      1    1.0773e+02    2.9957e+02 ;    H11 - C8     - H13   
    31      8     32      1    1.0773e+02    2.9957e+02 ;    H12 - C8     - H13   
    33      9     34      1    1.0773e+02    2.9957e+02 ;    H14 - C9     - H15   
    33      9     35      1    1.0773e+02    2.9957e+02 ;    H14 - C9     - H16   
    34      9     35      1    1.0773e+02    2.9957e+02 ;    H15 - C9     - H16   
    36     10     37      1    1.0855e+02    2.9824e+02 ;    H17 - C10    - H18   
    38     11     39      1    1.0855e+02    2.9824e+02 ;    H19 - C11    - H20   

[ dihedrals ] ; propers
; for gromacs 4.5 or higher, using funct 9
;    i      j      k      l   func   phase     kd      pn
     1      2      5     21      9     0.00   0.00000   0 ;     C1-    C2-    C5-    H2
     1      2      5     22      9     0.00   0.00000   0 ;     C1-    C2-    C5-    H3
     1      2      5     23      9     0.00   0.00000   0 ;     C1-    C2-    C5-    H4
     1      2     13      4      9   180.00  20.08320   2 ;     C1-    C2-    N1-    C4
     1      3     14      4      9   180.00  20.08320   2 ;     C1-    C3-    N2-    C4
     1      3     15     18      9   180.00   7.32200   2 ;     C1-    C3-    O1-    P1
     2      1      3     14      9   180.00  15.16700   2 ;     C2-    C1-    C3-    N2
     2      1      3     15      9   180.00  15.16700   2 ;     C2-    C1-    C3-    O1
     2     13      4     12      9   180.00  20.08320   2 ;     C2-    N1-    C4-   C12
     2     13      4     14      9   180.00  20.08320   2 ;     C2-    N1-    C4-    N2
     3      1      2      5      9   180.00  15.16700   2 ;     C3-    C1-    C2-    C5
     3      1      2     13      9   180.00  15.16700   2 ;     C3-    C1-    C2-    N1
     3     14      4     12      9   180.00  20.08320   2 ;     C3-    N2-    C4-   C12
     3     14      4     13      9   180.00  20.08320   2 ;     C3-    N2-    C4-    N1
     3     15     18     16      9     0.00   3.34720   2 ;     C3-    O1-    P1-    O2
     3     15     18     17      9     0.00   3.34720   2 ;     C3-    O1-    P1-    O3
     3     15     18     19      9     0.00   3.34720   2 ;     C3-    O1-    P1-    S1
     4     12      8     30      9     0.00   0.65084   3 ;     C4-   C12-    C8-   H11
     4     12      8     31      9     0.00   0.65084   3 ;     C4-   C12-    C8-   H12
     4     12      8     32      9     0.00   0.65084   3 ;     C4-   C12-    C8-   H13
     4     12      9     33      9     0.00   0.65084   3 ;     C4-   C12-    C9-   H14
     4     12      9     34      9     0.00   0.65084   3 ;     C4-   C12-    C9-   H15
     4     12      9     35      9     0.00   0.65084   3 ;     C4-   C12-    C9-   H16
     4     13      2      5      9   180.00  20.08320   2 ;     C4-    N1-    C2-    C5
     4     14      3     15      9   180.00  20.08320   2 ;     C4-    N2-    C3-    O1
     6     10     16     18      9     0.00   1.60247   3 ;     C6-   C10-    O2-    P1
     6     10     16     18      9   180.00  16.52680   1 ;     C6-   C10-    O2-    P1
     7     11     17     18      9     0.00   1.60247   3 ;     C7-   C11-    O3-    P1
     7     11     17     18      9   180.00  16.52680   1 ;     C7-   C11-    O3-    P1
     8     12      4     13      9     0.00   0.00000   0 ;     C8-   C12-    C4-    N1
     8     12      4     14      9     0.00   0.00000   0 ;     C8-   C12-    C4-    N2
     8     12      9     33      9     0.00   0.54392   3 ;     C8-   C12-    C9-   H14
     8     12      9     34      9     0.00   0.54392   3 ;     C8-   C12-    C9-   H15
     8     12      9     35      9     0.00   0.54392   3 ;     C8-   C12-    C9-   H16
     9     12      4     13      9     0.00   0.00000   0 ;     C9-   C12-    C4-    N1
     9     12      4     14      9     0.00   0.00000   0 ;     C9-   C12-    C4-    N2
     9     12      8     30      9     0.00   0.54392   3 ;     C9-   C12-    C8-   H11
     9     12      8     31      9     0.00   0.54392   3 ;     C9-   C12-    C8-   H12
     9     12      8     32      9     0.00   0.54392   3 ;     C9-   C12-    C8-   H13
    10     16     18     15      9     0.00  14.72768   2 ;    C10-    O2-    P1-    O1
    10     16     18     17      9     0.00  14.72768   2 ;    C10-    O2-    P1-    O3
    10     16     18     19      9     0.00   3.34720   2 ;    C10-    O2-    P1-    S1
    11     17     18     15      9     0.00  14.72768   2 ;    C11-    O3-    P1-    O1
    11     17     18     16      9     0.00  14.72768   2 ;    C11-    O3-    P1-    O2
    11     17     18     19      9     0.00   3.34720   2 ;    C11-    O3-    P1-    S1
    13      2      5     21      9     0.00   0.00000   0 ;     N1-    C2-    C5-    H2
    13      2      5     22      9     0.00   0.00000   0 ;     N1-    C2-    C5-    H3
    13      2      5     23      9     0.00   0.00000   0 ;     N1-    C2-    C5-    H4
    13      4     12     40      9     0.00   0.00000   0 ;     N1-    C4-   C12-   H21
    14      3     15     18      9   180.00   3.76560   2 ;     N2-    C3-    O1-    P1
    14      4     12     40      9     0.00   0.00000   0 ;     N2-    C4-   C12-   H21
    16     10      6     24      9     0.00   0.00000   0 ;     O2-   C10-    C6-    H5
    16     10      6     24      9     0.00   1.04600   1 ;     O2-   C10-    C6-    H5
    16     10      6     25      9     0.00   0.00000   0 ;     O2-   C10-    C6-    H6
    16     10      6     25      9     0.00   1.04600   1 ;     O2-   C10-    C6-    H6
    16     10      6     26      9     0.00   0.00000   0 ;     O2-   C10-    C6-    H7
    16     10      6     26      9     0.00   1.04600   1 ;     O2-   C10-    C6-    H7
    17     11      7     27      9     0.00   0.00000   0 ;     O3-   C11-    C7-    H8
    17     11      7     27      9     0.00   1.04600   1 ;     O3-   C11-    C7-    H8
    17     11      7     28      9     0.00   0.00000   0 ;     O3-   C11-    C7-    H9
    17     11      7     28      9     0.00   1.04600   1 ;     O3-   C11-    C7-    H9
    17     11      7     29      9     0.00   0.00000   0 ;     O3-   C11-    C7-   H10
    17     11      7     29      9     0.00   1.04600   1 ;     O3-   C11-    C7-   H10
    18     16     10     36      9     0.00   0.00000   0 ;     P1-    O2-   C10-   H17
    18     16     10     37      9     0.00   0.00000   0 ;     P1-    O2-   C10-   H18
    18     17     11     38      9     0.00   0.00000   0 ;     P1-    O3-   C11-   H19
    18     17     11     39      9     0.00   0.00000   0 ;     P1-    O3-   C11-   H20
    20      1      2      5      9   180.00  15.16700   2 ;     H1-    C1-    C2-    C5
    20      1      2     13      9   180.00  15.16700   2 ;     H1-    C1-    C2-    N1
    20      1      3     14      9   180.00  15.16700   2 ;     H1-    C1-    C3-    N2
    20      1      3     15      9   180.00  15.16700   2 ;     H1-    C1-    C3-    O1
    24      6     10     36      9     0.00   0.65084   3 ;     H5-    C6-   C10-   H17
    24      6     10     37      9     0.00   0.65084   3 ;     H5-    C6-   C10-   H18
    25      6     10     36      9     0.00   0.65084   3 ;     H6-    C6-   C10-   H17
    25      6     10     37      9     0.00   0.65084   3 ;     H6-    C6-   C10-   H18
    26      6     10     36      9     0.00   0.65084   3 ;     H7-    C6-   C10-   H17
    26      6     10     37      9     0.00   0.65084   3 ;     H7-    C6-   C10-   H18
    27      7     11     38      9     0.00   0.65084   3 ;     H8-    C7-   C11-   H19
    27      7     11     39      9     0.00   0.65084   3 ;     H8-    C7-   C11-   H20
    28      7     11     38      9     0.00   0.65084   3 ;     H9-    C7-   C11-   H19
    28      7     11     39      9     0.00   0.65084   3 ;     H9-    C7-   C11-   H20
    29      7     11     38      9     0.00   0.65084   3 ;    H10-    C7-   C11-   H19
    29      7     11     39      9     0.00   0.65084   3 ;    H10-    C7-   C11-   H20
    30      8     12     40      9     0.00   0.50208   3 ;    H11-    C8-   C12-   H21
    31      8     12     40      9     0.00   0.50208   3 ;    H12-    C8-   C12-   H21
    32      8     12     40      9     0.00   0.50208   3 ;    H13-    C8-   C12-   H21
    33      9     12     40      9     0.00   0.50208   3 ;    H14-    C9-   C12-   H21
    34      9     12     40      9     0.00   0.50208   3 ;    H15-    C9-   C12-   H21
    35      9     12     40      9     0.00   0.50208   3 ;    H16-    C9-   C12-   H21

[ dihedrals ] ; impropers
; treated as propers in GROMACS to use correct AMBER analytical function
;    i      j      k      l   func   phase     kd      pn
     1     14      3     15      4   180.00   4.60240   2 ;     C1-    N2-    C3-    O1
     5      1      2     13      4   180.00   4.60240   2 ;     C5-    C1-    C2-    N1
    12     13      4     14      4   180.00   4.60240   2 ;    C12-    N1-    C4-    N2
    20      1      3      2      4   180.00   4.60240   2 ;     H1-    C1-    C3-    C2
