mobley_7608462_GMX.gro created by acpype (v: 2023.10.27) on Thu May 14 13:41:41 2026
 1656
    1MOL     C1    1   1.282   1.277   1.136
    1MOL     C2    2   1.175   1.337   1.203
    1MOL     C3    3   1.387   1.221   1.208
    1MOL     C4    4   1.173   1.340   1.343
    1MOL     C5    5   1.385   1.224   1.348
    1MOL     C6    6   1.278   1.283   1.415
    1MOL    CL1    7   1.276   1.287   1.587
    1MOL     H1    8   1.283   1.275   1.027
    1MOL     H2    9   1.093   1.381   1.147
    1MOL     H3   10   1.470   1.174   1.156
    1MOL     H4   11   1.089   1.387   1.394
    1MOL     H5   12   1.467   1.179   1.403
    2SOL     OW   13   0.230   0.628   0.113
    2SOL    HW1   14   0.137   0.626   0.150
    2SOL    HW2   15   0.231   0.589   0.021
    3SOL     OW   16   0.225   0.275   0.996
    3SOL    HW1   17   0.260   0.258   1.088
    3SOL    HW2   18   0.137   0.230   0.984
    4SOL     OW   19   0.019   0.368   0.647
    4SOL    HW1   20  -0.063   0.411   0.686
    4SOL    HW2   21  -0.009   0.295   0.584
    5SOL     OW   22   0.569   1.275   1.165
    5SOL    HW1   23   0.476   1.268   1.128
    5SOL    HW2   24   0.580   1.364   1.209
    6SOL     OW   25   1.555   1.511   0.703
    6SOL    HW1   26   1.498   1.495   0.784
    6SOL    HW2   27   1.496   1.521   0.623
    7SOL     OW   28   1.135   0.703   0.717
    7SOL    HW1   29   1.192   0.781   0.692
    7SOL    HW2   30   1.075   0.729   0.793
    8SOL     OW   31   1.755   0.607   0.231
    8SOL    HW1   32   1.743   0.594   0.132
    8SOL    HW2   33   1.725   0.526   0.280
    9SOL     OW   34   0.768   1.144   1.023
    9SOL    HW1   35   0.690   1.161   1.083
    9SOL    HW2   36   0.802   1.231   0.987
   10SOL     OW   37   0.850   0.798   1.823
   10SOL    HW1   38   0.846   0.874   1.888
   10SOL    HW2   39   0.872   0.834   1.732
   11SOL     OW   40   0.685   1.012   0.665
   11SOL    HW1   41   0.754   0.996   0.735
   11SOL    HW2   42   0.612   1.069   0.703
   12SOL     OW   43   0.686   1.161   1.803
   12SOL    HW1   44   0.746   1.240   1.817
   12SOL    HW2   45   0.600   1.192   1.762
   13SOL     OW   46   0.335   1.435   1.061
   13SOL    HW1   47   0.257   1.404   1.008
   13SOL    HW2   48   0.393   1.493   1.004
   14SOL     OW   49   1.460   1.505   1.339
   14SOL    HW1   50   1.484   1.599   1.365
   14SOL    HW2   51   1.444   1.451   1.421
   15SOL     OW   52   0.438   0.392   1.499
   15SOL    HW1   53   0.520   0.336   1.508
   15SOL    HW2   54   0.357   0.334   1.503
   16SOL     OW   55   1.603   0.447   0.737
   16SOL    HW1   56   1.529   0.493   0.687
   16SOL    HW2   57   1.654   0.515   0.790
   17SOL     OW   58   0.231   1.713   0.483
   17SOL    HW1   59   0.265   1.790   0.537
   17SOL    HW2   60   0.275   1.713   0.393
   18SOL     OW   61   1.127   1.341   1.690
   18SOL    HW1   62   1.174   1.341   1.778
   18SOL    HW2   63   1.079   1.254   1.679
   19SOL     OW   64   0.230   1.434   0.538
   19SOL    HW1   65   0.204   1.530   0.538
   19SOL    HW2   66   0.159   1.380   0.583
   20SOL     OW   67   0.240   1.091   0.886
   20SOL    HW1   68   0.254   1.007   0.938
   20SOL    HW2   69   0.185   1.155   0.941
   21SOL     OW   70   0.620   1.786   1.439
   21SOL    HW1   71   0.528   1.769   1.474
   21SOL    HW2   72   0.648   1.878   1.465
   22SOL     OW   73   0.606   0.964   0.123
   22SOL    HW1   74   0.613   1.048   0.069
   22SOL    HW2   75   0.652   0.977   0.211
   23SOL     OW   76   1.594   0.114   1.480
   23SOL    HW1   77   1.576   0.181   1.408
   23SOL    HW2   78   1.591   0.160   1.569
   24SOL     OW   79   0.122   0.643   0.563
   24SOL    HW1   80   0.077   0.555   0.580
   24SOL    HW2   81   0.121   0.697   0.647
   25SOL     OW   82   1.842   1.767   0.359
   25SOL    HW1   83   1.896   1.738   0.439
   25SOL    HW2   84   1.872   1.857   0.330
   26SOL     OW   85   0.027   1.596   0.117
   26SOL    HW1   86   0.008   1.500   0.138
   26SOL    HW2   87  -0.006   1.654   0.192
   27SOL     OW   88   1.689   0.922   0.612
   27SOL    HW1   89   1.784   0.893   0.620
   27SOL    HW2   90   1.681   0.987   0.537
   28SOL     OW   91   1.641   1.108   0.432
   28SOL    HW1   92   1.727   1.110   0.380
   28SOL    HW2   93   1.655   1.155   0.520
   29SOL     OW   94   0.113   0.737   1.597
   29SOL    HW1   95   0.201   0.724   1.642
   29SOL    HW2   96   0.100   0.834   1.575
   30SOL     OW   97   0.613   1.365   0.726
   30SOL    HW1   98   0.564   1.278   0.735
   30SOL    HW2   99   0.590   1.408   0.639
   31SOL     OW  100   0.809   0.004   0.502
   31SOL    HW1  101   0.849   0.095   0.493
   31SOL    HW2  102   0.709   0.012   0.508
   32SOL     OW  103   0.197   0.976   1.264
   32SOL    HW1  104   0.286   0.931   1.250
   32SOL    HW2  105   0.124   0.911   1.245
   33SOL     OW  106   1.525   0.999   0.190
   33SOL    HW1  107   1.462   0.923   0.203
   33SOL    HW2  108   1.573   1.017   0.276
   34SOL     OW  109   1.187   1.792   1.616
   34SOL    HW1  110   1.211   1.852   1.540
   34SOL    HW2  111   1.194   1.697   1.586
   35SOL     OW  112   0.317   0.251   1.801
   35SOL    HW1  113   0.388   0.322   1.807
   35SOL    HW2  114   0.229   0.290   1.829
   36SOL     OW  115   1.466   1.417   0.953
   36SOL    HW1  116   1.407   1.423   1.033
   36SOL    HW2  117   1.451   1.329   0.907
   37SOL     OW  118   1.667   1.714   0.572
   37SOL    HW1  119   1.626   1.691   0.484
   37SOL    HW2  120   1.649   1.640   0.637
   38SOL     OW  121   0.598   0.729   0.270
   38SOL    HW1  122   0.622   0.798   0.202
   38SOL    HW2  123   0.520   0.762   0.324
   39SOL     OW  124   1.281   0.345   0.944
   39SOL    HW1  125   1.195   0.295   0.931
   39SOL    HW2  126   1.343   0.291   1.000
   40SOL     OW  127   1.576   1.662   0.307
   40SOL    HW1  128   1.665   1.708   0.310
   40SOL    HW2  129   1.555   1.638   0.212
   41SOL     OW  130   0.807   0.605   1.465
   41SOL    HW1  131   0.760   0.602   1.554
   41SOL    HW2  132   0.756   0.550   1.399
   42SOL     OW  133   1.394   0.469   1.674
   42SOL    HW1  134   1.374   0.512   1.762
   42SOL    HW2  135   1.472   0.407   1.683
   43SOL     OW  136   0.973   0.890   1.572
   43SOL    HW1  137   1.019   0.806   1.543
   43SOL    HW2  138   0.917   0.924   1.497
   44SOL     OW  139   0.991   0.410   1.242
   44SOL    HW1  140   0.914   0.444   1.296
   44SOL    HW2  141   0.957   0.359   1.163
   45SOL     OW  142   1.041   0.701   0.429
   45SOL    HW1  143   1.067   0.697   0.525
   45SOL    HW2  144   0.956   0.650   0.415
   46SOL     OW  145   0.076   0.811   0.789
   46SOL    HW1  146   0.175   0.799   0.798
   46SOL    HW2  147   0.052   0.906   0.810
   47SOL     OW  148   0.130   1.821   1.571
   47SOL    HW1  149   0.120   1.806   1.670
   47SOL    HW2  150   0.044   1.857   1.535
   48SOL     OW  151   0.865   0.348   0.195
   48SOL    HW1  152   0.924   0.411   0.146
   48SOL    HW2  153   0.884   0.254   0.166
   49SOL     OW  154   1.719   0.585   1.831
   49SOL    HW1  155   1.693   0.674   1.795
   49SOL    HW2  156   1.717   0.517   1.758
   50SOL     OW  157   1.362   1.144   0.545
   50SOL    HW1  158   1.445   1.115   0.497
   50SOL    HW2  159   1.313   1.211   0.489
   51SOL     OW  160   0.550   0.196   0.885
   51SOL    HW1  161   0.545   0.191   0.985
   51SOL    HW2  162   0.552   0.292   0.856
   52SOL     OW  163   1.008   1.456   0.477
   52SOL    HW1  164   0.962   1.528   0.425
   52SOL    HW2  165   1.004   1.476   0.575
   53SOL     OW  166   0.351   1.801   0.853
   53SOL    HW1  167   0.401   1.715   0.859
   53SOL    HW2  168   0.416   1.878   0.850
   54SOL     OW  169   1.795   1.066   0.873
   54SOL    HW1  170   1.733   1.051   0.797
   54SOL    HW2  171   1.743   1.077   0.958
   55SOL     OW  172   1.227   1.550   1.506
   55SOL    HW1  173   1.233   1.473   1.570
   55SOL    HW2  174   1.175   1.524   1.426
   56SOL     OW  175   0.321   0.943   0.242
   56SOL    HW1  176   0.403   0.982   0.200
   56SOL    HW2  177   0.294   0.861   0.193
   57SOL     OW  178   1.458   0.735   0.728
   57SOL    HW1  179   1.453   0.670   0.803
   57SOL    HW2  180   1.538   0.794   0.741
   58SOL     OW  181   0.461   1.266   1.727
   58SOL    HW1  182   0.411   1.267   1.641
   58SOL    HW2  183   0.398   1.248   1.803
   59SOL     OW  184   1.111   1.776   0.237
   59SOL    HW1  185   1.051   1.714   0.287
   59SOL    HW2  186   1.142   1.732   0.152
   60SOL     OW  187   0.202   0.285   1.498
   60SOL    HW1  188   0.122   0.345   1.485
   60SOL    HW2  189   0.192   0.236   1.584
   61SOL     OW  190   1.632   1.377   0.081
   61SOL    HW1  191   1.600   1.471   0.071
   61SOL    HW2  192   1.556   1.314   0.069
   62SOL     OW  193   0.464   1.743   0.323
   62SOL    HW1  194   0.497   1.782   0.409
   62SOL    HW2  195   0.540   1.736   0.258
   63SOL     OW  196   1.400   0.107   0.426
   63SOL    HW1  197   1.376   0.070   0.336
   63SOL    HW2  198   1.499   0.123   0.430
   64SOL     OW  199   0.249   1.785   1.241
   64SOL    HW1  200   0.306   1.720   1.291
   64SOL    HW2  201   0.233   1.752   1.148
   65SOL     OW  202   0.940   1.698   0.904
   65SOL    HW1  203   1.020   1.641   0.925
   65SOL    HW2  204   0.891   1.658   0.827
   66SOL     OW  205   0.382   0.700   0.480
   66SOL    HW1  206   0.427   0.610   0.477
   66SOL    HW2  207   0.288   0.689   0.513
   67SOL     OW  208   1.547   0.222   1.729
   67SOL    HW1  209   1.542   0.259   1.821
   67SOL    HW2  210   1.475   0.153   1.717
   68SOL     OW  211   0.614   0.122   0.117
   68SOL    HW1  212   0.712   0.100   0.124
   68SOL    HW2  213   0.583   0.105   0.024
   69SOL     OW  214   0.781   0.264   1.749
   69SOL    HW1  215   0.848   0.203   1.792
   69SOL    HW2  216   0.708   0.283   1.814
   70SOL     OW  217   0.888   1.514   1.195
   70SOL    HW1  218   0.865   1.489   1.101
   70SOL    HW2  219   0.949   1.445   1.234
   71SOL     OW  220   1.351   0.590   1.433
   71SOL    HW1  221   1.379   0.547   1.518
   71SOL    HW2  222   1.376   0.686   1.434
   72SOL     OW  223   0.803   1.402   0.924
   72SOL    HW1  224   0.893   1.416   0.882
   72SOL    HW2  225   0.732   1.404   0.853
   73SOL     OW  226   0.922   0.503   0.899
   73SOL    HW1  227   0.897   0.494   0.803
   73SOL    HW2  228   0.970   0.421   0.930
   74SOL     OW  229   0.539   0.064   0.512
   74SOL    HW1  230   0.458   0.065   0.570
   74SOL    HW2  231   0.542   0.147   0.457
   75SOL     OW  232   1.434   1.188   0.041
   75SOL    HW1  233   1.466   1.112   0.098
   75SOL    HW2  234   1.342   1.215   0.071
   76SOL     OW  235   0.297   0.035   0.171
   76SOL    HW1  236   0.346   0.119   0.150
   76SOL    HW2  237   0.359  -0.030   0.216
   77SOL     OW  238   0.935   0.236   0.480
   77SOL    HW1  239   0.887   0.277   0.402
   77SOL    HW2  240   1.034   0.234   0.461
   78SOL     OW  241   1.076   0.683   1.464
   78SOL    HW1  242   0.996   0.622   1.467
   78SOL    HW2  243   1.157   0.630   1.440
   79SOL     OW  244   1.227   1.570   0.793
   79SOL    HW1  245   1.248   1.644   0.728
   79SOL    HW2  246   1.295   1.570   0.866
   80SOL     OW  247   0.459   1.152   0.741
   80SOL    HW1  248   0.388   1.125   0.806
   80SOL    HW2  249   0.433   1.124   0.648
   81SOL     OW  250   1.271   1.797   0.591
   81SOL    HW1  251   1.315   1.861   0.527
   81SOL    HW2  252   1.221   1.849   0.661
   82SOL     OW  253   1.032   0.549   0.016
   82SOL    HW1  254   0.991   0.631  -0.023
   82SOL    HW2  255   1.096   0.575   0.089
   83SOL     OW  256   0.078   0.556   1.386
   83SOL    HW1  257   0.170   0.555   1.345
   83SOL    HW2  258   0.072   0.630   1.453
   84SOL     OW  259   0.561   0.222   1.147
   84SOL    HW1  260   0.599   0.138   1.184
   84SOL    HW2  261   0.473   0.241   1.191
   85SOL     OW  262   0.866   0.454   0.642
   85SOL    HW1  263   0.834   0.526   0.580
   85SOL    HW2  264   0.890   0.373   0.589
   86SOL     OW  265   1.017   0.039   0.753
   86SOL    HW1  266   0.945   0.044   0.684
   86SOL    HW2  267   0.993  -0.030   0.822
   87SOL     OW  268   1.429   1.173   0.867
   87SOL    HW1  269   1.374   1.089   0.860
   87SOL    HW2  270   1.455   1.202   0.775
   88SOL     OW  271   1.466   0.590   0.992
   88SOL    HW1  272   1.436   0.495   0.999
   88SOL    HW2  273   1.539   0.606   1.058
   89SOL     OW  274   1.857   0.833   0.377
   89SOL    HW1  275   1.899   0.769   0.441
   89SOL    HW2  276   1.819   0.782   0.299
   90SOL     OW  277   0.488   1.385   0.174
   90SOL    HW1  278   0.401   1.370   0.221
   90SOL    HW2  279   0.471   1.411   0.079
   91SOL     OW  280   1.664   1.280   0.657
   91SOL    HW1  281   1.763   1.288   0.671
   91SOL    HW2  282   1.619   1.364   0.688
   92SOL     OW  283   1.390   0.575   0.078
   92SOL    HW1  284   1.336   0.554   0.159
   92SOL    HW2  285   1.481   0.534   0.087
   93SOL     OW  286   0.527   0.256   0.328
   93SOL    HW1  287   0.554   0.197   0.253
   93SOL    HW2  288   0.527   0.351   0.297
   94SOL     OW  289   1.754   1.223   1.588
   94SOL    HW1  290   1.845   1.184   1.575
   94SOL    HW2  291   1.762   1.319   1.612
   95SOL     OW  292   1.592   1.629   1.625
   95SOL    HW1  293   1.619   1.663   1.535
   95SOL    HW2  294   1.671   1.591   1.671
   96SOL     OW  295   1.638   1.099   1.079
   96SOL    HW1  296   1.643   1.180   1.138
   96SOL    HW2  297   1.552   1.101   1.028
   97SOL     OW  298   0.915   0.089   1.402
   97SOL    HW1  299   0.940   0.069   1.307
   97SOL    HW2  300   0.987   0.145   1.444
   98SOL     OW  301   0.980   1.116   1.719
   98SOL    HW1  302   0.881   1.122   1.729
   98SOL    HW2  303   1.003   1.036   1.663
   99SOL     OW  304   0.705   1.050   0.368
   99SOL    HW1  305   0.691   1.057   0.467
   99SOL    HW2  306   0.789   0.999   0.350
  100SOL     OW  307   0.410   0.813   1.251
  100SOL    HW1  308   0.496   0.825   1.301
  100SOL    HW2  309   0.368   0.726   1.278
  101SOL     OW  310   1.274   0.386   1.262
  101SOL    HW1  311   1.295   0.460   1.326
  101SOL    HW2  312   1.185   0.403   1.219
  102SOL     OW  313   0.064   1.564   1.331
  102SOL    HW1  314   0.018   1.646   1.297
  102SOL    HW2  315   0.162   1.583   1.340
  103SOL     OW  316   0.367   1.100   0.501
  103SOL    HW1  317   0.360   1.183   0.445
  103SOL    HW2  318   0.371   1.020   0.441
  104SOL     OW  319   0.566   0.537   0.865
  104SOL    HW1  320   0.578   0.603   0.791
  104SOL    HW2  321   0.612   0.571   0.948
  105SOL     OW  322   1.252   1.348   0.388
  105SOL    HW1  323   1.302   1.425   0.428
  105SOL    HW2  324   1.157   1.350   0.420
  106SOL     OW  325   1.582   0.639   0.472
  106SOL    HW1  326   1.551   0.700   0.545
  106SOL    HW2  327   1.632   0.691   0.403
  107SOL     OW  328   0.354   1.510   1.329
  107SOL    HW1  329   0.333   1.466   1.242
  107SOL    HW2  330   0.451   1.536   1.332
  108SOL     OW  331   0.402   0.751   1.598
  108SOL    HW1  332   0.470   0.806   1.551
  108SOL    HW2  333   0.442   0.663   1.625
  109SOL     OW  334   1.587   0.779   1.670
  109SOL    HW1  335   1.495   0.817   1.665
  109SOL    HW2  336   1.647   0.826   1.605
  110SOL     OW  337   1.013   0.105   1.770
  110SOL    HW1  338   1.019   0.190   1.718
  110SOL    HW2  339   1.045   0.029   1.713
  111SOL     OW  340   0.504   0.050   1.740
  111SOL    HW1  341   0.462  -0.007   1.670
  111SOL    HW2  342   0.438   0.119   1.772
  112SOL     OW  343   0.573   0.870   1.029
  112SOL    HW1  344   0.617   0.959   1.020
  112SOL    HW2  345   0.510   0.870   1.106
  113SOL     OW  346   1.360   0.862   1.045
  113SOL    HW1  347   1.285   0.862   0.979
  113SOL    HW2  348   1.397   0.770   1.054
  114SOL     OW  349   1.209   0.525   0.275
  114SOL    HW1  350   1.222   0.441   0.329
  114SOL    HW2  351   1.180   0.599   0.335
  115SOL     OW  352   0.307   0.213   1.231
  115SOL    HW1  353   0.284   0.250   1.321
  115SOL    HW2  354   0.277   0.118   1.225
  116SOL     OW  355   0.037   1.310   1.282
  116SOL    HW1  356   0.090   1.261   1.350
  116SOL    HW2  357   0.059   1.408   1.287
  117SOL     OW  358   0.732   0.634   1.064
  117SOL    HW1  359   0.791   0.608   0.988
  117SOL    HW2  360   0.704   0.730   1.053
  118SOL     OW  361   1.728   0.935   1.854
  118SOL    HW1  362   1.682   0.928   1.765
  118SOL    HW2  363   1.666   0.979   1.920
  119SOL     OW  364   0.307   0.063   0.618
  119SOL    HW1  365   0.296   0.157   0.651
  119SOL    HW2  366   0.302   0.000   0.695
  120SOL     OW  367   1.622   0.367   0.374
  120SOL    HW1  368   1.624   0.291   0.438
  120SOL    HW2  369   1.574   0.444   0.414
  121SOL     OW  370   1.023   0.766   0.966
  121SOL    HW1  371   1.038   0.787   1.062
  121SOL    HW2  372   0.993   0.671   0.957
  122SOL     OW  373   0.980   1.573   1.700
  122SOL    HW1  374   0.960   1.617   1.612
  122SOL    HW2  375   1.019   1.482   1.684
  123SOL     OW  376   1.859   1.518   1.605
  123SOL    HW1  377   1.873   1.545   1.510
  123SOL    HW2  378   1.942   1.540   1.658
  124SOL     OW  379   0.350   0.898   1.804
  124SOL    HW1  380   0.426   0.942   1.852
  124SOL    HW2  381   0.385   0.851   1.722
  125SOL     OW  382   1.540   0.274   0.125
  125SOL    HW1  383   1.479   0.199   0.148
  125SOL    HW2  384   1.562   0.326   0.208
  126SOL     OW  385   1.303   0.838   0.042
  126SOL    HW1  386   1.337   0.745   0.057
  126SOL    HW2  387   1.321   0.865  -0.053
  127SOL     OW  388   1.068   1.333   0.849
  127SOL    HW1  389   1.075   1.249   0.794
  127SOL    HW2  390   1.130   1.402   0.813
  128SOL     OW  391   0.319   0.810   0.949
  128SOL    HW1  392   0.412   0.846   0.954
  128SOL    HW2  393   0.313   0.725   1.001
  129SOL     OW  394   0.339   0.509   1.006
  129SOL    HW1  395   0.287   0.426   0.989
  129SOL    HW2  396   0.416   0.514   0.942
  130SOL     OW  397   1.138   0.380   1.678
  130SOL    HW1  398   1.093   0.443   1.742
  130SOL    HW2  399   1.231   0.411   1.661
  131SOL     OW  400   1.160   0.207   1.477
  131SOL    HW1  401   1.160   0.271   1.554
  131SOL    HW2  402   1.188   0.255   1.394
  132SOL     OW  403   0.008   1.326   0.200
  132SOL    HW1  404  -0.085   1.347   0.169
  132SOL    HW2  405   0.018   1.227   0.213
  133SOL     OW  406   0.088   1.801   0.927
  133SOL    HW1  407   0.046   1.715   0.900
  133SOL    HW2  408   0.182   1.804   0.893
  134SOL     OW  409   0.504   1.568   0.910
  134SOL    HW1  410   0.570   1.642   0.919
  134SOL    HW2  411   0.548   1.489   0.868
  135SOL     OW  412   1.002   0.796   1.238
  135SOL    HW1  413   1.043   0.764   1.324
  135SOL    HW2  414   0.906   0.769   1.235
  136SOL     OW  415   0.040   0.544   1.114
  136SOL    HW1  416   0.125   0.511   1.073
  136SOL    HW2  417   0.053   0.559   1.212
  137SOL     OW  418   0.189   0.520   1.722
  137SOL    HW1  419   0.248   0.480   1.652
  137SOL    HW2  420   0.131   0.591   1.681
  138SOL     OW  421   1.369   0.950   1.660
  138SOL    HW1  422   1.408   1.039   1.680
  138SOL    HW2  423   1.379   0.930   1.563
  139SOL     OW  424   0.815   0.572   0.325
  139SOL    HW1  425   0.822   0.483   0.279
  139SOL    HW2  426   0.721   0.606   0.317
  140SOL     OW  427   1.657   0.604   1.206
  140SOL    HW1  428   1.619   0.535   1.268
  140SOL    HW2  429   1.739   0.568   1.162
  141SOL     OW  430   0.252   1.564   1.744
  141SOL    HW1  431   0.222   1.621   1.820
  141SOL    HW2  432   0.245   1.467   1.770
  142SOL     OW  433   0.671   0.464   1.269
  142SOL    HW1  434   0.637   0.375   1.239
  142SOL    HW2  435   0.697   0.518   1.189
  143SOL     OW  436   0.930   1.678   1.465
  143SOL    HW1  437   0.906   1.660   1.370
  143SOL    HW2  438   0.960   1.772   1.475
  144SOL     OW  439   0.473   0.500   0.191
  144SOL    HW1  440   0.534   0.580   0.195
  144SOL    HW2  441   0.378   0.531   0.198
  145SOL     OW  442   0.159   1.137   1.466
  145SOL    HW1  443   0.181   1.076   1.542
  145SOL    HW2  444   0.169   1.088   1.380
  146SOL     OW  445   1.302   0.855   0.309
  146SOL    HW1  446   1.216   0.824   0.351
  146SOL    HW2  447   1.298   0.841   0.210
  147SOL     OW  448   1.759   1.747   1.154
  147SOL    HW1  449   1.820   1.777   1.081
  147SOL    HW2  450   1.721   1.658   1.132
  148SOL     OW  451   1.252   1.731   1.128
  148SOL    HW1  452   1.336   1.736   1.074
  148SOL    HW2  453   1.229   1.635   1.146
  149SOL     OW  454   0.083   1.258   1.022
  149SOL    HW1  455   0.078   1.257   1.122
  149SOL    HW2  456   0.000   1.217   0.984
  150SOL     OW  457   0.688   1.662   1.716
  150SOL    HW1  458   0.632   1.743   1.725
  150SOL    HW2  459   0.740   1.666   1.630
  151SOL     OW  460   0.903   0.086   0.133
  151SOL    HW1  461   0.954   0.087   0.047
  151SOL    HW2  462   0.959   0.044   0.204
  152SOL     OW  463   1.726   0.135   0.523
  152SOL    HW1  464   1.799   0.118   0.456
  152SOL    HW2  465   1.695   0.048   0.561
  153SOL     OW  466   1.388   1.573   0.477
  153SOL    HW1  467   1.455   1.585   0.403
  153SOL    HW2  468   1.348   1.662   0.500
  154SOL     OW  469   0.130   1.794   1.851
  154SOL    HW1  470   0.089   1.720   1.904
  154SOL    HW2  471   0.194   1.845   1.909
  155SOL     OW  472   1.280   0.927   0.672
  155SOL    HW1  473   1.340   0.846   0.674
  155SOL    HW2  474   1.320   0.996   0.612
  156SOL     OW  475   0.830   1.273   1.422
  156SOL    HW1  476   0.825   1.306   1.517
  156SOL    HW2  477   0.744   1.292   1.376
  157SOL     OW  478   0.672   1.616   0.154
  157SOL    HW1  479   0.681   1.626   0.055
  157SOL    HW2  480   0.632   1.527   0.175
  158SOL     OW  481   1.650   1.720   1.394
  158SOL    HW1  482   1.703   1.730   1.310
  158SOL    HW2  483   1.623   1.810   1.428
  159SOL     OW  484   1.841   0.175   0.963
  159SOL    HW1  485   1.880   0.090   0.927
  159SOL    HW2  486   1.743   0.177   0.944
  160SOL     OW  487   0.263   0.326   0.720
  160SOL    HW1  488   0.184   0.377   0.686
  160SOL    HW2  489   0.254   0.311   0.818
  161SOL     OW  490   1.194   1.612   0.031
  161SOL    HW1  491   1.200   1.519   0.068
  161SOL    HW2  492   1.135   1.612  -0.049
  162SOL     OW  493   0.822   1.002   1.372
  162SOL    HW1  494   0.862   1.001   1.280
  162SOL    HW2  495   0.832   1.094   1.412
  163SOL     OW  496   0.916   0.910   0.291
  163SOL    HW1  497   0.979   0.948   0.223
  163SOL    HW2  498   0.956   0.827   0.330
  164SOL     OW  499   1.504   1.607   0.044
  164SOL    HW1  500   1.412   1.644   0.051
  164SOL    HW2  501   1.542   1.627  -0.046
  165SOL     OW  502   0.372   1.288   1.490
  165SOL    HW1  503   0.359   1.381   1.456
  165SOL    HW2  504   0.288   1.236   1.477
  166SOL     OW  505   1.614   1.292   1.289
  166SOL    HW1  506   1.674   1.295   1.369
  166SOL    HW2  507   1.539   1.356   1.302
  167SOL     OW  508   1.039   1.098   0.696
  167SOL    HW1  509   0.969   1.051   0.750
  167SOL    HW2  510   1.098   1.030   0.653
  168SOL     OW  511   1.014   0.236   0.971
  168SOL    HW1  512   1.006   0.200   0.878
  168SOL    HW2  513   1.012   0.160   1.036
  169SOL     OW  514   0.590   1.487   0.491
  169SOL    HW1  515   0.632   1.429   0.421
  169SOL    HW2  516   0.546   1.566   0.447
  170SOL     OW  517   1.709   0.385   1.381
  170SOL    HW1  518   1.782   0.454   1.385
  170SOL    HW2  519   1.737   0.310   1.322
  171SOL     OW  520   0.255   1.348   0.290
  171SOL    HW1  521   0.159   1.349   0.263
  171SOL    HW2  522   0.267   1.401   0.374
  172SOL     OW  523   0.105   1.013   1.726
  172SOL    HW1  524   0.028   0.980   1.780
  172SOL    HW2  525   0.190   0.983   1.768
  173SOL     OW  526   0.672   0.203   1.489
  173SOL    HW1  527   0.762   0.187   1.449
  173SOL    HW2  528   0.680   0.208   1.588
  174SOL     OW  529   0.075   0.345   0.033
  174SOL    HW1  530  -0.017   0.317   0.004
  174SOL    HW2  531   0.106   0.422  -0.023
  175SOL     OW  532   1.440   0.856   1.398
  175SOL    HW1  533   1.383   0.908   1.335
  175SOL    HW2  534   1.536   0.868   1.374
  176SOL     OW  535   0.072   0.166   0.318
  176SOL    HW1  536   0.055   0.249   0.264
  176SOL    HW2  537   0.162   0.129   0.296
  177SOL     OW  538   1.183   1.335   0.119
  177SOL    HW1  539   1.084   1.324   0.121
  177SOL    HW2  540   1.217   1.350   0.212
  178SOL     OW  541   0.613   0.842   1.431
  178SOL    HW1  542   0.669   0.923   1.414
  178SOL    HW2  543   0.672   0.762   1.434
  179SOL     OW  544   1.493   1.767   0.959
  179SOL    HW1  545   1.526   1.831   0.890
  179SOL    HW2  546   1.559   1.761   1.034
  180SOL     OW  547   0.716   0.565   1.708
  180SOL    HW1  548   0.735   0.630   1.782
  180SOL    HW2  549   0.776   0.485   1.717
  181SOL     OW  550   1.450   1.220   1.633
  181SOL    HW1  551   1.441   1.210   1.732
  181SOL    HW2  552   1.546   1.213   1.607
  182SOL     OW  553   0.390   1.741   1.560
  182SOL    HW1  554   0.299   1.782   1.558
  182SOL    HW2  555   0.383   1.647   1.592
  183SOL     OW  556   1.674   0.883   1.254
  183SOL    HW1  557   1.647   0.794   1.217
  183SOL    HW2  558   1.675   0.951   1.181
  184SOL     OW  559   1.225   0.325   0.449
  184SOL    HW1  560   1.290   0.251   0.438
  184SOL    HW2  561   1.245   0.375   0.533
  185SOL     OW  562   0.594   0.745   0.652
  185SOL    HW1  563   0.644   0.830   0.633
  185SOL    HW2  564   0.506   0.747   0.604
  186SOL     OW  565   1.777   0.342   1.642
  186SOL    HW1  566   1.760   0.373   1.548
  186SOL    HW2  567   1.693   0.305   1.680
  187SOL     OW  568   1.730   0.934   1.517
  187SOL    HW1  569   1.768   1.025   1.532
  187SOL    HW2  570   1.722   0.917   1.418
  188SOL     OW  571   0.859   1.374   0.016
  188SOL    HW1  572   0.813   1.389   0.104
  188SOL    HW2  573   0.903   1.459  -0.014
  189SOL     OW  574   0.661   1.790   0.953
  189SOL    HW1  575   0.615   1.878   0.940
  189SOL    HW2  576   0.760   1.802   0.946
  190SOL     OW  577   0.859   0.956   0.861
  190SOL    HW1  578   0.913   0.887   0.909
  190SOL    HW2  579   0.827   1.025   0.927
  191SOL     OW  580   1.083   0.984   0.087
  191SOL    HW1  581   1.060   1.037   0.005
  191SOL    HW2  582   1.164   0.928   0.068
  192SOL     OW  583   1.861   1.569   0.851
  192SOL    HW1  584   1.790   1.557   0.781
  192SOL    HW2  585   1.862   1.490   0.911
  193SOL     OW  586   0.221   1.314   1.844
  193SOL    HW1  587   0.156   1.241   1.823
  193SOL    HW2  588   0.225   1.328   1.942
  194SOL     OW  589   0.079   1.240   0.653
  194SOL    HW1  590   0.078   1.193   0.741
  194SOL    HW2  591   0.161   1.212   0.602
  195SOL     OW  592   0.672   1.391   1.624
  195SOL    HW1  593   0.594   1.341   1.662
  195SOL    HW2  594   0.669   1.486   1.655
  196SOL     OW  595   1.824   0.192   1.227
  196SOL    HW1  596   1.820   0.102   1.271
  196SOL    HW2  597   1.827   0.181   1.128
  197SOL     OW  598   0.428   0.424   0.520
  197SOL    HW1  599   0.458   0.352   0.458
  197SOL    HW2  600   0.389   0.384   0.603
  198SOL     OW  601   1.705   1.487   1.104
  198SOL    HW1  602   1.612   1.462   1.077
  198SOL    HW2  603   1.731   1.437   1.186
  199SOL     OW  604   0.317   0.547   1.280
  199SOL    HW1  605   0.355   0.488   1.352
  199SOL    HW2  606   0.357   0.521   1.192
  200SOL     OW  607   0.812   1.586   0.687
  200SOL    HW1  608   0.844   1.596   0.593
  200SOL    HW2  609   0.733   1.524   0.689
  201SOL     OW  610   1.424   0.214   1.112
  201SOL    HW1  611   1.476   0.149   1.167
  201SOL    HW2  612   1.375   0.277   1.173
  202SOL     OW  613   1.001   0.034   1.154
  202SOL    HW1  614   0.938  -0.038   1.123
  202SOL    HW2  615   1.094  -0.002   1.154
  203SOL     OW  616   0.770   1.330   0.301
  203SOL    HW1  617   0.724   1.243   0.318
  203SOL    HW2  618   0.861   1.327   0.342
  204SOL     OW  619   0.618   1.567   1.284
  204SOL    HW1  620   0.613   1.649   1.341
  204SOL    HW2  621   0.707   1.564   1.239
  205SOL     OW  622   1.352   0.052   0.168
  205SOL    HW1  623   1.387   0.011   0.084
  205SOL    HW2  624   1.262   0.014   0.188
  206SOL     OW  625   1.300   0.453   0.691
  206SOL    HW1  626   1.241   0.533   0.695
  206SOL    HW2  627   1.315   0.418   0.784
  207SOL     OW  628   1.593   0.221   0.882
  207SOL    HW1  629   1.509   0.220   0.936
  207SOL    HW2  630   1.595   0.304   0.826
  208SOL     OW  631   0.039   1.077   0.300
  208SOL    HW1  632   0.138   1.066   0.291
  208SOL    HW2  633  -0.001   0.991   0.332
  209SOL     OW  634   0.875   1.646   0.337
  209SOL    HW1  635   0.798   1.611   0.283
  209SOL    HW2  636   0.843   1.717   0.399
  210SOL     OW  637   0.230   0.628   1.975
  210SOL    HW1  638   0.137   0.626   2.012
  210SOL    HW2  639   0.231   0.589   1.883
  211SOL     OW  640   1.755   0.607   2.093
  211SOL    HW1  641   1.743   0.594   1.994
  211SOL    HW2  642   1.725   0.526   2.142
  212SOL     OW  643   0.231   1.713   2.345
  212SOL    HW1  644   0.265   1.790   2.399
  212SOL    HW2  645   0.275   1.713   2.255
  213SOL     OW  646   0.230   1.434   2.400
  213SOL    HW1  647   0.204   1.530   2.400
  213SOL    HW2  648   0.159   1.380   2.445
  214SOL     OW  649   0.606   0.964   1.985
  214SOL    HW1  650   0.613   1.048   1.931
  214SOL    HW2  651   0.652   0.977   2.073
  215SOL     OW  652   0.122   0.643   2.425
  215SOL    HW1  653   0.077   0.555   2.442
  215SOL    HW2  654   0.121   0.697   2.509
  216SOL     OW  655   1.842   1.767   2.221
  216SOL    HW1  656   1.896   1.738   2.301
  216SOL    HW2  657   1.872   1.857   2.192
  217SOL     OW  658   0.027   1.596   1.979
  217SOL    HW1  659   0.008   1.500   2.000
  217SOL    HW2  660  -0.006   1.654   2.054
  218SOL     OW  661   1.689   0.922   2.474
  218SOL    HW1  662   1.784   0.893   2.482
  218SOL    HW2  663   1.681   0.987   2.399
  219SOL     OW  664   1.641   1.108   2.294
  219SOL    HW1  665   1.727   1.110   2.242
  219SOL    HW2  666   1.655   1.155   2.382
  220SOL     OW  667   0.613   1.365   2.588
  220SOL    HW1  668   0.564   1.278   2.597
  220SOL    HW2  669   0.590   1.408   2.501
  221SOL     OW  670   0.809   0.004   2.364
  221SOL    HW1  671   0.849   0.095   2.355
  221SOL    HW2  672   0.709   0.012   2.370
  222SOL     OW  673   1.525   0.999   2.052
  222SOL    HW1  674   1.462   0.923   2.065
  222SOL    HW2  675   1.573   1.017   2.138
  223SOL     OW  676   1.466   1.417   2.815
  223SOL    HW1  677   1.407   1.423   2.895
  223SOL    HW2  678   1.451   1.329   2.769
  224SOL     OW  679   0.598   0.729   2.132
  224SOL    HW1  680   0.622   0.798   2.064
  224SOL    HW2  681   0.520   0.762   2.186
  225SOL     OW  682   1.576   1.662   2.169
  225SOL    HW1  683   1.665   1.708   2.172
  225SOL    HW2  684   1.555   1.638   2.074
  226SOL     OW  685   1.041   0.701   2.291
  226SOL    HW1  686   1.067   0.697   2.387
  226SOL    HW2  687   0.956   0.650   2.277
  227SOL     OW  688   0.076   0.811   2.651
  227SOL    HW1  689   0.175   0.799   2.660
  227SOL    HW2  690   0.052   0.906   2.672
  228SOL     OW  691   0.865   0.348   2.057
  228SOL    HW1  692   0.924   0.411   2.008
  228SOL    HW2  693   0.884   0.254   2.028
  229SOL     OW  694   1.362   1.144   2.407
  229SOL    HW1  695   1.445   1.115   2.359
  229SOL    HW2  696   1.313   1.211   2.351
  230SOL     OW  697   1.008   1.456   2.339
  230SOL    HW1  698   0.962   1.528   2.287
  230SOL    HW2  699   1.004   1.476   2.437
  231SOL     OW  700   0.351   1.801   2.715
  231SOL    HW1  701   0.401   1.715   2.721
  231SOL    HW2  702   0.416   1.878   2.712
  232SOL     OW  703   0.321   0.943   2.104
  232SOL    HW1  704   0.403   0.982   2.062
  232SOL    HW2  705   0.294   0.861   2.055
  233SOL     OW  706   1.111   1.776   2.099
  233SOL    HW1  707   1.051   1.714   2.149
  233SOL    HW2  708   1.142   1.732   2.014
  234SOL     OW  709   1.632   1.377   1.943
  234SOL    HW1  710   1.600   1.471   1.933
  234SOL    HW2  711   1.556   1.314   1.931
  235SOL     OW  712   0.464   1.743   2.185
  235SOL    HW1  713   0.497   1.782   2.271
  235SOL    HW2  714   0.540   1.736   2.120
  236SOL     OW  715   1.400   0.107   2.288
  236SOL    HW1  716   1.376   0.070   2.198
  236SOL    HW2  717   1.499   0.123   2.292
  237SOL     OW  718   0.382   0.700   2.342
  237SOL    HW1  719   0.427   0.610   2.339
  237SOL    HW2  720   0.288   0.689   2.375
  238SOL     OW  721   0.614   0.122   1.979
  238SOL    HW1  722   0.712   0.100   1.986
  238SOL    HW2  723   0.583   0.105   1.886
  239SOL     OW  724   0.539   0.064   2.374
  239SOL    HW1  725   0.458   0.065   2.432
  239SOL    HW2  726   0.542   0.147   2.319
  240SOL     OW  727   1.434   1.188   1.903
  240SOL    HW1  728   1.466   1.112   1.960
  240SOL    HW2  729   1.342   1.215   1.933
  241SOL     OW  730   0.297   0.035   2.033
  241SOL    HW1  731   0.346   0.119   2.012
  241SOL    HW2  732   0.359  -0.030   2.078
  242SOL     OW  733   0.935   0.236   2.342
  242SOL    HW1  734   0.887   0.277   2.264
  242SOL    HW2  735   1.034   0.234   2.323
  243SOL     OW  736   0.459   1.152   2.603
  243SOL    HW1  737   0.388   1.125   2.668
  243SOL    HW2  738   0.433   1.124   2.510
  244SOL     OW  739   1.271   1.797   2.453
  244SOL    HW1  740   1.315   1.861   2.389
  244SOL    HW2  741   1.221   1.849   2.523
  245SOL     OW  742   1.032   0.549   1.878
  245SOL    HW1  743   0.991   0.631   1.839
  245SOL    HW2  744   1.096   0.575   1.951
  246SOL     OW  745   0.866   0.454   2.504
  246SOL    HW1  746   0.834   0.526   2.442
  246SOL    HW2  747   0.890   0.373   2.451
  247SOL     OW  748   1.857   0.833   2.239
  247SOL    HW1  749   1.899   0.769   2.303
  247SOL    HW2  750   1.819   0.782   2.161
  248SOL     OW  751   0.488   1.385   2.036
  248SOL    HW1  752   0.401   1.370   2.083
  248SOL    HW2  753   0.471   1.411   1.941
  249SOL     OW  754   1.390   0.575   1.940
  249SOL    HW1  755   1.336   0.554   2.021
  249SOL    HW2  756   1.481   0.534   1.949
  250SOL     OW  757   0.527   0.256   2.190
  250SOL    HW1  758   0.554   0.197   2.115
  250SOL    HW2  759   0.527   0.351   2.159
  251SOL     OW  760   0.705   1.050   2.230
  251SOL    HW1  761   0.691   1.057   2.329
  251SOL    HW2  762   0.789   0.999   2.212
  252SOL     OW  763   0.367   1.100   2.363
  252SOL    HW1  764   0.360   1.183   2.307
  252SOL    HW2  765   0.371   1.020   2.303
  253SOL     OW  766   1.252   1.348   2.250
  253SOL    HW1  767   1.302   1.425   2.290
  253SOL    HW2  768   1.157   1.350   2.282
  254SOL     OW  769   1.582   0.639   2.334
  254SOL    HW1  770   1.551   0.700   2.407
  254SOL    HW2  771   1.632   0.691   2.265
  255SOL     OW  772   1.209   0.525   2.137
  255SOL    HW1  773   1.222   0.441   2.191
  255SOL    HW2  774   1.180   0.599   2.197
  256SOL     OW  775   0.307   0.063   2.480
  256SOL    HW1  776   0.296   0.157   2.513
  256SOL    HW2  777   0.302   0.000   2.557
  257SOL     OW  778   1.622   0.367   2.236
  257SOL    HW1  779   1.624   0.291   2.300
  257SOL    HW2  780   1.574   0.444   2.276
  258SOL     OW  781   1.540   0.274   1.987
  258SOL    HW1  782   1.479   0.199   2.010
  258SOL    HW2  783   1.562   0.326   2.070
  259SOL     OW  784   1.303   0.838   1.904
  259SOL    HW1  785   1.337   0.745   1.919
  259SOL    HW2  786   1.321   0.865   1.809
  260SOL     OW  787   0.008   1.326   2.062
  260SOL    HW1  788  -0.085   1.347   2.031
  260SOL    HW2  789   0.018   1.227   2.075
  261SOL     OW  790   0.815   0.572   2.187
  261SOL    HW1  791   0.822   0.483   2.141
  261SOL    HW2  792   0.721   0.606   2.179
  262SOL     OW  793   0.473   0.500   2.053
  262SOL    HW1  794   0.534   0.580   2.057
  262SOL    HW2  795   0.378   0.531   2.060
  263SOL     OW  796   1.302   0.855   2.171
  263SOL    HW1  797   1.216   0.824   2.213
  263SOL    HW2  798   1.298   0.841   2.072
  264SOL     OW  799   1.726   0.135   2.385
  264SOL    HW1  800   1.799   0.118   2.318
  264SOL    HW2  801   1.695   0.048   2.423
  265SOL     OW  802   1.388   1.573   2.339
  265SOL    HW1  803   1.455   1.585   2.265
  265SOL    HW2  804   1.348   1.662   2.362
  266SOL     OW  805   0.672   1.616   2.016
  266SOL    HW1  806   0.681   1.626   1.917
  266SOL    HW2  807   0.632   1.527   2.037
  267SOL     OW  808   1.841   0.175   2.825
  267SOL    HW1  809   1.880   0.090   2.789
  267SOL    HW2  810   1.743   0.177   2.806
  268SOL     OW  811   1.194   1.612   1.893
  268SOL    HW1  812   1.200   1.519   1.930
  268SOL    HW2  813   1.135   1.612   1.813
  269SOL     OW  814   0.916   0.910   2.153
  269SOL    HW1  815   0.979   0.948   2.085
  269SOL    HW2  816   0.956   0.827   2.192
  270SOL     OW  817   1.504   1.607   1.906
  270SOL    HW1  818   1.412   1.644   1.913
  270SOL    HW2  819   1.542   1.627   1.816
  271SOL     OW  820   0.590   1.487   2.353
  271SOL    HW1  821   0.632   1.429   2.283
  271SOL    HW2  822   0.546   1.566   2.309
  272SOL     OW  823   0.255   1.348   2.152
  272SOL    HW1  824   0.159   1.349   2.125
  272SOL    HW2  825   0.267   1.401   2.236
  273SOL     OW  826   0.075   0.345   1.895
  273SOL    HW1  827  -0.017   0.317   1.866
  273SOL    HW2  828   0.106   0.422   1.839
  274SOL     OW  829   0.072   0.166   2.180
  274SOL    HW1  830   0.055   0.249   2.126
  274SOL    HW2  831   0.162   0.129   2.158
  275SOL     OW  832   1.183   1.335   1.981
  275SOL    HW1  833   1.084   1.324   1.983
  275SOL    HW2  834   1.217   1.350   2.074
  276SOL     OW  835   1.225   0.325   2.311
  276SOL    HW1  836   1.290   0.251   2.300
  276SOL    HW2  837   1.245   0.375   2.395
  277SOL     OW  838   0.594   0.745   2.514
  277SOL    HW1  839   0.644   0.830   2.495
  277SOL    HW2  840   0.506   0.747   2.466
  278SOL     OW  841   0.859   1.374   1.878
  278SOL    HW1  842   0.813   1.389   1.966
  278SOL    HW2  843   0.903   1.459   1.848
  279SOL     OW  844   1.083   0.984   1.949
  279SOL    HW1  845   1.060   1.037   1.867
  279SOL    HW2  846   1.164   0.928   1.930
  280SOL     OW  847   0.079   1.240   2.515
  280SOL    HW1  848   0.078   1.193   2.603
  280SOL    HW2  849   0.161   1.212   2.464
  281SOL     OW  850   0.428   0.424   2.382
  281SOL    HW1  851   0.458   0.352   2.320
  281SOL    HW2  852   0.389   0.384   2.465
  282SOL     OW  853   0.770   1.330   2.163
  282SOL    HW1  854   0.724   1.243   2.180
  282SOL    HW2  855   0.861   1.327   2.204
  283SOL     OW  856   1.352   0.052   2.030
  283SOL    HW1  857   1.387   0.011   1.946
  283SOL    HW2  858   1.262   0.014   2.050
  284SOL     OW  859   1.300   0.453   2.553
  284SOL    HW1  860   1.241   0.533   2.557
  284SOL    HW2  861   1.315   0.418   2.646
  285SOL     OW  862   0.039   1.077   2.162
  285SOL    HW1  863   0.138   1.066   2.153
  285SOL    HW2  864  -0.001   0.991   2.194
  286SOL     OW  865   0.875   1.646   2.199
  286SOL    HW1  866   0.798   1.611   2.145
  286SOL    HW2  867   0.843   1.717   2.261
  287SOL     OW  868   0.225   2.137   0.996
  287SOL    HW1  869   0.260   2.120   1.088
  287SOL    HW2  870   0.137   2.092   0.984
  288SOL     OW  871   0.019   2.230   0.647
  288SOL    HW1  872  -0.063   2.273   0.686
  288SOL    HW2  873  -0.009   2.157   0.584
  289SOL     OW  874   1.755   2.469   0.231
  289SOL    HW1  875   1.743   2.456   0.132
  289SOL    HW2  876   1.725   2.388   0.280
  290SOL     OW  877   0.438   2.254   1.499
  290SOL    HW1  878   0.520   2.198   1.508
  290SOL    HW2  879   0.357   2.196   1.503
  291SOL     OW  880   1.603   2.309   0.737
  291SOL    HW1  881   1.529   2.355   0.687
  291SOL    HW2  882   1.654   2.377   0.790
  292SOL     OW  883   1.594   1.976   1.480
  292SOL    HW1  884   1.576   2.043   1.408
  292SOL    HW2  885   1.591   2.022   1.569
  293SOL     OW  886   0.122   2.505   0.563
  293SOL    HW1  887   0.077   2.417   0.580
  293SOL    HW2  888   0.121   2.559   0.647
  294SOL     OW  889   0.809   1.866   0.502
  294SOL    HW1  890   0.849   1.957   0.493
  294SOL    HW2  891   0.709   1.874   0.508
  295SOL     OW  892   0.317   2.113   1.801
  295SOL    HW1  893   0.388   2.184   1.807
  295SOL    HW2  894   0.229   2.152   1.829
  296SOL     OW  895   1.281   2.207   0.944
  296SOL    HW1  896   1.195   2.157   0.931
  296SOL    HW2  897   1.343   2.153   1.000
  297SOL     OW  898   0.807   2.467   1.465
  297SOL    HW1  899   0.760   2.464   1.554
  297SOL    HW2  900   0.756   2.412   1.399
  298SOL     OW  901   1.394   2.331   1.674
  298SOL    HW1  902   1.374   2.374   1.762
  298SOL    HW2  903   1.472   2.269   1.683
  299SOL     OW  904   0.991   2.272   1.242
  299SOL    HW1  905   0.914   2.306   1.296
  299SOL    HW2  906   0.957   2.221   1.163
  300SOL     OW  907   1.041   2.563   0.429
  300SOL    HW1  908   1.067   2.559   0.525
  300SOL    HW2  909   0.956   2.512   0.415
  301SOL     OW  910   0.076   2.673   0.789
  301SOL    HW1  911   0.175   2.661   0.798
  301SOL    HW2  912   0.052   2.768   0.810
  302SOL     OW  913   0.865   2.210   0.195
  302SOL    HW1  914   0.924   2.273   0.146
  302SOL    HW2  915   0.884   2.116   0.166
  303SOL     OW  916   1.719   2.447   1.831
  303SOL    HW1  917   1.693   2.536   1.795
  303SOL    HW2  918   1.717   2.379   1.758
  304SOL     OW  919   0.550   2.058   0.885
  304SOL    HW1  920   0.545   2.053   0.985
  304SOL    HW2  921   0.552   2.154   0.856
  305SOL     OW  922   1.458   2.597   0.728
  305SOL    HW1  923   1.453   2.532   0.803
  305SOL    HW2  924   1.538   2.656   0.741
  306SOL     OW  925   0.202   2.147   1.498
  306SOL    HW1  926   0.122   2.207   1.485
  306SOL    HW2  927   0.192   2.098   1.584
  307SOL     OW  928   1.400   1.969   0.426
  307SOL    HW1  929   1.376   1.932   0.336
  307SOL    HW2  930   1.499   1.985   0.430
  308SOL     OW  931   1.547   2.084   1.729
  308SOL    HW1  932   1.542   2.121   1.821
  308SOL    HW2  933   1.475   2.015   1.717
  309SOL     OW  934   0.614   1.984   0.117
  309SOL    HW1  935   0.712   1.962   0.124
  309SOL    HW2  936   0.583   1.967   0.024
  310SOL     OW  937   0.781   2.126   1.749
  310SOL    HW1  938   0.848   2.065   1.792
  310SOL    HW2  939   0.708   2.145   1.814
  311SOL     OW  940   1.351   2.452   1.433
  311SOL    HW1  941   1.379   2.409   1.518
  311SOL    HW2  942   1.376   2.548   1.434
  312SOL     OW  943   0.922   2.365   0.899
  312SOL    HW1  944   0.897   2.356   0.803
  312SOL    HW2  945   0.970   2.283   0.930
  313SOL     OW  946   0.539   1.926   0.512
  313SOL    HW1  947   0.458   1.927   0.570
  313SOL    HW2  948   0.542   2.009   0.457
  314SOL     OW  949   0.935   2.098   0.480
  314SOL    HW1  950   0.887   2.139   0.402
  314SOL    HW2  951   1.034   2.096   0.461
  315SOL     OW  952   1.076   2.545   1.464
  315SOL    HW1  953   0.996   2.484   1.467
  315SOL    HW2  954   1.157   2.492   1.440
  316SOL     OW  955   1.032   2.411   0.016
  316SOL    HW1  956   0.991   2.493  -0.023
  316SOL    HW2  957   1.096   2.437   0.089
  317SOL     OW  958   0.078   2.418   1.386
  317SOL    HW1  959   0.170   2.417   1.345
  317SOL    HW2  960   0.072   2.492   1.453
  318SOL     OW  961   0.561   2.084   1.147
  318SOL    HW1  962   0.599   2.000   1.184
  318SOL    HW2  963   0.473   2.103   1.191
  319SOL     OW  964   0.866   2.316   0.642
  319SOL    HW1  965   0.834   2.388   0.580
  319SOL    HW2  966   0.890   2.235   0.589
  320SOL     OW  967   1.017   1.901   0.753
  320SOL    HW1  968   0.945   1.906   0.684
  320SOL    HW2  969   0.993   1.832   0.822
  321SOL     OW  970   1.466   2.452   0.992
  321SOL    HW1  971   1.436   2.357   0.999
  321SOL    HW2  972   1.539   2.468   1.058
  322SOL     OW  973   0.527   2.118   0.328
  322SOL    HW1  974   0.554   2.059   0.253
  322SOL    HW2  975   0.527   2.213   0.297
  323SOL     OW  976   0.915   1.951   1.402
  323SOL    HW1  977   0.940   1.931   1.307
  323SOL    HW2  978   0.987   2.007   1.444
  324SOL     OW  979   1.274   2.248   1.262
  324SOL    HW1  980   1.295   2.322   1.326
  324SOL    HW2  981   1.185   2.265   1.219
  325SOL     OW  982   0.566   2.399   0.865
  325SOL    HW1  983   0.578   2.465   0.791
  325SOL    HW2  984   0.612   2.433   0.948
  326SOL     OW  985   1.582   2.501   0.472
  326SOL    HW1  986   1.551   2.562   0.545
  326SOL    HW2  987   1.632   2.553   0.403
  327SOL     OW  988   1.013   1.967   1.770
  327SOL    HW1  989   1.019   2.052   1.718
  327SOL    HW2  990   1.045   1.891   1.713
  328SOL     OW  991   0.504   1.912   1.740
  328SOL    HW1  992   0.462   1.855   1.670
  328SOL    HW2  993   0.438   1.981   1.772
  329SOL     OW  994   1.209   2.387   0.275
  329SOL    HW1  995   1.222   2.303   0.329
  329SOL    HW2  996   1.180   2.461   0.335
  330SOL     OW  997   0.307   2.075   1.231
  330SOL    HW1  998   0.284   2.112   1.321
  330SOL    HW2  999   0.277   1.980   1.225
  331SOL     OW 1000   0.732   2.496   1.064
  331SOL    HW1 1001   0.791   2.470   0.988
  331SOL    HW2 1002   0.704   2.592   1.053
  332SOL     OW 1003   0.307   1.925   0.618
  332SOL    HW1 1004   0.296   2.019   0.651
  332SOL    HW2 1005   0.302   1.862   0.695
  333SOL     OW 1006   1.622   2.229   0.374
  333SOL    HW1 1007   1.624   2.153   0.438
  333SOL    HW2 1008   1.574   2.306   0.414
  334SOL     OW 1009   1.540   2.136   0.125
  334SOL    HW1 1010   1.479   2.061   0.148
  334SOL    HW2 1011   1.562   2.188   0.208
  335SOL     OW 1012   0.319   2.672   0.949
  335SOL    HW1 1013   0.412   2.708   0.954
  335SOL    HW2 1014   0.313   2.587   1.001
  336SOL     OW 1015   0.339   2.371   1.006
  336SOL    HW1 1016   0.287   2.288   0.989
  336SOL    HW2 1017   0.416   2.376   0.942
  337SOL     OW 1018   1.138   2.242   1.678
  337SOL    HW1 1019   1.093   2.305   1.742
  337SOL    HW2 1020   1.231   2.273   1.661
  338SOL     OW 1021   1.160   2.069   1.477
  338SOL    HW1 1022   1.160   2.133   1.554
  338SOL    HW2 1023   1.188   2.117   1.394
  339SOL     OW 1024   0.040   2.406   1.114
  339SOL    HW1 1025   0.125   2.373   1.073
  339SOL    HW2 1026   0.053   2.421   1.212
  340SOL     OW 1027   0.189   2.382   1.722
  340SOL    HW1 1028   0.248   2.342   1.652
  340SOL    HW2 1029   0.131   2.453   1.681
  341SOL     OW 1030   0.815   2.434   0.325
  341SOL    HW1 1031   0.822   2.345   0.279
  341SOL    HW2 1032   0.721   2.468   0.317
  342SOL     OW 1033   1.657   2.466   1.206
  342SOL    HW1 1034   1.619   2.397   1.268
  342SOL    HW2 1035   1.739   2.430   1.162
  343SOL     OW 1036   0.671   2.326   1.269
  343SOL    HW1 1037   0.637   2.237   1.239
  343SOL    HW2 1038   0.697   2.380   1.189
  344SOL     OW 1039   0.473   2.362   0.191
  344SOL    HW1 1040   0.534   2.442   0.195
  344SOL    HW2 1041   0.378   2.393   0.198
  345SOL     OW 1042   0.903   1.948   0.133
  345SOL    HW1 1043   0.954   1.949   0.047
  345SOL    HW2 1044   0.959   1.906   0.204
  346SOL     OW 1045   1.726   1.997   0.523
  346SOL    HW1 1046   1.799   1.980   0.456
  346SOL    HW2 1047   1.695   1.910   0.561
  347SOL     OW 1048   1.841   2.037   0.963
  347SOL    HW1 1049   1.880   1.952   0.927
  347SOL    HW2 1050   1.743   2.039   0.944
  348SOL     OW 1051   0.263   2.188   0.720
  348SOL    HW1 1052   0.184   2.239   0.686
  348SOL    HW2 1053   0.254   2.173   0.818
  349SOL     OW 1054   1.014   2.098   0.971
  349SOL    HW1 1055   1.006   2.062   0.878
  349SOL    HW2 1056   1.012   2.022   1.036
  350SOL     OW 1057   1.709   2.247   1.381
  350SOL    HW1 1058   1.782   2.316   1.385
  350SOL    HW2 1059   1.737   2.172   1.322
  351SOL     OW 1060   0.672   2.065   1.489
  351SOL    HW1 1061   0.762   2.049   1.449
  351SOL    HW2 1062   0.680   2.070   1.588
  352SOL     OW 1063   0.075   2.207   0.033
  352SOL    HW1 1064  -0.017   2.179   0.004
  352SOL    HW2 1065   0.106   2.284  -0.023
  353SOL     OW 1066   0.072   2.028   0.318
  353SOL    HW1 1067   0.055   2.111   0.264
  353SOL    HW2 1068   0.162   1.991   0.296
  354SOL     OW 1069   0.716   2.427   1.708
  354SOL    HW1 1070   0.735   2.492   1.782
  354SOL    HW2 1071   0.776   2.347   1.717
  355SOL     OW 1072   1.225   2.187   0.449
  355SOL    HW1 1073   1.290   2.113   0.438
  355SOL    HW2 1074   1.245   2.237   0.533
  356SOL     OW 1075   1.777   2.204   1.642
  356SOL    HW1 1076   1.760   2.235   1.548
  356SOL    HW2 1077   1.693   2.167   1.680
  357SOL     OW 1078   1.083   2.846   0.087
  357SOL    HW1 1079   1.060   2.899   0.005
  357SOL    HW2 1080   1.164   2.790   0.068
  358SOL     OW 1081   1.824   2.054   1.227
  358SOL    HW1 1082   1.820   1.964   1.271
  358SOL    HW2 1083   1.827   2.043   1.128
  359SOL     OW 1084   0.428   2.286   0.520
  359SOL    HW1 1085   0.458   2.214   0.458
  359SOL    HW2 1086   0.389   2.246   0.603
  360SOL     OW 1087   0.317   2.409   1.280
  360SOL    HW1 1088   0.355   2.350   1.352
  360SOL    HW2 1089   0.357   2.383   1.192
  361SOL     OW 1090   1.424   2.076   1.112
  361SOL    HW1 1091   1.476   2.011   1.167
  361SOL    HW2 1092   1.375   2.139   1.173
  362SOL     OW 1093   1.001   1.896   1.154
  362SOL    HW1 1094   0.938   1.824   1.123
  362SOL    HW2 1095   1.094   1.860   1.154
  363SOL     OW 1096   1.352   1.914   0.168
  363SOL    HW1 1097   1.387   1.873   0.084
  363SOL    HW2 1098   1.262   1.876   0.188
  364SOL     OW 1099   1.300   2.315   0.691
  364SOL    HW1 1100   1.241   2.395   0.695
  364SOL    HW2 1101   1.315   2.280   0.784
  365SOL     OW 1102   1.593   2.083   0.882
  365SOL    HW1 1103   1.509   2.082   0.936
  365SOL    HW2 1104   1.595   2.166   0.826
  366SOL     OW 1105   1.755   2.469   2.093
  366SOL    HW1 1106   1.743   2.456   1.994
  366SOL    HW2 1107   1.725   2.388   2.142
  367SOL     OW 1108   0.122   2.505   2.425
  367SOL    HW1 1109   0.077   2.417   2.442
  367SOL    HW2 1110   0.121   2.559   2.509
  368SOL     OW 1111   0.809   1.866   2.364
  368SOL    HW1 1112   0.849   1.957   2.355
  368SOL    HW2 1113   0.709   1.874   2.370
  369SOL     OW 1114   1.041   2.563   2.291
  369SOL    HW1 1115   1.067   2.559   2.387
  369SOL    HW2 1116   0.956   2.512   2.277
  370SOL     OW 1117   0.076   2.673   2.651
  370SOL    HW1 1118   0.175   2.661   2.660
  370SOL    HW2 1119   0.052   2.768   2.672
  371SOL     OW 1120   0.865   2.210   2.057
  371SOL    HW1 1121   0.924   2.273   2.008
  371SOL    HW2 1122   0.884   2.116   2.028
  372SOL     OW 1123   1.400   1.969   2.288
  372SOL    HW1 1124   1.376   1.932   2.198
  372SOL    HW2 1125   1.499   1.985   2.292
  373SOL     OW 1126   0.614   1.984   1.979
  373SOL    HW1 1127   0.712   1.962   1.986
  373SOL    HW2 1128   0.583   1.967   1.886
  374SOL     OW 1129   0.539   1.926   2.374
  374SOL    HW1 1130   0.458   1.927   2.432
  374SOL    HW2 1131   0.542   2.009   2.319
  375SOL     OW 1132   0.297   1.897   2.033
  375SOL    HW1 1133   0.346   1.981   2.012
  375SOL    HW2 1134   0.359   1.832   2.078
  376SOL     OW 1135   0.935   2.098   2.342
  376SOL    HW1 1136   0.887   2.139   2.264
  376SOL    HW2 1137   1.034   2.096   2.323
  377SOL     OW 1138   1.032   2.411   1.878
  377SOL    HW1 1139   0.991   2.493   1.839
  377SOL    HW2 1140   1.096   2.437   1.951
  378SOL     OW 1141   0.866   2.316   2.504
  378SOL    HW1 1142   0.834   2.388   2.442
  378SOL    HW2 1143   0.890   2.235   2.451
  379SOL     OW 1144   0.527   2.118   2.190
  379SOL    HW1 1145   0.554   2.059   2.115
  379SOL    HW2 1146   0.527   2.213   2.159
  380SOL     OW 1147   1.582   2.501   2.334
  380SOL    HW1 1148   1.551   2.562   2.407
  380SOL    HW2 1149   1.632   2.553   2.265
  381SOL     OW 1150   1.209   2.387   2.137
  381SOL    HW1 1151   1.222   2.303   2.191
  381SOL    HW2 1152   1.180   2.461   2.197
  382SOL     OW 1153   0.307   1.925   2.480
  382SOL    HW1 1154   0.296   2.019   2.513
  382SOL    HW2 1155   0.302   1.862   2.557
  383SOL     OW 1156   1.622   2.229   2.236
  383SOL    HW1 1157   1.624   2.153   2.300
  383SOL    HW2 1158   1.574   2.306   2.276
  384SOL     OW 1159   1.540   2.136   1.987
  384SOL    HW1 1160   1.479   2.061   2.010
  384SOL    HW2 1161   1.562   2.188   2.070
  385SOL     OW 1162   0.815   2.434   2.187
  385SOL    HW1 1163   0.822   2.345   2.141
  385SOL    HW2 1164   0.721   2.468   2.179
  386SOL     OW 1165   0.473   2.362   2.053
  386SOL    HW1 1166   0.534   2.442   2.057
  386SOL    HW2 1167   0.378   2.393   2.060
  387SOL     OW 1168   1.726   1.997   2.385
  387SOL    HW1 1169   1.799   1.980   2.318
  387SOL    HW2 1170   1.695   1.910   2.423
  388SOL     OW 1171   1.841   2.037   2.825
  388SOL    HW1 1172   1.880   1.952   2.789
  388SOL    HW2 1173   1.743   2.039   2.806
  389SOL     OW 1174   0.075   2.207   1.895
  389SOL    HW1 1175  -0.017   2.179   1.866
  389SOL    HW2 1176   0.106   2.284   1.839
  390SOL     OW 1177   0.072   2.028   2.180
  390SOL    HW1 1178   0.055   2.111   2.126
  390SOL    HW2 1179   0.162   1.991   2.158
  391SOL     OW 1180   1.225   2.187   2.311
  391SOL    HW1 1181   1.290   2.113   2.300
  391SOL    HW2 1182   1.245   2.237   2.395
  392SOL     OW 1183   1.083   2.846   1.949
  392SOL    HW1 1184   1.060   2.899   1.867
  392SOL    HW2 1185   1.164   2.790   1.930
  393SOL     OW 1186   0.428   2.286   2.382
  393SOL    HW1 1187   0.458   2.214   2.320
  393SOL    HW2 1188   0.389   2.246   2.465
  394SOL     OW 1189   1.352   1.914   2.030
  394SOL    HW1 1190   1.387   1.873   1.946
  394SOL    HW2 1191   1.262   1.876   2.050
  395SOL     OW 1192   1.300   2.315   2.553
  395SOL    HW1 1193   1.241   2.395   2.557
  395SOL    HW2 1194   1.315   2.280   2.646
  396SOL     OW 1195   2.092   0.628   0.113
  396SOL    HW1 1196   1.999   0.626   0.150
  396SOL    HW2 1197   2.093   0.589   0.021
  397SOL     OW 1198   2.087   0.275   0.996
  397SOL    HW1 1199   2.122   0.258   1.088
  397SOL    HW2 1200   1.999   0.230   0.984
  398SOL     OW 1201   1.881   0.368   0.647
  398SOL    HW1 1202   1.799   0.411   0.686
  398SOL    HW2 1203   1.853   0.295   0.584
  399SOL     OW 1204   2.431   1.275   1.165
  399SOL    HW1 1205   2.338   1.268   1.128
  399SOL    HW2 1206   2.442   1.364   1.209
  400SOL     OW 1207   2.712   0.798   1.823
  400SOL    HW1 1208   2.708   0.874   1.888
  400SOL    HW2 1209   2.734   0.834   1.732
  401SOL     OW 1210   2.197   1.435   1.061
  401SOL    HW1 1211   2.119   1.404   1.008
  401SOL    HW2 1212   2.255   1.493   1.004
  402SOL     OW 1213   2.300   0.392   1.499
  402SOL    HW1 1214   2.382   0.336   1.508
  402SOL    HW2 1215   2.219   0.334   1.503
  403SOL     OW 1216   2.093   1.713   0.483
  403SOL    HW1 1217   2.127   1.790   0.537
  403SOL    HW2 1218   2.137   1.713   0.393
  404SOL     OW 1219   2.092   1.434   0.538
  404SOL    HW1 1220   2.066   1.530   0.538
  404SOL    HW2 1221   2.021   1.380   0.583
  405SOL     OW 1222   2.102   1.091   0.886
  405SOL    HW1 1223   2.116   1.007   0.938
  405SOL    HW2 1224   2.047   1.155   0.941
  406SOL     OW 1225   1.984   0.643   0.563
  406SOL    HW1 1226   1.939   0.555   0.580
  406SOL    HW2 1227   1.983   0.697   0.647
  407SOL     OW 1228   1.889   1.596   0.117
  407SOL    HW1 1229   1.870   1.500   0.138
  407SOL    HW2 1230   1.856   1.654   0.192
  408SOL     OW 1231   1.975   0.737   1.597
  408SOL    HW1 1232   2.063   0.724   1.642
  408SOL    HW2 1233   1.962   0.834   1.575
  409SOL     OW 1234   2.475   1.365   0.726
  409SOL    HW1 1235   2.426   1.278   0.735
  409SOL    HW2 1236   2.452   1.408   0.639
  410SOL     OW 1237   2.059   0.976   1.264
  410SOL    HW1 1238   2.148   0.931   1.250
  410SOL    HW2 1239   1.986   0.911   1.245
  411SOL     OW 1240   2.179   0.251   1.801
  411SOL    HW1 1241   2.250   0.322   1.807
  411SOL    HW2 1242   2.091   0.290   1.829
  412SOL     OW 1243   2.460   0.729   0.270
  412SOL    HW1 1244   2.484   0.798   0.202
  412SOL    HW2 1245   2.382   0.762   0.324
  413SOL     OW 1246   1.938   0.811   0.789
  413SOL    HW1 1247   2.037   0.799   0.798
  413SOL    HW2 1248   1.914   0.906   0.810
  414SOL     OW 1249   1.992   1.821   1.571
  414SOL    HW1 1250   1.982   1.806   1.670
  414SOL    HW2 1251   1.906   1.857   1.535
  415SOL     OW 1252   2.727   0.348   0.195
  415SOL    HW1 1253   2.786   0.411   0.146
  415SOL    HW2 1254   2.746   0.254   0.166
  416SOL     OW 1255   2.412   0.196   0.885
  416SOL    HW1 1256   2.407   0.191   0.985
  416SOL    HW2 1257   2.414   0.292   0.856
  417SOL     OW 1258   2.213   1.801   0.853
  417SOL    HW1 1259   2.263   1.715   0.859
  417SOL    HW2 1260   2.278   1.878   0.850
  418SOL     OW 1261   2.183   0.943   0.242
  418SOL    HW1 1262   2.265   0.982   0.200
  418SOL    HW2 1263   2.156   0.861   0.193
  419SOL     OW 1264   2.323   1.266   1.727
  419SOL    HW1 1265   2.273   1.267   1.641
  419SOL    HW2 1266   2.260   1.248   1.803
  420SOL     OW 1267   2.064   0.285   1.498
  420SOL    HW1 1268   1.984   0.345   1.485
  420SOL    HW2 1269   2.054   0.236   1.584
  421SOL     OW 1270   2.326   1.743   0.323
  421SOL    HW1 1271   2.359   1.782   0.409
  421SOL    HW2 1272   2.402   1.736   0.258
  422SOL     OW 1273   2.111   1.785   1.241
  422SOL    HW1 1274   2.168   1.720   1.291
  422SOL    HW2 1275   2.095   1.752   1.148
  423SOL     OW 1276   2.244   0.700   0.480
  423SOL    HW1 1277   2.289   0.610   0.477
  423SOL    HW2 1278   2.150   0.689   0.513
  424SOL     OW 1279   2.665   1.402   0.924
  424SOL    HW1 1280   2.755   1.416   0.882
  424SOL    HW2 1281   2.594   1.404   0.853
  425SOL     OW 1282   2.401   0.064   0.512
  425SOL    HW1 1283   2.320   0.065   0.570
  425SOL    HW2 1284   2.404   0.147   0.457
  426SOL     OW 1285   2.159   0.035   0.171
  426SOL    HW1 1286   2.208   0.119   0.150
  426SOL    HW2 1287   2.221  -0.030   0.216
  427SOL     OW 1288   2.797   0.236   0.480
  427SOL    HW1 1289   2.749   0.277   0.402
  427SOL    HW2 1290   2.896   0.234   0.461
  428SOL     OW 1291   2.321   1.152   0.741
  428SOL    HW1 1292   2.250   1.125   0.806
  428SOL    HW2 1293   2.295   1.124   0.648
  429SOL     OW 1294   1.940   0.556   1.386
  429SOL    HW1 1295   2.032   0.555   1.345
  429SOL    HW2 1296   1.934   0.630   1.453
  430SOL     OW 1297   2.423   0.222   1.147
  430SOL    HW1 1298   2.461   0.138   1.184
  430SOL    HW2 1299   2.335   0.241   1.191
  431SOL     OW 1300   2.389   0.256   0.328
  431SOL    HW1 1301   2.416   0.197   0.253
  431SOL    HW2 1302   2.389   0.351   0.297
  432SOL     OW 1303   2.272   0.813   1.251
  432SOL    HW1 1304   2.358   0.825   1.301
  432SOL    HW2 1305   2.230   0.726   1.278
  433SOL     OW 1306   1.926   1.564   1.331
  433SOL    HW1 1307   1.880   1.646   1.297
  433SOL    HW2 1308   2.024   1.583   1.340
  434SOL     OW 1309   2.229   1.100   0.501
  434SOL    HW1 1310   2.222   1.183   0.445
  434SOL    HW2 1311   2.233   1.020   0.441
  435SOL     OW 1312   2.428   0.537   0.865
  435SOL    HW1 1313   2.440   0.603   0.791
  435SOL    HW2 1314   2.474   0.571   0.948
  436SOL     OW 1315   2.216   1.510   1.329
  436SOL    HW1 1316   2.195   1.466   1.242
  436SOL    HW2 1317   2.313   1.536   1.332
  437SOL     OW 1318   2.264   0.751   1.598
  437SOL    HW1 1319   2.332   0.806   1.551
  437SOL    HW2 1320   2.304   0.663   1.625
  438SOL     OW 1321   2.366   0.050   1.740
  438SOL    HW1 1322   2.324  -0.007   1.670
  438SOL    HW2 1323   2.300   0.119   1.772
  439SOL     OW 1324   2.435   0.870   1.029
  439SOL    HW1 1325   2.479   0.959   1.020
  439SOL    HW2 1326   2.372   0.870   1.106
  440SOL     OW 1327   2.169   0.213   1.231
  440SOL    HW1 1328   2.146   0.250   1.321
  440SOL    HW2 1329   2.139   0.118   1.225
  441SOL     OW 1330   1.899   1.310   1.282
  441SOL    HW1 1331   1.952   1.261   1.350
  441SOL    HW2 1332   1.921   1.408   1.287
  442SOL     OW 1333   2.169   0.063   0.618
  442SOL    HW1 1334   2.158   0.157   0.651
  442SOL    HW2 1335   2.164   0.000   0.695
  443SOL     OW 1336   2.212   0.898   1.804
  443SOL    HW1 1337   2.288   0.942   1.852
  443SOL    HW2 1338   2.247   0.851   1.722
  444SOL     OW 1339   2.181   0.810   0.949
  444SOL    HW1 1340   2.274   0.846   0.954
  444SOL    HW2 1341   2.175   0.725   1.001
  445SOL     OW 1342   2.201   0.509   1.006
  445SOL    HW1 1343   2.149   0.426   0.989
  445SOL    HW2 1344   2.278   0.514   0.942
  446SOL     OW 1345   1.870   1.326   0.200
  446SOL    HW1 1346   1.777   1.347   0.169
  446SOL    HW2 1347   1.880   1.227   0.213
  447SOL     OW 1348   1.950   1.801   0.927
  447SOL    HW1 1349   1.908   1.715   0.900
  447SOL    HW2 1350   2.044   1.804   0.893
  448SOL     OW 1351   2.366   1.568   0.910
  448SOL    HW1 1352   2.432   1.642   0.919
  448SOL    HW2 1353   2.410   1.489   0.868
  449SOL     OW 1354   1.902   0.544   1.114
  449SOL    HW1 1355   1.987   0.511   1.073
  449SOL    HW2 1356   1.915   0.559   1.212
  450SOL     OW 1357   2.051   0.520   1.722
  450SOL    HW1 1358   2.110   0.480   1.652
  450SOL    HW2 1359   1.993   0.591   1.681
  451SOL     OW 1360   2.677   0.572   0.325
  451SOL    HW1 1361   2.684   0.483   0.279
  451SOL    HW2 1362   2.583   0.606   0.317
  452SOL     OW 1363   2.114   1.564   1.744
  452SOL    HW1 1364   2.084   1.621   1.820
  452SOL    HW2 1365   2.107   1.467   1.770
  453SOL     OW 1366   2.335   0.500   0.191
  453SOL    HW1 1367   2.396   0.580   0.195
  453SOL    HW2 1368   2.240   0.531   0.198
  454SOL     OW 1369   2.021   1.137   1.466
  454SOL    HW1 1370   2.043   1.076   1.542
  454SOL    HW2 1371   2.031   1.088   1.380
  455SOL     OW 1372   1.945   1.258   1.022
  455SOL    HW1 1373   1.940   1.257   1.122
  455SOL    HW2 1374   1.862   1.217   0.984
  456SOL     OW 1375   2.550   1.662   1.716
  456SOL    HW1 1376   2.494   1.743   1.725
  456SOL    HW2 1377   2.602   1.666   1.630
  457SOL     OW 1378   1.992   1.794   1.851
  457SOL    HW1 1379   1.951   1.720   1.904
  457SOL    HW2 1380   2.056   1.845   1.909
  458SOL     OW 1381   2.125   0.326   0.720
  458SOL    HW1 1382   2.046   0.377   0.686
  458SOL    HW2 1383   2.116   0.311   0.818
  459SOL     OW 1384   2.234   1.288   1.490
  459SOL    HW1 1385   2.221   1.381   1.456
  459SOL    HW2 1386   2.150   1.236   1.477
  460SOL     OW 1387   2.452   1.487   0.491
  460SOL    HW1 1388   2.494   1.429   0.421
  460SOL    HW2 1389   2.408   1.566   0.447
  461SOL     OW 1390   2.117   1.348   0.290
  461SOL    HW1 1391   2.021   1.349   0.263
  461SOL    HW2 1392   2.129   1.401   0.374
  462SOL     OW 1393   1.967   1.013   1.726
  462SOL    HW1 1394   1.890   0.980   1.780
  462SOL    HW2 1395   2.052   0.983   1.768
  463SOL     OW 1396   2.534   0.203   1.489
  463SOL    HW1 1397   2.624   0.187   1.449
  463SOL    HW2 1398   2.542   0.208   1.588
  464SOL     OW 1399   1.937   0.345   0.033
  464SOL    HW1 1400   1.845   0.317   0.004
  464SOL    HW2 1401   1.968   0.422  -0.023
  465SOL     OW 1402   2.475   0.842   1.431
  465SOL    HW1 1403   2.531   0.923   1.414
  465SOL    HW2 1404   2.534   0.762   1.434
  466SOL     OW 1405   2.252   1.741   1.560
  466SOL    HW1 1406   2.161   1.782   1.558
  466SOL    HW2 1407   2.245   1.647   1.592
  467SOL     OW 1408   2.456   0.745   0.652
  467SOL    HW1 1409   2.506   0.830   0.633
  467SOL    HW2 1410   2.368   0.747   0.604
  468SOL     OW 1411   2.083   1.314   1.844
  468SOL    HW1 1412   2.018   1.241   1.823
  468SOL    HW2 1413   2.087   1.328   1.942
  469SOL     OW 1414   1.941   1.240   0.653
  469SOL    HW1 1415   1.940   1.193   0.741
  469SOL    HW2 1416   2.023   1.212   0.602
  470SOL     OW 1417   2.534   1.391   1.624
  470SOL    HW1 1418   2.456   1.341   1.662
  470SOL    HW2 1419   2.531   1.486   1.655
  471SOL     OW 1420   2.290   0.424   0.520
  471SOL    HW1 1421   2.320   0.352   0.458
  471SOL    HW2 1422   2.251   0.384   0.603
  472SOL     OW 1423   2.179   0.547   1.280
  472SOL    HW1 1424   2.217   0.488   1.352
  472SOL    HW2 1425   2.219   0.521   1.192
  473SOL     OW 1426   1.901   1.077   0.300
  473SOL    HW1 1427   2.000   1.066   0.291
  473SOL    HW2 1428   1.861   0.991   0.332
  474SOL     OW 1429   2.092   0.628   1.975
  474SOL    HW1 1430   1.999   0.626   2.012
  474SOL    HW2 1431   2.093   0.589   1.883
  475SOL     OW 1432   2.093   1.713   2.345
  475SOL    HW1 1433   2.127   1.790   2.399
  475SOL    HW2 1434   2.137   1.713   2.255
  476SOL     OW 1435   2.092   1.434   2.400
  476SOL    HW1 1436   2.066   1.530   2.400
  476SOL    HW2 1437   2.021   1.380   2.445
  477SOL     OW 1438   1.984   0.643   2.425
  477SOL    HW1 1439   1.939   0.555   2.442
  477SOL    HW2 1440   1.983   0.697   2.509
  478SOL     OW 1441   1.889   1.596   1.979
  478SOL    HW1 1442   1.870   1.500   2.000
  478SOL    HW2 1443   1.856   1.654   2.054
  479SOL     OW 1444   2.460   0.729   2.132
  479SOL    HW1 1445   2.484   0.798   2.064
  479SOL    HW2 1446   2.382   0.762   2.186
  480SOL     OW 1447   1.938   0.811   2.651
  480SOL    HW1 1448   2.037   0.799   2.660
  480SOL    HW2 1449   1.914   0.906   2.672
  481SOL     OW 1450   2.727   0.348   2.057
  481SOL    HW1 1451   2.786   0.411   2.008
  481SOL    HW2 1452   2.746   0.254   2.028
  482SOL     OW 1453   2.213   1.801   2.715
  482SOL    HW1 1454   2.263   1.715   2.721
  482SOL    HW2 1455   2.278   1.878   2.712
  483SOL     OW 1456   2.183   0.943   2.104
  483SOL    HW1 1457   2.265   0.982   2.062
  483SOL    HW2 1458   2.156   0.861   2.055
  484SOL     OW 1459   2.326   1.743   2.185
  484SOL    HW1 1460   2.359   1.782   2.271
  484SOL    HW2 1461   2.402   1.736   2.120
  485SOL     OW 1462   2.244   0.700   2.342
  485SOL    HW1 1463   2.289   0.610   2.339
  485SOL    HW2 1464   2.150   0.689   2.375
  486SOL     OW 1465   2.476   0.122   1.979
  486SOL    HW1 1466   2.574   0.100   1.986
  486SOL    HW2 1467   2.445   0.105   1.886
  487SOL     OW 1468   2.401   0.064   2.374
  487SOL    HW1 1469   2.320   0.065   2.432
  487SOL    HW2 1470   2.404   0.147   2.319
  488SOL     OW 1471   2.159   0.035   2.033
  488SOL    HW1 1472   2.208   0.119   2.012
  488SOL    HW2 1473   2.221  -0.030   2.078
  489SOL     OW 1474   2.797   0.236   2.342
  489SOL    HW1 1475   2.749   0.277   2.264
  489SOL    HW2 1476   2.896   0.234   2.323
  490SOL     OW 1477   2.321   1.152   2.603
  490SOL    HW1 1478   2.250   1.125   2.668
  490SOL    HW2 1479   2.295   1.124   2.510
  491SOL     OW 1480   2.389   0.256   2.190
  491SOL    HW1 1481   2.416   0.197   2.115
  491SOL    HW2 1482   2.389   0.351   2.159
  492SOL     OW 1483   2.229   1.100   2.363
  492SOL    HW1 1484   2.222   1.183   2.307
  492SOL    HW2 1485   2.233   1.020   2.303
  493SOL     OW 1486   2.169   0.063   2.480
  493SOL    HW1 1487   2.158   0.157   2.513
  493SOL    HW2 1488   2.164   0.000   2.557
  494SOL     OW 1489   1.870   1.326   2.062
  494SOL    HW1 1490   1.777   1.347   2.031
  494SOL    HW2 1491   1.880   1.227   2.075
  495SOL     OW 1492   2.677   0.572   2.187
  495SOL    HW1 1493   2.684   0.483   2.141
  495SOL    HW2 1494   2.583   0.606   2.179
  496SOL     OW 1495   2.335   0.500   2.053
  496SOL    HW1 1496   2.396   0.580   2.057
  496SOL    HW2 1497   2.240   0.531   2.060
  497SOL     OW 1498   2.452   1.487   2.353
  497SOL    HW1 1499   2.494   1.429   2.283
  497SOL    HW2 1500   2.408   1.566   2.309
  498SOL     OW 1501   2.117   1.348   2.152
  498SOL    HW1 1502   2.021   1.349   2.125
  498SOL    HW2 1503   2.129   1.401   2.236
  499SOL     OW 1504   1.937   0.345   1.895
  499SOL    HW1 1505   1.845   0.317   1.866
  499SOL    HW2 1506   1.968   0.422   1.839
  500SOL     OW 1507   1.934   0.166   2.180
  500SOL    HW1 1508   1.917   0.249   2.126
  500SOL    HW2 1509   2.024   0.129   2.158
  501SOL     OW 1510   2.456   0.745   2.514
  501SOL    HW1 1511   2.506   0.830   2.495
  501SOL    HW2 1512   2.368   0.747   2.466
  502SOL     OW 1513   1.941   1.240   2.515
  502SOL    HW1 1514   1.940   1.193   2.603
  502SOL    HW2 1515   2.023   1.212   2.464
  503SOL     OW 1516   2.290   0.424   2.382
  503SOL    HW1 1517   2.320   0.352   2.320
  503SOL    HW2 1518   2.251   0.384   2.465
  504SOL     OW 1519   1.901   1.077   2.162
  504SOL    HW1 1520   2.000   1.066   2.153
  504SOL    HW2 1521   1.861   0.991   2.194
  505SOL     OW 1522   2.087   2.137   0.996
  505SOL    HW1 1523   2.122   2.120   1.088
  505SOL    HW2 1524   1.999   2.092   0.984
  506SOL     OW 1525   1.881   2.230   0.647
  506SOL    HW1 1526   1.799   2.273   0.686
  506SOL    HW2 1527   1.853   2.157   0.584
  507SOL     OW 1528   2.712   2.660   1.823
  507SOL    HW1 1529   2.708   2.736   1.888
  507SOL    HW2 1530   2.734   2.696   1.732
  508SOL     OW 1531   2.300   2.254   1.499
  508SOL    HW1 1532   2.382   2.198   1.508
  508SOL    HW2 1533   2.219   2.196   1.503
  509SOL     OW 1534   1.984   2.505   0.563
  509SOL    HW1 1535   1.939   2.417   0.580
  509SOL    HW2 1536   1.983   2.559   0.647
  510SOL     OW 1537   2.671   1.866   0.502
  510SOL    HW1 1538   2.711   1.957   0.493
  510SOL    HW2 1539   2.571   1.874   0.508
  511SOL     OW 1540   2.179   2.113   1.801
  511SOL    HW1 1541   2.250   2.184   1.807
  511SOL    HW2 1542   2.091   2.152   1.829
  512SOL     OW 1543   2.727   2.210   0.195
  512SOL    HW1 1544   2.786   2.273   0.146
  512SOL    HW2 1545   2.746   2.116   0.166
  513SOL     OW 1546   2.412   2.058   0.885
  513SOL    HW1 1547   2.407   2.053   0.985
  513SOL    HW2 1548   2.414   2.154   0.856
  514SOL     OW 1549   2.064   2.147   1.498
  514SOL    HW1 1550   1.984   2.207   1.485
  514SOL    HW2 1551   2.054   2.098   1.584
  515SOL     OW 1552   2.476   1.984   0.117
  515SOL    HW1 1553   2.574   1.962   0.124
  515SOL    HW2 1554   2.445   1.967   0.024
  516SOL     OW 1555   2.401   1.926   0.512
  516SOL    HW1 1556   2.320   1.927   0.570
  516SOL    HW2 1557   2.404   2.009   0.457
  517SOL     OW 1558   2.797   2.098   0.480
  517SOL    HW1 1559   2.749   2.139   0.402
  517SOL    HW2 1560   2.896   2.096   0.461
  518SOL     OW 1561   1.940   2.418   1.386
  518SOL    HW1 1562   2.032   2.417   1.345
  518SOL    HW2 1563   1.934   2.492   1.453
  519SOL     OW 1564   2.423   2.084   1.147
  519SOL    HW1 1565   2.461   2.000   1.184
  519SOL    HW2 1566   2.335   2.103   1.191
  520SOL     OW 1567   2.389   2.118   0.328
  520SOL    HW1 1568   2.416   2.059   0.253
  520SOL    HW2 1569   2.389   2.213   0.297
  521SOL     OW 1570   2.428   2.399   0.865
  521SOL    HW1 1571   2.440   2.465   0.791
  521SOL    HW2 1572   2.474   2.433   0.948
  522SOL     OW 1573   2.366   1.912   1.740
  522SOL    HW1 1574   2.324   1.855   1.670
  522SOL    HW2 1575   2.300   1.981   1.772
  523SOL     OW 1576   2.169   2.075   1.231
  523SOL    HW1 1577   2.146   2.112   1.321
  523SOL    HW2 1578   2.139   1.980   1.225
  524SOL     OW 1579   2.169   1.925   0.618
  524SOL    HW1 1580   2.158   2.019   0.651
  524SOL    HW2 1581   2.164   1.862   0.695
  525SOL     OW 1582   2.181   2.672   0.949
  525SOL    HW1 1583   2.274   2.708   0.954
  525SOL    HW2 1584   2.175   2.587   1.001
  526SOL     OW 1585   2.201   2.371   1.006
  526SOL    HW1 1586   2.149   2.288   0.989
  526SOL    HW2 1587   2.278   2.376   0.942
  527SOL     OW 1588   1.902   2.406   1.114
  527SOL    HW1 1589   1.987   2.373   1.073
  527SOL    HW2 1590   1.915   2.421   1.212
  528SOL     OW 1591   2.051   2.382   1.722
  528SOL    HW1 1592   2.110   2.342   1.652
  528SOL    HW2 1593   1.993   2.453   1.681
  529SOL     OW 1594   2.677   2.434   0.325
  529SOL    HW1 1595   2.684   2.345   0.279
  529SOL    HW2 1596   2.583   2.468   0.317
  530SOL     OW 1597   2.335   2.362   0.191
  530SOL    HW1 1598   2.396   2.442   0.195
  530SOL    HW2 1599   2.240   2.393   0.198
  531SOL     OW 1600   2.125   2.188   0.720
  531SOL    HW1 1601   2.046   2.239   0.686
  531SOL    HW2 1602   2.116   2.173   0.818
  532SOL     OW 1603   2.534   2.065   1.489
  532SOL    HW1 1604   2.624   2.049   1.449
  532SOL    HW2 1605   2.542   2.070   1.588
  533SOL     OW 1606   1.937   2.207   0.033
  533SOL    HW1 1607   1.845   2.179   0.004
  533SOL    HW2 1608   1.968   2.284  -0.023
  534SOL     OW 1609   2.290   2.286   0.520
  534SOL    HW1 1610   2.320   2.214   0.458
  534SOL    HW2 1611   2.251   2.246   0.603
  535SOL     OW 1612   2.179   2.409   1.280
  535SOL    HW1 1613   2.217   2.350   1.352
  535SOL    HW2 1614   2.219   2.383   1.192
  536SOL     OW 1615   1.984   2.505   2.425
  536SOL    HW1 1616   1.939   2.417   2.442
  536SOL    HW2 1617   1.983   2.559   2.509
  537SOL     OW 1618   2.671   1.866   2.364
  537SOL    HW1 1619   2.711   1.957   2.355
  537SOL    HW2 1620   2.571   1.874   2.370
  538SOL     OW 1621   2.727   2.210   2.057
  538SOL    HW1 1622   2.786   2.273   2.008
  538SOL    HW2 1623   2.746   2.116   2.028
  539SOL     OW 1624   2.476   1.984   1.979
  539SOL    HW1 1625   2.574   1.962   1.986
  539SOL    HW2 1626   2.445   1.967   1.886
  540SOL     OW 1627   2.401   1.926   2.374
  540SOL    HW1 1628   2.320   1.927   2.432
  540SOL    HW2 1629   2.404   2.009   2.319
  541SOL     OW 1630   2.159   1.897   2.033
  541SOL    HW1 1631   2.208   1.981   2.012
  541SOL    HW2 1632   2.221   1.832   2.078
  542SOL     OW 1633   2.797   2.098   2.342
  542SOL    HW1 1634   2.749   2.139   2.264
  542SOL    HW2 1635   2.896   2.096   2.323
  543SOL     OW 1636   2.389   2.118   2.190
  543SOL    HW1 1637   2.416   2.059   2.115
  543SOL    HW2 1638   2.389   2.213   2.159
  544SOL     OW 1639   2.169   1.925   2.480
  544SOL    HW1 1640   2.158   2.019   2.513
  544SOL    HW2 1641   2.164   1.862   2.557
  545SOL     OW 1642   2.677   2.434   2.187
  545SOL    HW1 1643   2.684   2.345   2.141
  545SOL    HW2 1644   2.583   2.468   2.179
  546SOL     OW 1645   2.335   2.362   2.053
  546SOL    HW1 1646   2.396   2.442   2.057
  546SOL    HW2 1647   2.240   2.393   2.060
  547SOL     OW 1648   1.937   2.207   1.895
  547SOL    HW1 1649   1.845   2.179   1.866
  547SOL    HW2 1650   1.968   2.284   1.839
  548SOL     OW 1651   1.934   2.028   2.180
  548SOL    HW1 1652   1.917   2.111   2.126
  548SOL    HW2 1653   2.024   1.991   2.158
  549SOL     OW 1654   2.290   2.286   2.382
  549SOL    HW1 1655   2.320   2.214   2.320
  549SOL    HW2 1656   2.251   2.246   2.465
   2.56017   2.56017   2.56017
