; mobley_676247_GMX.itp created by acpype (v: 2023.10.27) on Thu May 14 13:39:12 2026

[ atomtypes ]
;name   bond_type     mass     charge   ptype   sigma         epsilon       Amb
 c3       c3          0.00000  0.00000   A     3.39771e-01   4.51035e-01 ; 1.91  0.1078
 f        f           0.00000  0.00000   A     3.03422e-01   3.48109e-01 ; 1.70  0.0832

[ moleculetype ]
;name            nrexcl
 mobley_676247    3

[ atoms ]
;   nr  type  resi  res  atom  cgnr     charge      mass       ; qtot   bond_type
     1   c3     1   MOL    C1    1     0.861200     12.01000 ; qtot 0.861
     2    f     1   MOL    F1    2    -0.215300     19.00000 ; qtot 0.646
     3    f     1   MOL    F2    3    -0.215300     19.00000 ; qtot 0.431
     4    f     1   MOL    F3    4    -0.215300     19.00000 ; qtot 0.215
     5    f     1   MOL    F4    5    -0.215300     19.00000 ; qtot -0.000

[ bonds ]
;   ai     aj funct   r             k
     1      2   1    1.3512e-01    2.7973e+05 ;     C1 - F1    
     1      3   1    1.3512e-01    2.7973e+05 ;     C1 - F2    
     1      4   1    1.3512e-01    2.7973e+05 ;     C1 - F3    
     1      5   1    1.3512e-01    2.7973e+05 ;     C1 - F4    

[ angles ]
;   ai     aj     ak    funct   theta         cth
     2      1      3      1    1.0737e+02    8.9437e+02 ;     F1 - C1     - F2    
     2      1      4      1    1.0737e+02    8.9437e+02 ;     F1 - C1     - F3    
     2      1      5      1    1.0737e+02    8.9437e+02 ;     F1 - C1     - F4    
     3      1      4      1    1.0737e+02    8.9437e+02 ;     F2 - C1     - F3    
     3      1      5      1    1.0737e+02    8.9437e+02 ;     F2 - C1     - F4    
     4      1      5      1    1.0737e+02    8.9437e+02 ;     F3 - C1     - F4    
