; mobley_7754849_GMX.itp created by acpype (v: 2023.10.27) on Thu May 14 13:20:17 2026

[ atomtypes ]
;name   bond_type     mass     charge   ptype   sigma         epsilon       Amb
 c3       c3          0.00000  0.00000   A     3.39771e-01   4.51035e-01 ; 1.91  0.1078
 os       os          0.00000  0.00000   A     3.15610e-01   3.03758e-01 ; 1.77  0.0726
 p5       p5          0.00000  0.00000   A     3.69402e-01   9.60228e-01 ; 2.07  0.2295
 s        s           0.00000  0.00000   A     3.53241e-01   1.18156e+00 ; 1.98  0.2824
 ss       ss          0.00000  0.00000   A     3.53241e-01   1.18156e+00 ; 1.98  0.2824
 hc       hc          0.00000  0.00000   A     2.60018e-01   8.70272e-02 ; 1.46  0.0208
 h1       h1          0.00000  0.00000   A     2.42200e-01   8.70272e-02 ; 1.36  0.0208
 h2       h2          0.00000  0.00000   A     2.24382e-01   8.70272e-02 ; 1.26  0.0208

[ moleculetype ]
;name            nrexcl
 mobley_7754849   3

[ atoms ]
;   nr  type  resi  res  atom  cgnr     charge      mass       ; qtot   bond_type
     1   c3     1   MOL    C1    1    -0.112850     12.01000 ; qtot -0.113
     2   c3     1   MOL    C2    2    -0.112850     12.01000 ; qtot -0.226
     3   c3     1   MOL    C3    3    -0.112850     12.01000 ; qtot -0.339
     4   c3     1   MOL    C4    4    -0.112850     12.01000 ; qtot -0.451
     5   c3     1   MOL    C5    5     0.140650     12.01000 ; qtot -0.311
     6   c3     1   MOL    C6    6     0.140650     12.01000 ; qtot -0.170
     7   c3     1   MOL    C7    7     0.140650     12.01000 ; qtot -0.029
     8   c3     1   MOL    C8    8     0.140650     12.01000 ; qtot 0.111
     9   c3     1   MOL    C9    9     0.354800     12.01000 ; qtot 0.466
    10   os     1   MOL    O1   10    -0.478200     16.00000 ; qtot -0.012
    11   os     1   MOL    O2   11    -0.478200     16.00000 ; qtot -0.490
    12   os     1   MOL    O3   12    -0.478200     16.00000 ; qtot -0.969
    13   os     1   MOL    O4   13    -0.478200     16.00000 ; qtot -1.447
    14   p5     1   MOL    P1   14     0.886200     30.97000 ; qtot -0.561
    15   p5     1   MOL    P2   15     0.886200     30.97000 ; qtot 0.326
    16    s     1   MOL    S1   16    -0.518000     32.06000 ; qtot -0.192
    17    s     1   MOL    S2   17    -0.518000     32.06000 ; qtot -0.710
    18   ss     1   MOL    S3   18    -0.407500     32.06000 ; qtot -1.118
    19   ss     1   MOL    S4   19    -0.407500     32.06000 ; qtot -1.525
    20   hc     1   MOL    H1   20     0.057700      1.00800 ; qtot -1.468
    21   hc     1   MOL    H2   21     0.057700      1.00800 ; qtot -1.410
    22   hc     1   MOL    H3   22     0.057700      1.00800 ; qtot -1.352
    23   hc     1   MOL    H4   23     0.057700      1.00800 ; qtot -1.295
    24   hc     1   MOL    H5   24     0.057700      1.00800 ; qtot -1.237
    25   hc     1   MOL    H6   25     0.057700      1.00800 ; qtot -1.179
    26   hc     1   MOL    H7   26     0.057700      1.00800 ; qtot -1.122
    27   hc     1   MOL    H8   27     0.057700      1.00800 ; qtot -1.064
    28   hc     1   MOL    H9   28     0.057700      1.00800 ; qtot -1.006
    29   hc     1   MOL   H10   29     0.057700      1.00800 ; qtot -0.948
    30   hc     1   MOL   H11   30     0.057700      1.00800 ; qtot -0.891
    31   hc     1   MOL   H12   31     0.057700      1.00800 ; qtot -0.833
    32   h1     1   MOL   H13   32     0.073200      1.00800 ; qtot -0.760
    33   h1     1   MOL   H14   33     0.073200      1.00800 ; qtot -0.687
    34   h1     1   MOL   H15   34     0.073200      1.00800 ; qtot -0.613
    35   h1     1   MOL   H16   35     0.073200      1.00800 ; qtot -0.540
    36   h1     1   MOL   H17   36     0.073200      1.00800 ; qtot -0.467
    37   h1     1   MOL   H18   37     0.073200      1.00800 ; qtot -0.394
    38   h1     1   MOL   H19   38     0.073200      1.00800 ; qtot -0.321
    39   h1     1   MOL   H20   39     0.073200      1.00800 ; qtot -0.247
    40   h2     1   MOL   H21   40     0.123700      1.00800 ; qtot -0.124
    41   h2     1   MOL   H22   41     0.123700      1.00800 ; qtot -0.000

[ bonds ]
;   ai     aj funct   r             k
     1      5   1    1.5354e-01    1.9154e+05 ;     C1 - C5    
     1     20   1    1.0962e-01    2.8891e+05 ;     C1 - H1    
     1     21   1    1.0962e-01    2.8891e+05 ;     C1 - H2    
     1     22   1    1.0962e-01    2.8891e+05 ;     C1 - H3    
     2      6   1    1.5354e-01    1.9154e+05 ;     C2 - C6    
     2     23   1    1.0962e-01    2.8891e+05 ;     C2 - H4    
     2     24   1    1.0962e-01    2.8891e+05 ;     C2 - H5    
     2     25   1    1.0962e-01    2.8891e+05 ;     C2 - H6    
     3      7   1    1.5354e-01    1.9154e+05 ;     C3 - C7    
     3     26   1    1.0962e-01    2.8891e+05 ;     C3 - H7    
     3     27   1    1.0962e-01    2.8891e+05 ;     C3 - H8    
     3     28   1    1.0962e-01    2.8891e+05 ;     C3 - H9    
     4      8   1    1.5354e-01    1.9154e+05 ;     C4 - C8    
     4     29   1    1.0962e-01    2.8891e+05 ;     C4 - H10   
     4     30   1    1.0962e-01    2.8891e+05 ;     C4 - H11   
     4     31   1    1.0962e-01    2.8891e+05 ;     C4 - H12   
     5     10   1    1.4273e-01    2.3620e+05 ;     C5 - O1    
     5     32   1    1.0969e-01    2.8804e+05 ;     C5 - H13   
     5     33   1    1.0969e-01    2.8804e+05 ;     C5 - H14   
     6     11   1    1.4273e-01    2.3620e+05 ;     C6 - O2    
     6     34   1    1.0969e-01    2.8804e+05 ;     C6 - H15   
     6     35   1    1.0969e-01    2.8804e+05 ;     C6 - H16   
     7     12   1    1.4273e-01    2.3620e+05 ;     C7 - O3    
     7     36   1    1.0969e-01    2.8804e+05 ;     C7 - H17   
     7     37   1    1.0969e-01    2.8804e+05 ;     C7 - H18   
     8     13   1    1.4273e-01    2.3620e+05 ;     C8 - O4    
     8     38   1    1.0969e-01    2.8804e+05 ;     C8 - H19   
     8     39   1    1.0969e-01    2.8804e+05 ;     C8 - H20   
     9     18   1    1.8407e-01    1.5459e+05 ;     C9 - S3    
     9     19   1    1.8407e-01    1.5459e+05 ;     C9 - S4    
     9     40   1    1.0950e-01    2.9039e+05 ;     C9 - H21   
     9     41   1    1.0950e-01    2.9039e+05 ;     C9 - H22   
    10     14   1    1.6182e-01    3.2434e+05 ;     O1 - P1    
    11     14   1    1.6182e-01    3.2434e+05 ;     O2 - P1    
    12     15   1    1.6182e-01    3.2434e+05 ;     O3 - P2    
    13     15   1    1.6182e-01    3.2434e+05 ;     O4 - P2    
    14     16   1    1.9473e-01    2.2085e+05 ;     P1 - S1    
    14     18   1    2.1159e-01    1.4974e+05 ;     P1 - S3    
    15     17   1    1.9473e-01    2.2085e+05 ;     P2 - S2    
    15     19   1    2.1159e-01    1.4974e+05 ;     P2 - S4    

[ pairs ]
;   ai     aj    funct
     1     14      1 ;     C1 - P1    
     2     14      1 ;     C2 - P1    
     3     15      1 ;     C3 - P2    
     4     15      1 ;     C4 - P2    
     5     11      1 ;     C5 - O2    
     5     16      1 ;     C5 - S1    
     5     18      1 ;     C5 - S3    
     6     10      1 ;     C6 - O1    
     6     16      1 ;     C6 - S1    
     6     18      1 ;     C6 - S3    
     7     13      1 ;     C7 - O4    
     7     17      1 ;     C7 - S2    
     7     19      1 ;     C7 - S4    
     8     12      1 ;     C8 - O3    
     8     17      1 ;     C8 - S2    
     8     19      1 ;     C8 - S4    
     9     10      1 ;     C9 - O1    
     9     11      1 ;     C9 - O2    
     9     12      1 ;     C9 - O3    
     9     13      1 ;     C9 - O4    
     9     16      1 ;     C9 - S1    
     9     17      1 ;     C9 - S2    
    11     23      1 ;     O2 - H4    
    11     24      1 ;     O2 - H5    
    11     25      1 ;     O2 - H6    
    12     26      1 ;     O3 - H7    
    12     27      1 ;     O3 - H8    
    12     28      1 ;     O3 - H9    
    13     29      1 ;     O4 - H10   
    13     30      1 ;     O4 - H11   
    13     31      1 ;     O4 - H12   
    14     19      1 ;     P1 - S4    
    14     32      1 ;     P1 - H13   
    14     33      1 ;     P1 - H14   
    14     34      1 ;     P1 - H15   
    14     35      1 ;     P1 - H16   
    14     40      1 ;     P1 - H21   
    14     41      1 ;     P1 - H22   
    15     18      1 ;     P2 - S3    
    15     36      1 ;     P2 - H17   
    15     37      1 ;     P2 - H18   
    15     38      1 ;     P2 - H19   
    15     39      1 ;     P2 - H20   
    15     40      1 ;     P2 - H21   
    15     41      1 ;     P2 - H22   
    20     10      1 ;     H1 - O1    
    20     32      1 ;     H1 - H13   
    20     33      1 ;     H1 - H14   
    21     10      1 ;     H2 - O1    
    21     32      1 ;     H2 - H13   
    21     33      1 ;     H2 - H14   
    22     10      1 ;     H3 - O1    
    22     32      1 ;     H3 - H13   
    22     33      1 ;     H3 - H14   
    23     34      1 ;     H4 - H15   
    23     35      1 ;     H4 - H16   
    24     34      1 ;     H5 - H15   
    24     35      1 ;     H5 - H16   
    25     34      1 ;     H6 - H15   
    25     35      1 ;     H6 - H16   
    26     36      1 ;     H7 - H17   
    26     37      1 ;     H7 - H18   
    27     36      1 ;     H8 - H17   
    27     37      1 ;     H8 - H18   
    28     36      1 ;     H9 - H17   
    28     37      1 ;     H9 - H18   
    29     38      1 ;    H10 - H19   
    29     39      1 ;    H10 - H20   
    30     38      1 ;    H11 - H19   
    30     39      1 ;    H11 - H20   
    31     38      1 ;    H12 - H19   
    31     39      1 ;    H12 - H20   

[ angles ]
;   ai     aj     ak    funct   theta         cth
     1      5     10      1    1.0762e+02    6.4802e+02 ;     C1 - C5     - O1    
     1      5     32      1    1.0959e+02    3.6217e+02 ;     C1 - C5     - H13   
     1      5     33      1    1.0959e+02    3.6217e+02 ;     C1 - C5     - H14   
     2      6     11      1    1.0762e+02    6.4802e+02 ;     C2 - C6     - O2    
     2      6     34      1    1.0959e+02    3.6217e+02 ;     C2 - C6     - H15   
     2      6     35      1    1.0959e+02    3.6217e+02 ;     C2 - C6     - H16   
     3      7     12      1    1.0762e+02    6.4802e+02 ;     C3 - C7     - O3    
     3      7     36      1    1.0959e+02    3.6217e+02 ;     C3 - C7     - H17   
     3      7     37      1    1.0959e+02    3.6217e+02 ;     C3 - C7     - H18   
     4      8     13      1    1.0762e+02    6.4802e+02 ;     C4 - C8     - O4    
     4      8     38      1    1.0959e+02    3.6217e+02 ;     C4 - C8     - H19   
     4      8     39      1    1.0959e+02    3.6217e+02 ;     C4 - C8     - H20   
     5      1     20      1    1.0968e+02    3.6208e+02 ;     C5 - C1     - H1    
     5      1     21      1    1.0968e+02    3.6208e+02 ;     C5 - C1     - H2    
     5      1     22      1    1.0968e+02    3.6208e+02 ;     C5 - C1     - H3    
     5     10     14      1    1.1970e+02    4.7396e+02 ;     C5 - O1     - P1    
     6      2     23      1    1.0968e+02    3.6208e+02 ;     C6 - C2     - H4    
     6      2     24      1    1.0968e+02    3.6208e+02 ;     C6 - C2     - H5    
     6      2     25      1    1.0968e+02    3.6208e+02 ;     C6 - C2     - H6    
     6     11     14      1    1.1970e+02    4.7396e+02 ;     C6 - O2     - P1    
     7      3     26      1    1.0968e+02    3.6208e+02 ;     C7 - C3     - H7    
     7      3     27      1    1.0968e+02    3.6208e+02 ;     C7 - C3     - H8    
     7      3     28      1    1.0968e+02    3.6208e+02 ;     C7 - C3     - H9    
     7     12     15      1    1.1970e+02    4.7396e+02 ;     C7 - O3     - P2    
     8      4     29      1    1.0968e+02    3.6208e+02 ;     C8 - C4     - H10   
     8      4     30      1    1.0968e+02    3.6208e+02 ;     C8 - C4     - H11   
     8      4     31      1    1.0968e+02    3.6208e+02 ;     C8 - C4     - H12   
     8     13     15      1    1.1970e+02    4.7396e+02 ;     C8 - O4     - P2    
     9     18     14      1    9.9760e+01    5.0543e+02 ;     C9 - S3     - P1    
     9     19     15      1    9.9760e+01    5.0543e+02 ;     C9 - S4     - P2    
    10      5     32      1    1.1034e+02    4.7028e+02 ;     O1 - C5     - H13   
    10      5     33      1    1.1034e+02    4.7028e+02 ;     O1 - C5     - H14   
    10     14     11      1    1.0172e+02    8.6123e+02 ;     O1 - P1     - O2    
    10     14     16      1    1.1704e+02    6.8040e+02 ;     O1 - P1     - S1    
    10     14     18      1    1.0238e+02    6.8199e+02 ;     O1 - P1     - S3    
    11      6     34      1    1.1034e+02    4.7028e+02 ;     O2 - C6     - H15   
    11      6     35      1    1.1034e+02    4.7028e+02 ;     O2 - C6     - H16   
    11     14     16      1    1.1704e+02    6.8040e+02 ;     O2 - P1     - S1    
    11     14     18      1    1.0238e+02    6.8199e+02 ;     O2 - P1     - S3    
    12      7     36      1    1.1034e+02    4.7028e+02 ;     O3 - C7     - H17   
    12      7     37      1    1.1034e+02    4.7028e+02 ;     O3 - C7     - H18   
    12     15     13      1    1.0172e+02    8.6123e+02 ;     O3 - P2     - O4    
    12     15     17      1    1.1704e+02    6.8040e+02 ;     O3 - P2     - S2    
    12     15     19      1    1.0238e+02    6.8199e+02 ;     O3 - P2     - S4    
    13      8     38      1    1.1034e+02    4.7028e+02 ;     O4 - C8     - H19   
    13      8     39      1    1.1034e+02    4.7028e+02 ;     O4 - C8     - H20   
    13     15     17      1    1.1704e+02    6.8040e+02 ;     O4 - P2     - S2    
    13     15     19      1    1.0238e+02    6.8199e+02 ;     O4 - P2     - S4    
    16     14     18      1    1.1546e+02    5.7873e+02 ;     S1 - P1     - S3    
    17     15     19      1    1.1546e+02    5.7873e+02 ;     S2 - P2     - S4    
    18      9     19      1    1.1142e+02    5.6693e+02 ;     S3 - C9     - S4    
    18      9     40      1    1.0882e+02    3.5171e+02 ;     S3 - C9     - H21   
    18      9     41      1    1.0882e+02    3.5171e+02 ;     S3 - C9     - H22   
    19      9     40      1    1.0882e+02    3.5171e+02 ;     S4 - C9     - H21   
    19      9     41      1    1.0882e+02    3.5171e+02 ;     S4 - C9     - H22   
    20      1     21      1    1.0773e+02    2.9957e+02 ;     H1 - C1     - H2    
    20      1     22      1    1.0773e+02    2.9957e+02 ;     H1 - C1     - H3    
    21      1     22      1    1.0773e+02    2.9957e+02 ;     H2 - C1     - H3    
    23      2     24      1    1.0773e+02    2.9957e+02 ;     H4 - C2     - H5    
    23      2     25      1    1.0773e+02    2.9957e+02 ;     H4 - C2     - H6    
    24      2     25      1    1.0773e+02    2.9957e+02 ;     H5 - C2     - H6    
    26      3     27      1    1.0773e+02    2.9957e+02 ;     H7 - C3     - H8    
    26      3     28      1    1.0773e+02    2.9957e+02 ;     H7 - C3     - H9    
    27      3     28      1    1.0773e+02    2.9957e+02 ;     H8 - C3     - H9    
    29      4     30      1    1.0773e+02    2.9957e+02 ;    H10 - C4     - H11   
    29      4     31      1    1.0773e+02    2.9957e+02 ;    H10 - C4     - H12   
    30      4     31      1    1.0773e+02    2.9957e+02 ;    H11 - C4     - H12   
    32      5     33      1    1.0855e+02    2.9824e+02 ;    H13 - C5     - H14   
    34      6     35      1    1.0855e+02    2.9824e+02 ;    H15 - C6     - H16   
    36      7     37      1    1.0855e+02    2.9824e+02 ;    H17 - C7     - H18   
    38      8     39      1    1.0855e+02    2.9824e+02 ;    H19 - C8     - H20   
    40      9     41      1    1.0951e+02    2.9748e+02 ;    H21 - C9     - H22   

[ dihedrals ] ; propers
; for gromacs 4.5 or higher, using funct 9
;    i      j      k      l   func   phase     kd      pn
     1      5     10     14      9     0.00   1.60247   3 ;     C1-    C5-    O1-    P1
     1      5     10     14      9   180.00  16.52680   1 ;     C1-    C5-    O1-    P1
     2      6     11     14      9     0.00   1.60247   3 ;     C2-    C6-    O2-    P1
     2      6     11     14      9   180.00  16.52680   1 ;     C2-    C6-    O2-    P1
     3      7     12     15      9     0.00   1.60247   3 ;     C3-    C7-    O3-    P2
     3      7     12     15      9   180.00  16.52680   1 ;     C3-    C7-    O3-    P2
     4      8     13     15      9     0.00   1.60247   3 ;     C4-    C8-    O4-    P2
     4      8     13     15      9   180.00  16.52680   1 ;     C4-    C8-    O4-    P2
     5     10     14     11      9     0.00  14.72768   2 ;     C5-    O1-    P1-    O2
     5     10     14     16      9     0.00   3.34720   2 ;     C5-    O1-    P1-    S1
     5     10     14     18      9     0.00   3.34720   2 ;     C5-    O1-    P1-    S3
     6     11     14     10      9     0.00  14.72768   2 ;     C6-    O2-    P1-    O1
     6     11     14     16      9     0.00   3.34720   2 ;     C6-    O2-    P1-    S1
     6     11     14     18      9     0.00   3.34720   2 ;     C6-    O2-    P1-    S3
     7     12     15     13      9     0.00  14.72768   2 ;     C7-    O3-    P2-    O4
     7     12     15     17      9     0.00   3.34720   2 ;     C7-    O3-    P2-    S2
     7     12     15     19      9     0.00   3.34720   2 ;     C7-    O3-    P2-    S4
     8     13     15     12      9     0.00  14.72768   2 ;     C8-    O4-    P2-    O3
     8     13     15     17      9     0.00   3.34720   2 ;     C8-    O4-    P2-    S2
     8     13     15     19      9     0.00   3.34720   2 ;     C8-    O4-    P2-    S4
     9     18     14     10      9   180.00  16.43057   2 ;     C9-    S3-    P1-    O1
     9     18     14     11      9   180.00  16.43057   2 ;     C9-    S3-    P1-    O2
     9     18     14     16      9   180.00  15.89920   2 ;     C9-    S3-    P1-    S1
     9     19     15     12      9   180.00  16.43057   2 ;     C9-    S4-    P2-    O3
     9     19     15     13      9   180.00  16.43057   2 ;     C9-    S4-    P2-    O4
     9     19     15     17      9   180.00  15.89920   2 ;     C9-    S4-    P2-    S2
    11      6      2     23      9     0.00   0.00000   0 ;     O2-    C6-    C2-    H4
    11      6      2     23      9     0.00   1.04600   1 ;     O2-    C6-    C2-    H4
    11      6      2     24      9     0.00   0.00000   0 ;     O2-    C6-    C2-    H5
    11      6      2     24      9     0.00   1.04600   1 ;     O2-    C6-    C2-    H5
    11      6      2     25      9     0.00   0.00000   0 ;     O2-    C6-    C2-    H6
    11      6      2     25      9     0.00   1.04600   1 ;     O2-    C6-    C2-    H6
    12      7      3     26      9     0.00   0.00000   0 ;     O3-    C7-    C3-    H7
    12      7      3     26      9     0.00   1.04600   1 ;     O3-    C7-    C3-    H7
    12      7      3     27      9     0.00   0.00000   0 ;     O3-    C7-    C3-    H8
    12      7      3     27      9     0.00   1.04600   1 ;     O3-    C7-    C3-    H8
    12      7      3     28      9     0.00   0.00000   0 ;     O3-    C7-    C3-    H9
    12      7      3     28      9     0.00   1.04600   1 ;     O3-    C7-    C3-    H9
    13      8      4     29      9     0.00   0.00000   0 ;     O4-    C8-    C4-   H10
    13      8      4     29      9     0.00   1.04600   1 ;     O4-    C8-    C4-   H10
    13      8      4     30      9     0.00   0.00000   0 ;     O4-    C8-    C4-   H11
    13      8      4     30      9     0.00   1.04600   1 ;     O4-    C8-    C4-   H11
    13      8      4     31      9     0.00   0.00000   0 ;     O4-    C8-    C4-   H12
    13      8      4     31      9     0.00   1.04600   1 ;     O4-    C8-    C4-   H12
    14     10      5     32      9     0.00   0.00000   0 ;     P1-    O1-    C5-   H13
    14     10      5     33      9     0.00   0.00000   0 ;     P1-    O1-    C5-   H14
    14     11      6     34      9     0.00   0.00000   0 ;     P1-    O2-    C6-   H15
    14     11      6     35      9     0.00   0.00000   0 ;     P1-    O2-    C6-   H16
    14     18      9     19      9     0.00   1.39467   3 ;     P1-    S3-    C9-    S4
    14     18      9     40      9     0.00   1.39467   3 ;     P1-    S3-    C9-   H21
    14     18      9     41      9     0.00   1.39467   3 ;     P1-    S3-    C9-   H22
    15     12      7     36      9     0.00   0.00000   0 ;     P2-    O3-    C7-   H17
    15     12      7     37      9     0.00   0.00000   0 ;     P2-    O3-    C7-   H18
    15     13      8     38      9     0.00   0.00000   0 ;     P2-    O4-    C8-   H19
    15     13      8     39      9     0.00   0.00000   0 ;     P2-    O4-    C8-   H20
    15     19      9     18      9     0.00   1.39467   3 ;     P2-    S4-    C9-    S3
    15     19      9     40      9     0.00   1.39467   3 ;     P2-    S4-    C9-   H21
    15     19      9     41      9     0.00   1.39467   3 ;     P2-    S4-    C9-   H22
    20      1      5     10      9     0.00   0.00000   0 ;     H1-    C1-    C5-    O1
    20      1      5     10      9     0.00   1.04600   1 ;     H1-    C1-    C5-    O1
    20      1      5     32      9     0.00   0.65084   3 ;     H1-    C1-    C5-   H13
    20      1      5     33      9     0.00   0.65084   3 ;     H1-    C1-    C5-   H14
    21      1      5     10      9     0.00   0.00000   0 ;     H2-    C1-    C5-    O1
    21      1      5     10      9     0.00   1.04600   1 ;     H2-    C1-    C5-    O1
    21      1      5     32      9     0.00   0.65084   3 ;     H2-    C1-    C5-   H13
    21      1      5     33      9     0.00   0.65084   3 ;     H2-    C1-    C5-   H14
    22      1      5     10      9     0.00   0.00000   0 ;     H3-    C1-    C5-    O1
    22      1      5     10      9     0.00   1.04600   1 ;     H3-    C1-    C5-    O1
    22      1      5     32      9     0.00   0.65084   3 ;     H3-    C1-    C5-   H13
    22      1      5     33      9     0.00   0.65084   3 ;     H3-    C1-    C5-   H14
    23      2      6     34      9     0.00   0.65084   3 ;     H4-    C2-    C6-   H15
    23      2      6     35      9     0.00   0.65084   3 ;     H4-    C2-    C6-   H16
    24      2      6     34      9     0.00   0.65084   3 ;     H5-    C2-    C6-   H15
    24      2      6     35      9     0.00   0.65084   3 ;     H5-    C2-    C6-   H16
    25      2      6     34      9     0.00   0.65084   3 ;     H6-    C2-    C6-   H15
    25      2      6     35      9     0.00   0.65084   3 ;     H6-    C2-    C6-   H16
    26      3      7     36      9     0.00   0.65084   3 ;     H7-    C3-    C7-   H17
    26      3      7     37      9     0.00   0.65084   3 ;     H7-    C3-    C7-   H18
    27      3      7     36      9     0.00   0.65084   3 ;     H8-    C3-    C7-   H17
    27      3      7     37      9     0.00   0.65084   3 ;     H8-    C3-    C7-   H18
    28      3      7     36      9     0.00   0.65084   3 ;     H9-    C3-    C7-   H17
    28      3      7     37      9     0.00   0.65084   3 ;     H9-    C3-    C7-   H18
    29      4      8     38      9     0.00   0.65084   3 ;    H10-    C4-    C8-   H19
    29      4      8     39      9     0.00   0.65084   3 ;    H10-    C4-    C8-   H20
    30      4      8     38      9     0.00   0.65084   3 ;    H11-    C4-    C8-   H19
    30      4      8     39      9     0.00   0.65084   3 ;    H11-    C4-    C8-   H20
    31      4      8     38      9     0.00   0.65084   3 ;    H12-    C4-    C8-   H19
    31      4      8     39      9     0.00   0.65084   3 ;    H12-    C4-    C8-   H20
