mobley_8208692_GMX.gro created by acpype (v: 2023.10.27) on Thu May 14 13:24:57 2026
 2755
    1MOL     C1    1   1.683   1.437   1.497
    1MOL     C2    2   1.260   1.535   1.366
    1MOL     C3    3   1.575   1.495   1.564
    1MOL     C4    4   1.469   1.555   1.484
    1MOL     C5    5   1.786   1.378   1.569
    1MOL     C6    6   1.361   1.478   1.443
    1MOL     C7    7   1.266   1.669   1.331
    1MOL     C8    8   1.570   1.493   1.704
    1MOL     C9    9   1.476   1.690   1.449
    1MOL    C10   10   1.782   1.376   1.708
    1MOL    C11   11   1.375   1.747   1.372
    1MOL    C12   12   1.674   1.433   1.776
    1MOL    CL1   13   1.916   1.309   1.478
    1MOL    CL2   14   1.347   1.310   1.484
    1MOL    CL3   15   1.137   1.733   1.235
    1MOL    CL4   16   1.435   1.565   1.786
    1MOL    CL5   17   1.612   1.786   1.501
    1MOL    CL6   18   1.912   1.301   1.797
    1MOL    CL7   19   1.382   1.915   1.327
    1MOL    CL8   20   1.669   1.431   1.950
    1MOL     H1   21   1.686   1.439   1.388
    1MOL     H2   22   1.175   1.474   1.334
    2SOL     OW   23   0.230   0.628   0.113
    2SOL    HW1   24   0.137   0.626   0.150
    2SOL    HW2   25   0.231   0.589   0.021
    3SOL     OW   26   0.225   0.275   0.996
    3SOL    HW1   27   0.260   0.258   1.088
    3SOL    HW2   28   0.137   0.230   0.984
    4SOL     OW   29   0.019   0.368   0.647
    4SOL    HW1   30  -0.063   0.411   0.686
    4SOL    HW2   31  -0.009   0.295   0.584
    5SOL     OW   32   0.569   1.275   1.165
    5SOL    HW1   33   0.476   1.268   1.128
    5SOL    HW2   34   0.580   1.364   1.209
    6SOL     OW   35   1.555   1.511   0.703
    6SOL    HW1   36   1.498   1.495   0.784
    6SOL    HW2   37   1.496   1.521   0.623
    7SOL     OW   38   1.135   0.703   0.717
    7SOL    HW1   39   1.192   0.781   0.692
    7SOL    HW2   40   1.075   0.729   0.793
    8SOL     OW   41   1.755   0.607   0.231
    8SOL    HW1   42   1.743   0.594   0.132
    8SOL    HW2   43   1.725   0.526   0.280
    9SOL     OW   44   0.768   1.144   1.023
    9SOL    HW1   45   0.690   1.161   1.083
    9SOL    HW2   46   0.802   1.231   0.987
   10SOL     OW   47   0.850   0.798   1.823
   10SOL    HW1   48   0.846   0.874   1.888
   10SOL    HW2   49   0.872   0.834   1.732
   11SOL     OW   50   0.685   1.012   0.665
   11SOL    HW1   51   0.754   0.996   0.735
   11SOL    HW2   52   0.612   1.069   0.703
   12SOL     OW   53   0.686   1.161   1.803
   12SOL    HW1   54   0.746   1.240   1.817
   12SOL    HW2   55   0.600   1.192   1.762
   13SOL     OW   56   0.335   1.435   1.061
   13SOL    HW1   57   0.257   1.404   1.008
   13SOL    HW2   58   0.393   1.493   1.004
   14SOL     OW   59   0.438   0.392   1.499
   14SOL    HW1   60   0.520   0.336   1.508
   14SOL    HW2   61   0.357   0.334   1.503
   15SOL     OW   62   1.603   0.447   0.737
   15SOL    HW1   63   1.529   0.493   0.687
   15SOL    HW2   64   1.654   0.515   0.790
   16SOL     OW   65   0.231   1.713   0.483
   16SOL    HW1   66   0.265   1.790   0.537
   16SOL    HW2   67   0.275   1.713   0.393
   17SOL     OW   68   1.127   1.341   1.690
   17SOL    HW1   69   1.174   1.341   1.778
   17SOL    HW2   70   1.079   1.254   1.679
   18SOL     OW   71   0.230   1.434   0.538
   18SOL    HW1   72   0.204   1.530   0.538
   18SOL    HW2   73   0.159   1.380   0.583
   19SOL     OW   74   0.240   1.091   0.886
   19SOL    HW1   75   0.254   1.007   0.938
   19SOL    HW2   76   0.185   1.155   0.941
   20SOL     OW   77   0.620   1.786   1.439
   20SOL    HW1   78   0.528   1.769   1.474
   20SOL    HW2   79   0.648   1.878   1.465
   21SOL     OW   80   0.606   0.964   0.123
   21SOL    HW1   81   0.613   1.048   0.069
   21SOL    HW2   82   0.652   0.977   0.211
   22SOL     OW   83   1.594   0.114   1.480
   22SOL    HW1   84   1.576   0.181   1.408
   22SOL    HW2   85   1.591   0.160   1.569
   23SOL     OW   86   0.122   0.643   0.563
   23SOL    HW1   87   0.077   0.555   0.580
   23SOL    HW2   88   0.121   0.697   0.647
   24SOL     OW   89   1.842   1.767   0.359
   24SOL    HW1   90   1.896   1.738   0.439
   24SOL    HW2   91   1.872   1.857   0.330
   25SOL     OW   92   0.027   1.596   0.117
   25SOL    HW1   93   0.008   1.500   0.138
   25SOL    HW2   94  -0.006   1.654   0.192
   26SOL     OW   95   1.689   0.922   0.612
   26SOL    HW1   96   1.784   0.893   0.620
   26SOL    HW2   97   1.681   0.987   0.537
   27SOL     OW   98   1.641   1.108   0.432
   27SOL    HW1   99   1.727   1.110   0.380
   27SOL    HW2  100   1.655   1.155   0.520
   28SOL     OW  101   0.113   0.737   1.597
   28SOL    HW1  102   0.201   0.724   1.642
   28SOL    HW2  103   0.100   0.834   1.575
   29SOL     OW  104   0.613   1.365   0.726
   29SOL    HW1  105   0.564   1.278   0.735
   29SOL    HW2  106   0.590   1.408   0.639
   30SOL     OW  107   0.809   0.004   0.502
   30SOL    HW1  108   0.849   0.095   0.493
   30SOL    HW2  109   0.709   0.012   0.508
   31SOL     OW  110   0.197   0.976   1.264
   31SOL    HW1  111   0.286   0.931   1.250
   31SOL    HW2  112   0.124   0.911   1.245
   32SOL     OW  113   1.525   0.999   0.190
   32SOL    HW1  114   1.462   0.923   0.203
   32SOL    HW2  115   1.573   1.017   0.276
   33SOL     OW  116   1.187   1.792   1.616
   33SOL    HW1  117   1.211   1.852   1.540
   33SOL    HW2  118   1.194   1.697   1.586
   34SOL     OW  119   0.317   0.251   1.801
   34SOL    HW1  120   0.388   0.322   1.807
   34SOL    HW2  121   0.229   0.290   1.829
   35SOL     OW  122   1.466   1.417   0.953
   35SOL    HW1  123   1.407   1.423   1.033
   35SOL    HW2  124   1.451   1.329   0.907
   36SOL     OW  125   1.667   1.714   0.572
   36SOL    HW1  126   1.626   1.691   0.484
   36SOL    HW2  127   1.649   1.640   0.637
   37SOL     OW  128   0.598   0.729   0.270
   37SOL    HW1  129   0.622   0.798   0.202
   37SOL    HW2  130   0.520   0.762   0.324
   38SOL     OW  131   1.281   0.345   0.944
   38SOL    HW1  132   1.195   0.295   0.931
   38SOL    HW2  133   1.343   0.291   1.000
   39SOL     OW  134   1.576   1.662   0.307
   39SOL    HW1  135   1.665   1.708   0.310
   39SOL    HW2  136   1.555   1.638   0.212
   40SOL     OW  137   0.807   0.605   1.465
   40SOL    HW1  138   0.760   0.602   1.554
   40SOL    HW2  139   0.756   0.550   1.399
   41SOL     OW  140   1.394   0.469   1.674
   41SOL    HW1  141   1.374   0.512   1.762
   41SOL    HW2  142   1.472   0.407   1.683
   42SOL     OW  143   0.973   0.890   1.572
   42SOL    HW1  144   1.019   0.806   1.543
   42SOL    HW2  145   0.917   0.924   1.497
   43SOL     OW  146   0.991   0.410   1.242
   43SOL    HW1  147   0.914   0.444   1.296
   43SOL    HW2  148   0.957   0.359   1.163
   44SOL     OW  149   1.041   0.701   0.429
   44SOL    HW1  150   1.067   0.697   0.525
   44SOL    HW2  151   0.956   0.650   0.415
   45SOL     OW  152   0.076   0.811   0.789
   45SOL    HW1  153   0.175   0.799   0.798
   45SOL    HW2  154   0.052   0.906   0.810
   46SOL     OW  155   0.130   1.821   1.571
   46SOL    HW1  156   0.120   1.806   1.670
   46SOL    HW2  157   0.044   1.857   1.535
   47SOL     OW  158   0.865   0.348   0.195
   47SOL    HW1  159   0.924   0.411   0.146
   47SOL    HW2  160   0.884   0.254   0.166
   48SOL     OW  161   1.719   0.585   1.831
   48SOL    HW1  162   1.693   0.674   1.795
   48SOL    HW2  163   1.717   0.517   1.758
   49SOL     OW  164   1.362   1.144   0.545
   49SOL    HW1  165   1.445   1.115   0.497
   49SOL    HW2  166   1.313   1.211   0.489
   50SOL     OW  167   0.550   0.196   0.885
   50SOL    HW1  168   0.545   0.191   0.985
   50SOL    HW2  169   0.552   0.292   0.856
   51SOL     OW  170   1.008   1.456   0.477
   51SOL    HW1  171   0.962   1.528   0.425
   51SOL    HW2  172   1.004   1.476   0.575
   52SOL     OW  173   0.351   1.801   0.853
   52SOL    HW1  174   0.401   1.715   0.859
   52SOL    HW2  175   0.416   1.878   0.850
   53SOL     OW  176   1.795   1.066   0.873
   53SOL    HW1  177   1.733   1.051   0.797
   53SOL    HW2  178   1.743   1.077   0.958
   54SOL     OW  179   0.321   0.943   0.242
   54SOL    HW1  180   0.403   0.982   0.200
   54SOL    HW2  181   0.294   0.861   0.193
   55SOL     OW  182   1.458   0.735   0.728
   55SOL    HW1  183   1.453   0.670   0.803
   55SOL    HW2  184   1.538   0.794   0.741
   56SOL     OW  185   0.461   1.266   1.727
   56SOL    HW1  186   0.411   1.267   1.641
   56SOL    HW2  187   0.398   1.248   1.803
   57SOL     OW  188   1.111   1.776   0.237
   57SOL    HW1  189   1.051   1.714   0.287
   57SOL    HW2  190   1.142   1.732   0.152
   58SOL     OW  191   0.202   0.285   1.498
   58SOL    HW1  192   0.122   0.345   1.485
   58SOL    HW2  193   0.192   0.236   1.584
   59SOL     OW  194   1.632   1.377   0.081
   59SOL    HW1  195   1.600   1.471   0.071
   59SOL    HW2  196   1.556   1.314   0.069
   60SOL     OW  197   0.464   1.743   0.323
   60SOL    HW1  198   0.497   1.782   0.409
   60SOL    HW2  199   0.540   1.736   0.258
   61SOL     OW  200   1.400   0.107   0.426
   61SOL    HW1  201   1.376   0.070   0.336
   61SOL    HW2  202   1.499   0.123   0.430
   62SOL     OW  203   0.249   1.785   1.241
   62SOL    HW1  204   0.306   1.720   1.291
   62SOL    HW2  205   0.233   1.752   1.148
   63SOL     OW  206   0.940   1.698   0.904
   63SOL    HW1  207   1.020   1.641   0.925
   63SOL    HW2  208   0.891   1.658   0.827
   64SOL     OW  209   0.382   0.700   0.480
   64SOL    HW1  210   0.427   0.610   0.477
   64SOL    HW2  211   0.288   0.689   0.513
   65SOL     OW  212   1.547   0.222   1.729
   65SOL    HW1  213   1.542   0.259   1.821
   65SOL    HW2  214   1.475   0.153   1.717
   66SOL     OW  215   0.614   0.122   0.117
   66SOL    HW1  216   0.712   0.100   0.124
   66SOL    HW2  217   0.583   0.105   0.024
   67SOL     OW  218   0.781   0.264   1.749
   67SOL    HW1  219   0.848   0.203   1.792
   67SOL    HW2  220   0.708   0.283   1.814
   68SOL     OW  221   0.888   1.514   1.195
   68SOL    HW1  222   0.865   1.489   1.101
   68SOL    HW2  223   0.949   1.445   1.234
   69SOL     OW  224   1.351   0.590   1.433
   69SOL    HW1  225   1.379   0.547   1.518
   69SOL    HW2  226   1.376   0.686   1.434
   70SOL     OW  227   0.803   1.402   0.924
   70SOL    HW1  228   0.893   1.416   0.882
   70SOL    HW2  229   0.732   1.404   0.853
   71SOL     OW  230   0.922   0.503   0.899
   71SOL    HW1  231   0.897   0.494   0.803
   71SOL    HW2  232   0.970   0.421   0.930
   72SOL     OW  233   0.539   0.064   0.512
   72SOL    HW1  234   0.458   0.065   0.570
   72SOL    HW2  235   0.542   0.147   0.457
   73SOL     OW  236   1.434   1.188   0.041
   73SOL    HW1  237   1.466   1.112   0.098
   73SOL    HW2  238   1.342   1.215   0.071
   74SOL     OW  239   0.297   0.035   0.171
   74SOL    HW1  240   0.346   0.119   0.150
   74SOL    HW2  241   0.359  -0.030   0.216
   75SOL     OW  242   0.935   0.236   0.480
   75SOL    HW1  243   0.887   0.277   0.402
   75SOL    HW2  244   1.034   0.234   0.461
   76SOL     OW  245   1.076   0.683   1.464
   76SOL    HW1  246   0.996   0.622   1.467
   76SOL    HW2  247   1.157   0.630   1.440
   77SOL     OW  248   1.227   1.570   0.793
   77SOL    HW1  249   1.248   1.644   0.728
   77SOL    HW2  250   1.295   1.570   0.866
   78SOL     OW  251   0.459   1.152   0.741
   78SOL    HW1  252   0.388   1.125   0.806
   78SOL    HW2  253   0.433   1.124   0.648
   79SOL     OW  254   1.271   1.797   0.591
   79SOL    HW1  255   1.315   1.861   0.527
   79SOL    HW2  256   1.221   1.849   0.661
   80SOL     OW  257   1.032   0.549   0.016
   80SOL    HW1  258   0.991   0.631  -0.023
   80SOL    HW2  259   1.096   0.575   0.089
   81SOL     OW  260   0.078   0.556   1.386
   81SOL    HW1  261   0.170   0.555   1.345
   81SOL    HW2  262   0.072   0.630   1.453
   82SOL     OW  263   0.561   0.222   1.147
   82SOL    HW1  264   0.599   0.138   1.184
   82SOL    HW2  265   0.473   0.241   1.191
   83SOL     OW  266   0.866   0.454   0.642
   83SOL    HW1  267   0.834   0.526   0.580
   83SOL    HW2  268   0.890   0.373   0.589
   84SOL     OW  269   1.017   0.039   0.753
   84SOL    HW1  270   0.945   0.044   0.684
   84SOL    HW2  271   0.993  -0.030   0.822
   85SOL     OW  272   1.429   1.173   0.867
   85SOL    HW1  273   1.374   1.089   0.860
   85SOL    HW2  274   1.455   1.202   0.775
   86SOL     OW  275   1.466   0.590   0.992
   86SOL    HW1  276   1.436   0.495   0.999
   86SOL    HW2  277   1.539   0.606   1.058
   87SOL     OW  278   1.857   0.833   0.377
   87SOL    HW1  279   1.899   0.769   0.441
   87SOL    HW2  280   1.819   0.782   0.299
   88SOL     OW  281   0.488   1.385   0.174
   88SOL    HW1  282   0.401   1.370   0.221
   88SOL    HW2  283   0.471   1.411   0.079
   89SOL     OW  284   1.664   1.280   0.657
   89SOL    HW1  285   1.763   1.288   0.671
   89SOL    HW2  286   1.619   1.364   0.688
   90SOL     OW  287   1.390   0.575   0.078
   90SOL    HW1  288   1.336   0.554   0.159
   90SOL    HW2  289   1.481   0.534   0.087
   91SOL     OW  290   0.527   0.256   0.328
   91SOL    HW1  291   0.554   0.197   0.253
   91SOL    HW2  292   0.527   0.351   0.297
   92SOL     OW  293   1.064   1.347   1.340
   92SOL    HW1  294   0.984   1.324   1.395
   92SOL    HW2  295   1.147   1.321   1.389
   93SOL     OW  296   1.111   1.195   1.100
   93SOL    HW1  297   1.071   1.239   1.181
   93SOL    HW2  298   1.070   1.232   1.017
   94SOL     OW  299   1.638   1.099   1.079
   94SOL    HW1  300   1.643   1.180   1.138
   94SOL    HW2  301   1.552   1.101   1.028
   95SOL     OW  302   0.915   0.089   1.402
   95SOL    HW1  303   0.940   0.069   1.307
   95SOL    HW2  304   0.987   0.145   1.444
   96SOL     OW  305   0.980   1.116   1.719
   96SOL    HW1  306   0.881   1.122   1.729
   96SOL    HW2  307   1.003   1.036   1.663
   97SOL     OW  308   0.705   1.050   0.368
   97SOL    HW1  309   0.691   1.057   0.467
   97SOL    HW2  310   0.789   0.999   0.350
   98SOL     OW  311   0.410   0.813   1.251
   98SOL    HW1  312   0.496   0.825   1.301
   98SOL    HW2  313   0.368   0.726   1.278
   99SOL     OW  314   1.274   0.386   1.262
   99SOL    HW1  315   1.295   0.460   1.326
   99SOL    HW2  316   1.185   0.403   1.219
  100SOL     OW  317   0.064   1.564   1.331
  100SOL    HW1  318   0.018   1.646   1.297
  100SOL    HW2  319   0.162   1.583   1.340
  101SOL     OW  320   0.367   1.100   0.501
  101SOL    HW1  321   0.360   1.183   0.445
  101SOL    HW2  322   0.371   1.020   0.441
  102SOL     OW  323   0.566   0.537   0.865
  102SOL    HW1  324   0.578   0.603   0.791
  102SOL    HW2  325   0.612   0.571   0.948
  103SOL     OW  326   1.252   1.348   0.388
  103SOL    HW1  327   1.302   1.425   0.428
  103SOL    HW2  328   1.157   1.350   0.420
  104SOL     OW  329   1.272   1.445   1.142
  104SOL    HW1  330   1.319   1.458   1.229
  104SOL    HW2  331   1.206   1.371   1.151
  105SOL     OW  332   1.582   0.639   0.472
  105SOL    HW1  333   1.551   0.700   0.545
  105SOL    HW2  334   1.632   0.691   0.403
  106SOL     OW  335   0.354   1.510   1.329
  106SOL    HW1  336   0.333   1.466   1.242
  106SOL    HW2  337   0.451   1.536   1.332
  107SOL     OW  338   0.402   0.751   1.598
  107SOL    HW1  339   0.470   0.806   1.551
  107SOL    HW2  340   0.442   0.663   1.625
  108SOL     OW  341   1.587   0.779   1.670
  108SOL    HW1  342   1.495   0.817   1.665
  108SOL    HW2  343   1.647   0.826   1.605
  109SOL     OW  344   1.013   0.105   1.770
  109SOL    HW1  345   1.019   0.190   1.718
  109SOL    HW2  346   1.045   0.029   1.713
  110SOL     OW  347   0.504   0.050   1.740
  110SOL    HW1  348   0.462  -0.007   1.670
  110SOL    HW2  349   0.438   0.119   1.772
  111SOL     OW  350   0.573   0.870   1.029
  111SOL    HW1  351   0.617   0.959   1.020
  111SOL    HW2  352   0.510   0.870   1.106
  112SOL     OW  353   1.360   0.862   1.045
  112SOL    HW1  354   1.285   0.862   0.979
  112SOL    HW2  355   1.397   0.770   1.054
  113SOL     OW  356   1.209   0.525   0.275
  113SOL    HW1  357   1.222   0.441   0.329
  113SOL    HW2  358   1.180   0.599   0.335
  114SOL     OW  359   0.307   0.213   1.231
  114SOL    HW1  360   0.284   0.250   1.321
  114SOL    HW2  361   0.277   0.118   1.225
  115SOL     OW  362   0.037   1.310   1.282
  115SOL    HW1  363   0.090   1.261   1.350
  115SOL    HW2  364   0.059   1.408   1.287
  116SOL     OW  365   0.732   0.634   1.064
  116SOL    HW1  366   0.791   0.608   0.988
  116SOL    HW2  367   0.704   0.730   1.053
  117SOL     OW  368   1.728   0.935   1.854
  117SOL    HW1  369   1.682   0.928   1.765
  117SOL    HW2  370   1.666   0.979   1.920
  118SOL     OW  371   0.307   0.063   0.618
  118SOL    HW1  372   0.296   0.157   0.651
  118SOL    HW2  373   0.302   0.000   0.695
  119SOL     OW  374   1.622   0.367   0.374
  119SOL    HW1  375   1.624   0.291   0.438
  119SOL    HW2  376   1.574   0.444   0.414
  120SOL     OW  377   1.023   0.766   0.966
  120SOL    HW1  378   1.038   0.787   1.062
  120SOL    HW2  379   0.993   0.671   0.957
  121SOL     OW  380   0.980   1.573   1.700
  121SOL    HW1  381   0.960   1.617   1.612
  121SOL    HW2  382   1.019   1.482   1.684
  122SOL     OW  383   0.350   0.898   1.804
  122SOL    HW1  384   0.426   0.942   1.852
  122SOL    HW2  385   0.385   0.851   1.722
  123SOL     OW  386   1.540   0.274   0.125
  123SOL    HW1  387   1.479   0.199   0.148
  123SOL    HW2  388   1.562   0.326   0.208
  124SOL     OW  389   1.303   0.838   0.042
  124SOL    HW1  390   1.337   0.745   0.057
  124SOL    HW2  391   1.321   0.865  -0.053
  125SOL     OW  392   1.068   1.333   0.849
  125SOL    HW1  393   1.075   1.249   0.794
  125SOL    HW2  394   1.130   1.402   0.813
  126SOL     OW  395   0.319   0.810   0.949
  126SOL    HW1  396   0.412   0.846   0.954
  126SOL    HW2  397   0.313   0.725   1.001
  127SOL     OW  398   0.339   0.509   1.006
  127SOL    HW1  399   0.287   0.426   0.989
  127SOL    HW2  400   0.416   0.514   0.942
  128SOL     OW  401   1.138   0.380   1.678
  128SOL    HW1  402   1.093   0.443   1.742
  128SOL    HW2  403   1.231   0.411   1.661
  129SOL     OW  404   1.160   0.207   1.477
  129SOL    HW1  405   1.160   0.271   1.554
  129SOL    HW2  406   1.188   0.255   1.394
  130SOL     OW  407   0.008   1.326   0.200
  130SOL    HW1  408  -0.085   1.347   0.169
  130SOL    HW2  409   0.018   1.227   0.213
  131SOL     OW  410   0.088   1.801   0.927
  131SOL    HW1  411   0.046   1.715   0.900
  131SOL    HW2  412   0.182   1.804   0.893
  132SOL     OW  413   0.504   1.568   0.910
  132SOL    HW1  414   0.570   1.642   0.919
  132SOL    HW2  415   0.548   1.489   0.868
  133SOL     OW  416   1.002   0.796   1.238
  133SOL    HW1  417   1.043   0.764   1.324
  133SOL    HW2  418   0.906   0.769   1.235
  134SOL     OW  419   0.040   0.544   1.114
  134SOL    HW1  420   0.125   0.511   1.073
  134SOL    HW2  421   0.053   0.559   1.212
  135SOL     OW  422   0.189   0.520   1.722
  135SOL    HW1  423   0.248   0.480   1.652
  135SOL    HW2  424   0.131   0.591   1.681
  136SOL     OW  425   1.369   0.950   1.660
  136SOL    HW1  426   1.408   1.039   1.680
  136SOL    HW2  427   1.379   0.930   1.563
  137SOL     OW  428   0.815   0.572   0.325
  137SOL    HW1  429   0.822   0.483   0.279
  137SOL    HW2  430   0.721   0.606   0.317
  138SOL     OW  431   1.657   0.604   1.206
  138SOL    HW1  432   1.619   0.535   1.268
  138SOL    HW2  433   1.739   0.568   1.162
  139SOL     OW  434   0.252   1.564   1.744
  139SOL    HW1  435   0.222   1.621   1.820
  139SOL    HW2  436   0.245   1.467   1.770
  140SOL     OW  437   0.671   0.464   1.269
  140SOL    HW1  438   0.637   0.375   1.239
  140SOL    HW2  439   0.697   0.518   1.189
  141SOL     OW  440   0.930   1.678   1.465
  141SOL    HW1  441   0.906   1.660   1.370
  141SOL    HW2  442   0.960   1.772   1.475
  142SOL     OW  443   0.473   0.500   0.191
  142SOL    HW1  444   0.534   0.580   0.195
  142SOL    HW2  445   0.378   0.531   0.198
  143SOL     OW  446   0.159   1.137   1.466
  143SOL    HW1  447   0.181   1.076   1.542
  143SOL    HW2  448   0.169   1.088   1.380
  144SOL     OW  449   1.347   1.059   1.234
  144SOL    HW1  450   1.371   0.996   1.160
  144SOL    HW2  451   1.257   1.099   1.216
  145SOL     OW  452   1.302   0.855   0.309
  145SOL    HW1  453   1.216   0.824   0.351
  145SOL    HW2  454   1.298   0.841   0.210
  146SOL     OW  455   1.759   1.747   1.154
  146SOL    HW1  456   1.820   1.777   1.081
  146SOL    HW2  457   1.721   1.658   1.132
  147SOL     OW  458   0.083   1.258   1.022
  147SOL    HW1  459   0.078   1.257   1.122
  147SOL    HW2  460   0.000   1.217   0.984
  148SOL     OW  461   0.688   1.662   1.716
  148SOL    HW1  462   0.632   1.743   1.725
  148SOL    HW2  463   0.740   1.666   1.630
  149SOL     OW  464   0.903   0.086   0.133
  149SOL    HW1  465   0.954   0.087   0.047
  149SOL    HW2  466   0.959   0.044   0.204
  150SOL     OW  467   1.726   0.135   0.523
  150SOL    HW1  468   1.799   0.118   0.456
  150SOL    HW2  469   1.695   0.048   0.561
  151SOL     OW  470   1.388   1.573   0.477
  151SOL    HW1  471   1.455   1.585   0.403
  151SOL    HW2  472   1.348   1.662   0.500
  152SOL     OW  473   0.130   1.794   1.851
  152SOL    HW1  474   0.089   1.720   1.904
  152SOL    HW2  475   0.194   1.845   1.909
  153SOL     OW  476   1.280   0.927   0.672
  153SOL    HW1  477   1.340   0.846   0.674
  153SOL    HW2  478   1.320   0.996   0.612
  154SOL     OW  479   0.830   1.273   1.422
  154SOL    HW1  480   0.825   1.306   1.517
  154SOL    HW2  481   0.744   1.292   1.376
  155SOL     OW  482   0.672   1.616   0.154
  155SOL    HW1  483   0.681   1.626   0.055
  155SOL    HW2  484   0.632   1.527   0.175
  156SOL     OW  485   1.841   0.175   0.963
  156SOL    HW1  486   1.880   0.090   0.927
  156SOL    HW2  487   1.743   0.177   0.944
  157SOL     OW  488   0.263   0.326   0.720
  157SOL    HW1  489   0.184   0.377   0.686
  157SOL    HW2  490   0.254   0.311   0.818
  158SOL     OW  491   1.194   1.612   0.031
  158SOL    HW1  492   1.200   1.519   0.068
  158SOL    HW2  493   1.135   1.612  -0.049
  159SOL     OW  494   0.822   1.002   1.372
  159SOL    HW1  495   0.862   1.001   1.280
  159SOL    HW2  496   0.832   1.094   1.412
  160SOL     OW  497   0.916   0.910   0.291
  160SOL    HW1  498   0.979   0.948   0.223
  160SOL    HW2  499   0.956   0.827   0.330
  161SOL     OW  500   1.504   1.607   0.044
  161SOL    HW1  501   1.412   1.644   0.051
  161SOL    HW2  502   1.542   1.627  -0.046
  162SOL     OW  503   0.372   1.288   1.490
  162SOL    HW1  504   0.359   1.381   1.456
  162SOL    HW2  505   0.288   1.236   1.477
  163SOL     OW  506   1.614   1.292   1.289
  163SOL    HW1  507   1.674   1.295   1.369
  163SOL    HW2  508   1.539   1.356   1.302
  164SOL     OW  509   1.039   1.098   0.696
  164SOL    HW1  510   0.969   1.051   0.750
  164SOL    HW2  511   1.098   1.030   0.653
  165SOL     OW  512   1.014   0.236   0.971
  165SOL    HW1  513   1.006   0.200   0.878
  165SOL    HW2  514   1.012   0.160   1.036
  166SOL     OW  515   0.590   1.487   0.491
  166SOL    HW1  516   0.632   1.429   0.421
  166SOL    HW2  517   0.546   1.566   0.447
  167SOL     OW  518   1.709   0.385   1.381
  167SOL    HW1  519   1.782   0.454   1.385
  167SOL    HW2  520   1.737   0.310   1.322
  168SOL     OW  521   0.255   1.348   0.290
  168SOL    HW1  522   0.159   1.349   0.263
  168SOL    HW2  523   0.267   1.401   0.374
  169SOL     OW  524   0.105   1.013   1.726
  169SOL    HW1  525   0.028   0.980   1.780
  169SOL    HW2  526   0.190   0.983   1.768
  170SOL     OW  527   0.672   0.203   1.489
  170SOL    HW1  528   0.762   0.187   1.449
  170SOL    HW2  529   0.680   0.208   1.588
  171SOL     OW  530   0.075   0.345   0.033
  171SOL    HW1  531  -0.017   0.317   0.004
  171SOL    HW2  532   0.106   0.422  -0.023
  172SOL     OW  533   1.440   0.856   1.398
  172SOL    HW1  534   1.383   0.908   1.335
  172SOL    HW2  535   1.536   0.868   1.374
  173SOL     OW  536   0.072   0.166   0.318
  173SOL    HW1  537   0.055   0.249   0.264
  173SOL    HW2  538   0.162   0.129   0.296
  174SOL     OW  539   1.183   1.335   0.119
  174SOL    HW1  540   1.084   1.324   0.121
  174SOL    HW2  541   1.217   1.350   0.212
  175SOL     OW  542   0.613   0.842   1.431
  175SOL    HW1  543   0.669   0.923   1.414
  175SOL    HW2  544   0.672   0.762   1.434
  176SOL     OW  545   1.493   1.767   0.959
  176SOL    HW1  546   1.526   1.831   0.890
  176SOL    HW2  547   1.559   1.761   1.034
  177SOL     OW  548   0.716   0.565   1.708
  177SOL    HW1  549   0.735   0.630   1.782
  177SOL    HW2  550   0.776   0.485   1.717
  178SOL     OW  551   1.450   1.220   1.633
  178SOL    HW1  552   1.441   1.210   1.732
  178SOL    HW2  553   1.546   1.213   1.607
  179SOL     OW  554   0.390   1.741   1.560
  179SOL    HW1  555   0.299   1.782   1.558
  179SOL    HW2  556   0.383   1.647   1.592
  180SOL     OW  557   1.674   0.883   1.254
  180SOL    HW1  558   1.647   0.794   1.217
  180SOL    HW2  559   1.675   0.951   1.181
  181SOL     OW  560   1.225   0.325   0.449
  181SOL    HW1  561   1.290   0.251   0.438
  181SOL    HW2  562   1.245   0.375   0.533
  182SOL     OW  563   0.594   0.745   0.652
  182SOL    HW1  564   0.644   0.830   0.633
  182SOL    HW2  565   0.506   0.747   0.604
  183SOL     OW  566   1.777   0.342   1.642
  183SOL    HW1  567   1.760   0.373   1.548
  183SOL    HW2  568   1.693   0.305   1.680
  184SOL     OW  569   1.730   0.934   1.517
  184SOL    HW1  570   1.768   1.025   1.532
  184SOL    HW2  571   1.722   0.917   1.418
  185SOL     OW  572   0.859   1.374   0.016
  185SOL    HW1  573   0.813   1.389   0.104
  185SOL    HW2  574   0.903   1.459  -0.014
  186SOL     OW  575   0.661   1.790   0.953
  186SOL    HW1  576   0.615   1.878   0.940
  186SOL    HW2  577   0.760   1.802   0.946
  187SOL     OW  578   0.859   0.956   0.861
  187SOL    HW1  579   0.913   0.887   0.909
  187SOL    HW2  580   0.827   1.025   0.927
  188SOL     OW  581   1.083   0.984   0.087
  188SOL    HW1  582   1.060   1.037   0.005
  188SOL    HW2  583   1.164   0.928   0.068
  189SOL     OW  584   1.861   1.569   0.851
  189SOL    HW1  585   1.790   1.557   0.781
  189SOL    HW2  586   1.862   1.490   0.911
  190SOL     OW  587   0.221   1.314   1.844
  190SOL    HW1  588   0.156   1.241   1.823
  190SOL    HW2  589   0.225   1.328   1.942
  191SOL     OW  590   0.079   1.240   0.653
  191SOL    HW1  591   0.078   1.193   0.741
  191SOL    HW2  592   0.161   1.212   0.602
  192SOL     OW  593   0.672   1.391   1.624
  192SOL    HW1  594   0.594   1.341   1.662
  192SOL    HW2  595   0.669   1.486   1.655
  193SOL     OW  596   1.824   0.192   1.227
  193SOL    HW1  597   1.820   0.102   1.271
  193SOL    HW2  598   1.827   0.181   1.128
  194SOL     OW  599   0.428   0.424   0.520
  194SOL    HW1  600   0.458   0.352   0.458
  194SOL    HW2  601   0.389   0.384   0.603
  195SOL     OW  602   1.705   1.487   1.104
  195SOL    HW1  603   1.612   1.462   1.077
  195SOL    HW2  604   1.731   1.437   1.186
  196SOL     OW  605   0.317   0.547   1.280
  196SOL    HW1  606   0.355   0.488   1.352
  196SOL    HW2  607   0.357   0.521   1.192
  197SOL     OW  608   0.812   1.586   0.687
  197SOL    HW1  609   0.844   1.596   0.593
  197SOL    HW2  610   0.733   1.524   0.689
  198SOL     OW  611   1.424   0.214   1.112
  198SOL    HW1  612   1.476   0.149   1.167
  198SOL    HW2  613   1.375   0.277   1.173
  199SOL     OW  614   1.001   0.034   1.154
  199SOL    HW1  615   0.938  -0.038   1.123
  199SOL    HW2  616   1.094  -0.002   1.154
  200SOL     OW  617   0.770   1.330   0.301
  200SOL    HW1  618   0.724   1.243   0.318
  200SOL    HW2  619   0.861   1.327   0.342
  201SOL     OW  620   0.618   1.567   1.284
  201SOL    HW1  621   0.613   1.649   1.341
  201SOL    HW2  622   0.707   1.564   1.239
  202SOL     OW  623   1.352   0.052   0.168
  202SOL    HW1  624   1.387   0.011   0.084
  202SOL    HW2  625   1.262   0.014   0.188
  203SOL     OW  626   1.300   0.453   0.691
  203SOL    HW1  627   1.241   0.533   0.695
  203SOL    HW2  628   1.315   0.418   0.784
  204SOL     OW  629   1.593   0.221   0.882
  204SOL    HW1  630   1.509   0.220   0.936
  204SOL    HW2  631   1.595   0.304   0.826
  205SOL     OW  632   0.039   1.077   0.300
  205SOL    HW1  633   0.138   1.066   0.291
  205SOL    HW2  634  -0.001   0.991   0.332
  206SOL     OW  635   0.875   1.646   0.337
  206SOL    HW1  636   0.798   1.611   0.283
  206SOL    HW2  637   0.843   1.717   0.399
  207SOL     OW  638   0.230   0.628   1.975
  207SOL    HW1  639   0.137   0.626   2.012
  207SOL    HW2  640   0.231   0.589   1.883
  208SOL     OW  641   0.225   0.275   2.858
  208SOL    HW1  642   0.260   0.258   2.950
  208SOL    HW2  643   0.137   0.230   2.846
  209SOL     OW  644   0.019   0.368   2.509
  209SOL    HW1  645  -0.063   0.411   2.548
  209SOL    HW2  646  -0.009   0.295   2.446
  210SOL     OW  647   1.555   1.511   2.565
  210SOL    HW1  648   1.498   1.495   2.646
  210SOL    HW2  649   1.496   1.521   2.485
  211SOL     OW  650   1.135   0.703   2.579
  211SOL    HW1  651   1.192   0.781   2.554
  211SOL    HW2  652   1.075   0.729   2.655
  212SOL     OW  653   1.755   0.607   2.093
  212SOL    HW1  654   1.743   0.594   1.994
  212SOL    HW2  655   1.725   0.526   2.142
  213SOL     OW  656   0.768   1.144   2.885
  213SOL    HW1  657   0.690   1.161   2.945
  213SOL    HW2  658   0.802   1.231   2.849
  214SOL     OW  659   0.685   1.012   2.527
  214SOL    HW1  660   0.754   0.996   2.597
  214SOL    HW2  661   0.612   1.069   2.565
  215SOL     OW  662   0.335   1.435   2.923
  215SOL    HW1  663   0.257   1.404   2.870
  215SOL    HW2  664   0.393   1.493   2.866
  216SOL     OW  665   1.603   0.447   2.599
  216SOL    HW1  666   1.529   0.493   2.549
  216SOL    HW2  667   1.654   0.515   2.652
  217SOL     OW  668   0.231   1.713   2.345
  217SOL    HW1  669   0.265   1.790   2.399
  217SOL    HW2  670   0.275   1.713   2.255
  218SOL     OW  671   0.230   1.434   2.400
  218SOL    HW1  672   0.204   1.530   2.400
  218SOL    HW2  673   0.159   1.380   2.445
  219SOL     OW  674   0.240   1.091   2.748
  219SOL    HW1  675   0.254   1.007   2.800
  219SOL    HW2  676   0.185   1.155   2.803
  220SOL     OW  677   0.606   0.964   1.985
  220SOL    HW1  678   0.613   1.048   1.931
  220SOL    HW2  679   0.652   0.977   2.073
  221SOL     OW  680   0.122   0.643   2.425
  221SOL    HW1  681   0.077   0.555   2.442
  221SOL    HW2  682   0.121   0.697   2.509
  222SOL     OW  683   1.842   1.767   2.221
  222SOL    HW1  684   1.896   1.738   2.301
  222SOL    HW2  685   1.872   1.857   2.192
  223SOL     OW  686   0.027   1.596   1.979
  223SOL    HW1  687   0.008   1.500   2.000
  223SOL    HW2  688  -0.006   1.654   2.054
  224SOL     OW  689   1.689   0.922   2.474
  224SOL    HW1  690   1.784   0.893   2.482
  224SOL    HW2  691   1.681   0.987   2.399
  225SOL     OW  692   1.641   1.108   2.294
  225SOL    HW1  693   1.727   1.110   2.242
  225SOL    HW2  694   1.655   1.155   2.382
  226SOL     OW  695   0.613   1.365   2.588
  226SOL    HW1  696   0.564   1.278   2.597
  226SOL    HW2  697   0.590   1.408   2.501
  227SOL     OW  698   0.809   0.004   2.364
  227SOL    HW1  699   0.849   0.095   2.355
  227SOL    HW2  700   0.709   0.012   2.370
  228SOL     OW  701   0.197   0.976   3.126
  228SOL    HW1  702   0.286   0.931   3.112
  228SOL    HW2  703   0.124   0.911   3.107
  229SOL     OW  704   1.525   0.999   2.052
  229SOL    HW1  705   1.462   0.923   2.065
  229SOL    HW2  706   1.573   1.017   2.138
  230SOL     OW  707   1.466   1.417   2.815
  230SOL    HW1  708   1.407   1.423   2.895
  230SOL    HW2  709   1.451   1.329   2.769
  231SOL     OW  710   1.667   1.714   2.434
  231SOL    HW1  711   1.626   1.691   2.346
  231SOL    HW2  712   1.649   1.640   2.499
  232SOL     OW  713   0.598   0.729   2.132
  232SOL    HW1  714   0.622   0.798   2.064
  232SOL    HW2  715   0.520   0.762   2.186
  233SOL     OW  716   1.281   0.345   2.806
  233SOL    HW1  717   1.195   0.295   2.793
  233SOL    HW2  718   1.343   0.291   2.862
  234SOL     OW  719   1.576   1.662   2.169
  234SOL    HW1  720   1.665   1.708   2.172
  234SOL    HW2  721   1.555   1.638   2.074
  235SOL     OW  722   1.041   0.701   2.291
  235SOL    HW1  723   1.067   0.697   2.387
  235SOL    HW2  724   0.956   0.650   2.277
  236SOL     OW  725   0.076   0.811   2.651
  236SOL    HW1  726   0.175   0.799   2.660
  236SOL    HW2  727   0.052   0.906   2.672
  237SOL     OW  728   0.865   0.348   2.057
  237SOL    HW1  729   0.924   0.411   2.008
  237SOL    HW2  730   0.884   0.254   2.028
  238SOL     OW  731   1.362   1.144   2.407
  238SOL    HW1  732   1.445   1.115   2.359
  238SOL    HW2  733   1.313   1.211   2.351
  239SOL     OW  734   0.550   0.196   2.747
  239SOL    HW1  735   0.545   0.191   2.847
  239SOL    HW2  736   0.552   0.292   2.718
  240SOL     OW  737   1.008   1.456   2.339
  240SOL    HW1  738   0.962   1.528   2.287
  240SOL    HW2  739   1.004   1.476   2.437
  241SOL     OW  740   0.351   1.801   2.715
  241SOL    HW1  741   0.401   1.715   2.721
  241SOL    HW2  742   0.416   1.878   2.712
  242SOL     OW  743   1.795   1.066   2.735
  242SOL    HW1  744   1.733   1.051   2.659
  242SOL    HW2  745   1.743   1.077   2.820
  243SOL     OW  746   0.321   0.943   2.104
  243SOL    HW1  747   0.403   0.982   2.062
  243SOL    HW2  748   0.294   0.861   2.055
  244SOL     OW  749   1.458   0.735   2.590
  244SOL    HW1  750   1.453   0.670   2.665
  244SOL    HW2  751   1.538   0.794   2.603
  245SOL     OW  752   1.111   1.776   2.099
  245SOL    HW1  753   1.051   1.714   2.149
  245SOL    HW2  754   1.142   1.732   2.014
  246SOL     OW  755   0.464   1.743   2.185
  246SOL    HW1  756   0.497   1.782   2.271
  246SOL    HW2  757   0.540   1.736   2.120
  247SOL     OW  758   1.400   0.107   2.288
  247SOL    HW1  759   1.376   0.070   2.198
  247SOL    HW2  760   1.499   0.123   2.292
  248SOL     OW  761   0.249   1.785   3.103
  248SOL    HW1  762   0.306   1.720   3.153
  248SOL    HW2  763   0.233   1.752   3.010
  249SOL     OW  764   0.940   1.698   2.766
  249SOL    HW1  765   1.020   1.641   2.787
  249SOL    HW2  766   0.891   1.658   2.689
  250SOL     OW  767   0.382   0.700   2.342
  250SOL    HW1  768   0.427   0.610   2.339
  250SOL    HW2  769   0.288   0.689   2.375
  251SOL     OW  770   0.614   0.122   1.979
  251SOL    HW1  771   0.712   0.100   1.986
  251SOL    HW2  772   0.583   0.105   1.886
  252SOL     OW  773   0.803   1.402   2.786
  252SOL    HW1  774   0.893   1.416   2.744
  252SOL    HW2  775   0.732   1.404   2.715
  253SOL     OW  776   0.922   0.503   2.761
  253SOL    HW1  777   0.897   0.494   2.665
  253SOL    HW2  778   0.970   0.421   2.792
  254SOL     OW  779   0.539   0.064   2.374
  254SOL    HW1  780   0.458   0.065   2.432
  254SOL    HW2  781   0.542   0.147   2.319
  255SOL     OW  782   1.434   1.188   1.903
  255SOL    HW1  783   1.466   1.112   1.960
  255SOL    HW2  784   1.342   1.215   1.933
  256SOL     OW  785   0.297   0.035   2.033
  256SOL    HW1  786   0.346   0.119   2.012
  256SOL    HW2  787   0.359  -0.030   2.078
  257SOL     OW  788   0.935   0.236   2.342
  257SOL    HW1  789   0.887   0.277   2.264
  257SOL    HW2  790   1.034   0.234   2.323
  258SOL     OW  791   1.227   1.570   2.655
  258SOL    HW1  792   1.248   1.644   2.590
  258SOL    HW2  793   1.295   1.570   2.728
  259SOL     OW  794   0.459   1.152   2.603
  259SOL    HW1  795   0.388   1.125   2.668
  259SOL    HW2  796   0.433   1.124   2.510
  260SOL     OW  797   1.271   1.797   2.453
  260SOL    HW1  798   1.315   1.861   2.389
  260SOL    HW2  799   1.221   1.849   2.523
  261SOL     OW  800   1.032   0.549   1.878
  261SOL    HW1  801   0.991   0.631   1.839
  261SOL    HW2  802   1.096   0.575   1.951
  262SOL     OW  803   0.866   0.454   2.504
  262SOL    HW1  804   0.834   0.526   2.442
  262SOL    HW2  805   0.890   0.373   2.451
  263SOL     OW  806   1.017   0.039   2.615
  263SOL    HW1  807   0.945   0.044   2.546
  263SOL    HW2  808   0.993  -0.030   2.684
  264SOL     OW  809   1.429   1.173   2.729
  264SOL    HW1  810   1.374   1.089   2.722
  264SOL    HW2  811   1.455   1.202   2.637
  265SOL     OW  812   1.466   0.590   2.854
  265SOL    HW1  813   1.436   0.495   2.861
  265SOL    HW2  814   1.539   0.606   2.920
  266SOL     OW  815   1.857   0.833   2.239
  266SOL    HW1  816   1.899   0.769   2.303
  266SOL    HW2  817   1.819   0.782   2.161
  267SOL     OW  818   0.488   1.385   2.036
  267SOL    HW1  819   0.401   1.370   2.083
  267SOL    HW2  820   0.471   1.411   1.941
  268SOL     OW  821   1.664   1.280   2.519
  268SOL    HW1  822   1.763   1.288   2.533
  268SOL    HW2  823   1.619   1.364   2.550
  269SOL     OW  824   1.390   0.575   1.940
  269SOL    HW1  825   1.336   0.554   2.021
  269SOL    HW2  826   1.481   0.534   1.949
  270SOL     OW  827   0.527   0.256   2.190
  270SOL    HW1  828   0.554   0.197   2.115
  270SOL    HW2  829   0.527   0.351   2.159
  271SOL     OW  830   1.111   1.195   2.962
  271SOL    HW1  831   1.071   1.239   3.043
  271SOL    HW2  832   1.070   1.232   2.879
  272SOL     OW  833   1.638   1.099   2.941
  272SOL    HW1  834   1.643   1.180   3.000
  272SOL    HW2  835   1.552   1.101   2.890
  273SOL     OW  836   0.705   1.050   2.230
  273SOL    HW1  837   0.691   1.057   2.329
  273SOL    HW2  838   0.789   0.999   2.212
  274SOL     OW  839   0.410   0.813   3.113
  274SOL    HW1  840   0.496   0.825   3.163
  274SOL    HW2  841   0.368   0.726   3.140
  275SOL     OW  842   0.367   1.100   2.363
  275SOL    HW1  843   0.360   1.183   2.307
  275SOL    HW2  844   0.371   1.020   2.303
  276SOL     OW  845   0.566   0.537   2.727
  276SOL    HW1  846   0.578   0.603   2.653
  276SOL    HW2  847   0.612   0.571   2.810
  277SOL     OW  848   1.252   1.348   2.250
  277SOL    HW1  849   1.302   1.425   2.290
  277SOL    HW2  850   1.157   1.350   2.282
  278SOL     OW  851   1.582   0.639   2.334
  278SOL    HW1  852   1.551   0.700   2.407
  278SOL    HW2  853   1.632   0.691   2.265
  279SOL     OW  854   0.354   1.510   3.191
  279SOL    HW1  855   0.333   1.466   3.104
  279SOL    HW2  856   0.451   1.536   3.194
  280SOL     OW  857   0.573   0.870   2.891
  280SOL    HW1  858   0.617   0.959   2.882
  280SOL    HW2  859   0.510   0.870   2.968
  281SOL     OW  860   1.209   0.525   2.137
  281SOL    HW1  861   1.222   0.441   2.191
  281SOL    HW2  862   1.180   0.599   2.197
  282SOL     OW  863   0.732   0.634   2.926
  282SOL    HW1  864   0.791   0.608   2.850
  282SOL    HW2  865   0.704   0.730   2.915
  283SOL     OW  866   0.307   0.063   2.480
  283SOL    HW1  867   0.296   0.157   2.513
  283SOL    HW2  868   0.302   0.000   2.557
  284SOL     OW  869   1.622   0.367   2.236
  284SOL    HW1  870   1.624   0.291   2.300
  284SOL    HW2  871   1.574   0.444   2.276
  285SOL     OW  872   1.023   0.766   2.828
  285SOL    HW1  873   1.038   0.787   2.924
  285SOL    HW2  874   0.993   0.671   2.819
  286SOL     OW  875   1.540   0.274   1.987
  286SOL    HW1  876   1.479   0.199   2.010
  286SOL    HW2  877   1.562   0.326   2.070
  287SOL     OW  878   1.303   0.838   1.904
  287SOL    HW1  879   1.337   0.745   1.919
  287SOL    HW2  880   1.321   0.865   1.809
  288SOL     OW  881   1.068   1.333   2.711
  288SOL    HW1  882   1.075   1.249   2.656
  288SOL    HW2  883   1.130   1.402   2.675
  289SOL     OW  884   0.319   0.810   2.811
  289SOL    HW1  885   0.412   0.846   2.816
  289SOL    HW2  886   0.313   0.725   2.863
  290SOL     OW  887   0.339   0.509   2.868
  290SOL    HW1  888   0.287   0.426   2.851
  290SOL    HW2  889   0.416   0.514   2.804
  291SOL     OW  890   0.008   1.326   2.062
  291SOL    HW1  891  -0.085   1.347   2.031
  291SOL    HW2  892   0.018   1.227   2.075
  292SOL     OW  893   0.088   1.801   2.789
  292SOL    HW1  894   0.046   1.715   2.762
  292SOL    HW2  895   0.182   1.804   2.755
  293SOL     OW  896   0.504   1.568   2.772
  293SOL    HW1  897   0.570   1.642   2.781
  293SOL    HW2  898   0.548   1.489   2.730
  294SOL     OW  899   1.002   0.796   3.100
  294SOL    HW1  900   1.043   0.764   3.186
  294SOL    HW2  901   0.906   0.769   3.097
  295SOL     OW  902   0.815   0.572   2.187
  295SOL    HW1  903   0.822   0.483   2.141
  295SOL    HW2  904   0.721   0.606   2.179
  296SOL     OW  905   0.671   0.464   3.131
  296SOL    HW1  906   0.637   0.375   3.101
  296SOL    HW2  907   0.697   0.518   3.051
  297SOL     OW  908   0.473   0.500   2.053
  297SOL    HW1  909   0.534   0.580   2.057
  297SOL    HW2  910   0.378   0.531   2.060
  298SOL     OW  911   1.302   0.855   2.171
  298SOL    HW1  912   1.216   0.824   2.213
  298SOL    HW2  913   1.298   0.841   2.072
  299SOL     OW  914   1.759   1.747   3.016
  299SOL    HW1  915   1.820   1.777   2.943
  299SOL    HW2  916   1.721   1.658   2.994
  300SOL     OW  917   0.083   1.258   2.884
  300SOL    HW1  918   0.078   1.257   2.984
  300SOL    HW2  919   0.000   1.217   2.846
  301SOL     OW  920   1.726   0.135   2.385
  301SOL    HW1  921   1.799   0.118   2.318
  301SOL    HW2  922   1.695   0.048   2.423
  302SOL     OW  923   1.388   1.573   2.339
  302SOL    HW1  924   1.455   1.585   2.265
  302SOL    HW2  925   1.348   1.662   2.362
  303SOL     OW  926   1.280   0.927   2.534
  303SOL    HW1  927   1.340   0.846   2.536
  303SOL    HW2  928   1.320   0.996   2.474
  304SOL     OW  929   0.672   1.616   2.016
  304SOL    HW1  930   0.681   1.626   1.917
  304SOL    HW2  931   0.632   1.527   2.037
  305SOL     OW  932   1.841   0.175   2.825
  305SOL    HW1  933   1.880   0.090   2.789
  305SOL    HW2  934   1.743   0.177   2.806
  306SOL     OW  935   0.263   0.326   2.582
  306SOL    HW1  936   0.184   0.377   2.548
  306SOL    HW2  937   0.254   0.311   2.680
  307SOL     OW  938   1.194   1.612   1.893
  307SOL    HW1  939   1.200   1.519   1.930
  307SOL    HW2  940   1.135   1.612   1.813
  308SOL     OW  941   0.916   0.910   2.153
  308SOL    HW1  942   0.979   0.948   2.085
  308SOL    HW2  943   0.956   0.827   2.192
  309SOL     OW  944   1.039   1.098   2.558
  309SOL    HW1  945   0.969   1.051   2.612
  309SOL    HW2  946   1.098   1.030   2.515
  310SOL     OW  947   1.014   0.236   2.833
  310SOL    HW1  948   1.006   0.200   2.740
  310SOL    HW2  949   1.012   0.160   2.898
  311SOL     OW  950   0.590   1.487   2.353
  311SOL    HW1  951   0.632   1.429   2.283
  311SOL    HW2  952   0.546   1.566   2.309
  312SOL     OW  953   0.255   1.348   2.152
  312SOL    HW1  954   0.159   1.349   2.125
  312SOL    HW2  955   0.267   1.401   2.236
  313SOL     OW  956   0.075   0.345   1.895
  313SOL    HW1  957  -0.017   0.317   1.866
  313SOL    HW2  958   0.106   0.422   1.839
  314SOL     OW  959   0.072   0.166   2.180
  314SOL    HW1  960   0.055   0.249   2.126
  314SOL    HW2  961   0.162   0.129   2.158
  315SOL     OW  962   1.183   1.335   1.981
  315SOL    HW1  963   1.084   1.324   1.983
  315SOL    HW2  964   1.217   1.350   2.074
  316SOL     OW  965   1.493   1.767   2.821
  316SOL    HW1  966   1.526   1.831   2.752
  316SOL    HW2  967   1.559   1.761   2.896
  317SOL     OW  968   1.674   0.883   3.116
  317SOL    HW1  969   1.647   0.794   3.079
  317SOL    HW2  970   1.675   0.951   3.043
  318SOL     OW  971   1.225   0.325   2.311
  318SOL    HW1  972   1.290   0.251   2.300
  318SOL    HW2  973   1.245   0.375   2.395
  319SOL     OW  974   0.594   0.745   2.514
  319SOL    HW1  975   0.644   0.830   2.495
  319SOL    HW2  976   0.506   0.747   2.466
  320SOL     OW  977   0.859   1.374   1.878
  320SOL    HW1  978   0.813   1.389   1.966
  320SOL    HW2  979   0.903   1.459   1.848
  321SOL     OW  980   0.661   1.790   2.815
  321SOL    HW1  981   0.615   1.878   2.802
  321SOL    HW2  982   0.760   1.802   2.808
  322SOL     OW  983   0.859   0.956   2.723
  322SOL    HW1  984   0.913   0.887   2.771
  322SOL    HW2  985   0.827   1.025   2.789
  323SOL     OW  986   1.083   0.984   1.949
  323SOL    HW1  987   1.060   1.037   1.867
  323SOL    HW2  988   1.164   0.928   1.930
  324SOL     OW  989   1.861   1.569   2.713
  324SOL    HW1  990   1.790   1.557   2.643
  324SOL    HW2  991   1.862   1.490   2.773
  325SOL     OW  992   0.079   1.240   2.515
  325SOL    HW1  993   0.078   1.193   2.603
  325SOL    HW2  994   0.161   1.212   2.464
  326SOL     OW  995   1.824   0.192   3.089
  326SOL    HW1  996   1.820   0.102   3.133
  326SOL    HW2  997   1.827   0.181   2.990
  327SOL     OW  998   0.428   0.424   2.382
  327SOL    HW1  999   0.458   0.352   2.320
  327SOL    HW2 1000   0.389   0.384   2.465
  328SOL     OW 1001   0.812   1.586   2.549
  328SOL    HW1 1002   0.844   1.596   2.455
  328SOL    HW2 1003   0.733   1.524   2.551
  329SOL     OW 1004   1.424   0.214   2.974
  329SOL    HW1 1005   1.476   0.149   3.029
  329SOL    HW2 1006   1.375   0.277   3.035
  330SOL     OW 1007   0.770   1.330   2.163
  330SOL    HW1 1008   0.724   1.243   2.180
  330SOL    HW2 1009   0.861   1.327   2.204
  331SOL     OW 1010   1.352   0.052   2.030
  331SOL    HW1 1011   1.387   0.011   1.946
  331SOL    HW2 1012   1.262   0.014   2.050
  332SOL     OW 1013   1.300   0.453   2.553
  332SOL    HW1 1014   1.241   0.533   2.557
  332SOL    HW2 1015   1.315   0.418   2.646
  333SOL     OW 1016   1.593   0.221   2.744
  333SOL    HW1 1017   1.509   0.220   2.798
  333SOL    HW2 1018   1.595   0.304   2.688
  334SOL     OW 1019   0.039   1.077   2.162
  334SOL    HW1 1020   0.138   1.066   2.153
  334SOL    HW2 1021  -0.001   0.991   2.194
  335SOL     OW 1022   0.875   1.646   2.199
  335SOL    HW1 1023   0.798   1.611   2.145
  335SOL    HW2 1024   0.843   1.717   2.261
  336SOL     OW 1025   0.230   2.490   0.113
  336SOL    HW1 1026   0.137   2.488   0.150
  336SOL    HW2 1027   0.231   2.451   0.021
  337SOL     OW 1028   0.225   2.137   0.996
  337SOL    HW1 1029   0.260   2.120   1.088
  337SOL    HW2 1030   0.137   2.092   0.984
  338SOL     OW 1031   0.019   2.230   0.647
  338SOL    HW1 1032  -0.063   2.273   0.686
  338SOL    HW2 1033  -0.009   2.157   0.584
  339SOL     OW 1034   1.135   2.565   0.717
  339SOL    HW1 1035   1.192   2.643   0.692
  339SOL    HW2 1036   1.075   2.591   0.793
  340SOL     OW 1037   1.755   2.469   0.231
  340SOL    HW1 1038   1.743   2.456   0.132
  340SOL    HW2 1039   1.725   2.388   0.280
  341SOL     OW 1040   0.768   3.006   1.023
  341SOL    HW1 1041   0.690   3.023   1.083
  341SOL    HW2 1042   0.802   3.093   0.987
  342SOL     OW 1043   0.850   2.660   1.823
  342SOL    HW1 1044   0.846   2.736   1.888
  342SOL    HW2 1045   0.872   2.696   1.732
  343SOL     OW 1046   0.685   2.874   0.665
  343SOL    HW1 1047   0.754   2.858   0.735
  343SOL    HW2 1048   0.612   2.931   0.703
  344SOL     OW 1049   0.438   2.254   1.499
  344SOL    HW1 1050   0.520   2.198   1.508
  344SOL    HW2 1051   0.357   2.196   1.503
  345SOL     OW 1052   1.603   2.309   0.737
  345SOL    HW1 1053   1.529   2.355   0.687
  345SOL    HW2 1054   1.654   2.377   0.790
  346SOL     OW 1055   0.230   3.296   0.538
  346SOL    HW1 1056   0.204   3.392   0.538
  346SOL    HW2 1057   0.159   3.242   0.583
  347SOL     OW 1058   0.240   2.953   0.886
  347SOL    HW1 1059   0.254   2.869   0.938
  347SOL    HW2 1060   0.185   3.017   0.941
  348SOL     OW 1061   0.606   2.826   0.123
  348SOL    HW1 1062   0.613   2.910   0.069
  348SOL    HW2 1063   0.652   2.839   0.211
  349SOL     OW 1064   1.594   1.976   1.480
  349SOL    HW1 1065   1.576   2.043   1.408
  349SOL    HW2 1066   1.591   2.022   1.569
  350SOL     OW 1067   0.122   2.505   0.563
  350SOL    HW1 1068   0.077   2.417   0.580
  350SOL    HW2 1069   0.121   2.559   0.647
  351SOL     OW 1070   1.689   2.784   0.612
  351SOL    HW1 1071   1.784   2.755   0.620
  351SOL    HW2 1072   1.681   2.849   0.537
  352SOL     OW 1073   0.113   2.599   1.597
  352SOL    HW1 1074   0.201   2.586   1.642
  352SOL    HW2 1075   0.100   2.696   1.575
  353SOL     OW 1076   1.293   3.090   1.423
  353SOL    HW1 1077   1.330   3.017   1.365
  353SOL    HW2 1078   1.345   3.095   1.508
  354SOL     OW 1079   0.809   1.866   0.502
  354SOL    HW1 1080   0.849   1.957   0.493
  354SOL    HW2 1081   0.709   1.874   0.508
  355SOL     OW 1082   0.197   2.838   1.264
  355SOL    HW1 1083   0.286   2.793   1.250
  355SOL    HW2 1084   0.124   2.773   1.245
  356SOL     OW 1085   1.525   2.861   0.190
  356SOL    HW1 1086   1.462   2.785   0.203
  356SOL    HW2 1087   1.573   2.879   0.276
  357SOL     OW 1088   0.317   2.113   1.801
  357SOL    HW1 1089   0.388   2.184   1.807
  357SOL    HW2 1090   0.229   2.152   1.829
  358SOL     OW 1091   0.598   2.591   0.270
  358SOL    HW1 1092   0.622   2.660   0.202
  358SOL    HW2 1093   0.520   2.624   0.324
  359SOL     OW 1094   1.281   2.207   0.944
  359SOL    HW1 1095   1.195   2.157   0.931
  359SOL    HW2 1096   1.343   2.153   1.000
  360SOL     OW 1097   0.807   2.467   1.465
  360SOL    HW1 1098   0.760   2.464   1.554
  360SOL    HW2 1099   0.756   2.412   1.399
  361SOL     OW 1100   1.394   2.331   1.674
  361SOL    HW1 1101   1.374   2.374   1.762
  361SOL    HW2 1102   1.472   2.269   1.683
  362SOL     OW 1103   0.973   2.752   1.572
  362SOL    HW1 1104   1.019   2.668   1.543
  362SOL    HW2 1105   0.917   2.786   1.497
  363SOL     OW 1106   0.991   2.272   1.242
  363SOL    HW1 1107   0.914   2.306   1.296
  363SOL    HW2 1108   0.957   2.221   1.163
  364SOL     OW 1109   1.041   2.563   0.429
  364SOL    HW1 1110   1.067   2.559   0.525
  364SOL    HW2 1111   0.956   2.512   0.415
  365SOL     OW 1112   0.076   2.673   0.789
  365SOL    HW1 1113   0.175   2.661   0.798
  365SOL    HW2 1114   0.052   2.768   0.810
  366SOL     OW 1115   0.865   2.210   0.195
  366SOL    HW1 1116   0.924   2.273   0.146
  366SOL    HW2 1117   0.884   2.116   0.166
  367SOL     OW 1118   1.719   2.447   1.831
  367SOL    HW1 1119   1.693   2.536   1.795
  367SOL    HW2 1120   1.717   2.379   1.758
  368SOL     OW 1121   0.550   2.058   0.885
  368SOL    HW1 1122   0.545   2.053   0.985
  368SOL    HW2 1123   0.552   2.154   0.856
  369SOL     OW 1124   1.795   2.928   0.873
  369SOL    HW1 1125   1.733   2.913   0.797
  369SOL    HW2 1126   1.743   2.939   0.958
  370SOL     OW 1127   0.321   2.805   0.242
  370SOL    HW1 1128   0.403   2.844   0.200
  370SOL    HW2 1129   0.294   2.723   0.193
  371SOL     OW 1130   1.458   2.597   0.728
  371SOL    HW1 1131   1.453   2.532   0.803
  371SOL    HW2 1132   1.538   2.656   0.741
  372SOL     OW 1133   0.202   2.147   1.498
  372SOL    HW1 1134   0.122   2.207   1.485
  372SOL    HW2 1135   0.192   2.098   1.584
  373SOL     OW 1136   1.400   1.969   0.426
  373SOL    HW1 1137   1.376   1.932   0.336
  373SOL    HW2 1138   1.499   1.985   0.430
  374SOL     OW 1139   0.382   2.562   0.480
  374SOL    HW1 1140   0.427   2.472   0.477
  374SOL    HW2 1141   0.288   2.551   0.513
  375SOL     OW 1142   1.547   2.084   1.729
  375SOL    HW1 1143   1.542   2.121   1.821
  375SOL    HW2 1144   1.475   2.015   1.717
  376SOL     OW 1145   0.614   1.984   0.117
  376SOL    HW1 1146   0.712   1.962   0.124
  376SOL    HW2 1147   0.583   1.967   0.024
  377SOL     OW 1148   0.781   2.126   1.749
  377SOL    HW1 1149   0.848   2.065   1.792
  377SOL    HW2 1150   0.708   2.145   1.814
  378SOL     OW 1151   1.351   2.452   1.433
  378SOL    HW1 1152   1.379   2.409   1.518
  378SOL    HW2 1153   1.376   2.548   1.434
  379SOL     OW 1154   0.922   2.365   0.899
  379SOL    HW1 1155   0.897   2.356   0.803
  379SOL    HW2 1156   0.970   2.283   0.930
  380SOL     OW 1157   0.539   1.926   0.512
  380SOL    HW1 1158   0.458   1.927   0.570
  380SOL    HW2 1159   0.542   2.009   0.457
  381SOL     OW 1160   0.935   2.098   0.480
  381SOL    HW1 1161   0.887   2.139   0.402
  381SOL    HW2 1162   1.034   2.096   0.461
  382SOL     OW 1163   1.076   2.545   1.464
  382SOL    HW1 1164   0.996   2.484   1.467
  382SOL    HW2 1165   1.157   2.492   1.440
  383SOL     OW 1166   0.459   3.014   0.741
  383SOL    HW1 1167   0.388   2.987   0.806
  383SOL    HW2 1168   0.433   2.986   0.648
  384SOL     OW 1169   1.032   2.411   0.016
  384SOL    HW1 1170   0.991   2.493  -0.023
  384SOL    HW2 1171   1.096   2.437   0.089
  385SOL     OW 1172   0.078   2.418   1.386
  385SOL    HW1 1173   0.170   2.417   1.345
  385SOL    HW2 1174   0.072   2.492   1.453
  386SOL     OW 1175   0.561   2.084   1.147
  386SOL    HW1 1176   0.599   2.000   1.184
  386SOL    HW2 1177   0.473   2.103   1.191
  387SOL     OW 1178   0.866   2.316   0.642
  387SOL    HW1 1179   0.834   2.388   0.580
  387SOL    HW2 1180   0.890   2.235   0.589
  388SOL     OW 1181   1.017   1.901   0.753
  388SOL    HW1 1182   0.945   1.906   0.684
  388SOL    HW2 1183   0.993   1.832   0.822
  389SOL     OW 1184   1.429   3.035   0.867
  389SOL    HW1 1185   1.374   2.951   0.860
  389SOL    HW2 1186   1.455   3.064   0.775
  390SOL     OW 1187   1.466   2.452   0.992
  390SOL    HW1 1188   1.436   2.357   0.999
  390SOL    HW2 1189   1.539   2.468   1.058
  391SOL     OW 1190   1.857   2.695   0.377
  391SOL    HW1 1191   1.899   2.631   0.441
  391SOL    HW2 1192   1.819   2.644   0.299
  392SOL     OW 1193   1.390   2.437   0.078
  392SOL    HW1 1194   1.336   2.416   0.159
  392SOL    HW2 1195   1.481   2.396   0.087
  393SOL     OW 1196   0.527   2.118   0.328
  393SOL    HW1 1197   0.554   2.059   0.253
  393SOL    HW2 1198   0.527   2.213   0.297
  394SOL     OW 1199   1.754   3.085   1.588
  394SOL    HW1 1200   1.845   3.046   1.575
  394SOL    HW2 1201   1.762   3.181   1.612
  395SOL     OW 1202   1.638   2.961   1.079
  395SOL    HW1 1203   1.643   3.042   1.138
  395SOL    HW2 1204   1.552   2.963   1.028
  396SOL     OW 1205   0.915   1.951   1.402
  396SOL    HW1 1206   0.940   1.931   1.307
  396SOL    HW2 1207   0.987   2.007   1.444
  397SOL     OW 1208   0.705   2.912   0.368
  397SOL    HW1 1209   0.691   2.919   0.467
  397SOL    HW2 1210   0.789   2.861   0.350
  398SOL     OW 1211   0.410   2.675   1.251
  398SOL    HW1 1212   0.496   2.687   1.301
  398SOL    HW2 1213   0.368   2.588   1.278
  399SOL     OW 1214   1.274   2.248   1.262
  399SOL    HW1 1215   1.295   2.322   1.326
  399SOL    HW2 1216   1.185   2.265   1.219
  400SOL     OW 1217   0.367   2.962   0.501
  400SOL    HW1 1218   0.360   3.045   0.445
  400SOL    HW2 1219   0.371   2.882   0.441
  401SOL     OW 1220   0.566   2.399   0.865
  401SOL    HW1 1221   0.578   2.465   0.791
  401SOL    HW2 1222   0.612   2.433   0.948
  402SOL     OW 1223   1.582   2.501   0.472
  402SOL    HW1 1224   1.551   2.562   0.545
  402SOL    HW2 1225   1.632   2.553   0.403
  403SOL     OW 1226   0.402   2.613   1.598
  403SOL    HW1 1227   0.470   2.668   1.551
  403SOL    HW2 1228   0.442   2.525   1.625
  404SOL     OW 1229   1.587   2.641   1.670
  404SOL    HW1 1230   1.495   2.679   1.665
  404SOL    HW2 1231   1.647   2.688   1.605
  405SOL     OW 1232   1.013   1.967   1.770
  405SOL    HW1 1233   1.019   2.052   1.718
  405SOL    HW2 1234   1.045   1.891   1.713
  406SOL     OW 1235   0.504   1.912   1.740
  406SOL    HW1 1236   0.462   1.855   1.670
  406SOL    HW2 1237   0.438   1.981   1.772
  407SOL     OW 1238   0.573   2.732   1.029
  407SOL    HW1 1239   0.617   2.821   1.020
  407SOL    HW2 1240   0.510   2.732   1.106
  408SOL     OW 1241   1.360   2.724   1.045
  408SOL    HW1 1242   1.285   2.724   0.979
  408SOL    HW2 1243   1.397   2.632   1.054
  409SOL     OW 1244   1.209   2.387   0.275
  409SOL    HW1 1245   1.222   2.303   0.329
  409SOL    HW2 1246   1.180   2.461   0.335
  410SOL     OW 1247   0.307   2.075   1.231
  410SOL    HW1 1248   0.284   2.112   1.321
  410SOL    HW2 1249   0.277   1.980   1.225
  411SOL     OW 1250   0.037   3.172   1.282
  411SOL    HW1 1251   0.090   3.123   1.350
  411SOL    HW2 1252   0.059   3.270   1.287
  412SOL     OW 1253   0.732   2.496   1.064
  412SOL    HW1 1254   0.791   2.470   0.988
  412SOL    HW2 1255   0.704   2.592   1.053
  413SOL     OW 1256   1.728   2.797   1.854
  413SOL    HW1 1257   1.682   2.790   1.765
  413SOL    HW2 1258   1.666   2.841   1.920
  414SOL     OW 1259   0.307   1.925   0.618
  414SOL    HW1 1260   0.296   2.019   0.651
  414SOL    HW2 1261   0.302   1.862   0.695
  415SOL     OW 1262   1.622   2.229   0.374
  415SOL    HW1 1263   1.624   2.153   0.438
  415SOL    HW2 1264   1.574   2.306   0.414
  416SOL     OW 1265   1.023   2.628   0.966
  416SOL    HW1 1266   1.038   2.649   1.062
  416SOL    HW2 1267   0.993   2.533   0.957
  417SOL     OW 1268   0.350   2.760   1.804
  417SOL    HW1 1269   0.426   2.804   1.852
  417SOL    HW2 1270   0.385   2.713   1.722
  418SOL     OW 1271   1.540   2.136   0.125
  418SOL    HW1 1272   1.479   2.061   0.148
  418SOL    HW2 1273   1.562   2.188   0.208
  419SOL     OW 1274   1.303   2.700   0.042
  419SOL    HW1 1275   1.337   2.607   0.057
  419SOL    HW2 1276   1.321   2.727  -0.053
  420SOL     OW 1277   0.319   2.672   0.949
  420SOL    HW1 1278   0.412   2.708   0.954
  420SOL    HW2 1279   0.313   2.587   1.001
  421SOL     OW 1280   0.339   2.371   1.006
  421SOL    HW1 1281   0.287   2.288   0.989
  421SOL    HW2 1282   0.416   2.376   0.942
  422SOL     OW 1283   1.138   2.242   1.678
  422SOL    HW1 1284   1.093   2.305   1.742
  422SOL    HW2 1285   1.231   2.273   1.661
  423SOL     OW 1286   1.160   2.069   1.477
  423SOL    HW1 1287   1.160   2.133   1.554
  423SOL    HW2 1288   1.188   2.117   1.394
  424SOL     OW 1289   1.002   2.658   1.238
  424SOL    HW1 1290   1.043   2.626   1.324
  424SOL    HW2 1291   0.906   2.631   1.235
  425SOL     OW 1292   0.040   2.406   1.114
  425SOL    HW1 1293   0.125   2.373   1.073
  425SOL    HW2 1294   0.053   2.421   1.212
  426SOL     OW 1295   0.189   2.382   1.722
  426SOL    HW1 1296   0.248   2.342   1.652
  426SOL    HW2 1297   0.131   2.453   1.681
  427SOL     OW 1298   1.369   2.812   1.660
  427SOL    HW1 1299   1.408   2.901   1.680
  427SOL    HW2 1300   1.379   2.792   1.563
  428SOL     OW 1301   0.815   2.434   0.325
  428SOL    HW1 1302   0.822   2.345   0.279
  428SOL    HW2 1303   0.721   2.468   0.317
  429SOL     OW 1304   1.657   2.466   1.206
  429SOL    HW1 1305   1.619   2.397   1.268
  429SOL    HW2 1306   1.739   2.430   1.162
  430SOL     OW 1307   0.671   2.326   1.269
  430SOL    HW1 1308   0.637   2.237   1.239
  430SOL    HW2 1309   0.697   2.380   1.189
  431SOL     OW 1310   0.473   2.362   0.191
  431SOL    HW1 1311   0.534   2.442   0.195
  431SOL    HW2 1312   0.378   2.393   0.198
  432SOL     OW 1313   0.159   2.999   1.466
  432SOL    HW1 1314   0.181   2.938   1.542
  432SOL    HW2 1315   0.169   2.950   1.380
  433SOL     OW 1316   1.347   2.921   1.234
  433SOL    HW1 1317   1.371   2.858   1.160
  433SOL    HW2 1318   1.257   2.961   1.216
  434SOL     OW 1319   1.302   2.717   0.309
  434SOL    HW1 1320   1.216   2.686   0.351
  434SOL    HW2 1321   1.298   2.703   0.210
  435SOL     OW 1322   0.083   3.120   1.022
  435SOL    HW1 1323   0.078   3.119   1.122
  435SOL    HW2 1324   0.000   3.079   0.984
  436SOL     OW 1325   0.903   1.948   0.133
  436SOL    HW1 1326   0.954   1.949   0.047
  436SOL    HW2 1327   0.959   1.906   0.204
  437SOL     OW 1328   1.726   1.997   0.523
  437SOL    HW1 1329   1.799   1.980   0.456
  437SOL    HW2 1330   1.695   1.910   0.561
  438SOL     OW 1331   1.280   2.789   0.672
  438SOL    HW1 1332   1.340   2.708   0.674
  438SOL    HW2 1333   1.320   2.858   0.612
  439SOL     OW 1334   1.841   2.037   0.963
  439SOL    HW1 1335   1.880   1.952   0.927
  439SOL    HW2 1336   1.743   2.039   0.944
  440SOL     OW 1337   0.263   2.188   0.720
  440SOL    HW1 1338   0.184   2.239   0.686
  440SOL    HW2 1339   0.254   2.173   0.818
  441SOL     OW 1340   0.822   2.864   1.372
  441SOL    HW1 1341   0.862   2.863   1.280
  441SOL    HW2 1342   0.832   2.956   1.412
  442SOL     OW 1343   0.916   2.772   0.291
  442SOL    HW1 1344   0.979   2.810   0.223
  442SOL    HW2 1345   0.956   2.689   0.330
  443SOL     OW 1346   0.372   3.150   1.490
  443SOL    HW1 1347   0.359   3.243   1.456
  443SOL    HW2 1348   0.288   3.098   1.477
  444SOL     OW 1349   1.014   2.098   0.971
  444SOL    HW1 1350   1.006   2.062   0.878
  444SOL    HW2 1351   1.012   2.022   1.036
  445SOL     OW 1352   1.709   2.247   1.381
  445SOL    HW1 1353   1.782   2.316   1.385
  445SOL    HW2 1354   1.737   2.172   1.322
  446SOL     OW 1355   0.105   2.875   1.726
  446SOL    HW1 1356   0.028   2.842   1.780
  446SOL    HW2 1357   0.190   2.845   1.768
  447SOL     OW 1358   0.672   2.065   1.489
  447SOL    HW1 1359   0.762   2.049   1.449
  447SOL    HW2 1360   0.680   2.070   1.588
  448SOL     OW 1361   0.075   2.207   0.033
  448SOL    HW1 1362  -0.017   2.179   0.004
  448SOL    HW2 1363   0.106   2.284  -0.023
  449SOL     OW 1364   1.440   2.718   1.398
  449SOL    HW1 1365   1.383   2.770   1.335
  449SOL    HW2 1366   1.536   2.730   1.374
  450SOL     OW 1367   0.072   2.028   0.318
  450SOL    HW1 1368   0.055   2.111   0.264
  450SOL    HW2 1369   0.162   1.991   0.296
  451SOL     OW 1370   1.183   3.197   0.119
  451SOL    HW1 1371   1.084   3.186   0.121
  451SOL    HW2 1372   1.217   3.212   0.212
  452SOL     OW 1373   0.613   2.704   1.431
  452SOL    HW1 1374   0.669   2.785   1.414
  452SOL    HW2 1375   0.672   2.624   1.434
  453SOL     OW 1376   0.716   2.427   1.708
  453SOL    HW1 1377   0.735   2.492   1.782
  453SOL    HW2 1378   0.776   2.347   1.717
  454SOL     OW 1379   1.674   2.745   1.254
  454SOL    HW1 1380   1.647   2.656   1.217
  454SOL    HW2 1381   1.675   2.813   1.181
  455SOL     OW 1382   1.225   2.187   0.449
  455SOL    HW1 1383   1.290   2.113   0.438
  455SOL    HW2 1384   1.245   2.237   0.533
  456SOL     OW 1385   0.594   2.607   0.652
  456SOL    HW1 1386   0.644   2.692   0.633
  456SOL    HW2 1387   0.506   2.609   0.604
  457SOL     OW 1388   1.777   2.204   1.642
  457SOL    HW1 1389   1.760   2.235   1.548
  457SOL    HW2 1390   1.693   2.167   1.680
  458SOL     OW 1391   1.730   2.796   1.517
  458SOL    HW1 1392   1.768   2.887   1.532
  458SOL    HW2 1393   1.722   2.779   1.418
  459SOL     OW 1394   0.859   2.818   0.861
  459SOL    HW1 1395   0.913   2.749   0.909
  459SOL    HW2 1396   0.827   2.887   0.927
  460SOL     OW 1397   1.083   2.846   0.087
  460SOL    HW1 1398   1.060   2.899   0.005
  460SOL    HW2 1399   1.164   2.790   0.068
  461SOL     OW 1400   1.824   2.054   1.227
  461SOL    HW1 1401   1.820   1.964   1.271
  461SOL    HW2 1402   1.827   2.043   1.128
  462SOL     OW 1403   0.428   2.286   0.520
  462SOL    HW1 1404   0.458   2.214   0.458
  462SOL    HW2 1405   0.389   2.246   0.603
  463SOL     OW 1406   0.317   2.409   1.280
  463SOL    HW1 1407   0.355   2.350   1.352
  463SOL    HW2 1408   0.357   2.383   1.192
  464SOL     OW 1409   1.424   2.076   1.112
  464SOL    HW1 1410   1.476   2.011   1.167
  464SOL    HW2 1411   1.375   2.139   1.173
  465SOL     OW 1412   0.770   3.192   0.301
  465SOL    HW1 1413   0.724   3.105   0.318
  465SOL    HW2 1414   0.861   3.189   0.342
  466SOL     OW 1415   1.352   1.914   0.168
  466SOL    HW1 1416   1.387   1.873   0.084
  466SOL    HW2 1417   1.262   1.876   0.188
  467SOL     OW 1418   1.300   2.315   0.691
  467SOL    HW1 1419   1.241   2.395   0.695
  467SOL    HW2 1420   1.315   2.280   0.784
  468SOL     OW 1421   1.593   2.083   0.882
  468SOL    HW1 1422   1.509   2.082   0.936
  468SOL    HW2 1423   1.595   2.166   0.826
  469SOL     OW 1424   0.039   2.939   0.300
  469SOL    HW1 1425   0.138   2.928   0.291
  469SOL    HW2 1426  -0.001   2.853   0.332
  470SOL     OW 1427   0.230   2.490   1.975
  470SOL    HW1 1428   0.137   2.488   2.012
  470SOL    HW2 1429   0.231   2.451   1.883
  471SOL     OW 1430   0.225   2.137   2.858
  471SOL    HW1 1431   0.260   2.120   2.950
  471SOL    HW2 1432   0.137   2.092   2.846
  472SOL     OW 1433   0.019   2.230   2.509
  472SOL    HW1 1434  -0.063   2.273   2.548
  472SOL    HW2 1435  -0.009   2.157   2.446
  473SOL     OW 1436   1.135   2.565   2.579
  473SOL    HW1 1437   1.192   2.643   2.554
  473SOL    HW2 1438   1.075   2.591   2.655
  474SOL     OW 1439   1.755   2.469   2.093
  474SOL    HW1 1440   1.743   2.456   1.994
  474SOL    HW2 1441   1.725   2.388   2.142
  475SOL     OW 1442   0.768   3.006   2.885
  475SOL    HW1 1443   0.690   3.023   2.945
  475SOL    HW2 1444   0.802   3.093   2.849
  476SOL     OW 1445   0.685   2.874   2.527
  476SOL    HW1 1446   0.754   2.858   2.597
  476SOL    HW2 1447   0.612   2.931   2.565
  477SOL     OW 1448   1.603   2.309   2.599
  477SOL    HW1 1449   1.529   2.355   2.549
  477SOL    HW2 1450   1.654   2.377   2.652
  478SOL     OW 1451   0.230   3.296   2.400
  478SOL    HW1 1452   0.204   3.392   2.400
  478SOL    HW2 1453   0.159   3.242   2.445
  479SOL     OW 1454   0.240   2.953   2.748
  479SOL    HW1 1455   0.254   2.869   2.800
  479SOL    HW2 1456   0.185   3.017   2.803
  480SOL     OW 1457   0.606   2.826   1.985
  480SOL    HW1 1458   0.613   2.910   1.931
  480SOL    HW2 1459   0.652   2.839   2.073
  481SOL     OW 1460   0.122   2.505   2.425
  481SOL    HW1 1461   0.077   2.417   2.442
  481SOL    HW2 1462   0.121   2.559   2.509
  482SOL     OW 1463   1.689   2.784   2.474
  482SOL    HW1 1464   1.784   2.755   2.482
  482SOL    HW2 1465   1.681   2.849   2.399
  483SOL     OW 1466   0.809   1.866   2.364
  483SOL    HW1 1467   0.849   1.957   2.355
  483SOL    HW2 1468   0.709   1.874   2.370
  484SOL     OW 1469   0.197   2.838   3.126
  484SOL    HW1 1470   0.286   2.793   3.112
  484SOL    HW2 1471   0.124   2.773   3.107
  485SOL     OW 1472   1.525   2.861   2.052
  485SOL    HW1 1473   1.462   2.785   2.065
  485SOL    HW2 1474   1.573   2.879   2.138
  486SOL     OW 1475   0.598   2.591   2.132
  486SOL    HW1 1476   0.622   2.660   2.064
  486SOL    HW2 1477   0.520   2.624   2.186
  487SOL     OW 1478   1.281   2.207   2.806
  487SOL    HW1 1479   1.195   2.157   2.793
  487SOL    HW2 1480   1.343   2.153   2.862
  488SOL     OW 1481   1.041   2.563   2.291
  488SOL    HW1 1482   1.067   2.559   2.387
  488SOL    HW2 1483   0.956   2.512   2.277
  489SOL     OW 1484   0.076   2.673   2.651
  489SOL    HW1 1485   0.175   2.661   2.660
  489SOL    HW2 1486   0.052   2.768   2.672
  490SOL     OW 1487   0.865   2.210   2.057
  490SOL    HW1 1488   0.924   2.273   2.008
  490SOL    HW2 1489   0.884   2.116   2.028
  491SOL     OW 1490   0.550   2.058   2.747
  491SOL    HW1 1491   0.545   2.053   2.847
  491SOL    HW2 1492   0.552   2.154   2.718
  492SOL     OW 1493   1.795   2.928   2.735
  492SOL    HW1 1494   1.733   2.913   2.659
  492SOL    HW2 1495   1.743   2.939   2.820
  493SOL     OW 1496   0.321   2.805   2.104
  493SOL    HW1 1497   0.403   2.844   2.062
  493SOL    HW2 1498   0.294   2.723   2.055
  494SOL     OW 1499   1.458   2.597   2.590
  494SOL    HW1 1500   1.453   2.532   2.665
  494SOL    HW2 1501   1.538   2.656   2.603
  495SOL     OW 1502   1.400   1.969   2.288
  495SOL    HW1 1503   1.376   1.932   2.198
  495SOL    HW2 1504   1.499   1.985   2.292
  496SOL     OW 1505   0.382   2.562   2.342
  496SOL    HW1 1506   0.427   2.472   2.339
  496SOL    HW2 1507   0.288   2.551   2.375
  497SOL     OW 1508   0.614   1.984   1.979
  497SOL    HW1 1509   0.712   1.962   1.986
  497SOL    HW2 1510   0.583   1.967   1.886
  498SOL     OW 1511   0.922   2.365   2.761
  498SOL    HW1 1512   0.897   2.356   2.665
  498SOL    HW2 1513   0.970   2.283   2.792
  499SOL     OW 1514   0.539   1.926   2.374
  499SOL    HW1 1515   0.458   1.927   2.432
  499SOL    HW2 1516   0.542   2.009   2.319
  500SOL     OW 1517   0.297   1.897   2.033
  500SOL    HW1 1518   0.346   1.981   2.012
  500SOL    HW2 1519   0.359   1.832   2.078
  501SOL     OW 1520   0.935   2.098   2.342
  501SOL    HW1 1521   0.887   2.139   2.264
  501SOL    HW2 1522   1.034   2.096   2.323
  502SOL     OW 1523   0.459   3.014   2.603
  502SOL    HW1 1524   0.388   2.987   2.668
  502SOL    HW2 1525   0.433   2.986   2.510
  503SOL     OW 1526   1.032   2.411   1.878
  503SOL    HW1 1527   0.991   2.493   1.839
  503SOL    HW2 1528   1.096   2.437   1.951
  504SOL     OW 1529   0.866   2.316   2.504
  504SOL    HW1 1530   0.834   2.388   2.442
  504SOL    HW2 1531   0.890   2.235   2.451
  505SOL     OW 1532   1.017   1.901   2.615
  505SOL    HW1 1533   0.945   1.906   2.546
  505SOL    HW2 1534   0.993   1.832   2.684
  506SOL     OW 1535   1.429   3.035   2.729
  506SOL    HW1 1536   1.374   2.951   2.722
  506SOL    HW2 1537   1.455   3.064   2.637
  507SOL     OW 1538   1.466   2.452   2.854
  507SOL    HW1 1539   1.436   2.357   2.861
  507SOL    HW2 1540   1.539   2.468   2.920
  508SOL     OW 1541   1.857   2.695   2.239
  508SOL    HW1 1542   1.899   2.631   2.303
  508SOL    HW2 1543   1.819   2.644   2.161
  509SOL     OW 1544   1.390   2.437   1.940
  509SOL    HW1 1545   1.336   2.416   2.021
  509SOL    HW2 1546   1.481   2.396   1.949
  510SOL     OW 1547   0.527   2.118   2.190
  510SOL    HW1 1548   0.554   2.059   2.115
  510SOL    HW2 1549   0.527   2.213   2.159
  511SOL     OW 1550   1.638   2.961   2.941
  511SOL    HW1 1551   1.643   3.042   3.000
  511SOL    HW2 1552   1.552   2.963   2.890
  512SOL     OW 1553   0.705   2.912   2.230
  512SOL    HW1 1554   0.691   2.919   2.329
  512SOL    HW2 1555   0.789   2.861   2.212
  513SOL     OW 1556   0.410   2.675   3.113
  513SOL    HW1 1557   0.496   2.687   3.163
  513SOL    HW2 1558   0.368   2.588   3.140
  514SOL     OW 1559   0.367   2.962   2.363
  514SOL    HW1 1560   0.360   3.045   2.307
  514SOL    HW2 1561   0.371   2.882   2.303
  515SOL     OW 1562   0.566   2.399   2.727
  515SOL    HW1 1563   0.578   2.465   2.653
  515SOL    HW2 1564   0.612   2.433   2.810
  516SOL     OW 1565   1.582   2.501   2.334
  516SOL    HW1 1566   1.551   2.562   2.407
  516SOL    HW2 1567   1.632   2.553   2.265
  517SOL     OW 1568   0.573   2.732   2.891
  517SOL    HW1 1569   0.617   2.821   2.882
  517SOL    HW2 1570   0.510   2.732   2.968
  518SOL     OW 1571   1.209   2.387   2.137
  518SOL    HW1 1572   1.222   2.303   2.191
  518SOL    HW2 1573   1.180   2.461   2.197
  519SOL     OW 1574   0.307   2.075   3.093
  519SOL    HW1 1575   0.284   2.112   3.183
  519SOL    HW2 1576   0.277   1.980   3.087
  520SOL     OW 1577   0.732   2.496   2.926
  520SOL    HW1 1578   0.791   2.470   2.850
  520SOL    HW2 1579   0.704   2.592   2.915
  521SOL     OW 1580   0.307   1.925   2.480
  521SOL    HW1 1581   0.296   2.019   2.513
  521SOL    HW2 1582   0.302   1.862   2.557
  522SOL     OW 1583   1.622   2.229   2.236
  522SOL    HW1 1584   1.624   2.153   2.300
  522SOL    HW2 1585   1.574   2.306   2.276
  523SOL     OW 1586   1.023   2.628   2.828
  523SOL    HW1 1587   1.038   2.649   2.924
  523SOL    HW2 1588   0.993   2.533   2.819
  524SOL     OW 1589   1.540   2.136   1.987
  524SOL    HW1 1590   1.479   2.061   2.010
  524SOL    HW2 1591   1.562   2.188   2.070
  525SOL     OW 1592   1.303   2.700   1.904
  525SOL    HW1 1593   1.337   2.607   1.919
  525SOL    HW2 1594   1.321   2.727   1.809
  526SOL     OW 1595   0.319   2.672   2.811
  526SOL    HW1 1596   0.412   2.708   2.816
  526SOL    HW2 1597   0.313   2.587   2.863
  527SOL     OW 1598   0.339   2.371   2.868
  527SOL    HW1 1599   0.287   2.288   2.851
  527SOL    HW2 1600   0.416   2.376   2.804
  528SOL     OW 1601   1.002   2.658   3.100
  528SOL    HW1 1602   1.043   2.626   3.186
  528SOL    HW2 1603   0.906   2.631   3.097
  529SOL     OW 1604   0.815   2.434   2.187
  529SOL    HW1 1605   0.822   2.345   2.141
  529SOL    HW2 1606   0.721   2.468   2.179
  530SOL     OW 1607   0.671   2.326   3.131
  530SOL    HW1 1608   0.637   2.237   3.101
  530SOL    HW2 1609   0.697   2.380   3.051
  531SOL     OW 1610   0.473   2.362   2.053
  531SOL    HW1 1611   0.534   2.442   2.057
  531SOL    HW2 1612   0.378   2.393   2.060
  532SOL     OW 1613   1.302   2.717   2.171
  532SOL    HW1 1614   1.216   2.686   2.213
  532SOL    HW2 1615   1.298   2.703   2.072
  533SOL     OW 1616   0.083   3.120   2.884
  533SOL    HW1 1617   0.078   3.119   2.984
  533SOL    HW2 1618   0.000   3.079   2.846
  534SOL     OW 1619   1.726   1.997   2.385
  534SOL    HW1 1620   1.799   1.980   2.318
  534SOL    HW2 1621   1.695   1.910   2.423
  535SOL     OW 1622   1.280   2.789   2.534
  535SOL    HW1 1623   1.340   2.708   2.536
  535SOL    HW2 1624   1.320   2.858   2.474
  536SOL     OW 1625   1.841   2.037   2.825
  536SOL    HW1 1626   1.880   1.952   2.789
  536SOL    HW2 1627   1.743   2.039   2.806
  537SOL     OW 1628   0.263   2.188   2.582
  537SOL    HW1 1629   0.184   2.239   2.548
  537SOL    HW2 1630   0.254   2.173   2.680
  538SOL     OW 1631   0.916   2.772   2.153
  538SOL    HW1 1632   0.979   2.810   2.085
  538SOL    HW2 1633   0.956   2.689   2.192
  539SOL     OW 1634   1.014   2.098   2.833
  539SOL    HW1 1635   1.006   2.062   2.740
  539SOL    HW2 1636   1.012   2.022   2.898
  540SOL     OW 1637   0.075   2.207   1.895
  540SOL    HW1 1638  -0.017   2.179   1.866
  540SOL    HW2 1639   0.106   2.284   1.839
  541SOL     OW 1640   0.072   2.028   2.180
  541SOL    HW1 1641   0.055   2.111   2.126
  541SOL    HW2 1642   0.162   1.991   2.158
  542SOL     OW 1643   1.183   3.197   1.981
  542SOL    HW1 1644   1.084   3.186   1.983
  542SOL    HW2 1645   1.217   3.212   2.074
  543SOL     OW 1646   1.674   2.745   3.116
  543SOL    HW1 1647   1.647   2.656   3.079
  543SOL    HW2 1648   1.675   2.813   3.043
  544SOL     OW 1649   1.225   2.187   2.311
  544SOL    HW1 1650   1.290   2.113   2.300
  544SOL    HW2 1651   1.245   2.237   2.395
  545SOL     OW 1652   0.594   2.607   2.514
  545SOL    HW1 1653   0.644   2.692   2.495
  545SOL    HW2 1654   0.506   2.609   2.466
  546SOL     OW 1655   0.859   2.818   2.723
  546SOL    HW1 1656   0.913   2.749   2.771
  546SOL    HW2 1657   0.827   2.887   2.789
  547SOL     OW 1658   1.083   2.846   1.949
  547SOL    HW1 1659   1.060   2.899   1.867
  547SOL    HW2 1660   1.164   2.790   1.930
  548SOL     OW 1661   1.824   2.054   3.089
  548SOL    HW1 1662   1.820   1.964   3.133
  548SOL    HW2 1663   1.827   2.043   2.990
  549SOL     OW 1664   0.428   2.286   2.382
  549SOL    HW1 1665   0.458   2.214   2.320
  549SOL    HW2 1666   0.389   2.246   2.465
  550SOL     OW 1667   1.424   2.076   2.974
  550SOL    HW1 1668   1.476   2.011   3.029
  550SOL    HW2 1669   1.375   2.139   3.035
  551SOL     OW 1670   0.770   3.192   2.163
  551SOL    HW1 1671   0.724   3.105   2.180
  551SOL    HW2 1672   0.861   3.189   2.204
  552SOL     OW 1673   1.352   1.914   2.030
  552SOL    HW1 1674   1.387   1.873   1.946
  552SOL    HW2 1675   1.262   1.876   2.050
  553SOL     OW 1676   1.300   2.315   2.553
  553SOL    HW1 1677   1.241   2.395   2.557
  553SOL    HW2 1678   1.315   2.280   2.646
  554SOL     OW 1679   1.593   2.083   2.744
  554SOL    HW1 1680   1.509   2.082   2.798
  554SOL    HW2 1681   1.595   2.166   2.688
  555SOL     OW 1682   0.039   2.939   2.162
  555SOL    HW1 1683   0.138   2.928   2.153
  555SOL    HW2 1684  -0.001   2.853   2.194
  556SOL     OW 1685   2.092   0.628   0.113
  556SOL    HW1 1686   1.999   0.626   0.150
  556SOL    HW2 1687   2.093   0.589   0.021
  557SOL     OW 1688   2.087   0.275   0.996
  557SOL    HW1 1689   2.122   0.258   1.088
  557SOL    HW2 1690   1.999   0.230   0.984
  558SOL     OW 1691   1.881   0.368   0.647
  558SOL    HW1 1692   1.799   0.411   0.686
  558SOL    HW2 1693   1.853   0.295   0.584
  559SOL     OW 1694   2.431   1.275   1.165
  559SOL    HW1 1695   2.338   1.268   1.128
  559SOL    HW2 1696   2.442   1.364   1.209
  560SOL     OW 1697   2.630   1.144   1.023
  560SOL    HW1 1698   2.552   1.161   1.083
  560SOL    HW2 1699   2.664   1.231   0.987
  561SOL     OW 1700   2.712   0.798   1.823
  561SOL    HW1 1701   2.708   0.874   1.888
  561SOL    HW2 1702   2.734   0.834   1.732
  562SOL     OW 1703   2.547   1.012   0.665
  562SOL    HW1 1704   2.616   0.996   0.735
  562SOL    HW2 1705   2.474   1.069   0.703
  563SOL     OW 1706   2.548   1.161   1.803
  563SOL    HW1 1707   2.608   1.240   1.817
  563SOL    HW2 1708   2.462   1.192   1.762
  564SOL     OW 1709   2.197   1.435   1.061
  564SOL    HW1 1710   2.119   1.404   1.008
  564SOL    HW2 1711   2.255   1.493   1.004
  565SOL     OW 1712   2.300   0.392   1.499
  565SOL    HW1 1713   2.382   0.336   1.508
  565SOL    HW2 1714   2.219   0.334   1.503
  566SOL     OW 1715   2.093   1.713   0.483
  566SOL    HW1 1716   2.127   1.790   0.537
  566SOL    HW2 1717   2.137   1.713   0.393
  567SOL     OW 1718   2.989   1.341   1.690
  567SOL    HW1 1719   3.036   1.341   1.778
  567SOL    HW2 1720   2.941   1.254   1.679
  568SOL     OW 1721   2.092   1.434   0.538
  568SOL    HW1 1722   2.066   1.530   0.538
  568SOL    HW2 1723   2.021   1.380   0.583
  569SOL     OW 1724   2.102   1.091   0.886
  569SOL    HW1 1725   2.116   1.007   0.938
  569SOL    HW2 1726   2.047   1.155   0.941
  570SOL     OW 1727   2.482   1.786   1.439
  570SOL    HW1 1728   2.390   1.769   1.474
  570SOL    HW2 1729   2.510   1.878   1.465
  571SOL     OW 1730   2.468   0.964   0.123
  571SOL    HW1 1731   2.475   1.048   0.069
  571SOL    HW2 1732   2.514   0.977   0.211
  572SOL     OW 1733   1.984   0.643   0.563
  572SOL    HW1 1734   1.939   0.555   0.580
  572SOL    HW2 1735   1.983   0.697   0.647
  573SOL     OW 1736   1.889   1.596   0.117
  573SOL    HW1 1737   1.870   1.500   0.138
  573SOL    HW2 1738   1.856   1.654   0.192
  574SOL     OW 1739   1.975   0.737   1.597
  574SOL    HW1 1740   2.063   0.724   1.642
  574SOL    HW2 1741   1.962   0.834   1.575
  575SOL     OW 1742   2.475   1.365   0.726
  575SOL    HW1 1743   2.426   1.278   0.735
  575SOL    HW2 1744   2.452   1.408   0.639
  576SOL     OW 1745   2.671   0.004   0.502
  576SOL    HW1 1746   2.711   0.095   0.493
  576SOL    HW2 1747   2.571   0.012   0.508
  577SOL     OW 1748   2.059   0.976   1.264
  577SOL    HW1 1749   2.148   0.931   1.250
  577SOL    HW2 1750   1.986   0.911   1.245
  578SOL     OW 1751   2.179   0.251   1.801
  578SOL    HW1 1752   2.250   0.322   1.807
  578SOL    HW2 1753   2.091   0.290   1.829
  579SOL     OW 1754   2.460   0.729   0.270
  579SOL    HW1 1755   2.484   0.798   0.202
  579SOL    HW2 1756   2.382   0.762   0.324
  580SOL     OW 1757   2.669   0.605   1.465
  580SOL    HW1 1758   2.622   0.602   1.554
  580SOL    HW2 1759   2.618   0.550   1.399
  581SOL     OW 1760   2.835   0.890   1.572
  581SOL    HW1 1761   2.881   0.806   1.543
  581SOL    HW2 1762   2.779   0.924   1.497
  582SOL     OW 1763   2.853   0.410   1.242
  582SOL    HW1 1764   2.776   0.444   1.296
  582SOL    HW2 1765   2.819   0.359   1.163
  583SOL     OW 1766   2.903   0.701   0.429
  583SOL    HW1 1767   2.929   0.697   0.525
  583SOL    HW2 1768   2.818   0.650   0.415
  584SOL     OW 1769   1.938   0.811   0.789
  584SOL    HW1 1770   2.037   0.799   0.798
  584SOL    HW2 1771   1.914   0.906   0.810
  585SOL     OW 1772   1.992   1.821   1.571
  585SOL    HW1 1773   1.982   1.806   1.670
  585SOL    HW2 1774   1.906   1.857   1.535
  586SOL     OW 1775   2.727   0.348   0.195
  586SOL    HW1 1776   2.786   0.411   0.146
  586SOL    HW2 1777   2.746   0.254   0.166
  587SOL     OW 1778   2.412   0.196   0.885
  587SOL    HW1 1779   2.407   0.191   0.985
  587SOL    HW2 1780   2.414   0.292   0.856
  588SOL     OW 1781   2.870   1.456   0.477
  588SOL    HW1 1782   2.824   1.528   0.425
  588SOL    HW2 1783   2.866   1.476   0.575
  589SOL     OW 1784   2.213   1.801   0.853
  589SOL    HW1 1785   2.263   1.715   0.859
  589SOL    HW2 1786   2.278   1.878   0.850
  590SOL     OW 1787   2.183   0.943   0.242
  590SOL    HW1 1788   2.265   0.982   0.200
  590SOL    HW2 1789   2.156   0.861   0.193
  591SOL     OW 1790   2.323   1.266   1.727
  591SOL    HW1 1791   2.273   1.267   1.641
  591SOL    HW2 1792   2.260   1.248   1.803
  592SOL     OW 1793   2.064   0.285   1.498
  592SOL    HW1 1794   1.984   0.345   1.485
  592SOL    HW2 1795   2.054   0.236   1.584
  593SOL     OW 1796   2.326   1.743   0.323
  593SOL    HW1 1797   2.359   1.782   0.409
  593SOL    HW2 1798   2.402   1.736   0.258
  594SOL     OW 1799   2.111   1.785   1.241
  594SOL    HW1 1800   2.168   1.720   1.291
  594SOL    HW2 1801   2.095   1.752   1.148
  595SOL     OW 1802   2.802   1.698   0.904
  595SOL    HW1 1803   2.882   1.641   0.925
  595SOL    HW2 1804   2.753   1.658   0.827
  596SOL     OW 1805   2.244   0.700   0.480
  596SOL    HW1 1806   2.289   0.610   0.477
  596SOL    HW2 1807   2.150   0.689   0.513
  597SOL     OW 1808   2.476   0.122   0.117
  597SOL    HW1 1809   2.574   0.100   0.124
  597SOL    HW2 1810   2.445   0.105   0.024
  598SOL     OW 1811   2.643   0.264   1.749
  598SOL    HW1 1812   2.710   0.203   1.792
  598SOL    HW2 1813   2.570   0.283   1.814
  599SOL     OW 1814   2.750   1.514   1.195
  599SOL    HW1 1815   2.727   1.489   1.101
  599SOL    HW2 1816   2.811   1.445   1.234
  600SOL     OW 1817   2.665   1.402   0.924
  600SOL    HW1 1818   2.755   1.416   0.882
  600SOL    HW2 1819   2.594   1.404   0.853
  601SOL     OW 1820   2.784   0.503   0.899
  601SOL    HW1 1821   2.759   0.494   0.803
  601SOL    HW2 1822   2.832   0.421   0.930
  602SOL     OW 1823   2.401   0.064   0.512
  602SOL    HW1 1824   2.320   0.065   0.570
  602SOL    HW2 1825   2.404   0.147   0.457
  603SOL     OW 1826   3.296   1.188   0.041
  603SOL    HW1 1827   3.328   1.112   0.098
  603SOL    HW2 1828   3.204   1.215   0.071
  604SOL     OW 1829   2.159   0.035   0.171
  604SOL    HW1 1830   2.208   0.119   0.150
  604SOL    HW2 1831   2.221  -0.030   0.216
  605SOL     OW 1832   2.797   0.236   0.480
  605SOL    HW1 1833   2.749   0.277   0.402
  605SOL    HW2 1834   2.896   0.234   0.461
  606SOL     OW 1835   3.089   1.570   0.793
  606SOL    HW1 1836   3.110   1.644   0.728
  606SOL    HW2 1837   3.157   1.570   0.866
  607SOL     OW 1838   2.321   1.152   0.741
  607SOL    HW1 1839   2.250   1.125   0.806
  607SOL    HW2 1840   2.295   1.124   0.648
  608SOL     OW 1841   3.133   1.797   0.591
  608SOL    HW1 1842   3.177   1.861   0.527
  608SOL    HW2 1843   3.083   1.849   0.661
  609SOL     OW 1844   2.894   0.549   0.016
  609SOL    HW1 1845   2.853   0.631  -0.023
  609SOL    HW2 1846   2.958   0.575   0.089
  610SOL     OW 1847   1.940   0.556   1.386
  610SOL    HW1 1848   2.032   0.555   1.345
  610SOL    HW2 1849   1.934   0.630   1.453
  611SOL     OW 1850   2.423   0.222   1.147
  611SOL    HW1 1851   2.461   0.138   1.184
  611SOL    HW2 1852   2.335   0.241   1.191
  612SOL     OW 1853   2.728   0.454   0.642
  612SOL    HW1 1854   2.696   0.526   0.580
  612SOL    HW2 1855   2.752   0.373   0.589
  613SOL     OW 1856   2.879   0.039   0.753
  613SOL    HW1 1857   2.807   0.044   0.684
  613SOL    HW2 1858   2.855  -0.030   0.822
  614SOL     OW 1859   2.350   1.385   0.174
  614SOL    HW1 1860   2.263   1.370   0.221
  614SOL    HW2 1861   2.333   1.411   0.079
  615SOL     OW 1862   2.389   0.256   0.328
  615SOL    HW1 1863   2.416   0.197   0.253
  615SOL    HW2 1864   2.389   0.351   0.297
  616SOL     OW 1865   2.777   0.089   1.402
  616SOL    HW1 1866   2.802   0.069   1.307
  616SOL    HW2 1867   2.849   0.145   1.444
  617SOL     OW 1868   2.842   1.116   1.719
  617SOL    HW1 1869   2.743   1.122   1.729
  617SOL    HW2 1870   2.865   1.036   1.663
  618SOL     OW 1871   2.567   1.050   0.368
  618SOL    HW1 1872   2.553   1.057   0.467
  618SOL    HW2 1873   2.651   0.999   0.350
  619SOL     OW 1874   2.272   0.813   1.251
  619SOL    HW1 1875   2.358   0.825   1.301
  619SOL    HW2 1876   2.230   0.726   1.278
  620SOL     OW 1877   1.926   1.564   1.331
  620SOL    HW1 1878   1.880   1.646   1.297
  620SOL    HW2 1879   2.024   1.583   1.340
  621SOL     OW 1880   2.229   1.100   0.501
  621SOL    HW1 1881   2.222   1.183   0.445
  621SOL    HW2 1882   2.233   1.020   0.441
  622SOL     OW 1883   2.428   0.537   0.865
  622SOL    HW1 1884   2.440   0.603   0.791
  622SOL    HW2 1885   2.474   0.571   0.948
  623SOL     OW 1886   3.114   1.348   0.388
  623SOL    HW1 1887   3.164   1.425   0.428
  623SOL    HW2 1888   3.019   1.350   0.420
  624SOL     OW 1889   2.216   1.510   1.329
  624SOL    HW1 1890   2.195   1.466   1.242
  624SOL    HW2 1891   2.313   1.536   1.332
  625SOL     OW 1892   2.264   0.751   1.598
  625SOL    HW1 1893   2.332   0.806   1.551
  625SOL    HW2 1894   2.304   0.663   1.625
  626SOL     OW 1895   2.875   0.105   1.770
  626SOL    HW1 1896   2.881   0.190   1.718
  626SOL    HW2 1897   2.907   0.029   1.713
  627SOL     OW 1898   2.366   0.050   1.740
  627SOL    HW1 1899   2.324  -0.007   1.670
  627SOL    HW2 1900   2.300   0.119   1.772
  628SOL     OW 1901   2.435   0.870   1.029
  628SOL    HW1 1902   2.479   0.959   1.020
  628SOL    HW2 1903   2.372   0.870   1.106
  629SOL     OW 1904   3.071   0.525   0.275
  629SOL    HW1 1905   3.084   0.441   0.329
  629SOL    HW2 1906   3.042   0.599   0.335
  630SOL     OW 1907   2.169   0.213   1.231
  630SOL    HW1 1908   2.146   0.250   1.321
  630SOL    HW2 1909   2.139   0.118   1.225
  631SOL     OW 1910   2.594   0.634   1.064
  631SOL    HW1 1911   2.653   0.608   0.988
  631SOL    HW2 1912   2.566   0.730   1.053
  632SOL     OW 1913   2.169   0.063   0.618
  632SOL    HW1 1914   2.158   0.157   0.651
  632SOL    HW2 1915   2.164   0.000   0.695
  633SOL     OW 1916   2.885   0.766   0.966
  633SOL    HW1 1917   2.900   0.787   1.062
  633SOL    HW2 1918   2.855   0.671   0.957
  634SOL     OW 1919   2.842   1.573   1.700
  634SOL    HW1 1920   2.822   1.617   1.612
  634SOL    HW2 1921   2.881   1.482   1.684
  635SOL     OW 1922   2.212   0.898   1.804
  635SOL    HW1 1923   2.288   0.942   1.852
  635SOL    HW2 1924   2.247   0.851   1.722
  636SOL     OW 1925   2.930   1.333   0.849
  636SOL    HW1 1926   2.937   1.249   0.794
  636SOL    HW2 1927   2.992   1.402   0.813
  637SOL     OW 1928   2.181   0.810   0.949
  637SOL    HW1 1929   2.274   0.846   0.954
  637SOL    HW2 1930   2.175   0.725   1.001
  638SOL     OW 1931   2.201   0.509   1.006
  638SOL    HW1 1932   2.149   0.426   0.989
  638SOL    HW2 1933   2.278   0.514   0.942
  639SOL     OW 1934   3.000   0.380   1.678
  639SOL    HW1 1935   2.955   0.443   1.742
  639SOL    HW2 1936   3.093   0.411   1.661
  640SOL     OW 1937   1.870   1.326   0.200
  640SOL    HW1 1938   1.777   1.347   0.169
  640SOL    HW2 1939   1.880   1.227   0.213
  641SOL     OW 1940   1.950   1.801   0.927
  641SOL    HW1 1941   1.908   1.715   0.900
  641SOL    HW2 1942   2.044   1.804   0.893
  642SOL     OW 1943   2.366   1.568   0.910
  642SOL    HW1 1944   2.432   1.642   0.919
  642SOL    HW2 1945   2.410   1.489   0.868
  643SOL     OW 1946   2.864   0.796   1.238
  643SOL    HW1 1947   2.905   0.764   1.324
  643SOL    HW2 1948   2.768   0.769   1.235
  644SOL     OW 1949   1.902   0.544   1.114
  644SOL    HW1 1950   1.987   0.511   1.073
  644SOL    HW2 1951   1.915   0.559   1.212
  645SOL     OW 1952   2.051   0.520   1.722
  645SOL    HW1 1953   2.110   0.480   1.652
  645SOL    HW2 1954   1.993   0.591   1.681
  646SOL     OW 1955   2.677   0.572   0.325
  646SOL    HW1 1956   2.684   0.483   0.279
  646SOL    HW2 1957   2.583   0.606   0.317
  647SOL     OW 1958   2.114   1.564   1.744
  647SOL    HW1 1959   2.084   1.621   1.820
  647SOL    HW2 1960   2.107   1.467   1.770
  648SOL     OW 1961   2.533   0.464   1.269
  648SOL    HW1 1962   2.499   0.375   1.239
  648SOL    HW2 1963   2.559   0.518   1.189
  649SOL     OW 1964   2.792   1.678   1.465
  649SOL    HW1 1965   2.768   1.660   1.370
  649SOL    HW2 1966   2.822   1.772   1.475
  650SOL     OW 1967   2.335   0.500   0.191
  650SOL    HW1 1968   2.396   0.580   0.195
  650SOL    HW2 1969   2.240   0.531   0.198
  651SOL     OW 1970   2.021   1.137   1.466
  651SOL    HW1 1971   2.043   1.076   1.542
  651SOL    HW2 1972   2.031   1.088   1.380
  652SOL     OW 1973   3.164   0.855   0.309
  652SOL    HW1 1974   3.078   0.824   0.351
  652SOL    HW2 1975   3.160   0.841   0.210
  653SOL     OW 1976   1.945   1.258   1.022
  653SOL    HW1 1977   1.940   1.257   1.122
  653SOL    HW2 1978   1.862   1.217   0.984
  654SOL     OW 1979   2.550   1.662   1.716
  654SOL    HW1 1980   2.494   1.743   1.725
  654SOL    HW2 1981   2.602   1.666   1.630
  655SOL     OW 1982   2.765   0.086   0.133
  655SOL    HW1 1983   2.816   0.087   0.047
  655SOL    HW2 1984   2.821   0.044   0.204
  656SOL     OW 1985   1.992   1.794   1.851
  656SOL    HW1 1986   1.951   1.720   1.904
  656SOL    HW2 1987   2.056   1.845   1.909
  657SOL     OW 1988   2.692   1.273   1.422
  657SOL    HW1 1989   2.687   1.306   1.517
  657SOL    HW2 1990   2.606   1.292   1.376
  658SOL     OW 1991   2.534   1.616   0.154
  658SOL    HW1 1992   2.543   1.626   0.055
  658SOL    HW2 1993   2.494   1.527   0.175
  659SOL     OW 1994   2.125   0.326   0.720
  659SOL    HW1 1995   2.046   0.377   0.686
  659SOL    HW2 1996   2.116   0.311   0.818
  660SOL     OW 1997   2.684   1.002   1.372
  660SOL    HW1 1998   2.724   1.001   1.280
  660SOL    HW2 1999   2.694   1.094   1.412
  661SOL     OW 2000   2.778   0.910   0.291
  661SOL    HW1 2001   2.841   0.948   0.223
  661SOL    HW2 2002   2.818   0.827   0.330
  662SOL     OW 2003   2.234   1.288   1.490
  662SOL    HW1 2004   2.221   1.381   1.456
  662SOL    HW2 2005   2.150   1.236   1.477
  663SOL     OW 2006   2.901   1.098   0.696
  663SOL    HW1 2007   2.831   1.051   0.750
  663SOL    HW2 2008   2.960   1.030   0.653
  664SOL     OW 2009   2.876   0.236   0.971
  664SOL    HW1 2010   2.868   0.200   0.878
  664SOL    HW2 2011   2.874   0.160   1.036
  665SOL     OW 2012   2.452   1.487   0.491
  665SOL    HW1 2013   2.494   1.429   0.421
  665SOL    HW2 2014   2.408   1.566   0.447
  666SOL     OW 2015   2.117   1.348   0.290
  666SOL    HW1 2016   2.021   1.349   0.263
  666SOL    HW2 2017   2.129   1.401   0.374
  667SOL     OW 2018   1.967   1.013   1.726
  667SOL    HW1 2019   1.890   0.980   1.780
  667SOL    HW2 2020   2.052   0.983   1.768
  668SOL     OW 2021   2.534   0.203   1.489
  668SOL    HW1 2022   2.624   0.187   1.449
  668SOL    HW2 2023   2.542   0.208   1.588
  669SOL     OW 2024   1.934   0.166   0.318
  669SOL    HW1 2025   1.917   0.249   0.264
  669SOL    HW2 2026   2.024   0.129   0.296
  670SOL     OW 2027   2.475   0.842   1.431
  670SOL    HW1 2028   2.531   0.923   1.414
  670SOL    HW2 2029   2.534   0.762   1.434
  671SOL     OW 2030   2.578   0.565   1.708
  671SOL    HW1 2031   2.597   0.630   1.782
  671SOL    HW2 2032   2.638   0.485   1.717
  672SOL     OW 2033   2.252   1.741   1.560
  672SOL    HW1 2034   2.161   1.782   1.558
  672SOL    HW2 2035   2.245   1.647   1.592
  673SOL     OW 2036   2.456   0.745   0.652
  673SOL    HW1 2037   2.506   0.830   0.633
  673SOL    HW2 2038   2.368   0.747   0.604
  674SOL     OW 2039   2.721   1.374   0.016
  674SOL    HW1 2040   2.675   1.389   0.104
  674SOL    HW2 2041   2.765   1.459  -0.014
  675SOL     OW 2042   2.523   1.790   0.953
  675SOL    HW1 2043   2.477   1.878   0.940
  675SOL    HW2 2044   2.622   1.802   0.946
  676SOL     OW 2045   2.721   0.956   0.861
  676SOL    HW1 2046   2.775   0.887   0.909
  676SOL    HW2 2047   2.689   1.025   0.927
  677SOL     OW 2048   2.945   0.984   0.087
  677SOL    HW1 2049   2.922   1.037   0.005
  677SOL    HW2 2050   3.026   0.928   0.068
  678SOL     OW 2051   1.941   1.240   0.653
  678SOL    HW1 2052   1.940   1.193   0.741
  678SOL    HW2 2053   2.023   1.212   0.602
  679SOL     OW 2054   2.534   1.391   1.624
  679SOL    HW1 2055   2.456   1.341   1.662
  679SOL    HW2 2056   2.531   1.486   1.655
  680SOL     OW 2057   2.290   0.424   0.520
  680SOL    HW1 2058   2.320   0.352   0.458
  680SOL    HW2 2059   2.251   0.384   0.603
  681SOL     OW 2060   2.179   0.547   1.280
  681SOL    HW1 2061   2.217   0.488   1.352
  681SOL    HW2 2062   2.219   0.521   1.192
  682SOL     OW 2063   2.674   1.586   0.687
  682SOL    HW1 2064   2.706   1.596   0.593
  682SOL    HW2 2065   2.595   1.524   0.689
  683SOL     OW 2066   2.863   0.034   1.154
  683SOL    HW1 2067   2.800  -0.038   1.123
  683SOL    HW2 2068   2.956  -0.002   1.154
  684SOL     OW 2069   2.632   1.330   0.301
  684SOL    HW1 2070   2.586   1.243   0.318
  684SOL    HW2 2071   2.723   1.327   0.342
  685SOL     OW 2072   2.480   1.567   1.284
  685SOL    HW1 2073   2.475   1.649   1.341
  685SOL    HW2 2074   2.569   1.564   1.239
  686SOL     OW 2075   1.901   1.077   0.300
  686SOL    HW1 2076   2.000   1.066   0.291
  686SOL    HW2 2077   1.861   0.991   0.332
  687SOL     OW 2078   2.737   1.646   0.337
  687SOL    HW1 2079   2.660   1.611   0.283
  687SOL    HW2 2080   2.705   1.717   0.399
  688SOL     OW 2081   2.092   0.628   1.975
  688SOL    HW1 2082   1.999   0.626   2.012
  688SOL    HW2 2083   2.093   0.589   1.883
  689SOL     OW 2084   2.087   0.275   2.858
  689SOL    HW1 2085   2.122   0.258   2.950
  689SOL    HW2 2086   1.999   0.230   2.846
  690SOL     OW 2087   1.881   0.368   2.509
  690SOL    HW1 2088   1.799   0.411   2.548
  690SOL    HW2 2089   1.853   0.295   2.446
  691SOL     OW 2090   2.630   1.144   2.885
  691SOL    HW1 2091   2.552   1.161   2.945
  691SOL    HW2 2092   2.664   1.231   2.849
  692SOL     OW 2093   2.547   1.012   2.527
  692SOL    HW1 2094   2.616   0.996   2.597
  692SOL    HW2 2095   2.474   1.069   2.565
  693SOL     OW 2096   2.197   1.435   2.923
  693SOL    HW1 2097   2.119   1.404   2.870
  693SOL    HW2 2098   2.255   1.493   2.866
  694SOL     OW 2099   2.093   1.713   2.345
  694SOL    HW1 2100   2.127   1.790   2.399
  694SOL    HW2 2101   2.137   1.713   2.255
  695SOL     OW 2102   2.092   1.434   2.400
  695SOL    HW1 2103   2.066   1.530   2.400
  695SOL    HW2 2104   2.021   1.380   2.445
  696SOL     OW 2105   2.102   1.091   2.748
  696SOL    HW1 2106   2.116   1.007   2.800
  696SOL    HW2 2107   2.047   1.155   2.803
  697SOL     OW 2108   2.468   0.964   1.985
  697SOL    HW1 2109   2.475   1.048   1.931
  697SOL    HW2 2110   2.514   0.977   2.073
  698SOL     OW 2111   1.984   0.643   2.425
  698SOL    HW1 2112   1.939   0.555   2.442
  698SOL    HW2 2113   1.983   0.697   2.509
  699SOL     OW 2114   1.889   1.596   1.979
  699SOL    HW1 2115   1.870   1.500   2.000
  699SOL    HW2 2116   1.856   1.654   2.054
  700SOL     OW 2117   2.475   1.365   2.588
  700SOL    HW1 2118   2.426   1.278   2.597
  700SOL    HW2 2119   2.452   1.408   2.501
  701SOL     OW 2120   2.671   0.004   2.364
  701SOL    HW1 2121   2.711   0.095   2.355
  701SOL    HW2 2122   2.571   0.012   2.370
  702SOL     OW 2123   2.059   0.976   3.126
  702SOL    HW1 2124   2.148   0.931   3.112
  702SOL    HW2 2125   1.986   0.911   3.107
  703SOL     OW 2126   2.460   0.729   2.132
  703SOL    HW1 2127   2.484   0.798   2.064
  703SOL    HW2 2128   2.382   0.762   2.186
  704SOL     OW 2129   2.903   0.701   2.291
  704SOL    HW1 2130   2.929   0.697   2.387
  704SOL    HW2 2131   2.818   0.650   2.277
  705SOL     OW 2132   1.938   0.811   2.651
  705SOL    HW1 2133   2.037   0.799   2.660
  705SOL    HW2 2134   1.914   0.906   2.672
  706SOL     OW 2135   2.727   0.348   2.057
  706SOL    HW1 2136   2.786   0.411   2.008
  706SOL    HW2 2137   2.746   0.254   2.028
  707SOL     OW 2138   2.412   0.196   2.747
  707SOL    HW1 2139   2.407   0.191   2.847
  707SOL    HW2 2140   2.414   0.292   2.718
  708SOL     OW 2141   2.870   1.456   2.339
  708SOL    HW1 2142   2.824   1.528   2.287
  708SOL    HW2 2143   2.866   1.476   2.437
  709SOL     OW 2144   2.213   1.801   2.715
  709SOL    HW1 2145   2.263   1.715   2.721
  709SOL    HW2 2146   2.278   1.878   2.712
  710SOL     OW 2147   2.183   0.943   2.104
  710SOL    HW1 2148   2.265   0.982   2.062
  710SOL    HW2 2149   2.156   0.861   2.055
  711SOL     OW 2150   2.326   1.743   2.185
  711SOL    HW1 2151   2.359   1.782   2.271
  711SOL    HW2 2152   2.402   1.736   2.120
  712SOL     OW 2153   2.111   1.785   3.103
  712SOL    HW1 2154   2.168   1.720   3.153
  712SOL    HW2 2155   2.095   1.752   3.010
  713SOL     OW 2156   2.802   1.698   2.766
  713SOL    HW1 2157   2.882   1.641   2.787
  713SOL    HW2 2158   2.753   1.658   2.689
  714SOL     OW 2159   2.244   0.700   2.342
  714SOL    HW1 2160   2.289   0.610   2.339
  714SOL    HW2 2161   2.150   0.689   2.375
  715SOL     OW 2162   2.476   0.122   1.979
  715SOL    HW1 2163   2.574   0.100   1.986
  715SOL    HW2 2164   2.445   0.105   1.886
  716SOL     OW 2165   2.665   1.402   2.786
  716SOL    HW1 2166   2.755   1.416   2.744
  716SOL    HW2 2167   2.594   1.404   2.715
  717SOL     OW 2168   2.784   0.503   2.761
  717SOL    HW1 2169   2.759   0.494   2.665
  717SOL    HW2 2170   2.832   0.421   2.792
  718SOL     OW 2171   2.401   0.064   2.374
  718SOL    HW1 2172   2.320   0.065   2.432
  718SOL    HW2 2173   2.404   0.147   2.319
  719SOL     OW 2174   2.159   0.035   2.033
  719SOL    HW1 2175   2.208   0.119   2.012
  719SOL    HW2 2176   2.221  -0.030   2.078
  720SOL     OW 2177   2.797   0.236   2.342
  720SOL    HW1 2178   2.749   0.277   2.264
  720SOL    HW2 2179   2.896   0.234   2.323
  721SOL     OW 2180   3.089   1.570   2.655
  721SOL    HW1 2181   3.110   1.644   2.590
  721SOL    HW2 2182   3.157   1.570   2.728
  722SOL     OW 2183   2.321   1.152   2.603
  722SOL    HW1 2184   2.250   1.125   2.668
  722SOL    HW2 2185   2.295   1.124   2.510
  723SOL     OW 2186   3.133   1.797   2.453
  723SOL    HW1 2187   3.177   1.861   2.389
  723SOL    HW2 2188   3.083   1.849   2.523
  724SOL     OW 2189   2.894   0.549   1.878
  724SOL    HW1 2190   2.853   0.631   1.839
  724SOL    HW2 2191   2.958   0.575   1.951
  725SOL     OW 2192   2.728   0.454   2.504
  725SOL    HW1 2193   2.696   0.526   2.442
  725SOL    HW2 2194   2.752   0.373   2.451
  726SOL     OW 2195   2.879   0.039   2.615
  726SOL    HW1 2196   2.807   0.044   2.546
  726SOL    HW2 2197   2.855  -0.030   2.684
  727SOL     OW 2198   2.350   1.385   2.036
  727SOL    HW1 2199   2.263   1.370   2.083
  727SOL    HW2 2200   2.333   1.411   1.941
  728SOL     OW 2201   2.389   0.256   2.190
  728SOL    HW1 2202   2.416   0.197   2.115
  728SOL    HW2 2203   2.389   0.351   2.159
  729SOL     OW 2204   2.567   1.050   2.230
  729SOL    HW1 2205   2.553   1.057   2.329
  729SOL    HW2 2206   2.651   0.999   2.212
  730SOL     OW 2207   2.272   0.813   3.113
  730SOL    HW1 2208   2.358   0.825   3.163
  730SOL    HW2 2209   2.230   0.726   3.140
  731SOL     OW 2210   2.229   1.100   2.363
  731SOL    HW1 2211   2.222   1.183   2.307
  731SOL    HW2 2212   2.233   1.020   2.303
  732SOL     OW 2213   2.428   0.537   2.727
  732SOL    HW1 2214   2.440   0.603   2.653
  732SOL    HW2 2215   2.474   0.571   2.810
  733SOL     OW 2216   3.114   1.348   2.250
  733SOL    HW1 2217   3.164   1.425   2.290
  733SOL    HW2 2218   3.019   1.350   2.282
  734SOL     OW 2219   2.216   1.510   3.191
  734SOL    HW1 2220   2.195   1.466   3.104
  734SOL    HW2 2221   2.313   1.536   3.194
  735SOL     OW 2222   2.435   0.870   2.891
  735SOL    HW1 2223   2.479   0.959   2.882
  735SOL    HW2 2224   2.372   0.870   2.968
  736SOL     OW 2225   3.071   0.525   2.137
  736SOL    HW1 2226   3.084   0.441   2.191
  736SOL    HW2 2227   3.042   0.599   2.197
  737SOL     OW 2228   2.594   0.634   2.926
  737SOL    HW1 2229   2.653   0.608   2.850
  737SOL    HW2 2230   2.566   0.730   2.915
  738SOL     OW 2231   2.169   0.063   2.480
  738SOL    HW1 2232   2.158   0.157   2.513
  738SOL    HW2 2233   2.164   0.000   2.557
  739SOL     OW 2234   2.885   0.766   2.828
  739SOL    HW1 2235   2.900   0.787   2.924
  739SOL    HW2 2236   2.855   0.671   2.819
  740SOL     OW 2237   2.930   1.333   2.711
  740SOL    HW1 2238   2.937   1.249   2.656
  740SOL    HW2 2239   2.992   1.402   2.675
  741SOL     OW 2240   2.181   0.810   2.811
  741SOL    HW1 2241   2.274   0.846   2.816
  741SOL    HW2 2242   2.175   0.725   2.863
  742SOL     OW 2243   2.201   0.509   2.868
  742SOL    HW1 2244   2.149   0.426   2.851
  742SOL    HW2 2245   2.278   0.514   2.804
  743SOL     OW 2246   1.950   1.801   2.789
  743SOL    HW1 2247   1.908   1.715   2.762
  743SOL    HW2 2248   2.044   1.804   2.755
  744SOL     OW 2249   2.366   1.568   2.772
  744SOL    HW1 2250   2.432   1.642   2.781
  744SOL    HW2 2251   2.410   1.489   2.730
  745SOL     OW 2252   2.864   0.796   3.100
  745SOL    HW1 2253   2.905   0.764   3.186
  745SOL    HW2 2254   2.768   0.769   3.097
  746SOL     OW 2255   1.902   0.544   2.976
  746SOL    HW1 2256   1.987   0.511   2.935
  746SOL    HW2 2257   1.915   0.559   3.074
  747SOL     OW 2258   2.677   0.572   2.187
  747SOL    HW1 2259   2.684   0.483   2.141
  747SOL    HW2 2260   2.583   0.606   2.179
  748SOL     OW 2261   2.533   0.464   3.131
  748SOL    HW1 2262   2.499   0.375   3.101
  748SOL    HW2 2263   2.559   0.518   3.051
  749SOL     OW 2264   2.335   0.500   2.053
  749SOL    HW1 2265   2.396   0.580   2.057
  749SOL    HW2 2266   2.240   0.531   2.060
  750SOL     OW 2267   3.164   0.855   2.171
  750SOL    HW1 2268   3.078   0.824   2.213
  750SOL    HW2 2269   3.160   0.841   2.072
  751SOL     OW 2270   1.945   1.258   2.884
  751SOL    HW1 2271   1.940   1.257   2.984
  751SOL    HW2 2272   1.862   1.217   2.846
  752SOL     OW 2273   2.534   1.616   2.016
  752SOL    HW1 2274   2.543   1.626   1.917
  752SOL    HW2 2275   2.494   1.527   2.037
  753SOL     OW 2276   2.125   0.326   2.582
  753SOL    HW1 2277   2.046   0.377   2.548
  753SOL    HW2 2278   2.116   0.311   2.680
  754SOL     OW 2279   2.778   0.910   2.153
  754SOL    HW1 2280   2.841   0.948   2.085
  754SOL    HW2 2281   2.818   0.827   2.192
  755SOL     OW 2282   2.901   1.098   2.558
  755SOL    HW1 2283   2.831   1.051   2.612
  755SOL    HW2 2284   2.960   1.030   2.515
  756SOL     OW 2285   2.876   0.236   2.833
  756SOL    HW1 2286   2.868   0.200   2.740
  756SOL    HW2 2287   2.874   0.160   2.898
  757SOL     OW 2288   2.452   1.487   2.353
  757SOL    HW1 2289   2.494   1.429   2.283
  757SOL    HW2 2290   2.408   1.566   2.309
  758SOL     OW 2291   2.117   1.348   2.152
  758SOL    HW1 2292   2.021   1.349   2.125
  758SOL    HW2 2293   2.129   1.401   2.236
  759SOL     OW 2294   1.937   0.345   1.895
  759SOL    HW1 2295   1.845   0.317   1.866
  759SOL    HW2 2296   1.968   0.422   1.839
  760SOL     OW 2297   1.934   0.166   2.180
  760SOL    HW1 2298   1.917   0.249   2.126
  760SOL    HW2 2299   2.024   0.129   2.158
  761SOL     OW 2300   2.456   0.745   2.514
  761SOL    HW1 2301   2.506   0.830   2.495
  761SOL    HW2 2302   2.368   0.747   2.466
  762SOL     OW 2303   2.721   1.374   1.878
  762SOL    HW1 2304   2.675   1.389   1.966
  762SOL    HW2 2305   2.765   1.459   1.848
  763SOL     OW 2306   2.523   1.790   2.815
  763SOL    HW1 2307   2.477   1.878   2.802
  763SOL    HW2 2308   2.622   1.802   2.808
  764SOL     OW 2309   2.721   0.956   2.723
  764SOL    HW1 2310   2.775   0.887   2.771
  764SOL    HW2 2311   2.689   1.025   2.789
  765SOL     OW 2312   2.945   0.984   1.949
  765SOL    HW1 2313   2.922   1.037   1.867
  765SOL    HW2 2314   3.026   0.928   1.930
  766SOL     OW 2315   1.941   1.240   2.515
  766SOL    HW1 2316   1.940   1.193   2.603
  766SOL    HW2 2317   2.023   1.212   2.464
  767SOL     OW 2318   2.290   0.424   2.382
  767SOL    HW1 2319   2.320   0.352   2.320
  767SOL    HW2 2320   2.251   0.384   2.465
  768SOL     OW 2321   2.674   1.586   2.549
  768SOL    HW1 2322   2.706   1.596   2.455
  768SOL    HW2 2323   2.595   1.524   2.551
  769SOL     OW 2324   2.632   1.330   2.163
  769SOL    HW1 2325   2.586   1.243   2.180
  769SOL    HW2 2326   2.723   1.327   2.204
  770SOL     OW 2327   1.901   1.077   2.162
  770SOL    HW1 2328   2.000   1.066   2.153
  770SOL    HW2 2329   1.861   0.991   2.194
  771SOL     OW 2330   2.737   1.646   2.199
  771SOL    HW1 2331   2.660   1.611   2.145
  771SOL    HW2 2332   2.705   1.717   2.261
  772SOL     OW 2333   2.092   2.490   0.113
  772SOL    HW1 2334   1.999   2.488   0.150
  772SOL    HW2 2335   2.093   2.451   0.021
  773SOL     OW 2336   2.087   2.137   0.996
  773SOL    HW1 2337   2.122   2.120   1.088
  773SOL    HW2 2338   1.999   2.092   0.984
  774SOL     OW 2339   1.881   2.230   0.647
  774SOL    HW1 2340   1.799   2.273   0.686
  774SOL    HW2 2341   1.853   2.157   0.584
  775SOL     OW 2342   2.630   3.006   1.023
  775SOL    HW1 2343   2.552   3.023   1.083
  775SOL    HW2 2344   2.664   3.093   0.987
  776SOL     OW 2345   2.712   2.660   1.823
  776SOL    HW1 2346   2.708   2.736   1.888
  776SOL    HW2 2347   2.734   2.696   1.732
  777SOL     OW 2348   2.547   2.874   0.665
  777SOL    HW1 2349   2.616   2.858   0.735
  777SOL    HW2 2350   2.474   2.931   0.703
  778SOL     OW 2351   2.300   2.254   1.499
  778SOL    HW1 2352   2.382   2.198   1.508
  778SOL    HW2 2353   2.219   2.196   1.503
  779SOL     OW 2354   2.092   3.296   0.538
  779SOL    HW1 2355   2.066   3.392   0.538
  779SOL    HW2 2356   2.021   3.242   0.583
  780SOL     OW 2357   2.102   2.953   0.886
  780SOL    HW1 2358   2.116   2.869   0.938
  780SOL    HW2 2359   2.047   3.017   0.941
  781SOL     OW 2360   2.468   2.826   0.123
  781SOL    HW1 2361   2.475   2.910   0.069
  781SOL    HW2 2362   2.514   2.839   0.211
  782SOL     OW 2363   1.984   2.505   0.563
  782SOL    HW1 2364   1.939   2.417   0.580
  782SOL    HW2 2365   1.983   2.559   0.647
  783SOL     OW 2366   1.975   2.599   1.597
  783SOL    HW1 2367   2.063   2.586   1.642
  783SOL    HW2 2368   1.962   2.696   1.575
  784SOL     OW 2369   2.671   1.866   0.502
  784SOL    HW1 2370   2.711   1.957   0.493
  784SOL    HW2 2371   2.571   1.874   0.508
  785SOL     OW 2372   2.059   2.838   1.264
  785SOL    HW1 2373   2.148   2.793   1.250
  785SOL    HW2 2374   1.986   2.773   1.245
  786SOL     OW 2375   2.179   2.113   1.801
  786SOL    HW1 2376   2.250   2.184   1.807
  786SOL    HW2 2377   2.091   2.152   1.829
  787SOL     OW 2378   2.460   2.591   0.270
  787SOL    HW1 2379   2.484   2.660   0.202
  787SOL    HW2 2380   2.382   2.624   0.324
  788SOL     OW 2381   2.669   2.467   1.465
  788SOL    HW1 2382   2.622   2.464   1.554
  788SOL    HW2 2383   2.618   2.412   1.399
  789SOL     OW 2384   2.835   2.752   1.572
  789SOL    HW1 2385   2.881   2.668   1.543
  789SOL    HW2 2386   2.779   2.786   1.497
  790SOL     OW 2387   2.853   2.272   1.242
  790SOL    HW1 2388   2.776   2.306   1.296
  790SOL    HW2 2389   2.819   2.221   1.163
  791SOL     OW 2390   2.903   2.563   0.429
  791SOL    HW1 2391   2.929   2.559   0.525
  791SOL    HW2 2392   2.818   2.512   0.415
  792SOL     OW 2393   1.938   2.673   0.789
  792SOL    HW1 2394   2.037   2.661   0.798
  792SOL    HW2 2395   1.914   2.768   0.810
  793SOL     OW 2396   2.727   2.210   0.195
  793SOL    HW1 2397   2.786   2.273   0.146
  793SOL    HW2 2398   2.746   2.116   0.166
  794SOL     OW 2399   2.412   2.058   0.885
  794SOL    HW1 2400   2.407   2.053   0.985
  794SOL    HW2 2401   2.414   2.154   0.856
  795SOL     OW 2402   2.183   2.805   0.242
  795SOL    HW1 2403   2.265   2.844   0.200
  795SOL    HW2 2404   2.156   2.723   0.193
  796SOL     OW 2405   2.064   2.147   1.498
  796SOL    HW1 2406   1.984   2.207   1.485
  796SOL    HW2 2407   2.054   2.098   1.584
  797SOL     OW 2408   2.244   2.562   0.480
  797SOL    HW1 2409   2.289   2.472   0.477
  797SOL    HW2 2410   2.150   2.551   0.513
  798SOL     OW 2411   2.476   1.984   0.117
  798SOL    HW1 2412   2.574   1.962   0.124
  798SOL    HW2 2413   2.445   1.967   0.024
  799SOL     OW 2414   2.643   2.126   1.749
  799SOL    HW1 2415   2.710   2.065   1.792
  799SOL    HW2 2416   2.570   2.145   1.814
  800SOL     OW 2417   2.784   2.365   0.899
  800SOL    HW1 2418   2.759   2.356   0.803
  800SOL    HW2 2419   2.832   2.283   0.930
  801SOL     OW 2420   2.401   1.926   0.512
  801SOL    HW1 2421   2.320   1.927   0.570
  801SOL    HW2 2422   2.404   2.009   0.457
  802SOL     OW 2423   2.797   2.098   0.480
  802SOL    HW1 2424   2.749   2.139   0.402
  802SOL    HW2 2425   2.896   2.096   0.461
  803SOL     OW 2426   2.321   3.014   0.741
  803SOL    HW1 2427   2.250   2.987   0.806
  803SOL    HW2 2428   2.295   2.986   0.648
  804SOL     OW 2429   2.894   2.411   0.016
  804SOL    HW1 2430   2.853   2.493  -0.023
  804SOL    HW2 2431   2.958   2.437   0.089
  805SOL     OW 2432   1.940   2.418   1.386
  805SOL    HW1 2433   2.032   2.417   1.345
  805SOL    HW2 2434   1.934   2.492   1.453
  806SOL     OW 2435   2.423   2.084   1.147
  806SOL    HW1 2436   2.461   2.000   1.184
  806SOL    HW2 2437   2.335   2.103   1.191
  807SOL     OW 2438   2.728   2.316   0.642
  807SOL    HW1 2439   2.696   2.388   0.580
  807SOL    HW2 2440   2.752   2.235   0.589
  808SOL     OW 2441   2.879   1.901   0.753
  808SOL    HW1 2442   2.807   1.906   0.684
  808SOL    HW2 2443   2.855   1.832   0.822
  809SOL     OW 2444   2.389   2.118   0.328
  809SOL    HW1 2445   2.416   2.059   0.253
  809SOL    HW2 2446   2.389   2.213   0.297
  810SOL     OW 2447   2.777   1.951   1.402
  810SOL    HW1 2448   2.802   1.931   1.307
  810SOL    HW2 2449   2.849   2.007   1.444
  811SOL     OW 2450   2.567   2.912   0.368
  811SOL    HW1 2451   2.553   2.919   0.467
  811SOL    HW2 2452   2.651   2.861   0.350
  812SOL     OW 2453   2.272   2.675   1.251
  812SOL    HW1 2454   2.358   2.687   1.301
  812SOL    HW2 2455   2.230   2.588   1.278
  813SOL     OW 2456   2.229   2.962   0.501
  813SOL    HW1 2457   2.222   3.045   0.445
  813SOL    HW2 2458   2.233   2.882   0.441
  814SOL     OW 2459   2.428   2.399   0.865
  814SOL    HW1 2460   2.440   2.465   0.791
  814SOL    HW2 2461   2.474   2.433   0.948
  815SOL     OW 2462   2.264   2.613   1.598
  815SOL    HW1 2463   2.332   2.668   1.551
  815SOL    HW2 2464   2.304   2.525   1.625
  816SOL     OW 2465   2.875   1.967   1.770
  816SOL    HW1 2466   2.881   2.052   1.718
  816SOL    HW2 2467   2.907   1.891   1.713
  817SOL     OW 2468   2.366   1.912   1.740
  817SOL    HW1 2469   2.324   1.855   1.670
  817SOL    HW2 2470   2.300   1.981   1.772
  818SOL     OW 2471   2.435   2.732   1.029
  818SOL    HW1 2472   2.479   2.821   1.020
  818SOL    HW2 2473   2.372   2.732   1.106
  819SOL     OW 2474   3.071   2.387   0.275
  819SOL    HW1 2475   3.084   2.303   0.329
  819SOL    HW2 2476   3.042   2.461   0.335
  820SOL     OW 2477   2.169   2.075   1.231
  820SOL    HW1 2478   2.146   2.112   1.321
  820SOL    HW2 2479   2.139   1.980   1.225
  821SOL     OW 2480   2.594   2.496   1.064
  821SOL    HW1 2481   2.653   2.470   0.988
  821SOL    HW2 2482   2.566   2.592   1.053
  822SOL     OW 2483   2.169   1.925   0.618
  822SOL    HW1 2484   2.158   2.019   0.651
  822SOL    HW2 2485   2.164   1.862   0.695
  823SOL     OW 2486   2.885   2.628   0.966
  823SOL    HW1 2487   2.900   2.649   1.062
  823SOL    HW2 2488   2.855   2.533   0.957
  824SOL     OW 2489   2.212   2.760   1.804
  824SOL    HW1 2490   2.288   2.804   1.852
  824SOL    HW2 2491   2.247   2.713   1.722
  825SOL     OW 2492   2.181   2.672   0.949
  825SOL    HW1 2493   2.274   2.708   0.954
  825SOL    HW2 2494   2.175   2.587   1.001
  826SOL     OW 2495   2.201   2.371   1.006
  826SOL    HW1 2496   2.149   2.288   0.989
  826SOL    HW2 2497   2.278   2.376   0.942
  827SOL     OW 2498   3.000   2.242   1.678
  827SOL    HW1 2499   2.955   2.305   1.742
  827SOL    HW2 2500   3.093   2.273   1.661
  828SOL     OW 2501   3.022   2.069   1.477
  828SOL    HW1 2502   3.022   2.133   1.554
  828SOL    HW2 2503   3.050   2.117   1.394
  829SOL     OW 2504   2.864   2.658   1.238
  829SOL    HW1 2505   2.905   2.626   1.324
  829SOL    HW2 2506   2.768   2.631   1.235
  830SOL     OW 2507   1.902   2.406   1.114
  830SOL    HW1 2508   1.987   2.373   1.073
  830SOL    HW2 2509   1.915   2.421   1.212
  831SOL     OW 2510   2.051   2.382   1.722
  831SOL    HW1 2511   2.110   2.342   1.652
  831SOL    HW2 2512   1.993   2.453   1.681
  832SOL     OW 2513   2.677   2.434   0.325
  832SOL    HW1 2514   2.684   2.345   0.279
  832SOL    HW2 2515   2.583   2.468   0.317
  833SOL     OW 2516   2.533   2.326   1.269
  833SOL    HW1 2517   2.499   2.237   1.239
  833SOL    HW2 2518   2.559   2.380   1.189
  834SOL     OW 2519   2.335   2.362   0.191
  834SOL    HW1 2520   2.396   2.442   0.195
  834SOL    HW2 2521   2.240   2.393   0.198
  835SOL     OW 2522   2.021   2.999   1.466
  835SOL    HW1 2523   2.043   2.938   1.542
  835SOL    HW2 2524   2.031   2.950   1.380
  836SOL     OW 2525   3.164   2.717   0.309
  836SOL    HW1 2526   3.078   2.686   0.351
  836SOL    HW2 2527   3.160   2.703   0.210
  837SOL     OW 2528   2.765   1.948   0.133
  837SOL    HW1 2529   2.816   1.949   0.047
  837SOL    HW2 2530   2.821   1.906   0.204
  838SOL     OW 2531   2.125   2.188   0.720
  838SOL    HW1 2532   2.046   2.239   0.686
  838SOL    HW2 2533   2.116   2.173   0.818
  839SOL     OW 2534   2.684   2.864   1.372
  839SOL    HW1 2535   2.724   2.863   1.280
  839SOL    HW2 2536   2.694   2.956   1.412
  840SOL     OW 2537   2.778   2.772   0.291
  840SOL    HW1 2538   2.841   2.810   0.223
  840SOL    HW2 2539   2.818   2.689   0.330
  841SOL     OW 2540   2.234   3.150   1.490
  841SOL    HW1 2541   2.221   3.243   1.456
  841SOL    HW2 2542   2.150   3.098   1.477
  842SOL     OW 2543   2.876   2.098   0.971
  842SOL    HW1 2544   2.868   2.062   0.878
  842SOL    HW2 2545   2.874   2.022   1.036
  843SOL     OW 2546   1.967   2.875   1.726
  843SOL    HW1 2547   1.890   2.842   1.780
  843SOL    HW2 2548   2.052   2.845   1.768
  844SOL     OW 2549   2.534   2.065   1.489
  844SOL    HW1 2550   2.624   2.049   1.449
  844SOL    HW2 2551   2.542   2.070   1.588
  845SOL     OW 2552   1.934   2.028   0.318
  845SOL    HW1 2553   1.917   2.111   0.264
  845SOL    HW2 2554   2.024   1.991   0.296
  846SOL     OW 2555   2.475   2.704   1.431
  846SOL    HW1 2556   2.531   2.785   1.414
  846SOL    HW2 2557   2.534   2.624   1.434
  847SOL     OW 2558   2.578   2.427   1.708
  847SOL    HW1 2559   2.597   2.492   1.782
  847SOL    HW2 2560   2.638   2.347   1.717
  848SOL     OW 2561   2.456   2.607   0.652
  848SOL    HW1 2562   2.506   2.692   0.633
  848SOL    HW2 2563   2.368   2.609   0.604
  849SOL     OW 2564   2.721   2.818   0.861
  849SOL    HW1 2565   2.775   2.749   0.909
  849SOL    HW2 2566   2.689   2.887   0.927
  850SOL     OW 2567   2.945   2.846   0.087
  850SOL    HW1 2568   2.922   2.899   0.005
  850SOL    HW2 2569   3.026   2.790   0.068
  851SOL     OW 2570   2.290   2.286   0.520
  851SOL    HW1 2571   2.320   2.214   0.458
  851SOL    HW2 2572   2.251   2.246   0.603
  852SOL     OW 2573   2.179   2.409   1.280
  852SOL    HW1 2574   2.217   2.350   1.352
  852SOL    HW2 2575   2.219   2.383   1.192
  853SOL     OW 2576   2.863   1.896   1.154
  853SOL    HW1 2577   2.800   1.824   1.123
  853SOL    HW2 2578   2.956   1.860   1.154
  854SOL     OW 2579   2.632   3.192   0.301
  854SOL    HW1 2580   2.586   3.105   0.318
  854SOL    HW2 2581   2.723   3.189   0.342
  855SOL     OW 2582   1.901   2.939   0.300
  855SOL    HW1 2583   2.000   2.928   0.291
  855SOL    HW2 2584   1.861   2.853   0.332
  856SOL     OW 2585   2.092   2.490   1.975
  856SOL    HW1 2586   1.999   2.488   2.012
  856SOL    HW2 2587   2.093   2.451   1.883
  857SOL     OW 2588   2.087   2.137   2.858
  857SOL    HW1 2589   2.122   2.120   2.950
  857SOL    HW2 2590   1.999   2.092   2.846
  858SOL     OW 2591   1.881   2.230   2.509
  858SOL    HW1 2592   1.799   2.273   2.548
  858SOL    HW2 2593   1.853   2.157   2.446
  859SOL     OW 2594   2.630   3.006   2.885
  859SOL    HW1 2595   2.552   3.023   2.945
  859SOL    HW2 2596   2.664   3.093   2.849
  860SOL     OW 2597   2.547   2.874   2.527
  860SOL    HW1 2598   2.616   2.858   2.597
  860SOL    HW2 2599   2.474   2.931   2.565
  861SOL     OW 2600   2.092   3.296   2.400
  861SOL    HW1 2601   2.066   3.392   2.400
  861SOL    HW2 2602   2.021   3.242   2.445
  862SOL     OW 2603   2.102   2.953   2.748
  862SOL    HW1 2604   2.116   2.869   2.800
  862SOL    HW2 2605   2.047   3.017   2.803
  863SOL     OW 2606   2.468   2.826   1.985
  863SOL    HW1 2607   2.475   2.910   1.931
  863SOL    HW2 2608   2.514   2.839   2.073
  864SOL     OW 2609   1.984   2.505   2.425
  864SOL    HW1 2610   1.939   2.417   2.442
  864SOL    HW2 2611   1.983   2.559   2.509
  865SOL     OW 2612   2.671   1.866   2.364
  865SOL    HW1 2613   2.711   1.957   2.355
  865SOL    HW2 2614   2.571   1.874   2.370
  866SOL     OW 2615   2.059   2.838   3.126
  866SOL    HW1 2616   2.148   2.793   3.112
  866SOL    HW2 2617   1.986   2.773   3.107
  867SOL     OW 2618   2.460   2.591   2.132
  867SOL    HW1 2619   2.484   2.660   2.064
  867SOL    HW2 2620   2.382   2.624   2.186
  868SOL     OW 2621   2.903   2.563   2.291
  868SOL    HW1 2622   2.929   2.559   2.387
  868SOL    HW2 2623   2.818   2.512   2.277
  869SOL     OW 2624   1.938   2.673   2.651
  869SOL    HW1 2625   2.037   2.661   2.660
  869SOL    HW2 2626   1.914   2.768   2.672
  870SOL     OW 2627   2.727   2.210   2.057
  870SOL    HW1 2628   2.786   2.273   2.008
  870SOL    HW2 2629   2.746   2.116   2.028
  871SOL     OW 2630   2.412   2.058   2.747
  871SOL    HW1 2631   2.407   2.053   2.847
  871SOL    HW2 2632   2.414   2.154   2.718
  872SOL     OW 2633   2.183   2.805   2.104
  872SOL    HW1 2634   2.265   2.844   2.062
  872SOL    HW2 2635   2.156   2.723   2.055
  873SOL     OW 2636   2.244   2.562   2.342
  873SOL    HW1 2637   2.289   2.472   2.339
  873SOL    HW2 2638   2.150   2.551   2.375
  874SOL     OW 2639   2.476   1.984   1.979
  874SOL    HW1 2640   2.574   1.962   1.986
  874SOL    HW2 2641   2.445   1.967   1.886
  875SOL     OW 2642   2.784   2.365   2.761
  875SOL    HW1 2643   2.759   2.356   2.665
  875SOL    HW2 2644   2.832   2.283   2.792
  876SOL     OW 2645   2.401   1.926   2.374
  876SOL    HW1 2646   2.320   1.927   2.432
  876SOL    HW2 2647   2.404   2.009   2.319
  877SOL     OW 2648   2.159   1.897   2.033
  877SOL    HW1 2649   2.208   1.981   2.012
  877SOL    HW2 2650   2.221   1.832   2.078
  878SOL     OW 2651   2.797   2.098   2.342
  878SOL    HW1 2652   2.749   2.139   2.264
  878SOL    HW2 2653   2.896   2.096   2.323
  879SOL     OW 2654   2.321   3.014   2.603
  879SOL    HW1 2655   2.250   2.987   2.668
  879SOL    HW2 2656   2.295   2.986   2.510
  880SOL     OW 2657   2.894   2.411   1.878
  880SOL    HW1 2658   2.853   2.493   1.839
  880SOL    HW2 2659   2.958   2.437   1.951
  881SOL     OW 2660   2.728   2.316   2.504
  881SOL    HW1 2661   2.696   2.388   2.442
  881SOL    HW2 2662   2.752   2.235   2.451
  882SOL     OW 2663   2.879   1.901   2.615
  882SOL    HW1 2664   2.807   1.906   2.546
  882SOL    HW2 2665   2.855   1.832   2.684
  883SOL     OW 2666   2.389   2.118   2.190
  883SOL    HW1 2667   2.416   2.059   2.115
  883SOL    HW2 2668   2.389   2.213   2.159
  884SOL     OW 2669   2.567   2.912   2.230
  884SOL    HW1 2670   2.553   2.919   2.329
  884SOL    HW2 2671   2.651   2.861   2.212
  885SOL     OW 2672   2.272   2.675   3.113
  885SOL    HW1 2673   2.358   2.687   3.163
  885SOL    HW2 2674   2.230   2.588   3.140
  886SOL     OW 2675   2.229   2.962   2.363
  886SOL    HW1 2676   2.222   3.045   2.307
  886SOL    HW2 2677   2.233   2.882   2.303
  887SOL     OW 2678   2.428   2.399   2.727
  887SOL    HW1 2679   2.440   2.465   2.653
  887SOL    HW2 2680   2.474   2.433   2.810
  888SOL     OW 2681   2.435   2.732   2.891
  888SOL    HW1 2682   2.479   2.821   2.882
  888SOL    HW2 2683   2.372   2.732   2.968
  889SOL     OW 2684   3.071   2.387   2.137
  889SOL    HW1 2685   3.084   2.303   2.191
  889SOL    HW2 2686   3.042   2.461   2.197
  890SOL     OW 2687   2.169   2.075   3.093
  890SOL    HW1 2688   2.146   2.112   3.183
  890SOL    HW2 2689   2.139   1.980   3.087
  891SOL     OW 2690   2.594   2.496   2.926
  891SOL    HW1 2691   2.653   2.470   2.850
  891SOL    HW2 2692   2.566   2.592   2.915
  892SOL     OW 2693   2.169   1.925   2.480
  892SOL    HW1 2694   2.158   2.019   2.513
  892SOL    HW2 2695   2.164   1.862   2.557
  893SOL     OW 2696   2.885   2.628   2.828
  893SOL    HW1 2697   2.900   2.649   2.924
  893SOL    HW2 2698   2.855   2.533   2.819
  894SOL     OW 2699   2.181   2.672   2.811
  894SOL    HW1 2700   2.274   2.708   2.816
  894SOL    HW2 2701   2.175   2.587   2.863
  895SOL     OW 2702   2.201   2.371   2.868
  895SOL    HW1 2703   2.149   2.288   2.851
  895SOL    HW2 2704   2.278   2.376   2.804
  896SOL     OW 2705   2.864   2.658   3.100
  896SOL    HW1 2706   2.905   2.626   3.186
  896SOL    HW2 2707   2.768   2.631   3.097
  897SOL     OW 2708   1.902   2.406   2.976
  897SOL    HW1 2709   1.987   2.373   2.935
  897SOL    HW2 2710   1.915   2.421   3.074
  898SOL     OW 2711   2.677   2.434   2.187
  898SOL    HW1 2712   2.684   2.345   2.141
  898SOL    HW2 2713   2.583   2.468   2.179
  899SOL     OW 2714   2.533   2.326   3.131
  899SOL    HW1 2715   2.499   2.237   3.101
  899SOL    HW2 2716   2.559   2.380   3.051
  900SOL     OW 2717   2.335   2.362   2.053
  900SOL    HW1 2718   2.396   2.442   2.057
  900SOL    HW2 2719   2.240   2.393   2.060
  901SOL     OW 2720   3.164   2.717   2.171
  901SOL    HW1 2721   3.078   2.686   2.213
  901SOL    HW2 2722   3.160   2.703   2.072
  902SOL     OW 2723   2.125   2.188   2.582
  902SOL    HW1 2724   2.046   2.239   2.548
  902SOL    HW2 2725   2.116   2.173   2.680
  903SOL     OW 2726   2.778   2.772   2.153
  903SOL    HW1 2727   2.841   2.810   2.085
  903SOL    HW2 2728   2.818   2.689   2.192
  904SOL     OW 2729   2.876   2.098   2.833
  904SOL    HW1 2730   2.868   2.062   2.740
  904SOL    HW2 2731   2.874   2.022   2.898
  905SOL     OW 2732   1.937   2.207   1.895
  905SOL    HW1 2733   1.845   2.179   1.866
  905SOL    HW2 2734   1.968   2.284   1.839
  906SOL     OW 2735   1.934   2.028   2.180
  906SOL    HW1 2736   1.917   2.111   2.126
  906SOL    HW2 2737   2.024   1.991   2.158
  907SOL     OW 2738   2.456   2.607   2.514
  907SOL    HW1 2739   2.506   2.692   2.495
  907SOL    HW2 2740   2.368   2.609   2.466
  908SOL     OW 2741   2.721   2.818   2.723
  908SOL    HW1 2742   2.775   2.749   2.771
  908SOL    HW2 2743   2.689   2.887   2.789
  909SOL     OW 2744   2.945   2.846   1.949
  909SOL    HW1 2745   2.922   2.899   1.867
  909SOL    HW2 2746   3.026   2.790   1.930
  910SOL     OW 2747   2.290   2.286   2.382
  910SOL    HW1 2748   2.320   2.214   2.320
  910SOL    HW2 2749   2.251   2.246   2.465
  911SOL     OW 2750   2.632   3.192   2.163
  911SOL    HW1 2751   2.586   3.105   2.180
  911SOL    HW2 2752   2.723   3.189   2.204
  912SOL     OW 2753   1.901   2.939   2.162
  912SOL    HW1 2754   2.000   2.928   2.153
  912SOL    HW2 2755   1.861   2.853   2.194
   3.05028   3.05028   3.05028
