; mobley_628951_GMX.itp created by acpype (v: 2023.10.27) on Thu May 14 13:43:21 2026

[ atomtypes ]
;name   bond_type     mass     charge   ptype   sigma         epsilon       Amb
 ca       ca          0.00000  0.00000   A     3.31521e-01   4.13379e-01 ; 1.86  0.0988
 cp       cp          0.00000  0.00000   A     3.31521e-01   4.13379e-01 ; 1.86  0.0988
 cl       cl          0.00000  0.00000   A     3.46595e-01   1.10374e+00 ; 1.95  0.2638
 ha       ha          0.00000  0.00000   A     2.62548e-01   6.73624e-02 ; 1.47  0.0161

[ moleculetype ]
;name            nrexcl
 mobley_628951    3

[ atoms ]
;   nr  type  resi  res  atom  cgnr     charge      mass       ; qtot   bond_type
     1   ca     1   MOL    C1    1    -0.105000     12.01000 ; qtot -0.105
     2   ca     1   MOL    C2    2    -0.105000     12.01000 ; qtot -0.210
     3   ca     1   MOL    C3    3    -0.129000     12.01000 ; qtot -0.339
     4   ca     1   MOL    C4    4    -0.129000     12.01000 ; qtot -0.468
     5   ca     1   MOL    C5    5    -0.129000     12.01000 ; qtot -0.597
     6   ca     1   MOL    C6    6    -0.129000     12.01000 ; qtot -0.726
     7   cp     1   MOL    C7    7    -0.033000     12.01000 ; qtot -0.759
     8   cp     1   MOL    C8    8    -0.033000     12.01000 ; qtot -0.792
     9   ca     1   MOL    C9    9     0.049400     12.01000 ; qtot -0.743
    10   ca     1   MOL   C10   10     0.049400     12.01000 ; qtot -0.693
    11   ca     1   MOL   C11   11     0.049400     12.01000 ; qtot -0.644
    12   ca     1   MOL   C12   12     0.049400     12.01000 ; qtot -0.594
    13   cl     1   MOL   CL1   13    -0.074400     35.45000 ; qtot -0.669
    14   cl     1   MOL   CL2   14    -0.074400     35.45000 ; qtot -0.743
    15   cl     1   MOL   CL3   15    -0.074400     35.45000 ; qtot -0.818
    16   cl     1   MOL   CL4   16    -0.074400     35.45000 ; qtot -0.892
    17   ha     1   MOL    H1   17     0.143000      1.00800 ; qtot -0.749
    18   ha     1   MOL    H2   18     0.143000      1.00800 ; qtot -0.606
    19   ha     1   MOL    H3   19     0.151500      1.00800 ; qtot -0.455
    20   ha     1   MOL    H4   20     0.151500      1.00800 ; qtot -0.303
    21   ha     1   MOL    H5   21     0.151500      1.00800 ; qtot -0.152
    22   ha     1   MOL    H6   22     0.151500      1.00800 ; qtot 0.000

[ bonds ]
;   ai     aj funct   r             k
     1      3   1    1.3986e-01    2.9644e+05 ;     C1 - C3    
     1      4   1    1.3986e-01    2.9644e+05 ;     C1 - C4    
     1     17   1    1.0860e-01    3.0183e+05 ;     C1 - H1    
     2      5   1    1.3986e-01    2.9644e+05 ;     C2 - C5    
     2      6   1    1.3986e-01    2.9644e+05 ;     C2 - C6    
     2     18   1    1.0860e-01    3.0183e+05 ;     C2 - H2    
     3      9   1    1.3986e-01    2.9644e+05 ;     C3 - C9    
     3     19   1    1.0860e-01    3.0183e+05 ;     C3 - H3    
     4     10   1    1.3986e-01    2.9644e+05 ;     C4 - C10   
     4     20   1    1.0860e-01    3.0183e+05 ;     C4 - H4    
     5     11   1    1.3986e-01    2.9644e+05 ;     C5 - C11   
     5     21   1    1.0860e-01    3.0183e+05 ;     C5 - H5    
     6     12   1    1.3986e-01    2.9644e+05 ;     C6 - C12   
     6     22   1    1.0860e-01    3.0183e+05 ;     C6 - H6    
     7      8   1    1.4829e-01    2.2541e+05 ;     C7 - C8    
     7      9   1    1.4056e-01    2.8959e+05 ;     C7 - C9    
     7     10   1    1.4056e-01    2.8959e+05 ;     C7 - C10   
     8     11   1    1.4056e-01    2.8959e+05 ;     C8 - C11   
     8     12   1    1.4056e-01    2.8959e+05 ;     C8 - C12   
     9     13   1    1.7572e-01    1.5730e+05 ;     C9 - CL1   
    10     14   1    1.7572e-01    1.5730e+05 ;    C10 - CL2   
    11     15   1    1.7572e-01    1.5730e+05 ;    C11 - CL3   
    12     16   1    1.7572e-01    1.5730e+05 ;    C12 - CL4   

[ pairs ]
;   ai     aj    funct
     1      7      1 ;     C1 - C7    
     1     13      1 ;     C1 - CL1   
     1     14      1 ;     C1 - CL2   
     2      8      1 ;     C2 - C8    
     2     15      1 ;     C2 - CL3   
     2     16      1 ;     C2 - CL4   
     3      8      1 ;     C3 - C8    
     3     10      1 ;     C3 - C10   
     3     20      1 ;     C3 - H4    
     4      8      1 ;     C4 - C8    
     4      9      1 ;     C4 - C9    
     4     19      1 ;     C4 - H3    
     5      7      1 ;     C5 - C7    
     5     12      1 ;     C5 - C12   
     5     22      1 ;     C5 - H6    
     6      7      1 ;     C6 - C7    
     6     11      1 ;     C6 - C11   
     6     21      1 ;     C6 - H5    
     7     15      1 ;     C7 - CL3   
     7     16      1 ;     C7 - CL4   
     7     19      1 ;     C7 - H3    
     7     20      1 ;     C7 - H4    
     8     13      1 ;     C8 - CL1   
     8     14      1 ;     C8 - CL2   
     8     21      1 ;     C8 - H5    
     8     22      1 ;     C8 - H6    
     9     11      1 ;     C9 - C11   
     9     12      1 ;     C9 - C12   
     9     14      1 ;     C9 - CL2   
    10     11      1 ;    C10 - C11   
    10     12      1 ;    C10 - C12   
    10     13      1 ;    C10 - CL1   
    11     16      1 ;    C11 - CL4   
    11     18      1 ;    C11 - H2    
    12     15      1 ;    C12 - CL3   
    12     18      1 ;    C12 - H2    
    13     19      1 ;    CL1 - H3    
    14     20      1 ;    CL2 - H4    
    15     21      1 ;    CL3 - H5    
    16     22      1 ;    CL4 - H6    
    17      9      1 ;     H1 - C9    
    17     10      1 ;     H1 - C10   
    17     19      1 ;     H1 - H3    
    17     20      1 ;     H1 - H4    
    18     21      1 ;     H2 - H5    
    18     22      1 ;     H2 - H6    

[ angles ]
;   ai     aj     ak    funct   theta         cth
     1      3      9      1    1.2002e+02    5.3279e+02 ;     C1 - C3     - C9    
     1      3     19      1    1.1988e+02    3.7572e+02 ;     C1 - C3     - H3    
     1      4     10      1    1.2002e+02    5.3279e+02 ;     C1 - C4     - C10   
     1      4     20      1    1.1988e+02    3.7572e+02 ;     C1 - C4     - H4    
     2      5     11      1    1.2002e+02    5.3279e+02 ;     C2 - C5     - C11   
     2      5     21      1    1.1988e+02    3.7572e+02 ;     C2 - C5     - H5    
     2      6     12      1    1.2002e+02    5.3279e+02 ;     C2 - C6     - C12   
     2      6     22      1    1.1988e+02    3.7572e+02 ;     C2 - C6     - H6    
     3      1      4      1    1.2002e+02    5.3279e+02 ;     C3 - C1     - C4    
     3      1     17      1    1.1988e+02    3.7572e+02 ;     C3 - C1     - H1    
     3      9      7      1    1.2073e+02    5.2995e+02 ;     C3 - C9     - C7    
     3      9     13      1    1.1938e+02    5.3605e+02 ;     C3 - C9     - CL1   
     4      1     17      1    1.1988e+02    3.7572e+02 ;     C4 - C1     - H1    
     4     10      7      1    1.2073e+02    5.2995e+02 ;     C4 - C10    - C7    
     4     10     14      1    1.1938e+02    5.3605e+02 ;     C4 - C10    - CL2   
     5      2      6      1    1.2002e+02    5.3279e+02 ;     C5 - C2     - C6    
     5      2     18      1    1.1988e+02    3.7572e+02 ;     C5 - C2     - H2    
     5     11      8      1    1.2073e+02    5.2995e+02 ;     C5 - C11    - C8    
     5     11     15      1    1.1938e+02    5.3605e+02 ;     C5 - C11    - CL3   
     6      2     18      1    1.1988e+02    3.7572e+02 ;     C6 - C2     - H2    
     6     12      8      1    1.2073e+02    5.2995e+02 ;     C6 - C12    - C8    
     6     12     16      1    1.1938e+02    5.3605e+02 ;     C6 - C12    - CL4   
     7      8     11      1    1.2110e+02    5.1296e+02 ;     C7 - C8     - C11   
     7      8     12      1    1.2110e+02    5.1296e+02 ;     C7 - C8     - C12   
     7      9     13      1    1.2044e+02    5.3304e+02 ;     C7 - C9     - CL1   
     7     10     14      1    1.2044e+02    5.3304e+02 ;     C7 - C10    - CL2   
     8      7      9      1    1.2110e+02    5.1296e+02 ;     C8 - C7     - C9    
     8      7     10      1    1.2110e+02    5.1296e+02 ;     C8 - C7     - C10   
     8     11     15      1    1.2044e+02    5.3304e+02 ;     C8 - C11    - CL3   
     8     12     16      1    1.2044e+02    5.3304e+02 ;     C8 - C12    - CL4   
     9      3     19      1    1.1988e+02    3.7572e+02 ;     C9 - C3     - H3    
     9      7     10      1    1.1841e+02    5.3379e+02 ;     C9 - C7     - C10   
    10      4     20      1    1.1988e+02    3.7572e+02 ;    C10 - C4     - H4    
    11      5     21      1    1.1988e+02    3.7572e+02 ;    C11 - C5     - H5    
    11      8     12      1    1.1841e+02    5.3379e+02 ;    C11 - C8     - C12   
    12      6     22      1    1.1988e+02    3.7572e+02 ;    C12 - C6     - H6    

[ dihedrals ] ; propers
; for gromacs 4.5 or higher, using funct 9
;    i      j      k      l   func   phase     kd      pn
     1      3      9      7      9   180.00  15.16700   2 ;     C1-    C3-    C9-    C7
     1      3      9     13      9   180.00  15.16700   2 ;     C1-    C3-    C9-   CL1
     1      4     10      7      9   180.00  15.16700   2 ;     C1-    C4-   C10-    C7
     1      4     10     14      9   180.00  15.16700   2 ;     C1-    C4-   C10-   CL2
     2      5     11      8      9   180.00  15.16700   2 ;     C2-    C5-   C11-    C8
     2      5     11     15      9   180.00  15.16700   2 ;     C2-    C5-   C11-   CL3
     2      6     12      8      9   180.00  15.16700   2 ;     C2-    C6-   C12-    C8
     2      6     12     16      9   180.00  15.16700   2 ;     C2-    C6-   C12-   CL4
     3      1      4     10      9   180.00  15.16700   2 ;     C3-    C1-    C4-   C10
     3      1      4     20      9   180.00  15.16700   2 ;     C3-    C1-    C4-    H4
     3      9      7      8      9   180.00  15.16700   2 ;     C3-    C9-    C7-    C8
     3      9      7     10      9   180.00  15.16700   2 ;     C3-    C9-    C7-   C10
     4      1      3      9      9   180.00  15.16700   2 ;     C4-    C1-    C3-    C9
     4      1      3     19      9   180.00  15.16700   2 ;     C4-    C1-    C3-    H3
     4     10      7      8      9   180.00  15.16700   2 ;     C4-   C10-    C7-    C8
     4     10      7      9      9   180.00  15.16700   2 ;     C4-   C10-    C7-    C9
     5      2      6     12      9   180.00  15.16700   2 ;     C5-    C2-    C6-   C12
     5      2      6     22      9   180.00  15.16700   2 ;     C5-    C2-    C6-    H6
     5     11      8      7      9   180.00  15.16700   2 ;     C5-   C11-    C8-    C7
     5     11      8     12      9   180.00  15.16700   2 ;     C5-   C11-    C8-   C12
     6      2      5     11      9   180.00  15.16700   2 ;     C6-    C2-    C5-   C11
     6      2      5     21      9   180.00  15.16700   2 ;     C6-    C2-    C5-    H5
     6     12      8      7      9   180.00  15.16700   2 ;     C6-   C12-    C8-    C7
     6     12      8     11      9   180.00  15.16700   2 ;     C6-   C12-    C8-   C11
     7      8     11     15      9   180.00  15.16700   2 ;     C7-    C8-   C11-   CL3
     7      8     12     16      9   180.00  15.16700   2 ;     C7-    C8-   C12-   CL4
     7      9      3     19      9   180.00  15.16700   2 ;     C7-    C9-    C3-    H3
     7     10      4     20      9   180.00  15.16700   2 ;     C7-   C10-    C4-    H4
     8      7      9     13      9   180.00  15.16700   2 ;     C8-    C7-    C9-   CL1
     8      7     10     14      9   180.00  15.16700   2 ;     C8-    C7-   C10-   CL2
     8     11      5     21      9   180.00  15.16700   2 ;     C8-   C11-    C5-    H5
     8     12      6     22      9   180.00  15.16700   2 ;     C8-   C12-    C6-    H6
     9      7      8     11      9   180.00   3.20076   2 ;     C9-    C7-    C8-   C11
     9      7      8     12      9   180.00   3.20076   2 ;     C9-    C7-    C8-   C12
     9      7     10     14      9   180.00  15.16700   2 ;     C9-    C7-   C10-   CL2
    10      7      8     11      9   180.00   3.20076   2 ;    C10-    C7-    C8-   C11
    10      7      8     12      9   180.00   3.20076   2 ;    C10-    C7-    C8-   C12
    10      7      9     13      9   180.00  15.16700   2 ;    C10-    C7-    C9-   CL1
    11      5      2     18      9   180.00  15.16700   2 ;    C11-    C5-    C2-    H2
    11      8     12     16      9   180.00  15.16700   2 ;    C11-    C8-   C12-   CL4
    12      6      2     18      9   180.00  15.16700   2 ;    C12-    C6-    C2-    H2
    12      8     11     15      9   180.00  15.16700   2 ;    C12-    C8-   C11-   CL3
    13      9      3     19      9   180.00  15.16700   2 ;    CL1-    C9-    C3-    H3
    14     10      4     20      9   180.00  15.16700   2 ;    CL2-   C10-    C4-    H4
    15     11      5     21      9   180.00  15.16700   2 ;    CL3-   C11-    C5-    H5
    16     12      6     22      9   180.00  15.16700   2 ;    CL4-   C12-    C6-    H6
    17      1      3      9      9   180.00  15.16700   2 ;     H1-    C1-    C3-    C9
    17      1      3     19      9   180.00  15.16700   2 ;     H1-    C1-    C3-    H3
    17      1      4     10      9   180.00  15.16700   2 ;     H1-    C1-    C4-   C10
    17      1      4     20      9   180.00  15.16700   2 ;     H1-    C1-    C4-    H4
    18      2      5     21      9   180.00  15.16700   2 ;     H2-    C2-    C5-    H5
    18      2      6     22      9   180.00  15.16700   2 ;     H2-    C2-    C6-    H6

[ dihedrals ] ; impropers
; treated as propers in GROMACS to use correct AMBER analytical function
;    i      j      k      l   func   phase     kd      pn
     1      9      3     19      4   180.00   4.60240   2 ;     C1-    C9-    C3-    H3
     1     10      4     20      4   180.00   4.60240   2 ;     C1-   C10-    C4-    H4
     2     11      5     21      4   180.00   4.60240   2 ;     C2-   C11-    C5-    H5
     2     12      6     22      4   180.00   4.60240   2 ;     C2-   C12-    C6-    H6
     3     13      9      7      4   180.00   4.60240   2 ;     C3-   CL1-    C9-    C7
     4     14     10      7      4   180.00   4.60240   2 ;     C4-   CL2-   C10-    C7
     5      6      2     18      4   180.00   4.60240   2 ;     C5-    C6-    C2-    H2
     5     15     11      8      4   180.00   4.60240   2 ;     C5-   CL3-   C11-    C8
     6     16     12      8      4   180.00   4.60240   2 ;     C6-   CL4-   C12-    C8
     9     10      7      8      4   180.00   4.60240   2 ;     C9-   C10-    C7-    C8
    11     12      8      7      4   180.00   4.60240   2 ;    C11-   C12-    C8-    C7
    17      1      4      3      4   180.00   4.60240   2 ;     H1-    C1-    C4-    C3
