; mobley_8739734_GMX.itp created by acpype (v: 2023.10.27) on Thu May 14 13:17:12 2026

[ atomtypes ]
;name   bond_type     mass     charge   ptype   sigma         epsilon       Amb
 c        c           0.00000  0.00000   A     3.31521e-01   4.13379e-01 ; 1.86  0.0988
 c3       c3          0.00000  0.00000   A     3.39771e-01   4.51035e-01 ; 1.91  0.1078
 o        o           0.00000  0.00000   A     3.04812e-01   6.12119e-01 ; 1.71  0.1463
 hc       hc          0.00000  0.00000   A     2.60018e-01   8.70272e-02 ; 1.46  0.0208

[ moleculetype ]
;name            nrexcl
 mobley_8739734   3

[ atoms ]
;   nr  type  resi  res  atom  cgnr     charge      mass       ; qtot   bond_type
     1    c     1   MOL    C1    1     0.567097     12.01000 ; qtot 0.567
     2   c3     1   MOL    C2    2    -0.203100     12.01000 ; qtot 0.364
     3   c3     1   MOL    C3    3    -0.087100     12.01000 ; qtot 0.277
     4   c3     1   MOL    C4    4    -0.087100     12.01000 ; qtot 0.190
     5   c3     1   MOL    C5    5    -0.165700     12.01000 ; qtot 0.024
     6    o     1   MOL    O1    6    -0.529100     16.00000 ; qtot -0.505
     7   hc     1   MOL    H1    7     0.063367      1.00800 ; qtot -0.442
     8   hc     1   MOL    H2    8     0.063367      1.00800 ; qtot -0.378
     9   hc     1   MOL    H3    9     0.063367      1.00800 ; qtot -0.315
    10   hc     1   MOL    H4   10     0.042867      1.00800 ; qtot -0.272
    11   hc     1   MOL    H5   11     0.042867      1.00800 ; qtot -0.229
    12   hc     1   MOL    H6   12     0.042867      1.00800 ; qtot -0.186
    13   hc     1   MOL    H7   13     0.042867      1.00800 ; qtot -0.143
    14   hc     1   MOL    H8   14     0.042867      1.00800 ; qtot -0.101
    15   hc     1   MOL    H9   15     0.042867      1.00800 ; qtot -0.058
    16   hc     1   MOL   H10   16     0.057700      1.00800 ; qtot -0.000

[ bonds ]
;   ai     aj funct   r             k
     1      2   1    1.5270e-01    1.9652e+05 ;     C1 - C2    
     1      5   1    1.5270e-01    1.9652e+05 ;     C1 - C5    
     1      6   1    1.2190e-01    4.9421e+05 ;     C1 - O1    
     2      7   1    1.0962e-01    2.8891e+05 ;     C2 - H1    
     2      8   1    1.0962e-01    2.8891e+05 ;     C2 - H2    
     2      9   1    1.0962e-01    2.8891e+05 ;     C2 - H3    
     3      5   1    1.5354e-01    1.9154e+05 ;     C3 - C5    
     3     10   1    1.0962e-01    2.8891e+05 ;     C3 - H4    
     3     11   1    1.0962e-01    2.8891e+05 ;     C3 - H5    
     3     12   1    1.0962e-01    2.8891e+05 ;     C3 - H6    
     4      5   1    1.5354e-01    1.9154e+05 ;     C4 - C5    
     4     13   1    1.0962e-01    2.8891e+05 ;     C4 - H7    
     4     14   1    1.0962e-01    2.8891e+05 ;     C4 - H8    
     4     15   1    1.0962e-01    2.8891e+05 ;     C4 - H9    
     5     16   1    1.0962e-01    2.8891e+05 ;     C5 - H10   

[ pairs ]
;   ai     aj    funct
     1     10      1 ;     C1 - H4    
     1     11      1 ;     C1 - H5    
     1     12      1 ;     C1 - H6    
     1     13      1 ;     C1 - H7    
     1     14      1 ;     C1 - H8    
     1     15      1 ;     C1 - H9    
     2      3      1 ;     C2 - C3    
     2      4      1 ;     C2 - C4    
     2     16      1 ;     C2 - H10   
     3     13      1 ;     C3 - H7    
     3     14      1 ;     C3 - H8    
     3     15      1 ;     C3 - H9    
     4     10      1 ;     C4 - H4    
     4     11      1 ;     C4 - H5    
     4     12      1 ;     C4 - H6    
     5      7      1 ;     C5 - H1    
     5      8      1 ;     C5 - H2    
     5      9      1 ;     C5 - H3    
     6      3      1 ;     O1 - C3    
     6      4      1 ;     O1 - C4    
     6      7      1 ;     O1 - H1    
     6      8      1 ;     O1 - H2    
     6      9      1 ;     O1 - H3    
     6     16      1 ;     O1 - H10   
    10     16      1 ;     H4 - H10   
    11     16      1 ;     H5 - H10   
    12     16      1 ;     H6 - H10   
    13     16      1 ;     H7 - H10   
    14     16      1 ;     H8 - H10   
    15     16      1 ;     H9 - H10   

[ angles ]
;   ai     aj     ak    funct   theta         cth
     1      2      7      1    1.0895e+02    3.6510e+02 ;     C1 - C2     - H1    
     1      2      8      1    1.0895e+02    3.6510e+02 ;     C1 - C2     - H2    
     1      2      9      1    1.0895e+02    3.6510e+02 ;     C1 - C2     - H3    
     1      5      3      1    1.1143e+02    5.0509e+02 ;     C1 - C5     - C3    
     1      5      4      1    1.1143e+02    5.0509e+02 ;     C1 - C5     - C4    
     1      5     16      1    1.0895e+02    3.6510e+02 ;     C1 - C5     - H10   
     2      1      5      1    1.1668e+02    4.9497e+02 ;     C2 - C1     - C5    
     2      1      6      1    1.2290e+02    6.3973e+02 ;     C2 - C1     - O1    
     3      5      4      1    1.1263e+02    5.0099e+02 ;     C3 - C5     - C4    
     3      5     16      1    1.0968e+02    3.6208e+02 ;     C3 - C5     - H10   
     4      5     16      1    1.0968e+02    3.6208e+02 ;     C4 - C5     - H10   
     5      1      6      1    1.2290e+02    6.3973e+02 ;     C5 - C1     - O1    
     5      3     10      1    1.0968e+02    3.6208e+02 ;     C5 - C3     - H4    
     5      3     11      1    1.0968e+02    3.6208e+02 ;     C5 - C3     - H5    
     5      3     12      1    1.0968e+02    3.6208e+02 ;     C5 - C3     - H6    
     5      4     13      1    1.0968e+02    3.6208e+02 ;     C5 - C4     - H7    
     5      4     14      1    1.0968e+02    3.6208e+02 ;     C5 - C4     - H8    
     5      4     15      1    1.0968e+02    3.6208e+02 ;     C5 - C4     - H9    
     7      2      8      1    1.0773e+02    2.9957e+02 ;     H1 - C2     - H2    
     7      2      9      1    1.0773e+02    2.9957e+02 ;     H1 - C2     - H3    
     8      2      9      1    1.0773e+02    2.9957e+02 ;     H2 - C2     - H3    
    10      3     11      1    1.0773e+02    2.9957e+02 ;     H4 - C3     - H5    
    10      3     12      1    1.0773e+02    2.9957e+02 ;     H4 - C3     - H6    
    11      3     12      1    1.0773e+02    2.9957e+02 ;     H5 - C3     - H6    
    13      4     14      1    1.0773e+02    2.9957e+02 ;     H7 - C4     - H8    
    13      4     15      1    1.0773e+02    2.9957e+02 ;     H7 - C4     - H9    
    14      4     15      1    1.0773e+02    2.9957e+02 ;     H8 - C4     - H9    

[ dihedrals ] ; propers
; for gromacs 4.5 or higher, using funct 9
;    i      j      k      l   func   phase     kd      pn
     1      5      3     10      9     0.00   0.65084   3 ;     C1-    C5-    C3-    H4
     1      5      3     11      9     0.00   0.65084   3 ;     C1-    C5-    C3-    H5
     1      5      3     12      9     0.00   0.65084   3 ;     C1-    C5-    C3-    H6
     1      5      4     13      9     0.00   0.65084   3 ;     C1-    C5-    C4-    H7
     1      5      4     14      9     0.00   0.65084   3 ;     C1-    C5-    C4-    H8
     1      5      4     15      9     0.00   0.65084   3 ;     C1-    C5-    C4-    H9
     2      1      5      3      9   180.00   1.09621   2 ;     C2-    C1-    C5-    C3
     2      1      5      4      9   180.00   1.09621   2 ;     C2-    C1-    C5-    C4
     2      1      5     16      9   180.00   0.00000   3 ;     C2-    C1-    C5-   H10
     3      5      4     13      9     0.00   0.54392   3 ;     C3-    C5-    C4-    H7
     3      5      4     14      9     0.00   0.54392   3 ;     C3-    C5-    C4-    H8
     3      5      4     15      9     0.00   0.54392   3 ;     C3-    C5-    C4-    H9
     4      5      3     10      9     0.00   0.54392   3 ;     C4-    C5-    C3-    H4
     4      5      3     11      9     0.00   0.54392   3 ;     C4-    C5-    C3-    H5
     4      5      3     12      9     0.00   0.54392   3 ;     C4-    C5-    C3-    H6
     5      1      2      7      9   180.00   0.00000   3 ;     C5-    C1-    C2-    H1
     5      1      2      8      9   180.00   0.00000   3 ;     C5-    C1-    C2-    H2
     5      1      2      9      9   180.00   0.00000   3 ;     C5-    C1-    C2-    H3
     6      1      2      7      9     0.00  16.86152   1 ;     O1-    C1-    C2-    H1
     6      1      2      7      9   180.00  15.31344   2 ;     O1-    C1-    C2-    H1
     6      1      2      8      9     0.00  16.86152   1 ;     O1-    C1-    C2-    H2
     6      1      2      8      9   180.00  15.31344   2 ;     O1-    C1-    C2-    H2
     6      1      2      9      9     0.00  16.86152   1 ;     O1-    C1-    C2-    H3
     6      1      2      9      9   180.00  15.31344   2 ;     O1-    C1-    C2-    H3
     6      1      5      3      9     0.00   2.84512   1 ;     O1-    C1-    C5-    C3
     6      1      5      3      9   180.00   0.83680   2 ;     O1-    C1-    C5-    C3
     6      1      5      3      9   180.00   1.84096   3 ;     O1-    C1-    C5-    C3
     6      1      5      4      9     0.00   2.84512   1 ;     O1-    C1-    C5-    C4
     6      1      5      4      9   180.00   0.83680   2 ;     O1-    C1-    C5-    C4
     6      1      5      4      9   180.00   1.84096   3 ;     O1-    C1-    C5-    C4
     6      1      5     16      9     0.00  16.86152   1 ;     O1-    C1-    C5-   H10
     6      1      5     16      9   180.00  15.31344   2 ;     O1-    C1-    C5-   H10
    10      3      5     16      9     0.00   0.50208   3 ;     H4-    C3-    C5-   H10
    11      3      5     16      9     0.00   0.50208   3 ;     H5-    C3-    C5-   H10
    12      3      5     16      9     0.00   0.50208   3 ;     H6-    C3-    C5-   H10
    13      4      5     16      9     0.00   0.50208   3 ;     H7-    C4-    C5-   H10
    14      4      5     16      9     0.00   0.50208   3 ;     H8-    C4-    C5-   H10
    15      4      5     16      9     0.00   0.50208   3 ;     H9-    C4-    C5-   H10

[ dihedrals ] ; impropers
; treated as propers in GROMACS to use correct AMBER analytical function
;    i      j      k      l   func   phase     kd      pn
     6      1      5      2      4   180.00   4.60240   2 ;     O1-    C1-    C5-    C2
