; mobley_4219614_GMX.itp created by acpype (v: 2023.10.27) on Thu May 14 13:56:34 2026

[ atomtypes ]
;name   bond_type     mass     charge   ptype   sigma         epsilon       Amb
 ca       ca          0.00000  0.00000   A     3.31521e-01   4.13379e-01 ; 1.86  0.0988
 cl       cl          0.00000  0.00000   A     3.46595e-01   1.10374e+00 ; 1.95  0.2638
 ha       ha          0.00000  0.00000   A     2.62548e-01   6.73624e-02 ; 1.47  0.0161

[ moleculetype ]
;name            nrexcl
 mobley_4219614   3

[ atoms ]
;   nr  type  resi  res  atom  cgnr     charge      mass       ; qtot   bond_type
     1   ca     1   MOL    C1    1    -0.110000     12.01000 ; qtot -0.110
     2   ca     1   MOL    C2    2    -0.110000     12.01000 ; qtot -0.220
     3   ca     1   MOL    C3    3     0.021400     12.01000 ; qtot -0.199
     4   ca     1   MOL    C4    4     0.021400     12.01000 ; qtot -0.177
     5   ca     1   MOL    C5    5     0.022400     12.01000 ; qtot -0.155
     6   ca     1   MOL    C6    6     0.022400     12.01000 ; qtot -0.132
     7   cl     1   MOL   CL1    7    -0.055400     35.45000 ; qtot -0.188
     8   cl     1   MOL   CL2    8    -0.055400     35.45000 ; qtot -0.243
     9   cl     1   MOL   CL3    9    -0.037400     35.45000 ; qtot -0.281
    10   cl     1   MOL   CL4   10    -0.037400     35.45000 ; qtot -0.318
    11   ha     1   MOL    H1   11     0.159000      1.00800 ; qtot -0.159
    12   ha     1   MOL    H2   12     0.159000      1.00800 ; qtot 0.000

[ bonds ]
;   ai     aj funct   r             k
     1      2   1    1.3986e-01    2.9644e+05 ;     C1 - C2    
     1      3   1    1.3986e-01    2.9644e+05 ;     C1 - C3    
     1     11   1    1.0860e-01    3.0183e+05 ;     C1 - H1    
     2      4   1    1.3986e-01    2.9644e+05 ;     C2 - C4    
     2     12   1    1.0860e-01    3.0183e+05 ;     C2 - H2    
     3      5   1    1.3986e-01    2.9644e+05 ;     C3 - C5    
     3      7   1    1.7572e-01    1.5730e+05 ;     C3 - CL1   
     4      6   1    1.3986e-01    2.9644e+05 ;     C4 - C6    
     4      8   1    1.7572e-01    1.5730e+05 ;     C4 - CL2   
     5      6   1    1.3986e-01    2.9644e+05 ;     C5 - C6    
     5      9   1    1.7572e-01    1.5730e+05 ;     C5 - CL3   
     6     10   1    1.7572e-01    1.5730e+05 ;     C6 - CL4   

[ pairs ]
;   ai     aj    funct
     1      6      1 ;     C1 - C6    
     1      8      1 ;     C1 - CL2   
     1      9      1 ;     C1 - CL3   
     2      5      1 ;     C2 - C5    
     2      7      1 ;     C2 - CL1   
     2     10      1 ;     C2 - CL4   
     3      4      1 ;     C3 - C4    
     3     10      1 ;     C3 - CL4   
     3     12      1 ;     C3 - H2    
     4      9      1 ;     C4 - CL3   
     5      8      1 ;     C5 - CL2   
     6      7      1 ;     C6 - CL1   
     6     12      1 ;     C6 - H2    
     7      9      1 ;    CL1 - CL3   
     8     10      1 ;    CL2 - CL4   
     8     12      1 ;    CL2 - H2    
     9     10      1 ;    CL3 - CL4   
    11      4      1 ;     H1 - C4    
    11      5      1 ;     H1 - C5    
    11      7      1 ;     H1 - CL1   
    11     12      1 ;     H1 - H2    

[ angles ]
;   ai     aj     ak    funct   theta         cth
     1      2      4      1    1.2002e+02    5.3279e+02 ;     C1 - C2     - C4    
     1      2     12      1    1.1988e+02    3.7572e+02 ;     C1 - C2     - H2    
     1      3      5      1    1.2002e+02    5.3279e+02 ;     C1 - C3     - C5    
     1      3      7      1    1.1938e+02    5.3605e+02 ;     C1 - C3     - CL1   
     2      1      3      1    1.2002e+02    5.3279e+02 ;     C2 - C1     - C3    
     2      1     11      1    1.1988e+02    3.7572e+02 ;     C2 - C1     - H1    
     2      4      6      1    1.2002e+02    5.3279e+02 ;     C2 - C4     - C6    
     2      4      8      1    1.1938e+02    5.3605e+02 ;     C2 - C4     - CL2   
     3      1     11      1    1.1988e+02    3.7572e+02 ;     C3 - C1     - H1    
     3      5      6      1    1.2002e+02    5.3279e+02 ;     C3 - C5     - C6    
     3      5      9      1    1.1938e+02    5.3605e+02 ;     C3 - C5     - CL3   
     4      2     12      1    1.1988e+02    3.7572e+02 ;     C4 - C2     - H2    
     4      6      5      1    1.2002e+02    5.3279e+02 ;     C4 - C6     - C5    
     4      6     10      1    1.1938e+02    5.3605e+02 ;     C4 - C6     - CL4   
     5      3      7      1    1.1938e+02    5.3605e+02 ;     C5 - C3     - CL1   
     5      6     10      1    1.1938e+02    5.3605e+02 ;     C5 - C6     - CL4   
     6      4      8      1    1.1938e+02    5.3605e+02 ;     C6 - C4     - CL2   
     6      5      9      1    1.1938e+02    5.3605e+02 ;     C6 - C5     - CL3   

[ dihedrals ] ; propers
; for gromacs 4.5 or higher, using funct 9
;    i      j      k      l   func   phase     kd      pn
     1      2      4      6      9   180.00  15.16700   2 ;     C1-    C2-    C4-    C6
     1      2      4      8      9   180.00  15.16700   2 ;     C1-    C2-    C4-   CL2
     1      3      5      6      9   180.00  15.16700   2 ;     C1-    C3-    C5-    C6
     1      3      5      9      9   180.00  15.16700   2 ;     C1-    C3-    C5-   CL3
     2      1      3      5      9   180.00  15.16700   2 ;     C2-    C1-    C3-    C5
     2      1      3      7      9   180.00  15.16700   2 ;     C2-    C1-    C3-   CL1
     2      4      6      5      9   180.00  15.16700   2 ;     C2-    C4-    C6-    C5
     2      4      6     10      9   180.00  15.16700   2 ;     C2-    C4-    C6-   CL4
     3      1      2      4      9   180.00  15.16700   2 ;     C3-    C1-    C2-    C4
     3      1      2     12      9   180.00  15.16700   2 ;     C3-    C1-    C2-    H2
     3      5      6      4      9   180.00  15.16700   2 ;     C3-    C5-    C6-    C4
     3      5      6     10      9   180.00  15.16700   2 ;     C3-    C5-    C6-   CL4
     4      6      5      9      9   180.00  15.16700   2 ;     C4-    C6-    C5-   CL3
     5      6      4      8      9   180.00  15.16700   2 ;     C5-    C6-    C4-   CL2
     6      4      2     12      9   180.00  15.16700   2 ;     C6-    C4-    C2-    H2
     6      5      3      7      9   180.00  15.16700   2 ;     C6-    C5-    C3-   CL1
     7      3      5      9      9   180.00  15.16700   2 ;    CL1-    C3-    C5-   CL3
     8      4      2     12      9   180.00  15.16700   2 ;    CL2-    C4-    C2-    H2
     8      4      6     10      9   180.00  15.16700   2 ;    CL2-    C4-    C6-   CL4
     9      5      6     10      9   180.00  15.16700   2 ;    CL3-    C5-    C6-   CL4
    11      1      2      4      9   180.00  15.16700   2 ;     H1-    C1-    C2-    C4
    11      1      2     12      9   180.00  15.16700   2 ;     H1-    C1-    C2-    H2
    11      1      3      5      9   180.00  15.16700   2 ;     H1-    C1-    C3-    C5
    11      1      3      7      9   180.00  15.16700   2 ;     H1-    C1-    C3-   CL1

[ dihedrals ] ; impropers
; treated as propers in GROMACS to use correct AMBER analytical function
;    i      j      k      l   func   phase     kd      pn
     1      4      2     12      4   180.00   4.60240   2 ;     C1-    C4-    C2-    H2
     1      5      3      7      4   180.00   4.60240   2 ;     C1-    C5-    C3-   CL1
     2      6      4      8      4   180.00   4.60240   2 ;     C2-    C6-    C4-   CL2
     3      6      5      9      4   180.00   4.60240   2 ;     C3-    C6-    C5-   CL3
     4      5      6     10      4   180.00   4.60240   2 ;     C4-    C5-    C6-   CL4
    11      1      3      2      4   180.00   4.60240   2 ;     H1-    C1-    C3-    C2
