; mobley_4013838_GMX.itp created by acpype (v: 2023.10.27) on Thu May 14 13:28:54 2026

[ atomtypes ]
;name   bond_type     mass     charge   ptype   sigma         epsilon       Amb
 c        c           0.00000  0.00000   A     3.31521e-01   4.13379e-01 ; 1.86  0.0988
 c3       c3          0.00000  0.00000   A     3.39771e-01   4.51035e-01 ; 1.91  0.1078
 o        o           0.00000  0.00000   A     3.04812e-01   6.12119e-01 ; 1.71  0.1463
 hc       hc          0.00000  0.00000   A     2.60018e-01   8.70272e-02 ; 1.46  0.0208

[ moleculetype ]
;name            nrexcl
 mobley_4013838   3

[ atoms ]
;   nr  type  resi  res  atom  cgnr     charge      mass       ; qtot   bond_type
     1    c     1   MOL    C1    1     0.569100     12.01000 ; qtot 0.569
     2   c3     1   MOL    C2    2    -0.086600     12.01000 ; qtot 0.482
     3   c3     1   MOL    C3    3    -0.086600     12.01000 ; qtot 0.396
     4   c3     1   MOL    C4    4    -0.086600     12.01000 ; qtot 0.309
     5   c3     1   MOL    C5    5    -0.086600     12.01000 ; qtot 0.223
     6   c3     1   MOL    C6    6    -0.164700     12.01000 ; qtot 0.058
     7   c3     1   MOL    C7    7    -0.164700     12.01000 ; qtot -0.107
     8    o     1   MOL    O1    8    -0.525100     16.00000 ; qtot -0.632
     9   hc     1   MOL    H1    9     0.042700      1.00800 ; qtot -0.589
    10   hc     1   MOL    H2   10     0.042700      1.00800 ; qtot -0.546
    11   hc     1   MOL    H3   11     0.042700      1.00800 ; qtot -0.504
    12   hc     1   MOL    H4   12     0.042700      1.00800 ; qtot -0.461
    13   hc     1   MOL    H5   13     0.042700      1.00800 ; qtot -0.418
    14   hc     1   MOL    H6   14     0.042700      1.00800 ; qtot -0.376
    15   hc     1   MOL    H7   15     0.042700      1.00800 ; qtot -0.333
    16   hc     1   MOL    H8   16     0.042700      1.00800 ; qtot -0.290
    17   hc     1   MOL    H9   17     0.042700      1.00800 ; qtot -0.248
    18   hc     1   MOL   H10   18     0.042700      1.00800 ; qtot -0.205
    19   hc     1   MOL   H11   19     0.042700      1.00800 ; qtot -0.162
    20   hc     1   MOL   H12   20     0.042700      1.00800 ; qtot -0.119
    21   hc     1   MOL   H13   21     0.059700      1.00800 ; qtot -0.060
    22   hc     1   MOL   H14   22     0.059700      1.00800 ; qtot -0.000

[ bonds ]
;   ai     aj funct   r             k
     1      6   1    1.5270e-01    1.9652e+05 ;     C1 - C6    
     1      7   1    1.5270e-01    1.9652e+05 ;     C1 - C7    
     1      8   1    1.2190e-01    4.9421e+05 ;     C1 - O1    
     2      6   1    1.5354e-01    1.9154e+05 ;     C2 - C6    
     2      9   1    1.0962e-01    2.8891e+05 ;     C2 - H1    
     2     10   1    1.0962e-01    2.8891e+05 ;     C2 - H2    
     2     11   1    1.0962e-01    2.8891e+05 ;     C2 - H3    
     3      6   1    1.5354e-01    1.9154e+05 ;     C3 - C6    
     3     12   1    1.0962e-01    2.8891e+05 ;     C3 - H4    
     3     13   1    1.0962e-01    2.8891e+05 ;     C3 - H5    
     3     14   1    1.0962e-01    2.8891e+05 ;     C3 - H6    
     4      7   1    1.5354e-01    1.9154e+05 ;     C4 - C7    
     4     15   1    1.0962e-01    2.8891e+05 ;     C4 - H7    
     4     16   1    1.0962e-01    2.8891e+05 ;     C4 - H8    
     4     17   1    1.0962e-01    2.8891e+05 ;     C4 - H9    
     5      7   1    1.5354e-01    1.9154e+05 ;     C5 - C7    
     5     18   1    1.0962e-01    2.8891e+05 ;     C5 - H10   
     5     19   1    1.0962e-01    2.8891e+05 ;     C5 - H11   
     5     20   1    1.0962e-01    2.8891e+05 ;     C5 - H12   
     6     21   1    1.0962e-01    2.8891e+05 ;     C6 - H13   
     7     22   1    1.0962e-01    2.8891e+05 ;     C7 - H14   

[ pairs ]
;   ai     aj    funct
     1      9      1 ;     C1 - H1    
     1     10      1 ;     C1 - H2    
     1     11      1 ;     C1 - H3    
     1     12      1 ;     C1 - H4    
     1     13      1 ;     C1 - H5    
     1     14      1 ;     C1 - H6    
     1     15      1 ;     C1 - H7    
     1     16      1 ;     C1 - H8    
     1     17      1 ;     C1 - H9    
     1     18      1 ;     C1 - H10   
     1     19      1 ;     C1 - H11   
     1     20      1 ;     C1 - H12   
     2     12      1 ;     C2 - H4    
     2     13      1 ;     C2 - H5    
     2     14      1 ;     C2 - H6    
     3      9      1 ;     C3 - H1    
     3     10      1 ;     C3 - H2    
     3     11      1 ;     C3 - H3    
     4     18      1 ;     C4 - H10   
     4     19      1 ;     C4 - H11   
     4     20      1 ;     C4 - H12   
     5     15      1 ;     C5 - H7    
     5     16      1 ;     C5 - H8    
     5     17      1 ;     C5 - H9    
     6      4      1 ;     C6 - C4    
     6      5      1 ;     C6 - C5    
     6     22      1 ;     C6 - H14   
     7      2      1 ;     C7 - C2    
     7      3      1 ;     C7 - C3    
     7     21      1 ;     C7 - H13   
     8      2      1 ;     O1 - C2    
     8      3      1 ;     O1 - C3    
     8      4      1 ;     O1 - C4    
     8      5      1 ;     O1 - C5    
     8     21      1 ;     O1 - H13   
     8     22      1 ;     O1 - H14   
     9     21      1 ;     H1 - H13   
    10     21      1 ;     H2 - H13   
    11     21      1 ;     H3 - H13   
    12     21      1 ;     H4 - H13   
    13     21      1 ;     H5 - H13   
    14     21      1 ;     H6 - H13   
    15     22      1 ;     H7 - H14   
    16     22      1 ;     H8 - H14   
    17     22      1 ;     H9 - H14   
    18     22      1 ;    H10 - H14   
    19     22      1 ;    H11 - H14   
    20     22      1 ;    H12 - H14   

[ angles ]
;   ai     aj     ak    funct   theta         cth
     1      6      2      1    1.1143e+02    5.0509e+02 ;     C1 - C6     - C2    
     1      6      3      1    1.1143e+02    5.0509e+02 ;     C1 - C6     - C3    
     1      6     21      1    1.0895e+02    3.6510e+02 ;     C1 - C6     - H13   
     1      7      4      1    1.1143e+02    5.0509e+02 ;     C1 - C7     - C4    
     1      7      5      1    1.1143e+02    5.0509e+02 ;     C1 - C7     - C5    
     1      7     22      1    1.0895e+02    3.6510e+02 ;     C1 - C7     - H14   
     2      6      3      1    1.1263e+02    5.0099e+02 ;     C2 - C6     - C3    
     2      6     21      1    1.0968e+02    3.6208e+02 ;     C2 - C6     - H13   
     3      6     21      1    1.0968e+02    3.6208e+02 ;     C3 - C6     - H13   
     4      7      5      1    1.1263e+02    5.0099e+02 ;     C4 - C7     - C5    
     4      7     22      1    1.0968e+02    3.6208e+02 ;     C4 - C7     - H14   
     5      7     22      1    1.0968e+02    3.6208e+02 ;     C5 - C7     - H14   
     6      1      7      1    1.1668e+02    4.9497e+02 ;     C6 - C1     - C7    
     6      1      8      1    1.2290e+02    6.3973e+02 ;     C6 - C1     - O1    
     6      2      9      1    1.0968e+02    3.6208e+02 ;     C6 - C2     - H1    
     6      2     10      1    1.0968e+02    3.6208e+02 ;     C6 - C2     - H2    
     6      2     11      1    1.0968e+02    3.6208e+02 ;     C6 - C2     - H3    
     6      3     12      1    1.0968e+02    3.6208e+02 ;     C6 - C3     - H4    
     6      3     13      1    1.0968e+02    3.6208e+02 ;     C6 - C3     - H5    
     6      3     14      1    1.0968e+02    3.6208e+02 ;     C6 - C3     - H6    
     7      1      8      1    1.2290e+02    6.3973e+02 ;     C7 - C1     - O1    
     7      4     15      1    1.0968e+02    3.6208e+02 ;     C7 - C4     - H7    
     7      4     16      1    1.0968e+02    3.6208e+02 ;     C7 - C4     - H8    
     7      4     17      1    1.0968e+02    3.6208e+02 ;     C7 - C4     - H9    
     7      5     18      1    1.0968e+02    3.6208e+02 ;     C7 - C5     - H10   
     7      5     19      1    1.0968e+02    3.6208e+02 ;     C7 - C5     - H11   
     7      5     20      1    1.0968e+02    3.6208e+02 ;     C7 - C5     - H12   
     9      2     10      1    1.0773e+02    2.9957e+02 ;     H1 - C2     - H2    
     9      2     11      1    1.0773e+02    2.9957e+02 ;     H1 - C2     - H3    
    10      2     11      1    1.0773e+02    2.9957e+02 ;     H2 - C2     - H3    
    12      3     13      1    1.0773e+02    2.9957e+02 ;     H4 - C3     - H5    
    12      3     14      1    1.0773e+02    2.9957e+02 ;     H4 - C3     - H6    
    13      3     14      1    1.0773e+02    2.9957e+02 ;     H5 - C3     - H6    
    15      4     16      1    1.0773e+02    2.9957e+02 ;     H7 - C4     - H8    
    15      4     17      1    1.0773e+02    2.9957e+02 ;     H7 - C4     - H9    
    16      4     17      1    1.0773e+02    2.9957e+02 ;     H8 - C4     - H9    
    18      5     19      1    1.0773e+02    2.9957e+02 ;    H10 - C5     - H11   
    18      5     20      1    1.0773e+02    2.9957e+02 ;    H10 - C5     - H12   
    19      5     20      1    1.0773e+02    2.9957e+02 ;    H11 - C5     - H12   

[ dihedrals ] ; propers
; for gromacs 4.5 or higher, using funct 9
;    i      j      k      l   func   phase     kd      pn
     1      6      2      9      9     0.00   0.65084   3 ;     C1-    C6-    C2-    H1
     1      6      2     10      9     0.00   0.65084   3 ;     C1-    C6-    C2-    H2
     1      6      2     11      9     0.00   0.65084   3 ;     C1-    C6-    C2-    H3
     1      6      3     12      9     0.00   0.65084   3 ;     C1-    C6-    C3-    H4
     1      6      3     13      9     0.00   0.65084   3 ;     C1-    C6-    C3-    H5
     1      6      3     14      9     0.00   0.65084   3 ;     C1-    C6-    C3-    H6
     1      7      4     15      9     0.00   0.65084   3 ;     C1-    C7-    C4-    H7
     1      7      4     16      9     0.00   0.65084   3 ;     C1-    C7-    C4-    H8
     1      7      4     17      9     0.00   0.65084   3 ;     C1-    C7-    C4-    H9
     1      7      5     18      9     0.00   0.65084   3 ;     C1-    C7-    C5-   H10
     1      7      5     19      9     0.00   0.65084   3 ;     C1-    C7-    C5-   H11
     1      7      5     20      9     0.00   0.65084   3 ;     C1-    C7-    C5-   H12
     2      6      3     12      9     0.00   0.54392   3 ;     C2-    C6-    C3-    H4
     2      6      3     13      9     0.00   0.54392   3 ;     C2-    C6-    C3-    H5
     2      6      3     14      9     0.00   0.54392   3 ;     C2-    C6-    C3-    H6
     3      6      2      9      9     0.00   0.54392   3 ;     C3-    C6-    C2-    H1
     3      6      2     10      9     0.00   0.54392   3 ;     C3-    C6-    C2-    H2
     3      6      2     11      9     0.00   0.54392   3 ;     C3-    C6-    C2-    H3
     4      7      5     18      9     0.00   0.54392   3 ;     C4-    C7-    C5-   H10
     4      7      5     19      9     0.00   0.54392   3 ;     C4-    C7-    C5-   H11
     4      7      5     20      9     0.00   0.54392   3 ;     C4-    C7-    C5-   H12
     5      7      4     15      9     0.00   0.54392   3 ;     C5-    C7-    C4-    H7
     5      7      4     16      9     0.00   0.54392   3 ;     C5-    C7-    C4-    H8
     5      7      4     17      9     0.00   0.54392   3 ;     C5-    C7-    C4-    H9
     6      1      7      4      9   180.00   1.09621   2 ;     C6-    C1-    C7-    C4
     6      1      7      5      9   180.00   1.09621   2 ;     C6-    C1-    C7-    C5
     6      1      7     22      9   180.00   0.00000   3 ;     C6-    C1-    C7-   H14
     7      1      6      2      9   180.00   1.09621   2 ;     C7-    C1-    C6-    C2
     7      1      6      3      9   180.00   1.09621   2 ;     C7-    C1-    C6-    C3
     7      1      6     21      9   180.00   0.00000   3 ;     C7-    C1-    C6-   H13
     8      1      6      2      9     0.00   2.84512   1 ;     O1-    C1-    C6-    C2
     8      1      6      2      9   180.00   0.83680   2 ;     O1-    C1-    C6-    C2
     8      1      6      2      9   180.00   1.84096   3 ;     O1-    C1-    C6-    C2
     8      1      6      3      9     0.00   2.84512   1 ;     O1-    C1-    C6-    C3
     8      1      6      3      9   180.00   0.83680   2 ;     O1-    C1-    C6-    C3
     8      1      6      3      9   180.00   1.84096   3 ;     O1-    C1-    C6-    C3
     8      1      6     21      9     0.00  16.86152   1 ;     O1-    C1-    C6-   H13
     8      1      6     21      9   180.00  15.31344   2 ;     O1-    C1-    C6-   H13
     8      1      7      4      9     0.00   2.84512   1 ;     O1-    C1-    C7-    C4
     8      1      7      4      9   180.00   0.83680   2 ;     O1-    C1-    C7-    C4
     8      1      7      4      9   180.00   1.84096   3 ;     O1-    C1-    C7-    C4
     8      1      7      5      9     0.00   2.84512   1 ;     O1-    C1-    C7-    C5
     8      1      7      5      9   180.00   0.83680   2 ;     O1-    C1-    C7-    C5
     8      1      7      5      9   180.00   1.84096   3 ;     O1-    C1-    C7-    C5
     8      1      7     22      9     0.00  16.86152   1 ;     O1-    C1-    C7-   H14
     8      1      7     22      9   180.00  15.31344   2 ;     O1-    C1-    C7-   H14
     9      2      6     21      9     0.00   0.50208   3 ;     H1-    C2-    C6-   H13
    10      2      6     21      9     0.00   0.50208   3 ;     H2-    C2-    C6-   H13
    11      2      6     21      9     0.00   0.50208   3 ;     H3-    C2-    C6-   H13
    12      3      6     21      9     0.00   0.50208   3 ;     H4-    C3-    C6-   H13
    13      3      6     21      9     0.00   0.50208   3 ;     H5-    C3-    C6-   H13
    14      3      6     21      9     0.00   0.50208   3 ;     H6-    C3-    C6-   H13
    15      4      7     22      9     0.00   0.50208   3 ;     H7-    C4-    C7-   H14
    16      4      7     22      9     0.00   0.50208   3 ;     H8-    C4-    C7-   H14
    17      4      7     22      9     0.00   0.50208   3 ;     H9-    C4-    C7-   H14
    18      5      7     22      9     0.00   0.50208   3 ;    H10-    C5-    C7-   H14
    19      5      7     22      9     0.00   0.50208   3 ;    H11-    C5-    C7-   H14
    20      5      7     22      9     0.00   0.50208   3 ;    H12-    C5-    C7-   H14

[ dihedrals ] ; impropers
; treated as propers in GROMACS to use correct AMBER analytical function
;    i      j      k      l   func   phase     kd      pn
     8      1      7      6      4   180.00   4.60240   2 ;     O1-    C1-    C7-    C6
