; mobley_755351_GMX.itp created by acpype (v: 2023.10.27) on Thu May 14 13:29:08 2026

[ atomtypes ]
;name   bond_type     mass     charge   ptype   sigma         epsilon       Amb
 ca       ca          0.00000  0.00000   A     3.31521e-01   4.13379e-01 ; 1.86  0.0988
 c3       c3          0.00000  0.00000   A     3.39771e-01   4.51035e-01 ; 1.91  0.1078
 nv       nv          0.00000  0.00000   A     3.36813e-01   4.68608e-01 ; 1.89  0.1120
 os       os          0.00000  0.00000   A     3.15610e-01   3.03758e-01 ; 1.77  0.0726
 ha       ha          0.00000  0.00000   A     2.62548e-01   6.73624e-02 ; 1.47  0.0161
 h1       h1          0.00000  0.00000   A     2.42200e-01   8.70272e-02 ; 1.36  0.0208
 hn       hn          0.00000  0.00000   A     1.10650e-01   4.18400e-02 ; 0.62  0.0100

[ moleculetype ]
;name            nrexcl
 mobley_755351    3

[ atoms ]
;   nr  type  resi  res  atom  cgnr     charge      mass       ; qtot   bond_type
     1   ca     1   MOL    C1    1    -0.060000     12.01000 ; qtot -0.060
     2   ca     1   MOL    C2    2    -0.224000     12.01000 ; qtot -0.284
     3   ca     1   MOL    C3    3    -0.246000     12.01000 ; qtot -0.530
     4   ca     1   MOL    C4    4    -0.225000     12.01000 ; qtot -0.755
     5   ca     1   MOL    C5    5     0.171600     12.01000 ; qtot -0.583
     6   ca     1   MOL    C6    6     0.160100     12.01000 ; qtot -0.423
     7   c3     1   MOL    C7    7     0.114700     12.01000 ; qtot -0.309
     8   nv     1   MOL    N1    8    -0.822200     14.01000 ; qtot -1.131
     9   os     1   MOL    O1    9    -0.329900     16.00000 ; qtot -1.461
    10   ha     1   MOL    H1   10     0.129000      1.00800 ; qtot -1.332
    11   ha     1   MOL    H2   11     0.132000      1.00800 ; qtot -1.200
    12   ha     1   MOL    H3   12     0.136000      1.00800 ; qtot -1.064
    13   ha     1   MOL    H4   13     0.148000      1.00800 ; qtot -0.916
    14   h1     1   MOL    H5   14     0.043700      1.00800 ; qtot -0.872
    15   h1     1   MOL    H6   15     0.043700      1.00800 ; qtot -0.828
    16   h1     1   MOL    H7   16     0.043700      1.00800 ; qtot -0.785
    17   hn     1   MOL    H8   17     0.392300      1.00800 ; qtot -0.392
    18   hn     1   MOL    H9   18     0.392300      1.00800 ; qtot -0.000

[ bonds ]
;   ai     aj funct   r             k
     1      2   1    1.3986e-01    2.9644e+05 ;     C1 - C2    
     1      3   1    1.3986e-01    2.9644e+05 ;     C1 - C3    
     1     10   1    1.0860e-01    3.0183e+05 ;     C1 - H1    
     2      5   1    1.3986e-01    2.9644e+05 ;     C2 - C5    
     2     11   1    1.0860e-01    3.0183e+05 ;     C2 - H2    
     3      6   1    1.3986e-01    2.9644e+05 ;     C3 - C6    
     3     12   1    1.0860e-01    3.0183e+05 ;     C3 - H3    
     4      5   1    1.3986e-01    2.9644e+05 ;     C4 - C5    
     4      6   1    1.3986e-01    2.9644e+05 ;     C4 - C6    
     4     13   1    1.0860e-01    3.0183e+05 ;     C4 - H4    
     5      8   1    1.3744e-01    2.8644e+05 ;     C5 - N1    
     6      9   1    1.3688e-01    2.8731e+05 ;     C6 - O1    
     7      9   1    1.4273e-01    2.3620e+05 ;     C7 - O1    
     7     14   1    1.0969e-01    2.8804e+05 ;     C7 - H5    
     7     15   1    1.0969e-01    2.8804e+05 ;     C7 - H6    
     7     16   1    1.0969e-01    2.8804e+05 ;     C7 - H7    
     8     17   1    1.0114e-01    3.9961e+05 ;     N1 - H8    
     8     18   1    1.0114e-01    3.9961e+05 ;     N1 - H9    

[ pairs ]
;   ai     aj    funct
     1      4      1 ;     C1 - C4    
     1      8      1 ;     C1 - N1    
     1      9      1 ;     C1 - O1    
     2      6      1 ;     C2 - C6    
     2     12      1 ;     C2 - H3    
     2     13      1 ;     C2 - H4    
     2     17      1 ;     C2 - H8    
     2     18      1 ;     C2 - H9    
     3      5      1 ;     C3 - C5    
     3      7      1 ;     C3 - C7    
     3     11      1 ;     C3 - H2    
     3     13      1 ;     C3 - H4    
     4      7      1 ;     C4 - C7    
     4     11      1 ;     C4 - H2    
     4     12      1 ;     C4 - H3    
     4     17      1 ;     C4 - H8    
     4     18      1 ;     C4 - H9    
     5      9      1 ;     C5 - O1    
     6      8      1 ;     C6 - N1    
     6     14      1 ;     C6 - H5    
     6     15      1 ;     C6 - H6    
     6     16      1 ;     C6 - H7    
     8     11      1 ;     N1 - H2    
     8     13      1 ;     N1 - H4    
     9     12      1 ;     O1 - H3    
     9     13      1 ;     O1 - H4    
    10      5      1 ;     H1 - C5    
    10      6      1 ;     H1 - C6    
    10     11      1 ;     H1 - H2    
    10     12      1 ;     H1 - H3    

[ angles ]
;   ai     aj     ak    funct   theta         cth
     1      2      5      1    1.2002e+02    5.3279e+02 ;     C1 - C2     - C5    
     1      2     11      1    1.1988e+02    3.7572e+02 ;     C1 - C2     - H2    
     1      3      6      1    1.2002e+02    5.3279e+02 ;     C1 - C3     - C6    
     1      3     12      1    1.1988e+02    3.7572e+02 ;     C1 - C3     - H3    
     2      1      3      1    1.2002e+02    5.3279e+02 ;     C2 - C1     - C3    
     2      1     10      1    1.1988e+02    3.7572e+02 ;     C2 - C1     - H1    
     2      5      4      1    1.2002e+02    5.3279e+02 ;     C2 - C5     - C4    
     2      5      8      1    1.2094e+02    5.6827e+02 ;     C2 - C5     - N1    
     3      1     10      1    1.1988e+02    3.7572e+02 ;     C3 - C1     - H1    
     3      6      4      1    1.2002e+02    5.3279e+02 ;     C3 - C6     - C4    
     3      6      9      1    1.1911e+02    6.6107e+02 ;     C3 - C6     - O1    
     4      5      8      1    1.2094e+02    5.6827e+02 ;     C4 - C5     - N1    
     4      6      9      1    1.1911e+02    6.6107e+02 ;     C4 - C6     - O1    
     5      2     11      1    1.1988e+02    3.7572e+02 ;     C5 - C2     - H2    
     5      4      6      1    1.2002e+02    5.3279e+02 ;     C5 - C4     - C6    
     5      4     13      1    1.1988e+02    3.7572e+02 ;     C5 - C4     - H4    
     5      8     17      1    1.1673e+02    4.8292e+02 ;     C5 - N1     - H8    
     5      8     18      1    1.1673e+02    4.8292e+02 ;     C5 - N1     - H9    
     6      3     12      1    1.1988e+02    3.7572e+02 ;     C6 - C3     - H3    
     6      4     13      1    1.1988e+02    3.7572e+02 ;     C6 - C4     - H4    
     6      9      7      1    1.1839e+02    7.3856e+02 ;     C6 - O1     - C7    
     9      7     14      1    1.1034e+02    4.7028e+02 ;     O1 - C7     - H5    
     9      7     15      1    1.1034e+02    4.7028e+02 ;     O1 - C7     - H6    
     9      7     16      1    1.1034e+02    4.7028e+02 ;     O1 - C7     - H7    
    14      7     15      1    1.0855e+02    2.9824e+02 ;     H5 - C7     - H6    
    14      7     16      1    1.0855e+02    2.9824e+02 ;     H5 - C7     - H7    
    15      7     16      1    1.0855e+02    2.9824e+02 ;     H6 - C7     - H7    
    17      8     18      1    1.1528e+02    3.8794e+02 ;     H8 - N1     - H9    

[ dihedrals ] ; propers
; for gromacs 4.5 or higher, using funct 9
;    i      j      k      l   func   phase     kd      pn
     1      2      5      4      9   180.00  15.16700   2 ;     C1-    C2-    C5-    C4
     1      2      5      8      9   180.00  15.16700   2 ;     C1-    C2-    C5-    N1
     1      3      6      4      9   180.00  15.16700   2 ;     C1-    C3-    C6-    C4
     1      3      6      9      9   180.00  15.16700   2 ;     C1-    C3-    C6-    O1
     2      1      3      6      9   180.00  15.16700   2 ;     C2-    C1-    C3-    C6
     2      1      3     12      9   180.00  15.16700   2 ;     C2-    C1-    C3-    H3
     2      5      4      6      9   180.00  15.16700   2 ;     C2-    C5-    C4-    C6
     2      5      4     13      9   180.00  15.16700   2 ;     C2-    C5-    C4-    H4
     2      5      8     17      9   180.00   4.39320   2 ;     C2-    C5-    N1-    H8
     2      5      8     18      9   180.00   4.39320   2 ;     C2-    C5-    N1-    H9
     3      1      2      5      9   180.00  15.16700   2 ;     C3-    C1-    C2-    C5
     3      1      2     11      9   180.00  15.16700   2 ;     C3-    C1-    C2-    H2
     3      6      4      5      9   180.00  15.16700   2 ;     C3-    C6-    C4-    C5
     3      6      4     13      9   180.00  15.16700   2 ;     C3-    C6-    C4-    H4
     3      6      9      7      9   180.00   6.94544   2 ;     C3-    C6-    O1-    C7
     4      5      2     11      9   180.00  15.16700   2 ;     C4-    C5-    C2-    H2
     4      5      8     17      9   180.00   4.39320   2 ;     C4-    C5-    N1-    H8
     4      5      8     18      9   180.00   4.39320   2 ;     C4-    C5-    N1-    H9
     4      6      3     12      9   180.00  15.16700   2 ;     C4-    C6-    C3-    H3
     4      6      9      7      9   180.00   6.94544   2 ;     C4-    C6-    O1-    C7
     5      4      6      9      9   180.00  15.16700   2 ;     C5-    C4-    C6-    O1
     6      4      5      8      9   180.00  15.16700   2 ;     C6-    C4-    C5-    N1
     6      9      7     14      9     0.00   1.60387   3 ;     C6-    O1-    C7-    H5
     6      9      7     15      9     0.00   1.60387   3 ;     C6-    O1-    C7-    H6
     6      9      7     16      9     0.00   1.60387   3 ;     C6-    O1-    C7-    H7
     8      5      2     11      9   180.00  15.16700   2 ;     N1-    C5-    C2-    H2
     8      5      4     13      9   180.00  15.16700   2 ;     N1-    C5-    C4-    H4
     9      6      3     12      9   180.00  15.16700   2 ;     O1-    C6-    C3-    H3
     9      6      4     13      9   180.00  15.16700   2 ;     O1-    C6-    C4-    H4
    10      1      2      5      9   180.00  15.16700   2 ;     H1-    C1-    C2-    C5
    10      1      2     11      9   180.00  15.16700   2 ;     H1-    C1-    C2-    H2
    10      1      3      6      9   180.00  15.16700   2 ;     H1-    C1-    C3-    C6
    10      1      3     12      9   180.00  15.16700   2 ;     H1-    C1-    C3-    H3

[ dihedrals ] ; impropers
; treated as propers in GROMACS to use correct AMBER analytical function
;    i      j      k      l   func   phase     kd      pn
     1      5      2     11      4   180.00   4.60240   2 ;     C1-    C5-    C2-    H2
     1      6      3     12      4   180.00   4.60240   2 ;     C1-    C6-    C3-    H3
     2      4      5      8      4   180.00   4.60240   2 ;     C2-    C4-    C5-    N1
     3      4      6      9      4   180.00   4.60240   2 ;     C3-    C4-    C6-    O1
     5      6      4     13      4   180.00   4.60240   2 ;     C5-    C6-    C4-    H4
     5     17      8     18      4   180.00   4.60240   2 ;     C5-    H8-    N1-    H9
    10      1      3      2      4   180.00   4.60240   2 ;     H1-    C1-    C3-    C2
