; mobley_296847_GMX.itp created by acpype (v: 2023.10.27) on Thu May 14 13:25:30 2026

[ atomtypes ]
;name   bond_type     mass     charge   ptype   sigma         epsilon       Amb
 ca       ca          0.00000  0.00000   A     3.31521e-01   4.13379e-01 ; 1.86  0.0988
 nb       nb          0.00000  0.00000   A     3.38417e-01   3.93714e-01 ; 1.90  0.0941
 ha       ha          0.00000  0.00000   A     2.62548e-01   6.73624e-02 ; 1.47  0.0161
 h4       h4          0.00000  0.00000   A     2.53639e-01   6.73624e-02 ; 1.42  0.0161

[ moleculetype ]
;name            nrexcl
 mobley_296847    3

[ atoms ]
;   nr  type  resi  res  atom  cgnr     charge      mass       ; qtot   bond_type
     1   ca     1   MOL    C1    1    -0.093000     12.01000 ; qtot -0.093
     2   ca     1   MOL    C2    2    -0.246300     12.01000 ; qtot -0.339
     3   ca     1   MOL    C3    3    -0.246300     12.01000 ; qtot -0.586
     4   ca     1   MOL    C4    4     0.393200     12.01000 ; qtot -0.192
     5   ca     1   MOL    C5    5     0.393200     12.01000 ; qtot 0.201
     6   nb     1   MOL    N1    6    -0.666000     14.01000 ; qtot -0.465
     7   ha     1   MOL    H1    7     0.137000      1.00800 ; qtot -0.328
     8   ha     1   MOL    H2    8     0.143000      1.00800 ; qtot -0.185
     9   ha     1   MOL    H3    9     0.143000      1.00800 ; qtot -0.042
    10   h4     1   MOL    H4   10     0.021100      1.00800 ; qtot -0.021
    11   h4     1   MOL    H5   11     0.021100      1.00800 ; qtot -0.000

[ bonds ]
;   ai     aj funct   r             k
     1      2   1    1.3986e-01    2.9644e+05 ;     C1 - C2    
     1      3   1    1.3986e-01    2.9644e+05 ;     C1 - C3    
     1      7   1    1.0860e-01    3.0183e+05 ;     C1 - H1    
     2      4   1    1.3986e-01    2.9644e+05 ;     C2 - C4    
     2      8   1    1.0860e-01    3.0183e+05 ;     C2 - H2    
     3      5   1    1.3986e-01    2.9644e+05 ;     C3 - C5    
     3      9   1    1.0860e-01    3.0183e+05 ;     C3 - H3    
     4      6   1    1.3392e-01    3.2341e+05 ;     C4 - N1    
     4     10   1    1.0885e-01    2.9859e+05 ;     C4 - H4    
     5      6   1    1.3392e-01    3.2341e+05 ;     C5 - N1    
     5     11   1    1.0885e-01    2.9859e+05 ;     C5 - H5    

[ pairs ]
;   ai     aj    funct
     1      6      1 ;     C1 - N1    
     1     10      1 ;     C1 - H4    
     1     11      1 ;     C1 - H5    
     2      5      1 ;     C2 - C5    
     2      9      1 ;     C2 - H3    
     3      4      1 ;     C3 - C4    
     3      8      1 ;     C3 - H2    
     4     11      1 ;     C4 - H5    
     5     10      1 ;     C5 - H4    
     6      8      1 ;     N1 - H2    
     6      9      1 ;     N1 - H3    
     7      4      1 ;     H1 - C4    
     7      5      1 ;     H1 - C5    
     7      8      1 ;     H1 - H2    
     7      9      1 ;     H1 - H3    
     8     10      1 ;     H2 - H4    
     9     11      1 ;     H3 - H5    

[ angles ]
;   ai     aj     ak    funct   theta         cth
     1      2      4      1    1.2002e+02    5.3279e+02 ;     C1 - C2     - C4    
     1      2      8      1    1.1988e+02    3.7572e+02 ;     C1 - C2     - H2    
     1      3      5      1    1.2002e+02    5.3279e+02 ;     C1 - C3     - C5    
     1      3      9      1    1.1988e+02    3.7572e+02 ;     C1 - C3     - H3    
     2      1      3      1    1.2002e+02    5.3279e+02 ;     C2 - C1     - C3    
     2      1      7      1    1.1988e+02    3.7572e+02 ;     C2 - C1     - H1    
     2      4      6      1    1.2294e+02    5.7045e+02 ;     C2 - C4     - N1    
     2      4     10      1    1.2032e+02    3.7489e+02 ;     C2 - C4     - H4    
     3      1      7      1    1.1988e+02    3.7572e+02 ;     C3 - C1     - H1    
     3      5      6      1    1.2294e+02    5.7045e+02 ;     C3 - C5     - N1    
     3      5     11      1    1.2032e+02    3.7489e+02 ;     C3 - C5     - H5    
     4      2      8      1    1.1988e+02    3.7572e+02 ;     C4 - C2     - H2    
     4      6      5      1    1.1724e+02    6.9580e+02 ;     C4 - N1     - C5    
     5      3      9      1    1.1988e+02    3.7572e+02 ;     C5 - C3     - H3    
     6      4     10      1    1.1602e+02    4.1924e+02 ;     N1 - C4     - H4    
     6      5     11      1    1.1602e+02    4.1924e+02 ;     N1 - C5     - H5    

[ dihedrals ] ; propers
; for gromacs 4.5 or higher, using funct 9
;    i      j      k      l   func   phase     kd      pn
     1      2      4      6      9   180.00  15.16700   2 ;     C1-    C2-    C4-    N1
     1      2      4     10      9   180.00  15.16700   2 ;     C1-    C2-    C4-    H4
     1      3      5      6      9   180.00  15.16700   2 ;     C1-    C3-    C5-    N1
     1      3      5     11      9   180.00  15.16700   2 ;     C1-    C3-    C5-    H5
     2      1      3      5      9   180.00  15.16700   2 ;     C2-    C1-    C3-    C5
     2      1      3      9      9   180.00  15.16700   2 ;     C2-    C1-    C3-    H3
     2      4      6      5      9   180.00  20.08320   2 ;     C2-    C4-    N1-    C5
     3      1      2      4      9   180.00  15.16700   2 ;     C3-    C1-    C2-    C4
     3      1      2      8      9   180.00  15.16700   2 ;     C3-    C1-    C2-    H2
     3      5      6      4      9   180.00  20.08320   2 ;     C3-    C5-    N1-    C4
     4      6      5     11      9   180.00  20.08320   2 ;     C4-    N1-    C5-    H5
     5      6      4     10      9   180.00  20.08320   2 ;     C5-    N1-    C4-    H4
     6      4      2      8      9   180.00  15.16700   2 ;     N1-    C4-    C2-    H2
     6      5      3      9      9   180.00  15.16700   2 ;     N1-    C5-    C3-    H3
     7      1      2      4      9   180.00  15.16700   2 ;     H1-    C1-    C2-    C4
     7      1      2      8      9   180.00  15.16700   2 ;     H1-    C1-    C2-    H2
     7      1      3      5      9   180.00  15.16700   2 ;     H1-    C1-    C3-    C5
     7      1      3      9      9   180.00  15.16700   2 ;     H1-    C1-    C3-    H3
     8      2      4     10      9   180.00  15.16700   2 ;     H2-    C2-    C4-    H4
     9      3      5     11      9   180.00  15.16700   2 ;     H3-    C3-    C5-    H5

[ dihedrals ] ; impropers
; treated as propers in GROMACS to use correct AMBER analytical function
;    i      j      k      l   func   phase     kd      pn
     1      4      2      8      4   180.00   4.60240   2 ;     C1-    C4-    C2-    H2
     1      5      3      9      4   180.00   4.60240   2 ;     C1-    C5-    C3-    H3
     2     10      4      6      4   180.00   4.60240   2 ;     C2-    H4-    C4-    N1
     3     11      5      6      4   180.00   4.60240   2 ;     C3-    H5-    C5-    N1
     7      1      3      2      4   180.00   4.60240   2 ;     H1-    C1-    C3-    C2
