; mobley_8337977_GMX.top created by acpype (v: 2023.10.27) on Thu May 14 14:01:32 2026

[ defaults ]
; nbfunc        comb-rule       gen-pairs       fudgeLJ fudgeQQ
1               2               yes             0.5     0.8333333333

; Include mobley_8337977_GMX.itp topology
#include "mobley_8337977_GMX.itp"

; Ligand position restraints
#ifdef POSRES_LIG
#include "posre_mobley_8337977.itp"
#endif

#include "../common/SOL.TIP3P.itp"

[ system ]
mobley_8337977 in water

[ molecules ]
; Compound        nmols
 mobley_8337977   1     
SOL               623
