; mobley_2607611_GMX.itp created by acpype (v: 2023.10.27) on Thu May 14 13:42:50 2026

[ atomtypes ]
;name   bond_type     mass     charge   ptype   sigma         epsilon       Amb
 c        c           0.00000  0.00000   A     3.31521e-01   4.13379e-01 ; 1.86  0.0988
 c3       c3          0.00000  0.00000   A     3.39771e-01   4.51035e-01 ; 1.91  0.1078
 o        o           0.00000  0.00000   A     3.04812e-01   6.12119e-01 ; 1.71  0.1463
 os       os          0.00000  0.00000   A     3.15610e-01   3.03758e-01 ; 1.77  0.0726
 hc       hc          0.00000  0.00000   A     2.60018e-01   8.70272e-02 ; 1.46  0.0208
 h1       h1          0.00000  0.00000   A     2.42200e-01   8.70272e-02 ; 1.36  0.0208

[ moleculetype ]
;name            nrexcl
 mobley_2607611   3

[ atoms ]
;   nr  type  resi  res  atom  cgnr     charge      mass       ; qtot   bond_type
     1    c     1   MOL    C1    1     0.632101     12.01000 ; qtot 0.632
     2   c3     1   MOL    C2    2    -0.150100     12.01000 ; qtot 0.482
     3   c3     1   MOL    C3    3    -0.093100     12.01000 ; qtot 0.389
     4   c3     1   MOL    C4    4    -0.080400     12.01000 ; qtot 0.309
     5   c3     1   MOL    C5    5    -0.078400     12.01000 ; qtot 0.230
     6   c3     1   MOL    C6    6    -0.078400     12.01000 ; qtot 0.152
     7   c3     1   MOL    C7    7    -0.085400     12.01000 ; qtot 0.066
     8   c3     1   MOL    C8    8     0.139400     12.01000 ; qtot 0.206
     9    o     1   MOL    O1    9    -0.546000     16.00000 ; qtot -0.340
    10   os     1   MOL    O2   10    -0.444900     16.00000 ; qtot -0.785
    11   hc     1   MOL    H1   11     0.075700      1.00800 ; qtot -0.709
    12   hc     1   MOL    H2   12     0.075700      1.00800 ; qtot -0.634
    13   hc     1   MOL    H3   13     0.075700      1.00800 ; qtot -0.558
    14   hc     1   MOL    H4   14     0.033033      1.00800 ; qtot -0.525
    15   hc     1   MOL    H5   15     0.033033      1.00800 ; qtot -0.492
    16   hc     1   MOL    H6   16     0.033033      1.00800 ; qtot -0.459
    17   hc     1   MOL    H7   17     0.039700      1.00800 ; qtot -0.419
    18   hc     1   MOL    H8   18     0.039700      1.00800 ; qtot -0.380
    19   hc     1   MOL    H9   19     0.041700      1.00800 ; qtot -0.338
    20   hc     1   MOL   H10   20     0.041700      1.00800 ; qtot -0.296
    21   hc     1   MOL   H11   21     0.042700      1.00800 ; qtot -0.253
    22   hc     1   MOL   H12   22     0.042700      1.00800 ; qtot -0.211
    23   hc     1   MOL   H13   23     0.053700      1.00800 ; qtot -0.157
    24   hc     1   MOL   H14   24     0.053700      1.00800 ; qtot -0.103
    25   h1     1   MOL   H15   25     0.051700      1.00800 ; qtot -0.052
    26   h1     1   MOL   H16   26     0.051700      1.00800 ; qtot 0.000

[ bonds ]
;   ai     aj funct   r             k
     1      2   1    1.5270e-01    1.9652e+05 ;     C1 - C2    
     1      9   1    1.2190e-01    4.9421e+05 ;     C1 - O1    
     1     10   1    1.3621e-01    2.9398e+05 ;     C1 - O2    
     2     11   1    1.0962e-01    2.8891e+05 ;     C2 - H1    
     2     12   1    1.0962e-01    2.8891e+05 ;     C2 - H2    
     2     13   1    1.0962e-01    2.8891e+05 ;     C2 - H3    
     3      4   1    1.5354e-01    1.9154e+05 ;     C3 - C4    
     3     14   1    1.0962e-01    2.8891e+05 ;     C3 - H4    
     3     15   1    1.0962e-01    2.8891e+05 ;     C3 - H5    
     3     16   1    1.0962e-01    2.8891e+05 ;     C3 - H6    
     4      5   1    1.5354e-01    1.9154e+05 ;     C4 - C5    
     4     17   1    1.0962e-01    2.8891e+05 ;     C4 - H7    
     4     18   1    1.0962e-01    2.8891e+05 ;     C4 - H8    
     5      6   1    1.5354e-01    1.9154e+05 ;     C5 - C6    
     5     19   1    1.0962e-01    2.8891e+05 ;     C5 - H9    
     5     20   1    1.0962e-01    2.8891e+05 ;     C5 - H10   
     6      7   1    1.5354e-01    1.9154e+05 ;     C6 - C7    
     6     21   1    1.0962e-01    2.8891e+05 ;     C6 - H11   
     6     22   1    1.0962e-01    2.8891e+05 ;     C6 - H12   
     7      8   1    1.5354e-01    1.9154e+05 ;     C7 - C8    
     7     23   1    1.0962e-01    2.8891e+05 ;     C7 - H13   
     7     24   1    1.0962e-01    2.8891e+05 ;     C7 - H14   
     8     10   1    1.4273e-01    2.3620e+05 ;     C8 - O2    
     8     25   1    1.0969e-01    2.8804e+05 ;     C8 - H15   
     8     26   1    1.0969e-01    2.8804e+05 ;     C8 - H16   

[ pairs ]
;   ai     aj    funct
     1      7      1 ;     C1 - C7    
     1     25      1 ;     C1 - H15   
     1     26      1 ;     C1 - H16   
     2      8      1 ;     C2 - C8    
     3      6      1 ;     C3 - C6    
     3     19      1 ;     C3 - H9    
     3     20      1 ;     C3 - H10   
     4      7      1 ;     C4 - C7    
     4     21      1 ;     C4 - H11   
     4     22      1 ;     C4 - H12   
     5      8      1 ;     C5 - C8    
     5     14      1 ;     C5 - H4    
     5     15      1 ;     C5 - H5    
     5     16      1 ;     C5 - H6    
     5     23      1 ;     C5 - H13   
     5     24      1 ;     C5 - H14   
     6     10      1 ;     C6 - O2    
     6     17      1 ;     C6 - H7    
     6     18      1 ;     C6 - H8    
     6     25      1 ;     C6 - H15   
     6     26      1 ;     C6 - H16   
     7     19      1 ;     C7 - H9    
     7     20      1 ;     C7 - H10   
     8     21      1 ;     C8 - H11   
     8     22      1 ;     C8 - H12   
     9      8      1 ;     O1 - C8    
     9     11      1 ;     O1 - H1    
     9     12      1 ;     O1 - H2    
     9     13      1 ;     O1 - H3    
    10     11      1 ;     O2 - H1    
    10     12      1 ;     O2 - H2    
    10     13      1 ;     O2 - H3    
    10     23      1 ;     O2 - H13   
    10     24      1 ;     O2 - H14   
    14     17      1 ;     H4 - H7    
    14     18      1 ;     H4 - H8    
    15     17      1 ;     H5 - H7    
    15     18      1 ;     H5 - H8    
    16     17      1 ;     H6 - H7    
    16     18      1 ;     H6 - H8    
    17     19      1 ;     H7 - H9    
    17     20      1 ;     H7 - H10   
    18     19      1 ;     H8 - H9    
    18     20      1 ;     H8 - H10   
    19     21      1 ;     H9 - H11   
    19     22      1 ;     H9 - H12   
    20     21      1 ;    H10 - H11   
    20     22      1 ;    H10 - H12   
    21     23      1 ;    H11 - H13   
    21     24      1 ;    H11 - H14   
    22     23      1 ;    H12 - H13   
    22     24      1 ;    H12 - H14   
    23     25      1 ;    H13 - H15   
    23     26      1 ;    H13 - H16   
    24     25      1 ;    H14 - H15   
    24     26      1 ;    H14 - H16   

[ angles ]
;   ai     aj     ak    funct   theta         cth
     1      2     11      1    1.0895e+02    3.6510e+02 ;     C1 - C2     - H1    
     1      2     12      1    1.0895e+02    3.6510e+02 ;     C1 - C2     - H2    
     1      2     13      1    1.0895e+02    3.6510e+02 ;     C1 - C2     - H3    
     1     10      8      1    1.1582e+02    7.4835e+02 ;     C1 - O2     - C8    
     2      1      9      1    1.2290e+02    6.3973e+02 ;     C2 - C1     - O1    
     2      1     10      1    1.1080e+02    6.5245e+02 ;     C2 - C1     - O2    
     3      4      5      1    1.1263e+02    5.0099e+02 ;     C3 - C4     - C5    
     3      4     17      1    1.0968e+02    3.6208e+02 ;     C3 - C4     - H7    
     3      4     18      1    1.0968e+02    3.6208e+02 ;     C3 - C4     - H8    
     4      3     14      1    1.0968e+02    3.6208e+02 ;     C4 - C3     - H4    
     4      3     15      1    1.0968e+02    3.6208e+02 ;     C4 - C3     - H5    
     4      3     16      1    1.0968e+02    3.6208e+02 ;     C4 - C3     - H6    
     4      5      6      1    1.1263e+02    5.0099e+02 ;     C4 - C5     - C6    
     4      5     19      1    1.0968e+02    3.6208e+02 ;     C4 - C5     - H9    
     4      5     20      1    1.0968e+02    3.6208e+02 ;     C4 - C5     - H10   
     5      4     17      1    1.0968e+02    3.6208e+02 ;     C5 - C4     - H7    
     5      4     18      1    1.0968e+02    3.6208e+02 ;     C5 - C4     - H8    
     5      6      7      1    1.1263e+02    5.0099e+02 ;     C5 - C6     - C7    
     5      6     21      1    1.0968e+02    3.6208e+02 ;     C5 - C6     - H11   
     5      6     22      1    1.0968e+02    3.6208e+02 ;     C5 - C6     - H12   
     6      5     19      1    1.0968e+02    3.6208e+02 ;     C6 - C5     - H9    
     6      5     20      1    1.0968e+02    3.6208e+02 ;     C6 - C5     - H10   
     6      7      8      1    1.1263e+02    5.0099e+02 ;     C6 - C7     - C8    
     6      7     23      1    1.0968e+02    3.6208e+02 ;     C6 - C7     - H13   
     6      7     24      1    1.0968e+02    3.6208e+02 ;     C6 - C7     - H14   
     7      6     21      1    1.0968e+02    3.6208e+02 ;     C7 - C6     - H11   
     7      6     22      1    1.0968e+02    3.6208e+02 ;     C7 - C6     - H12   
     7      8     10      1    1.0762e+02    6.4802e+02 ;     C7 - C8     - O2    
     7      8     25      1    1.0959e+02    3.6217e+02 ;     C7 - C8     - H15   
     7      8     26      1    1.0959e+02    3.6217e+02 ;     C7 - C8     - H16   
     8      7     23      1    1.0968e+02    3.6208e+02 ;     C8 - C7     - H13   
     8      7     24      1    1.0968e+02    3.6208e+02 ;     C8 - C7     - H14   
     9      1     10      1    1.2320e+02    8.4734e+02 ;     O1 - C1     - O2    
    10      8     25      1    1.1034e+02    4.7028e+02 ;     O2 - C8     - H15   
    10      8     26      1    1.1034e+02    4.7028e+02 ;     O2 - C8     - H16   
    11      2     12      1    1.0773e+02    2.9957e+02 ;     H1 - C2     - H2    
    11      2     13      1    1.0773e+02    2.9957e+02 ;     H1 - C2     - H3    
    12      2     13      1    1.0773e+02    2.9957e+02 ;     H2 - C2     - H3    
    14      3     15      1    1.0773e+02    2.9957e+02 ;     H4 - C3     - H5    
    14      3     16      1    1.0773e+02    2.9957e+02 ;     H4 - C3     - H6    
    15      3     16      1    1.0773e+02    2.9957e+02 ;     H5 - C3     - H6    
    17      4     18      1    1.0773e+02    2.9957e+02 ;     H7 - C4     - H8    
    19      5     20      1    1.0773e+02    2.9957e+02 ;     H9 - C5     - H10   
    21      6     22      1    1.0773e+02    2.9957e+02 ;    H11 - C6     - H12   
    23      7     24      1    1.0773e+02    2.9957e+02 ;    H13 - C7     - H14   
    25      8     26      1    1.0855e+02    2.9824e+02 ;    H15 - C8     - H16   

[ dihedrals ] ; propers
; for gromacs 4.5 or higher, using funct 9
;    i      j      k      l   func   phase     kd      pn
     1     10      8      7      9     0.00   1.60247   3 ;     C1-    O2-    C8-    C7
     1     10      8      7      9   180.00   3.34720   1 ;     C1-    O2-    C8-    C7
     1     10      8     25      9     0.00   1.60387   3 ;     C1-    O2-    C8-   H15
     1     10      8     26      9     0.00   1.60387   3 ;     C1-    O2-    C8-   H16
     2      1     10      8      9     0.00   3.13800   3 ;     C2-    C1-    O2-    C8
     2      1     10      8      9   180.00   7.90776   1 ;     C2-    C1-    O2-    C8
     2      1     10      8      9   180.00  13.76536   2 ;     C2-    C1-    O2-    C8
     3      4      5      6      9     0.00   2.17568   3 ;     C3-    C4-    C5-    C6
     3      4      5     19      9     0.00   0.54392   3 ;     C3-    C4-    C5-    H9
     3      4      5     20      9     0.00   0.54392   3 ;     C3-    C4-    C5-   H10
     4      5      6      7      9     0.00   2.17568   3 ;     C4-    C5-    C6-    C7
     4      5      6     21      9     0.00   0.54392   3 ;     C4-    C5-    C6-   H11
     4      5      6     22      9     0.00   0.54392   3 ;     C4-    C5-    C6-   H12
     5      4      3     14      9     0.00   0.54392   3 ;     C5-    C4-    C3-    H4
     5      4      3     15      9     0.00   0.54392   3 ;     C5-    C4-    C3-    H5
     5      4      3     16      9     0.00   0.54392   3 ;     C5-    C4-    C3-    H6
     5      6      7      8      9     0.00   2.17568   3 ;     C5-    C6-    C7-    C8
     5      6      7     23      9     0.00   0.54392   3 ;     C5-    C6-    C7-   H13
     5      6      7     24      9     0.00   0.54392   3 ;     C5-    C6-    C7-   H14
     6      5      4     17      9     0.00   0.54392   3 ;     C6-    C5-    C4-    H7
     6      5      4     18      9     0.00   0.54392   3 ;     C6-    C5-    C4-    H8
     6      7      8     10      9     0.00   0.65084   3 ;     C6-    C7-    C8-    O2
     6      7      8     25      9     0.00   0.65084   3 ;     C6-    C7-    C8-   H15
     6      7      8     26      9     0.00   0.65084   3 ;     C6-    C7-    C8-   H16
     7      6      5     19      9     0.00   0.54392   3 ;     C7-    C6-    C5-    H9
     7      6      5     20      9     0.00   0.54392   3 ;     C7-    C6-    C5-   H10
     8      7      6     21      9     0.00   0.54392   3 ;     C8-    C7-    C6-   H11
     8      7      6     22      9     0.00   0.54392   3 ;     C8-    C7-    C6-   H12
     9      1      2     11      9     0.00  16.86152   1 ;     O1-    C1-    C2-    H1
     9      1      2     11      9   180.00  15.31344   2 ;     O1-    C1-    C2-    H1
     9      1      2     12      9     0.00  16.86152   1 ;     O1-    C1-    C2-    H2
     9      1      2     12      9   180.00  15.31344   2 ;     O1-    C1-    C2-    H2
     9      1      2     13      9     0.00  16.86152   1 ;     O1-    C1-    C2-    H3
     9      1      2     13      9   180.00  15.31344   2 ;     O1-    C1-    C2-    H3
     9      1     10      8      9   180.00   5.85760   1 ;     O1-    C1-    O2-    C8
     9      1     10      8      9   180.00  11.29680   2 ;     O1-    C1-    O2-    C8
    10      1      2     11      9   180.00   0.00000   2 ;     O2-    C1-    C2-    H1
    10      1      2     12      9   180.00   0.00000   2 ;     O2-    C1-    C2-    H2
    10      1      2     13      9   180.00   0.00000   2 ;     O2-    C1-    C2-    H3
    10      8      7     23      9     0.00   0.00000   0 ;     O2-    C8-    C7-   H13
    10      8      7     23      9     0.00   1.04600   1 ;     O2-    C8-    C7-   H13
    10      8      7     24      9     0.00   0.00000   0 ;     O2-    C8-    C7-   H14
    10      8      7     24      9     0.00   1.04600   1 ;     O2-    C8-    C7-   H14
    14      3      4     17      9     0.00   0.50208   3 ;     H4-    C3-    C4-    H7
    14      3      4     18      9     0.00   0.50208   3 ;     H4-    C3-    C4-    H8
    15      3      4     17      9     0.00   0.50208   3 ;     H5-    C3-    C4-    H7
    15      3      4     18      9     0.00   0.50208   3 ;     H5-    C3-    C4-    H8
    16      3      4     17      9     0.00   0.50208   3 ;     H6-    C3-    C4-    H7
    16      3      4     18      9     0.00   0.50208   3 ;     H6-    C3-    C4-    H8
    17      4      5     19      9     0.00   0.50208   3 ;     H7-    C4-    C5-    H9
    17      4      5     20      9     0.00   0.50208   3 ;     H7-    C4-    C5-   H10
    18      4      5     19      9     0.00   0.50208   3 ;     H8-    C4-    C5-    H9
    18      4      5     20      9     0.00   0.50208   3 ;     H8-    C4-    C5-   H10
    19      5      6     21      9     0.00   0.50208   3 ;     H9-    C5-    C6-   H11
    19      5      6     22      9     0.00   0.50208   3 ;     H9-    C5-    C6-   H12
    20      5      6     21      9     0.00   0.50208   3 ;    H10-    C5-    C6-   H11
    20      5      6     22      9     0.00   0.50208   3 ;    H10-    C5-    C6-   H12
    21      6      7     23      9     0.00   0.50208   3 ;    H11-    C6-    C7-   H13
    21      6      7     24      9     0.00   0.50208   3 ;    H11-    C6-    C7-   H14
    22      6      7     23      9     0.00   0.50208   3 ;    H12-    C6-    C7-   H13
    22      6      7     24      9     0.00   0.50208   3 ;    H12-    C6-    C7-   H14
    23      7      8     25      9     0.00   0.65084   3 ;    H13-    C7-    C8-   H15
    23      7      8     26      9     0.00   0.65084   3 ;    H13-    C7-    C8-   H16
    24      7      8     25      9     0.00   0.65084   3 ;    H14-    C7-    C8-   H15
    24      7      8     26      9     0.00   0.65084   3 ;    H14-    C7-    C8-   H16

[ dihedrals ] ; impropers
; treated as propers in GROMACS to use correct AMBER analytical function
;    i      j      k      l   func   phase     kd      pn
    10      1      9      2      4   180.00   4.60240   2 ;     O2-    C1-    O1-    C2
