mobley_8221999_GMX.gro created by acpype (v: 2023.10.27) on Thu May 14 13:26:12 2026
 1656
    1MOL     C1    1   1.153   1.462   1.284
    1MOL     C2    2   1.375   1.152   1.282
    1MOL     C3    3   1.267   1.377   1.317
    1MOL     C4    4   1.259   1.243   1.246
    1MOL     N1    5   1.062   1.530   1.257
    1MOL     H1    6   1.471   1.198   1.254
    1MOL     H2    7   1.377   1.132   1.390
    1MOL     H3    8   1.367   1.056   1.230
    1MOL     H4    9   1.360   1.428   1.289
    1MOL     H5   10   1.271   1.362   1.426
    1MOL     H6   11   1.257   1.258   1.137
    1MOL     H7   12   1.165   1.192   1.272
    2SOL     OW   13   0.230   0.628   0.113
    2SOL    HW1   14   0.137   0.626   0.150
    2SOL    HW2   15   0.231   0.589   0.021
    3SOL     OW   16   0.225   0.275   0.996
    3SOL    HW1   17   0.260   0.258   1.088
    3SOL    HW2   18   0.137   0.230   0.984
    4SOL     OW   19   0.019   0.368   0.647
    4SOL    HW1   20  -0.063   0.411   0.686
    4SOL    HW2   21  -0.009   0.295   0.584
    5SOL     OW   22   0.569   1.275   1.165
    5SOL    HW1   23   0.476   1.268   1.128
    5SOL    HW2   24   0.580   1.364   1.209
    6SOL     OW   25   1.555   1.511   0.703
    6SOL    HW1   26   1.498   1.495   0.784
    6SOL    HW2   27   1.496   1.521   0.623
    7SOL     OW   28   1.135   0.703   0.717
    7SOL    HW1   29   1.192   0.781   0.692
    7SOL    HW2   30   1.075   0.729   0.793
    8SOL     OW   31   1.755   0.607   0.231
    8SOL    HW1   32   1.743   0.594   0.132
    8SOL    HW2   33   1.725   0.526   0.280
    9SOL     OW   34   0.768   1.144   1.023
    9SOL    HW1   35   0.690   1.161   1.083
    9SOL    HW2   36   0.802   1.231   0.987
   10SOL     OW   37   0.850   0.798   1.823
   10SOL    HW1   38   0.846   0.874   1.888
   10SOL    HW2   39   0.872   0.834   1.732
   11SOL     OW   40   0.685   1.012   0.665
   11SOL    HW1   41   0.754   0.996   0.735
   11SOL    HW2   42   0.612   1.069   0.703
   12SOL     OW   43   0.686   1.161   1.803
   12SOL    HW1   44   0.746   1.240   1.817
   12SOL    HW2   45   0.600   1.192   1.762
   13SOL     OW   46   0.335   1.435   1.061
   13SOL    HW1   47   0.257   1.404   1.008
   13SOL    HW2   48   0.393   1.493   1.004
   14SOL     OW   49   0.438   0.392   1.499
   14SOL    HW1   50   0.520   0.336   1.508
   14SOL    HW2   51   0.357   0.334   1.503
   15SOL     OW   52   1.603   0.447   0.737
   15SOL    HW1   53   1.529   0.493   0.687
   15SOL    HW2   54   1.654   0.515   0.790
   16SOL     OW   55   0.231   1.713   0.483
   16SOL    HW1   56   0.265   1.790   0.537
   16SOL    HW2   57   0.275   1.713   0.393
   17SOL     OW   58   1.127   1.341   1.690
   17SOL    HW1   59   1.174   1.341   1.778
   17SOL    HW2   60   1.079   1.254   1.679
   18SOL     OW   61   0.230   1.434   0.538
   18SOL    HW1   62   0.204   1.530   0.538
   18SOL    HW2   63   0.159   1.380   0.583
   19SOL     OW   64   0.240   1.091   0.886
   19SOL    HW1   65   0.254   1.007   0.938
   19SOL    HW2   66   0.185   1.155   0.941
   20SOL     OW   67   0.620   1.786   1.439
   20SOL    HW1   68   0.528   1.769   1.474
   20SOL    HW2   69   0.648   1.878   1.465
   21SOL     OW   70   0.606   0.964   0.123
   21SOL    HW1   71   0.613   1.048   0.069
   21SOL    HW2   72   0.652   0.977   0.211
   22SOL     OW   73   1.594   0.114   1.480
   22SOL    HW1   74   1.576   0.181   1.408
   22SOL    HW2   75   1.591   0.160   1.569
   23SOL     OW   76   0.122   0.643   0.563
   23SOL    HW1   77   0.077   0.555   0.580
   23SOL    HW2   78   0.121   0.697   0.647
   24SOL     OW   79   1.842   1.767   0.359
   24SOL    HW1   80   1.896   1.738   0.439
   24SOL    HW2   81   1.872   1.857   0.330
   25SOL     OW   82   0.027   1.596   0.117
   25SOL    HW1   83   0.008   1.500   0.138
   25SOL    HW2   84  -0.006   1.654   0.192
   26SOL     OW   85   1.689   0.922   0.612
   26SOL    HW1   86   1.784   0.893   0.620
   26SOL    HW2   87   1.681   0.987   0.537
   27SOL     OW   88   1.641   1.108   0.432
   27SOL    HW1   89   1.727   1.110   0.380
   27SOL    HW2   90   1.655   1.155   0.520
   28SOL     OW   91   0.113   0.737   1.597
   28SOL    HW1   92   0.201   0.724   1.642
   28SOL    HW2   93   0.100   0.834   1.575
   29SOL     OW   94   0.613   1.365   0.726
   29SOL    HW1   95   0.564   1.278   0.735
   29SOL    HW2   96   0.590   1.408   0.639
   30SOL     OW   97   0.809   0.004   0.502
   30SOL    HW1   98   0.849   0.095   0.493
   30SOL    HW2   99   0.709   0.012   0.508
   31SOL     OW  100   0.197   0.976   1.264
   31SOL    HW1  101   0.286   0.931   1.250
   31SOL    HW2  102   0.124   0.911   1.245
   32SOL     OW  103   1.525   0.999   0.190
   32SOL    HW1  104   1.462   0.923   0.203
   32SOL    HW2  105   1.573   1.017   0.276
   33SOL     OW  106   1.187   1.792   1.616
   33SOL    HW1  107   1.211   1.852   1.540
   33SOL    HW2  108   1.194   1.697   1.586
   34SOL     OW  109   0.317   0.251   1.801
   34SOL    HW1  110   0.388   0.322   1.807
   34SOL    HW2  111   0.229   0.290   1.829
   35SOL     OW  112   1.466   1.417   0.953
   35SOL    HW1  113   1.407   1.423   1.033
   35SOL    HW2  114   1.451   1.329   0.907
   36SOL     OW  115   1.667   1.714   0.572
   36SOL    HW1  116   1.626   1.691   0.484
   36SOL    HW2  117   1.649   1.640   0.637
   37SOL     OW  118   0.598   0.729   0.270
   37SOL    HW1  119   0.622   0.798   0.202
   37SOL    HW2  120   0.520   0.762   0.324
   38SOL     OW  121   1.281   0.345   0.944
   38SOL    HW1  122   1.195   0.295   0.931
   38SOL    HW2  123   1.343   0.291   1.000
   39SOL     OW  124   1.576   1.662   0.307
   39SOL    HW1  125   1.665   1.708   0.310
   39SOL    HW2  126   1.555   1.638   0.212
   40SOL     OW  127   0.807   0.605   1.465
   40SOL    HW1  128   0.760   0.602   1.554
   40SOL    HW2  129   0.756   0.550   1.399
   41SOL     OW  130   1.394   0.469   1.674
   41SOL    HW1  131   1.374   0.512   1.762
   41SOL    HW2  132   1.472   0.407   1.683
   42SOL     OW  133   0.973   0.890   1.572
   42SOL    HW1  134   1.019   0.806   1.543
   42SOL    HW2  135   0.917   0.924   1.497
   43SOL     OW  136   0.991   0.410   1.242
   43SOL    HW1  137   0.914   0.444   1.296
   43SOL    HW2  138   0.957   0.359   1.163
   44SOL     OW  139   1.041   0.701   0.429
   44SOL    HW1  140   1.067   0.697   0.525
   44SOL    HW2  141   0.956   0.650   0.415
   45SOL     OW  142   0.076   0.811   0.789
   45SOL    HW1  143   0.175   0.799   0.798
   45SOL    HW2  144   0.052   0.906   0.810
   46SOL     OW  145   0.130   1.821   1.571
   46SOL    HW1  146   0.120   1.806   1.670
   46SOL    HW2  147   0.044   1.857   1.535
   47SOL     OW  148   0.865   0.348   0.195
   47SOL    HW1  149   0.924   0.411   0.146
   47SOL    HW2  150   0.884   0.254   0.166
   48SOL     OW  151   1.719   0.585   1.831
   48SOL    HW1  152   1.693   0.674   1.795
   48SOL    HW2  153   1.717   0.517   1.758
   49SOL     OW  154   1.362   1.144   0.545
   49SOL    HW1  155   1.445   1.115   0.497
   49SOL    HW2  156   1.313   1.211   0.489
   50SOL     OW  157   0.550   0.196   0.885
   50SOL    HW1  158   0.545   0.191   0.985
   50SOL    HW2  159   0.552   0.292   0.856
   51SOL     OW  160   1.008   1.456   0.477
   51SOL    HW1  161   0.962   1.528   0.425
   51SOL    HW2  162   1.004   1.476   0.575
   52SOL     OW  163   0.351   1.801   0.853
   52SOL    HW1  164   0.401   1.715   0.859
   52SOL    HW2  165   0.416   1.878   0.850
   53SOL     OW  166   1.795   1.066   0.873
   53SOL    HW1  167   1.733   1.051   0.797
   53SOL    HW2  168   1.743   1.077   0.958
   54SOL     OW  169   0.321   0.943   0.242
   54SOL    HW1  170   0.403   0.982   0.200
   54SOL    HW2  171   0.294   0.861   0.193
   55SOL     OW  172   1.458   0.735   0.728
   55SOL    HW1  173   1.453   0.670   0.803
   55SOL    HW2  174   1.538   0.794   0.741
   56SOL     OW  175   0.461   1.266   1.727
   56SOL    HW1  176   0.411   1.267   1.641
   56SOL    HW2  177   0.398   1.248   1.803
   57SOL     OW  178   1.111   1.776   0.237
   57SOL    HW1  179   1.051   1.714   0.287
   57SOL    HW2  180   1.142   1.732   0.152
   58SOL     OW  181   0.202   0.285   1.498
   58SOL    HW1  182   0.122   0.345   1.485
   58SOL    HW2  183   0.192   0.236   1.584
   59SOL     OW  184   1.632   1.377   0.081
   59SOL    HW1  185   1.600   1.471   0.071
   59SOL    HW2  186   1.556   1.314   0.069
   60SOL     OW  187   0.464   1.743   0.323
   60SOL    HW1  188   0.497   1.782   0.409
   60SOL    HW2  189   0.540   1.736   0.258
   61SOL     OW  190   1.400   0.107   0.426
   61SOL    HW1  191   1.376   0.070   0.336
   61SOL    HW2  192   1.499   0.123   0.430
   62SOL     OW  193   0.249   1.785   1.241
   62SOL    HW1  194   0.306   1.720   1.291
   62SOL    HW2  195   0.233   1.752   1.148
   63SOL     OW  196   0.940   1.698   0.904
   63SOL    HW1  197   1.020   1.641   0.925
   63SOL    HW2  198   0.891   1.658   0.827
   64SOL     OW  199   0.382   0.700   0.480
   64SOL    HW1  200   0.427   0.610   0.477
   64SOL    HW2  201   0.288   0.689   0.513
   65SOL     OW  202   1.547   0.222   1.729
   65SOL    HW1  203   1.542   0.259   1.821
   65SOL    HW2  204   1.475   0.153   1.717
   66SOL     OW  205   0.614   0.122   0.117
   66SOL    HW1  206   0.712   0.100   0.124
   66SOL    HW2  207   0.583   0.105   0.024
   67SOL     OW  208   0.781   0.264   1.749
   67SOL    HW1  209   0.848   0.203   1.792
   67SOL    HW2  210   0.708   0.283   1.814
   68SOL     OW  211   1.351   0.590   1.433
   68SOL    HW1  212   1.379   0.547   1.518
   68SOL    HW2  213   1.376   0.686   1.434
   69SOL     OW  214   0.803   1.402   0.924
   69SOL    HW1  215   0.893   1.416   0.882
   69SOL    HW2  216   0.732   1.404   0.853
   70SOL     OW  217   0.922   0.503   0.899
   70SOL    HW1  218   0.897   0.494   0.803
   70SOL    HW2  219   0.970   0.421   0.930
   71SOL     OW  220   0.539   0.064   0.512
   71SOL    HW1  221   0.458   0.065   0.570
   71SOL    HW2  222   0.542   0.147   0.457
   72SOL     OW  223   1.434   1.188   0.041
   72SOL    HW1  224   1.466   1.112   0.098
   72SOL    HW2  225   1.342   1.215   0.071
   73SOL     OW  226   0.297   0.035   0.171
   73SOL    HW1  227   0.346   0.119   0.150
   73SOL    HW2  228   0.359  -0.030   0.216
   74SOL     OW  229   0.935   0.236   0.480
   74SOL    HW1  230   0.887   0.277   0.402
   74SOL    HW2  231   1.034   0.234   0.461
   75SOL     OW  232   1.076   0.683   1.464
   75SOL    HW1  233   0.996   0.622   1.467
   75SOL    HW2  234   1.157   0.630   1.440
   76SOL     OW  235   1.227   1.570   0.793
   76SOL    HW1  236   1.248   1.644   0.728
   76SOL    HW2  237   1.295   1.570   0.866
   77SOL     OW  238   0.459   1.152   0.741
   77SOL    HW1  239   0.388   1.125   0.806
   77SOL    HW2  240   0.433   1.124   0.648
   78SOL     OW  241   1.271   1.797   0.591
   78SOL    HW1  242   1.315   1.861   0.527
   78SOL    HW2  243   1.221   1.849   0.661
   79SOL     OW  244   1.032   0.549   0.016
   79SOL    HW1  245   0.991   0.631  -0.023
   79SOL    HW2  246   1.096   0.575   0.089
   80SOL     OW  247   0.078   0.556   1.386
   80SOL    HW1  248   0.170   0.555   1.345
   80SOL    HW2  249   0.072   0.630   1.453
   81SOL     OW  250   0.561   0.222   1.147
   81SOL    HW1  251   0.599   0.138   1.184
   81SOL    HW2  252   0.473   0.241   1.191
   82SOL     OW  253   0.866   0.454   0.642
   82SOL    HW1  254   0.834   0.526   0.580
   82SOL    HW2  255   0.890   0.373   0.589
   83SOL     OW  256   1.017   0.039   0.753
   83SOL    HW1  257   0.945   0.044   0.684
   83SOL    HW2  258   0.993  -0.030   0.822
   84SOL     OW  259   1.429   1.173   0.867
   84SOL    HW1  260   1.374   1.089   0.860
   84SOL    HW2  261   1.455   1.202   0.775
   85SOL     OW  262   1.466   0.590   0.992
   85SOL    HW1  263   1.436   0.495   0.999
   85SOL    HW2  264   1.539   0.606   1.058
   86SOL     OW  265   1.857   0.833   0.377
   86SOL    HW1  266   1.899   0.769   0.441
   86SOL    HW2  267   1.819   0.782   0.299
   87SOL     OW  268   0.488   1.385   0.174
   87SOL    HW1  269   0.401   1.370   0.221
   87SOL    HW2  270   0.471   1.411   0.079
   88SOL     OW  271   1.664   1.280   0.657
   88SOL    HW1  272   1.763   1.288   0.671
   88SOL    HW2  273   1.619   1.364   0.688
   89SOL     OW  274   1.390   0.575   0.078
   89SOL    HW1  275   1.336   0.554   0.159
   89SOL    HW2  276   1.481   0.534   0.087
   90SOL     OW  277   0.527   0.256   0.328
   90SOL    HW1  278   0.554   0.197   0.253
   90SOL    HW2  279   0.527   0.351   0.297
   91SOL     OW  280   1.754   1.223   1.588
   91SOL    HW1  281   1.845   1.184   1.575
   91SOL    HW2  282   1.762   1.319   1.612
   92SOL     OW  283   1.592   1.629   1.625
   92SOL    HW1  284   1.619   1.663   1.535
   92SOL    HW2  285   1.671   1.591   1.671
   93SOL     OW  286   1.111   1.195   1.100
   93SOL    HW1  287   1.071   1.239   1.181
   93SOL    HW2  288   1.070   1.232   1.017
   94SOL     OW  289   1.638   1.099   1.079
   94SOL    HW1  290   1.643   1.180   1.138
   94SOL    HW2  291   1.552   1.101   1.028
   95SOL     OW  292   0.915   0.089   1.402
   95SOL    HW1  293   0.940   0.069   1.307
   95SOL    HW2  294   0.987   0.145   1.444
   96SOL     OW  295   0.980   1.116   1.719
   96SOL    HW1  296   0.881   1.122   1.729
   96SOL    HW2  297   1.003   1.036   1.663
   97SOL     OW  298   0.705   1.050   0.368
   97SOL    HW1  299   0.691   1.057   0.467
   97SOL    HW2  300   0.789   0.999   0.350
   98SOL     OW  301   0.410   0.813   1.251
   98SOL    HW1  302   0.496   0.825   1.301
   98SOL    HW2  303   0.368   0.726   1.278
   99SOL     OW  304   1.274   0.386   1.262
   99SOL    HW1  305   1.295   0.460   1.326
   99SOL    HW2  306   1.185   0.403   1.219
  100SOL     OW  307   0.064   1.564   1.331
  100SOL    HW1  308   0.018   1.646   1.297
  100SOL    HW2  309   0.162   1.583   1.340
  101SOL     OW  310   0.367   1.100   0.501
  101SOL    HW1  311   0.360   1.183   0.445
  101SOL    HW2  312   0.371   1.020   0.441
  102SOL     OW  313   0.566   0.537   0.865
  102SOL    HW1  314   0.578   0.603   0.791
  102SOL    HW2  315   0.612   0.571   0.948
  103SOL     OW  316   1.252   1.348   0.388
  103SOL    HW1  317   1.302   1.425   0.428
  103SOL    HW2  318   1.157   1.350   0.420
  104SOL     OW  319   1.582   0.639   0.472
  104SOL    HW1  320   1.551   0.700   0.545
  104SOL    HW2  321   1.632   0.691   0.403
  105SOL     OW  322   0.354   1.510   1.329
  105SOL    HW1  323   0.333   1.466   1.242
  105SOL    HW2  324   0.451   1.536   1.332
  106SOL     OW  325   0.402   0.751   1.598
  106SOL    HW1  326   0.470   0.806   1.551
  106SOL    HW2  327   0.442   0.663   1.625
  107SOL     OW  328   1.587   0.779   1.670
  107SOL    HW1  329   1.495   0.817   1.665
  107SOL    HW2  330   1.647   0.826   1.605
  108SOL     OW  331   1.013   0.105   1.770
  108SOL    HW1  332   1.019   0.190   1.718
  108SOL    HW2  333   1.045   0.029   1.713
  109SOL     OW  334   0.504   0.050   1.740
  109SOL    HW1  335   0.462  -0.007   1.670
  109SOL    HW2  336   0.438   0.119   1.772
  110SOL     OW  337   0.573   0.870   1.029
  110SOL    HW1  338   0.617   0.959   1.020
  110SOL    HW2  339   0.510   0.870   1.106
  111SOL     OW  340   1.360   0.862   1.045
  111SOL    HW1  341   1.285   0.862   0.979
  111SOL    HW2  342   1.397   0.770   1.054
  112SOL     OW  343   1.209   0.525   0.275
  112SOL    HW1  344   1.222   0.441   0.329
  112SOL    HW2  345   1.180   0.599   0.335
  113SOL     OW  346   0.307   0.213   1.231
  113SOL    HW1  347   0.284   0.250   1.321
  113SOL    HW2  348   0.277   0.118   1.225
  114SOL     OW  349   0.037   1.310   1.282
  114SOL    HW1  350   0.090   1.261   1.350
  114SOL    HW2  351   0.059   1.408   1.287
  115SOL     OW  352   0.732   0.634   1.064
  115SOL    HW1  353   0.791   0.608   0.988
  115SOL    HW2  354   0.704   0.730   1.053
  116SOL     OW  355   1.728   0.935   1.854
  116SOL    HW1  356   1.682   0.928   1.765
  116SOL    HW2  357   1.666   0.979   1.920
  117SOL     OW  358   0.307   0.063   0.618
  117SOL    HW1  359   0.296   0.157   0.651
  117SOL    HW2  360   0.302   0.000   0.695
  118SOL     OW  361   1.622   0.367   0.374
  118SOL    HW1  362   1.624   0.291   0.438
  118SOL    HW2  363   1.574   0.444   0.414
  119SOL     OW  364   1.023   0.766   0.966
  119SOL    HW1  365   1.038   0.787   1.062
  119SOL    HW2  366   0.993   0.671   0.957
  120SOL     OW  367   0.980   1.573   1.700
  120SOL    HW1  368   0.960   1.617   1.612
  120SOL    HW2  369   1.019   1.482   1.684
  121SOL     OW  370   1.859   1.518   1.605
  121SOL    HW1  371   1.873   1.545   1.510
  121SOL    HW2  372   1.942   1.540   1.658
  122SOL     OW  373   0.350   0.898   1.804
  122SOL    HW1  374   0.426   0.942   1.852
  122SOL    HW2  375   0.385   0.851   1.722
  123SOL     OW  376   1.540   0.274   0.125
  123SOL    HW1  377   1.479   0.199   0.148
  123SOL    HW2  378   1.562   0.326   0.208
  124SOL     OW  379   1.303   0.838   0.042
  124SOL    HW1  380   1.337   0.745   0.057
  124SOL    HW2  381   1.321   0.865  -0.053
  125SOL     OW  382   1.068   1.333   0.849
  125SOL    HW1  383   1.075   1.249   0.794
  125SOL    HW2  384   1.130   1.402   0.813
  126SOL     OW  385   0.319   0.810   0.949
  126SOL    HW1  386   0.412   0.846   0.954
  126SOL    HW2  387   0.313   0.725   1.001
  127SOL     OW  388   0.339   0.509   1.006
  127SOL    HW1  389   0.287   0.426   0.989
  127SOL    HW2  390   0.416   0.514   0.942
  128SOL     OW  391   1.138   0.380   1.678
  128SOL    HW1  392   1.093   0.443   1.742
  128SOL    HW2  393   1.231   0.411   1.661
  129SOL     OW  394   1.160   0.207   1.477
  129SOL    HW1  395   1.160   0.271   1.554
  129SOL    HW2  396   1.188   0.255   1.394
  130SOL     OW  397   0.008   1.326   0.200
  130SOL    HW1  398  -0.085   1.347   0.169
  130SOL    HW2  399   0.018   1.227   0.213
  131SOL     OW  400   0.088   1.801   0.927
  131SOL    HW1  401   0.046   1.715   0.900
  131SOL    HW2  402   0.182   1.804   0.893
  132SOL     OW  403   0.504   1.568   0.910
  132SOL    HW1  404   0.570   1.642   0.919
  132SOL    HW2  405   0.548   1.489   0.868
  133SOL     OW  406   1.002   0.796   1.238
  133SOL    HW1  407   1.043   0.764   1.324
  133SOL    HW2  408   0.906   0.769   1.235
  134SOL     OW  409   0.040   0.544   1.114
  134SOL    HW1  410   0.125   0.511   1.073
  134SOL    HW2  411   0.053   0.559   1.212
  135SOL     OW  412   0.189   0.520   1.722
  135SOL    HW1  413   0.248   0.480   1.652
  135SOL    HW2  414   0.131   0.591   1.681
  136SOL     OW  415   1.369   0.950   1.660
  136SOL    HW1  416   1.408   1.039   1.680
  136SOL    HW2  417   1.379   0.930   1.563
  137SOL     OW  418   0.815   0.572   0.325
  137SOL    HW1  419   0.822   0.483   0.279
  137SOL    HW2  420   0.721   0.606   0.317
  138SOL     OW  421   1.657   0.604   1.206
  138SOL    HW1  422   1.619   0.535   1.268
  138SOL    HW2  423   1.739   0.568   1.162
  139SOL     OW  424   0.252   1.564   1.744
  139SOL    HW1  425   0.222   1.621   1.820
  139SOL    HW2  426   0.245   1.467   1.770
  140SOL     OW  427   0.671   0.464   1.269
  140SOL    HW1  428   0.637   0.375   1.239
  140SOL    HW2  429   0.697   0.518   1.189
  141SOL     OW  430   0.930   1.678   1.465
  141SOL    HW1  431   0.906   1.660   1.370
  141SOL    HW2  432   0.960   1.772   1.475
  142SOL     OW  433   0.473   0.500   0.191
  142SOL    HW1  434   0.534   0.580   0.195
  142SOL    HW2  435   0.378   0.531   0.198
  143SOL     OW  436   0.159   1.137   1.466
  143SOL    HW1  437   0.181   1.076   1.542
  143SOL    HW2  438   0.169   1.088   1.380
  144SOL     OW  439   1.302   0.855   0.309
  144SOL    HW1  440   1.216   0.824   0.351
  144SOL    HW2  441   1.298   0.841   0.210
  145SOL     OW  442   1.759   1.747   1.154
  145SOL    HW1  443   1.820   1.777   1.081
  145SOL    HW2  444   1.721   1.658   1.132
  146SOL     OW  445   1.252   1.731   1.128
  146SOL    HW1  446   1.336   1.736   1.074
  146SOL    HW2  447   1.229   1.635   1.146
  147SOL     OW  448   0.083   1.258   1.022
  147SOL    HW1  449   0.078   1.257   1.122
  147SOL    HW2  450   0.000   1.217   0.984
  148SOL     OW  451   0.688   1.662   1.716
  148SOL    HW1  452   0.632   1.743   1.725
  148SOL    HW2  453   0.740   1.666   1.630
  149SOL     OW  454   0.903   0.086   0.133
  149SOL    HW1  455   0.954   0.087   0.047
  149SOL    HW2  456   0.959   0.044   0.204
  150SOL     OW  457   1.726   0.135   0.523
  150SOL    HW1  458   1.799   0.118   0.456
  150SOL    HW2  459   1.695   0.048   0.561
  151SOL     OW  460   1.388   1.573   0.477
  151SOL    HW1  461   1.455   1.585   0.403
  151SOL    HW2  462   1.348   1.662   0.500
  152SOL     OW  463   0.130   1.794   1.851
  152SOL    HW1  464   0.089   1.720   1.904
  152SOL    HW2  465   0.194   1.845   1.909
  153SOL     OW  466   1.280   0.927   0.672
  153SOL    HW1  467   1.340   0.846   0.674
  153SOL    HW2  468   1.320   0.996   0.612
  154SOL     OW  469   0.830   1.273   1.422
  154SOL    HW1  470   0.825   1.306   1.517
  154SOL    HW2  471   0.744   1.292   1.376
  155SOL     OW  472   0.672   1.616   0.154
  155SOL    HW1  473   0.681   1.626   0.055
  155SOL    HW2  474   0.632   1.527   0.175
  156SOL     OW  475   1.650   1.720   1.394
  156SOL    HW1  476   1.703   1.730   1.310
  156SOL    HW2  477   1.623   1.810   1.428
  157SOL     OW  478   1.841   0.175   0.963
  157SOL    HW1  479   1.880   0.090   0.927
  157SOL    HW2  480   1.743   0.177   0.944
  158SOL     OW  481   0.263   0.326   0.720
  158SOL    HW1  482   0.184   0.377   0.686
  158SOL    HW2  483   0.254   0.311   0.818
  159SOL     OW  484   1.194   1.612   0.031
  159SOL    HW1  485   1.200   1.519   0.068
  159SOL    HW2  486   1.135   1.612  -0.049
  160SOL     OW  487   0.822   1.002   1.372
  160SOL    HW1  488   0.862   1.001   1.280
  160SOL    HW2  489   0.832   1.094   1.412
  161SOL     OW  490   0.916   0.910   0.291
  161SOL    HW1  491   0.979   0.948   0.223
  161SOL    HW2  492   0.956   0.827   0.330
  162SOL     OW  493   1.504   1.607   0.044
  162SOL    HW1  494   1.412   1.644   0.051
  162SOL    HW2  495   1.542   1.627  -0.046
  163SOL     OW  496   0.372   1.288   1.490
  163SOL    HW1  497   0.359   1.381   1.456
  163SOL    HW2  498   0.288   1.236   1.477
  164SOL     OW  499   1.614   1.292   1.289
  164SOL    HW1  500   1.674   1.295   1.369
  164SOL    HW2  501   1.539   1.356   1.302
  165SOL     OW  502   1.039   1.098   0.696
  165SOL    HW1  503   0.969   1.051   0.750
  165SOL    HW2  504   1.098   1.030   0.653
  166SOL     OW  505   1.014   0.236   0.971
  166SOL    HW1  506   1.006   0.200   0.878
  166SOL    HW2  507   1.012   0.160   1.036
  167SOL     OW  508   0.590   1.487   0.491
  167SOL    HW1  509   0.632   1.429   0.421
  167SOL    HW2  510   0.546   1.566   0.447
  168SOL     OW  511   1.709   0.385   1.381
  168SOL    HW1  512   1.782   0.454   1.385
  168SOL    HW2  513   1.737   0.310   1.322
  169SOL     OW  514   0.255   1.348   0.290
  169SOL    HW1  515   0.159   1.349   0.263
  169SOL    HW2  516   0.267   1.401   0.374
  170SOL     OW  517   0.105   1.013   1.726
  170SOL    HW1  518   0.028   0.980   1.780
  170SOL    HW2  519   0.190   0.983   1.768
  171SOL     OW  520   0.672   0.203   1.489
  171SOL    HW1  521   0.762   0.187   1.449
  171SOL    HW2  522   0.680   0.208   1.588
  172SOL     OW  523   0.075   0.345   0.033
  172SOL    HW1  524  -0.017   0.317   0.004
  172SOL    HW2  525   0.106   0.422  -0.023
  173SOL     OW  526   1.440   0.856   1.398
  173SOL    HW1  527   1.383   0.908   1.335
  173SOL    HW2  528   1.536   0.868   1.374
  174SOL     OW  529   0.072   0.166   0.318
  174SOL    HW1  530   0.055   0.249   0.264
  174SOL    HW2  531   0.162   0.129   0.296
  175SOL     OW  532   1.183   1.335   0.119
  175SOL    HW1  533   1.084   1.324   0.121
  175SOL    HW2  534   1.217   1.350   0.212
  176SOL     OW  535   0.613   0.842   1.431
  176SOL    HW1  536   0.669   0.923   1.414
  176SOL    HW2  537   0.672   0.762   1.434
  177SOL     OW  538   1.493   1.767   0.959
  177SOL    HW1  539   1.526   1.831   0.890
  177SOL    HW2  540   1.559   1.761   1.034
  178SOL     OW  541   0.716   0.565   1.708
  178SOL    HW1  542   0.735   0.630   1.782
  178SOL    HW2  543   0.776   0.485   1.717
  179SOL     OW  544   1.450   1.220   1.633
  179SOL    HW1  545   1.441   1.210   1.732
  179SOL    HW2  546   1.546   1.213   1.607
  180SOL     OW  547   0.390   1.741   1.560
  180SOL    HW1  548   0.299   1.782   1.558
  180SOL    HW2  549   0.383   1.647   1.592
  181SOL     OW  550   1.674   0.883   1.254
  181SOL    HW1  551   1.647   0.794   1.217
  181SOL    HW2  552   1.675   0.951   1.181
  182SOL     OW  553   1.225   0.325   0.449
  182SOL    HW1  554   1.290   0.251   0.438
  182SOL    HW2  555   1.245   0.375   0.533
  183SOL     OW  556   0.594   0.745   0.652
  183SOL    HW1  557   0.644   0.830   0.633
  183SOL    HW2  558   0.506   0.747   0.604
  184SOL     OW  559   1.777   0.342   1.642
  184SOL    HW1  560   1.760   0.373   1.548
  184SOL    HW2  561   1.693   0.305   1.680
  185SOL     OW  562   1.730   0.934   1.517
  185SOL    HW1  563   1.768   1.025   1.532
  185SOL    HW2  564   1.722   0.917   1.418
  186SOL     OW  565   0.859   1.374   0.016
  186SOL    HW1  566   0.813   1.389   0.104
  186SOL    HW2  567   0.903   1.459  -0.014
  187SOL     OW  568   0.661   1.790   0.953
  187SOL    HW1  569   0.615   1.878   0.940
  187SOL    HW2  570   0.760   1.802   0.946
  188SOL     OW  571   0.859   0.956   0.861
  188SOL    HW1  572   0.913   0.887   0.909
  188SOL    HW2  573   0.827   1.025   0.927
  189SOL     OW  574   1.083   0.984   0.087
  189SOL    HW1  575   1.060   1.037   0.005
  189SOL    HW2  576   1.164   0.928   0.068
  190SOL     OW  577   1.861   1.569   0.851
  190SOL    HW1  578   1.790   1.557   0.781
  190SOL    HW2  579   1.862   1.490   0.911
  191SOL     OW  580   0.221   1.314   1.844
  191SOL    HW1  581   0.156   1.241   1.823
  191SOL    HW2  582   0.225   1.328   1.942
  192SOL     OW  583   0.079   1.240   0.653
  192SOL    HW1  584   0.078   1.193   0.741
  192SOL    HW2  585   0.161   1.212   0.602
  193SOL     OW  586   0.672   1.391   1.624
  193SOL    HW1  587   0.594   1.341   1.662
  193SOL    HW2  588   0.669   1.486   1.655
  194SOL     OW  589   1.824   0.192   1.227
  194SOL    HW1  590   1.820   0.102   1.271
  194SOL    HW2  591   1.827   0.181   1.128
  195SOL     OW  592   0.428   0.424   0.520
  195SOL    HW1  593   0.458   0.352   0.458
  195SOL    HW2  594   0.389   0.384   0.603
  196SOL     OW  595   1.705   1.487   1.104
  196SOL    HW1  596   1.612   1.462   1.077
  196SOL    HW2  597   1.731   1.437   1.186
  197SOL     OW  598   0.317   0.547   1.280
  197SOL    HW1  599   0.355   0.488   1.352
  197SOL    HW2  600   0.357   0.521   1.192
  198SOL     OW  601   0.812   1.586   0.687
  198SOL    HW1  602   0.844   1.596   0.593
  198SOL    HW2  603   0.733   1.524   0.689
  199SOL     OW  604   1.424   0.214   1.112
  199SOL    HW1  605   1.476   0.149   1.167
  199SOL    HW2  606   1.375   0.277   1.173
  200SOL     OW  607   1.001   0.034   1.154
  200SOL    HW1  608   0.938  -0.038   1.123
  200SOL    HW2  609   1.094  -0.002   1.154
  201SOL     OW  610   0.770   1.330   0.301
  201SOL    HW1  611   0.724   1.243   0.318
  201SOL    HW2  612   0.861   1.327   0.342
  202SOL     OW  613   0.618   1.567   1.284
  202SOL    HW1  614   0.613   1.649   1.341
  202SOL    HW2  615   0.707   1.564   1.239
  203SOL     OW  616   1.352   0.052   0.168
  203SOL    HW1  617   1.387   0.011   0.084
  203SOL    HW2  618   1.262   0.014   0.188
  204SOL     OW  619   1.300   0.453   0.691
  204SOL    HW1  620   1.241   0.533   0.695
  204SOL    HW2  621   1.315   0.418   0.784
  205SOL     OW  622   1.593   0.221   0.882
  205SOL    HW1  623   1.509   0.220   0.936
  205SOL    HW2  624   1.595   0.304   0.826
  206SOL     OW  625   0.039   1.077   0.300
  206SOL    HW1  626   0.138   1.066   0.291
  206SOL    HW2  627  -0.001   0.991   0.332
  207SOL     OW  628   0.875   1.646   0.337
  207SOL    HW1  629   0.798   1.611   0.283
  207SOL    HW2  630   0.843   1.717   0.399
  208SOL     OW  631   0.230   0.628   1.975
  208SOL    HW1  632   0.137   0.626   2.012
  208SOL    HW2  633   0.231   0.589   1.883
  209SOL     OW  634   1.755   0.607   2.093
  209SOL    HW1  635   1.743   0.594   1.994
  209SOL    HW2  636   1.725   0.526   2.142
  210SOL     OW  637   0.231   1.713   2.345
  210SOL    HW1  638   0.265   1.790   2.399
  210SOL    HW2  639   0.275   1.713   2.255
  211SOL     OW  640   0.230   1.434   2.400
  211SOL    HW1  641   0.204   1.530   2.400
  211SOL    HW2  642   0.159   1.380   2.445
  212SOL     OW  643   0.606   0.964   1.985
  212SOL    HW1  644   0.613   1.048   1.931
  212SOL    HW2  645   0.652   0.977   2.073
  213SOL     OW  646   0.122   0.643   2.425
  213SOL    HW1  647   0.077   0.555   2.442
  213SOL    HW2  648   0.121   0.697   2.509
  214SOL     OW  649   1.842   1.767   2.221
  214SOL    HW1  650   1.896   1.738   2.301
  214SOL    HW2  651   1.872   1.857   2.192
  215SOL     OW  652   0.027   1.596   1.979
  215SOL    HW1  653   0.008   1.500   2.000
  215SOL    HW2  654  -0.006   1.654   2.054
  216SOL     OW  655   1.689   0.922   2.474
  216SOL    HW1  656   1.784   0.893   2.482
  216SOL    HW2  657   1.681   0.987   2.399
  217SOL     OW  658   1.641   1.108   2.294
  217SOL    HW1  659   1.727   1.110   2.242
  217SOL    HW2  660   1.655   1.155   2.382
  218SOL     OW  661   0.613   1.365   2.588
  218SOL    HW1  662   0.564   1.278   2.597
  218SOL    HW2  663   0.590   1.408   2.501
  219SOL     OW  664   0.809   0.004   2.364
  219SOL    HW1  665   0.849   0.095   2.355
  219SOL    HW2  666   0.709   0.012   2.370
  220SOL     OW  667   1.525   0.999   2.052
  220SOL    HW1  668   1.462   0.923   2.065
  220SOL    HW2  669   1.573   1.017   2.138
  221SOL     OW  670   1.466   1.417   2.815
  221SOL    HW1  671   1.407   1.423   2.895
  221SOL    HW2  672   1.451   1.329   2.769
  222SOL     OW  673   0.598   0.729   2.132
  222SOL    HW1  674   0.622   0.798   2.064
  222SOL    HW2  675   0.520   0.762   2.186
  223SOL     OW  676   1.576   1.662   2.169
  223SOL    HW1  677   1.665   1.708   2.172
  223SOL    HW2  678   1.555   1.638   2.074
  224SOL     OW  679   1.041   0.701   2.291
  224SOL    HW1  680   1.067   0.697   2.387
  224SOL    HW2  681   0.956   0.650   2.277
  225SOL     OW  682   0.076   0.811   2.651
  225SOL    HW1  683   0.175   0.799   2.660
  225SOL    HW2  684   0.052   0.906   2.672
  226SOL     OW  685   0.865   0.348   2.057
  226SOL    HW1  686   0.924   0.411   2.008
  226SOL    HW2  687   0.884   0.254   2.028
  227SOL     OW  688   1.362   1.144   2.407
  227SOL    HW1  689   1.445   1.115   2.359
  227SOL    HW2  690   1.313   1.211   2.351
  228SOL     OW  691   1.008   1.456   2.339
  228SOL    HW1  692   0.962   1.528   2.287
  228SOL    HW2  693   1.004   1.476   2.437
  229SOL     OW  694   0.351   1.801   2.715
  229SOL    HW1  695   0.401   1.715   2.721
  229SOL    HW2  696   0.416   1.878   2.712
  230SOL     OW  697   0.321   0.943   2.104
  230SOL    HW1  698   0.403   0.982   2.062
  230SOL    HW2  699   0.294   0.861   2.055
  231SOL     OW  700   1.111   1.776   2.099
  231SOL    HW1  701   1.051   1.714   2.149
  231SOL    HW2  702   1.142   1.732   2.014
  232SOL     OW  703   1.632   1.377   1.943
  232SOL    HW1  704   1.600   1.471   1.933
  232SOL    HW2  705   1.556   1.314   1.931
  233SOL     OW  706   0.464   1.743   2.185
  233SOL    HW1  707   0.497   1.782   2.271
  233SOL    HW2  708   0.540   1.736   2.120
  234SOL     OW  709   1.400   0.107   2.288
  234SOL    HW1  710   1.376   0.070   2.198
  234SOL    HW2  711   1.499   0.123   2.292
  235SOL     OW  712   0.382   0.700   2.342
  235SOL    HW1  713   0.427   0.610   2.339
  235SOL    HW2  714   0.288   0.689   2.375
  236SOL     OW  715   0.614   0.122   1.979
  236SOL    HW1  716   0.712   0.100   1.986
  236SOL    HW2  717   0.583   0.105   1.886
  237SOL     OW  718   0.539   0.064   2.374
  237SOL    HW1  719   0.458   0.065   2.432
  237SOL    HW2  720   0.542   0.147   2.319
  238SOL     OW  721   1.434   1.188   1.903
  238SOL    HW1  722   1.466   1.112   1.960
  238SOL    HW2  723   1.342   1.215   1.933
  239SOL     OW  724   0.297   0.035   2.033
  239SOL    HW1  725   0.346   0.119   2.012
  239SOL    HW2  726   0.359  -0.030   2.078
  240SOL     OW  727   0.935   0.236   2.342
  240SOL    HW1  728   0.887   0.277   2.264
  240SOL    HW2  729   1.034   0.234   2.323
  241SOL     OW  730   0.459   1.152   2.603
  241SOL    HW1  731   0.388   1.125   2.668
  241SOL    HW2  732   0.433   1.124   2.510
  242SOL     OW  733   1.271   1.797   2.453
  242SOL    HW1  734   1.315   1.861   2.389
  242SOL    HW2  735   1.221   1.849   2.523
  243SOL     OW  736   1.032   0.549   1.878
  243SOL    HW1  737   0.991   0.631   1.839
  243SOL    HW2  738   1.096   0.575   1.951
  244SOL     OW  739   0.866   0.454   2.504
  244SOL    HW1  740   0.834   0.526   2.442
  244SOL    HW2  741   0.890   0.373   2.451
  245SOL     OW  742   1.857   0.833   2.239
  245SOL    HW1  743   1.899   0.769   2.303
  245SOL    HW2  744   1.819   0.782   2.161
  246SOL     OW  745   0.488   1.385   2.036
  246SOL    HW1  746   0.401   1.370   2.083
  246SOL    HW2  747   0.471   1.411   1.941
  247SOL     OW  748   1.390   0.575   1.940
  247SOL    HW1  749   1.336   0.554   2.021
  247SOL    HW2  750   1.481   0.534   1.949
  248SOL     OW  751   0.527   0.256   2.190
  248SOL    HW1  752   0.554   0.197   2.115
  248SOL    HW2  753   0.527   0.351   2.159
  249SOL     OW  754   0.705   1.050   2.230
  249SOL    HW1  755   0.691   1.057   2.329
  249SOL    HW2  756   0.789   0.999   2.212
  250SOL     OW  757   0.367   1.100   2.363
  250SOL    HW1  758   0.360   1.183   2.307
  250SOL    HW2  759   0.371   1.020   2.303
  251SOL     OW  760   1.252   1.348   2.250
  251SOL    HW1  761   1.302   1.425   2.290
  251SOL    HW2  762   1.157   1.350   2.282
  252SOL     OW  763   1.582   0.639   2.334
  252SOL    HW1  764   1.551   0.700   2.407
  252SOL    HW2  765   1.632   0.691   2.265
  253SOL     OW  766   1.209   0.525   2.137
  253SOL    HW1  767   1.222   0.441   2.191
  253SOL    HW2  768   1.180   0.599   2.197
  254SOL     OW  769   0.307   0.063   2.480
  254SOL    HW1  770   0.296   0.157   2.513
  254SOL    HW2  771   0.302   0.000   2.557
  255SOL     OW  772   1.622   0.367   2.236
  255SOL    HW1  773   1.624   0.291   2.300
  255SOL    HW2  774   1.574   0.444   2.276
  256SOL     OW  775   1.540   0.274   1.987
  256SOL    HW1  776   1.479   0.199   2.010
  256SOL    HW2  777   1.562   0.326   2.070
  257SOL     OW  778   1.303   0.838   1.904
  257SOL    HW1  779   1.337   0.745   1.919
  257SOL    HW2  780   1.321   0.865   1.809
  258SOL     OW  781   0.008   1.326   2.062
  258SOL    HW1  782  -0.085   1.347   2.031
  258SOL    HW2  783   0.018   1.227   2.075
  259SOL     OW  784   0.815   0.572   2.187
  259SOL    HW1  785   0.822   0.483   2.141
  259SOL    HW2  786   0.721   0.606   2.179
  260SOL     OW  787   0.473   0.500   2.053
  260SOL    HW1  788   0.534   0.580   2.057
  260SOL    HW2  789   0.378   0.531   2.060
  261SOL     OW  790   1.302   0.855   2.171
  261SOL    HW1  791   1.216   0.824   2.213
  261SOL    HW2  792   1.298   0.841   2.072
  262SOL     OW  793   1.726   0.135   2.385
  262SOL    HW1  794   1.799   0.118   2.318
  262SOL    HW2  795   1.695   0.048   2.423
  263SOL     OW  796   1.388   1.573   2.339
  263SOL    HW1  797   1.455   1.585   2.265
  263SOL    HW2  798   1.348   1.662   2.362
  264SOL     OW  799   0.672   1.616   2.016
  264SOL    HW1  800   0.681   1.626   1.917
  264SOL    HW2  801   0.632   1.527   2.037
  265SOL     OW  802   1.841   0.175   2.825
  265SOL    HW1  803   1.880   0.090   2.789
  265SOL    HW2  804   1.743   0.177   2.806
  266SOL     OW  805   1.194   1.612   1.893
  266SOL    HW1  806   1.200   1.519   1.930
  266SOL    HW2  807   1.135   1.612   1.813
  267SOL     OW  808   0.916   0.910   2.153
  267SOL    HW1  809   0.979   0.948   2.085
  267SOL    HW2  810   0.956   0.827   2.192
  268SOL     OW  811   1.504   1.607   1.906
  268SOL    HW1  812   1.412   1.644   1.913
  268SOL    HW2  813   1.542   1.627   1.816
  269SOL     OW  814   0.590   1.487   2.353
  269SOL    HW1  815   0.632   1.429   2.283
  269SOL    HW2  816   0.546   1.566   2.309
  270SOL     OW  817   0.255   1.348   2.152
  270SOL    HW1  818   0.159   1.349   2.125
  270SOL    HW2  819   0.267   1.401   2.236
  271SOL     OW  820   0.075   0.345   1.895
  271SOL    HW1  821  -0.017   0.317   1.866
  271SOL    HW2  822   0.106   0.422   1.839
  272SOL     OW  823   0.072   0.166   2.180
  272SOL    HW1  824   0.055   0.249   2.126
  272SOL    HW2  825   0.162   0.129   2.158
  273SOL     OW  826   1.183   1.335   1.981
  273SOL    HW1  827   1.084   1.324   1.983
  273SOL    HW2  828   1.217   1.350   2.074
  274SOL     OW  829   1.225   0.325   2.311
  274SOL    HW1  830   1.290   0.251   2.300
  274SOL    HW2  831   1.245   0.375   2.395
  275SOL     OW  832   0.594   0.745   2.514
  275SOL    HW1  833   0.644   0.830   2.495
  275SOL    HW2  834   0.506   0.747   2.466
  276SOL     OW  835   0.859   1.374   1.878
  276SOL    HW1  836   0.813   1.389   1.966
  276SOL    HW2  837   0.903   1.459   1.848
  277SOL     OW  838   1.083   0.984   1.949
  277SOL    HW1  839   1.060   1.037   1.867
  277SOL    HW2  840   1.164   0.928   1.930
  278SOL     OW  841   0.079   1.240   2.515
  278SOL    HW1  842   0.078   1.193   2.603
  278SOL    HW2  843   0.161   1.212   2.464
  279SOL     OW  844   0.428   0.424   2.382
  279SOL    HW1  845   0.458   0.352   2.320
  279SOL    HW2  846   0.389   0.384   2.465
  280SOL     OW  847   0.770   1.330   2.163
  280SOL    HW1  848   0.724   1.243   2.180
  280SOL    HW2  849   0.861   1.327   2.204
  281SOL     OW  850   1.352   0.052   2.030
  281SOL    HW1  851   1.387   0.011   1.946
  281SOL    HW2  852   1.262   0.014   2.050
  282SOL     OW  853   1.300   0.453   2.553
  282SOL    HW1  854   1.241   0.533   2.557
  282SOL    HW2  855   1.315   0.418   2.646
  283SOL     OW  856   0.039   1.077   2.162
  283SOL    HW1  857   0.138   1.066   2.153
  283SOL    HW2  858  -0.001   0.991   2.194
  284SOL     OW  859   0.875   1.646   2.199
  284SOL    HW1  860   0.798   1.611   2.145
  284SOL    HW2  861   0.843   1.717   2.261
  285SOL     OW  862   0.225   2.137   0.996
  285SOL    HW1  863   0.260   2.120   1.088
  285SOL    HW2  864   0.137   2.092   0.984
  286SOL     OW  865   0.019   2.230   0.647
  286SOL    HW1  866  -0.063   2.273   0.686
  286SOL    HW2  867  -0.009   2.157   0.584
  287SOL     OW  868   1.755   2.469   0.231
  287SOL    HW1  869   1.743   2.456   0.132
  287SOL    HW2  870   1.725   2.388   0.280
  288SOL     OW  871   0.438   2.254   1.499
  288SOL    HW1  872   0.520   2.198   1.508
  288SOL    HW2  873   0.357   2.196   1.503
  289SOL     OW  874   1.603   2.309   0.737
  289SOL    HW1  875   1.529   2.355   0.687
  289SOL    HW2  876   1.654   2.377   0.790
  290SOL     OW  877   1.594   1.976   1.480
  290SOL    HW1  878   1.576   2.043   1.408
  290SOL    HW2  879   1.591   2.022   1.569
  291SOL     OW  880   0.122   2.505   0.563
  291SOL    HW1  881   0.077   2.417   0.580
  291SOL    HW2  882   0.121   2.559   0.647
  292SOL     OW  883   0.113   2.599   1.597
  292SOL    HW1  884   0.201   2.586   1.642
  292SOL    HW2  885   0.100   2.696   1.575
  293SOL     OW  886   0.809   1.866   0.502
  293SOL    HW1  887   0.849   1.957   0.493
  293SOL    HW2  888   0.709   1.874   0.508
  294SOL     OW  889   0.317   2.113   1.801
  294SOL    HW1  890   0.388   2.184   1.807
  294SOL    HW2  891   0.229   2.152   1.829
  295SOL     OW  892   1.281   2.207   0.944
  295SOL    HW1  893   1.195   2.157   0.931
  295SOL    HW2  894   1.343   2.153   1.000
  296SOL     OW  895   0.807   2.467   1.465
  296SOL    HW1  896   0.760   2.464   1.554
  296SOL    HW2  897   0.756   2.412   1.399
  297SOL     OW  898   1.394   2.331   1.674
  297SOL    HW1  899   1.374   2.374   1.762
  297SOL    HW2  900   1.472   2.269   1.683
  298SOL     OW  901   0.991   2.272   1.242
  298SOL    HW1  902   0.914   2.306   1.296
  298SOL    HW2  903   0.957   2.221   1.163
  299SOL     OW  904   1.041   2.563   0.429
  299SOL    HW1  905   1.067   2.559   0.525
  299SOL    HW2  906   0.956   2.512   0.415
  300SOL     OW  907   0.076   2.673   0.789
  300SOL    HW1  908   0.175   2.661   0.798
  300SOL    HW2  909   0.052   2.768   0.810
  301SOL     OW  910   0.865   2.210   0.195
  301SOL    HW1  911   0.924   2.273   0.146
  301SOL    HW2  912   0.884   2.116   0.166
  302SOL     OW  913   1.719   2.447   1.831
  302SOL    HW1  914   1.693   2.536   1.795
  302SOL    HW2  915   1.717   2.379   1.758
  303SOL     OW  916   0.550   2.058   0.885
  303SOL    HW1  917   0.545   2.053   0.985
  303SOL    HW2  918   0.552   2.154   0.856
  304SOL     OW  919   1.458   2.597   0.728
  304SOL    HW1  920   1.453   2.532   0.803
  304SOL    HW2  921   1.538   2.656   0.741
  305SOL     OW  922   0.202   2.147   1.498
  305SOL    HW1  923   0.122   2.207   1.485
  305SOL    HW2  924   0.192   2.098   1.584
  306SOL     OW  925   1.400   1.969   0.426
  306SOL    HW1  926   1.376   1.932   0.336
  306SOL    HW2  927   1.499   1.985   0.430
  307SOL     OW  928   1.547   2.084   1.729
  307SOL    HW1  929   1.542   2.121   1.821
  307SOL    HW2  930   1.475   2.015   1.717
  308SOL     OW  931   0.614   1.984   0.117
  308SOL    HW1  932   0.712   1.962   0.124
  308SOL    HW2  933   0.583   1.967   0.024
  309SOL     OW  934   0.781   2.126   1.749
  309SOL    HW1  935   0.848   2.065   1.792
  309SOL    HW2  936   0.708   2.145   1.814
  310SOL     OW  937   1.351   2.452   1.433
  310SOL    HW1  938   1.379   2.409   1.518
  310SOL    HW2  939   1.376   2.548   1.434
  311SOL     OW  940   0.922   2.365   0.899
  311SOL    HW1  941   0.897   2.356   0.803
  311SOL    HW2  942   0.970   2.283   0.930
  312SOL     OW  943   0.539   1.926   0.512
  312SOL    HW1  944   0.458   1.927   0.570
  312SOL    HW2  945   0.542   2.009   0.457
  313SOL     OW  946   0.935   2.098   0.480
  313SOL    HW1  947   0.887   2.139   0.402
  313SOL    HW2  948   1.034   2.096   0.461
  314SOL     OW  949   1.076   2.545   1.464
  314SOL    HW1  950   0.996   2.484   1.467
  314SOL    HW2  951   1.157   2.492   1.440
  315SOL     OW  952   1.032   2.411   0.016
  315SOL    HW1  953   0.991   2.493  -0.023
  315SOL    HW2  954   1.096   2.437   0.089
  316SOL     OW  955   0.078   2.418   1.386
  316SOL    HW1  956   0.170   2.417   1.345
  316SOL    HW2  957   0.072   2.492   1.453
  317SOL     OW  958   0.561   2.084   1.147
  317SOL    HW1  959   0.599   2.000   1.184
  317SOL    HW2  960   0.473   2.103   1.191
  318SOL     OW  961   0.866   2.316   0.642
  318SOL    HW1  962   0.834   2.388   0.580
  318SOL    HW2  963   0.890   2.235   0.589
  319SOL     OW  964   1.017   1.901   0.753
  319SOL    HW1  965   0.945   1.906   0.684
  319SOL    HW2  966   0.993   1.832   0.822
  320SOL     OW  967   1.466   2.452   0.992
  320SOL    HW1  968   1.436   2.357   0.999
  320SOL    HW2  969   1.539   2.468   1.058
  321SOL     OW  970   0.527   2.118   0.328
  321SOL    HW1  971   0.554   2.059   0.253
  321SOL    HW2  972   0.527   2.213   0.297
  322SOL     OW  973   0.915   1.951   1.402
  322SOL    HW1  974   0.940   1.931   1.307
  322SOL    HW2  975   0.987   2.007   1.444
  323SOL     OW  976   1.274   2.248   1.262
  323SOL    HW1  977   1.295   2.322   1.326
  323SOL    HW2  978   1.185   2.265   1.219
  324SOL     OW  979   0.566   2.399   0.865
  324SOL    HW1  980   0.578   2.465   0.791
  324SOL    HW2  981   0.612   2.433   0.948
  325SOL     OW  982   1.582   2.501   0.472
  325SOL    HW1  983   1.551   2.562   0.545
  325SOL    HW2  984   1.632   2.553   0.403
  326SOL     OW  985   1.013   1.967   1.770
  326SOL    HW1  986   1.019   2.052   1.718
  326SOL    HW2  987   1.045   1.891   1.713
  327SOL     OW  988   0.504   1.912   1.740
  327SOL    HW1  989   0.462   1.855   1.670
  327SOL    HW2  990   0.438   1.981   1.772
  328SOL     OW  991   1.209   2.387   0.275
  328SOL    HW1  992   1.222   2.303   0.329
  328SOL    HW2  993   1.180   2.461   0.335
  329SOL     OW  994   0.307   2.075   1.231
  329SOL    HW1  995   0.284   2.112   1.321
  329SOL    HW2  996   0.277   1.980   1.225
  330SOL     OW  997   0.732   2.496   1.064
  330SOL    HW1  998   0.791   2.470   0.988
  330SOL    HW2  999   0.704   2.592   1.053
  331SOL     OW 1000   0.307   1.925   0.618
  331SOL    HW1 1001   0.296   2.019   0.651
  331SOL    HW2 1002   0.302   1.862   0.695
  332SOL     OW 1003   1.622   2.229   0.374
  332SOL    HW1 1004   1.624   2.153   0.438
  332SOL    HW2 1005   1.574   2.306   0.414
  333SOL     OW 1006   1.540   2.136   0.125
  333SOL    HW1 1007   1.479   2.061   0.148
  333SOL    HW2 1008   1.562   2.188   0.208
  334SOL     OW 1009   0.319   2.672   0.949
  334SOL    HW1 1010   0.412   2.708   0.954
  334SOL    HW2 1011   0.313   2.587   1.001
  335SOL     OW 1012   0.339   2.371   1.006
  335SOL    HW1 1013   0.287   2.288   0.989
  335SOL    HW2 1014   0.416   2.376   0.942
  336SOL     OW 1015   1.138   2.242   1.678
  336SOL    HW1 1016   1.093   2.305   1.742
  336SOL    HW2 1017   1.231   2.273   1.661
  337SOL     OW 1018   1.160   2.069   1.477
  337SOL    HW1 1019   1.160   2.133   1.554
  337SOL    HW2 1020   1.188   2.117   1.394
  338SOL     OW 1021   0.040   2.406   1.114
  338SOL    HW1 1022   0.125   2.373   1.073
  338SOL    HW2 1023   0.053   2.421   1.212
  339SOL     OW 1024   0.189   2.382   1.722
  339SOL    HW1 1025   0.248   2.342   1.652
  339SOL    HW2 1026   0.131   2.453   1.681
  340SOL     OW 1027   0.815   2.434   0.325
  340SOL    HW1 1028   0.822   2.345   0.279
  340SOL    HW2 1029   0.721   2.468   0.317
  341SOL     OW 1030   1.657   2.466   1.206
  341SOL    HW1 1031   1.619   2.397   1.268
  341SOL    HW2 1032   1.739   2.430   1.162
  342SOL     OW 1033   0.671   2.326   1.269
  342SOL    HW1 1034   0.637   2.237   1.239
  342SOL    HW2 1035   0.697   2.380   1.189
  343SOL     OW 1036   0.473   2.362   0.191
  343SOL    HW1 1037   0.534   2.442   0.195
  343SOL    HW2 1038   0.378   2.393   0.198
  344SOL     OW 1039   0.903   1.948   0.133
  344SOL    HW1 1040   0.954   1.949   0.047
  344SOL    HW2 1041   0.959   1.906   0.204
  345SOL     OW 1042   1.726   1.997   0.523
  345SOL    HW1 1043   1.799   1.980   0.456
  345SOL    HW2 1044   1.695   1.910   0.561
  346SOL     OW 1045   1.841   2.037   0.963
  346SOL    HW1 1046   1.880   1.952   0.927
  346SOL    HW2 1047   1.743   2.039   0.944
  347SOL     OW 1048   0.263   2.188   0.720
  347SOL    HW1 1049   0.184   2.239   0.686
  347SOL    HW2 1050   0.254   2.173   0.818
  348SOL     OW 1051   1.014   2.098   0.971
  348SOL    HW1 1052   1.006   2.062   0.878
  348SOL    HW2 1053   1.012   2.022   1.036
  349SOL     OW 1054   1.709   2.247   1.381
  349SOL    HW1 1055   1.782   2.316   1.385
  349SOL    HW2 1056   1.737   2.172   1.322
  350SOL     OW 1057   0.672   2.065   1.489
  350SOL    HW1 1058   0.762   2.049   1.449
  350SOL    HW2 1059   0.680   2.070   1.588
  351SOL     OW 1060   0.075   2.207   0.033
  351SOL    HW1 1061  -0.017   2.179   0.004
  351SOL    HW2 1062   0.106   2.284  -0.023
  352SOL     OW 1063   0.072   2.028   0.318
  352SOL    HW1 1064   0.055   2.111   0.264
  352SOL    HW2 1065   0.162   1.991   0.296
  353SOL     OW 1066   0.716   2.427   1.708
  353SOL    HW1 1067   0.735   2.492   1.782
  353SOL    HW2 1068   0.776   2.347   1.717
  354SOL     OW 1069   1.225   2.187   0.449
  354SOL    HW1 1070   1.290   2.113   0.438
  354SOL    HW2 1071   1.245   2.237   0.533
  355SOL     OW 1072   1.777   2.204   1.642
  355SOL    HW1 1073   1.760   2.235   1.548
  355SOL    HW2 1074   1.693   2.167   1.680
  356SOL     OW 1075   1.083   2.846   0.087
  356SOL    HW1 1076   1.060   2.899   0.005
  356SOL    HW2 1077   1.164   2.790   0.068
  357SOL     OW 1078   1.824   2.054   1.227
  357SOL    HW1 1079   1.820   1.964   1.271
  357SOL    HW2 1080   1.827   2.043   1.128
  358SOL     OW 1081   0.428   2.286   0.520
  358SOL    HW1 1082   0.458   2.214   0.458
  358SOL    HW2 1083   0.389   2.246   0.603
  359SOL     OW 1084   0.317   2.409   1.280
  359SOL    HW1 1085   0.355   2.350   1.352
  359SOL    HW2 1086   0.357   2.383   1.192
  360SOL     OW 1087   1.424   2.076   1.112
  360SOL    HW1 1088   1.476   2.011   1.167
  360SOL    HW2 1089   1.375   2.139   1.173
  361SOL     OW 1090   1.001   1.896   1.154
  361SOL    HW1 1091   0.938   1.824   1.123
  361SOL    HW2 1092   1.094   1.860   1.154
  362SOL     OW 1093   1.352   1.914   0.168
  362SOL    HW1 1094   1.387   1.873   0.084
  362SOL    HW2 1095   1.262   1.876   0.188
  363SOL     OW 1096   1.300   2.315   0.691
  363SOL    HW1 1097   1.241   2.395   0.695
  363SOL    HW2 1098   1.315   2.280   0.784
  364SOL     OW 1099   1.593   2.083   0.882
  364SOL    HW1 1100   1.509   2.082   0.936
  364SOL    HW2 1101   1.595   2.166   0.826
  365SOL     OW 1102   1.755   2.469   2.093
  365SOL    HW1 1103   1.743   2.456   1.994
  365SOL    HW2 1104   1.725   2.388   2.142
  366SOL     OW 1105   0.122   2.505   2.425
  366SOL    HW1 1106   0.077   2.417   2.442
  366SOL    HW2 1107   0.121   2.559   2.509
  367SOL     OW 1108   0.809   1.866   2.364
  367SOL    HW1 1109   0.849   1.957   2.355
  367SOL    HW2 1110   0.709   1.874   2.370
  368SOL     OW 1111   1.041   2.563   2.291
  368SOL    HW1 1112   1.067   2.559   2.387
  368SOL    HW2 1113   0.956   2.512   2.277
  369SOL     OW 1114   0.076   2.673   2.651
  369SOL    HW1 1115   0.175   2.661   2.660
  369SOL    HW2 1116   0.052   2.768   2.672
  370SOL     OW 1117   0.865   2.210   2.057
  370SOL    HW1 1118   0.924   2.273   2.008
  370SOL    HW2 1119   0.884   2.116   2.028
  371SOL     OW 1120   1.400   1.969   2.288
  371SOL    HW1 1121   1.376   1.932   2.198
  371SOL    HW2 1122   1.499   1.985   2.292
  372SOL     OW 1123   0.614   1.984   1.979
  372SOL    HW1 1124   0.712   1.962   1.986
  372SOL    HW2 1125   0.583   1.967   1.886
  373SOL     OW 1126   0.539   1.926   2.374
  373SOL    HW1 1127   0.458   1.927   2.432
  373SOL    HW2 1128   0.542   2.009   2.319
  374SOL     OW 1129   0.297   1.897   2.033
  374SOL    HW1 1130   0.346   1.981   2.012
  374SOL    HW2 1131   0.359   1.832   2.078
  375SOL     OW 1132   0.935   2.098   2.342
  375SOL    HW1 1133   0.887   2.139   2.264
  375SOL    HW2 1134   1.034   2.096   2.323
  376SOL     OW 1135   1.032   2.411   1.878
  376SOL    HW1 1136   0.991   2.493   1.839
  376SOL    HW2 1137   1.096   2.437   1.951
  377SOL     OW 1138   0.866   2.316   2.504
  377SOL    HW1 1139   0.834   2.388   2.442
  377SOL    HW2 1140   0.890   2.235   2.451
  378SOL     OW 1141   0.527   2.118   2.190
  378SOL    HW1 1142   0.554   2.059   2.115
  378SOL    HW2 1143   0.527   2.213   2.159
  379SOL     OW 1144   1.582   2.501   2.334
  379SOL    HW1 1145   1.551   2.562   2.407
  379SOL    HW2 1146   1.632   2.553   2.265
  380SOL     OW 1147   1.209   2.387   2.137
  380SOL    HW1 1148   1.222   2.303   2.191
  380SOL    HW2 1149   1.180   2.461   2.197
  381SOL     OW 1150   0.307   1.925   2.480
  381SOL    HW1 1151   0.296   2.019   2.513
  381SOL    HW2 1152   0.302   1.862   2.557
  382SOL     OW 1153   1.622   2.229   2.236
  382SOL    HW1 1154   1.624   2.153   2.300
  382SOL    HW2 1155   1.574   2.306   2.276
  383SOL     OW 1156   1.540   2.136   1.987
  383SOL    HW1 1157   1.479   2.061   2.010
  383SOL    HW2 1158   1.562   2.188   2.070
  384SOL     OW 1159   0.815   2.434   2.187
  384SOL    HW1 1160   0.822   2.345   2.141
  384SOL    HW2 1161   0.721   2.468   2.179
  385SOL     OW 1162   0.473   2.362   2.053
  385SOL    HW1 1163   0.534   2.442   2.057
  385SOL    HW2 1164   0.378   2.393   2.060
  386SOL     OW 1165   1.726   1.997   2.385
  386SOL    HW1 1166   1.799   1.980   2.318
  386SOL    HW2 1167   1.695   1.910   2.423
  387SOL     OW 1168   1.841   2.037   2.825
  387SOL    HW1 1169   1.880   1.952   2.789
  387SOL    HW2 1170   1.743   2.039   2.806
  388SOL     OW 1171   0.075   2.207   1.895
  388SOL    HW1 1172  -0.017   2.179   1.866
  388SOL    HW2 1173   0.106   2.284   1.839
  389SOL     OW 1174   0.072   2.028   2.180
  389SOL    HW1 1175   0.055   2.111   2.126
  389SOL    HW2 1176   0.162   1.991   2.158
  390SOL     OW 1177   1.225   2.187   2.311
  390SOL    HW1 1178   1.290   2.113   2.300
  390SOL    HW2 1179   1.245   2.237   2.395
  391SOL     OW 1180   1.083   2.846   1.949
  391SOL    HW1 1181   1.060   2.899   1.867
  391SOL    HW2 1182   1.164   2.790   1.930
  392SOL     OW 1183   0.428   2.286   2.382
  392SOL    HW1 1184   0.458   2.214   2.320
  392SOL    HW2 1185   0.389   2.246   2.465
  393SOL     OW 1186   1.352   1.914   2.030
  393SOL    HW1 1187   1.387   1.873   1.946
  393SOL    HW2 1188   1.262   1.876   2.050
  394SOL     OW 1189   1.300   2.315   2.553
  394SOL    HW1 1190   1.241   2.395   2.557
  394SOL    HW2 1191   1.315   2.280   2.646
  395SOL     OW 1192   2.092   0.628   0.113
  395SOL    HW1 1193   1.999   0.626   0.150
  395SOL    HW2 1194   2.093   0.589   0.021
  396SOL     OW 1195   2.087   0.275   0.996
  396SOL    HW1 1196   2.122   0.258   1.088
  396SOL    HW2 1197   1.999   0.230   0.984
  397SOL     OW 1198   1.881   0.368   0.647
  397SOL    HW1 1199   1.799   0.411   0.686
  397SOL    HW2 1200   1.853   0.295   0.584
  398SOL     OW 1201   2.431   1.275   1.165
  398SOL    HW1 1202   2.338   1.268   1.128
  398SOL    HW2 1203   2.442   1.364   1.209
  399SOL     OW 1204   2.712   0.798   1.823
  399SOL    HW1 1205   2.708   0.874   1.888
  399SOL    HW2 1206   2.734   0.834   1.732
  400SOL     OW 1207   2.197   1.435   1.061
  400SOL    HW1 1208   2.119   1.404   1.008
  400SOL    HW2 1209   2.255   1.493   1.004
  401SOL     OW 1210   2.300   0.392   1.499
  401SOL    HW1 1211   2.382   0.336   1.508
  401SOL    HW2 1212   2.219   0.334   1.503
  402SOL     OW 1213   2.093   1.713   0.483
  402SOL    HW1 1214   2.127   1.790   0.537
  402SOL    HW2 1215   2.137   1.713   0.393
  403SOL     OW 1216   2.092   1.434   0.538
  403SOL    HW1 1217   2.066   1.530   0.538
  403SOL    HW2 1218   2.021   1.380   0.583
  404SOL     OW 1219   2.102   1.091   0.886
  404SOL    HW1 1220   2.116   1.007   0.938
  404SOL    HW2 1221   2.047   1.155   0.941
  405SOL     OW 1222   1.984   0.643   0.563
  405SOL    HW1 1223   1.939   0.555   0.580
  405SOL    HW2 1224   1.983   0.697   0.647
  406SOL     OW 1225   1.889   1.596   0.117
  406SOL    HW1 1226   1.870   1.500   0.138
  406SOL    HW2 1227   1.856   1.654   0.192
  407SOL     OW 1228   1.975   0.737   1.597
  407SOL    HW1 1229   2.063   0.724   1.642
  407SOL    HW2 1230   1.962   0.834   1.575
  408SOL     OW 1231   2.475   1.365   0.726
  408SOL    HW1 1232   2.426   1.278   0.735
  408SOL    HW2 1233   2.452   1.408   0.639
  409SOL     OW 1234   2.059   0.976   1.264
  409SOL    HW1 1235   2.148   0.931   1.250
  409SOL    HW2 1236   1.986   0.911   1.245
  410SOL     OW 1237   2.179   0.251   1.801
  410SOL    HW1 1238   2.250   0.322   1.807
  410SOL    HW2 1239   2.091   0.290   1.829
  411SOL     OW 1240   2.460   0.729   0.270
  411SOL    HW1 1241   2.484   0.798   0.202
  411SOL    HW2 1242   2.382   0.762   0.324
  412SOL     OW 1243   1.938   0.811   0.789
  412SOL    HW1 1244   2.037   0.799   0.798
  412SOL    HW2 1245   1.914   0.906   0.810
  413SOL     OW 1246   1.992   1.821   1.571
  413SOL    HW1 1247   1.982   1.806   1.670
  413SOL    HW2 1248   1.906   1.857   1.535
  414SOL     OW 1249   2.727   0.348   0.195
  414SOL    HW1 1250   2.786   0.411   0.146
  414SOL    HW2 1251   2.746   0.254   0.166
  415SOL     OW 1252   2.412   0.196   0.885
  415SOL    HW1 1253   2.407   0.191   0.985
  415SOL    HW2 1254   2.414   0.292   0.856
  416SOL     OW 1255   2.213   1.801   0.853
  416SOL    HW1 1256   2.263   1.715   0.859
  416SOL    HW2 1257   2.278   1.878   0.850
  417SOL     OW 1258   2.183   0.943   0.242
  417SOL    HW1 1259   2.265   0.982   0.200
  417SOL    HW2 1260   2.156   0.861   0.193
  418SOL     OW 1261   2.323   1.266   1.727
  418SOL    HW1 1262   2.273   1.267   1.641
  418SOL    HW2 1263   2.260   1.248   1.803
  419SOL     OW 1264   2.064   0.285   1.498
  419SOL    HW1 1265   1.984   0.345   1.485
  419SOL    HW2 1266   2.054   0.236   1.584
  420SOL     OW 1267   2.326   1.743   0.323
  420SOL    HW1 1268   2.359   1.782   0.409
  420SOL    HW2 1269   2.402   1.736   0.258
  421SOL     OW 1270   2.111   1.785   1.241
  421SOL    HW1 1271   2.168   1.720   1.291
  421SOL    HW2 1272   2.095   1.752   1.148
  422SOL     OW 1273   2.244   0.700   0.480
  422SOL    HW1 1274   2.289   0.610   0.477
  422SOL    HW2 1275   2.150   0.689   0.513
  423SOL     OW 1276   2.665   1.402   0.924
  423SOL    HW1 1277   2.755   1.416   0.882
  423SOL    HW2 1278   2.594   1.404   0.853
  424SOL     OW 1279   2.401   0.064   0.512
  424SOL    HW1 1280   2.320   0.065   0.570
  424SOL    HW2 1281   2.404   0.147   0.457
  425SOL     OW 1282   2.159   0.035   0.171
  425SOL    HW1 1283   2.208   0.119   0.150
  425SOL    HW2 1284   2.221  -0.030   0.216
  426SOL     OW 1285   2.797   0.236   0.480
  426SOL    HW1 1286   2.749   0.277   0.402
  426SOL    HW2 1287   2.896   0.234   0.461
  427SOL     OW 1288   2.321   1.152   0.741
  427SOL    HW1 1289   2.250   1.125   0.806
  427SOL    HW2 1290   2.295   1.124   0.648
  428SOL     OW 1291   1.940   0.556   1.386
  428SOL    HW1 1292   2.032   0.555   1.345
  428SOL    HW2 1293   1.934   0.630   1.453
  429SOL     OW 1294   2.423   0.222   1.147
  429SOL    HW1 1295   2.461   0.138   1.184
  429SOL    HW2 1296   2.335   0.241   1.191
  430SOL     OW 1297   2.389   0.256   0.328
  430SOL    HW1 1298   2.416   0.197   0.253
  430SOL    HW2 1299   2.389   0.351   0.297
  431SOL     OW 1300   2.272   0.813   1.251
  431SOL    HW1 1301   2.358   0.825   1.301
  431SOL    HW2 1302   2.230   0.726   1.278
  432SOL     OW 1303   1.926   1.564   1.331
  432SOL    HW1 1304   1.880   1.646   1.297
  432SOL    HW2 1305   2.024   1.583   1.340
  433SOL     OW 1306   2.229   1.100   0.501
  433SOL    HW1 1307   2.222   1.183   0.445
  433SOL    HW2 1308   2.233   1.020   0.441
  434SOL     OW 1309   2.428   0.537   0.865
  434SOL    HW1 1310   2.440   0.603   0.791
  434SOL    HW2 1311   2.474   0.571   0.948
  435SOL     OW 1312   2.216   1.510   1.329
  435SOL    HW1 1313   2.195   1.466   1.242
  435SOL    HW2 1314   2.313   1.536   1.332
  436SOL     OW 1315   2.264   0.751   1.598
  436SOL    HW1 1316   2.332   0.806   1.551
  436SOL    HW2 1317   2.304   0.663   1.625
  437SOL     OW 1318   2.366   0.050   1.740
  437SOL    HW1 1319   2.324  -0.007   1.670
  437SOL    HW2 1320   2.300   0.119   1.772
  438SOL     OW 1321   2.435   0.870   1.029
  438SOL    HW1 1322   2.479   0.959   1.020
  438SOL    HW2 1323   2.372   0.870   1.106
  439SOL     OW 1324   2.169   0.213   1.231
  439SOL    HW1 1325   2.146   0.250   1.321
  439SOL    HW2 1326   2.139   0.118   1.225
  440SOL     OW 1327   1.899   1.310   1.282
  440SOL    HW1 1328   1.952   1.261   1.350
  440SOL    HW2 1329   1.921   1.408   1.287
  441SOL     OW 1330   2.169   0.063   0.618
  441SOL    HW1 1331   2.158   0.157   0.651
  441SOL    HW2 1332   2.164   0.000   0.695
  442SOL     OW 1333   2.212   0.898   1.804
  442SOL    HW1 1334   2.288   0.942   1.852
  442SOL    HW2 1335   2.247   0.851   1.722
  443SOL     OW 1336   2.181   0.810   0.949
  443SOL    HW1 1337   2.274   0.846   0.954
  443SOL    HW2 1338   2.175   0.725   1.001
  444SOL     OW 1339   2.201   0.509   1.006
  444SOL    HW1 1340   2.149   0.426   0.989
  444SOL    HW2 1341   2.278   0.514   0.942
  445SOL     OW 1342   1.870   1.326   0.200
  445SOL    HW1 1343   1.777   1.347   0.169
  445SOL    HW2 1344   1.880   1.227   0.213
  446SOL     OW 1345   1.950   1.801   0.927
  446SOL    HW1 1346   1.908   1.715   0.900
  446SOL    HW2 1347   2.044   1.804   0.893
  447SOL     OW 1348   2.366   1.568   0.910
  447SOL    HW1 1349   2.432   1.642   0.919
  447SOL    HW2 1350   2.410   1.489   0.868
  448SOL     OW 1351   1.902   0.544   1.114
  448SOL    HW1 1352   1.987   0.511   1.073
  448SOL    HW2 1353   1.915   0.559   1.212
  449SOL     OW 1354   2.051   0.520   1.722
  449SOL    HW1 1355   2.110   0.480   1.652
  449SOL    HW2 1356   1.993   0.591   1.681
  450SOL     OW 1357   2.677   0.572   0.325
  450SOL    HW1 1358   2.684   0.483   0.279
  450SOL    HW2 1359   2.583   0.606   0.317
  451SOL     OW 1360   2.114   1.564   1.744
  451SOL    HW1 1361   2.084   1.621   1.820
  451SOL    HW2 1362   2.107   1.467   1.770
  452SOL     OW 1363   2.335   0.500   0.191
  452SOL    HW1 1364   2.396   0.580   0.195
  452SOL    HW2 1365   2.240   0.531   0.198
  453SOL     OW 1366   2.021   1.137   1.466
  453SOL    HW1 1367   2.043   1.076   1.542
  453SOL    HW2 1368   2.031   1.088   1.380
  454SOL     OW 1369   1.945   1.258   1.022
  454SOL    HW1 1370   1.940   1.257   1.122
  454SOL    HW2 1371   1.862   1.217   0.984
  455SOL     OW 1372   2.550   1.662   1.716
  455SOL    HW1 1373   2.494   1.743   1.725
  455SOL    HW2 1374   2.602   1.666   1.630
  456SOL     OW 1375   1.992   1.794   1.851
  456SOL    HW1 1376   1.951   1.720   1.904
  456SOL    HW2 1377   2.056   1.845   1.909
  457SOL     OW 1378   2.125   0.326   0.720
  457SOL    HW1 1379   2.046   0.377   0.686
  457SOL    HW2 1380   2.116   0.311   0.818
  458SOL     OW 1381   2.234   1.288   1.490
  458SOL    HW1 1382   2.221   1.381   1.456
  458SOL    HW2 1383   2.150   1.236   1.477
  459SOL     OW 1384   2.452   1.487   0.491
  459SOL    HW1 1385   2.494   1.429   0.421
  459SOL    HW2 1386   2.408   1.566   0.447
  460SOL     OW 1387   2.117   1.348   0.290
  460SOL    HW1 1388   2.021   1.349   0.263
  460SOL    HW2 1389   2.129   1.401   0.374
  461SOL     OW 1390   1.967   1.013   1.726
  461SOL    HW1 1391   1.890   0.980   1.780
  461SOL    HW2 1392   2.052   0.983   1.768
  462SOL     OW 1393   2.534   0.203   1.489
  462SOL    HW1 1394   2.624   0.187   1.449
  462SOL    HW2 1395   2.542   0.208   1.588
  463SOL     OW 1396   1.937   0.345   0.033
  463SOL    HW1 1397   1.845   0.317   0.004
  463SOL    HW2 1398   1.968   0.422  -0.023
  464SOL     OW 1399   2.475   0.842   1.431
  464SOL    HW1 1400   2.531   0.923   1.414
  464SOL    HW2 1401   2.534   0.762   1.434
  465SOL     OW 1402   2.252   1.741   1.560
  465SOL    HW1 1403   2.161   1.782   1.558
  465SOL    HW2 1404   2.245   1.647   1.592
  466SOL     OW 1405   2.456   0.745   0.652
  466SOL    HW1 1406   2.506   0.830   0.633
  466SOL    HW2 1407   2.368   0.747   0.604
  467SOL     OW 1408   2.083   1.314   1.844
  467SOL    HW1 1409   2.018   1.241   1.823
  467SOL    HW2 1410   2.087   1.328   1.942
  468SOL     OW 1411   1.941   1.240   0.653
  468SOL    HW1 1412   1.940   1.193   0.741
  468SOL    HW2 1413   2.023   1.212   0.602
  469SOL     OW 1414   2.534   1.391   1.624
  469SOL    HW1 1415   2.456   1.341   1.662
  469SOL    HW2 1416   2.531   1.486   1.655
  470SOL     OW 1417   2.290   0.424   0.520
  470SOL    HW1 1418   2.320   0.352   0.458
  470SOL    HW2 1419   2.251   0.384   0.603
  471SOL     OW 1420   2.179   0.547   1.280
  471SOL    HW1 1421   2.217   0.488   1.352
  471SOL    HW2 1422   2.219   0.521   1.192
  472SOL     OW 1423   1.901   1.077   0.300
  472SOL    HW1 1424   2.000   1.066   0.291
  472SOL    HW2 1425   1.861   0.991   0.332
  473SOL     OW 1426   2.092   0.628   1.975
  473SOL    HW1 1427   1.999   0.626   2.012
  473SOL    HW2 1428   2.093   0.589   1.883
  474SOL     OW 1429   2.093   1.713   2.345
  474SOL    HW1 1430   2.127   1.790   2.399
  474SOL    HW2 1431   2.137   1.713   2.255
  475SOL     OW 1432   2.092   1.434   2.400
  475SOL    HW1 1433   2.066   1.530   2.400
  475SOL    HW2 1434   2.021   1.380   2.445
  476SOL     OW 1435   1.984   0.643   2.425
  476SOL    HW1 1436   1.939   0.555   2.442
  476SOL    HW2 1437   1.983   0.697   2.509
  477SOL     OW 1438   1.889   1.596   1.979
  477SOL    HW1 1439   1.870   1.500   2.000
  477SOL    HW2 1440   1.856   1.654   2.054
  478SOL     OW 1441   2.460   0.729   2.132
  478SOL    HW1 1442   2.484   0.798   2.064
  478SOL    HW2 1443   2.382   0.762   2.186
  479SOL     OW 1444   1.938   0.811   2.651
  479SOL    HW1 1445   2.037   0.799   2.660
  479SOL    HW2 1446   1.914   0.906   2.672
  480SOL     OW 1447   2.727   0.348   2.057
  480SOL    HW1 1448   2.786   0.411   2.008
  480SOL    HW2 1449   2.746   0.254   2.028
  481SOL     OW 1450   2.213   1.801   2.715
  481SOL    HW1 1451   2.263   1.715   2.721
  481SOL    HW2 1452   2.278   1.878   2.712
  482SOL     OW 1453   2.183   0.943   2.104
  482SOL    HW1 1454   2.265   0.982   2.062
  482SOL    HW2 1455   2.156   0.861   2.055
  483SOL     OW 1456   2.326   1.743   2.185
  483SOL    HW1 1457   2.359   1.782   2.271
  483SOL    HW2 1458   2.402   1.736   2.120
  484SOL     OW 1459   2.244   0.700   2.342
  484SOL    HW1 1460   2.289   0.610   2.339
  484SOL    HW2 1461   2.150   0.689   2.375
  485SOL     OW 1462   2.476   0.122   1.979
  485SOL    HW1 1463   2.574   0.100   1.986
  485SOL    HW2 1464   2.445   0.105   1.886
  486SOL     OW 1465   2.401   0.064   2.374
  486SOL    HW1 1466   2.320   0.065   2.432
  486SOL    HW2 1467   2.404   0.147   2.319
  487SOL     OW 1468   2.159   0.035   2.033
  487SOL    HW1 1469   2.208   0.119   2.012
  487SOL    HW2 1470   2.221  -0.030   2.078
  488SOL     OW 1471   2.797   0.236   2.342
  488SOL    HW1 1472   2.749   0.277   2.264
  488SOL    HW2 1473   2.896   0.234   2.323
  489SOL     OW 1474   2.321   1.152   2.603
  489SOL    HW1 1475   2.250   1.125   2.668
  489SOL    HW2 1476   2.295   1.124   2.510
  490SOL     OW 1477   2.389   0.256   2.190
  490SOL    HW1 1478   2.416   0.197   2.115
  490SOL    HW2 1479   2.389   0.351   2.159
  491SOL     OW 1480   2.229   1.100   2.363
  491SOL    HW1 1481   2.222   1.183   2.307
  491SOL    HW2 1482   2.233   1.020   2.303
  492SOL     OW 1483   2.169   0.063   2.480
  492SOL    HW1 1484   2.158   0.157   2.513
  492SOL    HW2 1485   2.164   0.000   2.557
  493SOL     OW 1486   1.870   1.326   2.062
  493SOL    HW1 1487   1.777   1.347   2.031
  493SOL    HW2 1488   1.880   1.227   2.075
  494SOL     OW 1489   2.677   0.572   2.187
  494SOL    HW1 1490   2.684   0.483   2.141
  494SOL    HW2 1491   2.583   0.606   2.179
  495SOL     OW 1492   2.335   0.500   2.053
  495SOL    HW1 1493   2.396   0.580   2.057
  495SOL    HW2 1494   2.240   0.531   2.060
  496SOL     OW 1495   2.452   1.487   2.353
  496SOL    HW1 1496   2.494   1.429   2.283
  496SOL    HW2 1497   2.408   1.566   2.309
  497SOL     OW 1498   2.117   1.348   2.152
  497SOL    HW1 1499   2.021   1.349   2.125
  497SOL    HW2 1500   2.129   1.401   2.236
  498SOL     OW 1501   1.937   0.345   1.895
  498SOL    HW1 1502   1.845   0.317   1.866
  498SOL    HW2 1503   1.968   0.422   1.839
  499SOL     OW 1504   1.934   0.166   2.180
  499SOL    HW1 1505   1.917   0.249   2.126
  499SOL    HW2 1506   2.024   0.129   2.158
  500SOL     OW 1507   2.456   0.745   2.514
  500SOL    HW1 1508   2.506   0.830   2.495
  500SOL    HW2 1509   2.368   0.747   2.466
  501SOL     OW 1510   1.941   1.240   2.515
  501SOL    HW1 1511   1.940   1.193   2.603
  501SOL    HW2 1512   2.023   1.212   2.464
  502SOL     OW 1513   2.290   0.424   2.382
  502SOL    HW1 1514   2.320   0.352   2.320
  502SOL    HW2 1515   2.251   0.384   2.465
  503SOL     OW 1516   1.901   1.077   2.162
  503SOL    HW1 1517   2.000   1.066   2.153
  503SOL    HW2 1518   1.861   0.991   2.194
  504SOL     OW 1519   2.087   2.137   0.996
  504SOL    HW1 1520   2.122   2.120   1.088
  504SOL    HW2 1521   1.999   2.092   0.984
  505SOL     OW 1522   1.881   2.230   0.647
  505SOL    HW1 1523   1.799   2.273   0.686
  505SOL    HW2 1524   1.853   2.157   0.584
  506SOL     OW 1525   2.712   2.660   1.823
  506SOL    HW1 1526   2.708   2.736   1.888
  506SOL    HW2 1527   2.734   2.696   1.732
  507SOL     OW 1528   2.300   2.254   1.499
  507SOL    HW1 1529   2.382   2.198   1.508
  507SOL    HW2 1530   2.219   2.196   1.503
  508SOL     OW 1531   1.984   2.505   0.563
  508SOL    HW1 1532   1.939   2.417   0.580
  508SOL    HW2 1533   1.983   2.559   0.647
  509SOL     OW 1534   1.975   2.599   1.597
  509SOL    HW1 1535   2.063   2.586   1.642
  509SOL    HW2 1536   1.962   2.696   1.575
  510SOL     OW 1537   2.671   1.866   0.502
  510SOL    HW1 1538   2.711   1.957   0.493
  510SOL    HW2 1539   2.571   1.874   0.508
  511SOL     OW 1540   2.179   2.113   1.801
  511SOL    HW1 1541   2.250   2.184   1.807
  511SOL    HW2 1542   2.091   2.152   1.829
  512SOL     OW 1543   2.727   2.210   0.195
  512SOL    HW1 1544   2.786   2.273   0.146
  512SOL    HW2 1545   2.746   2.116   0.166
  513SOL     OW 1546   2.412   2.058   0.885
  513SOL    HW1 1547   2.407   2.053   0.985
  513SOL    HW2 1548   2.414   2.154   0.856
  514SOL     OW 1549   2.064   2.147   1.498
  514SOL    HW1 1550   1.984   2.207   1.485
  514SOL    HW2 1551   2.054   2.098   1.584
  515SOL     OW 1552   2.476   1.984   0.117
  515SOL    HW1 1553   2.574   1.962   0.124
  515SOL    HW2 1554   2.445   1.967   0.024
  516SOL     OW 1555   2.401   1.926   0.512
  516SOL    HW1 1556   2.320   1.927   0.570
  516SOL    HW2 1557   2.404   2.009   0.457
  517SOL     OW 1558   2.797   2.098   0.480
  517SOL    HW1 1559   2.749   2.139   0.402
  517SOL    HW2 1560   2.896   2.096   0.461
  518SOL     OW 1561   1.940   2.418   1.386
  518SOL    HW1 1562   2.032   2.417   1.345
  518SOL    HW2 1563   1.934   2.492   1.453
  519SOL     OW 1564   2.423   2.084   1.147
  519SOL    HW1 1565   2.461   2.000   1.184
  519SOL    HW2 1566   2.335   2.103   1.191
  520SOL     OW 1567   2.389   2.118   0.328
  520SOL    HW1 1568   2.416   2.059   0.253
  520SOL    HW2 1569   2.389   2.213   0.297
  521SOL     OW 1570   2.428   2.399   0.865
  521SOL    HW1 1571   2.440   2.465   0.791
  521SOL    HW2 1572   2.474   2.433   0.948
  522SOL     OW 1573   2.366   1.912   1.740
  522SOL    HW1 1574   2.324   1.855   1.670
  522SOL    HW2 1575   2.300   1.981   1.772
  523SOL     OW 1576   2.169   2.075   1.231
  523SOL    HW1 1577   2.146   2.112   1.321
  523SOL    HW2 1578   2.139   1.980   1.225
  524SOL     OW 1579   2.169   1.925   0.618
  524SOL    HW1 1580   2.158   2.019   0.651
  524SOL    HW2 1581   2.164   1.862   0.695
  525SOL     OW 1582   2.181   2.672   0.949
  525SOL    HW1 1583   2.274   2.708   0.954
  525SOL    HW2 1584   2.175   2.587   1.001
  526SOL     OW 1585   2.201   2.371   1.006
  526SOL    HW1 1586   2.149   2.288   0.989
  526SOL    HW2 1587   2.278   2.376   0.942
  527SOL     OW 1588   1.902   2.406   1.114
  527SOL    HW1 1589   1.987   2.373   1.073
  527SOL    HW2 1590   1.915   2.421   1.212
  528SOL     OW 1591   2.051   2.382   1.722
  528SOL    HW1 1592   2.110   2.342   1.652
  528SOL    HW2 1593   1.993   2.453   1.681
  529SOL     OW 1594   2.677   2.434   0.325
  529SOL    HW1 1595   2.684   2.345   0.279
  529SOL    HW2 1596   2.583   2.468   0.317
  530SOL     OW 1597   2.335   2.362   0.191
  530SOL    HW1 1598   2.396   2.442   0.195
  530SOL    HW2 1599   2.240   2.393   0.198
  531SOL     OW 1600   2.125   2.188   0.720
  531SOL    HW1 1601   2.046   2.239   0.686
  531SOL    HW2 1602   2.116   2.173   0.818
  532SOL     OW 1603   2.534   2.065   1.489
  532SOL    HW1 1604   2.624   2.049   1.449
  532SOL    HW2 1605   2.542   2.070   1.588
  533SOL     OW 1606   1.937   2.207   0.033
  533SOL    HW1 1607   1.845   2.179   0.004
  533SOL    HW2 1608   1.968   2.284  -0.023
  534SOL     OW 1609   2.290   2.286   0.520
  534SOL    HW1 1610   2.320   2.214   0.458
  534SOL    HW2 1611   2.251   2.246   0.603
  535SOL     OW 1612   2.179   2.409   1.280
  535SOL    HW1 1613   2.217   2.350   1.352
  535SOL    HW2 1614   2.219   2.383   1.192
  536SOL     OW 1615   1.984   2.505   2.425
  536SOL    HW1 1616   1.939   2.417   2.442
  536SOL    HW2 1617   1.983   2.559   2.509
  537SOL     OW 1618   2.671   1.866   2.364
  537SOL    HW1 1619   2.711   1.957   2.355
  537SOL    HW2 1620   2.571   1.874   2.370
  538SOL     OW 1621   2.727   2.210   2.057
  538SOL    HW1 1622   2.786   2.273   2.008
  538SOL    HW2 1623   2.746   2.116   2.028
  539SOL     OW 1624   2.476   1.984   1.979
  539SOL    HW1 1625   2.574   1.962   1.986
  539SOL    HW2 1626   2.445   1.967   1.886
  540SOL     OW 1627   2.401   1.926   2.374
  540SOL    HW1 1628   2.320   1.927   2.432
  540SOL    HW2 1629   2.404   2.009   2.319
  541SOL     OW 1630   2.159   1.897   2.033
  541SOL    HW1 1631   2.208   1.981   2.012
  541SOL    HW2 1632   2.221   1.832   2.078
  542SOL     OW 1633   2.797   2.098   2.342
  542SOL    HW1 1634   2.749   2.139   2.264
  542SOL    HW2 1635   2.896   2.096   2.323
  543SOL     OW 1636   2.389   2.118   2.190
  543SOL    HW1 1637   2.416   2.059   2.115
  543SOL    HW2 1638   2.389   2.213   2.159
  544SOL     OW 1639   2.169   1.925   2.480
  544SOL    HW1 1640   2.158   2.019   2.513
  544SOL    HW2 1641   2.164   1.862   2.557
  545SOL     OW 1642   2.677   2.434   2.187
  545SOL    HW1 1643   2.684   2.345   2.141
  545SOL    HW2 1644   2.583   2.468   2.179
  546SOL     OW 1645   2.335   2.362   2.053
  546SOL    HW1 1646   2.396   2.442   2.057
  546SOL    HW2 1647   2.240   2.393   2.060
  547SOL     OW 1648   1.937   2.207   1.895
  547SOL    HW1 1649   1.845   2.179   1.866
  547SOL    HW2 1650   1.968   2.284   1.839
  548SOL     OW 1651   1.934   2.028   2.180
  548SOL    HW1 1652   1.917   2.111   2.126
  548SOL    HW2 1653   2.024   1.991   2.158
  549SOL     OW 1654   2.290   2.286   2.382
  549SOL    HW1 1655   2.320   2.214   2.320
  549SOL    HW2 1656   2.251   2.246   2.465
   2.56430   2.56430   2.56430
