; mobley_5692472_GMX.itp created by acpype (v: 2023.10.27) on Thu May 14 13:50:22 2026

[ atomtypes ]
;name   bond_type     mass     charge   ptype   sigma         epsilon       Amb
 c3       c3          0.00000  0.00000   A     3.39771e-01   4.51035e-01 ; 1.91  0.1078
 n7       n7          0.00000  0.00000   A     3.50765e-01   2.18405e-01 ; 1.97  0.0522
 h1       h1          0.00000  0.00000   A     2.42200e-01   8.70272e-02 ; 1.36  0.0208
 hn       hn          0.00000  0.00000   A     1.10650e-01   4.18400e-02 ; 0.62  0.0100

[ moleculetype ]
;name            nrexcl
 mobley_5692472   3

[ atoms ]
;   nr  type  resi  res  atom  cgnr     charge      mass       ; qtot   bond_type
     1   c3     1   MOL    C1    1     0.151100     12.01000 ; qtot 0.151
     2   c3     1   MOL    C2    2     0.151100     12.01000 ; qtot 0.302
     3   n7     1   MOL    N1    3    -0.830202     14.01000 ; qtot -0.528
     4   h1     1   MOL    H1    4     0.028367      1.00800 ; qtot -0.500
     5   h1     1   MOL    H2    5     0.028367      1.00800 ; qtot -0.471
     6   h1     1   MOL    H3    6     0.028367      1.00800 ; qtot -0.443
     7   h1     1   MOL    H4    7     0.028367      1.00800 ; qtot -0.415
     8   h1     1   MOL    H5    8     0.028367      1.00800 ; qtot -0.386
     9   h1     1   MOL    H6    9     0.028367      1.00800 ; qtot -0.358
    10   hn     1   MOL    H7   10     0.357800      1.00800 ; qtot -0.000

[ bonds ]
;   ai     aj funct   r             k
     1      3   1    1.4630e-01    2.1382e+05 ;     C1 - N1    
     1      4   1    1.0969e-01    2.8804e+05 ;     C1 - H1    
     1      5   1    1.0969e-01    2.8804e+05 ;     C1 - H2    
     1      6   1    1.0969e-01    2.8804e+05 ;     C1 - H3    
     2      3   1    1.4630e-01    2.1382e+05 ;     C2 - N1    
     2      7   1    1.0969e-01    2.8804e+05 ;     C2 - H4    
     2      8   1    1.0969e-01    2.8804e+05 ;     C2 - H5    
     2      9   1    1.0969e-01    2.8804e+05 ;     C2 - H6    
     3     10   1    1.0195e-01    3.8497e+05 ;     N1 - H7    

[ pairs ]
;   ai     aj    funct
     1      7      1 ;     C1 - H4    
     1      8      1 ;     C1 - H5    
     1      9      1 ;     C1 - H6    
     4      2      1 ;     H1 - C2    
     4     10      1 ;     H1 - H7    
     5      2      1 ;     H2 - C2    
     5     10      1 ;     H2 - H7    
     6      2      1 ;     H3 - C2    
     6     10      1 ;     H3 - H7    
     7     10      1 ;     H4 - H7    
     8     10      1 ;     H5 - H7    
     9     10      1 ;     H6 - H7    

[ angles ]
;   ai     aj     ak    funct   theta         cth
     1      3      2      1    1.1458e+02    6.4425e+02 ;     C1 - N1     - C2    
     1      3     10      1    1.0886e+02    4.7229e+02 ;     C1 - N1     - H7    
     2      3     10      1    1.0886e+02    4.7229e+02 ;     C2 - N1     - H7    
     3      1      4      1    1.1029e+02    3.9991e+02 ;     N1 - C1     - H1    
     3      1      5      1    1.1029e+02    3.9991e+02 ;     N1 - C1     - H2    
     3      1      6      1    1.1029e+02    3.9991e+02 ;     N1 - C1     - H3    
     3      2      7      1    1.1029e+02    3.9991e+02 ;     N1 - C2     - H4    
     3      2      8      1    1.1029e+02    3.9991e+02 ;     N1 - C2     - H5    
     3      2      9      1    1.1029e+02    3.9991e+02 ;     N1 - C2     - H6    
     4      1      5      1    1.0855e+02    2.9824e+02 ;     H1 - C1     - H2    
     4      1      6      1    1.0855e+02    2.9824e+02 ;     H1 - C1     - H3    
     5      1      6      1    1.0855e+02    2.9824e+02 ;     H2 - C1     - H3    
     7      2      8      1    1.0855e+02    2.9824e+02 ;     H4 - C2     - H5    
     7      2      9      1    1.0855e+02    2.9824e+02 ;     H4 - C2     - H6    
     8      2      9      1    1.0855e+02    2.9824e+02 ;     H5 - C2     - H6    

[ dihedrals ] ; propers
; for gromacs 4.5 or higher, using funct 9
;    i      j      k      l   func   phase     kd      pn
     1      3      2      7      9     0.00   0.89956   3 ;     C1-    N1-    C2-    H4
     1      3      2      8      9     0.00   0.89956   3 ;     C1-    N1-    C2-    H5
     1      3      2      9      9     0.00   0.89956   3 ;     C1-    N1-    C2-    H6
     4      1      3      2      9     0.00   0.89956   3 ;     H1-    C1-    N1-    C2
     4      1      3     10      9     0.00   1.25520   3 ;     H1-    C1-    N1-    H7
     5      1      3      2      9     0.00   0.89956   3 ;     H2-    C1-    N1-    C2
     5      1      3     10      9     0.00   1.25520   3 ;     H2-    C1-    N1-    H7
     6      1      3      2      9     0.00   0.89956   3 ;     H3-    C1-    N1-    C2
     6      1      3     10      9     0.00   1.25520   3 ;     H3-    C1-    N1-    H7
     7      2      3     10      9     0.00   1.25520   3 ;     H4-    C2-    N1-    H7
     8      2      3     10      9     0.00   1.25520   3 ;     H5-    C2-    N1-    H7
     9      2      3     10      9     0.00   1.25520   3 ;     H6-    C2-    N1-    H7
