; mobley_3682850_GMX.itp created by acpype (v: 2023.10.27) on Thu May 14 13:16:58 2026

[ atomtypes ]
;name   bond_type     mass     charge   ptype   sigma         epsilon       Amb
 c        c           0.00000  0.00000   A     3.31521e-01   4.13379e-01 ; 1.86  0.0988
 c6       c6          0.00000  0.00000   A     3.39771e-01   4.51035e-01 ; 1.91  0.1078
 o        o           0.00000  0.00000   A     3.04812e-01   6.12119e-01 ; 1.71  0.1463
 hc       hc          0.00000  0.00000   A     2.60018e-01   8.70272e-02 ; 1.46  0.0208

[ moleculetype ]
;name            nrexcl
 mobley_3682850   3

[ atoms ]
;   nr  type  resi  res  atom  cgnr     charge      mass       ; qtot   bond_type
     1    c     1   MOL    C1    1     0.572100     12.01000 ; qtot 0.572
     2   c6     1   MOL    C2    2    -0.181400     12.01000 ; qtot 0.391
     3   c6     1   MOL    C3    3    -0.181400     12.01000 ; qtot 0.209
     4   c6     1   MOL    C4    4    -0.072400     12.01000 ; qtot 0.137
     5   c6     1   MOL    C5    5    -0.072400     12.01000 ; qtot 0.064
     6   c6     1   MOL    C6    6    -0.083400     12.01000 ; qtot -0.019
     7    o     1   MOL    O1    7    -0.533100     16.00000 ; qtot -0.552
     8   hc     1   MOL    H1    8     0.068700      1.00800 ; qtot -0.483
     9   hc     1   MOL    H2    9     0.068700      1.00800 ; qtot -0.415
    10   hc     1   MOL    H3   10     0.068700      1.00800 ; qtot -0.346
    11   hc     1   MOL    H4   11     0.068700      1.00800 ; qtot -0.277
    12   hc     1   MOL    H5   12     0.047200      1.00800 ; qtot -0.230
    13   hc     1   MOL    H6   13     0.047200      1.00800 ; qtot -0.183
    14   hc     1   MOL    H7   14     0.047200      1.00800 ; qtot -0.136
    15   hc     1   MOL    H8   15     0.047200      1.00800 ; qtot -0.088
    16   hc     1   MOL    H9   16     0.044200      1.00800 ; qtot -0.044
    17   hc     1   MOL   H10   17     0.044200      1.00800 ; qtot -0.000

[ bonds ]
;   ai     aj funct   r             k
     1      2   1    1.5287e-01    1.9550e+05 ;     C1 - C2    
     1      3   1    1.5287e-01    1.9550e+05 ;     C1 - C3    
     1      7   1    1.2190e-01    4.9421e+05 ;     C1 - O1    
     2      4   1    1.5384e-01    1.8979e+05 ;     C2 - C4    
     2      8   1    1.0979e-01    2.8681e+05 ;     C2 - H1    
     2      9   1    1.0979e-01    2.8681e+05 ;     C2 - H2    
     3      5   1    1.5384e-01    1.8979e+05 ;     C3 - C5    
     3     10   1    1.0979e-01    2.8681e+05 ;     C3 - H3    
     3     11   1    1.0979e-01    2.8681e+05 ;     C3 - H4    
     4      6   1    1.5384e-01    1.8979e+05 ;     C4 - C6    
     4     12   1    1.0979e-01    2.8681e+05 ;     C4 - H5    
     4     13   1    1.0979e-01    2.8681e+05 ;     C4 - H6    
     5      6   1    1.5384e-01    1.8979e+05 ;     C5 - C6    
     5     14   1    1.0979e-01    2.8681e+05 ;     C5 - H7    
     5     15   1    1.0979e-01    2.8681e+05 ;     C5 - H8    
     6     16   1    1.0979e-01    2.8681e+05 ;     C6 - H9    
     6     17   1    1.0979e-01    2.8681e+05 ;     C6 - H10   

[ pairs ]
;   ai     aj    funct
     1      6      1 ;     C1 - C6    
     1     12      1 ;     C1 - H5    
     1     13      1 ;     C1 - H6    
     1     14      1 ;     C1 - H7    
     1     15      1 ;     C1 - H8    
     2      5      1 ;     C2 - C5    
     2     10      1 ;     C2 - H3    
     2     11      1 ;     C2 - H4    
     2     16      1 ;     C2 - H9    
     2     17      1 ;     C2 - H10   
     3      4      1 ;     C3 - C4    
     3      8      1 ;     C3 - H1    
     3      9      1 ;     C3 - H2    
     3     16      1 ;     C3 - H9    
     3     17      1 ;     C3 - H10   
     4     14      1 ;     C4 - H7    
     4     15      1 ;     C4 - H8    
     5     12      1 ;     C5 - H5    
     5     13      1 ;     C5 - H6    
     6      8      1 ;     C6 - H1    
     6      9      1 ;     C6 - H2    
     6     10      1 ;     C6 - H3    
     6     11      1 ;     C6 - H4    
     7      4      1 ;     O1 - C4    
     7      5      1 ;     O1 - C5    
     7      8      1 ;     O1 - H1    
     7      9      1 ;     O1 - H2    
     7     10      1 ;     O1 - H3    
     7     11      1 ;     O1 - H4    
     8     12      1 ;     H1 - H5    
     8     13      1 ;     H1 - H6    
     9     12      1 ;     H2 - H5    
     9     13      1 ;     H2 - H6    
    10     14      1 ;     H3 - H7    
    10     15      1 ;     H3 - H8    
    11     14      1 ;     H4 - H7    
    11     15      1 ;     H4 - H8    
    12     16      1 ;     H5 - H9    
    12     17      1 ;     H5 - H10   
    13     16      1 ;     H6 - H9    
    13     17      1 ;     H6 - H10   
    14     16      1 ;     H7 - H9    
    14     17      1 ;     H7 - H10   
    15     16      1 ;     H8 - H9    
    15     17      1 ;     H8 - H10   

[ angles ]
;   ai     aj     ak    funct   theta         cth
     1      2      4      1    1.1143e+02    5.0434e+02 ;     C1 - C2     - C4    
     1      2      8      1    1.0767e+02    3.6685e+02 ;     C1 - C2     - H1    
     1      2      9      1    1.0767e+02    3.6685e+02 ;     C1 - C2     - H2    
     1      3      5      1    1.1143e+02    5.0434e+02 ;     C1 - C3     - C5    
     1      3     10      1    1.0767e+02    3.6685e+02 ;     C1 - C3     - H3    
     1      3     11      1    1.0767e+02    3.6685e+02 ;     C1 - C3     - H4    
     2      1      3      1    1.1566e+02    4.9656e+02 ;     C2 - C1     - C3    
     2      1      7      1    1.2234e+02    6.4065e+02 ;     C2 - C1     - O1    
     2      4      6      1    1.1106e+02    5.0359e+02 ;     C2 - C4     - C6    
     2      4     12      1    1.0945e+02    3.6175e+02 ;     C2 - C4     - H5    
     2      4     13      1    1.0945e+02    3.6175e+02 ;     C2 - C4     - H6    
     3      1      7      1    1.2234e+02    6.4065e+02 ;     C3 - C1     - O1    
     3      5      6      1    1.1106e+02    5.0359e+02 ;     C3 - C5     - C6    
     3      5     14      1    1.0945e+02    3.6175e+02 ;     C3 - C5     - H7    
     3      5     15      1    1.0945e+02    3.6175e+02 ;     C3 - C5     - H8    
     4      2      8      1    1.0945e+02    3.6175e+02 ;     C4 - C2     - H1    
     4      2      9      1    1.0945e+02    3.6175e+02 ;     C4 - C2     - H2    
     4      6      5      1    1.1106e+02    5.0359e+02 ;     C4 - C6     - C5    
     4      6     16      1    1.0945e+02    3.6175e+02 ;     C4 - C6     - H9    
     4      6     17      1    1.0945e+02    3.6175e+02 ;     C4 - C6     - H10   
     5      3     10      1    1.0945e+02    3.6175e+02 ;     C5 - C3     - H3    
     5      3     11      1    1.0945e+02    3.6175e+02 ;     C5 - C3     - H4    
     5      6     16      1    1.0945e+02    3.6175e+02 ;     C5 - C6     - H9    
     5      6     17      1    1.0945e+02    3.6175e+02 ;     C5 - C6     - H10   
     6      4     12      1    1.0945e+02    3.6175e+02 ;     C6 - C4     - H5    
     6      4     13      1    1.0945e+02    3.6175e+02 ;     C6 - C4     - H6    
     6      5     14      1    1.0945e+02    3.6175e+02 ;     C6 - C5     - H7    
     6      5     15      1    1.0945e+02    3.6175e+02 ;     C6 - C5     - H8    
     8      2      9      1    1.0662e+02    3.0066e+02 ;     H1 - C2     - H2    
    10      3     11      1    1.0662e+02    3.0066e+02 ;     H3 - C3     - H4    
    12      4     13      1    1.0662e+02    3.0066e+02 ;     H5 - C4     - H6    
    14      5     15      1    1.0662e+02    3.0066e+02 ;     H7 - C5     - H8    
    16      6     17      1    1.0662e+02    3.0066e+02 ;     H9 - C6     - H10   

[ dihedrals ] ; propers
; for gromacs 4.5 or higher, using funct 9
;    i      j      k      l   func   phase     kd      pn
     1      2      4      6      9     0.00   0.00000   0 ;     C1-    C2-    C4-    C6
     1      2      4      6      9     0.00   0.16736   2 ;     C1-    C2-    C4-    C6
     1      2      4      6      9   180.00   1.92464   1 ;     C1-    C2-    C4-    C6
     1      2      4     12      9     0.00   0.65084   3 ;     C1-    C2-    C4-    H5
     1      2      4     13      9     0.00   0.65084   3 ;     C1-    C2-    C4-    H6
     1      3      5      6      9     0.00   0.00000   0 ;     C1-    C3-    C5-    C6
     1      3      5      6      9     0.00   0.16736   2 ;     C1-    C3-    C5-    C6
     1      3      5      6      9   180.00   1.92464   1 ;     C1-    C3-    C5-    C6
     1      3      5     14      9     0.00   0.65084   3 ;     C1-    C3-    C5-    H7
     1      3      5     15      9     0.00   0.65084   3 ;     C1-    C3-    C5-    H8
     2      1      3      5      9   180.00   1.09621   2 ;     C2-    C1-    C3-    C5
     2      1      3     10      9   180.00   0.00000   3 ;     C2-    C1-    C3-    H3
     2      1      3     11      9   180.00   0.00000   3 ;     C2-    C1-    C3-    H4
     2      4      6      5      9     0.00   2.17568   3 ;     C2-    C4-    C6-    C5
     2      4      6     16      9     0.00   0.54392   3 ;     C2-    C4-    C6-    H9
     2      4      6     17      9     0.00   0.54392   3 ;     C2-    C4-    C6-   H10
     3      1      2      4      9   180.00   1.09621   2 ;     C3-    C1-    C2-    C4
     3      1      2      8      9   180.00   0.00000   3 ;     C3-    C1-    C2-    H1
     3      1      2      9      9   180.00   0.00000   3 ;     C3-    C1-    C2-    H2
     3      5      6      4      9     0.00   2.17568   3 ;     C3-    C5-    C6-    C4
     3      5      6     16      9     0.00   0.54392   3 ;     C3-    C5-    C6-    H9
     3      5      6     17      9     0.00   0.54392   3 ;     C3-    C5-    C6-   H10
     4      6      5     14      9     0.00   0.54392   3 ;     C4-    C6-    C5-    H7
     4      6      5     15      9     0.00   0.54392   3 ;     C4-    C6-    C5-    H8
     5      6      4     12      9     0.00   0.54392   3 ;     C5-    C6-    C4-    H5
     5      6      4     13      9     0.00   0.54392   3 ;     C5-    C6-    C4-    H6
     6      4      2      8      9     0.00   0.54392   3 ;     C6-    C4-    C2-    H1
     6      4      2      9      9     0.00   0.54392   3 ;     C6-    C4-    C2-    H2
     6      5      3     10      9     0.00   0.54392   3 ;     C6-    C5-    C3-    H3
     6      5      3     11      9     0.00   0.54392   3 ;     C6-    C5-    C3-    H4
     7      1      2      4      9     0.00   0.46024   2 ;     O1-    C1-    C2-    C4
     7      1      2      4      9     0.00  49.12016   1 ;     O1-    C1-    C2-    C4
     7      1      2      4      9   180.00   0.33472   3 ;     O1-    C1-    C2-    C4
     7      1      2      8      9     0.00  16.86152   1 ;     O1-    C1-    C2-    H1
     7      1      2      8      9   180.00  15.31344   2 ;     O1-    C1-    C2-    H1
     7      1      2      9      9     0.00  16.86152   1 ;     O1-    C1-    C2-    H2
     7      1      2      9      9   180.00  15.31344   2 ;     O1-    C1-    C2-    H2
     7      1      3      5      9     0.00   0.46024   2 ;     O1-    C1-    C3-    C5
     7      1      3      5      9     0.00  49.12016   1 ;     O1-    C1-    C3-    C5
     7      1      3      5      9   180.00   0.33472   3 ;     O1-    C1-    C3-    C5
     7      1      3     10      9     0.00  16.86152   1 ;     O1-    C1-    C3-    H3
     7      1      3     10      9   180.00  15.31344   2 ;     O1-    C1-    C3-    H3
     7      1      3     11      9     0.00  16.86152   1 ;     O1-    C1-    C3-    H4
     7      1      3     11      9   180.00  15.31344   2 ;     O1-    C1-    C3-    H4
     8      2      4     12      9     0.00   0.50208   3 ;     H1-    C2-    C4-    H5
     8      2      4     13      9     0.00   0.50208   3 ;     H1-    C2-    C4-    H6
     9      2      4     12      9     0.00   0.50208   3 ;     H2-    C2-    C4-    H5
     9      2      4     13      9     0.00   0.50208   3 ;     H2-    C2-    C4-    H6
    10      3      5     14      9     0.00   0.50208   3 ;     H3-    C3-    C5-    H7
    10      3      5     15      9     0.00   0.50208   3 ;     H3-    C3-    C5-    H8
    11      3      5     14      9     0.00   0.50208   3 ;     H4-    C3-    C5-    H7
    11      3      5     15      9     0.00   0.50208   3 ;     H4-    C3-    C5-    H8
    12      4      6     16      9     0.00   0.50208   3 ;     H5-    C4-    C6-    H9
    12      4      6     17      9     0.00   0.50208   3 ;     H5-    C4-    C6-   H10
    13      4      6     16      9     0.00   0.50208   3 ;     H6-    C4-    C6-    H9
    13      4      6     17      9     0.00   0.50208   3 ;     H6-    C4-    C6-   H10
    14      5      6     16      9     0.00   0.50208   3 ;     H7-    C5-    C6-    H9
    14      5      6     17      9     0.00   0.50208   3 ;     H7-    C5-    C6-   H10
    15      5      6     16      9     0.00   0.50208   3 ;     H8-    C5-    C6-    H9
    15      5      6     17      9     0.00   0.50208   3 ;     H8-    C5-    C6-   H10

[ dihedrals ] ; impropers
; treated as propers in GROMACS to use correct AMBER analytical function
;    i      j      k      l   func   phase     kd      pn
     7      1      3      2      4   180.00   4.60240   2 ;     O1-    C1-    C3-    C2
