; mobley_1929982_GMX.itp created by acpype (v: 2023.10.27) on Thu May 14 13:25:03 2026

[ atomtypes ]
;name   bond_type     mass     charge   ptype   sigma         epsilon       Amb
 sh       sh          0.00000  0.00000   A     3.53241e-01   1.18156e+00 ; 1.98  0.2824
 hs       hs          0.00000  0.00000   A     1.08903e-01   5.18816e-02 ; 0.61  0.0124

[ moleculetype ]
;name            nrexcl
 mobley_1929982   3

[ atoms ]
;   nr  type  resi  res  atom  cgnr     charge      mass       ; qtot   bond_type
     1   sh     1   MOL    S1    1    -0.439600     32.06000 ; qtot -0.440
     2   hs     1   MOL    H1    2     0.219800      1.00800 ; qtot -0.220
     3   hs     1   MOL    H2    3     0.219800      1.00800 ; qtot 0.000

[ bonds ]
;   ai     aj funct   r             k
     1      2   1    1.3503e-01    2.3222e+05 ;     S1 - H1    
     1      3   1    1.3503e-01    2.3222e+05 ;     S1 - H2    

[ angles ]
;   ai     aj     ak    funct   theta         cth
     2      1      3      1    9.2760e+01    4.5748e+02 ;     H1 - S1     - H2    
