mobley_7610437_GMX.gro created by acpype (v: 2023.10.27) on Thu May 14 13:48:39 2026
 1905
    1MOL     C1    1   1.523   1.190   1.199
    1MOL     C2    2   1.141   1.330   1.393
    1MOL     C3    3   1.276   1.503   1.513
    1MOL     C4    4   1.393   1.266   1.225
    1MOL     C5    5   1.265   1.420   1.384
    1MOL     C6    6   1.396   1.342   1.358
    1MOL     O1    7   1.505   1.434   1.359
    1MOL     H1    8   1.519   1.142   1.101
    1MOL     H2    9   1.539   1.112   1.274
    1MOL     H3   10   1.609   1.258   1.200
    1MOL     H4   11   1.124   1.277   1.299
    1MOL     H5   12   1.151   1.256   1.473
    1MOL     H6   13   1.051   1.389   1.413
    1MOL     H7   14   1.186   1.564   1.528
    1MOL     H8   15   1.362   1.570   1.509
    1MOL     H9   16   1.287   1.438   1.601
    1MOL    H10   17   1.376   1.336   1.142
    1MOL    H11   18   1.312   1.193   1.225
    1MOL    H12   19   1.249   1.491   1.301
    1MOL    H13   20   1.411   1.272   1.441
    1MOL    H14   21   1.541   1.435   1.269
    2SOL     OW   22   0.230   0.628   0.113
    2SOL    HW1   23   0.137   0.626   0.150
    2SOL    HW2   24   0.231   0.589   0.021
    3SOL     OW   25   0.225   0.275   0.996
    3SOL    HW1   26   0.260   0.258   1.088
    3SOL    HW2   27   0.137   0.230   0.984
    4SOL     OW   28   0.019   0.368   0.647
    4SOL    HW1   29  -0.063   0.411   0.686
    4SOL    HW2   30  -0.009   0.295   0.584
    5SOL     OW   31   0.569   1.275   1.165
    5SOL    HW1   32   0.476   1.268   1.128
    5SOL    HW2   33   0.580   1.364   1.209
    6SOL     OW   34   1.555   1.511   0.703
    6SOL    HW1   35   1.498   1.495   0.784
    6SOL    HW2   36   1.496   1.521   0.623
    7SOL     OW   37   1.135   0.703   0.717
    7SOL    HW1   38   1.192   0.781   0.692
    7SOL    HW2   39   1.075   0.729   0.793
    8SOL     OW   40   1.755   0.607   0.231
    8SOL    HW1   41   1.743   0.594   0.132
    8SOL    HW2   42   1.725   0.526   0.280
    9SOL     OW   43   0.768   1.144   1.023
    9SOL    HW1   44   0.690   1.161   1.083
    9SOL    HW2   45   0.802   1.231   0.987
   10SOL     OW   46   0.850   0.798   1.823
   10SOL    HW1   47   0.846   0.874   1.888
   10SOL    HW2   48   0.872   0.834   1.732
   11SOL     OW   49   0.685   1.012   0.665
   11SOL    HW1   50   0.754   0.996   0.735
   11SOL    HW2   51   0.612   1.069   0.703
   12SOL     OW   52   0.686   1.161   1.803
   12SOL    HW1   53   0.746   1.240   1.817
   12SOL    HW2   54   0.600   1.192   1.762
   13SOL     OW   55   0.335   1.435   1.061
   13SOL    HW1   56   0.257   1.404   1.008
   13SOL    HW2   57   0.393   1.493   1.004
   14SOL     OW   58   0.438   0.392   1.499
   14SOL    HW1   59   0.520   0.336   1.508
   14SOL    HW2   60   0.357   0.334   1.503
   15SOL     OW   61   1.603   0.447   0.737
   15SOL    HW1   62   1.529   0.493   0.687
   15SOL    HW2   63   1.654   0.515   0.790
   16SOL     OW   64   0.231   1.713   0.483
   16SOL    HW1   65   0.265   1.790   0.537
   16SOL    HW2   66   0.275   1.713   0.393
   17SOL     OW   67   1.127   1.341   1.690
   17SOL    HW1   68   1.174   1.341   1.778
   17SOL    HW2   69   1.079   1.254   1.679
   18SOL     OW   70   0.230   1.434   0.538
   18SOL    HW1   71   0.204   1.530   0.538
   18SOL    HW2   72   0.159   1.380   0.583
   19SOL     OW   73   0.240   1.091   0.886
   19SOL    HW1   74   0.254   1.007   0.938
   19SOL    HW2   75   0.185   1.155   0.941
   20SOL     OW   76   0.620   1.786   1.439
   20SOL    HW1   77   0.528   1.769   1.474
   20SOL    HW2   78   0.648   1.878   1.465
   21SOL     OW   79   0.606   0.964   0.123
   21SOL    HW1   80   0.613   1.048   0.069
   21SOL    HW2   81   0.652   0.977   0.211
   22SOL     OW   82   1.594   0.114   1.480
   22SOL    HW1   83   1.576   0.181   1.408
   22SOL    HW2   84   1.591   0.160   1.569
   23SOL     OW   85   0.122   0.643   0.563
   23SOL    HW1   86   0.077   0.555   0.580
   23SOL    HW2   87   0.121   0.697   0.647
   24SOL     OW   88   1.842   1.767   0.359
   24SOL    HW1   89   1.896   1.738   0.439
   24SOL    HW2   90   1.872   1.857   0.330
   25SOL     OW   91   0.027   1.596   0.117
   25SOL    HW1   92   0.008   1.500   0.138
   25SOL    HW2   93  -0.006   1.654   0.192
   26SOL     OW   94   1.689   0.922   0.612
   26SOL    HW1   95   1.784   0.893   0.620
   26SOL    HW2   96   1.681   0.987   0.537
   27SOL     OW   97   1.641   1.108   0.432
   27SOL    HW1   98   1.727   1.110   0.380
   27SOL    HW2   99   1.655   1.155   0.520
   28SOL     OW  100   0.113   0.737   1.597
   28SOL    HW1  101   0.201   0.724   1.642
   28SOL    HW2  102   0.100   0.834   1.575
   29SOL     OW  103   0.613   1.365   0.726
   29SOL    HW1  104   0.564   1.278   0.735
   29SOL    HW2  105   0.590   1.408   0.639
   30SOL     OW  106   0.809   0.004   0.502
   30SOL    HW1  107   0.849   0.095   0.493
   30SOL    HW2  108   0.709   0.012   0.508
   31SOL     OW  109   0.197   0.976   1.264
   31SOL    HW1  110   0.286   0.931   1.250
   31SOL    HW2  111   0.124   0.911   1.245
   32SOL     OW  112   1.525   0.999   0.190
   32SOL    HW1  113   1.462   0.923   0.203
   32SOL    HW2  114   1.573   1.017   0.276
   33SOL     OW  115   1.187   1.792   1.616
   33SOL    HW1  116   1.211   1.852   1.540
   33SOL    HW2  117   1.194   1.697   1.586
   34SOL     OW  118   0.317   0.251   1.801
   34SOL    HW1  119   0.388   0.322   1.807
   34SOL    HW2  120   0.229   0.290   1.829
   35SOL     OW  121   1.466   1.417   0.953
   35SOL    HW1  122   1.407   1.423   1.033
   35SOL    HW2  123   1.451   1.329   0.907
   36SOL     OW  124   1.667   1.714   0.572
   36SOL    HW1  125   1.626   1.691   0.484
   36SOL    HW2  126   1.649   1.640   0.637
   37SOL     OW  127   0.598   0.729   0.270
   37SOL    HW1  128   0.622   0.798   0.202
   37SOL    HW2  129   0.520   0.762   0.324
   38SOL     OW  130   1.281   0.345   0.944
   38SOL    HW1  131   1.195   0.295   0.931
   38SOL    HW2  132   1.343   0.291   1.000
   39SOL     OW  133   1.576   1.662   0.307
   39SOL    HW1  134   1.665   1.708   0.310
   39SOL    HW2  135   1.555   1.638   0.212
   40SOL     OW  136   0.807   0.605   1.465
   40SOL    HW1  137   0.760   0.602   1.554
   40SOL    HW2  138   0.756   0.550   1.399
   41SOL     OW  139   1.394   0.469   1.674
   41SOL    HW1  140   1.374   0.512   1.762
   41SOL    HW2  141   1.472   0.407   1.683
   42SOL     OW  142   0.973   0.890   1.572
   42SOL    HW1  143   1.019   0.806   1.543
   42SOL    HW2  144   0.917   0.924   1.497
   43SOL     OW  145   0.991   0.410   1.242
   43SOL    HW1  146   0.914   0.444   1.296
   43SOL    HW2  147   0.957   0.359   1.163
   44SOL     OW  148   1.041   0.701   0.429
   44SOL    HW1  149   1.067   0.697   0.525
   44SOL    HW2  150   0.956   0.650   0.415
   45SOL     OW  151   0.076   0.811   0.789
   45SOL    HW1  152   0.175   0.799   0.798
   45SOL    HW2  153   0.052   0.906   0.810
   46SOL     OW  154   0.130   1.821   1.571
   46SOL    HW1  155   0.120   1.806   1.670
   46SOL    HW2  156   0.044   1.857   1.535
   47SOL     OW  157   0.865   0.348   0.195
   47SOL    HW1  158   0.924   0.411   0.146
   47SOL    HW2  159   0.884   0.254   0.166
   48SOL     OW  160   1.719   0.585   1.831
   48SOL    HW1  161   1.693   0.674   1.795
   48SOL    HW2  162   1.717   0.517   1.758
   49SOL     OW  163   1.362   1.144   0.545
   49SOL    HW1  164   1.445   1.115   0.497
   49SOL    HW2  165   1.313   1.211   0.489
   50SOL     OW  166   0.550   0.196   0.885
   50SOL    HW1  167   0.545   0.191   0.985
   50SOL    HW2  168   0.552   0.292   0.856
   51SOL     OW  169   1.008   1.456   0.477
   51SOL    HW1  170   0.962   1.528   0.425
   51SOL    HW2  171   1.004   1.476   0.575
   52SOL     OW  172   0.351   1.801   0.853
   52SOL    HW1  173   0.401   1.715   0.859
   52SOL    HW2  174   0.416   1.878   0.850
   53SOL     OW  175   1.795   1.066   0.873
   53SOL    HW1  176   1.733   1.051   0.797
   53SOL    HW2  177   1.743   1.077   0.958
   54SOL     OW  178   0.321   0.943   0.242
   54SOL    HW1  179   0.403   0.982   0.200
   54SOL    HW2  180   0.294   0.861   0.193
   55SOL     OW  181   1.458   0.735   0.728
   55SOL    HW1  182   1.453   0.670   0.803
   55SOL    HW2  183   1.538   0.794   0.741
   56SOL     OW  184   0.461   1.266   1.727
   56SOL    HW1  185   0.411   1.267   1.641
   56SOL    HW2  186   0.398   1.248   1.803
   57SOL     OW  187   1.111   1.776   0.237
   57SOL    HW1  188   1.051   1.714   0.287
   57SOL    HW2  189   1.142   1.732   0.152
   58SOL     OW  190   0.202   0.285   1.498
   58SOL    HW1  191   0.122   0.345   1.485
   58SOL    HW2  192   0.192   0.236   1.584
   59SOL     OW  193   1.632   1.377   0.081
   59SOL    HW1  194   1.600   1.471   0.071
   59SOL    HW2  195   1.556   1.314   0.069
   60SOL     OW  196   0.464   1.743   0.323
   60SOL    HW1  197   0.497   1.782   0.409
   60SOL    HW2  198   0.540   1.736   0.258
   61SOL     OW  199   1.400   0.107   0.426
   61SOL    HW1  200   1.376   0.070   0.336
   61SOL    HW2  201   1.499   0.123   0.430
   62SOL     OW  202   0.249   1.785   1.241
   62SOL    HW1  203   0.306   1.720   1.291
   62SOL    HW2  204   0.233   1.752   1.148
   63SOL     OW  205   0.940   1.698   0.904
   63SOL    HW1  206   1.020   1.641   0.925
   63SOL    HW2  207   0.891   1.658   0.827
   64SOL     OW  208   0.382   0.700   0.480
   64SOL    HW1  209   0.427   0.610   0.477
   64SOL    HW2  210   0.288   0.689   0.513
   65SOL     OW  211   1.547   0.222   1.729
   65SOL    HW1  212   1.542   0.259   1.821
   65SOL    HW2  213   1.475   0.153   1.717
   66SOL     OW  214   0.614   0.122   0.117
   66SOL    HW1  215   0.712   0.100   0.124
   66SOL    HW2  216   0.583   0.105   0.024
   67SOL     OW  217   0.781   0.264   1.749
   67SOL    HW1  218   0.848   0.203   1.792
   67SOL    HW2  219   0.708   0.283   1.814
   68SOL     OW  220   0.888   1.514   1.195
   68SOL    HW1  221   0.865   1.489   1.101
   68SOL    HW2  222   0.949   1.445   1.234
   69SOL     OW  223   1.351   0.590   1.433
   69SOL    HW1  224   1.379   0.547   1.518
   69SOL    HW2  225   1.376   0.686   1.434
   70SOL     OW  226   0.803   1.402   0.924
   70SOL    HW1  227   0.893   1.416   0.882
   70SOL    HW2  228   0.732   1.404   0.853
   71SOL     OW  229   0.922   0.503   0.899
   71SOL    HW1  230   0.897   0.494   0.803
   71SOL    HW2  231   0.970   0.421   0.930
   72SOL     OW  232   0.539   0.064   0.512
   72SOL    HW1  233   0.458   0.065   0.570
   72SOL    HW2  234   0.542   0.147   0.457
   73SOL     OW  235   1.434   1.188   0.041
   73SOL    HW1  236   1.466   1.112   0.098
   73SOL    HW2  237   1.342   1.215   0.071
   74SOL     OW  238   0.297   0.035   0.171
   74SOL    HW1  239   0.346   0.119   0.150
   74SOL    HW2  240   0.359  -0.030   0.216
   75SOL     OW  241   0.935   0.236   0.480
   75SOL    HW1  242   0.887   0.277   0.402
   75SOL    HW2  243   1.034   0.234   0.461
   76SOL     OW  244   1.076   0.683   1.464
   76SOL    HW1  245   0.996   0.622   1.467
   76SOL    HW2  246   1.157   0.630   1.440
   77SOL     OW  247   1.227   1.570   0.793
   77SOL    HW1  248   1.248   1.644   0.728
   77SOL    HW2  249   1.295   1.570   0.866
   78SOL     OW  250   0.459   1.152   0.741
   78SOL    HW1  251   0.388   1.125   0.806
   78SOL    HW2  252   0.433   1.124   0.648
   79SOL     OW  253   1.271   1.797   0.591
   79SOL    HW1  254   1.315   1.861   0.527
   79SOL    HW2  255   1.221   1.849   0.661
   80SOL     OW  256   1.032   0.549   0.016
   80SOL    HW1  257   0.991   0.631  -0.023
   80SOL    HW2  258   1.096   0.575   0.089
   81SOL     OW  259   0.078   0.556   1.386
   81SOL    HW1  260   0.170   0.555   1.345
   81SOL    HW2  261   0.072   0.630   1.453
   82SOL     OW  262   0.561   0.222   1.147
   82SOL    HW1  263   0.599   0.138   1.184
   82SOL    HW2  264   0.473   0.241   1.191
   83SOL     OW  265   0.866   0.454   0.642
   83SOL    HW1  266   0.834   0.526   0.580
   83SOL    HW2  267   0.890   0.373   0.589
   84SOL     OW  268   1.017   0.039   0.753
   84SOL    HW1  269   0.945   0.044   0.684
   84SOL    HW2  270   0.993  -0.030   0.822
   85SOL     OW  271   1.429   1.173   0.867
   85SOL    HW1  272   1.374   1.089   0.860
   85SOL    HW2  273   1.455   1.202   0.775
   86SOL     OW  274   1.466   0.590   0.992
   86SOL    HW1  275   1.436   0.495   0.999
   86SOL    HW2  276   1.539   0.606   1.058
   87SOL     OW  277   1.857   0.833   0.377
   87SOL    HW1  278   1.899   0.769   0.441
   87SOL    HW2  279   1.819   0.782   0.299
   88SOL     OW  280   0.488   1.385   0.174
   88SOL    HW1  281   0.401   1.370   0.221
   88SOL    HW2  282   0.471   1.411   0.079
   89SOL     OW  283   1.664   1.280   0.657
   89SOL    HW1  284   1.763   1.288   0.671
   89SOL    HW2  285   1.619   1.364   0.688
   90SOL     OW  286   1.390   0.575   0.078
   90SOL    HW1  287   1.336   0.554   0.159
   90SOL    HW2  288   1.481   0.534   0.087
   91SOL     OW  289   0.527   0.256   0.328
   91SOL    HW1  290   0.554   0.197   0.253
   91SOL    HW2  291   0.527   0.351   0.297
   92SOL     OW  292   1.754   1.223   1.588
   92SOL    HW1  293   1.845   1.184   1.575
   92SOL    HW2  294   1.762   1.319   1.612
   93SOL     OW  295   1.592   1.629   1.625
   93SOL    HW1  296   1.619   1.663   1.535
   93SOL    HW2  297   1.671   1.591   1.671
   94SOL     OW  298   0.915   0.089   1.402
   94SOL    HW1  299   0.940   0.069   1.307
   94SOL    HW2  300   0.987   0.145   1.444
   95SOL     OW  301   0.980   1.116   1.719
   95SOL    HW1  302   0.881   1.122   1.729
   95SOL    HW2  303   1.003   1.036   1.663
   96SOL     OW  304   0.705   1.050   0.368
   96SOL    HW1  305   0.691   1.057   0.467
   96SOL    HW2  306   0.789   0.999   0.350
   97SOL     OW  307   0.410   0.813   1.251
   97SOL    HW1  308   0.496   0.825   1.301
   97SOL    HW2  309   0.368   0.726   1.278
   98SOL     OW  310   1.274   0.386   1.262
   98SOL    HW1  311   1.295   0.460   1.326
   98SOL    HW2  312   1.185   0.403   1.219
   99SOL     OW  313   0.064   1.564   1.331
   99SOL    HW1  314   0.018   1.646   1.297
   99SOL    HW2  315   0.162   1.583   1.340
  100SOL     OW  316   0.367   1.100   0.501
  100SOL    HW1  317   0.360   1.183   0.445
  100SOL    HW2  318   0.371   1.020   0.441
  101SOL     OW  319   0.566   0.537   0.865
  101SOL    HW1  320   0.578   0.603   0.791
  101SOL    HW2  321   0.612   0.571   0.948
  102SOL     OW  322   1.252   1.348   0.388
  102SOL    HW1  323   1.302   1.425   0.428
  102SOL    HW2  324   1.157   1.350   0.420
  103SOL     OW  325   1.582   0.639   0.472
  103SOL    HW1  326   1.551   0.700   0.545
  103SOL    HW2  327   1.632   0.691   0.403
  104SOL     OW  328   0.354   1.510   1.329
  104SOL    HW1  329   0.333   1.466   1.242
  104SOL    HW2  330   0.451   1.536   1.332
  105SOL     OW  331   0.402   0.751   1.598
  105SOL    HW1  332   0.470   0.806   1.551
  105SOL    HW2  333   0.442   0.663   1.625
  106SOL     OW  334   1.587   0.779   1.670
  106SOL    HW1  335   1.495   0.817   1.665
  106SOL    HW2  336   1.647   0.826   1.605
  107SOL     OW  337   1.013   0.105   1.770
  107SOL    HW1  338   1.019   0.190   1.718
  107SOL    HW2  339   1.045   0.029   1.713
  108SOL     OW  340   0.504   0.050   1.740
  108SOL    HW1  341   0.462  -0.007   1.670
  108SOL    HW2  342   0.438   0.119   1.772
  109SOL     OW  343   0.573   0.870   1.029
  109SOL    HW1  344   0.617   0.959   1.020
  109SOL    HW2  345   0.510   0.870   1.106
  110SOL     OW  346   1.360   0.862   1.045
  110SOL    HW1  347   1.285   0.862   0.979
  110SOL    HW2  348   1.397   0.770   1.054
  111SOL     OW  349   1.209   0.525   0.275
  111SOL    HW1  350   1.222   0.441   0.329
  111SOL    HW2  351   1.180   0.599   0.335
  112SOL     OW  352   0.307   0.213   1.231
  112SOL    HW1  353   0.284   0.250   1.321
  112SOL    HW2  354   0.277   0.118   1.225
  113SOL     OW  355   0.037   1.310   1.282
  113SOL    HW1  356   0.090   1.261   1.350
  113SOL    HW2  357   0.059   1.408   1.287
  114SOL     OW  358   0.732   0.634   1.064
  114SOL    HW1  359   0.791   0.608   0.988
  114SOL    HW2  360   0.704   0.730   1.053
  115SOL     OW  361   1.728   0.935   1.854
  115SOL    HW1  362   1.682   0.928   1.765
  115SOL    HW2  363   1.666   0.979   1.920
  116SOL     OW  364   0.307   0.063   0.618
  116SOL    HW1  365   0.296   0.157   0.651
  116SOL    HW2  366   0.302   0.000   0.695
  117SOL     OW  367   1.622   0.367   0.374
  117SOL    HW1  368   1.624   0.291   0.438
  117SOL    HW2  369   1.574   0.444   0.414
  118SOL     OW  370   1.023   0.766   0.966
  118SOL    HW1  371   1.038   0.787   1.062
  118SOL    HW2  372   0.993   0.671   0.957
  119SOL     OW  373   0.980   1.573   1.700
  119SOL    HW1  374   0.960   1.617   1.612
  119SOL    HW2  375   1.019   1.482   1.684
  120SOL     OW  376   1.859   1.518   1.605
  120SOL    HW1  377   1.873   1.545   1.510
  120SOL    HW2  378   1.942   1.540   1.658
  121SOL     OW  379   0.350   0.898   1.804
  121SOL    HW1  380   0.426   0.942   1.852
  121SOL    HW2  381   0.385   0.851   1.722
  122SOL     OW  382   1.540   0.274   0.125
  122SOL    HW1  383   1.479   0.199   0.148
  122SOL    HW2  384   1.562   0.326   0.208
  123SOL     OW  385   1.303   0.838   0.042
  123SOL    HW1  386   1.337   0.745   0.057
  123SOL    HW2  387   1.321   0.865  -0.053
  124SOL     OW  388   1.068   1.333   0.849
  124SOL    HW1  389   1.075   1.249   0.794
  124SOL    HW2  390   1.130   1.402   0.813
  125SOL     OW  391   0.319   0.810   0.949
  125SOL    HW1  392   0.412   0.846   0.954
  125SOL    HW2  393   0.313   0.725   1.001
  126SOL     OW  394   0.339   0.509   1.006
  126SOL    HW1  395   0.287   0.426   0.989
  126SOL    HW2  396   0.416   0.514   0.942
  127SOL     OW  397   1.138   0.380   1.678
  127SOL    HW1  398   1.093   0.443   1.742
  127SOL    HW2  399   1.231   0.411   1.661
  128SOL     OW  400   1.160   0.207   1.477
  128SOL    HW1  401   1.160   0.271   1.554
  128SOL    HW2  402   1.188   0.255   1.394
  129SOL     OW  403   0.008   1.326   0.200
  129SOL    HW1  404  -0.085   1.347   0.169
  129SOL    HW2  405   0.018   1.227   0.213
  130SOL     OW  406   0.088   1.801   0.927
  130SOL    HW1  407   0.046   1.715   0.900
  130SOL    HW2  408   0.182   1.804   0.893
  131SOL     OW  409   0.504   1.568   0.910
  131SOL    HW1  410   0.570   1.642   0.919
  131SOL    HW2  411   0.548   1.489   0.868
  132SOL     OW  412   1.002   0.796   1.238
  132SOL    HW1  413   1.043   0.764   1.324
  132SOL    HW2  414   0.906   0.769   1.235
  133SOL     OW  415   0.040   0.544   1.114
  133SOL    HW1  416   0.125   0.511   1.073
  133SOL    HW2  417   0.053   0.559   1.212
  134SOL     OW  418   0.189   0.520   1.722
  134SOL    HW1  419   0.248   0.480   1.652
  134SOL    HW2  420   0.131   0.591   1.681
  135SOL     OW  421   1.369   0.950   1.660
  135SOL    HW1  422   1.408   1.039   1.680
  135SOL    HW2  423   1.379   0.930   1.563
  136SOL     OW  424   0.815   0.572   0.325
  136SOL    HW1  425   0.822   0.483   0.279
  136SOL    HW2  426   0.721   0.606   0.317
  137SOL     OW  427   1.657   0.604   1.206
  137SOL    HW1  428   1.619   0.535   1.268
  137SOL    HW2  429   1.739   0.568   1.162
  138SOL     OW  430   0.252   1.564   1.744
  138SOL    HW1  431   0.222   1.621   1.820
  138SOL    HW2  432   0.245   1.467   1.770
  139SOL     OW  433   0.671   0.464   1.269
  139SOL    HW1  434   0.637   0.375   1.239
  139SOL    HW2  435   0.697   0.518   1.189
  140SOL     OW  436   0.930   1.678   1.465
  140SOL    HW1  437   0.906   1.660   1.370
  140SOL    HW2  438   0.960   1.772   1.475
  141SOL     OW  439   0.473   0.500   0.191
  141SOL    HW1  440   0.534   0.580   0.195
  141SOL    HW2  441   0.378   0.531   0.198
  142SOL     OW  442   0.159   1.137   1.466
  142SOL    HW1  443   0.181   1.076   1.542
  142SOL    HW2  444   0.169   1.088   1.380
  143SOL     OW  445   1.302   0.855   0.309
  143SOL    HW1  446   1.216   0.824   0.351
  143SOL    HW2  447   1.298   0.841   0.210
  144SOL     OW  448   1.759   1.747   1.154
  144SOL    HW1  449   1.820   1.777   1.081
  144SOL    HW2  450   1.721   1.658   1.132
  145SOL     OW  451   1.252   1.731   1.128
  145SOL    HW1  452   1.336   1.736   1.074
  145SOL    HW2  453   1.229   1.635   1.146
  146SOL     OW  454   0.083   1.258   1.022
  146SOL    HW1  455   0.078   1.257   1.122
  146SOL    HW2  456   0.000   1.217   0.984
  147SOL     OW  457   0.688   1.662   1.716
  147SOL    HW1  458   0.632   1.743   1.725
  147SOL    HW2  459   0.740   1.666   1.630
  148SOL     OW  460   0.903   0.086   0.133
  148SOL    HW1  461   0.954   0.087   0.047
  148SOL    HW2  462   0.959   0.044   0.204
  149SOL     OW  463   1.726   0.135   0.523
  149SOL    HW1  464   1.799   0.118   0.456
  149SOL    HW2  465   1.695   0.048   0.561
  150SOL     OW  466   1.388   1.573   0.477
  150SOL    HW1  467   1.455   1.585   0.403
  150SOL    HW2  468   1.348   1.662   0.500
  151SOL     OW  469   0.130   1.794   1.851
  151SOL    HW1  470   0.089   1.720   1.904
  151SOL    HW2  471   0.194   1.845   1.909
  152SOL     OW  472   1.280   0.927   0.672
  152SOL    HW1  473   1.340   0.846   0.674
  152SOL    HW2  474   1.320   0.996   0.612
  153SOL     OW  475   0.830   1.273   1.422
  153SOL    HW1  476   0.825   1.306   1.517
  153SOL    HW2  477   0.744   1.292   1.376
  154SOL     OW  478   0.672   1.616   0.154
  154SOL    HW1  479   0.681   1.626   0.055
  154SOL    HW2  480   0.632   1.527   0.175
  155SOL     OW  481   1.650   1.720   1.394
  155SOL    HW1  482   1.703   1.730   1.310
  155SOL    HW2  483   1.623   1.810   1.428
  156SOL     OW  484   1.841   0.175   0.963
  156SOL    HW1  485   1.880   0.090   0.927
  156SOL    HW2  486   1.743   0.177   0.944
  157SOL     OW  487   0.263   0.326   0.720
  157SOL    HW1  488   0.184   0.377   0.686
  157SOL    HW2  489   0.254   0.311   0.818
  158SOL     OW  490   1.194   1.612   0.031
  158SOL    HW1  491   1.200   1.519   0.068
  158SOL    HW2  492   1.135   1.612  -0.049
  159SOL     OW  493   0.822   1.002   1.372
  159SOL    HW1  494   0.862   1.001   1.280
  159SOL    HW2  495   0.832   1.094   1.412
  160SOL     OW  496   0.916   0.910   0.291
  160SOL    HW1  497   0.979   0.948   0.223
  160SOL    HW2  498   0.956   0.827   0.330
  161SOL     OW  499   1.504   1.607   0.044
  161SOL    HW1  500   1.412   1.644   0.051
  161SOL    HW2  501   1.542   1.627  -0.046
  162SOL     OW  502   0.372   1.288   1.490
  162SOL    HW1  503   0.359   1.381   1.456
  162SOL    HW2  504   0.288   1.236   1.477
  163SOL     OW  505   1.039   1.098   0.696
  163SOL    HW1  506   0.969   1.051   0.750
  163SOL    HW2  507   1.098   1.030   0.653
  164SOL     OW  508   1.014   0.236   0.971
  164SOL    HW1  509   1.006   0.200   0.878
  164SOL    HW2  510   1.012   0.160   1.036
  165SOL     OW  511   0.590   1.487   0.491
  165SOL    HW1  512   0.632   1.429   0.421
  165SOL    HW2  513   0.546   1.566   0.447
  166SOL     OW  514   1.709   0.385   1.381
  166SOL    HW1  515   1.782   0.454   1.385
  166SOL    HW2  516   1.737   0.310   1.322
  167SOL     OW  517   0.255   1.348   0.290
  167SOL    HW1  518   0.159   1.349   0.263
  167SOL    HW2  519   0.267   1.401   0.374
  168SOL     OW  520   0.105   1.013   1.726
  168SOL    HW1  521   0.028   0.980   1.780
  168SOL    HW2  522   0.190   0.983   1.768
  169SOL     OW  523   0.672   0.203   1.489
  169SOL    HW1  524   0.762   0.187   1.449
  169SOL    HW2  525   0.680   0.208   1.588
  170SOL     OW  526   0.075   0.345   0.033
  170SOL    HW1  527  -0.017   0.317   0.004
  170SOL    HW2  528   0.106   0.422  -0.023
  171SOL     OW  529   1.440   0.856   1.398
  171SOL    HW1  530   1.383   0.908   1.335
  171SOL    HW2  531   1.536   0.868   1.374
  172SOL     OW  532   0.072   0.166   0.318
  172SOL    HW1  533   0.055   0.249   0.264
  172SOL    HW2  534   0.162   0.129   0.296
  173SOL     OW  535   1.183   1.335   0.119
  173SOL    HW1  536   1.084   1.324   0.121
  173SOL    HW2  537   1.217   1.350   0.212
  174SOL     OW  538   0.613   0.842   1.431
  174SOL    HW1  539   0.669   0.923   1.414
  174SOL    HW2  540   0.672   0.762   1.434
  175SOL     OW  541   1.493   1.767   0.959
  175SOL    HW1  542   1.526   1.831   0.890
  175SOL    HW2  543   1.559   1.761   1.034
  176SOL     OW  544   0.716   0.565   1.708
  176SOL    HW1  545   0.735   0.630   1.782
  176SOL    HW2  546   0.776   0.485   1.717
  177SOL     OW  547   1.450   1.220   1.633
  177SOL    HW1  548   1.441   1.210   1.732
  177SOL    HW2  549   1.546   1.213   1.607
  178SOL     OW  550   0.390   1.741   1.560
  178SOL    HW1  551   0.299   1.782   1.558
  178SOL    HW2  552   0.383   1.647   1.592
  179SOL     OW  553   1.674   0.883   1.254
  179SOL    HW1  554   1.647   0.794   1.217
  179SOL    HW2  555   1.675   0.951   1.181
  180SOL     OW  556   1.225   0.325   0.449
  180SOL    HW1  557   1.290   0.251   0.438
  180SOL    HW2  558   1.245   0.375   0.533
  181SOL     OW  559   0.594   0.745   0.652
  181SOL    HW1  560   0.644   0.830   0.633
  181SOL    HW2  561   0.506   0.747   0.604
  182SOL     OW  562   1.777   0.342   1.642
  182SOL    HW1  563   1.760   0.373   1.548
  182SOL    HW2  564   1.693   0.305   1.680
  183SOL     OW  565   1.730   0.934   1.517
  183SOL    HW1  566   1.768   1.025   1.532
  183SOL    HW2  567   1.722   0.917   1.418
  184SOL     OW  568   0.859   1.374   0.016
  184SOL    HW1  569   0.813   1.389   0.104
  184SOL    HW2  570   0.903   1.459  -0.014
  185SOL     OW  571   0.661   1.790   0.953
  185SOL    HW1  572   0.615   1.878   0.940
  185SOL    HW2  573   0.760   1.802   0.946
  186SOL     OW  574   0.859   0.956   0.861
  186SOL    HW1  575   0.913   0.887   0.909
  186SOL    HW2  576   0.827   1.025   0.927
  187SOL     OW  577   1.083   0.984   0.087
  187SOL    HW1  578   1.060   1.037   0.005
  187SOL    HW2  579   1.164   0.928   0.068
  188SOL     OW  580   1.861   1.569   0.851
  188SOL    HW1  581   1.790   1.557   0.781
  188SOL    HW2  582   1.862   1.490   0.911
  189SOL     OW  583   0.221   1.314   1.844
  189SOL    HW1  584   0.156   1.241   1.823
  189SOL    HW2  585   0.225   1.328   1.942
  190SOL     OW  586   0.079   1.240   0.653
  190SOL    HW1  587   0.078   1.193   0.741
  190SOL    HW2  588   0.161   1.212   0.602
  191SOL     OW  589   0.672   1.391   1.624
  191SOL    HW1  590   0.594   1.341   1.662
  191SOL    HW2  591   0.669   1.486   1.655
  192SOL     OW  592   1.824   0.192   1.227
  192SOL    HW1  593   1.820   0.102   1.271
  192SOL    HW2  594   1.827   0.181   1.128
  193SOL     OW  595   0.428   0.424   0.520
  193SOL    HW1  596   0.458   0.352   0.458
  193SOL    HW2  597   0.389   0.384   0.603
  194SOL     OW  598   1.705   1.487   1.104
  194SOL    HW1  599   1.612   1.462   1.077
  194SOL    HW2  600   1.731   1.437   1.186
  195SOL     OW  601   0.317   0.547   1.280
  195SOL    HW1  602   0.355   0.488   1.352
  195SOL    HW2  603   0.357   0.521   1.192
  196SOL     OW  604   0.812   1.586   0.687
  196SOL    HW1  605   0.844   1.596   0.593
  196SOL    HW2  606   0.733   1.524   0.689
  197SOL     OW  607   1.424   0.214   1.112
  197SOL    HW1  608   1.476   0.149   1.167
  197SOL    HW2  609   1.375   0.277   1.173
  198SOL     OW  610   1.001   0.034   1.154
  198SOL    HW1  611   0.938  -0.038   1.123
  198SOL    HW2  612   1.094  -0.002   1.154
  199SOL     OW  613   0.770   1.330   0.301
  199SOL    HW1  614   0.724   1.243   0.318
  199SOL    HW2  615   0.861   1.327   0.342
  200SOL     OW  616   0.618   1.567   1.284
  200SOL    HW1  617   0.613   1.649   1.341
  200SOL    HW2  618   0.707   1.564   1.239
  201SOL     OW  619   1.352   0.052   0.168
  201SOL    HW1  620   1.387   0.011   0.084
  201SOL    HW2  621   1.262   0.014   0.188
  202SOL     OW  622   1.300   0.453   0.691
  202SOL    HW1  623   1.241   0.533   0.695
  202SOL    HW2  624   1.315   0.418   0.784
  203SOL     OW  625   1.593   0.221   0.882
  203SOL    HW1  626   1.509   0.220   0.936
  203SOL    HW2  627   1.595   0.304   0.826
  204SOL     OW  628   0.039   1.077   0.300
  204SOL    HW1  629   0.138   1.066   0.291
  204SOL    HW2  630  -0.001   0.991   0.332
  205SOL     OW  631   0.875   1.646   0.337
  205SOL    HW1  632   0.798   1.611   0.283
  205SOL    HW2  633   0.843   1.717   0.399
  206SOL     OW  634   0.230   0.628   1.975
  206SOL    HW1  635   0.137   0.626   2.012
  206SOL    HW2  636   0.231   0.589   1.883
  207SOL     OW  637   0.019   0.368   2.509
  207SOL    HW1  638  -0.063   0.411   2.548
  207SOL    HW2  639  -0.009   0.295   2.446
  208SOL     OW  640   1.755   0.607   2.093
  208SOL    HW1  641   1.743   0.594   1.994
  208SOL    HW2  642   1.725   0.526   2.142
  209SOL     OW  643   0.685   1.012   2.527
  209SOL    HW1  644   0.754   0.996   2.597
  209SOL    HW2  645   0.612   1.069   2.565
  210SOL     OW  646   1.603   0.447   2.599
  210SOL    HW1  647   1.529   0.493   2.549
  210SOL    HW2  648   1.654   0.515   2.652
  211SOL     OW  649   0.231   1.713   2.345
  211SOL    HW1  650   0.265   1.790   2.399
  211SOL    HW2  651   0.275   1.713   2.255
  212SOL     OW  652   0.230   1.434   2.400
  212SOL    HW1  653   0.204   1.530   2.400
  212SOL    HW2  654   0.159   1.380   2.445
  213SOL     OW  655   0.240   1.091   2.748
  213SOL    HW1  656   0.254   1.007   2.800
  213SOL    HW2  657   0.185   1.155   2.803
  214SOL     OW  658   0.606   0.964   1.985
  214SOL    HW1  659   0.613   1.048   1.931
  214SOL    HW2  660   0.652   0.977   2.073
  215SOL     OW  661   0.122   0.643   2.425
  215SOL    HW1  662   0.077   0.555   2.442
  215SOL    HW2  663   0.121   0.697   2.509
  216SOL     OW  664   1.842   1.767   2.221
  216SOL    HW1  665   1.896   1.738   2.301
  216SOL    HW2  666   1.872   1.857   2.192
  217SOL     OW  667   0.027   1.596   1.979
  217SOL    HW1  668   0.008   1.500   2.000
  217SOL    HW2  669  -0.006   1.654   2.054
  218SOL     OW  670   1.689   0.922   2.474
  218SOL    HW1  671   1.784   0.893   2.482
  218SOL    HW2  672   1.681   0.987   2.399
  219SOL     OW  673   1.641   1.108   2.294
  219SOL    HW1  674   1.727   1.110   2.242
  219SOL    HW2  675   1.655   1.155   2.382
  220SOL     OW  676   0.613   1.365   2.588
  220SOL    HW1  677   0.564   1.278   2.597
  220SOL    HW2  678   0.590   1.408   2.501
  221SOL     OW  679   0.809   0.004   2.364
  221SOL    HW1  680   0.849   0.095   2.355
  221SOL    HW2  681   0.709   0.012   2.370
  222SOL     OW  682   1.525   0.999   2.052
  222SOL    HW1  683   1.462   0.923   2.065
  222SOL    HW2  684   1.573   1.017   2.138
  223SOL     OW  685   1.667   1.714   2.434
  223SOL    HW1  686   1.626   1.691   2.346
  223SOL    HW2  687   1.649   1.640   2.499
  224SOL     OW  688   0.598   0.729   2.132
  224SOL    HW1  689   0.622   0.798   2.064
  224SOL    HW2  690   0.520   0.762   2.186
  225SOL     OW  691   1.281   0.345   2.806
  225SOL    HW1  692   1.195   0.295   2.793
  225SOL    HW2  693   1.343   0.291   2.862
  226SOL     OW  694   1.576   1.662   2.169
  226SOL    HW1  695   1.665   1.708   2.172
  226SOL    HW2  696   1.555   1.638   2.074
  227SOL     OW  697   1.041   0.701   2.291
  227SOL    HW1  698   1.067   0.697   2.387
  227SOL    HW2  699   0.956   0.650   2.277
  228SOL     OW  700   0.076   0.811   2.651
  228SOL    HW1  701   0.175   0.799   2.660
  228SOL    HW2  702   0.052   0.906   2.672
  229SOL     OW  703   0.865   0.348   2.057
  229SOL    HW1  704   0.924   0.411   2.008
  229SOL    HW2  705   0.884   0.254   2.028
  230SOL     OW  706   1.362   1.144   2.407
  230SOL    HW1  707   1.445   1.115   2.359
  230SOL    HW2  708   1.313   1.211   2.351
  231SOL     OW  709   1.008   1.456   2.339
  231SOL    HW1  710   0.962   1.528   2.287
  231SOL    HW2  711   1.004   1.476   2.437
  232SOL     OW  712   0.351   1.801   2.715
  232SOL    HW1  713   0.401   1.715   2.721
  232SOL    HW2  714   0.416   1.878   2.712
  233SOL     OW  715   1.795   1.066   2.735
  233SOL    HW1  716   1.733   1.051   2.659
  233SOL    HW2  717   1.743   1.077   2.820
  234SOL     OW  718   0.321   0.943   2.104
  234SOL    HW1  719   0.403   0.982   2.062
  234SOL    HW2  720   0.294   0.861   2.055
  235SOL     OW  721   1.111   1.776   2.099
  235SOL    HW1  722   1.051   1.714   2.149
  235SOL    HW2  723   1.142   1.732   2.014
  236SOL     OW  724   1.632   1.377   1.943
  236SOL    HW1  725   1.600   1.471   1.933
  236SOL    HW2  726   1.556   1.314   1.931
  237SOL     OW  727   0.464   1.743   2.185
  237SOL    HW1  728   0.497   1.782   2.271
  237SOL    HW2  729   0.540   1.736   2.120
  238SOL     OW  730   1.400   0.107   2.288
  238SOL    HW1  731   1.376   0.070   2.198
  238SOL    HW2  732   1.499   0.123   2.292
  239SOL     OW  733   0.940   1.698   2.766
  239SOL    HW1  734   1.020   1.641   2.787
  239SOL    HW2  735   0.891   1.658   2.689
  240SOL     OW  736   0.382   0.700   2.342
  240SOL    HW1  737   0.427   0.610   2.339
  240SOL    HW2  738   0.288   0.689   2.375
  241SOL     OW  739   0.614   0.122   1.979
  241SOL    HW1  740   0.712   0.100   1.986
  241SOL    HW2  741   0.583   0.105   1.886
  242SOL     OW  742   0.539   0.064   2.374
  242SOL    HW1  743   0.458   0.065   2.432
  242SOL    HW2  744   0.542   0.147   2.319
  243SOL     OW  745   1.434   1.188   1.903
  243SOL    HW1  746   1.466   1.112   1.960
  243SOL    HW2  747   1.342   1.215   1.933
  244SOL     OW  748   0.297   0.035   2.033
  244SOL    HW1  749   0.346   0.119   2.012
  244SOL    HW2  750   0.359  -0.030   2.078
  245SOL     OW  751   0.935   0.236   2.342
  245SOL    HW1  752   0.887   0.277   2.264
  245SOL    HW2  753   1.034   0.234   2.323
  246SOL     OW  754   0.459   1.152   2.603
  246SOL    HW1  755   0.388   1.125   2.668
  246SOL    HW2  756   0.433   1.124   2.510
  247SOL     OW  757   1.271   1.797   2.453
  247SOL    HW1  758   1.315   1.861   2.389
  247SOL    HW2  759   1.221   1.849   2.523
  248SOL     OW  760   1.032   0.549   1.878
  248SOL    HW1  761   0.991   0.631   1.839
  248SOL    HW2  762   1.096   0.575   1.951
  249SOL     OW  763   0.866   0.454   2.504
  249SOL    HW1  764   0.834   0.526   2.442
  249SOL    HW2  765   0.890   0.373   2.451
  250SOL     OW  766   1.857   0.833   2.239
  250SOL    HW1  767   1.899   0.769   2.303
  250SOL    HW2  768   1.819   0.782   2.161
  251SOL     OW  769   0.488   1.385   2.036
  251SOL    HW1  770   0.401   1.370   2.083
  251SOL    HW2  771   0.471   1.411   1.941
  252SOL     OW  772   1.664   1.280   2.519
  252SOL    HW1  773   1.763   1.288   2.533
  252SOL    HW2  774   1.619   1.364   2.550
  253SOL     OW  775   1.390   0.575   1.940
  253SOL    HW1  776   1.336   0.554   2.021
  253SOL    HW2  777   1.481   0.534   1.949
  254SOL     OW  778   0.527   0.256   2.190
  254SOL    HW1  779   0.554   0.197   2.115
  254SOL    HW2  780   0.527   0.351   2.159
  255SOL     OW  781   0.705   1.050   2.230
  255SOL    HW1  782   0.691   1.057   2.329
  255SOL    HW2  783   0.789   0.999   2.212
  256SOL     OW  784   0.367   1.100   2.363
  256SOL    HW1  785   0.360   1.183   2.307
  256SOL    HW2  786   0.371   1.020   2.303
  257SOL     OW  787   1.252   1.348   2.250
  257SOL    HW1  788   1.302   1.425   2.290
  257SOL    HW2  789   1.157   1.350   2.282
  258SOL     OW  790   1.582   0.639   2.334
  258SOL    HW1  791   1.551   0.700   2.407
  258SOL    HW2  792   1.632   0.691   2.265
  259SOL     OW  793   1.209   0.525   2.137
  259SOL    HW1  794   1.222   0.441   2.191
  259SOL    HW2  795   1.180   0.599   2.197
  260SOL     OW  796   0.307   0.063   2.480
  260SOL    HW1  797   0.296   0.157   2.513
  260SOL    HW2  798   0.302   0.000   2.557
  261SOL     OW  799   1.622   0.367   2.236
  261SOL    HW1  800   1.624   0.291   2.300
  261SOL    HW2  801   1.574   0.444   2.276
  262SOL     OW  802   1.540   0.274   1.987
  262SOL    HW1  803   1.479   0.199   2.010
  262SOL    HW2  804   1.562   0.326   2.070
  263SOL     OW  805   1.303   0.838   1.904
  263SOL    HW1  806   1.337   0.745   1.919
  263SOL    HW2  807   1.321   0.865   1.809
  264SOL     OW  808   0.008   1.326   2.062
  264SOL    HW1  809  -0.085   1.347   2.031
  264SOL    HW2  810   0.018   1.227   2.075
  265SOL     OW  811   0.040   0.544   2.976
  265SOL    HW1  812   0.125   0.511   2.935
  265SOL    HW2  813   0.053   0.559   3.074
  266SOL     OW  814   0.815   0.572   2.187
  266SOL    HW1  815   0.822   0.483   2.141
  266SOL    HW2  816   0.721   0.606   2.179
  267SOL     OW  817   0.473   0.500   2.053
  267SOL    HW1  818   0.534   0.580   2.057
  267SOL    HW2  819   0.378   0.531   2.060
  268SOL     OW  820   1.302   0.855   2.171
  268SOL    HW1  821   1.216   0.824   2.213
  268SOL    HW2  822   1.298   0.841   2.072
  269SOL     OW  823   1.726   0.135   2.385
  269SOL    HW1  824   1.799   0.118   2.318
  269SOL    HW2  825   1.695   0.048   2.423
  270SOL     OW  826   1.388   1.573   2.339
  270SOL    HW1  827   1.455   1.585   2.265
  270SOL    HW2  828   1.348   1.662   2.362
  271SOL     OW  829   0.672   1.616   2.016
  271SOL    HW1  830   0.681   1.626   1.917
  271SOL    HW2  831   0.632   1.527   2.037
  272SOL     OW  832   1.841   0.175   2.825
  272SOL    HW1  833   1.880   0.090   2.789
  272SOL    HW2  834   1.743   0.177   2.806
  273SOL     OW  835   0.263   0.326   2.582
  273SOL    HW1  836   0.184   0.377   2.548
  273SOL    HW2  837   0.254   0.311   2.680
  274SOL     OW  838   1.194   1.612   1.893
  274SOL    HW1  839   1.200   1.519   1.930
  274SOL    HW2  840   1.135   1.612   1.813
  275SOL     OW  841   0.916   0.910   2.153
  275SOL    HW1  842   0.979   0.948   2.085
  275SOL    HW2  843   0.956   0.827   2.192
  276SOL     OW  844   1.504   1.607   1.906
  276SOL    HW1  845   1.412   1.644   1.913
  276SOL    HW2  846   1.542   1.627   1.816
  277SOL     OW  847   0.590   1.487   2.353
  277SOL    HW1  848   0.632   1.429   2.283
  277SOL    HW2  849   0.546   1.566   2.309
  278SOL     OW  850   0.255   1.348   2.152
  278SOL    HW1  851   0.159   1.349   2.125
  278SOL    HW2  852   0.267   1.401   2.236
  279SOL     OW  853   0.075   0.345   1.895
  279SOL    HW1  854  -0.017   0.317   1.866
  279SOL    HW2  855   0.106   0.422   1.839
  280SOL     OW  856   0.072   0.166   2.180
  280SOL    HW1  857   0.055   0.249   2.126
  280SOL    HW2  858   0.162   0.129   2.158
  281SOL     OW  859   1.183   1.335   1.981
  281SOL    HW1  860   1.084   1.324   1.983
  281SOL    HW2  861   1.217   1.350   2.074
  282SOL     OW  862   1.225   0.325   2.311
  282SOL    HW1  863   1.290   0.251   2.300
  282SOL    HW2  864   1.245   0.375   2.395
  283SOL     OW  865   0.594   0.745   2.514
  283SOL    HW1  866   0.644   0.830   2.495
  283SOL    HW2  867   0.506   0.747   2.466
  284SOL     OW  868   0.859   1.374   1.878
  284SOL    HW1  869   0.813   1.389   1.966
  284SOL    HW2  870   0.903   1.459   1.848
  285SOL     OW  871   0.661   1.790   2.815
  285SOL    HW1  872   0.615   1.878   2.802
  285SOL    HW2  873   0.760   1.802   2.808
  286SOL     OW  874   0.859   0.956   2.723
  286SOL    HW1  875   0.913   0.887   2.771
  286SOL    HW2  876   0.827   1.025   2.789
  287SOL     OW  877   1.083   0.984   1.949
  287SOL    HW1  878   1.060   1.037   1.867
  287SOL    HW2  879   1.164   0.928   1.930
  288SOL     OW  880   0.079   1.240   2.515
  288SOL    HW1  881   0.078   1.193   2.603
  288SOL    HW2  882   0.161   1.212   2.464
  289SOL     OW  883   0.428   0.424   2.382
  289SOL    HW1  884   0.458   0.352   2.320
  289SOL    HW2  885   0.389   0.384   2.465
  290SOL     OW  886   1.705   1.487   2.966
  290SOL    HW1  887   1.612   1.462   2.939
  290SOL    HW2  888   1.731   1.437   3.048
  291SOL     OW  889   0.812   1.586   2.549
  291SOL    HW1  890   0.844   1.596   2.455
  291SOL    HW2  891   0.733   1.524   2.551
  292SOL     OW  892   0.770   1.330   2.163
  292SOL    HW1  893   0.724   1.243   2.180
  292SOL    HW2  894   0.861   1.327   2.204
  293SOL     OW  895   1.352   0.052   2.030
  293SOL    HW1  896   1.387   0.011   1.946
  293SOL    HW2  897   1.262   0.014   2.050
  294SOL     OW  898   1.300   0.453   2.553
  294SOL    HW1  899   1.241   0.533   2.557
  294SOL    HW2  900   1.315   0.418   2.646
  295SOL     OW  901   0.039   1.077   2.162
  295SOL    HW1  902   0.138   1.066   2.153
  295SOL    HW2  903  -0.001   0.991   2.194
  296SOL     OW  904   0.875   1.646   2.199
  296SOL    HW1  905   0.798   1.611   2.145
  296SOL    HW2  906   0.843   1.717   2.261
  297SOL     OW  907   0.230   2.490   0.113
  297SOL    HW1  908   0.137   2.488   0.150
  297SOL    HW2  909   0.231   2.451   0.021
  298SOL     OW  910   0.225   2.137   0.996
  298SOL    HW1  911   0.260   2.120   1.088
  298SOL    HW2  912   0.137   2.092   0.984
  299SOL     OW  913   0.019   2.230   0.647
  299SOL    HW1  914  -0.063   2.273   0.686
  299SOL    HW2  915  -0.009   2.157   0.584
  300SOL     OW  916   1.755   2.469   0.231
  300SOL    HW1  917   1.743   2.456   0.132
  300SOL    HW2  918   1.725   2.388   0.280
  301SOL     OW  919   0.850   2.660   1.823
  301SOL    HW1  920   0.846   2.736   1.888
  301SOL    HW2  921   0.872   2.696   1.732
  302SOL     OW  922   0.685   2.874   0.665
  302SOL    HW1  923   0.754   2.858   0.735
  302SOL    HW2  924   0.612   2.931   0.703
  303SOL     OW  925   0.438   2.254   1.499
  303SOL    HW1  926   0.520   2.198   1.508
  303SOL    HW2  927   0.357   2.196   1.503
  304SOL     OW  928   1.603   2.309   0.737
  304SOL    HW1  929   1.529   2.355   0.687
  304SOL    HW2  930   1.654   2.377   0.790
  305SOL     OW  931   1.594   1.976   1.480
  305SOL    HW1  932   1.576   2.043   1.408
  305SOL    HW2  933   1.591   2.022   1.569
  306SOL     OW  934   0.122   2.505   0.563
  306SOL    HW1  935   0.077   2.417   0.580
  306SOL    HW2  936   0.121   2.559   0.647
  307SOL     OW  937   0.113   2.599   1.597
  307SOL    HW1  938   0.201   2.586   1.642
  307SOL    HW2  939   0.100   2.696   1.575
  308SOL     OW  940   0.809   1.866   0.502
  308SOL    HW1  941   0.849   1.957   0.493
  308SOL    HW2  942   0.709   1.874   0.508
  309SOL     OW  943   0.317   2.113   1.801
  309SOL    HW1  944   0.388   2.184   1.807
  309SOL    HW2  945   0.229   2.152   1.829
  310SOL     OW  946   0.598   2.591   0.270
  310SOL    HW1  947   0.622   2.660   0.202
  310SOL    HW2  948   0.520   2.624   0.324
  311SOL     OW  949   1.281   2.207   0.944
  311SOL    HW1  950   1.195   2.157   0.931
  311SOL    HW2  951   1.343   2.153   1.000
  312SOL     OW  952   0.807   2.467   1.465
  312SOL    HW1  953   0.760   2.464   1.554
  312SOL    HW2  954   0.756   2.412   1.399
  313SOL     OW  955   1.394   2.331   1.674
  313SOL    HW1  956   1.374   2.374   1.762
  313SOL    HW2  957   1.472   2.269   1.683
  314SOL     OW  958   0.991   2.272   1.242
  314SOL    HW1  959   0.914   2.306   1.296
  314SOL    HW2  960   0.957   2.221   1.163
  315SOL     OW  961   1.041   2.563   0.429
  315SOL    HW1  962   1.067   2.559   0.525
  315SOL    HW2  963   0.956   2.512   0.415
  316SOL     OW  964   0.076   2.673   0.789
  316SOL    HW1  965   0.175   2.661   0.798
  316SOL    HW2  966   0.052   2.768   0.810
  317SOL     OW  967   0.865   2.210   0.195
  317SOL    HW1  968   0.924   2.273   0.146
  317SOL    HW2  969   0.884   2.116   0.166
  318SOL     OW  970   1.719   2.447   1.831
  318SOL    HW1  971   1.693   2.536   1.795
  318SOL    HW2  972   1.717   2.379   1.758
  319SOL     OW  973   0.550   2.058   0.885
  319SOL    HW1  974   0.545   2.053   0.985
  319SOL    HW2  975   0.552   2.154   0.856
  320SOL     OW  976   1.458   2.597   0.728
  320SOL    HW1  977   1.453   2.532   0.803
  320SOL    HW2  978   1.538   2.656   0.741
  321SOL     OW  979   0.202   2.147   1.498
  321SOL    HW1  980   0.122   2.207   1.485
  321SOL    HW2  981   0.192   2.098   1.584
  322SOL     OW  982   1.400   1.969   0.426
  322SOL    HW1  983   1.376   1.932   0.336
  322SOL    HW2  984   1.499   1.985   0.430
  323SOL     OW  985   0.382   2.562   0.480
  323SOL    HW1  986   0.427   2.472   0.477
  323SOL    HW2  987   0.288   2.551   0.513
  324SOL     OW  988   1.547   2.084   1.729
  324SOL    HW1  989   1.542   2.121   1.821
  324SOL    HW2  990   1.475   2.015   1.717
  325SOL     OW  991   0.781   2.126   1.749
  325SOL    HW1  992   0.848   2.065   1.792
  325SOL    HW2  993   0.708   2.145   1.814
  326SOL     OW  994   1.351   2.452   1.433
  326SOL    HW1  995   1.379   2.409   1.518
  326SOL    HW2  996   1.376   2.548   1.434
  327SOL     OW  997   0.922   2.365   0.899
  327SOL    HW1  998   0.897   2.356   0.803
  327SOL    HW2  999   0.970   2.283   0.930
  328SOL     OW 1000   0.539   1.926   0.512
  328SOL    HW1 1001   0.458   1.927   0.570
  328SOL    HW2 1002   0.542   2.009   0.457
  329SOL     OW 1003   0.297   1.897   0.171
  329SOL    HW1 1004   0.346   1.981   0.150
  329SOL    HW2 1005   0.359   1.832   0.216
  330SOL     OW 1006   0.935   2.098   0.480
  330SOL    HW1 1007   0.887   2.139   0.402
  330SOL    HW2 1008   1.034   2.096   0.461
  331SOL     OW 1009   1.076   2.545   1.464
  331SOL    HW1 1010   0.996   2.484   1.467
  331SOL    HW2 1011   1.157   2.492   1.440
  332SOL     OW 1012   1.032   2.411   0.016
  332SOL    HW1 1013   0.991   2.493  -0.023
  332SOL    HW2 1014   1.096   2.437   0.089
  333SOL     OW 1015   0.078   2.418   1.386
  333SOL    HW1 1016   0.170   2.417   1.345
  333SOL    HW2 1017   0.072   2.492   1.453
  334SOL     OW 1018   0.561   2.084   1.147
  334SOL    HW1 1019   0.599   2.000   1.184
  334SOL    HW2 1020   0.473   2.103   1.191
  335SOL     OW 1021   0.866   2.316   0.642
  335SOL    HW1 1022   0.834   2.388   0.580
  335SOL    HW2 1023   0.890   2.235   0.589
  336SOL     OW 1024   1.017   1.901   0.753
  336SOL    HW1 1025   0.945   1.906   0.684
  336SOL    HW2 1026   0.993   1.832   0.822
  337SOL     OW 1027   1.466   2.452   0.992
  337SOL    HW1 1028   1.436   2.357   0.999
  337SOL    HW2 1029   1.539   2.468   1.058
  338SOL     OW 1030   1.390   2.437   0.078
  338SOL    HW1 1031   1.336   2.416   0.159
  338SOL    HW2 1032   1.481   2.396   0.087
  339SOL     OW 1033   0.527   2.118   0.328
  339SOL    HW1 1034   0.554   2.059   0.253
  339SOL    HW2 1035   0.527   2.213   0.297
  340SOL     OW 1036   0.915   1.951   1.402
  340SOL    HW1 1037   0.940   1.931   1.307
  340SOL    HW2 1038   0.987   2.007   1.444
  341SOL     OW 1039   0.705   2.912   0.368
  341SOL    HW1 1040   0.691   2.919   0.467
  341SOL    HW2 1041   0.789   2.861   0.350
  342SOL     OW 1042   0.410   2.675   1.251
  342SOL    HW1 1043   0.496   2.687   1.301
  342SOL    HW2 1044   0.368   2.588   1.278
  343SOL     OW 1045   1.274   2.248   1.262
  343SOL    HW1 1046   1.295   2.322   1.326
  343SOL    HW2 1047   1.185   2.265   1.219
  344SOL     OW 1048   0.566   2.399   0.865
  344SOL    HW1 1049   0.578   2.465   0.791
  344SOL    HW2 1050   0.612   2.433   0.948
  345SOL     OW 1051   1.582   2.501   0.472
  345SOL    HW1 1052   1.551   2.562   0.545
  345SOL    HW2 1053   1.632   2.553   0.403
  346SOL     OW 1054   1.587   2.641   1.670
  346SOL    HW1 1055   1.495   2.679   1.665
  346SOL    HW2 1056   1.647   2.688   1.605
  347SOL     OW 1057   1.013   1.967   1.770
  347SOL    HW1 1058   1.019   2.052   1.718
  347SOL    HW2 1059   1.045   1.891   1.713
  348SOL     OW 1060   0.504   1.912   1.740
  348SOL    HW1 1061   0.462   1.855   1.670
  348SOL    HW2 1062   0.438   1.981   1.772
  349SOL     OW 1063   1.360   2.724   1.045
  349SOL    HW1 1064   1.285   2.724   0.979
  349SOL    HW2 1065   1.397   2.632   1.054
  350SOL     OW 1066   1.209   2.387   0.275
  350SOL    HW1 1067   1.222   2.303   0.329
  350SOL    HW2 1068   1.180   2.461   0.335
  351SOL     OW 1069   0.307   2.075   1.231
  351SOL    HW1 1070   0.284   2.112   1.321
  351SOL    HW2 1071   0.277   1.980   1.225
  352SOL     OW 1072   0.732   2.496   1.064
  352SOL    HW1 1073   0.791   2.470   0.988
  352SOL    HW2 1074   0.704   2.592   1.053
  353SOL     OW 1075   1.728   2.797   1.854
  353SOL    HW1 1076   1.682   2.790   1.765
  353SOL    HW2 1077   1.666   2.841   1.920
  354SOL     OW 1078   0.307   1.925   0.618
  354SOL    HW1 1079   0.296   2.019   0.651
  354SOL    HW2 1080   0.302   1.862   0.695
  355SOL     OW 1081   1.622   2.229   0.374
  355SOL    HW1 1082   1.624   2.153   0.438
  355SOL    HW2 1083   1.574   2.306   0.414
  356SOL     OW 1084   1.540   2.136   0.125
  356SOL    HW1 1085   1.479   2.061   0.148
  356SOL    HW2 1086   1.562   2.188   0.208
  357SOL     OW 1087   0.319   2.672   0.949
  357SOL    HW1 1088   0.412   2.708   0.954
  357SOL    HW2 1089   0.313   2.587   1.001
  358SOL     OW 1090   0.339   2.371   1.006
  358SOL    HW1 1091   0.287   2.288   0.989
  358SOL    HW2 1092   0.416   2.376   0.942
  359SOL     OW 1093   1.138   2.242   1.678
  359SOL    HW1 1094   1.093   2.305   1.742
  359SOL    HW2 1095   1.231   2.273   1.661
  360SOL     OW 1096   1.160   2.069   1.477
  360SOL    HW1 1097   1.160   2.133   1.554
  360SOL    HW2 1098   1.188   2.117   1.394
  361SOL     OW 1099   0.040   2.406   1.114
  361SOL    HW1 1100   0.125   2.373   1.073
  361SOL    HW2 1101   0.053   2.421   1.212
  362SOL     OW 1102   0.189   2.382   1.722
  362SOL    HW1 1103   0.248   2.342   1.652
  362SOL    HW2 1104   0.131   2.453   1.681
  363SOL     OW 1105   0.815   2.434   0.325
  363SOL    HW1 1106   0.822   2.345   0.279
  363SOL    HW2 1107   0.721   2.468   0.317
  364SOL     OW 1108   1.657   2.466   1.206
  364SOL    HW1 1109   1.619   2.397   1.268
  364SOL    HW2 1110   1.739   2.430   1.162
  365SOL     OW 1111   0.671   2.326   1.269
  365SOL    HW1 1112   0.637   2.237   1.239
  365SOL    HW2 1113   0.697   2.380   1.189
  366SOL     OW 1114   0.473   2.362   0.191
  366SOL    HW1 1115   0.534   2.442   0.195
  366SOL    HW2 1116   0.378   2.393   0.198
  367SOL     OW 1117   0.903   1.948   0.133
  367SOL    HW1 1118   0.954   1.949   0.047
  367SOL    HW2 1119   0.959   1.906   0.204
  368SOL     OW 1120   1.726   1.997   0.523
  368SOL    HW1 1121   1.799   1.980   0.456
  368SOL    HW2 1122   1.695   1.910   0.561
  369SOL     OW 1123   1.280   2.789   0.672
  369SOL    HW1 1124   1.340   2.708   0.674
  369SOL    HW2 1125   1.320   2.858   0.612
  370SOL     OW 1126   1.841   2.037   0.963
  370SOL    HW1 1127   1.880   1.952   0.927
  370SOL    HW2 1128   1.743   2.039   0.944
  371SOL     OW 1129   0.263   2.188   0.720
  371SOL    HW1 1130   0.184   2.239   0.686
  371SOL    HW2 1131   0.254   2.173   0.818
  372SOL     OW 1132   1.014   2.098   0.971
  372SOL    HW1 1133   1.006   2.062   0.878
  372SOL    HW2 1134   1.012   2.022   1.036
  373SOL     OW 1135   1.709   2.247   1.381
  373SOL    HW1 1136   1.782   2.316   1.385
  373SOL    HW2 1137   1.737   2.172   1.322
  374SOL     OW 1138   0.105   2.875   1.726
  374SOL    HW1 1139   0.028   2.842   1.780
  374SOL    HW2 1140   0.190   2.845   1.768
  375SOL     OW 1141   0.672   2.065   1.489
  375SOL    HW1 1142   0.762   2.049   1.449
  375SOL    HW2 1143   0.680   2.070   1.588
  376SOL     OW 1144   0.075   2.207   0.033
  376SOL    HW1 1145  -0.017   2.179   0.004
  376SOL    HW2 1146   0.106   2.284  -0.023
  377SOL     OW 1147   0.072   2.028   0.318
  377SOL    HW1 1148   0.055   2.111   0.264
  377SOL    HW2 1149   0.162   1.991   0.296
  378SOL     OW 1150   0.716   2.427   1.708
  378SOL    HW1 1151   0.735   2.492   1.782
  378SOL    HW2 1152   0.776   2.347   1.717
  379SOL     OW 1153   1.225   2.187   0.449
  379SOL    HW1 1154   1.290   2.113   0.438
  379SOL    HW2 1155   1.245   2.237   0.533
  380SOL     OW 1156   0.594   2.607   0.652
  380SOL    HW1 1157   0.644   2.692   0.633
  380SOL    HW2 1158   0.506   2.609   0.604
  381SOL     OW 1159   1.777   2.204   1.642
  381SOL    HW1 1160   1.760   2.235   1.548
  381SOL    HW2 1161   1.693   2.167   1.680
  382SOL     OW 1162   0.859   2.818   0.861
  382SOL    HW1 1163   0.913   2.749   0.909
  382SOL    HW2 1164   0.827   2.887   0.927
  383SOL     OW 1165   1.824   2.054   1.227
  383SOL    HW1 1166   1.820   1.964   1.271
  383SOL    HW2 1167   1.827   2.043   1.128
  384SOL     OW 1168   0.428   2.286   0.520
  384SOL    HW1 1169   0.458   2.214   0.458
  384SOL    HW2 1170   0.389   2.246   0.603
  385SOL     OW 1171   0.317   2.409   1.280
  385SOL    HW1 1172   0.355   2.350   1.352
  385SOL    HW2 1173   0.357   2.383   1.192
  386SOL     OW 1174   1.424   2.076   1.112
  386SOL    HW1 1175   1.476   2.011   1.167
  386SOL    HW2 1176   1.375   2.139   1.173
  387SOL     OW 1177   1.001   1.896   1.154
  387SOL    HW1 1178   0.938   1.824   1.123
  387SOL    HW2 1179   1.094   1.860   1.154
  388SOL     OW 1180   1.352   1.914   0.168
  388SOL    HW1 1181   1.387   1.873   0.084
  388SOL    HW2 1182   1.262   1.876   0.188
  389SOL     OW 1183   1.300   2.315   0.691
  389SOL    HW1 1184   1.241   2.395   0.695
  389SOL    HW2 1185   1.315   2.280   0.784
  390SOL     OW 1186   1.593   2.083   0.882
  390SOL    HW1 1187   1.509   2.082   0.936
  390SOL    HW2 1188   1.595   2.166   0.826
  391SOL     OW 1189   0.230   2.490   1.975
  391SOL    HW1 1190   0.137   2.488   2.012
  391SOL    HW2 1191   0.231   2.451   1.883
  392SOL     OW 1192   0.019   2.230   2.509
  392SOL    HW1 1193  -0.063   2.273   2.548
  392SOL    HW2 1194  -0.009   2.157   2.446
  393SOL     OW 1195   1.755   2.469   2.093
  393SOL    HW1 1196   1.743   2.456   1.994
  393SOL    HW2 1197   1.725   2.388   2.142
  394SOL     OW 1198   0.685   2.874   2.527
  394SOL    HW1 1199   0.754   2.858   2.597
  394SOL    HW2 1200   0.612   2.931   2.565
  395SOL     OW 1201   1.603   2.309   2.599
  395SOL    HW1 1202   1.529   2.355   2.549
  395SOL    HW2 1203   1.654   2.377   2.652
  396SOL     OW 1204   0.122   2.505   2.425
  396SOL    HW1 1205   0.077   2.417   2.442
  396SOL    HW2 1206   0.121   2.559   2.509
  397SOL     OW 1207   0.809   1.866   2.364
  397SOL    HW1 1208   0.849   1.957   2.355
  397SOL    HW2 1209   0.709   1.874   2.370
  398SOL     OW 1210   0.598   2.591   2.132
  398SOL    HW1 1211   0.622   2.660   2.064
  398SOL    HW2 1212   0.520   2.624   2.186
  399SOL     OW 1213   1.281   2.207   2.806
  399SOL    HW1 1214   1.195   2.157   2.793
  399SOL    HW2 1215   1.343   2.153   2.862
  400SOL     OW 1216   1.041   2.563   2.291
  400SOL    HW1 1217   1.067   2.559   2.387
  400SOL    HW2 1218   0.956   2.512   2.277
  401SOL     OW 1219   0.076   2.673   2.651
  401SOL    HW1 1220   0.175   2.661   2.660
  401SOL    HW2 1221   0.052   2.768   2.672
  402SOL     OW 1222   0.865   2.210   2.057
  402SOL    HW1 1223   0.924   2.273   2.008
  402SOL    HW2 1224   0.884   2.116   2.028
  403SOL     OW 1225   1.400   1.969   2.288
  403SOL    HW1 1226   1.376   1.932   2.198
  403SOL    HW2 1227   1.499   1.985   2.292
  404SOL     OW 1228   0.382   2.562   2.342
  404SOL    HW1 1229   0.427   2.472   2.339
  404SOL    HW2 1230   0.288   2.551   2.375
  405SOL     OW 1231   0.614   1.984   1.979
  405SOL    HW1 1232   0.712   1.962   1.986
  405SOL    HW2 1233   0.583   1.967   1.886
  406SOL     OW 1234   0.539   1.926   2.374
  406SOL    HW1 1235   0.458   1.927   2.432
  406SOL    HW2 1236   0.542   2.009   2.319
  407SOL     OW 1237   0.297   1.897   2.033
  407SOL    HW1 1238   0.346   1.981   2.012
  407SOL    HW2 1239   0.359   1.832   2.078
  408SOL     OW 1240   0.935   2.098   2.342
  408SOL    HW1 1241   0.887   2.139   2.264
  408SOL    HW2 1242   1.034   2.096   2.323
  409SOL     OW 1243   1.032   2.411   1.878
  409SOL    HW1 1244   0.991   2.493   1.839
  409SOL    HW2 1245   1.096   2.437   1.951
  410SOL     OW 1246   0.866   2.316   2.504
  410SOL    HW1 1247   0.834   2.388   2.442
  410SOL    HW2 1248   0.890   2.235   2.451
  411SOL     OW 1249   1.390   2.437   1.940
  411SOL    HW1 1250   1.336   2.416   2.021
  411SOL    HW2 1251   1.481   2.396   1.949
  412SOL     OW 1252   0.527   2.118   2.190
  412SOL    HW1 1253   0.554   2.059   2.115
  412SOL    HW2 1254   0.527   2.213   2.159
  413SOL     OW 1255   0.705   2.912   2.230
  413SOL    HW1 1256   0.691   2.919   2.329
  413SOL    HW2 1257   0.789   2.861   2.212
  414SOL     OW 1258   1.582   2.501   2.334
  414SOL    HW1 1259   1.551   2.562   2.407
  414SOL    HW2 1260   1.632   2.553   2.265
  415SOL     OW 1261   1.209   2.387   2.137
  415SOL    HW1 1262   1.222   2.303   2.191
  415SOL    HW2 1263   1.180   2.461   2.197
  416SOL     OW 1264   0.307   1.925   2.480
  416SOL    HW1 1265   0.296   2.019   2.513
  416SOL    HW2 1266   0.302   1.862   2.557
  417SOL     OW 1267   1.622   2.229   2.236
  417SOL    HW1 1268   1.624   2.153   2.300
  417SOL    HW2 1269   1.574   2.306   2.276
  418SOL     OW 1270   1.540   2.136   1.987
  418SOL    HW1 1271   1.479   2.061   2.010
  418SOL    HW2 1272   1.562   2.188   2.070
  419SOL     OW 1273   0.040   2.406   2.976
  419SOL    HW1 1274   0.125   2.373   2.935
  419SOL    HW2 1275   0.053   2.421   3.074
  420SOL     OW 1276   0.815   2.434   2.187
  420SOL    HW1 1277   0.822   2.345   2.141
  420SOL    HW2 1278   0.721   2.468   2.179
  421SOL     OW 1279   0.473   2.362   2.053
  421SOL    HW1 1280   0.534   2.442   2.057
  421SOL    HW2 1281   0.378   2.393   2.060
  422SOL     OW 1282   1.726   1.997   2.385
  422SOL    HW1 1283   1.799   1.980   2.318
  422SOL    HW2 1284   1.695   1.910   2.423
  423SOL     OW 1285   1.280   2.789   2.534
  423SOL    HW1 1286   1.340   2.708   2.536
  423SOL    HW2 1287   1.320   2.858   2.474
  424SOL     OW 1288   1.841   2.037   2.825
  424SOL    HW1 1289   1.880   1.952   2.789
  424SOL    HW2 1290   1.743   2.039   2.806
  425SOL     OW 1291   0.263   2.188   2.582
  425SOL    HW1 1292   0.184   2.239   2.548
  425SOL    HW2 1293   0.254   2.173   2.680
  426SOL     OW 1294   0.916   2.772   2.153
  426SOL    HW1 1295   0.979   2.810   2.085
  426SOL    HW2 1296   0.956   2.689   2.192
  427SOL     OW 1297   1.039   2.960   2.558
  427SOL    HW1 1298   0.969   2.913   2.612
  427SOL    HW2 1299   1.098   2.892   2.515
  428SOL     OW 1300   0.075   2.207   1.895
  428SOL    HW1 1301  -0.017   2.179   1.866
  428SOL    HW2 1302   0.106   2.284   1.839
  429SOL     OW 1303   0.072   2.028   2.180
  429SOL    HW1 1304   0.055   2.111   2.126
  429SOL    HW2 1305   0.162   1.991   2.158
  430SOL     OW 1306   1.225   2.187   2.311
  430SOL    HW1 1307   1.290   2.113   2.300
  430SOL    HW2 1308   1.245   2.237   2.395
  431SOL     OW 1309   0.594   2.607   2.514
  431SOL    HW1 1310   0.644   2.692   2.495
  431SOL    HW2 1311   0.506   2.609   2.466
  432SOL     OW 1312   0.428   2.286   2.382
  432SOL    HW1 1313   0.458   2.214   2.320
  432SOL    HW2 1314   0.389   2.246   2.465
  433SOL     OW 1315   1.352   1.914   2.030
  433SOL    HW1 1316   1.387   1.873   1.946
  433SOL    HW2 1317   1.262   1.876   2.050
  434SOL     OW 1318   1.300   2.315   2.553
  434SOL    HW1 1319   1.241   2.395   2.557
  434SOL    HW2 1320   1.315   2.280   2.646
  435SOL     OW 1321   2.092   0.628   0.113
  435SOL    HW1 1322   1.999   0.626   0.150
  435SOL    HW2 1323   2.093   0.589   0.021
  436SOL     OW 1324   2.087   0.275   0.996
  436SOL    HW1 1325   2.122   0.258   1.088
  436SOL    HW2 1326   1.999   0.230   0.984
  437SOL     OW 1327   1.881   0.368   0.647
  437SOL    HW1 1328   1.799   0.411   0.686
  437SOL    HW2 1329   1.853   0.295   0.584
  438SOL     OW 1330   2.431   1.275   1.165
  438SOL    HW1 1331   2.338   1.268   1.128
  438SOL    HW2 1332   2.442   1.364   1.209
  439SOL     OW 1333   2.712   0.798   1.823
  439SOL    HW1 1334   2.708   0.874   1.888
  439SOL    HW2 1335   2.734   0.834   1.732
  440SOL     OW 1336   2.547   1.012   0.665
  440SOL    HW1 1337   2.616   0.996   0.735
  440SOL    HW2 1338   2.474   1.069   0.703
  441SOL     OW 1339   2.548   1.161   1.803
  441SOL    HW1 1340   2.608   1.240   1.817
  441SOL    HW2 1341   2.462   1.192   1.762
  442SOL     OW 1342   2.197   1.435   1.061
  442SOL    HW1 1343   2.119   1.404   1.008
  442SOL    HW2 1344   2.255   1.493   1.004
  443SOL     OW 1345   2.300   0.392   1.499
  443SOL    HW1 1346   2.382   0.336   1.508
  443SOL    HW2 1347   2.219   0.334   1.503
  444SOL     OW 1348   2.093   1.713   0.483
  444SOL    HW1 1349   2.127   1.790   0.537
  444SOL    HW2 1350   2.137   1.713   0.393
  445SOL     OW 1351   2.092   1.434   0.538
  445SOL    HW1 1352   2.066   1.530   0.538
  445SOL    HW2 1353   2.021   1.380   0.583
  446SOL     OW 1354   2.102   1.091   0.886
  446SOL    HW1 1355   2.116   1.007   0.938
  446SOL    HW2 1356   2.047   1.155   0.941
  447SOL     OW 1357   2.482   1.786   1.439
  447SOL    HW1 1358   2.390   1.769   1.474
  447SOL    HW2 1359   2.510   1.878   1.465
  448SOL     OW 1360   2.468   0.964   0.123
  448SOL    HW1 1361   2.475   1.048   0.069
  448SOL    HW2 1362   2.514   0.977   0.211
  449SOL     OW 1363   1.984   0.643   0.563
  449SOL    HW1 1364   1.939   0.555   0.580
  449SOL    HW2 1365   1.983   0.697   0.647
  450SOL     OW 1366   1.889   1.596   0.117
  450SOL    HW1 1367   1.870   1.500   0.138
  450SOL    HW2 1368   1.856   1.654   0.192
  451SOL     OW 1369   1.975   0.737   1.597
  451SOL    HW1 1370   2.063   0.724   1.642
  451SOL    HW2 1371   1.962   0.834   1.575
  452SOL     OW 1372   2.475   1.365   0.726
  452SOL    HW1 1373   2.426   1.278   0.735
  452SOL    HW2 1374   2.452   1.408   0.639
  453SOL     OW 1375   2.671   0.004   0.502
  453SOL    HW1 1376   2.711   0.095   0.493
  453SOL    HW2 1377   2.571   0.012   0.508
  454SOL     OW 1378   2.059   0.976   1.264
  454SOL    HW1 1379   2.148   0.931   1.250
  454SOL    HW2 1380   1.986   0.911   1.245
  455SOL     OW 1381   2.179   0.251   1.801
  455SOL    HW1 1382   2.250   0.322   1.807
  455SOL    HW2 1383   2.091   0.290   1.829
  456SOL     OW 1384   2.460   0.729   0.270
  456SOL    HW1 1385   2.484   0.798   0.202
  456SOL    HW2 1386   2.382   0.762   0.324
  457SOL     OW 1387   1.938   0.811   0.789
  457SOL    HW1 1388   2.037   0.799   0.798
  457SOL    HW2 1389   1.914   0.906   0.810
  458SOL     OW 1390   1.992   1.821   1.571
  458SOL    HW1 1391   1.982   1.806   1.670
  458SOL    HW2 1392   1.906   1.857   1.535
  459SOL     OW 1393   2.412   0.196   0.885
  459SOL    HW1 1394   2.407   0.191   0.985
  459SOL    HW2 1395   2.414   0.292   0.856
  460SOL     OW 1396   2.213   1.801   0.853
  460SOL    HW1 1397   2.263   1.715   0.859
  460SOL    HW2 1398   2.278   1.878   0.850
  461SOL     OW 1399   2.183   0.943   0.242
  461SOL    HW1 1400   2.265   0.982   0.200
  461SOL    HW2 1401   2.156   0.861   0.193
  462SOL     OW 1402   2.323   1.266   1.727
  462SOL    HW1 1403   2.273   1.267   1.641
  462SOL    HW2 1404   2.260   1.248   1.803
  463SOL     OW 1405   2.064   0.285   1.498
  463SOL    HW1 1406   1.984   0.345   1.485
  463SOL    HW2 1407   2.054   0.236   1.584
  464SOL     OW 1408   2.326   1.743   0.323
  464SOL    HW1 1409   2.359   1.782   0.409
  464SOL    HW2 1410   2.402   1.736   0.258
  465SOL     OW 1411   2.111   1.785   1.241
  465SOL    HW1 1412   2.168   1.720   1.291
  465SOL    HW2 1413   2.095   1.752   1.148
  466SOL     OW 1414   2.244   0.700   0.480
  466SOL    HW1 1415   2.289   0.610   0.477
  466SOL    HW2 1416   2.150   0.689   0.513
  467SOL     OW 1417   2.476   0.122   0.117
  467SOL    HW1 1418   2.574   0.100   0.124
  467SOL    HW2 1419   2.445   0.105   0.024
  468SOL     OW 1420   2.665   1.402   0.924
  468SOL    HW1 1421   2.755   1.416   0.882
  468SOL    HW2 1422   2.594   1.404   0.853
  469SOL     OW 1423   2.784   0.503   0.899
  469SOL    HW1 1424   2.759   0.494   0.803
  469SOL    HW2 1425   2.832   0.421   0.930
  470SOL     OW 1426   2.401   0.064   0.512
  470SOL    HW1 1427   2.320   0.065   0.570
  470SOL    HW2 1428   2.404   0.147   0.457
  471SOL     OW 1429   2.159   0.035   0.171
  471SOL    HW1 1430   2.208   0.119   0.150
  471SOL    HW2 1431   2.221  -0.030   0.216
  472SOL     OW 1432   2.321   1.152   0.741
  472SOL    HW1 1433   2.250   1.125   0.806
  472SOL    HW2 1434   2.295   1.124   0.648
  473SOL     OW 1435   1.940   0.556   1.386
  473SOL    HW1 1436   2.032   0.555   1.345
  473SOL    HW2 1437   1.934   0.630   1.453
  474SOL     OW 1438   2.423   0.222   1.147
  474SOL    HW1 1439   2.461   0.138   1.184
  474SOL    HW2 1440   2.335   0.241   1.191
  475SOL     OW 1441   2.350   1.385   0.174
  475SOL    HW1 1442   2.263   1.370   0.221
  475SOL    HW2 1443   2.333   1.411   0.079
  476SOL     OW 1444   2.389   0.256   0.328
  476SOL    HW1 1445   2.416   0.197   0.253
  476SOL    HW2 1446   2.389   0.351   0.297
  477SOL     OW 1447   2.777   0.089   1.402
  477SOL    HW1 1448   2.802   0.069   1.307
  477SOL    HW2 1449   2.849   0.145   1.444
  478SOL     OW 1450   2.272   0.813   1.251
  478SOL    HW1 1451   2.358   0.825   1.301
  478SOL    HW2 1452   2.230   0.726   1.278
  479SOL     OW 1453   1.926   1.564   1.331
  479SOL    HW1 1454   1.880   1.646   1.297
  479SOL    HW2 1455   2.024   1.583   1.340
  480SOL     OW 1456   2.229   1.100   0.501
  480SOL    HW1 1457   2.222   1.183   0.445
  480SOL    HW2 1458   2.233   1.020   0.441
  481SOL     OW 1459   2.428   0.537   0.865
  481SOL    HW1 1460   2.440   0.603   0.791
  481SOL    HW2 1461   2.474   0.571   0.948
  482SOL     OW 1462   2.216   1.510   1.329
  482SOL    HW1 1463   2.195   1.466   1.242
  482SOL    HW2 1464   2.313   1.536   1.332
  483SOL     OW 1465   2.264   0.751   1.598
  483SOL    HW1 1466   2.332   0.806   1.551
  483SOL    HW2 1467   2.304   0.663   1.625
  484SOL     OW 1468   2.366   0.050   1.740
  484SOL    HW1 1469   2.324  -0.007   1.670
  484SOL    HW2 1470   2.300   0.119   1.772
  485SOL     OW 1471   2.435   0.870   1.029
  485SOL    HW1 1472   2.479   0.959   1.020
  485SOL    HW2 1473   2.372   0.870   1.106
  486SOL     OW 1474   2.169   0.213   1.231
  486SOL    HW1 1475   2.146   0.250   1.321
  486SOL    HW2 1476   2.139   0.118   1.225
  487SOL     OW 1477   1.899   1.310   1.282
  487SOL    HW1 1478   1.952   1.261   1.350
  487SOL    HW2 1479   1.921   1.408   1.287
  488SOL     OW 1480   2.169   0.063   0.618
  488SOL    HW1 1481   2.158   0.157   0.651
  488SOL    HW2 1482   2.164   0.000   0.695
  489SOL     OW 1483   2.212   0.898   1.804
  489SOL    HW1 1484   2.288   0.942   1.852
  489SOL    HW2 1485   2.247   0.851   1.722
  490SOL     OW 1486   2.930   1.333   0.849
  490SOL    HW1 1487   2.937   1.249   0.794
  490SOL    HW2 1488   2.992   1.402   0.813
  491SOL     OW 1489   2.181   0.810   0.949
  491SOL    HW1 1490   2.274   0.846   0.954
  491SOL    HW2 1491   2.175   0.725   1.001
  492SOL     OW 1492   2.201   0.509   1.006
  492SOL    HW1 1493   2.149   0.426   0.989
  492SOL    HW2 1494   2.278   0.514   0.942
  493SOL     OW 1495   1.870   1.326   0.200
  493SOL    HW1 1496   1.777   1.347   0.169
  493SOL    HW2 1497   1.880   1.227   0.213
  494SOL     OW 1498   1.950   1.801   0.927
  494SOL    HW1 1499   1.908   1.715   0.900
  494SOL    HW2 1500   2.044   1.804   0.893
  495SOL     OW 1501   2.366   1.568   0.910
  495SOL    HW1 1502   2.432   1.642   0.919
  495SOL    HW2 1503   2.410   1.489   0.868
  496SOL     OW 1504   1.902   0.544   1.114
  496SOL    HW1 1505   1.987   0.511   1.073
  496SOL    HW2 1506   1.915   0.559   1.212
  497SOL     OW 1507   2.051   0.520   1.722
  497SOL    HW1 1508   2.110   0.480   1.652
  497SOL    HW2 1509   1.993   0.591   1.681
  498SOL     OW 1510   2.114   1.564   1.744
  498SOL    HW1 1511   2.084   1.621   1.820
  498SOL    HW2 1512   2.107   1.467   1.770
  499SOL     OW 1513   2.533   0.464   1.269
  499SOL    HW1 1514   2.499   0.375   1.239
  499SOL    HW2 1515   2.559   0.518   1.189
  500SOL     OW 1516   2.335   0.500   0.191
  500SOL    HW1 1517   2.396   0.580   0.195
  500SOL    HW2 1518   2.240   0.531   0.198
  501SOL     OW 1519   2.021   1.137   1.466
  501SOL    HW1 1520   2.043   1.076   1.542
  501SOL    HW2 1521   2.031   1.088   1.380
  502SOL     OW 1522   1.945   1.258   1.022
  502SOL    HW1 1523   1.940   1.257   1.122
  502SOL    HW2 1524   1.862   1.217   0.984
  503SOL     OW 1525   2.550   1.662   1.716
  503SOL    HW1 1526   2.494   1.743   1.725
  503SOL    HW2 1527   2.602   1.666   1.630
  504SOL     OW 1528   1.992   1.794   1.851
  504SOL    HW1 1529   1.951   1.720   1.904
  504SOL    HW2 1530   2.056   1.845   1.909
  505SOL     OW 1531   2.534   1.616   0.154
  505SOL    HW1 1532   2.543   1.626   0.055
  505SOL    HW2 1533   2.494   1.527   0.175
  506SOL     OW 1534   2.125   0.326   0.720
  506SOL    HW1 1535   2.046   0.377   0.686
  506SOL    HW2 1536   2.116   0.311   0.818
  507SOL     OW 1537   2.234   1.288   1.490
  507SOL    HW1 1538   2.221   1.381   1.456
  507SOL    HW2 1539   2.150   1.236   1.477
  508SOL     OW 1540   2.901   1.098   0.696
  508SOL    HW1 1541   2.831   1.051   0.750
  508SOL    HW2 1542   2.960   1.030   0.653
  509SOL     OW 1543   2.452   1.487   0.491
  509SOL    HW1 1544   2.494   1.429   0.421
  509SOL    HW2 1545   2.408   1.566   0.447
  510SOL     OW 1546   2.117   1.348   0.290
  510SOL    HW1 1547   2.021   1.349   0.263
  510SOL    HW2 1548   2.129   1.401   0.374
  511SOL     OW 1549   1.967   1.013   1.726
  511SOL    HW1 1550   1.890   0.980   1.780
  511SOL    HW2 1551   2.052   0.983   1.768
  512SOL     OW 1552   2.534   0.203   1.489
  512SOL    HW1 1553   2.624   0.187   1.449
  512SOL    HW2 1554   2.542   0.208   1.588
  513SOL     OW 1555   1.937   0.345   0.033
  513SOL    HW1 1556   1.845   0.317   0.004
  513SOL    HW2 1557   1.968   0.422  -0.023
  514SOL     OW 1558   1.934   0.166   0.318
  514SOL    HW1 1559   1.917   0.249   0.264
  514SOL    HW2 1560   2.024   0.129   0.296
  515SOL     OW 1561   2.475   0.842   1.431
  515SOL    HW1 1562   2.531   0.923   1.414
  515SOL    HW2 1563   2.534   0.762   1.434
  516SOL     OW 1564   2.578   0.565   1.708
  516SOL    HW1 1565   2.597   0.630   1.782
  516SOL    HW2 1566   2.638   0.485   1.717
  517SOL     OW 1567   2.252   1.741   1.560
  517SOL    HW1 1568   2.161   1.782   1.558
  517SOL    HW2 1569   2.245   1.647   1.592
  518SOL     OW 1570   2.456   0.745   0.652
  518SOL    HW1 1571   2.506   0.830   0.633
  518SOL    HW2 1572   2.368   0.747   0.604
  519SOL     OW 1573   2.083   1.314   1.844
  519SOL    HW1 1574   2.018   1.241   1.823
  519SOL    HW2 1575   2.087   1.328   1.942
  520SOL     OW 1576   1.941   1.240   0.653
  520SOL    HW1 1577   1.940   1.193   0.741
  520SOL    HW2 1578   2.023   1.212   0.602
  521SOL     OW 1579   2.534   1.391   1.624
  521SOL    HW1 1580   2.456   1.341   1.662
  521SOL    HW2 1581   2.531   1.486   1.655
  522SOL     OW 1582   2.290   0.424   0.520
  522SOL    HW1 1583   2.320   0.352   0.458
  522SOL    HW2 1584   2.251   0.384   0.603
  523SOL     OW 1585   2.179   0.547   1.280
  523SOL    HW1 1586   2.217   0.488   1.352
  523SOL    HW2 1587   2.219   0.521   1.192
  524SOL     OW 1588   2.674   1.586   0.687
  524SOL    HW1 1589   2.706   1.596   0.593
  524SOL    HW2 1590   2.595   1.524   0.689
  525SOL     OW 1591   2.480   1.567   1.284
  525SOL    HW1 1592   2.475   1.649   1.341
  525SOL    HW2 1593   2.569   1.564   1.239
  526SOL     OW 1594   1.901   1.077   0.300
  526SOL    HW1 1595   2.000   1.066   0.291
  526SOL    HW2 1596   1.861   0.991   0.332
  527SOL     OW 1597   2.092   0.628   1.975
  527SOL    HW1 1598   1.999   0.626   2.012
  527SOL    HW2 1599   2.093   0.589   1.883
  528SOL     OW 1600   1.881   0.368   2.509
  528SOL    HW1 1601   1.799   0.411   2.548
  528SOL    HW2 1602   1.853   0.295   2.446
  529SOL     OW 1603   2.547   1.012   2.527
  529SOL    HW1 1604   2.616   0.996   2.597
  529SOL    HW2 1605   2.474   1.069   2.565
  530SOL     OW 1606   2.093   1.713   2.345
  530SOL    HW1 1607   2.127   1.790   2.399
  530SOL    HW2 1608   2.137   1.713   2.255
  531SOL     OW 1609   2.092   1.434   2.400
  531SOL    HW1 1610   2.066   1.530   2.400
  531SOL    HW2 1611   2.021   1.380   2.445
  532SOL     OW 1612   2.102   1.091   2.748
  532SOL    HW1 1613   2.116   1.007   2.800
  532SOL    HW2 1614   2.047   1.155   2.803
  533SOL     OW 1615   2.468   0.964   1.985
  533SOL    HW1 1616   2.475   1.048   1.931
  533SOL    HW2 1617   2.514   0.977   2.073
  534SOL     OW 1618   1.984   0.643   2.425
  534SOL    HW1 1619   1.939   0.555   2.442
  534SOL    HW2 1620   1.983   0.697   2.509
  535SOL     OW 1621   1.889   1.596   1.979
  535SOL    HW1 1622   1.870   1.500   2.000
  535SOL    HW2 1623   1.856   1.654   2.054
  536SOL     OW 1624   2.475   1.365   2.588
  536SOL    HW1 1625   2.426   1.278   2.597
  536SOL    HW2 1626   2.452   1.408   2.501
  537SOL     OW 1627   2.671   0.004   2.364
  537SOL    HW1 1628   2.711   0.095   2.355
  537SOL    HW2 1629   2.571   0.012   2.370
  538SOL     OW 1630   2.460   0.729   2.132
  538SOL    HW1 1631   2.484   0.798   2.064
  538SOL    HW2 1632   2.382   0.762   2.186
  539SOL     OW 1633   1.938   0.811   2.651
  539SOL    HW1 1634   2.037   0.799   2.660
  539SOL    HW2 1635   1.914   0.906   2.672
  540SOL     OW 1636   2.213   1.801   2.715
  540SOL    HW1 1637   2.263   1.715   2.721
  540SOL    HW2 1638   2.278   1.878   2.712
  541SOL     OW 1639   2.183   0.943   2.104
  541SOL    HW1 1640   2.265   0.982   2.062
  541SOL    HW2 1641   2.156   0.861   2.055
  542SOL     OW 1642   2.326   1.743   2.185
  542SOL    HW1 1643   2.359   1.782   2.271
  542SOL    HW2 1644   2.402   1.736   2.120
  543SOL     OW 1645   2.244   0.700   2.342
  543SOL    HW1 1646   2.289   0.610   2.339
  543SOL    HW2 1647   2.150   0.689   2.375
  544SOL     OW 1648   2.476   0.122   1.979
  544SOL    HW1 1649   2.574   0.100   1.986
  544SOL    HW2 1650   2.445   0.105   1.886
  545SOL     OW 1651   2.401   0.064   2.374
  545SOL    HW1 1652   2.320   0.065   2.432
  545SOL    HW2 1653   2.404   0.147   2.319
  546SOL     OW 1654   2.159   0.035   2.033
  546SOL    HW1 1655   2.208   0.119   2.012
  546SOL    HW2 1656   2.221  -0.030   2.078
  547SOL     OW 1657   2.321   1.152   2.603
  547SOL    HW1 1658   2.250   1.125   2.668
  547SOL    HW2 1659   2.295   1.124   2.510
  548SOL     OW 1660   2.350   1.385   2.036
  548SOL    HW1 1661   2.263   1.370   2.083
  548SOL    HW2 1662   2.333   1.411   1.941
  549SOL     OW 1663   2.389   0.256   2.190
  549SOL    HW1 1664   2.416   0.197   2.115
  549SOL    HW2 1665   2.389   0.351   2.159
  550SOL     OW 1666   2.229   1.100   2.363
  550SOL    HW1 1667   2.222   1.183   2.307
  550SOL    HW2 1668   2.233   1.020   2.303
  551SOL     OW 1669   2.169   0.063   2.480
  551SOL    HW1 1670   2.158   0.157   2.513
  551SOL    HW2 1671   2.164   0.000   2.557
  552SOL     OW 1672   2.930   1.333   2.711
  552SOL    HW1 1673   2.937   1.249   2.656
  552SOL    HW2 1674   2.992   1.402   2.675
  553SOL     OW 1675   1.870   1.326   2.062
  553SOL    HW1 1676   1.777   1.347   2.031
  553SOL    HW2 1677   1.880   1.227   2.075
  554SOL     OW 1678   2.677   0.572   2.187
  554SOL    HW1 1679   2.684   0.483   2.141
  554SOL    HW2 1680   2.583   0.606   2.179
  555SOL     OW 1681   2.335   0.500   2.053
  555SOL    HW1 1682   2.396   0.580   2.057
  555SOL    HW2 1683   2.240   0.531   2.060
  556SOL     OW 1684   2.534   1.616   2.016
  556SOL    HW1 1685   2.543   1.626   1.917
  556SOL    HW2 1686   2.494   1.527   2.037
  557SOL     OW 1687   2.125   0.326   2.582
  557SOL    HW1 1688   2.046   0.377   2.548
  557SOL    HW2 1689   2.116   0.311   2.680
  558SOL     OW 1690   2.901   1.098   2.558
  558SOL    HW1 1691   2.831   1.051   2.612
  558SOL    HW2 1692   2.960   1.030   2.515
  559SOL     OW 1693   2.452   1.487   2.353
  559SOL    HW1 1694   2.494   1.429   2.283
  559SOL    HW2 1695   2.408   1.566   2.309
  560SOL     OW 1696   2.117   1.348   2.152
  560SOL    HW1 1697   2.021   1.349   2.125
  560SOL    HW2 1698   2.129   1.401   2.236
  561SOL     OW 1699   1.937   0.345   1.895
  561SOL    HW1 1700   1.845   0.317   1.866
  561SOL    HW2 1701   1.968   0.422   1.839
  562SOL     OW 1702   1.934   0.166   2.180
  562SOL    HW1 1703   1.917   0.249   2.126
  562SOL    HW2 1704   2.024   0.129   2.158
  563SOL     OW 1705   2.456   0.745   2.514
  563SOL    HW1 1706   2.506   0.830   2.495
  563SOL    HW2 1707   2.368   0.747   2.466
  564SOL     OW 1708   2.523   1.790   2.815
  564SOL    HW1 1709   2.477   1.878   2.802
  564SOL    HW2 1710   2.622   1.802   2.808
  565SOL     OW 1711   1.941   1.240   2.515
  565SOL    HW1 1712   1.940   1.193   2.603
  565SOL    HW2 1713   2.023   1.212   2.464
  566SOL     OW 1714   2.290   0.424   2.382
  566SOL    HW1 1715   2.320   0.352   2.320
  566SOL    HW2 1716   2.251   0.384   2.465
  567SOL     OW 1717   2.674   1.586   2.549
  567SOL    HW1 1718   2.706   1.596   2.455
  567SOL    HW2 1719   2.595   1.524   2.551
  568SOL     OW 1720   1.901   1.077   2.162
  568SOL    HW1 1721   2.000   1.066   2.153
  568SOL    HW2 1722   1.861   0.991   2.194
  569SOL     OW 1723   2.092   2.490   0.113
  569SOL    HW1 1724   1.999   2.488   0.150
  569SOL    HW2 1725   2.093   2.451   0.021
  570SOL     OW 1726   2.087   2.137   0.996
  570SOL    HW1 1727   2.122   2.120   1.088
  570SOL    HW2 1728   1.999   2.092   0.984
  571SOL     OW 1729   1.881   2.230   0.647
  571SOL    HW1 1730   1.799   2.273   0.686
  571SOL    HW2 1731   1.853   2.157   0.584
  572SOL     OW 1732   2.712   2.660   1.823
  572SOL    HW1 1733   2.708   2.736   1.888
  572SOL    HW2 1734   2.734   2.696   1.732
  573SOL     OW 1735   2.547   2.874   0.665
  573SOL    HW1 1736   2.616   2.858   0.735
  573SOL    HW2 1737   2.474   2.931   0.703
  574SOL     OW 1738   2.300   2.254   1.499
  574SOL    HW1 1739   2.382   2.198   1.508
  574SOL    HW2 1740   2.219   2.196   1.503
  575SOL     OW 1741   1.984   2.505   0.563
  575SOL    HW1 1742   1.939   2.417   0.580
  575SOL    HW2 1743   1.983   2.559   0.647
  576SOL     OW 1744   1.975   2.599   1.597
  576SOL    HW1 1745   2.063   2.586   1.642
  576SOL    HW2 1746   1.962   2.696   1.575
  577SOL     OW 1747   2.671   1.866   0.502
  577SOL    HW1 1748   2.711   1.957   0.493
  577SOL    HW2 1749   2.571   1.874   0.508
  578SOL     OW 1750   2.179   2.113   1.801
  578SOL    HW1 1751   2.250   2.184   1.807
  578SOL    HW2 1752   2.091   2.152   1.829
  579SOL     OW 1753   2.460   2.591   0.270
  579SOL    HW1 1754   2.484   2.660   0.202
  579SOL    HW2 1755   2.382   2.624   0.324
  580SOL     OW 1756   2.412   2.058   0.885
  580SOL    HW1 1757   2.407   2.053   0.985
  580SOL    HW2 1758   2.414   2.154   0.856
  581SOL     OW 1759   2.064   2.147   1.498
  581SOL    HW1 1760   1.984   2.207   1.485
  581SOL    HW2 1761   2.054   2.098   1.584
  582SOL     OW 1762   2.244   2.562   0.480
  582SOL    HW1 1763   2.289   2.472   0.477
  582SOL    HW2 1764   2.150   2.551   0.513
  583SOL     OW 1765   2.784   2.365   0.899
  583SOL    HW1 1766   2.759   2.356   0.803
  583SOL    HW2 1767   2.832   2.283   0.930
  584SOL     OW 1768   2.401   1.926   0.512
  584SOL    HW1 1769   2.320   1.927   0.570
  584SOL    HW2 1770   2.404   2.009   0.457
  585SOL     OW 1771   2.159   1.897   0.171
  585SOL    HW1 1772   2.208   1.981   0.150
  585SOL    HW2 1773   2.221   1.832   0.216
  586SOL     OW 1774   1.940   2.418   1.386
  586SOL    HW1 1775   2.032   2.417   1.345
  586SOL    HW2 1776   1.934   2.492   1.453
  587SOL     OW 1777   2.423   2.084   1.147
  587SOL    HW1 1778   2.461   2.000   1.184
  587SOL    HW2 1779   2.335   2.103   1.191
  588SOL     OW 1780   2.389   2.118   0.328
  588SOL    HW1 1781   2.416   2.059   0.253
  588SOL    HW2 1782   2.389   2.213   0.297
  589SOL     OW 1783   2.777   1.951   1.402
  589SOL    HW1 1784   2.802   1.931   1.307
  589SOL    HW2 1785   2.849   2.007   1.444
  590SOL     OW 1786   2.272   2.675   1.251
  590SOL    HW1 1787   2.358   2.687   1.301
  590SOL    HW2 1788   2.230   2.588   1.278
  591SOL     OW 1789   2.428   2.399   0.865
  591SOL    HW1 1790   2.440   2.465   0.791
  591SOL    HW2 1791   2.474   2.433   0.948
  592SOL     OW 1792   2.875   1.967   1.770
  592SOL    HW1 1793   2.881   2.052   1.718
  592SOL    HW2 1794   2.907   1.891   1.713
  593SOL     OW 1795   2.366   1.912   1.740
  593SOL    HW1 1796   2.324   1.855   1.670
  593SOL    HW2 1797   2.300   1.981   1.772
  594SOL     OW 1798   2.169   2.075   1.231
  594SOL    HW1 1799   2.146   2.112   1.321
  594SOL    HW2 1800   2.139   1.980   1.225
  595SOL     OW 1801   2.169   1.925   0.618
  595SOL    HW1 1802   2.158   2.019   0.651
  595SOL    HW2 1803   2.164   1.862   0.695
  596SOL     OW 1804   2.181   2.672   0.949
  596SOL    HW1 1805   2.274   2.708   0.954
  596SOL    HW2 1806   2.175   2.587   1.001
  597SOL     OW 1807   2.201   2.371   1.006
  597SOL    HW1 1808   2.149   2.288   0.989
  597SOL    HW2 1809   2.278   2.376   0.942
  598SOL     OW 1810   1.902   2.406   1.114
  598SOL    HW1 1811   1.987   2.373   1.073
  598SOL    HW2 1812   1.915   2.421   1.212
  599SOL     OW 1813   2.051   2.382   1.722
  599SOL    HW1 1814   2.110   2.342   1.652
  599SOL    HW2 1815   1.993   2.453   1.681
  600SOL     OW 1816   2.533   2.326   1.269
  600SOL    HW1 1817   2.499   2.237   1.239
  600SOL    HW2 1818   2.559   2.380   1.189
  601SOL     OW 1819   2.335   2.362   0.191
  601SOL    HW1 1820   2.396   2.442   0.195
  601SOL    HW2 1821   2.240   2.393   0.198
  602SOL     OW 1822   2.125   2.188   0.720
  602SOL    HW1 1823   2.046   2.239   0.686
  602SOL    HW2 1824   2.116   2.173   0.818
  603SOL     OW 1825   1.967   2.875   1.726
  603SOL    HW1 1826   1.890   2.842   1.780
  603SOL    HW2 1827   2.052   2.845   1.768
  604SOL     OW 1828   2.534   2.065   1.489
  604SOL    HW1 1829   2.624   2.049   1.449
  604SOL    HW2 1830   2.542   2.070   1.588
  605SOL     OW 1831   1.937   2.207   0.033
  605SOL    HW1 1832   1.845   2.179   0.004
  605SOL    HW2 1833   1.968   2.284  -0.023
  606SOL     OW 1834   1.934   2.028   0.318
  606SOL    HW1 1835   1.917   2.111   0.264
  606SOL    HW2 1836   2.024   1.991   0.296
  607SOL     OW 1837   2.578   2.427   1.708
  607SOL    HW1 1838   2.597   2.492   1.782
  607SOL    HW2 1839   2.638   2.347   1.717
  608SOL     OW 1840   2.456   2.607   0.652
  608SOL    HW1 1841   2.506   2.692   0.633
  608SOL    HW2 1842   2.368   2.609   0.604
  609SOL     OW 1843   2.290   2.286   0.520
  609SOL    HW1 1844   2.320   2.214   0.458
  609SOL    HW2 1845   2.251   2.246   0.603
  610SOL     OW 1846   2.179   2.409   1.280
  610SOL    HW1 1847   2.217   2.350   1.352
  610SOL    HW2 1848   2.219   2.383   1.192
  611SOL     OW 1849   2.092   2.490   1.975
  611SOL    HW1 1850   1.999   2.488   2.012
  611SOL    HW2 1851   2.093   2.451   1.883
  612SOL     OW 1852   1.881   2.230   2.509
  612SOL    HW1 1853   1.799   2.273   2.548
  612SOL    HW2 1854   1.853   2.157   2.446
  613SOL     OW 1855   2.547   2.874   2.527
  613SOL    HW1 1856   2.616   2.858   2.597
  613SOL    HW2 1857   2.474   2.931   2.565
  614SOL     OW 1858   1.984   2.505   2.425
  614SOL    HW1 1859   1.939   2.417   2.442
  614SOL    HW2 1860   1.983   2.559   2.509
  615SOL     OW 1861   2.671   1.866   2.364
  615SOL    HW1 1862   2.711   1.957   2.355
  615SOL    HW2 1863   2.571   1.874   2.370
  616SOL     OW 1864   2.460   2.591   2.132
  616SOL    HW1 1865   2.484   2.660   2.064
  616SOL    HW2 1866   2.382   2.624   2.186
  617SOL     OW 1867   2.244   2.562   2.342
  617SOL    HW1 1868   2.289   2.472   2.339
  617SOL    HW2 1869   2.150   2.551   2.375
  618SOL     OW 1870   2.476   1.984   1.979
  618SOL    HW1 1871   2.574   1.962   1.986
  618SOL    HW2 1872   2.445   1.967   1.886
  619SOL     OW 1873   2.401   1.926   2.374
  619SOL    HW1 1874   2.320   1.927   2.432
  619SOL    HW2 1875   2.404   2.009   2.319
  620SOL     OW 1876   2.159   1.897   2.033
  620SOL    HW1 1877   2.208   1.981   2.012
  620SOL    HW2 1878   2.221   1.832   2.078
  621SOL     OW 1879   2.389   2.118   2.190
  621SOL    HW1 1880   2.416   2.059   2.115
  621SOL    HW2 1881   2.389   2.213   2.159
  622SOL     OW 1882   2.169   1.925   2.480
  622SOL    HW1 1883   2.158   2.019   2.513
  622SOL    HW2 1884   2.164   1.862   2.557
  623SOL     OW 1885   2.677   2.434   2.187
  623SOL    HW1 1886   2.684   2.345   2.141
  623SOL    HW2 1887   2.583   2.468   2.179
  624SOL     OW 1888   2.335   2.362   2.053
  624SOL    HW1 1889   2.396   2.442   2.057
  624SOL    HW2 1890   2.240   2.393   2.060
  625SOL     OW 1891   2.125   2.188   2.582
  625SOL    HW1 1892   2.046   2.239   2.548
  625SOL    HW2 1893   2.116   2.173   2.680
  626SOL     OW 1894   1.937   2.207   1.895
  626SOL    HW1 1895   1.845   2.179   1.866
  626SOL    HW2 1896   1.968   2.284   1.839
  627SOL     OW 1897   1.934   2.028   2.180
  627SOL    HW1 1898   1.917   2.111   2.126
  627SOL    HW2 1899   2.024   1.991   2.158
  628SOL     OW 1900   2.456   2.607   2.514
  628SOL    HW1 1901   2.506   2.692   2.495
  628SOL    HW2 1902   2.368   2.609   2.466
  629SOL     OW 1903   2.290   2.286   2.382
  629SOL    HW1 1904   2.320   2.214   2.320
  629SOL    HW2 1905   2.251   2.246   2.465
   2.68651   2.68651   2.68651
