; mobley_8124669_GMX.itp created by acpype (v: 2023.10.27) on Thu May 14 13:47:39 2026

[ atomtypes ]
;name   bond_type     mass     charge   ptype   sigma         epsilon       Amb
 ca       ca          0.00000  0.00000   A     3.31521e-01   4.13379e-01 ; 1.86  0.0988
 c        c           0.00000  0.00000   A     3.31521e-01   4.13379e-01 ; 1.86  0.0988
 c3       c3          0.00000  0.00000   A     3.39771e-01   4.51035e-01 ; 1.91  0.1078
 n        n           0.00000  0.00000   A     3.18086e-01   6.84502e-01 ; 1.79  0.1636
 o        o           0.00000  0.00000   A     3.04812e-01   6.12119e-01 ; 1.71  0.1463
 os       os          0.00000  0.00000   A     3.15610e-01   3.03758e-01 ; 1.77  0.0726
 cl       cl          0.00000  0.00000   A     3.46595e-01   1.10374e+00 ; 1.95  0.2638
 ha       ha          0.00000  0.00000   A     2.62548e-01   6.73624e-02 ; 1.47  0.0161
 hc       hc          0.00000  0.00000   A     2.60018e-01   8.70272e-02 ; 1.46  0.0208
 h1       h1          0.00000  0.00000   A     2.42200e-01   8.70272e-02 ; 1.36  0.0208
 h2       h2          0.00000  0.00000   A     2.24382e-01   8.70272e-02 ; 1.26  0.0208

[ moleculetype ]
;name            nrexcl
 mobley_8124669   3

[ atoms ]
;   nr  type  resi  res  atom  cgnr     charge      mass       ; qtot   bond_type
     1   ca     1   MOL    C1    1    -0.117000     12.01000 ; qtot -0.117
     2   ca     1   MOL    C2    2    -0.133500     12.01000 ; qtot -0.251
     3   ca     1   MOL    C3    3    -0.133500     12.01000 ; qtot -0.384
     4   ca     1   MOL    C4    4    -0.063800     12.01000 ; qtot -0.448
     5   ca     1   MOL    C5    5    -0.063800     12.01000 ; qtot -0.512
     6   ca     1   MOL    C6    6     0.026600     12.01000 ; qtot -0.485
     7    c     1   MOL    C7    7     0.659103     12.01000 ; qtot 0.174
     8   c3     1   MOL    C8    8    -0.089600     12.01000 ; qtot 0.085
     9   c3     1   MOL    C9    9    -0.089600     12.01000 ; qtot -0.005
    10   c3     1   MOL   C10   10     0.111700     12.01000 ; qtot 0.107
    11   c3     1   MOL   C11   11    -0.044600     12.01000 ; qtot 0.062
    12   c3     1   MOL   C12   12    -0.044600     12.01000 ; qtot 0.017
    13   c3     1   MOL   C13   13    -0.044000     12.01000 ; qtot -0.027
    14   c3     1   MOL   C14   14     0.295800     12.01000 ; qtot 0.269
    15    n     1   MOL    N1   15    -0.414000     14.01000 ; qtot -0.145
    16    o     1   MOL    O1   16    -0.597100     16.00000 ; qtot -0.742
    17   os     1   MOL    O2   17    -0.431600     16.00000 ; qtot -1.173
    18   cl     1   MOL   CL1   18    -0.147400     35.45000 ; qtot -1.321
    19   ha     1   MOL    H1   19     0.136000      1.00800 ; qtot -1.185
    20   ha     1   MOL    H2   20     0.137500      1.00800 ; qtot -1.047
    21   ha     1   MOL    H3   21     0.137500      1.00800 ; qtot -0.910
    22   hc     1   MOL    H4   22     0.037533      1.00800 ; qtot -0.872
    23   hc     1   MOL    H5   23     0.037533      1.00800 ; qtot -0.835
    24   hc     1   MOL    H6   24     0.037533      1.00800 ; qtot -0.797
    25   hc     1   MOL    H7   25     0.037533      1.00800 ; qtot -0.760
    26   hc     1   MOL    H8   26     0.037533      1.00800 ; qtot -0.722
    27   hc     1   MOL    H9   27     0.037533      1.00800 ; qtot -0.685
    28   h1     1   MOL   H10   28     0.042033      1.00800 ; qtot -0.643
    29   h1     1   MOL   H11   29     0.042033      1.00800 ; qtot -0.601
    30   h1     1   MOL   H12   30     0.042033      1.00800 ; qtot -0.559
    31   hc     1   MOL   H13   31     0.055200      1.00800 ; qtot -0.503
    32   hc     1   MOL   H14   32     0.055200      1.00800 ; qtot -0.448
    33   hc     1   MOL   H15   33     0.055200      1.00800 ; qtot -0.393
    34   hc     1   MOL   H16   34     0.055200      1.00800 ; qtot -0.338
    35   h1     1   MOL   H17   35     0.093700      1.00800 ; qtot -0.244
    36   h1     1   MOL   H18   36     0.093700      1.00800 ; qtot -0.150
    37   h2     1   MOL   H19   37     0.075200      1.00800 ; qtot -0.075
    38   h2     1   MOL   H20   38     0.075200      1.00800 ; qtot -0.000

[ bonds ]
;   ai     aj funct   r             k
     1      2   1    1.3986e-01    2.9644e+05 ;     C1 - C2    
     1      3   1    1.3986e-01    2.9644e+05 ;     C1 - C3    
     1     19   1    1.0860e-01    3.0183e+05 ;     C1 - H1    
     2      4   1    1.3986e-01    2.9644e+05 ;     C2 - C4    
     2     20   1    1.0860e-01    3.0183e+05 ;     C2 - H2    
     3      5   1    1.3986e-01    2.9644e+05 ;     C3 - C5    
     3     21   1    1.0860e-01    3.0183e+05 ;     C3 - H3    
     4      6   1    1.3986e-01    2.9644e+05 ;     C4 - C6    
     4     11   1    1.5147e-01    2.0410e+05 ;     C4 - C11   
     5      6   1    1.3986e-01    2.9644e+05 ;     C5 - C6    
     5     12   1    1.5147e-01    2.0410e+05 ;     C5 - C12   
     6     15   1    1.4228e-01    2.4360e+05 ;     C6 - N1    
     7     13   1    1.5270e-01    1.9652e+05 ;     C7 - C13   
     7     15   1    1.3967e-01    2.6565e+05 ;     C7 - N1    
     7     16   1    1.2190e-01    4.9421e+05 ;     C7 - O1    
     8     11   1    1.5354e-01    1.9154e+05 ;     C8 - C11   
     8     22   1    1.0962e-01    2.8891e+05 ;     C8 - H4    
     8     23   1    1.0962e-01    2.8891e+05 ;     C8 - H5    
     8     24   1    1.0962e-01    2.8891e+05 ;     C8 - H6    
     9     12   1    1.5354e-01    1.9154e+05 ;     C9 - C12   
     9     25   1    1.0962e-01    2.8891e+05 ;     C9 - H7    
     9     26   1    1.0962e-01    2.8891e+05 ;     C9 - H8    
     9     27   1    1.0962e-01    2.8891e+05 ;     C9 - H9    
    10     17   1    1.4273e-01    2.3620e+05 ;    C10 - O2    
    10     28   1    1.0969e-01    2.8804e+05 ;    C10 - H10   
    10     29   1    1.0969e-01    2.8804e+05 ;    C10 - H11   
    10     30   1    1.0969e-01    2.8804e+05 ;    C10 - H12   
    11     31   1    1.0962e-01    2.8891e+05 ;    C11 - H13   
    11     32   1    1.0962e-01    2.8891e+05 ;    C11 - H14   
    12     33   1    1.0962e-01    2.8891e+05 ;    C12 - H15   
    12     34   1    1.0962e-01    2.8891e+05 ;    C12 - H16   
    13     18   1    1.8092e-01    1.3724e+05 ;    C13 - CL1   
    13     35   1    1.0969e-01    2.8804e+05 ;    C13 - H17   
    13     36   1    1.0969e-01    2.8804e+05 ;    C13 - H18   
    14     15   1    1.4643e-01    2.1293e+05 ;    C14 - N1    
    14     17   1    1.4273e-01    2.3620e+05 ;    C14 - O2    
    14     37   1    1.0950e-01    2.9039e+05 ;    C14 - H19   
    14     38   1    1.0950e-01    2.9039e+05 ;    C14 - H20   

[ pairs ]
;   ai     aj    funct
     1      6      1 ;     C1 - C6    
     1     11      1 ;     C1 - C11   
     1     12      1 ;     C1 - C12   
     2      5      1 ;     C2 - C5    
     2      8      1 ;     C2 - C8    
     2     15      1 ;     C2 - N1    
     2     21      1 ;     C2 - H3    
     2     31      1 ;     C2 - H13   
     2     32      1 ;     C2 - H14   
     3      4      1 ;     C3 - C4    
     3      9      1 ;     C3 - C9    
     3     15      1 ;     C3 - N1    
     3     20      1 ;     C3 - H2    
     3     33      1 ;     C3 - H15   
     3     34      1 ;     C3 - H16   
     4      7      1 ;     C4 - C7    
     4     12      1 ;     C4 - C12   
     4     14      1 ;     C4 - C14   
     4     22      1 ;     C4 - H4    
     4     23      1 ;     C4 - H5    
     4     24      1 ;     C4 - H6    
     5      7      1 ;     C5 - C7    
     5     11      1 ;     C5 - C11   
     5     14      1 ;     C5 - C14   
     5     25      1 ;     C5 - H7    
     5     26      1 ;     C5 - H8    
     5     27      1 ;     C5 - H9    
     6      8      1 ;     C6 - C8    
     6      9      1 ;     C6 - C9    
     6     13      1 ;     C6 - C13   
     6     16      1 ;     C6 - O1    
     6     17      1 ;     C6 - O2    
     6     20      1 ;     C6 - H2    
     6     21      1 ;     C6 - H3    
     6     31      1 ;     C6 - H13   
     6     32      1 ;     C6 - H14   
     6     33      1 ;     C6 - H15   
     6     34      1 ;     C6 - H16   
     6     37      1 ;     C6 - H19   
     6     38      1 ;     C6 - H20   
     7     17      1 ;     C7 - O2    
     7     37      1 ;     C7 - H19   
     7     38      1 ;     C7 - H20   
    10     15      1 ;    C10 - N1    
    10     37      1 ;    C10 - H19   
    10     38      1 ;    C10 - H20   
    11     15      1 ;    C11 - N1    
    11     20      1 ;    C11 - H2    
    12     15      1 ;    C12 - N1    
    12     21      1 ;    C12 - H3    
    13     14      1 ;    C13 - C14   
    14     16      1 ;    C14 - O1    
    14     28      1 ;    C14 - H10   
    14     29      1 ;    C14 - H11   
    14     30      1 ;    C14 - H12   
    15     18      1 ;     N1 - CL1   
    15     35      1 ;     N1 - H17   
    15     36      1 ;     N1 - H18   
    16     18      1 ;     O1 - CL1   
    16     35      1 ;     O1 - H17   
    16     36      1 ;     O1 - H18   
    19      4      1 ;     H1 - C4    
    19      5      1 ;     H1 - C5    
    19     20      1 ;     H1 - H2    
    19     21      1 ;     H1 - H3    
    22     31      1 ;     H4 - H13   
    22     32      1 ;     H4 - H14   
    23     31      1 ;     H5 - H13   
    23     32      1 ;     H5 - H14   
    24     31      1 ;     H6 - H13   
    24     32      1 ;     H6 - H14   
    25     33      1 ;     H7 - H15   
    25     34      1 ;     H7 - H16   
    26     33      1 ;     H8 - H15   
    26     34      1 ;     H8 - H16   
    27     33      1 ;     H9 - H15   
    27     34      1 ;     H9 - H16   

[ angles ]
;   ai     aj     ak    funct   theta         cth
     1      2      4      1    1.2002e+02    5.3279e+02 ;     C1 - C2     - C4    
     1      2     20      1    1.1988e+02    3.7572e+02 ;     C1 - C2     - H2    
     1      3      5      1    1.2002e+02    5.3279e+02 ;     C1 - C3     - C5    
     1      3     21      1    1.1988e+02    3.7572e+02 ;     C1 - C3     - H3    
     2      1      3      1    1.2002e+02    5.3279e+02 ;     C2 - C1     - C3    
     2      1     19      1    1.1988e+02    3.7572e+02 ;     C2 - C1     - H1    
     2      4      6      1    1.2002e+02    5.3279e+02 ;     C2 - C4     - C6    
     2      4     11      1    1.2083e+02    5.0827e+02 ;     C2 - C4     - C11   
     3      1     19      1    1.1988e+02    3.7572e+02 ;     C3 - C1     - H1    
     3      5      6      1    1.2002e+02    5.3279e+02 ;     C3 - C5     - C6    
     3      5     12      1    1.2083e+02    5.0827e+02 ;     C3 - C5     - C12   
     4      2     20      1    1.1988e+02    3.7572e+02 ;     C4 - C2     - H2    
     4      6      5      1    1.2002e+02    5.3279e+02 ;     C4 - C6     - C5    
     4      6     15      1    1.2019e+02    5.6032e+02 ;     C4 - C6     - N1    
     4     11      8      1    1.1242e+02    5.0484e+02 ;     C4 - C11    - C8    
     4     11     31      1    1.1063e+02    3.6493e+02 ;     C4 - C11    - H13   
     4     11     32      1    1.1063e+02    3.6493e+02 ;     C4 - C11    - H14   
     5      3     21      1    1.1988e+02    3.7572e+02 ;     C5 - C3     - H3    
     5      6     15      1    1.2019e+02    5.6032e+02 ;     C5 - C6     - N1    
     5     12      9      1    1.1242e+02    5.0484e+02 ;     C5 - C12    - C9    
     5     12     33      1    1.1063e+02    3.6493e+02 ;     C5 - C12    - H15   
     5     12     34      1    1.1063e+02    3.6493e+02 ;     C5 - C12    - H16   
     6      4     11      1    1.2083e+02    5.0827e+02 ;     C6 - C4     - C11   
     6      5     12      1    1.2083e+02    5.0827e+02 ;     C6 - C5     - C12   
     6     15      7      1    1.2266e+02    6.4609e+02 ;     C6 - N1     - C7    
     6     15     14      1    1.1934e+02    6.3957e+02 ;     C6 - N1     - C14   
     7     13     18      1    1.1058e+02    5.3296e+02 ;     C7 - C13    - CL1   
     7     13     35      1    1.0837e+02    3.6602e+02 ;     C7 - C13    - H17   
     7     13     36      1    1.0837e+02    3.6602e+02 ;     C7 - C13    - H18   
     7     15     14      1    1.1883e+02    6.4634e+02 ;     C7 - N1     - C14   
     8     11     31      1    1.0968e+02    3.6208e+02 ;     C8 - C11    - H13   
     8     11     32      1    1.0968e+02    3.6208e+02 ;     C8 - C11    - H14   
     9     12     33      1    1.0968e+02    3.6208e+02 ;     C9 - C12    - H15   
     9     12     34      1    1.0968e+02    3.6208e+02 ;     C9 - C12    - H16   
    10     17     14      1    1.1360e+02    7.3915e+02 ;    C10 - O2     - C14   
    11      8     22      1    1.0968e+02    3.6208e+02 ;    C11 - C8     - H4    
    11      8     23      1    1.0968e+02    3.6208e+02 ;    C11 - C8     - H5    
    11      8     24      1    1.0968e+02    3.6208e+02 ;    C11 - C8     - H6    
    12      9     25      1    1.0968e+02    3.6208e+02 ;    C12 - C9     - H7    
    12      9     26      1    1.0968e+02    3.6208e+02 ;    C12 - C9     - H8    
    12      9     27      1    1.0968e+02    3.6208e+02 ;    C12 - C9     - H9    
    13      7     15      1    1.1716e+02    5.4551e+02 ;    C13 - C7     - N1    
    13      7     16      1    1.2290e+02    6.3973e+02 ;    C13 - C7     - O1    
    15      7     16      1    1.2257e+02    7.2534e+02 ;     N1 - C7     - O1    
    15     14     17      1    1.0948e+02    7.0049e+02 ;     N1 - C14    - O2    
    15     14     37      1    1.0758e+02    4.0468e+02 ;     N1 - C14    - H19   
    15     14     38      1    1.0758e+02    4.0468e+02 ;     N1 - C14    - H20   
    17     10     28      1    1.1034e+02    4.7028e+02 ;     O2 - C10    - H10   
    17     10     29      1    1.1034e+02    4.7028e+02 ;     O2 - C10    - H11   
    17     10     30      1    1.1034e+02    4.7028e+02 ;     O2 - C10    - H12   
    17     14     37      1    1.1103e+02    4.6894e+02 ;     O2 - C14    - H19   
    17     14     38      1    1.1103e+02    4.6894e+02 ;     O2 - C14    - H20   
    18     13     35      1    1.0682e+02    3.6183e+02 ;    CL1 - C13    - H17   
    18     13     36      1    1.0682e+02    3.6183e+02 ;    CL1 - C13    - H18   
    22      8     23      1    1.0773e+02    2.9957e+02 ;     H4 - C8     - H5    
    22      8     24      1    1.0773e+02    2.9957e+02 ;     H4 - C8     - H6    
    23      8     24      1    1.0773e+02    2.9957e+02 ;     H5 - C8     - H6    
    25      9     26      1    1.0773e+02    2.9957e+02 ;     H7 - C9     - H8    
    25      9     27      1    1.0773e+02    2.9957e+02 ;     H7 - C9     - H9    
    26      9     27      1    1.0773e+02    2.9957e+02 ;     H8 - C9     - H9    
    28     10     29      1    1.0855e+02    2.9824e+02 ;    H10 - C10    - H11   
    28     10     30      1    1.0855e+02    2.9824e+02 ;    H10 - C10    - H12   
    29     10     30      1    1.0855e+02    2.9824e+02 ;    H11 - C10    - H12   
    31     11     32      1    1.0773e+02    2.9957e+02 ;    H13 - C11    - H14   
    33     12     34      1    1.0773e+02    2.9957e+02 ;    H15 - C12    - H16   
    35     13     36      1    1.0855e+02    2.9824e+02 ;    H17 - C13    - H18   
    37     14     38      1    1.0951e+02    2.9748e+02 ;    H19 - C14    - H20   

[ dihedrals ] ; propers
; for gromacs 4.5 or higher, using funct 9
;    i      j      k      l   func   phase     kd      pn
     1      2      4      6      9   180.00  15.16700   2 ;     C1-    C2-    C4-    C6
     1      2      4     11      9   180.00  15.16700   2 ;     C1-    C2-    C4-   C11
     1      3      5      6      9   180.00  15.16700   2 ;     C1-    C3-    C5-    C6
     1      3      5     12      9   180.00  15.16700   2 ;     C1-    C3-    C5-   C12
     2      1      3      5      9   180.00  15.16700   2 ;     C2-    C1-    C3-    C5
     2      1      3     21      9   180.00  15.16700   2 ;     C2-    C1-    C3-    H3
     2      4      6      5      9   180.00  15.16700   2 ;     C2-    C4-    C6-    C5
     2      4      6     15      9   180.00  15.16700   2 ;     C2-    C4-    C6-    N1
     2      4     11      8      9   180.00   1.00416   2 ;     C2-    C4-   C11-    C8
     2      4     11     31      9     0.00   0.00000   0 ;     C2-    C4-   C11-   H13
     2      4     11     32      9     0.00   0.00000   0 ;     C2-    C4-   C11-   H14
     3      1      2      4      9   180.00  15.16700   2 ;     C3-    C1-    C2-    C4
     3      1      2     20      9   180.00  15.16700   2 ;     C3-    C1-    C2-    H2
     3      5      6      4      9   180.00  15.16700   2 ;     C3-    C5-    C6-    C4
     3      5      6     15      9   180.00  15.16700   2 ;     C3-    C5-    C6-    N1
     3      5     12      9      9   180.00   1.00416   2 ;     C3-    C5-   C12-    C9
     3      5     12     33      9     0.00   0.00000   0 ;     C3-    C5-   C12-   H15
     3      5     12     34      9     0.00   0.00000   0 ;     C3-    C5-   C12-   H16
     4      6      5     12      9   180.00  15.16700   2 ;     C4-    C6-    C5-   C12
     4      6     15      7      9   180.00   3.97480   2 ;     C4-    C6-    N1-    C7
     4      6     15     14      9     0.00   8.36800   3 ;     C4-    C6-    N1-   C14
     4      6     15     14      9     0.00  41.79816   1 ;     C4-    C6-    N1-   C14
     4      6     15     14      9   180.00   6.49566   2 ;     C4-    C6-    N1-   C14
     4     11      8     22      9     0.00   0.65084   3 ;     C4-   C11-    C8-    H4
     4     11      8     23      9     0.00   0.65084   3 ;     C4-   C11-    C8-    H5
     4     11      8     24      9     0.00   0.65084   3 ;     C4-   C11-    C8-    H6
     5      6      4     11      9   180.00  15.16700   2 ;     C5-    C6-    C4-   C11
     5      6     15      7      9   180.00   3.97480   2 ;     C5-    C6-    N1-    C7
     5      6     15     14      9     0.00   8.36800   3 ;     C5-    C6-    N1-   C14
     5      6     15     14      9     0.00  41.79816   1 ;     C5-    C6-    N1-   C14
     5      6     15     14      9   180.00   6.49566   2 ;     C5-    C6-    N1-   C14
     5     12      9     25      9     0.00   0.65084   3 ;     C5-   C12-    C9-    H7
     5     12      9     26      9     0.00   0.65084   3 ;     C5-   C12-    C9-    H8
     5     12      9     27      9     0.00   0.65084   3 ;     C5-   C12-    C9-    H9
     6      4      2     20      9   180.00  15.16700   2 ;     C6-    C4-    C2-    H2
     6      4     11      8      9   180.00   1.00416   2 ;     C6-    C4-   C11-    C8
     6      4     11     31      9     0.00   0.00000   0 ;     C6-    C4-   C11-   H13
     6      4     11     32      9     0.00   0.00000   0 ;     C6-    C4-   C11-   H14
     6      5      3     21      9   180.00  15.16700   2 ;     C6-    C5-    C3-    H3
     6      5     12      9      9   180.00   1.00416   2 ;     C6-    C5-   C12-    C9
     6      5     12     33      9     0.00   0.00000   0 ;     C6-    C5-   C12-   H15
     6      5     12     34      9     0.00   0.00000   0 ;     C6-    C5-   C12-   H16
     6     15      7     13      9     0.00   2.09200   3 ;     C6-    N1-    C7-   C13
     6     15      7     13      9   180.00   3.13800   2 ;     C6-    N1-    C7-   C13
     6     15      7     16      9   180.00  10.46000   2 ;     C6-    N1-    C7-    O1
     6     15     14     17      9     0.00   0.00000   0 ;     C6-    N1-   C14-    O2
     6     15     14     37      9     0.00   0.00000   0 ;     C6-    N1-   C14-   H19
     6     15     14     38      9     0.00   0.00000   0 ;     C6-    N1-   C14-   H20
     7     15     14     17      9     0.00   0.00000   0 ;     C7-    N1-   C14-    O2
     7     15     14     37      9     0.00   0.00000   0 ;     C7-    N1-   C14-   H19
     7     15     14     38      9     0.00   0.00000   0 ;     C7-    N1-   C14-   H20
    10     17     14     15      9     0.00   1.60387   3 ;    C10-    O2-   C14-    N1
    10     17     14     37      9     0.00   1.60387   3 ;    C10-    O2-   C14-   H19
    10     17     14     38      9     0.00   1.60387   3 ;    C10-    O2-   C14-   H20
    11      4      2     20      9   180.00  15.16700   2 ;    C11-    C4-    C2-    H2
    11      4      6     15      9   180.00  15.16700   2 ;    C11-    C4-    C6-    N1
    12      5      3     21      9   180.00  15.16700   2 ;    C12-    C5-    C3-    H3
    12      5      6     15      9   180.00  15.16700   2 ;    C12-    C5-    C6-    N1
    13      7     15     14      9     0.00   2.09200   3 ;    C13-    C7-    N1-   C14
    13      7     15     14      9     0.00  12.25912   1 ;    C13-    C7-    N1-   C14
    13      7     15     14      9   180.00   5.89944   2 ;    C13-    C7-    N1-   C14
    14     15      7     16      9   180.00  10.46000   2 ;    C14-    N1-    C7-    O1
    14     17     10     28      9     0.00   1.41001   3 ;    C14-    O2-   C10-   H10
    14     17     10     29      9     0.00   1.41001   3 ;    C14-    O2-   C10-   H11
    14     17     10     30      9     0.00   1.41001   3 ;    C14-    O2-   C10-   H12
    15      7     13     18      9   180.00   0.00000   2 ;     N1-    C7-   C13-   CL1
    15      7     13     35      9   180.00   0.00000   2 ;     N1-    C7-   C13-   H17
    15      7     13     36      9   180.00   0.00000   2 ;     N1-    C7-   C13-   H18
    16      7     13     18      9   180.00   0.00000   2 ;     O1-    C7-   C13-   CL1
    16      7     13     35      9     0.00   3.34720   1 ;     O1-    C7-   C13-   H17
    16      7     13     35      9   180.00   0.33472   3 ;     O1-    C7-   C13-   H17
    16      7     13     36      9     0.00   3.34720   1 ;     O1-    C7-   C13-   H18
    16      7     13     36      9   180.00   0.33472   3 ;     O1-    C7-   C13-   H18
    19      1      2      4      9   180.00  15.16700   2 ;     H1-    C1-    C2-    C4
    19      1      2     20      9   180.00  15.16700   2 ;     H1-    C1-    C2-    H2
    19      1      3      5      9   180.00  15.16700   2 ;     H1-    C1-    C3-    C5
    19      1      3     21      9   180.00  15.16700   2 ;     H1-    C1-    C3-    H3
    22      8     11     31      9     0.00   0.50208   3 ;     H4-    C8-   C11-   H13
    22      8     11     32      9     0.00   0.50208   3 ;     H4-    C8-   C11-   H14
    23      8     11     31      9     0.00   0.50208   3 ;     H5-    C8-   C11-   H13
    23      8     11     32      9     0.00   0.50208   3 ;     H5-    C8-   C11-   H14
    24      8     11     31      9     0.00   0.50208   3 ;     H6-    C8-   C11-   H13
    24      8     11     32      9     0.00   0.50208   3 ;     H6-    C8-   C11-   H14
    25      9     12     33      9     0.00   0.50208   3 ;     H7-    C9-   C12-   H15
    25      9     12     34      9     0.00   0.50208   3 ;     H7-    C9-   C12-   H16
    26      9     12     33      9     0.00   0.50208   3 ;     H8-    C9-   C12-   H15
    26      9     12     34      9     0.00   0.50208   3 ;     H8-    C9-   C12-   H16
    27      9     12     33      9     0.00   0.50208   3 ;     H9-    C9-   C12-   H15
    27      9     12     34      9     0.00   0.50208   3 ;     H9-    C9-   C12-   H16

[ dihedrals ] ; impropers
; treated as propers in GROMACS to use correct AMBER analytical function
;    i      j      k      l   func   phase     kd      pn
     1      4      2     20      4   180.00   4.60240   2 ;     C1-    C4-    C2-    H2
     1      5      3     21      4   180.00   4.60240   2 ;     C1-    C5-    C3-    H3
     2      6      4     11      4   180.00   4.60240   2 ;     C2-    C6-    C4-   C11
     4      5      6     15      4   180.00   4.60240   2 ;     C4-    C5-    C6-    N1
     7     14     15      6      4   180.00   4.60240   2 ;     C7-   C14-    N1-    C6
    12      3      5      6      4   180.00   4.60240   2 ;    C12-    C3-    C5-    C6
    13     15      7     16      4   180.00  43.93200   2 ;    C13-    N1-    C7-    O1
    19      1      3      2      4   180.00   4.60240   2 ;     H1-    C1-    C3-    C2
