; mobley_5499659_GMX.itp created by acpype (v: 2023.10.27) on Thu May 14 13:55:20 2026

[ atomtypes ]
;name   bond_type     mass     charge   ptype   sigma         epsilon       Amb
 cc       cc          0.00000  0.00000   A     3.31521e-01   4.13379e-01 ; 1.86  0.0988
 cd       cd          0.00000  0.00000   A     3.31521e-01   4.13379e-01 ; 1.86  0.0988
 c3       c3          0.00000  0.00000   A     3.39771e-01   4.51035e-01 ; 1.91  0.1078
 nc       nc          0.00000  0.00000   A     3.38417e-01   3.93714e-01 ; 1.90  0.0941
 na       na          0.00000  0.00000   A     3.20581e-01   8.54373e-01 ; 1.80  0.2042
 h4       h4          0.00000  0.00000   A     2.53639e-01   6.73624e-02 ; 1.42  0.0161
 h5       h5          0.00000  0.00000   A     2.44730e-01   6.73624e-02 ; 1.37  0.0161
 h1       h1          0.00000  0.00000   A     2.42200e-01   8.70272e-02 ; 1.36  0.0208

[ moleculetype ]
;name            nrexcl
 mobley_5499659   3

[ atoms ]
;   nr  type  resi  res  atom  cgnr     charge      mass       ; qtot   bond_type
     1   cc     1   MOL    C1    1     0.290200     12.01000 ; qtot 0.290
     2   cd     1   MOL    C2    2    -0.258600     12.01000 ; qtot 0.032
     3   cd     1   MOL    C3    3     0.385400     12.01000 ; qtot 0.417
     4   c3     1   MOL    C4    4     0.024600     12.01000 ; qtot 0.442
     5   nc     1   MOL    N1    5    -0.668000     14.01000 ; qtot -0.226
     6   na     1   MOL    N2    6    -0.208900     14.01000 ; qtot -0.435
     7   h4     1   MOL    H1    7     0.042100      1.00800 ; qtot -0.393
     8   h4     1   MOL    H2    8     0.176000      1.00800 ; qtot -0.217
     9   h5     1   MOL    H3    9     0.059100      1.00800 ; qtot -0.158
    10   h1     1   MOL    H4   10     0.052700      1.00800 ; qtot -0.105
    11   h1     1   MOL    H5   11     0.052700      1.00800 ; qtot -0.053
    12   h1     1   MOL    H6   12     0.052700      1.00800 ; qtot -0.000

[ bonds ]
;   ai     aj funct   r             k
     1      2   1    1.3730e-01    3.2321e+05 ;     C1 - C2    
     1      5   1    1.3629e-01    2.9793e+05 ;     C1 - N1    
     1      7   1    1.0809e-01    3.0854e+05 ;     C1 - H1    
     2      6   1    1.3830e-01    2.7819e+05 ;     C2 - N2    
     2      8   1    1.0818e-01    3.0735e+05 ;     C2 - H2    
     3      5   1    1.3171e-01    3.4961e+05 ;     C3 - N1    
     3      6   1    1.3830e-01    2.7819e+05 ;     C3 - N2    
     3      9   1    1.0821e-01    3.0695e+05 ;     C3 - H3    
     4      6   1    1.4639e-01    2.1321e+05 ;     C4 - N2    
     4     10   1    1.0969e-01    2.8804e+05 ;     C4 - H4    
     4     11   1    1.0969e-01    2.8804e+05 ;     C4 - H5    
     4     12   1    1.0969e-01    2.8804e+05 ;     C4 - H6    

[ pairs ]
;   ai     aj    funct
     1      4      1 ;     C1 - C4    
     1      9      1 ;     C1 - H3    
     2      9      1 ;     C2 - H3    
     2     10      1 ;     C2 - H4    
     2     11      1 ;     C2 - H5    
     2     12      1 ;     C2 - H6    
     3      8      1 ;     C3 - H2    
     3     10      1 ;     C3 - H4    
     3     11      1 ;     C3 - H5    
     3     12      1 ;     C3 - H6    
     4      5      1 ;     C4 - N1    
     4      8      1 ;     C4 - H2    
     4      9      1 ;     C4 - H3    
     5      8      1 ;     N1 - H2    
     7      3      1 ;     H1 - C3    
     7      6      1 ;     H1 - N2    
     7      8      1 ;     H1 - H2    

[ angles ]
;   ai     aj     ak    funct   theta         cth
     1      2      6      1    1.0899e+02    6.0241e+02 ;     C1 - C2     - N2    
     1      2      8      1    1.2764e+02    3.6987e+02 ;     C1 - C2     - H2    
     1      5      3      1    1.0915e+02    7.2032e+02 ;     C1 - N1     - C3    
     2      1      5      1    1.1799e+02    5.8325e+02 ;     C2 - C1     - N1    
     2      1      7      1    1.2911e+02    3.6777e+02 ;     C2 - C1     - H1    
     2      6      3      1    1.1090e+02    6.9279e+02 ;     C2 - N2     - C3    
     2      6      4      1    1.2550e+02    6.3170e+02 ;     C2 - N2     - C4    
     3      6      4      1    1.2550e+02    6.3170e+02 ;     C3 - N2     - C4    
     5      1      7      1    1.2076e+02    4.0610e+02 ;     N1 - C1     - H1    
     5      3      6      1    1.1302e+02    6.4024e+02 ;     N1 - C3     - N2    
     5      3      9      1    1.2529e+02    4.0911e+02 ;     N1 - C3     - H3    
     6      2      8      1    1.2017e+02    4.0233e+02 ;     N2 - C2     - H2    
     6      3      9      1    1.2083e+02    4.0116e+02 ;     N2 - C3     - H3    
     6      4     10      1    1.0876e+02    4.0250e+02 ;     N2 - C4     - H4    
     6      4     11      1    1.0876e+02    4.0250e+02 ;     N2 - C4     - H5    
     6      4     12      1    1.0876e+02    4.0250e+02 ;     N2 - C4     - H6    
    10      4     11      1    1.0855e+02    2.9824e+02 ;     H4 - C4     - H5    
    10      4     12      1    1.0855e+02    2.9824e+02 ;     H4 - C4     - H6    
    11      4     12      1    1.0855e+02    2.9824e+02 ;     H5 - C4     - H6    

[ dihedrals ] ; propers
; for gromacs 4.5 or higher, using funct 9
;    i      j      k      l   func   phase     kd      pn
     1      2      6      3      9   180.00   7.11280   2 ;     C1-    C2-    N2-    C3
     1      2      6      4      9   180.00   7.11280   2 ;     C1-    C2-    N2-    C4
     1      5      3      6      9   180.00  19.87400   2 ;     C1-    N1-    C3-    N2
     1      5      3      9      9   180.00  19.87400   2 ;     C1-    N1-    C3-    H3
     2      1      5      3      9   180.00  19.87400   2 ;     C2-    C1-    N1-    C3
     2      6      3      5      9   180.00   7.11280   2 ;     C2-    N2-    C3-    N1
     2      6      3      9      9   180.00   7.11280   2 ;     C2-    N2-    C3-    H3
     2      6      4     10      9     0.00   0.00000   0 ;     C2-    N2-    C4-    H4
     2      6      4     11      9     0.00   0.00000   0 ;     C2-    N2-    C4-    H5
     2      6      4     12      9     0.00   0.00000   0 ;     C2-    N2-    C4-    H6
     3      6      2      8      9   180.00   7.11280   2 ;     C3-    N2-    C2-    H2
     3      6      4     10      9     0.00   0.00000   0 ;     C3-    N2-    C4-    H4
     3      6      4     11      9     0.00   0.00000   0 ;     C3-    N2-    C4-    H5
     3      6      4     12      9     0.00   0.00000   0 ;     C3-    N2-    C4-    H6
     4      6      2      8      9   180.00   7.11280   2 ;     C4-    N2-    C2-    H2
     4      6      3      5      9   180.00   7.11280   2 ;     C4-    N2-    C3-    N1
     4      6      3      9      9   180.00   7.11280   2 ;     C4-    N2-    C3-    H3
     5      1      2      6      9   180.00  16.73600   2 ;     N1-    C1-    C2-    N2
     5      1      2      8      9   180.00  16.73600   2 ;     N1-    C1-    C2-    H2
     7      1      2      6      9   180.00  16.73600   2 ;     H1-    C1-    C2-    N2
     7      1      2      8      9   180.00  16.73600   2 ;     H1-    C1-    C2-    H2
     7      1      5      3      9   180.00  19.87400   2 ;     H1-    C1-    N1-    C3

[ dihedrals ] ; impropers
; treated as propers in GROMACS to use correct AMBER analytical function
;    i      j      k      l   func   phase     kd      pn
     1      8      2      6      4   180.00   4.60240   2 ;     C1-    H2-    C2-    N2
     4      2      6      3      4   180.00   4.60240   2 ;     C4-    C2-    N2-    C3
     5      1      7      2      4   180.00   4.60240   2 ;     N1-    C1-    H1-    C2
     9      6      3      5      4   180.00   4.60240   2 ;     H3-    N2-    C3-    N1
