; mobley_3047364_GMX.itp created by acpype (v: 2023.10.27) on Thu May 14 13:19:13 2026

[ atomtypes ]
;name   bond_type     mass     charge   ptype   sigma         epsilon       Amb
 ca       ca          0.00000  0.00000   A     3.31521e-01   4.13379e-01 ; 1.86  0.0988
 c3       c3          0.00000  0.00000   A     3.39771e-01   4.51035e-01 ; 1.91  0.1078
 nb       nb          0.00000  0.00000   A     3.38417e-01   3.93714e-01 ; 1.90  0.0941
 nu       nu          0.00000  0.00000   A     3.27904e-01   6.46428e-01 ; 1.84  0.1545
 ss       ss          0.00000  0.00000   A     3.53241e-01   1.18156e+00 ; 1.98  0.2824
 hc       hc          0.00000  0.00000   A     2.60018e-01   8.70272e-02 ; 1.46  0.0208
 h1       h1          0.00000  0.00000   A     2.42200e-01   8.70272e-02 ; 1.36  0.0208
 hn       hn          0.00000  0.00000   A     1.10650e-01   4.18400e-02 ; 0.62  0.0100

[ moleculetype ]
;name            nrexcl
 mobley_3047364   3

[ atoms ]
;   nr  type  resi  res  atom  cgnr     charge      mass       ; qtot   bond_type
     1   ca     1   MOL    C1    1     0.924898     12.01000 ; qtot 0.925
     2   ca     1   MOL    C2    2     0.926900     12.01000 ; qtot 1.852
     3   ca     1   MOL    C3    3     0.796300     12.01000 ; qtot 2.648
     4   c3     1   MOL    C4    4    -0.112100     12.01000 ; qtot 2.536
     5   c3     1   MOL    C5    5    -0.114100     12.01000 ; qtot 2.422
     6   c3     1   MOL    C6    6    -0.114100     12.01000 ; qtot 2.308
     7   c3     1   MOL    C7    7    -0.068000     12.01000 ; qtot 2.240
     8   c3     1   MOL    C8    8     0.212800     12.01000 ; qtot 2.453
     9   c3     1   MOL    C9    9     0.212500     12.01000 ; qtot 2.665
    10   nb     1   MOL    N1   10    -0.853000     14.01000 ; qtot 1.812
    11   nb     1   MOL    N2   11    -0.798000     14.01000 ; qtot 1.014
    12   nb     1   MOL    N3   12    -0.834000     14.01000 ; qtot 0.180
    13   nu     1   MOL    N4   13    -0.845900     14.01000 ; qtot -0.666
    14   nu     1   MOL    N5   14    -0.824900     14.01000 ; qtot -1.491
    15   ss     1   MOL    S1   15    -0.194400     32.06000 ; qtot -1.685
    16   hc     1   MOL    H1   16     0.045033      1.00800 ; qtot -1.640
    17   hc     1   MOL    H2   17     0.045033      1.00800 ; qtot -1.595
    18   hc     1   MOL    H3   18     0.045033      1.00800 ; qtot -1.550
    19   hc     1   MOL    H4   19     0.043867      1.00800 ; qtot -1.506
    20   hc     1   MOL    H5   20     0.043867      1.00800 ; qtot -1.462
    21   hc     1   MOL    H6   21     0.043867      1.00800 ; qtot -1.418
    22   hc     1   MOL    H7   22     0.043867      1.00800 ; qtot -1.375
    23   hc     1   MOL    H8   23     0.043867      1.00800 ; qtot -1.331
    24   hc     1   MOL    H9   24     0.043867      1.00800 ; qtot -1.287
    25   h1     1   MOL   H10   25     0.075367      1.00800 ; qtot -1.211
    26   h1     1   MOL   H11   26     0.075367      1.00800 ; qtot -1.136
    27   h1     1   MOL   H12   27     0.075367      1.00800 ; qtot -1.061
    28   h1     1   MOL   H13   28     0.055700      1.00800 ; qtot -1.005
    29   h1     1   MOL   H14   29     0.055700      1.00800 ; qtot -0.949
    30   h1     1   MOL   H15   30     0.082700      1.00800 ; qtot -0.867
    31   hn     1   MOL   H16   31     0.439800      1.00800 ; qtot -0.427
    32   hn     1   MOL   H17   32     0.426800      1.00800 ; qtot -0.000

[ bonds ]
;   ai     aj funct   r             k
     1     10   1    1.3392e-01    3.2341e+05 ;     C1 - N1    
     1     11   1    1.3392e-01    3.2341e+05 ;     C1 - N2    
     1     13   1    1.3944e-01    2.6771e+05 ;     C1 - N4    
     2     10   1    1.3392e-01    3.2341e+05 ;     C2 - N1    
     2     12   1    1.3392e-01    3.2341e+05 ;     C2 - N3    
     2     14   1    1.3944e-01    2.6771e+05 ;     C2 - N5    
     3     11   1    1.3392e-01    3.2341e+05 ;     C3 - N2    
     3     12   1    1.3392e-01    3.2341e+05 ;     C3 - N3    
     3     15   1    1.7847e-01    1.7864e+05 ;     C3 - S1    
     4      8   1    1.5354e-01    1.9154e+05 ;     C4 - C8    
     4     16   1    1.0962e-01    2.8891e+05 ;     C4 - H1    
     4     17   1    1.0962e-01    2.8891e+05 ;     C4 - H2    
     4     18   1    1.0962e-01    2.8891e+05 ;     C4 - H3    
     5      9   1    1.5354e-01    1.9154e+05 ;     C5 - C9    
     5     19   1    1.0962e-01    2.8891e+05 ;     C5 - H4    
     5     20   1    1.0962e-01    2.8891e+05 ;     C5 - H5    
     5     21   1    1.0962e-01    2.8891e+05 ;     C5 - H6    
     6      9   1    1.5354e-01    1.9154e+05 ;     C6 - C9    
     6     22   1    1.0962e-01    2.8891e+05 ;     C6 - H7    
     6     23   1    1.0962e-01    2.8891e+05 ;     C6 - H8    
     6     24   1    1.0962e-01    2.8891e+05 ;     C6 - H9    
     7     15   1    1.8407e-01    1.5459e+05 ;     C7 - S1    
     7     25   1    1.0969e-01    2.8804e+05 ;     C7 - H10   
     7     26   1    1.0969e-01    2.8804e+05 ;     C7 - H11   
     7     27   1    1.0969e-01    2.8804e+05 ;     C7 - H12   
     8     13   1    1.4590e-01    2.1658e+05 ;     C8 - N4    
     8     28   1    1.0969e-01    2.8804e+05 ;     C8 - H13   
     8     29   1    1.0969e-01    2.8804e+05 ;     C8 - H14   
     9     14   1    1.4590e-01    2.1658e+05 ;     C9 - N5    
     9     30   1    1.0969e-01    2.8804e+05 ;     C9 - H15   
    13     31   1    1.0137e-01    3.9538e+05 ;     N4 - H16   
    14     32   1    1.0137e-01    3.9538e+05 ;     N5 - H17   

[ pairs ]
;   ai     aj    funct
     1      4      1 ;     C1 - C4    
     1     12      1 ;     C1 - N3    
     1     14      1 ;     C1 - N5    
     1     15      1 ;     C1 - S1    
     1     28      1 ;     C1 - H13   
     1     29      1 ;     C1 - H14   
     2      5      1 ;     C2 - C5    
     2      6      1 ;     C2 - C6    
     2     15      1 ;     C2 - S1    
     2     30      1 ;     C2 - H15   
     3     14      1 ;     C3 - N5    
     3     25      1 ;     C3 - H10   
     3     26      1 ;     C3 - H11   
     3     27      1 ;     C3 - H12   
     4     31      1 ;     C4 - H16   
     5     22      1 ;     C5 - H7    
     5     23      1 ;     C5 - H8    
     5     24      1 ;     C5 - H9    
     5     32      1 ;     C5 - H17   
     6     19      1 ;     C6 - H4    
     6     20      1 ;     C6 - H5    
     6     21      1 ;     C6 - H6    
     6     32      1 ;     C6 - H17   
     7     11      1 ;     C7 - N2    
     7     12      1 ;     C7 - N3    
     9     10      1 ;     C9 - N1    
     9     12      1 ;     C9 - N3    
    10      3      1 ;     N1 - C3    
    10      8      1 ;     N1 - C8    
    10     31      1 ;     N1 - H16   
    10     32      1 ;     N1 - H17   
    11      2      1 ;     N2 - C2    
    11      8      1 ;     N2 - C8    
    11     31      1 ;     N2 - H16   
    12     32      1 ;     N3 - H17   
    13      2      1 ;     N4 - C2    
    13      3      1 ;     N4 - C3    
    13     16      1 ;     N4 - H1    
    13     17      1 ;     N4 - H2    
    13     18      1 ;     N4 - H3    
    14     19      1 ;     N5 - H4    
    14     20      1 ;     N5 - H5    
    14     21      1 ;     N5 - H6    
    14     22      1 ;     N5 - H7    
    14     23      1 ;     N5 - H8    
    14     24      1 ;     N5 - H9    
    16     28      1 ;     H1 - H13   
    16     29      1 ;     H1 - H14   
    17     28      1 ;     H2 - H13   
    17     29      1 ;     H2 - H14   
    18     28      1 ;     H3 - H13   
    18     29      1 ;     H3 - H14   
    19     30      1 ;     H4 - H15   
    20     30      1 ;     H5 - H15   
    21     30      1 ;     H6 - H15   
    22     30      1 ;     H7 - H15   
    23     30      1 ;     H8 - H15   
    24     30      1 ;     H9 - H15   
    28     31      1 ;    H13 - H16   
    29     31      1 ;    H14 - H16   
    30     32      1 ;    H15 - H17   

[ angles ]
;   ai     aj     ak    funct   theta         cth
     1     10      2      1    1.1724e+02    6.9580e+02 ;     C1 - N1     - C2    
     1     11      3      1    1.1724e+02    6.9580e+02 ;     C1 - N2     - C3    
     1     13      8      1    1.2373e+02    6.3513e+02 ;     C1 - N4     - C8    
     1     13     31      1    1.1473e+02    4.8083e+02 ;     C1 - N4     - H16   
     2     12      3      1    1.1724e+02    6.9580e+02 ;     C2 - N3     - C3    
     2     14      9      1    1.2373e+02    6.3513e+02 ;     C2 - N5     - C9    
     2     14     32      1    1.1473e+02    4.8083e+02 ;     C2 - N5     - H17   
     3     15      7      1    1.0253e+02    7.7588e+02 ;     C3 - S1     - C7    
     4      8     13      1    1.1053e+02    5.4986e+02 ;     C4 - C8     - N4    
     4      8     28      1    1.0959e+02    3.6217e+02 ;     C4 - C8     - H13   
     4      8     29      1    1.0959e+02    3.6217e+02 ;     C4 - C8     - H14   
     5      9      6      1    1.1263e+02    5.0099e+02 ;     C5 - C9     - C6    
     5      9     14      1    1.1053e+02    5.4986e+02 ;     C5 - C9     - N5    
     5      9     30      1    1.0959e+02    3.6217e+02 ;     C5 - C9     - H15   
     6      9     14      1    1.1053e+02    5.4986e+02 ;     C6 - C9     - N5    
     6      9     30      1    1.0959e+02    3.6217e+02 ;     C6 - C9     - H15   
     8      4     16      1    1.0968e+02    3.6208e+02 ;     C8 - C4     - H1    
     8      4     17      1    1.0968e+02    3.6208e+02 ;     C8 - C4     - H2    
     8      4     18      1    1.0968e+02    3.6208e+02 ;     C8 - C4     - H3    
     8     13     31      1    1.1531e+02    4.6024e+02 ;     C8 - N4     - H16   
     9      5     19      1    1.0968e+02    3.6208e+02 ;     C9 - C5     - H4    
     9      5     20      1    1.0968e+02    3.6208e+02 ;     C9 - C5     - H5    
     9      5     21      1    1.0968e+02    3.6208e+02 ;     C9 - C5     - H6    
     9      6     22      1    1.0968e+02    3.6208e+02 ;     C9 - C6     - H7    
     9      6     23      1    1.0968e+02    3.6208e+02 ;     C9 - C6     - H8    
     9      6     24      1    1.0968e+02    3.6208e+02 ;     C9 - C6     - H9    
     9     14     32      1    1.1531e+02    4.6024e+02 ;     C9 - N5     - H17   
    10      1     11      1    1.2730e+02    6.0886e+02 ;     N1 - C1     - N2    
    10      1     13      1    1.1717e+02    6.2132e+02 ;     N1 - C1     - N4    
    10      2     12      1    1.2730e+02    6.0886e+02 ;     N1 - C2     - N3    
    10      2     14      1    1.1717e+02    6.2132e+02 ;     N1 - C2     - N5    
    11      1     13      1    1.1717e+02    6.2132e+02 ;     N2 - C1     - N4    
    11      3     12      1    1.2730e+02    6.0886e+02 ;     N2 - C3     - N3    
    11      3     15      1    1.1851e+02    5.6844e+02 ;     N2 - C3     - S1    
    12      2     14      1    1.1717e+02    6.2132e+02 ;     N3 - C2     - N5    
    12      3     15      1    1.1851e+02    5.6844e+02 ;     N3 - C3     - S1    
    13      8     28      1    1.0966e+02    4.0200e+02 ;     N4 - C8     - H13   
    13      8     29      1    1.0966e+02    4.0200e+02 ;     N4 - C8     - H14   
    14      9     30      1    1.0966e+02    4.0200e+02 ;     N5 - C9     - H15   
    15      7     25      1    1.0873e+02    3.5196e+02 ;     S1 - C7     - H10   
    15      7     26      1    1.0873e+02    3.5196e+02 ;     S1 - C7     - H11   
    15      7     27      1    1.0873e+02    3.5196e+02 ;     S1 - C7     - H12   
    16      4     17      1    1.0773e+02    2.9957e+02 ;     H1 - C4     - H2    
    16      4     18      1    1.0773e+02    2.9957e+02 ;     H1 - C4     - H3    
    17      4     18      1    1.0773e+02    2.9957e+02 ;     H2 - C4     - H3    
    19      5     20      1    1.0773e+02    2.9957e+02 ;     H4 - C5     - H5    
    19      5     21      1    1.0773e+02    2.9957e+02 ;     H4 - C5     - H6    
    20      5     21      1    1.0773e+02    2.9957e+02 ;     H5 - C5     - H6    
    22      6     23      1    1.0773e+02    2.9957e+02 ;     H7 - C6     - H8    
    22      6     24      1    1.0773e+02    2.9957e+02 ;     H7 - C6     - H9    
    23      6     24      1    1.0773e+02    2.9957e+02 ;     H8 - C6     - H9    
    25      7     26      1    1.0855e+02    2.9824e+02 ;    H10 - C7     - H11   
    25      7     27      1    1.0855e+02    2.9824e+02 ;    H10 - C7     - H12   
    26      7     27      1    1.0855e+02    2.9824e+02 ;    H11 - C7     - H12   
    28      8     29      1    1.0855e+02    2.9824e+02 ;    H13 - C8     - H14   

[ dihedrals ] ; propers
; for gromacs 4.5 or higher, using funct 9
;    i      j      k      l   func   phase     kd      pn
     1     10      2     12      9   180.00  20.08320   2 ;     C1-    N1-    C2-    N3
     1     10      2     14      9   180.00  20.08320   2 ;     C1-    N1-    C2-    N5
     1     11      3     12      9   180.00  20.08320   2 ;     C1-    N2-    C3-    N3
     1     11      3     15      9   180.00  20.08320   2 ;     C1-    N2-    C3-    S1
     1     13      8      4      9     0.00   0.00000   0 ;     C1-    N4-    C8-    C4
     1     13      8     28      9     0.00   1.75728   3 ;     C1-    N4-    C8-   H13
     1     13      8     29      9     0.00   1.75728   3 ;     C1-    N4-    C8-   H14
     2     12      3     11      9   180.00  20.08320   2 ;     C2-    N3-    C3-    N2
     2     12      3     15      9   180.00  20.08320   2 ;     C2-    N3-    C3-    S1
     2     14      9      5      9     0.00   0.00000   0 ;     C2-    N5-    C9-    C5
     2     14      9      6      9     0.00   0.00000   0 ;     C2-    N5-    C9-    C6
     2     14      9     30      9     0.00   1.75728   3 ;     C2-    N5-    C9-   H15
     3     12      2     10      9   180.00  20.08320   2 ;     C3-    N3-    C2-    N1
     3     12      2     14      9   180.00  20.08320   2 ;     C3-    N3-    C2-    N5
     3     15      7     25      9     0.00   1.39467   3 ;     C3-    S1-    C7-   H10
     3     15      7     26      9     0.00   1.39467   3 ;     C3-    S1-    C7-   H11
     3     15      7     27      9     0.00   1.39467   3 ;     C3-    S1-    C7-   H12
     4      8     13     31      9     0.00   0.00000   0 ;     C4-    C8-    N4-   H16
     5      9      6     22      9     0.00   0.54392   3 ;     C5-    C9-    C6-    H7
     5      9      6     23      9     0.00   0.54392   3 ;     C5-    C9-    C6-    H8
     5      9      6     24      9     0.00   0.54392   3 ;     C5-    C9-    C6-    H9
     5      9     14     32      9     0.00   0.00000   0 ;     C5-    C9-    N5-   H17
     6      9      5     19      9     0.00   0.54392   3 ;     C6-    C9-    C5-    H4
     6      9      5     20      9     0.00   0.54392   3 ;     C6-    C9-    C5-    H5
     6      9      5     21      9     0.00   0.54392   3 ;     C6-    C9-    C5-    H6
     6      9     14     32      9     0.00   0.00000   0 ;     C6-    C9-    N5-   H17
     7     15      3     11      9   180.00   1.67360   2 ;     C7-    S1-    C3-    N2
     7     15      3     12      9   180.00   1.67360   2 ;     C7-    S1-    C3-    N3
     9     14      2     10      9   180.00   4.39320   2 ;     C9-    N5-    C2-    N1
     9     14      2     12      9   180.00   4.39320   2 ;     C9-    N5-    C2-    N3
    10      1     11      3      9   180.00  20.08320   2 ;     N1-    C1-    N2-    C3
    10      1     13      8      9   180.00   4.39320   2 ;     N1-    C1-    N4-    C8
    10      1     13     31      9   180.00   4.39320   2 ;     N1-    C1-    N4-   H16
    10      2     14     32      9   180.00   4.39320   2 ;     N1-    C2-    N5-   H17
    11      1     10      2      9   180.00  20.08320   2 ;     N2-    C1-    N1-    C2
    11      1     13      8      9   180.00   4.39320   2 ;     N2-    C1-    N4-    C8
    11      1     13     31      9   180.00   4.39320   2 ;     N2-    C1-    N4-   H16
    12      2     14     32      9   180.00   4.39320   2 ;     N3-    C2-    N5-   H17
    13      1     10      2      9   180.00  20.08320   2 ;     N4-    C1-    N1-    C2
    13      1     11      3      9   180.00  20.08320   2 ;     N4-    C1-    N2-    C3
    13      8      4     16      9     0.00   0.65084   3 ;     N4-    C8-    C4-    H1
    13      8      4     17      9     0.00   0.65084   3 ;     N4-    C8-    C4-    H2
    13      8      4     18      9     0.00   0.65084   3 ;     N4-    C8-    C4-    H3
    14      9      5     19      9     0.00   0.65084   3 ;     N5-    C9-    C5-    H4
    14      9      5     20      9     0.00   0.65084   3 ;     N5-    C9-    C5-    H5
    14      9      5     21      9     0.00   0.65084   3 ;     N5-    C9-    C5-    H6
    14      9      6     22      9     0.00   0.65084   3 ;     N5-    C9-    C6-    H7
    14      9      6     23      9     0.00   0.65084   3 ;     N5-    C9-    C6-    H8
    14      9      6     24      9     0.00   0.65084   3 ;     N5-    C9-    C6-    H9
    16      4      8     28      9     0.00   0.65084   3 ;     H1-    C4-    C8-   H13
    16      4      8     29      9     0.00   0.65084   3 ;     H1-    C4-    C8-   H14
    17      4      8     28      9     0.00   0.65084   3 ;     H2-    C4-    C8-   H13
    17      4      8     29      9     0.00   0.65084   3 ;     H2-    C4-    C8-   H14
    18      4      8     28      9     0.00   0.65084   3 ;     H3-    C4-    C8-   H13
    18      4      8     29      9     0.00   0.65084   3 ;     H3-    C4-    C8-   H14
    19      5      9     30      9     0.00   0.65084   3 ;     H4-    C5-    C9-   H15
    20      5      9     30      9     0.00   0.65084   3 ;     H5-    C5-    C9-   H15
    21      5      9     30      9     0.00   0.65084   3 ;     H6-    C5-    C9-   H15
    22      6      9     30      9     0.00   0.65084   3 ;     H7-    C6-    C9-   H15
    23      6      9     30      9     0.00   0.65084   3 ;     H8-    C6-    C9-   H15
    24      6      9     30      9     0.00   0.65084   3 ;     H9-    C6-    C9-   H15
    28      8     13     31      9     0.00   0.00000   0 ;    H13-    C8-    N4-   H16
    29      8     13     31      9     0.00   0.00000   0 ;    H14-    C8-    N4-   H16
    30      9     14     32      9     0.00   0.00000   0 ;    H15-    C9-    N5-   H17

[ dihedrals ] ; impropers
; treated as propers in GROMACS to use correct AMBER analytical function
;    i      j      k      l   func   phase     kd      pn
     8      1     13     31      4   180.00   4.60240   2 ;     C8-    C1-    N4-   H16
     9      2     14     32      4   180.00   4.60240   2 ;     C9-    C2-    N5-   H17
    10     12      2     14      4   180.00   4.60240   2 ;     N1-    N3-    C2-    N5
    11     12      3     15      4   180.00   4.60240   2 ;     N2-    N3-    C3-    S1
    13      1     11     10      4   180.00   4.60240   2 ;     N4-    C1-    N2-    N1
